Title
42794
    1SAPS     N    1   3.206   3.368   6.221 -0.1387 -0.4268  0.2779
    1SAPS   HN1    2   3.159   3.385   6.130 -1.3376 -0.3611  0.9089
    1SAPS   HN2    3   3.164   3.427   6.295 -0.5493  0.4229 -0.6092
    1SAPS   HN3    4   3.303   3.406   6.210 -0.4595  0.2414 -0.3129
    1SAPS   C12    5   3.216   3.221   6.244  0.7044 -0.0689  0.5040
    1SAPS  H12A    6   3.278   3.195   6.329 -1.2598  0.6439  2.1844
    1SAPS   C13    7   3.090   3.137   6.259 -0.0934 -0.8004 -0.6367
    1SAPS  O13A    8   2.973   3.182   6.258 -0.4522 -0.1489 -0.1229
    1SAPS  O13B    9   3.111   3.021   6.297  0.1433  0.4761 -0.2107
    1SAPS   C11   10   3.285   3.171   6.118  0.7206  0.1271  0.6152
    1SAPS  H11A   11   3.233   3.203   6.025  2.9340 -1.7234 -1.3386
    1SAPS  H11B   12   3.281   3.060   6.124 -0.1763  0.1738  0.8784
    1SAPS     P   13   3.514   3.169   5.998  0.2254  0.1152  0.0497
    1SAPS   O13   14   3.623   3.268   5.990  0.1775  0.9595 -0.0114
    1SAPS   O14   15   3.543   3.024   6.006 -0.1489  0.2922 -0.2645
    1SAPS   O12   16   3.419   3.220   6.114  0.5918 -0.1603  0.3369
    1SAPS   O11   17   3.417   3.197   5.878 -0.0599  0.4527 -0.2330
    1SAPS    C1   18   3.377   3.333   5.857 -0.1194 -0.3584  0.1786
    1SAPS    HA   19   3.270   3.323   5.829  0.0754 -3.1240  0.2894
    1SAPS    HB   20   3.368   3.398   5.946 -1.9978  0.7577 -0.7790
    1SAPS    C2   21   3.454   3.404   5.744  0.0934  0.0953 -0.6043
    1SAPS    HS   22   3.558   3.418   5.783  0.3231 -1.3589 -0.6804
    1SAPS   O21   23   3.385   3.523   5.720  0.2539  0.0667  0.4446
    1SAPS   C21   24   3.460   3.629   5.722 -0.8245 -0.9062 -0.7469
    1SAPS   O22   25   3.579   3.631   5.722  0.1368  0.2128 -0.0583
    1SAPS   C22   26   3.369   3.760   5.705  0.2068 -0.1038  0.1408
    1SAPS   H2R   27   3.289   3.728   5.634  0.7242 -0.9195 -0.0707
    1SAPS   H2S   28   3.313   3.775   5.800  0.3739  1.2026  0.0452
    1SAPS    C3   29   3.464   3.305   5.622 -0.3388 -0.2961  0.3150
    1SAPS    HX   30   3.362   3.272   5.593  0.8851 -1.3138 -3.0779
    1SAPS    HY   31   3.518   3.210   5.643 -0.9147 -1.1612 -1.9418
    1SAPS   O31   32   3.520   3.370   5.506 -0.1572  0.0328 -0.1020
    1SAPS   C31   33   3.653   3.380   5.494 -0.2364 -0.7049  0.9360
    1SAPS   O32   34   3.729   3.326   5.574  0.2014 -0.0894  0.3650
    1SAPS   C32   35   3.692   3.449   5.358 -0.8521 -0.1945  0.4289
    1SAPS   H2X   36   3.785   3.396   5.328  0.1965  1.2714  1.0365
    1SAPS   H2Y   37   3.726   3.555   5.363 -0.9707  0.0631 -2.9829
    1SAPS   C23   38   3.435   3.882   5.633  0.3284 -0.3237  0.0352
    1SAPS   H3R   39   3.518   3.913   5.700 -0.2681  0.4460  0.4167
    1SAPS   H3S   40   3.356   3.960   5.633  0.7536  0.1175  1.3381
    1SAPS   C24   41   3.497   3.852   5.494 -0.5988  0.3695  0.2523
    1SAPS   H4R   42   3.423   3.813   5.420 -0.1324 -0.0287 -0.0085
    1SAPS   H4S   43   3.557   3.762   5.520 -0.8013 -0.3924 -1.8020
    1SAPS   C25   44   3.574   3.958   5.419 -0.6420  0.0515 -0.0075
    1SAPS   H5R   45   3.593   4.049   5.478  1.5402  0.2983 -1.0774
    1SAPS   C26   46   3.627   3.950   5.295 -0.1543 -0.1347 -0.0122
    1SAPS   H6R   47   3.678   4.035   5.248  0.7344 -0.6467  0.0126
    1SAPS   C27   48   3.622   3.834   5.198 -0.0964  0.6137 -0.0641
    1SAPS   H7R   49   3.520   3.821   5.154  0.1635 -3.4478  0.3069
    1SAPS   H7S   50   3.632   3.739   5.255  2.4255 -1.1793 -3.3022
    1SAPS   C28   51   3.723   3.868   5.086  0.0215  0.2385  0.5400
    1SAPS   H8R   52   3.826   3.836   5.109  0.2328  0.4435 -0.1295
    1SAPS   C29   53   3.692   3.919   4.964 -0.6612  0.0941 -0.0271
    1SAPS   H9R   54   3.780   3.925   4.897  0.6296 -0.4182  1.5912
    1SAPS  C210   55   3.565   3.967   4.920  0.1066  0.0195  0.0955
    1SAPS  H10R   56   3.498   4.000   5.002  2.1518  0.0046  1.7975
    1SAPS  H10S   57   3.514   3.886   4.864 -0.6397 -0.2035  1.0845
    1SAPS  C211   58   3.576   4.094   4.843 -0.3771  0.2021  0.0793
    1SAPS  H11R   59   3.623   4.173   4.904 -0.4627  0.4375 -0.1595
    1SAPS  C212   60   3.551   4.115   4.714 -0.0196  0.0191 -0.1537
    1SAPS  H12R   61   3.532   4.218   4.682 -0.5158  0.1964  0.6970
    1SAPS  C213   62   3.516   4.010   4.610  0.0944  0.2383  0.0112
    1SAPS  H13R   63   3.487   4.070   4.520  0.4524  1.0218  0.4119
    1SAPS  H13S   64   3.416   3.968   4.633  0.4912 -1.3119 -1.0496
    1SAPS  C214   65   3.632   3.926   4.567  0.3436 -1.0419 -1.6182
    1SAPS  H14R   66   3.723   3.933   4.629 -1.7491  3.3319  1.1524
    1SAPS  C215   67   3.625   3.824   4.484 -0.3026  0.9993 -0.4431
    1SAPS  H15R   68   3.709   3.753   4.491 -1.2668 -0.2625 -1.4235
    1SAPS  C216   69   3.508   3.784   4.397  0.0820 -0.3370 -0.1857
    1SAPS  H16R   70   3.459   3.880   4.368  0.7298  0.4325  1.2137
    1SAPS  H16S   71   3.444   3.708   4.446 -0.6330 -0.4596 -1.3010
    1SAPS  C217   72   3.567   3.713   4.272 -0.2327  0.0566  0.0366
    1SAPS  H17R   73   3.631   3.628   4.305 -0.6546  0.0490  0.8644
    1SAPS  H17S   74   3.637   3.776   4.214  1.7334  0.4429  2.7016
    1SAPS  C218   75   3.454   3.656   4.181  0.1064 -0.7865 -0.2691
    1SAPS  H18R   76   3.418   3.741   4.118  1.5743 -0.0529 -0.1301
    1SAPS  H18S   77   3.371   3.616   4.244 -1.3919  2.4219 -0.0721
    1SAPS  C219   78   3.521   3.545   4.093  0.5670  0.5867  0.3995
    1SAPS  H19R   79   3.448   3.494   4.027  0.4741  2.4095 -0.9322
    1SAPS  H19S   80   3.560   3.461   4.155  0.1839 -0.3908 -0.6781
    1SAPS  C220   81   3.633   3.594   4.007 -0.3018 -0.3707  0.4153
    1SAPS  H20R   82   3.584   3.667   3.938  1.2428 -0.2984 -0.6289
    1SAPS  H20S   83   3.680   3.515   3.945  2.5352 -0.5423  2.7227
    1SAPS  H20T   84   3.722   3.635   4.059  0.5411 -0.0498 -1.2210
    1SAPS   C33   85   3.580   3.435   5.247 -0.0482 -0.7292 -0.1746
    1SAPS   H3X   86   3.492   3.496   5.279  1.1797  0.2884  1.3937
    1SAPS   H3Y   87   3.547   3.329   5.249  2.2558 -1.4534  0.9262
    1SAPS   C34   88   3.626   3.481   5.107 -0.8443  0.4289  0.4528
    1SAPS   H4X   89   3.705   3.418   5.061 -0.6828  0.4112  0.7543
    1SAPS   H4Y   90   3.671   3.583   5.102  0.9307 -0.4485 -2.8276
    1SAPS   C35   91   3.504   3.482   5.012  0.0632 -0.2278 -1.0197
    1SAPS   H5X   92   3.427   3.559   5.032  0.7578 -0.4627  3.0304
    1SAPS   H5Y   93   3.447   3.387   5.019 -1.9374  1.0408  0.0845
    1SAPS   C36   94   3.546   3.484   4.860 -0.2618 -0.7485  0.3441
    1SAPS   H6X   95   3.610   3.394   4.854  2.7162  1.3934 -1.6345
    1SAPS   H6Y   96   3.619   3.566   4.846 -0.0076 -0.3585  3.5013
    1SAPS   C37   97   3.430   3.484   4.759  0.1193  0.6230  0.2997
    1SAPS   H7X   98   3.383   3.584   4.744 -1.2945 -0.2729 -1.5027
    1SAPS   H7Y   99   3.349   3.417   4.794 -1.8241  2.3340 -0.8073
    1SAPS   C38  100   3.496   3.425   4.626 -0.5805  0.2437 -0.2468
    1SAPS   H8X  101   3.585   3.483   4.596 -0.3679 -1.6205 -3.4637
    1SAPS   H8Y  102   3.424   3.439   4.543  0.7543 -2.2815 -1.9082
    1SAPS   C39  103   3.533   3.268   4.626  0.6641 -1.0417 -0.7929
    1SAPS   H9X  104   3.433   3.220   4.621 -0.6930  1.5636  0.2326
    1SAPS   H9Y  105   3.595   3.251   4.717 -1.1607 -1.3904  0.4161
    1SAPS  C310  106   3.612   3.220   4.502 -0.4285  0.6832 -0.2664
    1SAPS  H10X  107   3.633   3.111   4.506 -2.0546  0.1221 -4.1633
    1SAPS  H10Y  108   3.710   3.272   4.502 -0.3723  0.6834 -3.1621
    1SAPS  C311  109   3.558   3.235   4.362 -0.1442  0.5990 -0.3217
    1SAPS  H11X  110   3.535   3.343   4.352 -1.8216  0.2498 -0.4183
    1SAPS  H11Y  111   3.466   3.174   4.362  0.2676 -0.0316 -0.6054
    1SAPS  C312  112   3.666   3.188   4.261 -0.1593 -0.3164 -0.1151
    1SAPS  H12X  113   3.734   3.107   4.293  0.9611  0.0885 -1.4335
    1SAPS  H12Y  114   3.729   3.280   4.262 -0.9860  0.2707 -0.5041
    1SAPS  C313  115   3.607   3.169   4.119 -0.1762 -0.1626 -0.1124
    1SAPS  H13X  116   3.562   3.261   4.076  0.3166 -1.2654 -3.1084
    1SAPS  H13Y  117   3.538   3.082   4.122 -2.1473  1.3537 -0.3762
    1SAPS  C314  118   3.717   3.128   4.019 -0.4542  0.4751  0.4370
    1SAPS  H14X  119   3.790   3.059   4.067  1.7011  0.7234 -2.3515
    1SAPS  H14Y  120   3.769   3.215   3.975 -0.3148 -0.4805 -1.3625
    1SAPS  C315  121   3.664   3.040   3.901  0.0289  0.0192  0.2653
    1SAPS  H15X  122   3.631   2.939   3.930  0.8032 -0.0493  0.9350
    1SAPS  H15Y  123   3.761   3.035   3.847 -1.1134 -1.6469 -1.6877
    1SAPS  C316  124   3.552   3.108   3.819 -0.1514 -0.9216  0.3479
    1SAPS  H16X  125   3.576   3.213   3.795 -3.3782 -0.7364 -2.3723
    1SAPS  H16Y  126   3.464   3.116   3.887 -0.0638 -0.9109  0.4599
    1SAPS  C317  127   3.501   3.035   3.697 -0.4070  0.0218  0.7261
    1SAPS  H17X  128   3.433   3.101   3.639 -0.7340 -1.3177 -0.4713
    1SAPS  H17Y  129   3.436   2.946   3.716  0.5414 -0.5511  1.2936
    1SAPS  C318  130   3.613   3.002   3.593  0.4001  0.1413  0.5204
    1SAPS  H18X  131   3.576   2.928   3.518  0.3520  1.0153 -0.3243
    1SAPS  H18Y  132   3.702   2.959   3.644 -0.4311 -0.7970  1.1910
    1SAPS  H18Z  133   3.635   3.093   3.533  0.8184  0.3771  1.0204
    2SAPS     N  134   4.395   5.105   6.231  0.2036  0.1039  0.0581
    2SAPS   HN1  135   4.465   5.175   6.264 -0.2591  0.7865 -0.3731
    2SAPS   HN2  136   4.429   5.007   6.233 -0.2730 -0.1243 -1.7622
    2SAPS   HN3  137   4.359   5.130   6.136 -0.4524 -1.5093 -0.1322
    2SAPS   C12  138   4.275   5.119   6.307  0.3844  0.1507  0.0804
    2SAPS  H12A  139   4.199   5.065   6.251  2.3316 -1.9158 -0.6417
    2SAPS   C13  140   4.282   5.064   6.449  0.1010  0.5220 -0.8886
    2SAPS  O13A  141   4.395   5.022   6.496  0.5248 -0.6776 -0.5141
    2SAPS  O13B  142   4.188   5.101   6.527  0.1918  0.1693  0.1932
    2SAPS   C11  143   4.242   5.266   6.307 -0.4940  0.5063  0.1755
    2SAPS  H11A  144   4.324   5.319   6.359 -0.3110  0.0613  0.3419
    2SAPS  H11B  145   4.143   5.279   6.356 -1.2710  0.8750 -1.4396
    2SAPS     P  146   4.194   5.466   6.140 -0.0723  0.4083 -0.2182
    2SAPS   O13  147   4.134   5.539   6.255 -0.6660  0.4887  0.2472
    2SAPS   O14  148   4.313   5.522   6.072 -0.1627  0.6843 -0.1397
    2SAPS   O12  149   4.228   5.320   6.178  0.2386 -0.6004  0.0454
    2SAPS   O11  150   4.084   5.429   6.030  0.2783 -0.4761  0.1131
    2SAPS    C1  151   3.974   5.353   6.091 -0.3798 -0.6751  0.6596
    2SAPS    HA  152   4.005   5.259   6.141  1.1898  0.0774  1.1144
    2SAPS    HB  153   3.919   5.421   6.161  0.5161  0.4264  0.3115
    2SAPS    C2  154   3.857   5.315   5.981 -0.1829 -0.4265 -0.8759
    2SAPS    HS  155   3.782   5.248   6.028 -1.0872  2.3242  1.8160
    2SAPS   O21  156   3.911   5.259   5.863  0.3536 -0.2246 -0.0048
    2SAPS   C21  157   3.823   5.203   5.783  0.4597 -0.2140 -0.0501
    2SAPS   O22  158   3.702   5.215   5.789 -0.1146 -0.1034  0.1483
    2SAPS   C22  159   3.906   5.108   5.690  0.0011  0.2973  0.3010
    2SAPS   H2R  160   4.004   5.158   5.673  0.7594 -1.4657 -0.7129
    2SAPS   H2S  161   3.914   5.013   5.747 -1.1779 -1.9423 -3.1024
    2SAPS    C3  162   3.784   5.449   5.940 -0.0992 -0.0545 -0.3843
    2SAPS    HX  163   3.752   5.499   6.034 -0.6007 -2.0422  0.5382
    2SAPS    HY  164   3.687   5.444   5.886  0.3641  1.0681 -1.3374
    2SAPS   O31  165   3.875   5.541   5.884  0.2653 -0.6651 -0.6968
    2SAPS   C31  166   3.868   5.548   5.756  0.3670  0.2833  0.0012
    2SAPS   O32  167   3.789   5.484   5.686  0.1469 -0.3147  0.4029
    2SAPS   C32  168   3.975   5.648   5.706 -0.3565  0.1989  0.3134
    2SAPS   H2X  169   4.071   5.594   5.723 -1.2044 -2.1935 -2.0103
    2SAPS   H2Y  170   3.974   5.738   5.769 -1.6718  1.1309 -1.0046
    2SAPS   C23  171   3.816   5.080   5.566  0.2095 -0.4468 -0.2295
    2SAPS   H3R  172   3.811   5.180   5.518 -0.4129 -0.2852  0.1619
    2SAPS   H3S  173   3.710   5.055   5.590  0.5193 -1.1952  0.3437
    2SAPS   C24  174   3.879   4.973   5.475 -0.3517 -0.2251  0.2833
    2SAPS   H4R  175   3.807   4.964   5.391  0.1903  1.8696 -0.4416
    2SAPS   H4S  176   3.872   4.876   5.529 -0.1421 -0.7207 -0.5890
    2SAPS   C25  177   4.012   5.012   5.422 -0.1502 -0.5545  0.7813
    2SAPS   H5R  178   4.084   5.001   5.504  1.4207 -0.1098 -0.5239
    2SAPS   C26  179   4.030   5.054   5.294 -0.6562 -0.3145 -0.2448
    2SAPS   H6R  180   4.134   5.057   5.258 -0.4465  1.8563  0.4620
    2SAPS   C27  181   3.930   5.082   5.177 -0.8124  0.7569  0.5478
    2SAPS   H7R  182   3.833   5.031   5.196  0.0611 -0.4647  1.8535
    2SAPS   H7S  183   3.970   5.035   5.085 -0.6133 -2.1926  2.0671
    2SAPS   C28  184   3.902   5.232   5.171 -0.1367  0.1959 -0.1433
    2SAPS   H8R  185   3.897   5.276   5.272  3.1829 -1.0616  0.6440
    2SAPS   C29  186   3.891   5.312   5.065 -0.0493 -0.8793 -0.5538
    2SAPS   H9R  187   3.873   5.420   5.068 -0.2893 -0.9137 -0.7916
    2SAPS  C210  188   3.901   5.260   4.923  0.0346 -0.3047  0.2490
    2SAPS  H10R  189   3.803   5.242   4.872 -1.0901  1.0026  1.9033
    2SAPS  H10S  190   3.943   5.157   4.921  0.9459  0.0690 -1.4836
    2SAPS  C211  191   3.994   5.345   4.833 -0.1257 -0.0243  0.5866
    2SAPS  H11R  192   4.100   5.334   4.858  0.2342 -1.0363 -1.3293
    2SAPS  C212  193   3.963   5.419   4.730 -0.6146  0.1744 -0.3657
    2SAPS  H12R  194   4.051   5.458   4.677  1.3952 -0.5478  2.3223
    2SAPS  C213  195   3.834   5.462   4.665 -0.3447 -0.3988 -0.0146
    2SAPS  H13R  196   3.760   5.439   4.744  1.6966 -2.5908  1.3181
    2SAPS  H13S  197   3.808   5.405   4.573 -1.0985  0.2901 -0.2388
    2SAPS  C214  198   3.833   5.609   4.632  0.0306 -0.0943  0.1109
    2SAPS  H14R  199   3.826   5.630   4.525 -0.9990 -1.7929 -0.1856
    2SAPS  C215  200   3.828   5.711   4.718 -0.1080 -0.1439 -0.2087
    2SAPS  H15R  201   3.840   5.818   4.696 -1.5955 -0.2462 -1.6463
    2SAPS  C216  202   3.822   5.714   4.872  0.3741  0.3180  0.3062
    2SAPS  H16R  203   3.870   5.622   4.913  1.4305  0.5029 -0.4920
    2SAPS  H16S  204   3.714   5.703   4.895  0.3976 -0.7209 -0.0283
    2SAPS  C217  205   3.875   5.843   4.940 -0.5296 -0.1923  0.0733
    2SAPS  H17R  206   3.866   5.846   5.051  0.6922 -2.9762  0.2912
    2SAPS  H17S  207   3.829   5.932   4.894 -1.2362  0.2679  1.6242
    2SAPS  C218  208   4.025   5.871   4.925 -0.2511  0.0984 -0.0825
    2SAPS  H18R  209   4.049   5.829   4.825 -0.0669 -1.1740  0.4931
    2SAPS  H18S  210   4.076   5.802   4.994  2.9102  2.3184 -0.1042
    2SAPS  C219  211   4.064   6.022   4.928 -0.0614 -0.2476 -0.7056
    2SAPS  H19R  212   4.043   6.065   5.028 -1.1471 -0.6187 -0.7682
    2SAPS  H19S  213   4.008   6.082   4.854  0.3761  1.7937  0.5743
    2SAPS  C220  214   4.217   6.047   4.926 -0.3628 -0.5181  0.7109
    2SAPS  H20R  215   4.272   5.998   5.010 -1.7981 -3.0928  0.1866
    2SAPS  H20S  216   4.223   6.158   4.927  0.6968 -0.5435 -1.1151
    2SAPS  H20T  217   4.254   6.015   4.826 -1.6167 -1.9806  0.7004
    2SAPS   C33  218   3.974   5.689   5.559 -0.0608 -0.2718  0.6005
    2SAPS   H3X  219   4.041   5.777   5.563 -1.2466  0.7893 -1.7710
    2SAPS   H3Y  220   3.873   5.708   5.517  0.0689 -3.0190 -1.1391
    2SAPS   C34  221   4.032   5.585   5.466 -0.7608  0.6593 -0.7807
    2SAPS   H4X  222   3.966   5.496   5.467 -0.0085  0.0916 -1.1650
    2SAPS   H4Y  223   4.129   5.564   5.515 -1.3622 -0.3669 -0.0079
    2SAPS   C35  224   4.075   5.641   5.327 -0.7373  0.4997 -0.6899
    2SAPS   H5X  225   4.122   5.742   5.328  0.3229  0.0170  1.7248
    2SAPS   H5Y  226   3.996   5.636   5.248  0.1751  1.2414 -1.6691
    2SAPS   C36  227   4.195   5.544   5.275  1.1386 -0.3379 -0.6771
    2SAPS   H6X  228   4.162   5.438   5.276 -1.5801  0.4703  0.2883
    2SAPS   H6Y  229   4.279   5.568   5.344 -0.8974  1.1242  1.3786
    2SAPS   C37  230   4.216   5.575   5.123 -0.1183 -0.0425  0.1346
    2SAPS   H7X  231   4.239   5.684   5.114 -4.5173  0.8094 -2.8567
    2SAPS   H7Y  232   4.123   5.550   5.067  0.4116 -0.8641 -0.3972
    2SAPS   C38  233   4.330   5.490   5.064  0.3635 -0.5335  0.0405
    2SAPS   H8X  234   4.308   5.381   5.068  0.8492 -0.6318 -0.0248
    2SAPS   H8Y  235   4.423   5.500   5.123  1.9715 -0.6020 -2.4206
    2SAPS   C39  236   4.362   5.525   4.916  0.2380  0.0566 -0.0757
    2SAPS   H9X  237   4.399   5.630   4.908 -0.2434  0.1581 -1.0216
    2SAPS   H9Y  238   4.274   5.533   4.849 -0.2332 -0.3303  0.4870
    2SAPS  C310  239   4.473   5.439   4.854  0.2714 -0.0408 -0.2301
    2SAPS  H10X  240   4.432   5.339   4.828  3.1280 -0.8407 -1.8345
    2SAPS  H10Y  241   4.560   5.427   4.922 -1.4214 -1.3694  1.7838
    2SAPS  C311  242   4.524   5.495   4.717  0.0519  0.0920 -0.5657
    2SAPS  H11X  243   4.599   5.425   4.674  0.0814 -0.2828  0.0760
    2SAPS  H11Y  244   4.573   5.592   4.739  1.2059 -0.6249  0.0668
    2SAPS  C312  245   4.413   5.524   4.611  0.2737  0.8146  0.3488
    2SAPS  H12X  246   4.470   5.563   4.524  0.4421 -0.4571 -0.1276
    2SAPS  H12Y  247   4.348   5.607   4.646 -0.2036  0.6565 -0.1590
    2SAPS  C313  248   4.337   5.395   4.571 -0.0522  0.0083  0.6448
    2SAPS  H13X  249   4.236   5.416   4.532  0.1694 -0.2836 -0.0934
    2SAPS  H13Y  250   4.316   5.333   4.661 -3.2482 -0.6779 -0.5339
    2SAPS  C314  251   4.409   5.309   4.463  0.7816 -0.8530  0.4648
    2SAPS  H14X  252   4.505   5.279   4.512  1.3929  1.6053  0.8321
    2SAPS  H14Y  253   4.428   5.362   4.368 -0.6702 -1.2365 -0.0503
    2SAPS  C315  254   4.336   5.176   4.422 -0.2054  0.0268  1.2176
    2SAPS  H15X  255   4.227   5.189   4.407 -0.3569 -0.2896  2.0260
    2SAPS  H15Y  256   4.341   5.106   4.507  1.3221 -0.8554  0.4227
    2SAPS  C316  257   4.389   5.123   4.283  0.7258 -0.3048 -0.2519
    2SAPS  H16X  258   4.497   5.098   4.288  0.6023 -0.3343  2.6850
    2SAPS  H16Y  259   4.387   5.205   4.207 -1.3595 -0.4593 -0.3842
    2SAPS  C317  260   4.309   5.002   4.238 -0.8342  0.2662 -0.1502
    2SAPS  H17X  261   4.213   5.045   4.203 -2.2471 -2.8271 -0.2668
    2SAPS  H17Y  262   4.277   4.948   4.330  1.2537 -0.4717  0.1513
    2SAPS  C318  263   4.376   4.913   4.131 -0.2720 -0.3194 -0.1477
    2SAPS  H18X  264   4.376   4.968   4.034  0.7690  1.2324  0.6969
    2SAPS  H18Y  265   4.325   4.815   4.118 -1.6888  0.4004 -0.0242
    2SAPS  H18Z  266   4.482   4.887   4.153 -0.1298  0.4116  0.0482
    3SAPS     N  267   4.581   5.435   6.038 -0.2049  0.6714 -0.1468
    3SAPS   HN1  268   4.491   5.457   6.085  0.6770  0.6376  1.5752
    3SAPS   HN2  269   4.589   5.492   5.951 -0.3666 -0.7584 -1.1127
    3SAPS   HN3  270   4.597   5.333   6.025 -2.1671  0.4444 -1.0314
    3SAPS   C12  271   4.670   5.482   6.152 -0.2610 -0.1201 -0.0266
    3SAPS  H12A  272   4.661   5.589   6.160  2.0810  0.2451 -1.7511
    3SAPS   C13  273   4.625   5.418   6.285  0.2184 -0.6608 -0.3790
    3SAPS  O13A  274   4.564   5.310   6.285  0.7086 -0.1798  0.1462
    3SAPS  O13B  275   4.649   5.490   6.388  0.2044  0.3363 -0.0772
    3SAPS   C11  276   4.813   5.434   6.126  0.0869  0.0501 -0.3671
    3SAPS  H11A  277   4.871   5.472   6.213  2.8935 -1.0803 -1.6835
    3SAPS  H11B  278   4.850   5.481   6.032 -1.5214 -0.3145 -1.1995
    3SAPS     P  279   4.937   5.211   6.055  0.0806  0.4089 -0.1695
    3SAPS   O13  280   5.057   5.296   6.071  0.4725 -1.1943  0.3060
    3SAPS   O14  281   4.940   5.077   6.107 -0.0070 -0.3134 -0.4976
    3SAPS   O12  282   4.821   5.296   6.125  0.2332  1.2414 -0.1006
    3SAPS   O11  283   4.880   5.204   5.911 -0.1466 -0.3735  0.4746
    3SAPS    C1  284   4.748   5.154   5.876 -1.2056  0.4458  0.5211
    3SAPS    HA  285   4.693   5.152   5.972 -1.1355  1.4915  0.5913
    3SAPS    HB  286   4.700   5.230   5.811 -0.0704 -0.0753 -0.9791
    3SAPS    C2  287   4.766   5.017   5.813  0.3422 -0.0850 -0.0178
    3SAPS    HS  288   4.850   4.962   5.859 -1.2667 -0.4429  2.5915
    3SAPS   O21  289   4.789   5.047   5.674 -0.3703 -0.1544  0.2515
    3SAPS   C21  290   4.850   4.940   5.612  0.8357 -0.6748  0.6289
    3SAPS   O22  291   4.891   4.836   5.660  0.6680  0.1840  0.4822
    3SAPS   C22  292   4.889   4.977   5.469 -0.0940  0.5252 -0.5051
    3SAPS   H2R  293   4.829   5.068   5.447 -0.1996  0.5730 -0.0200
    3SAPS   H2S  294   4.997   4.998   5.458  0.0572  0.4509  0.7347
    3SAPS    C3  295   4.638   4.924   5.834  0.1419 -0.0239 -0.2973
    3SAPS    HX  296   4.623   4.916   5.944  0.0902 -1.3165 -0.3894
    3SAPS    HY  297   4.655   4.825   5.787  0.1506 -0.0042 -0.3363
    3SAPS   O31  298   4.527   4.998   5.769 -0.1682  0.5818  0.2162
    3SAPS   C31  299   4.431   4.933   5.713 -0.5951 -0.2432  0.0394
    3SAPS   O32  300   4.415   4.814   5.735  0.0991  0.3982  0.6647
    3SAPS   C32  301   4.356   5.023   5.622 -0.2250 -0.2247 -0.5344
    3SAPS   H2X  302   4.326   5.113   5.681 -1.9115 -1.0775 -0.0501
    3SAPS   H2Y  303   4.260   4.971   5.603 -0.5365  0.6508 -1.4026
    3SAPS   C23  304   4.856   4.866   5.361 -0.5004  0.4182 -0.5935
    3SAPS   H3R  305   4.746   4.852   5.364 -0.7124  2.2466  0.9092
    3SAPS   H3S  306   4.918   4.777   5.382  1.0666  2.3197  3.2661
    3SAPS   C24  307   4.886   4.917   5.218  0.6332 -0.0612 -0.1542
    3SAPS   H4R  308   4.993   4.904   5.192  0.7613 -0.9189  0.7799
    3SAPS   H4S  309   4.879   5.028   5.223  0.2634 -0.1314  1.1274
    3SAPS   C25  310   4.803   4.852   5.109 -0.5453 -0.0808  0.1689
    3SAPS   H5R  311   4.699   4.885   5.116 -1.0654 -1.3126 -1.4775
    3SAPS   C26  312   4.836   4.767   5.015  0.4551  0.4604  0.2471
    3SAPS   H6R  313   4.764   4.725   4.943 -0.0042  1.1311  0.3083
    3SAPS   C27  314   4.971   4.710   4.996  0.0991 -0.1277  0.0714
    3SAPS   H7R  315   5.042   4.791   4.969  0.2252 -0.3453 -0.2608
    3SAPS   H7S  316   4.977   4.645   4.906 -0.0832 -0.7338  0.4905
    3SAPS   C28  317   5.023   4.624   5.108 -0.1194  0.2408 -0.6445
    3SAPS   H8R  318   5.051   4.681   5.198 -0.5927 -0.4924 -0.0168
    3SAPS   C29  319   5.046   4.490   5.105 -0.6489 -0.7953 -0.1067
    3SAPS   H9R  320   5.079   4.429   5.190  1.2821  1.4098  0.7929
    3SAPS  C210  321   5.022   4.397   4.989 -0.2944  0.7338  0.1882
    3SAPS  H10R  322   4.926   4.419   4.939 -0.8579 -1.7191  0.1345
    3SAPS  H10S  323   5.004   4.298   5.037 -1.2050  1.2509  0.9263
    3SAPS  C211  324   5.143   4.392   4.907  0.4908 -0.2600 -0.5318
    3SAPS  H11R  325   5.241   4.371   4.953  0.5817 -0.2990 -0.7395
    3SAPS  C212  326   5.136   4.420   4.767 -0.5335  0.7358 -0.3918
    3SAPS  H12R  327   5.207   4.380   4.694 -1.3592  1.0998 -1.3962
    3SAPS  C213  328   5.013   4.458   4.691  0.0133  0.0857  0.1673
    3SAPS  H13R  329   5.038   4.544   4.625 -0.3271 -0.2269 -0.3786
    3SAPS  H13S  330   4.934   4.499   4.758 -2.5274 -0.1746 -2.5416
    3SAPS  C214  331   4.967   4.337   4.606 -0.7125 -0.7101  0.2977
    3SAPS  H14R  332   4.963   4.241   4.660  0.5207 -1.2566 -0.5723
    3SAPS  C215  333   4.950   4.347   4.476 -0.0303  0.4096 -0.3359
    3SAPS  H15R  334   4.918   4.257   4.421  1.7434 -0.9007  0.7071
    3SAPS  C216  335   4.972   4.464   4.381 -0.0505 -0.5179 -0.1880
    3SAPS  H16R  336   4.993   4.560   4.433 -0.2074  1.1033 -3.0122
    3SAPS  H16S  337   4.875   4.487   4.332 -0.2570  0.1550  0.5240
    3SAPS  C217  338   5.077   4.425   4.274  0.0448  0.5365  0.3252
    3SAPS  H17R  339   5.076   4.506   4.198  1.2100  0.4111  0.1689
    3SAPS  H17S  340   5.046   4.333   4.219  1.2846  0.6392 -0.5631
    3SAPS  C218  341   5.215   4.401   4.336 -0.2821 -0.1174  0.4461
    3SAPS  H18R  342   5.202   4.324   4.415 -0.8421 -2.0157 -1.4519
    3SAPS  H18S  343   5.250   4.502   4.365 -1.8674  0.1042  1.6189
    3SAPS  C219  344   5.336   4.353   4.249  0.5086  0.0691  0.3872
    3SAPS  H19R  345   5.383   4.435   4.190  1.9085 -0.0476  1.3211
    3SAPS  H19S  346   5.418   4.328   4.321  0.6964  1.3042  0.6024
    3SAPS  C220  347   5.310   4.226   4.161  0.4394 -0.3232  0.0880
    3SAPS  H20R  348   5.406   4.216   4.106  1.3031  0.5876  1.3978
    3SAPS  H20S  349   5.222   4.235   4.095 -0.8980  1.3588  2.0312
    3SAPS  H20T  350   5.299   4.140   4.230 -0.2937  0.0004  0.3781
    3SAPS   C33  351   4.431   5.072   5.494 -0.4172  0.1446  0.0661
    3SAPS   H3X  352   4.539   5.081   5.516 -0.0263 -0.0548 -1.6612
    3SAPS   H3Y  353   4.387   5.169   5.459  0.0539 -0.1893 -1.4682
    3SAPS   C34  354   4.416   4.967   5.384 -0.2243 -0.3839 -0.2807
    3SAPS   H4X  355   4.307   4.951   5.370 -0.5460  0.1314  1.5644
    3SAPS   H4Y  356   4.455   4.870   5.423 -0.4590 -0.3753 -0.0250
    3SAPS   C35  357   4.501   4.996   5.259  0.2748  0.0261  0.0652
    3SAPS   H5X  358   4.598   5.026   5.303  1.0698  0.5258 -1.9792
    3SAPS   H5Y  359   4.488   4.908   5.192 -1.6777 -0.0256  0.4552
    3SAPS   C36  360   4.458   5.122   5.183  0.5695 -0.6047  0.2487
    3SAPS   H6X  361   4.463   5.206   5.256  1.9148  0.4543 -1.0490
    3SAPS   H6Y  362   4.356   5.109   5.140  0.3446 -2.1498  1.2219
    3SAPS   C37  363   4.553   5.150   5.060 -0.4734 -0.5339 -0.4584
    3SAPS   H7X  364   4.656   5.131   5.097 -1.4633 -0.1209  2.6685
    3SAPS   H7Y  365   4.554   5.257   5.032  1.7290 -0.6686 -0.9354
    3SAPS   C38  366   4.521   5.063   4.934  0.3067 -0.3947  0.0614
    3SAPS   H8X  367   4.419   5.091   4.903 -0.1439 -1.2219  0.7793
    3SAPS   H8Y  368   4.501   4.956   4.956 -3.1049  0.2259  0.1382
    3SAPS   C39  369   4.621   5.080   4.824  0.0153 -0.2239  0.3275
    3SAPS   H9X  370   4.711   5.065   4.887  0.8474  0.8399 -0.5831
    3SAPS   H9Y  371   4.627   5.181   4.778 -1.7163 -0.9178 -1.4787
    3SAPS  C310  372   4.618   4.963   4.722  0.0166 -0.1267  0.1876
    3SAPS  H10X  373   4.529   4.973   4.656  1.0005 -0.0938 -1.1579
    3SAPS  H10Y  374   4.610   4.859   4.761  1.8467 -0.9300 -1.4710
    3SAPS  C311  375   4.738   4.962   4.629  0.1517  0.1716 -0.1285
    3SAPS  H11X  376   4.827   5.002   4.683 -0.3686  0.0208  0.8520
    3SAPS  H11Y  377   4.714   5.038   4.551  0.9767 -0.6744 -1.2264
    3SAPS  C312  378   4.773   4.823   4.578  0.0545 -0.0337 -0.6923
    3SAPS  H12X  379   4.685   4.770   4.534 -0.4973 -0.5267  0.9670
    3SAPS  H12Y  380   4.812   4.766   4.665 -0.2423 -1.0985 -1.2427
    3SAPS  C313  381   4.886   4.832   4.475 -0.0070 -0.3065 -0.2832
    3SAPS  H13X  382   4.924   4.732   4.446 -0.1227 -1.3043  2.8799
    3SAPS  H13Y  383   4.971   4.892   4.515 -1.2382  1.6934 -0.6037
    3SAPS  C314  384   4.854   4.898   4.341 -0.0070 -0.4338  0.5370
    3SAPS  H14X  385   4.947   4.949   4.307 -0.9123  0.1604 -1.1108
    3SAPS  H14Y  386   4.778   4.977   4.362 -0.5057 -0.6855 -0.3010
    3SAPS  C315  387   4.798   4.805   4.238  0.5293 -0.1513 -0.4642
    3SAPS  H15X  388   4.697   4.767   4.266  1.6029 -2.5626  0.2486
    3SAPS  H15Y  389   4.865   4.717   4.230  2.0269  0.8358  0.9273
    3SAPS  C316  390   4.786   4.864   4.104 -0.2362 -0.2586  0.3156
    3SAPS  H16X  391   4.883   4.894   4.057  0.6866 -1.5937  1.3491
    3SAPS  H16Y  392   4.732   4.961   4.112 -0.1386 -0.2974  1.6277
    3SAPS  C317  393   4.716   4.769   4.004 -0.1750 -1.3361  0.2405
    3SAPS  H17X  394   4.613   4.743   4.038 -0.5283 -0.6300 -0.2898
    3SAPS  H17Y  395   4.775   4.676   3.990  2.2107  0.2713 -0.5935
    3SAPS  C318  396   4.700   4.845   3.868  0.5170  0.0511 -0.2821
    3SAPS  H18X  397   4.674   4.952   3.875  0.2380 -0.0644  0.5277
    3SAPS  H18Y  398   4.632   4.783   3.805  0.1951 -2.4513  2.3852
    3SAPS  H18Z  399   4.793   4.854   3.808 -1.3172  1.6340 -2.9585
    4SAPS     N  400   2.497   1.959   6.160  0.2467 -0.4674 -0.1098
    4SAPS   HN1  401   2.517   1.899   6.077  1.9156  2.2013 -1.6992
    4SAPS   HN2  402   2.516   2.059   6.141  1.1233 -0.6631 -0.3226
    4SAPS   HN3  403   2.566   1.931   6.233 -2.7154 -1.2976  2.4860
    4SAPS   C12  404   2.351   1.946   6.193 -0.0131 -0.4894  0.0497
    4SAPS  H12A  405   2.319   1.849   6.228 -1.0662 -0.3757 -0.5798
    4SAPS   C13  406   2.286   2.043   6.288  0.0424 -0.2660  0.5975
    4SAPS  O13A  407   2.350   2.121   6.368  0.0932 -0.1415 -0.2764
    4SAPS  O13B  408   2.162   2.033   6.304  0.0351 -0.1508 -0.0199
    4SAPS   C11  409   2.276   1.944   6.058  0.5360 -0.4222 -0.1794
    4SAPS  H11A  410   2.289   2.041   6.005  1.0540 -1.2982 -1.6940
    4SAPS  H11B  411   2.167   1.929   6.067  0.5455 -0.5128 -0.2171
    4SAPS     P  412   2.227   1.738   5.905 -0.1603 -0.1566  0.3326
    4SAPS   O13  413   2.257   1.612   5.975 -0.3172 -0.4025 -0.0991
    4SAPS   O14  414   2.089   1.792   5.904 -0.2557  0.0681  0.2661
    4SAPS   O12  415   2.330   1.844   5.973  0.2678  0.0468 -0.9423
    4SAPS   O11  416   2.273   1.732   5.755 -0.6288 -0.1479  0.2128
    4SAPS    C1  417   2.381   1.818   5.709  0.4798 -0.7925 -0.5961
    4SAPS    HA  418   2.460   1.846   5.782  0.4589  0.1399 -0.9376
    4SAPS    HB  419   2.431   1.769   5.623  1.6826  0.4735 -0.6233
    4SAPS    C2  420   2.318   1.951   5.652 -0.5037  0.6002  0.2412
    4SAPS    HS  421   2.232   1.983   5.715 -2.5364 -0.2708 -2.0377
    4SAPS   O21  422   2.275   1.927   5.516  0.5009 -0.2873  0.7001
    4SAPS   C21  423   2.209   2.024   5.455 -0.1555 -0.1010  0.5201
    4SAPS   O22  424   2.166   2.130   5.496  0.4487 -0.6015 -0.3224
    4SAPS   C22  425   2.183   1.974   5.309 -0.2245 -0.1185 -0.3091
    4SAPS   H2R  426   2.107   1.893   5.316 -0.6421  0.1437 -1.6528
    4SAPS   H2S  427   2.131   2.055   5.253  2.1326  1.3947 -0.3621
    4SAPS    C3  428   2.429   2.064   5.659  0.0163 -0.3770 -0.1334
    4SAPS    HX  429   2.450   2.096   5.763  1.8783  0.8460 -0.8703
    4SAPS    HY  430   2.379   2.148   5.608  0.1673  0.4650  1.0917
    4SAPS   O31  431   2.552   2.023   5.588  0.6390  0.4818  0.9531
    4SAPS   C31  432   2.633   2.116   5.573 -0.1197  0.4771 -0.0157
    4SAPS   O32  433   2.607   2.235   5.593 -0.3624 -0.0478 -0.4590
    4SAPS   C32  434   2.772   2.072   5.533 -0.1520  0.8582  0.2051
    4SAPS   H2X  435   2.819   1.999   5.602 -1.1098  0.3908  0.3686
    4SAPS   H2Y  436   2.834   2.164   5.534 -1.3921  1.6840  1.3785
    4SAPS   C23  437   2.308   1.913   5.235 -0.2165 -0.0247 -0.2199
    4SAPS   H3R  438   2.329   1.806   5.254 -0.0227  0.0826  0.1598
    4SAPS   H3S  439   2.389   1.981   5.267 -0.4840 -0.5653  1.6351
    4SAPS   C24  440   2.290   1.919   5.081  0.1368  0.1040  0.4820
    4SAPS   H4R  441   2.391   1.936   5.039  0.0401  0.5245  0.4130
    4SAPS   H4S  442   2.233   2.010   5.050  0.3895  0.2861  0.5551
    4SAPS   C25  443   2.243   1.788   5.017 -0.6225  0.1256 -0.6597
    4SAPS   H5R  444   2.215   1.709   5.088  1.0351  0.5152  0.4642
    4SAPS   C26  445   2.244   1.767   4.886  0.1728  0.8328 -0.0077
    4SAPS   H6R  446   2.230   1.663   4.854  1.8742  1.0347 -1.4286
    4SAPS   C27  447   2.284   1.875   4.779  0.1322 -0.2076  0.1098
    4SAPS   H7R  448   2.388   1.913   4.783 -0.4622  1.4713  0.1493
    4SAPS   H7S  449   2.221   1.963   4.804 -2.7445 -2.6153  1.7297
    4SAPS   C28  450   2.247   1.837   4.637 -0.0801 -0.0433  0.0082
    4SAPS   H8R  451   2.175   1.754   4.639 -0.2407  0.1002  0.1631
    4SAPS   C29  452   2.305   1.885   4.530  0.2992  0.0399 -0.0974
    4SAPS   H9R  453   2.256   1.857   4.435 -3.0780  2.2043  0.9267
    4SAPS  C210  454   2.398   2.002   4.535  0.4574  0.4287  0.4064
    4SAPS  H10R  455   2.470   1.986   4.618 -3.1747 -0.7799  3.4566
    4SAPS  H10S  456   2.345   2.093   4.570  0.5278  0.7347 -0.2705
    4SAPS  C211  457   2.470   2.039   4.406 -0.1495  0.0716  0.2362
    4SAPS  H11R  458   2.422   2.124   4.356 -0.1840 -0.0062  0.1393
    4SAPS  C212  459   2.579   1.991   4.350 -0.4788 -0.3348  0.9054
    4SAPS  H12R  460   2.627   2.040   4.263 -0.8653 -1.6310 -0.0622
    4SAPS  C213  461   2.657   1.875   4.400  0.3788  0.4079 -0.3468
    4SAPS  H13R  462   2.603   1.786   4.361  3.4218 -1.8209  0.3293
    4SAPS  H13S  463   2.644   1.862   4.509  0.4728  0.3020 -0.3478
    4SAPS  C214  464   2.805   1.869   4.359  0.6609 -0.2546  0.6587
    4SAPS  H14R  465   2.825   1.872   4.251 -0.8662 -1.0231  0.3472
    4SAPS  C215  466   2.912   1.850   4.439 -0.1712 -0.0710 -0.1727
    4SAPS  H15R  467   3.012   1.858   4.393 -0.5273  3.3046 -0.4455
    4SAPS  C216  468   2.915   1.852   4.592  0.5636  0.3288  0.0254
    4SAPS  H16R  469   2.847   1.926   4.641 -0.5147 -0.3197 -0.4744
    4SAPS  H16S  470   3.012   1.886   4.635  0.9617  1.7594 -1.9238
    4SAPS  C217  471   2.868   1.710   4.636 -0.1153 -0.0828  0.4232
    4SAPS  H17R  472   2.941   1.636   4.596  1.1843  2.6237 -2.3811
    4SAPS  H17S  473   2.765   1.701   4.595  0.2384  0.4736 -0.6008
    4SAPS  C218  474   2.855   1.702   4.790 -0.6828 -0.1324  0.3910
    4SAPS  H18R  475   2.956   1.729   4.829  0.5214 -0.1744 -2.4850
    4SAPS  H18S  476   2.823   1.599   4.813  0.7093 -0.5517  0.5147
    4SAPS  C219  477   2.745   1.792   4.842 -0.2676  0.2107  0.3000
    4SAPS  H19R  478   2.660   1.770   4.773  2.6647 -0.4582 -3.2435
    4SAPS  H19S  479   2.769   1.899   4.826  1.3975 -0.3205 -0.9016
    4SAPS  C220  480   2.722   1.774   4.990 -0.3164  0.2261  0.9428
    4SAPS  H20R  481   2.677   1.676   5.016 -1.8654  0.6488 -0.0884
    4SAPS  H20S  482   2.647   1.850   5.023  1.4169  2.3385  0.0593
    4SAPS  H20T  483   2.812   1.792   5.052 -0.6585 -1.6781  2.0422
    4SAPS   C33  484   2.771   2.011   5.392  0.3695  0.7241 -0.1710
    4SAPS   H3X  485   2.692   1.934   5.381  0.4497  0.9591 -2.5974
    4SAPS   H3Y  486   2.865   1.954   5.376 -0.9238 -1.4184 -0.3675
    4SAPS   C34  487   2.765   2.126   5.289 -0.1451  0.0365 -0.3184
    4SAPS   H4X  488   2.856   2.187   5.307  0.2568 -0.3650 -0.9441
    4SAPS   H4Y  489   2.678   2.189   5.314 -0.2360 -0.0111 -0.5142
    4SAPS   C35  490   2.740   2.091   5.143  0.6694 -0.3007  0.1990
    4SAPS   H5X  491   2.671   2.005   5.153  0.0334 -0.0054 -1.5176
    4SAPS   H5Y  492   2.825   2.044   5.089  0.8801 -1.5361  1.5741
    4SAPS   C36  493   2.689   2.208   5.048 -0.2236 -0.4885  0.2141
    4SAPS   H6X  494   2.765   2.289   5.038 -2.6683  1.7626 -0.4972
    4SAPS   H6Y  495   2.600   2.247   5.101  0.0656 -0.7145  0.8770
    4SAPS   C37  496   2.631   2.168   4.917 -0.3037  0.8700  0.0514
    4SAPS   H7X  497   2.538   2.109   4.934  1.6078 -1.9622  1.0139
    4SAPS   H7Y  498   2.707   2.102   4.871 -0.3209  0.8856  0.0014
    4SAPS   C38  499   2.598   2.282   4.821  0.0248 -0.0701 -0.4847
    4SAPS   H8X  500   2.555   2.245   4.725 -0.5964 -0.3801 -0.0905
    4SAPS   H8Y  501   2.692   2.334   4.791  0.7731 -0.4837  1.0717
    4SAPS   C39  502   2.508   2.382   4.892 -0.4485  0.1403 -0.0694
    4SAPS   H9X  503   2.559   2.407   4.988 -1.4181  0.0060  0.4890
    4SAPS   H9Y  504   2.410   2.339   4.924 -0.8037  0.9283 -0.0981
    4SAPS  C310  505   2.477   2.506   4.806  0.6392 -0.0934  0.6840
    4SAPS  H10X  506   2.578   2.552   4.799  0.0631  1.1281  0.2274
    4SAPS  H10Y  507   2.397   2.568   4.852 -1.1895 -0.7326 -1.5455
    4SAPS  C311  508   2.438   2.473   4.659  0.3364  0.2025  0.0381
    4SAPS  H11X  509   2.349   2.410   4.641  0.1164  1.2735 -2.8273
    4SAPS  H11Y  510   2.520   2.418   4.608 -0.8621 -0.3032 -1.3673
    4SAPS  C312  511   2.417   2.607   4.581 -0.1365 -0.8233  0.3397
    4SAPS  H12X  512   2.509   2.668   4.568  0.7572 -2.2784 -0.4370
    4SAPS  H12Y  513   2.351   2.671   4.642  1.9750  0.8514  0.9017
    4SAPS  C313  514   2.353   2.576   4.443 -0.3460  0.6255 -0.4011
    4SAPS  H13X  515   2.264   2.513   4.462  0.3175 -0.1790  0.1028
    4SAPS  H13Y  516   2.428   2.515   4.388 -0.2383  0.2931  0.1074
    4SAPS  C314  517   2.317   2.707   4.375  0.4600 -0.3844 -0.5874
    4SAPS  H14X  518   2.396   2.783   4.357  1.0742 -1.3077 -1.9063
    4SAPS  H14Y  519   2.229   2.748   4.429  1.2146 -1.2067  1.2949
    4SAPS  C315  520   2.271   2.693   4.225  0.2570  0.4871  0.4558
    4SAPS  H15X  521   2.166   2.657   4.233 -0.9840  3.6995 -0.5382
    4SAPS  H15Y  522   2.337   2.620   4.174 -1.7575  0.0259 -1.5373
    4SAPS  C316  523   2.265   2.826   4.153 -0.0905 -0.4649 -0.2165
    4SAPS  H16X  524   2.366   2.868   4.174 -0.7306 -0.1806  2.4727
    4SAPS  H16Y  525   2.179   2.890   4.185 -0.1478 -0.7243  0.1526
    4SAPS  C317  526   2.244   2.808   3.999 -0.7838  0.8644  0.2659
    4SAPS  H17X  527   2.138   2.777   3.991 -0.4047  0.0151 -1.9588
    4SAPS  H17Y  528   2.316   2.731   3.963 -1.1516  1.5256 -2.0201
    4SAPS  C318  529   2.250   2.939   3.908 -0.4949 -0.2756  0.0920
    4SAPS  H18X  530   2.350   2.986   3.921 -1.4126  1.7644  0.0383
    4SAPS  H18Y  531   2.175   3.017   3.934  0.0967  0.9514 -1.7823
    4SAPS  H18Z  532   2.243   2.910   3.801  0.1987  4.2580 -1.2845
    5SAPS     N  533   5.709   4.530   5.988  0.8019  0.2117 -0.7349
    5SAPS   HN1  534   5.757   4.622   5.996  2.7549 -1.0016  2.7014
    5SAPS   HN2  535   5.688   4.508   5.889  1.6656  0.8197 -1.0635
    5SAPS   HN3  536   5.619   4.533   6.040  1.1447  1.2952 -0.2029
    5SAPS   C12  537   5.799   4.425   6.045  0.3216 -0.3360 -0.1940
    5SAPS  H12A  538   5.893   4.432   5.991 -0.2113 -2.0664 -1.3891
    5SAPS   C13  539   5.818   4.425   6.201 -1.1086 -0.5102  0.4864
    5SAPS  O13A  540   5.750   4.504   6.274 -0.1229  0.1342  0.0007
    5SAPS  O13B  541   5.912   4.358   6.247  0.6235  0.5497  0.0855
    5SAPS   C11  542   5.741   4.286   6.005  0.0694  0.4560 -0.0948
    5SAPS  H11A  543   5.637   4.280   6.043 -0.5454  1.3366 -1.5954
    5SAPS  H11B  544   5.808   4.212   6.053 -0.4999  0.2104  0.3223
    5SAPS     P  545   5.768   4.132   5.777  0.1503 -0.3054  0.2136
    5SAPS   O13  546   5.886   4.156   5.691 -0.1431  0.4101  0.0629
    5SAPS   O14  547   5.789   4.021   5.874  0.2625  0.4323 -0.0043
    5SAPS   O12  548   5.741   4.268   5.859  0.3965 -0.2029  0.5860
    5SAPS   O11  549   5.644   4.107   5.685  0.0594  0.1672  0.1461
    5SAPS    C1  550   5.526   4.174   5.712  0.8507  0.4056  0.0110
    5SAPS    HA  551   5.483   4.150   5.812 -0.7257 -0.0373 -0.7595
    5SAPS    HB  552   5.532   4.284   5.723  0.9397  0.1467  3.2106
    5SAPS    C2  553   5.413   4.151   5.610 -0.0322 -0.9103 -0.1221
    5SAPS    HS  554   5.317   4.162   5.664 -0.0477 -0.8138 -0.1707
    5SAPS   O21  555   5.421   4.020   5.548 -0.6667 -0.5113 -0.0250
    5SAPS   C21  556   5.429   3.911   5.619  0.2719  0.4929 -0.3087
    5SAPS   O22  557   5.413   3.884   5.732  0.0355 -0.3322  0.0596
    5SAPS   C22  558   5.478   3.795   5.528  0.1417  0.2037  0.0320
    5SAPS   H2R  559   5.521   3.717   5.595 -0.5305 -1.5794 -1.5468
    5SAPS   H2S  560   5.386   3.762   5.475  0.2067  1.3549 -0.8096
    5SAPS    C3  561   5.412   4.262   5.495  0.4635 -0.5030  0.5607
    5SAPS    HX  562   5.414   4.362   5.543  0.3827 -1.1495  1.9211
    5SAPS    HY  563   5.316   4.260   5.438  1.2681 -0.3592 -0.8264
    5SAPS   O31  564   5.524   4.253   5.399  0.4311  0.6023  0.2891
    5SAPS   C31  565   5.639   4.312   5.437 -0.1034 -0.4546 -0.1081
    5SAPS   O32  566   5.641   4.406   5.517 -1.3565  0.5687  0.2356
    5SAPS   C32  567   5.763   4.274   5.362 -0.4909 -0.4633  0.1156
    5SAPS   H2X  568   5.818   4.233   5.450 -0.3796  1.6064  1.0529
    5SAPS   H2Y  569   5.802   4.369   5.319 -0.9755 -1.7170 -3.1697
    5SAPS   C23  570   5.583   3.828   5.418  0.5293 -0.0623  0.8034
    5SAPS   H3R  571   5.683   3.849   5.463  1.1512  0.4472 -0.7716
    5SAPS   H3S  572   5.549   3.915   5.359  0.0674  0.0339  1.2101
    5SAPS   C24  573   5.586   3.709   5.314  0.3996 -0.0913 -0.4481
    5SAPS   H4R  574   5.488   3.703   5.262 -0.0534  1.5543  0.1866
    5SAPS   H4S  575   5.607   3.620   5.376  0.3716 -1.0522 -1.7964
    5SAPS   C25  576   5.700   3.723   5.214 -0.4602  0.6537  0.2036
    5SAPS   H5R  577   5.799   3.735   5.260 -0.7352  1.1022  0.6937
    5SAPS   C26  578   5.696   3.711   5.078  0.0928 -0.3612 -0.1560
    5SAPS   H6R  579   5.784   3.750   5.025 -0.6586  2.0041  0.2565
    5SAPS   C27  580   5.573   3.674   4.997 -0.2722 -0.1124 -0.5575
    5SAPS   H7R  581   5.509   3.764   5.001 -0.3262 -0.1417 -0.7528
    5SAPS   H7S  582   5.516   3.601   5.059 -1.7908  0.1965 -1.5603
    5SAPS   C28  583   5.587   3.606   4.868 -1.3462  0.3884  0.8428
    5SAPS   H8R  584   5.585   3.496   4.872 -1.2064  0.4734  4.2327
    5SAPS   C29  585   5.595   3.658   4.743  0.0346 -0.0101  0.2404
    5SAPS   H9R  586   5.613   3.594   4.655 -1.1327  2.6338 -2.0340
    5SAPS  C210  587   5.587   3.800   4.715 -0.7277 -0.1923  0.1722
    5SAPS  H10R  588   5.506   3.856   4.766 -0.7539  1.2488 -1.3975
    5SAPS  H10S  589   5.569   3.807   4.605  0.2289 -0.2741  0.0056
    5SAPS  C211  590   5.720   3.875   4.737  0.1420  0.7952  1.2904
    5SAPS  H11R  591   5.739   3.918   4.836 -0.4099  0.1840  1.6722
    5SAPS  C212  592   5.819   3.895   4.653 -0.4444 -0.2980  0.3936
    5SAPS  H12R  593   5.913   3.938   4.691 -0.9779  2.6119 -1.4164
    5SAPS  C213  594   5.831   3.850   4.509 -0.0027  0.2264  0.3713
    5SAPS  H13R  595   5.733   3.817   4.468  0.4697 -1.1986  0.3468
    5SAPS  H13S  596   5.900   3.763   4.500 -1.0900 -0.3176 -3.6121
    5SAPS  C214  597   5.880   3.967   4.426 -0.6590  0.3216  0.2252
    5SAPS  H14R  598   5.988   3.982   4.446 -0.4106  0.8793 -1.5301
    5SAPS  C215  599   5.809   4.036   4.334 -0.1126 -0.0208 -0.2469
    5SAPS  H15R  600   5.867   4.112   4.281  0.4529 -1.8830 -2.3667
    5SAPS  C216  601   5.670   4.026   4.278 -0.3379  0.3255  0.1256
    5SAPS  H16R  602   5.600   4.099   4.323  0.5608  2.1697 -1.4115
    5SAPS  H16S  603   5.617   3.932   4.303 -0.0127  0.3494  0.9131
    5SAPS  C217  604   5.665   4.054   4.133  0.1932  0.4725 -0.6533
    5SAPS  H17R  605   5.688   4.161   4.118  0.1555  0.0012 -4.6114
    5SAPS  H17S  606   5.557   4.035   4.111 -0.3617  1.4022  1.1768
    5SAPS  C218  607   5.758   3.965   4.040  0.6468  0.0909 -0.1971
    5SAPS  H18R  608   5.857   3.959   4.089  0.5270 -2.7804 -0.1894
    5SAPS  H18S  609   5.778   4.009   3.941  1.3087 -2.1373 -1.0987
    5SAPS  C219  610   5.707   3.823   4.029 -0.4948  0.1565 -0.6486
    5SAPS  H19R  611   5.596   3.818   4.024 -0.4374 -2.5325  0.2454
    5SAPS  H19S  612   5.733   3.774   4.126 -0.7866  0.4261 -0.4338
    5SAPS  C220  613   5.773   3.744   3.917 -0.9505 -0.8036  0.2372
    5SAPS  H20R  614   5.731   3.784   3.822  0.1906 -2.0438 -0.8122
    5SAPS  H20S  615   5.735   3.639   3.918  1.2875 -1.6423  1.7280
    5SAPS  H20T  616   5.884   3.752   3.916 -1.0626  1.8688  2.4515
    5SAPS   C33  617   5.740   4.168   5.251 -0.0973  0.0400 -0.2801
    5SAPS   H3X  618   5.678   4.091   5.301  0.3868  0.0473  0.3475
    5SAPS   H3Y  619   5.838   4.127   5.220  0.2747  2.3661 -2.3403
    5SAPS   C34  620   5.684   4.226   5.115  0.6615 -0.1379 -0.0536
    5SAPS   H4X  621   5.757   4.301   5.076 -0.5746  0.2750 -1.6187
    5SAPS   H4Y  622   5.585   4.273   5.133 -0.1063 -0.7324 -2.5622
    5SAPS   C35  623   5.654   4.118   5.015 -0.2362 -0.3055 -0.1630
    5SAPS   H5X  624   5.634   4.026   5.073  1.6980 -0.8358 -0.2824
    5SAPS   H5Y  625   5.750   4.099   4.962  0.6740 -0.3871  1.4882
    5SAPS   C36  626   5.541   4.139   4.916 -0.7207 -0.8082  0.4252
    5SAPS   H6X  627   5.446   4.166   4.968 -0.3855  0.1537  0.5460
    5SAPS   H6Y  628   5.517   4.047   4.858  1.7076 -0.4363 -1.2069
    5SAPS   C37  629   5.571   4.259   4.825  0.7035  0.0270  0.1292
    5SAPS   H7X  630   5.568   4.351   4.888 -1.2130  1.0616 -1.4058
    5SAPS   H7Y  631   5.481   4.270   4.760  1.8690  0.7662 -1.3901
    5SAPS   C38  632   5.694   4.261   4.729  0.4215  0.5357 -0.1980
    5SAPS   H8X  633   5.686   4.182   4.651 -2.9479 -0.8360  1.4566
    5SAPS   H8Y  634   5.787   4.237   4.784 -0.4043 -2.1424  0.0720
    5SAPS   C39  635   5.686   4.388   4.646 -0.1782 -0.0662  0.2897
    5SAPS   H9X  636   5.734   4.468   4.706  0.0632  0.2957 -0.3757
    5SAPS   H9Y  637   5.580   4.413   4.625 -0.5630 -0.5820  1.5666
    5SAPS  C310  638   5.753   4.374   4.506 -0.0554  0.2900  0.2227
    5SAPS  H10X  639   5.706   4.285   4.461  0.5261  0.4098 -0.6251
    5SAPS  H10Y  640   5.861   4.349   4.513  0.2480  1.4763 -0.0858
    5SAPS  C311  641   5.701   4.484   4.412 -0.7176  0.9175  0.1688
    5SAPS  H11X  642   5.745   4.584   4.433 -1.8602  1.8472 -1.8265
    5SAPS  H11Y  643   5.592   4.498   4.427 -0.5296  3.0169 -0.3122
    5SAPS  C312  644   5.717   4.449   4.266 -0.5425  0.0258  0.4664
    5SAPS  H12X  645   5.681   4.349   4.231 -1.3107  0.7654 -0.9188
    5SAPS  H12Y  646   5.826   4.458   4.248 -0.5085 -2.1163 -0.6127
    5SAPS  C313  647   5.647   4.551   4.177 -0.0255  0.3492 -0.2368
    5SAPS  H13X  648   5.677   4.654   4.206 -1.8297  0.4681  1.2595
    5SAPS  H13Y  649   5.536   4.550   4.188 -0.2179 -1.5075 -2.1056
    5SAPS  C314  650   5.675   4.519   4.025  0.0385  0.5750 -0.2796
    5SAPS  H14X  651   5.653   4.412   4.009 -1.5887  1.4839 -4.9480
    5SAPS  H14Y  652   5.784   4.533   4.012  0.4363 -2.0934 -0.1320
    5SAPS  C315  653   5.607   4.621   3.929  0.0189 -0.3843 -0.2908
    5SAPS  H15X  654   5.646   4.720   3.960  1.3253 -0.8502 -0.3835
    5SAPS  H15Y  655   5.497   4.610   3.940 -0.2121  1.4353 -0.6403
    5SAPS  C316  656   5.638   4.587   3.779 -0.1118  0.2271 -0.3460
    5SAPS  H16X  657   5.616   4.480   3.760 -0.2153 -0.0021  1.0360
    5SAPS  H16Y  658   5.748   4.603   3.769 -0.0412  0.4009  0.6631
    5SAPS  C317  659   5.561   4.668   3.684  0.4028  0.9498 -0.2236
    5SAPS  H17X  660   5.593   4.774   3.677  0.0284  1.1588  1.1052
    5SAPS  H17Y  661   5.452   4.661   3.704  0.6471  0.4664  0.9601
    5SAPS  C318  662   5.564   4.626   3.535  0.1282  0.2793  0.3971
    5SAPS  H18X  663   5.480   4.669   3.477 -1.0975 -0.6623  1.4519
    5SAPS  H18Y  664   5.557   4.515   3.529 -2.1895  0.4225 -0.0233
    5SAPS  H18Z  665   5.660   4.659   3.489 -0.0137  1.8752  1.2181
    6SAPS     N  666   1.646   5.482   6.185 -0.2545 -0.1596  0.1500
    6SAPS   HN1  667   1.732   5.430   6.212 -0.7920 -1.3340 -0.3861
    6SAPS   HN2  668   1.654   5.513   6.086  3.3219  1.5406  0.8958
    6SAPS   HN3  669   1.617   5.560   6.248 -1.1399 -0.5932  0.2849
    6SAPS   C12  670   1.526   5.384   6.194  0.1149 -0.4149 -0.3101
    6SAPS  H12A  671   1.558   5.286   6.162  0.7761 -0.2120 -0.2769
    6SAPS   C13  672   1.483   5.360   6.335  0.9936  0.2840  0.0378
    6SAPS  O13A  673   1.565   5.384   6.429 -0.3365 -0.5519 -0.1325
    6SAPS  O13B  674   1.368   5.303   6.357  0.8881  0.2266 -0.1423
    6SAPS   C11  675   1.404   5.428   6.110 -0.6015  0.3112 -0.1982
    6SAPS  H11A  676   1.362   5.515   6.165  0.7042 -0.1356  1.5684
    6SAPS  H11B  677   1.330   5.346   6.102  1.5512 -2.0058  2.5331
    6SAPS     P  678   1.379   5.582   5.892 -0.3353 -0.1051 -0.3062
    6SAPS   O13  679   1.258   5.646   5.951 -0.0567  0.4472 -0.3879
    6SAPS   O14  680   1.486   5.682   5.875 -0.0032  0.4058  0.8335
    6SAPS   O12  681   1.440   5.466   5.977  0.1847  0.9122  0.3696
    6SAPS   O11  682   1.341   5.518   5.754  0.2081 -0.5507 -0.7649
    6SAPS    C1  683   1.281   5.392   5.746  0.1848 -0.1971 -0.1546
    6SAPS    HA  684   1.359   5.313   5.742 -1.2463 -1.7457  1.5741
    6SAPS    HB  685   1.231   5.364   5.842  0.3143  1.6417  0.4669
    6SAPS    C2  686   1.190   5.380   5.619  0.1095  0.0981 -0.8244
    6SAPS    HS  687   1.155   5.275   5.617  0.0960  0.1140 -1.8056
    6SAPS   O21  688   1.269   5.421   5.513 -0.1078  0.4624 -0.1225
    6SAPS   C21  689   1.242   5.359   5.392 -0.2080 -0.4720  0.4404
    6SAPS   O22  690   1.171   5.261   5.385 -0.2887 -0.1948  0.7428
    6SAPS   C22  691   1.300   5.435   5.274  0.4316 -0.4799 -0.8205
    6SAPS   H2R  692   1.391   5.489   5.308  0.2037 -0.9171  0.4973
    6SAPS   H2S  693   1.328   5.359   5.198 -1.2619  0.1516 -2.0852
    6SAPS    C3  694   1.068   5.475   5.629  0.4771  0.2129 -0.0757
    6SAPS    HX  695   1.093   5.576   5.668 -1.6428  0.4768  0.6815
    6SAPS    HY  696   1.007   5.431   5.711 -1.4324  0.1710 -1.4980
    6SAPS   O31  697   0.987   5.486   5.510  0.1719 -0.1966  0.4895
    6SAPS   C31  698   0.892   5.398   5.488  0.2700 -0.3845  0.2244
    6SAPS   O32  699   0.857   5.310   5.564 -0.1222  0.7375 -0.2270
    6SAPS   C32  700   0.837   5.414   5.350 -0.5286 -0.3793 -0.3375
    6SAPS   H2X  701   0.887   5.499   5.299 -0.3371  0.2636  0.8909
    6SAPS   H2Y  702   0.727   5.430   5.354 -0.2169  1.8635 -0.1183
    6SAPS   C23  703   1.205   5.533   5.203 -0.5758  0.3956  0.3452
    6SAPS   H3R  704   1.180   5.610   5.278  0.0797 -1.6245  2.7159
    6SAPS   H3S  705   1.118   5.476   5.164  0.0983 -0.5075  0.1373
    6SAPS   C24  706   1.278   5.589   5.078 -0.2384  1.2088 -0.2465
    6SAPS   H4R  707   1.284   5.502   5.009  0.0722  0.4616  0.7011
    6SAPS   H4S  708   1.378   5.613   5.120 -0.5507 -0.7965  1.8035
    6SAPS   C25  709   1.206   5.716   5.026  0.2468  0.2283  1.0111
    6SAPS   H5R  710   1.163   5.781   5.103 -0.1830 -0.4098  1.3184
    6SAPS   C26  711   1.191   5.741   4.891 -0.0313  0.1478 -0.1318
    6SAPS   H6R  712   1.137   5.831   4.860 -1.7292 -0.8191 -0.0706
    6SAPS   C27  713   1.233   5.649   4.780  1.4200 -0.9279 -0.3760
    6SAPS   H7R  714   1.143   5.637   4.716 -0.7967  2.4724  1.9794
    6SAPS   H7S  715   1.265   5.547   4.812  3.0476 -0.7601 -1.4309
    6SAPS   C28  716   1.357   5.683   4.705  0.1479  1.2396 -0.1044
    6SAPS   H8R  717   1.446   5.697   4.768  0.7214  0.3174 -0.6891
    6SAPS   C29  718   1.371   5.707   4.571 -0.1336  0.2624  0.0053
    6SAPS   H9R  719   1.473   5.706   4.529 -1.3261  1.3016 -3.0423
    6SAPS  C210  720   1.260   5.693   4.472 -0.4025  0.0550  0.2398
    6SAPS  H10R  721   1.179   5.768   4.485 -2.0073 -1.6015 -0.0871
    6SAPS  H10S  722   1.220   5.590   4.474  0.8606 -0.4344  0.6489
    6SAPS  C211  723   1.314   5.716   4.333  0.0098 -0.3809 -0.6300
    6SAPS  H11R  724   1.399   5.785   4.324  0.6965 -1.3688 -1.9075
    6SAPS  C212  725   1.246   5.674   4.222 -0.5843 -0.5926 -0.3141
    6SAPS  H12R  726   1.295   5.686   4.125 -2.9000  1.1351 -1.3187
    6SAPS  C213  727   1.126   5.582   4.217  0.1487 -0.8151  0.5709
    6SAPS  H13R  728   1.078   5.596   4.317 -0.0961 -1.9036  0.6141
    6SAPS  H13S  729   1.166   5.480   4.200  0.8121 -0.4656  0.0295
    6SAPS  C214  730   1.019   5.630   4.115  0.3216 -0.3149 -0.1307
    6SAPS  H14R  731   0.988   5.735   4.122  0.8668 -0.2028  0.7005
    6SAPS  C215  732   0.981   5.554   4.017  0.1033  0.5010  0.2342
    6SAPS  H15R  733   0.908   5.596   3.946  1.3214  2.3206  0.0405
    6SAPS  C216  734   1.018   5.411   3.988  0.1888 -0.4216 -0.3849
    6SAPS  H16R  735   0.962   5.336   4.049 -2.3236  0.2387 -1.8180
    6SAPS  H16S  736   1.125   5.395   4.012  0.4627  0.1494 -1.2056
    6SAPS  C217  737   0.992   5.361   3.846  0.0680  0.2044  0.8029
    6SAPS  H17R  738   1.023   5.258   3.818  3.1328  1.5097 -0.9133
    6SAPS  H17S  739   1.042   5.419   3.765  0.4996  0.2466  1.0932
    6SAPS  C218  740   0.841   5.357   3.813 -0.5602 -0.8458  0.3516
    6SAPS  H18R  741   0.814   5.462   3.837  2.2713 -0.0584  0.2313
    6SAPS  H18S  742   0.794   5.288   3.887 -1.0780 -0.5249  0.3187
    6SAPS  C219  743   0.810   5.330   3.666  0.4010  0.2181 -0.0317
    6SAPS  H19R  744   0.866   5.242   3.629  0.4793  0.6959 -1.0800
    6SAPS  H19S  745   0.838   5.425   3.615  0.1778  0.9044  1.1042
    6SAPS  C220  746   0.660   5.301   3.651 -0.2565  0.0851  0.5374
    6SAPS  H20R  747   0.636   5.271   3.546  0.6682  2.1234 -0.2873
    6SAPS  H20S  748   0.599   5.389   3.681 -0.8346 -1.2518  3.4654
    6SAPS  H20T  749   0.642   5.218   3.722  1.2283 -0.4080  0.3545
    6SAPS   C33  750   0.880   5.298   5.264 -0.3488 -0.7407  0.4956
    6SAPS   H3X  751   0.861   5.201   5.315 -1.3894 -1.0731 -0.5025
    6SAPS   H3Y  752   0.988   5.300   5.238 -0.5344 -2.5877 -0.4607
    6SAPS   C34  753   0.809   5.284   5.127 -0.1010  0.0489  0.4204
    6SAPS   H4X  754   0.710   5.333   5.138  0.3225  1.4821 -1.8048
    6SAPS   H4Y  755   0.788   5.177   5.108 -3.0061  0.2899  2.0843
    6SAPS   C35  756   0.882   5.334   5.002 -0.1056 -0.1614 -0.6072
    6SAPS   H5X  757   0.914   5.439   5.021 -0.1581 -0.2250 -0.1492
    6SAPS   H5Y  758   0.816   5.330   4.912  0.0170 -2.8802 -0.6116
    6SAPS   C36  759   0.997   5.242   4.966  0.5983 -0.6526 -0.0717
    6SAPS   H6X  760   0.961   5.146   4.923 -4.1896  1.4773 -1.1579
    6SAPS   H6Y  761   1.069   5.232   5.050 -1.7461 -1.0116  1.9897
    6SAPS   C37  762   1.088   5.303   4.855 -0.2307 -0.3608 -0.1262
    6SAPS   H7X  763   1.119   5.403   4.889  0.8026 -1.1233  1.2125
    6SAPS   H7Y  764   1.015   5.317   4.772 -0.8289 -0.5245  0.3631
    6SAPS   C38  765   1.209   5.225   4.808  0.3542  0.5222 -0.1549
    6SAPS   H8X  766   1.190   5.116   4.801 -0.8161  0.8062 -1.9556
    6SAPS   H8Y  767   1.300   5.233   4.871  0.0501 -0.1574  0.3782
    6SAPS   C39  768   1.249   5.253   4.663  0.3739 -0.0532 -0.1464
    6SAPS   H9X  769   1.238   5.363   4.648  1.1780 -0.1935 -1.9491
    6SAPS   H9Y  770   1.180   5.206   4.590  1.9309  0.5300 -2.0482
    6SAPS  C310  771   1.390   5.212   4.640 -0.4731  0.0650  0.5876
    6SAPS  H10X  772   1.406   5.106   4.668 -0.0727  0.2691  1.1323
    6SAPS  H10Y  773   1.460   5.277   4.697 -0.4484  0.3304  0.2587
    6SAPS  C311  774   1.443   5.223   4.484  0.4343  0.3816 -0.2871
    6SAPS  H11X  775   1.362   5.168   4.433  1.2083  1.9300 -3.3032
    6SAPS  H11Y  776   1.540   5.169   4.489  1.0821  1.3210 -2.2146
    6SAPS  C312  777   1.440   5.369   4.434 -0.0440  0.0905  0.6497
    6SAPS  H12X  778   1.477   5.435   4.515  1.1899 -0.6575  0.7110
    6SAPS  H12Y  779   1.335   5.404   4.423  0.7920  2.4266 -0.0825
    6SAPS  C313  780   1.514   5.391   4.309  0.7204  0.0281  0.8751
    6SAPS  H13X  781   1.616   5.351   4.330  1.0334  0.1193 -0.4081
    6SAPS  H13Y  782   1.532   5.497   4.280  2.0680 -0.1824  0.9118
    6SAPS  C314  783   1.473   5.303   4.193 -0.0894 -0.1124 -0.7041
    6SAPS  H14X  784   1.387   5.356   4.147  0.0437  2.1373  1.5557
    6SAPS  H14Y  785   1.437   5.208   4.237  1.6702 -1.6689 -2.5359
    6SAPS  C315  786   1.585   5.261   4.100 -0.0595  0.2758 -0.6286
    6SAPS  H15X  787   1.648   5.186   4.153  0.3461 -0.2096 -1.7856
    6SAPS  H15Y  788   1.638   5.348   4.058  0.1564 -0.2643 -1.4877
    6SAPS  C316  789   1.521   5.188   3.979  0.1958 -0.7017 -0.3522
    6SAPS  H16X  790   1.467   5.267   3.922  1.5101  0.7158  0.3044
    6SAPS  H16Y  791   1.443   5.114   4.006  0.4607 -1.5584 -1.9047
    6SAPS  C317  792   1.620   5.120   3.874  0.4765 -0.5029 -0.8364
    6SAPS  H17X  793   1.691   5.197   3.840  0.8358  0.2367  1.5087
    6SAPS  H17Y  794   1.556   5.081   3.791 -2.5156 -2.3376  2.2006
    6SAPS  C318  795   1.686   5.001   3.936  0.4566 -0.6222 -0.4067
    6SAPS  H18X  796   1.765   4.959   3.870 -0.2504 -1.9912 -0.4194
    6SAPS  H18Y  797   1.623   4.913   3.963  0.7455 -0.3853  1.0476
    6SAPS  H18Z  798   1.731   5.026   4.034  1.6481 -3.0089 -0.3111
    7SAPS     N  799   2.791   0.055   6.020 -0.3173 -0.4664  0.3050
    7SAPS   HN1  800   2.829   0.042   5.924  1.8308  0.5977  0.9769
    7SAPS   HN2  801   2.709   0.119   6.020  0.5879  0.7469  1.9352
    7SAPS   HN3  802   2.867   0.102   6.073 -0.5433 -0.7590  0.8931
    7SAPS   C12  803   2.764  -0.078   6.074  0.9361 -0.7322 -0.3386
    7SAPS  H12A  804   2.823  -0.140   6.008  0.9041  0.4437 -1.4709
    7SAPS   C13  805   2.800  -0.079   6.224  0.9026 -0.3287 -0.1166
    7SAPS  O13A  806   2.858   0.021   6.283 -0.6558 -0.5584  0.0588
    7SAPS  O13B  807   2.776  -0.185   6.285 -0.2649  0.3982  0.0717
    7SAPS   C11  808   2.615  -0.124   6.050  0.7450  0.8980 -0.0510
    7SAPS  H11A  809   2.547  -0.059   6.108 -0.0208 -0.6596  0.8323
    7SAPS  H11B  810   2.602  -0.228   6.086  0.9333  1.0902  0.5671
    7SAPS     P  811   2.484  -0.204   5.841  0.3056  0.2271 -0.2020
    7SAPS   O13  812   2.528  -0.347   5.843 -0.3027 -0.2369 -0.0149
    7SAPS   O14  813   2.351  -0.172   5.909  0.0917 -0.4525 -0.6385
    7SAPS   O12  814   2.593  -0.114   5.914  0.3337  0.4616  0.6363
    7SAPS   O11  815   2.481  -0.148   5.698 -0.1943 -0.2390  0.0418
    7SAPS    C1  816   2.568  -0.054   5.634 -0.1512 -0.0833 -0.4581
    7SAPS    HA  817   2.627  -0.003   5.714 -1.2513 -0.4301  0.5877
    7SAPS    HB  818   2.645  -0.105   5.572  2.8191 -0.5683  3.3745
    7SAPS    C2  819   2.487   0.044   5.549  0.0170  0.1452 -0.3094
    7SAPS    HS  820   2.409   0.075   5.622 -0.5460 -1.6562 -0.1395
    7SAPS   O21  821   2.439  -0.027   5.432 -0.3992  0.2188 -0.1789
    7SAPS   C21  822   2.332   0.033   5.373  0.9087  0.1081 -0.1798
    7SAPS   O22  823   2.284   0.139   5.414  0.0530  0.0903  0.5395
    7SAPS   C22  824   2.293  -0.053   5.263  0.6206  0.9229 -0.1546
    7SAPS   H2R  825   2.372  -0.123   5.228 -0.3779  1.2849 -3.2525
    7SAPS   H2S  826   2.217  -0.123   5.302  0.2313  0.0235 -2.4664
    7SAPS    C3  827   2.568   0.170   5.507 -0.1335  0.1775  0.9002
    7SAPS    HX  828   2.625   0.192   5.600 -1.7744  0.3034  1.8914
    7SAPS    HY  829   2.497   0.255   5.492 -1.7292 -1.1990  0.4773
    7SAPS   O31  830   2.638   0.155   5.382  0.3383 -0.2698 -0.4754
    7SAPS   C31  831   2.765   0.119   5.392  0.3921 -0.0308 -0.1713
    7SAPS   O32  832   2.831   0.114   5.491  0.1281 -0.2318  0.1039
    7SAPS   C32  833   2.806   0.062   5.256 -0.1046 -0.2002  0.1708
    7SAPS   H2X  834   2.906   0.012   5.264  0.8221  1.1876 -2.2560
    7SAPS   H2Y  835   2.827   0.152   5.195 -2.4514 -0.8741 -1.6722
    7SAPS   C23  836   2.244   0.029   5.144  0.2481 -0.2805  0.1872
    7SAPS   H3R  837   2.321   0.101   5.111  0.2217  0.2810  1.3346
    7SAPS   H3S  838   2.165   0.099   5.178  0.3208 -0.3605  0.5207
    7SAPS   C24  839   2.188  -0.055   5.027  0.4738 -0.2866 -0.0065
    7SAPS   H4R  840   2.140   0.011   4.952  3.0150 -0.3829 -1.7806
    7SAPS   H4S  841   2.102  -0.110   5.072  0.5584 -0.4455 -0.0425
    7SAPS   C25  842   2.277  -0.152   4.969 -0.6488  0.2036  0.8501
    7SAPS   H5R  843   2.280  -0.248   5.023 -2.4663 -0.0667  0.5126
    7SAPS   C26  844   2.367  -0.127   4.869  0.0382  0.2135 -0.1754
    7SAPS   H6R  845   2.428  -0.212   4.835 -0.8151 -0.1369 -0.8523
    7SAPS   C27  846   2.383  -0.005   4.781 -0.2521  0.0973  0.1446
    7SAPS   H7R  847   2.483   0.041   4.796 -0.3821  0.8614 -1.1940
    7SAPS   H7S  848   2.315   0.079   4.810 -1.0077 -0.0087 -1.2839
    7SAPS   C28  849   2.365  -0.047   4.634  0.5778 -0.1770  0.4109
    7SAPS   H8R  850   2.276  -0.110   4.619 -0.5839  1.5836 -0.2428
    7SAPS   C29  851   2.436   0.003   4.529  0.4668 -0.2289 -0.3241
    7SAPS   H9R  852   2.418  -0.031   4.426  1.4689 -1.8084  0.0029
    7SAPS  C210  853   2.551   0.104   4.552 -0.1466 -0.3400 -0.8782
    7SAPS  H10R  854   2.502   0.187   4.608 -0.0653  1.8473 -3.9092
    7SAPS  H10S  855   2.590   0.152   4.459  0.8492  1.6388  0.5110
    7SAPS  C211  856   2.664   0.035   4.619  0.3604 -0.0695 -0.4323
    7SAPS  H11R  857   2.679  -0.066   4.578 -1.4965  0.3288 -2.2194
    7SAPS  C212  858   2.730   0.060   4.734 -0.5852 -0.0220  0.5700
    7SAPS  H12R  859   2.814  -0.005   4.761  2.1544  2.6520 -1.2565
    7SAPS  C213  860   2.721   0.174   4.831  1.0446  0.1100 -0.3811
    7SAPS  H13R  861   2.660   0.147   4.919 -0.8513  3.6021 -0.5321
    7SAPS  H13S  862   2.667   0.260   4.784  1.6209  1.0584  0.6733
    7SAPS  C214  863   2.861   0.222   4.879  0.0182  0.8252  0.2436
    7SAPS  H14R  864   2.907   0.168   4.963  0.9415  1.8760  0.4259
    7SAPS  C215  865   2.935   0.316   4.821 -0.8136 -1.0341  0.2240
    7SAPS  H15R  866   3.008   0.374   4.879  0.4890 -2.4357  0.0231
    7SAPS  C216  867   2.895   0.400   4.698  0.5876  0.7680  0.4520
    7SAPS  H16R  868   2.951   0.493   4.676 -0.9446  1.0322 -2.5768
    7SAPS  H16S  869   2.787   0.422   4.694  0.5259  0.3369 -0.2410
    7SAPS  C217  870   2.913   0.319   4.559 -0.2045  0.4214  0.3198
    7SAPS  H17R  871   2.856   0.223   4.564  1.2732 -0.5487 -0.8801
    7SAPS  H17S  872   3.018   0.284   4.569 -0.3048 -1.0576 -3.2006
    7SAPS  C218  873   2.883   0.398   4.432  0.2604 -0.0664  0.4081
    7SAPS  H18R  874   2.927   0.500   4.439  2.2545 -1.0632  2.9837
    7SAPS  H18S  875   2.778   0.408   4.398 -0.2602  1.3893  2.3938
    7SAPS  C219  876   2.946   0.338   4.301 -0.2685 -0.5725  0.1048
    7SAPS  H19R  877   3.054   0.340   4.327  0.0734 -0.8022 -1.2588
    7SAPS  H19S  878   2.933   0.412   4.219  0.0261 -0.7953 -0.1459
    7SAPS  C220  879   2.902   0.191   4.271  0.0758 -0.0499 -0.2073
    7SAPS  H20R  880   2.952   0.146   4.182 -2.3565  0.5362 -1.9115
    7SAPS  H20S  881   2.792   0.192   4.261  0.0733 -0.8247 -0.3356
    7SAPS  H20T  882   2.942   0.121   4.348  0.1908 -0.5904 -0.7544
    7SAPS   C33  883   2.705  -0.022   5.180  0.0806  0.0973  0.6186
    7SAPS   H3X  884   2.663   0.036   5.095  1.0001 -2.9518 -2.0159
    7SAPS   H3Y  885   2.622  -0.051   5.248  0.6248  0.3853  1.4070
    7SAPS   C34  886   2.771  -0.145   5.114 -0.5235 -0.3026  1.0208
    7SAPS   H4X  887   2.778  -0.222   5.194 -1.5803 -0.6443  0.7946
    7SAPS   H4Y  888   2.874  -0.123   5.079 -0.8136 -0.5227 -0.0070
    7SAPS   C35  889   2.682  -0.194   4.999  0.8840 -0.2526  0.1677
    7SAPS   H5X  890   2.654  -0.108   4.934  0.9649 -1.0989 -0.9975
    7SAPS   H5Y  891   2.590  -0.237   5.044  0.9722  0.5969  1.1802
    7SAPS   C36  892   2.745  -0.296   4.905  0.1927  0.0912  0.0052
    7SAPS   H6X  893   2.774  -0.392   4.952  1.0974  0.5374  0.3637
    7SAPS   H6Y  894   2.844  -0.258   4.871  0.4240 -0.7644 -0.2775
    7SAPS   C37  895   2.667  -0.333   4.780  0.7484 -0.1273  0.0854
    7SAPS   H7X  896   2.633  -0.237   4.734 -2.0849  0.2074  2.7374
    7SAPS   H7Y  897   2.583  -0.395   4.817  0.8201  0.5656  1.4430
    7SAPS   C38  898   2.745  -0.423   4.677 -0.6874  0.0133 -0.4021
    7SAPS   H8X  899   2.773  -0.527   4.704 -0.2487 -0.4218 -2.4092
    7SAPS   H8Y  900   2.841  -0.370   4.661 -2.1360  2.4581 -1.2626
    7SAPS   C39  901   2.662  -0.435   4.547  0.5872 -0.3854 -0.3569
    7SAPS   H9X  902   2.614  -0.338   4.524 -0.9733 -0.8380  0.9177
    7SAPS   H9Y  903   2.576  -0.502   4.566  1.0946 -0.9822 -0.1432
    7SAPS  C310  904   2.733  -0.500   4.434 -0.0245 -0.5916 -0.0510
    7SAPS  H10X  905   2.681  -0.515   4.337  0.2511 -2.9860  0.1417
    7SAPS  H10Y  906   2.773  -0.598   4.470 -2.3145 -1.4622  0.2214
    7SAPS  C311  907   2.867  -0.421   4.396 -0.2004 -0.1850 -0.0397
    7SAPS  H11X  908   2.921  -0.475   4.316  2.5089  1.1595  0.8149
    7SAPS  H11Y  909   2.927  -0.423   4.490  0.7903 -4.3205 -0.6863
    7SAPS  C312  910   2.837  -0.267   4.369 -0.4364 -0.1928  0.3367
    7SAPS  H12X  911   2.934  -0.214   4.359 -1.3756  1.6525  0.8902
    7SAPS  H12Y  912   2.787  -0.223   4.457 -0.0921  2.1930 -0.6066
    7SAPS  C313  913   2.760  -0.245   4.232 -0.2036 -0.4160 -0.0960
    7SAPS  H13X  914   2.663  -0.296   4.250 -0.6835 -0.1796 -1.8403
    7SAPS  H13Y  915   2.812  -0.296   4.149 -0.8519 -1.2691  0.0176
    7SAPS  C314  916   2.737  -0.096   4.198 -0.1710 -0.0674 -0.1878
    7SAPS  H14X  917   2.843  -0.063   4.187 -0.4759  1.1061  0.2954
    7SAPS  H14Y  918   2.689  -0.043   4.282  0.1974  1.1950 -0.7596
    7SAPS  C315  919   2.661  -0.075   4.069  0.1934 -0.2834 -0.8727
    7SAPS  H15X  920   2.611   0.024   4.065 -0.4325 -0.4837  1.2730
    7SAPS  H15Y  921   2.571  -0.140   4.064  0.5429 -0.6286 -3.4733
    7SAPS  C316  922   2.739  -0.108   3.939 -0.1956  0.7396  1.1221
    7SAPS  H16X  923   2.774  -0.213   3.932 -2.0789  0.2079 -0.8769
    7SAPS  H16Y  924   2.821  -0.034   3.942  1.7967 -1.4003  0.5437
    7SAPS  C317  925   2.657  -0.082   3.814  0.3191 -0.0883  0.0307
    7SAPS  H17X  926   2.599   0.011   3.833 -0.0636  0.0403 -1.6904
    7SAPS  H17Y  927   2.581  -0.157   3.784 -1.2519  1.4176  0.1614
    7SAPS  C318  928   2.741  -0.042   3.692  0.1683  0.7359  0.0809
    7SAPS  H18X  929   2.802   0.048   3.713 -0.3421  1.1514 -0.2167
    7SAPS  H18Y  930   2.680  -0.006   3.607  0.4067  1.2710  0.1348
    7SAPS  H18Z  931   2.801  -0.131   3.662  0.4873  0.2977  1.9765
    8SAPS     N  932   2.157   0.023   5.899 -0.2334 -0.2561  0.0162
    8SAPS   HN1  933   2.230  -0.051   5.911 -1.0400 -0.7940  1.7971
    8SAPS   HN2  934   2.058  -0.009   5.909 -0.6272  1.0402  0.3776
    8SAPS   HN3  935   2.168   0.061   5.803  0.8502  2.2820  1.1193
    8SAPS   C12  936   2.189   0.131   5.998 -0.1724 -0.4175 -0.0228
    8SAPS  H12A  937   2.111   0.205   5.998  0.1327 -0.0930  0.0819
    8SAPS   C13  938   2.203   0.077   6.139  0.4762  0.6627 -0.1856
    8SAPS  O13A  939   2.170  -0.037   6.167  0.4560 -0.4377 -0.9405
    8SAPS  O13B  940   2.212   0.162   6.230 -0.5633 -0.0820 -0.0544
    8SAPS   C11  941   2.328   0.191   5.953 -0.1159  0.0334 -0.4231
    8SAPS  H11A  942   2.321   0.227   5.848 -2.0891 -1.1520 -0.7233
    8SAPS  H11B  943   2.409   0.116   5.960  1.3081  1.5574 -0.2624
    8SAPS     P  944   2.523   0.349   6.030  0.3087 -0.1434  0.2368
    8SAPS   O13  945   2.535   0.483   6.092  0.1433  0.3025 -0.1983
    8SAPS   O14  946   2.610   0.245   6.093 -0.0991  0.1467 -0.4596
    8SAPS   O12  947   2.365   0.302   6.034  0.7012  0.5975 -0.1616
    8SAPS   O11  948   2.543   0.354   5.871  0.5678  0.2406  0.0354
    8SAPS    C1  949   2.551   0.489   5.819 -0.2041 -0.3296 -0.2813
    8SAPS    HA  950   2.627   0.557   5.864 -1.9185 -0.0354  2.2905
    8SAPS    HB  951   2.584   0.480   5.713 -1.4598  1.5164 -0.8542
    8SAPS    C2  952   2.414   0.564   5.816 -0.5533  0.0902  0.2387
    8SAPS    HS  953   2.370   0.573   5.917  0.6123 -1.1197  0.8728
    8SAPS   O21  954   2.326   0.489   5.727 -0.1553 -0.4551  0.1453
    8SAPS   C21  955   2.203   0.494   5.761  0.4315 -0.3858  0.1907
    8SAPS   O22  956   2.157   0.541   5.862  0.1093  0.5479 -0.0353
    8SAPS   C22  957   2.118   0.410   5.664 -1.0485  0.8655 -0.1356
    8SAPS   H2R  958   2.194   0.368   5.595 -0.7922 -1.1021  1.3006
    8SAPS   H2S  959   2.060   0.333   5.720 -0.6001  1.2794  0.9280
    8SAPS    C3  960   2.426   0.710   5.760  0.1039 -0.1309  0.1456
    8SAPS    HX  961   2.504   0.773   5.809 -0.7626  1.2012 -0.1768
    8SAPS    HY  962   2.335   0.766   5.789 -0.2217 -1.0230  0.8538
    8SAPS   O31  963   2.442   0.716   5.618  0.4084  0.5071 -0.4896
    8SAPS   C31  964   2.333   0.747   5.553  0.2052  0.0148  0.2241
    8SAPS   O32  965   2.220   0.761   5.601  0.1092 -0.7300  0.7118
    8SAPS   C32  966   2.361   0.757   5.402  0.2032 -0.9240 -0.6418
    8SAPS   H2X  967   2.423   0.848   5.391 -1.1963  0.1921  0.4263
    8SAPS   H2Y  968   2.265   0.775   5.350  0.9069 -2.1687 -2.4138
    8SAPS   C23  969   2.018   0.496   5.590  0.2415  0.1250 -0.9709
    8SAPS   H3R  970   2.046   0.582   5.525  0.5218  0.6493 -0.1601
    8SAPS   H3S  971   1.961   0.546   5.671 -0.2820  1.2935 -2.0354
    8SAPS   C24  972   1.922   0.407   5.507 -0.0724 -0.2338 -0.4530
    8SAPS   H4R  973   1.833   0.470   5.484 -0.2603 -0.1040  0.6173
    8SAPS   H4S  974   1.885   0.319   5.564  0.1353  0.9978  1.6185
    8SAPS   C25  975   1.983   0.347   5.380 -0.2100  0.1401  0.2415
    8SAPS   H5R  976   2.061   0.273   5.407 -0.3025  0.6227  1.8991
    8SAPS   C26  977   1.941   0.356   5.255 -0.0802  0.8976 -0.1439
    8SAPS   H6R  978   1.994   0.293   5.182  2.2016  1.2576  1.1519
    8SAPS   C27  979   1.830   0.437   5.198 -0.1124 -0.0410  0.2848
    8SAPS   H7R  980   1.740   0.433   5.263  0.4429  0.1368  1.0644
    8SAPS   H7S  981   1.799   0.386   5.104  0.3937 -3.5292  1.9405
    8SAPS   C28  982   1.861   0.585   5.188 -0.4008 -0.7469 -0.3708
    8SAPS   H8R  983   1.858   0.630   5.289  0.4939 -2.4158  0.4218
    8SAPS   C29  984   1.873   0.660   5.078  0.5192 -0.0992  0.3477
    8SAPS   H9R  985   1.909   0.764   5.089 -0.5963  0.5478 -1.8779
    8SAPS  C210  986   1.852   0.612   4.937 -0.6398 -0.8013 -0.4493
    8SAPS  H10R  987   1.877   0.504   4.927 -1.9658 -1.0084 -1.7016
    8SAPS  H10S  988   1.930   0.658   4.873 -0.3779  0.9382  1.0944
    8SAPS  C211  989   1.706   0.638   4.898 -0.0080  0.2591 -0.9190
    8SAPS  H11R  990   1.637   0.648   4.983 -0.8193 -1.8148 -1.3212
    8SAPS  C212  991   1.664   0.623   4.770  0.1106 -0.2658 -0.0173
    8SAPS  H12R  992   1.558   0.635   4.743  0.4890  2.8410 -0.3505
    8SAPS  C213  993   1.758   0.595   4.654 -0.0949  0.6762  0.0661
    8SAPS  H13R  994   1.854   0.544   4.676 -0.4153 -0.2676 -0.6592
    8SAPS  H13S  995   1.790   0.693   4.612 -0.7321  0.6098 -0.5819
    8SAPS  C214  996   1.705   0.507   4.547  0.0765  0.3422 -0.4514
    8SAPS  H14R  997   1.609   0.455   4.556  1.2542 -1.3744  2.9062
    8SAPS  C215  998   1.778   0.474   4.441 -0.1649  0.0997  0.2538
    8SAPS  H15R  999   1.738   0.399   4.371 -0.3453 -0.5678  1.0701
    8SAPS  C216 1000   1.912   0.525   4.406 -0.5081 -0.3321  0.6243
    8SAPS  H16R 1001   1.974   0.444   4.362  0.3431  0.7879 -0.2870
    8SAPS  H16S 1002   1.971   0.566   4.490  1.2483 -0.8937 -0.3204
    8SAPS  C217 1003   1.889   0.635   4.300 -0.1092 -0.4237 -0.5904
    8SAPS  H17R 1004   1.797   0.690   4.330  0.8412  1.3213 -0.7812
    8SAPS  H17S 1005   1.870   0.589   4.201 -1.5899  1.7186 -1.3330
    8SAPS  C218 1006   2.007   0.732   4.282  0.5868 -0.0680  0.0898
    8SAPS  H18R 1007   2.104   0.678   4.287 -0.1227 -1.2405  1.3852
    8SAPS  H18S 1008   2.016   0.807   4.364 -1.6265 -2.3369  2.5030
    8SAPS  C219 1009   2.008   0.797   4.144  0.7497  0.2484  0.6522
    8SAPS  H19R 1010   1.920   0.863   4.135 -0.2606 -1.1045  0.4657
    8SAPS  H19S 1011   1.975   0.723   4.068  2.5078  0.8030 -0.6763
    8SAPS  C220 1012   2.125   0.878   4.095 -0.1846  0.2105  0.0107
    8SAPS  H20R 1013   2.222   0.842   4.138  0.9449  0.8627 -1.9222
    8SAPS  H20S 1014   2.118   0.982   4.132  0.3994  0.6059 -0.9575
    8SAPS  H20T 1015   2.134   0.892   3.985  2.2550 -1.0125 -0.0018
    8SAPS   C33 1016   2.426   0.637   5.326 -0.3827 -0.0377  0.0547
    8SAPS   H3X 1017   2.521   0.596   5.366 -0.0725 -0.7524 -1.4175
    8SAPS   H3Y 1018   2.449   0.673   5.224 -2.7696 -3.2681 -1.7211
    8SAPS   C34 1019   2.320   0.525   5.307  0.0464 -0.2158  0.5134
    8SAPS   H4X 1020   2.245   0.571   5.239  1.6895  1.3968 -0.2650
    8SAPS   H4Y 1021   2.286   0.500   5.410 -2.3796  0.2018 -0.1356
    8SAPS   C35 1022   2.357   0.403   5.225 -0.4008  0.0233  0.2120
    8SAPS   H5X 1023   2.267   0.339   5.239  0.8522 -1.2555  2.6953
    8SAPS   H5Y 1024   2.432   0.343   5.280  0.0773  1.2925  0.9864
    8SAPS   C36 1025   2.386   0.442   5.080 -0.0062 -0.2632 -0.0572
    8SAPS   H6X 1026   2.457   0.369   5.036 -0.5748 -0.1222 -1.2135
    8SAPS   H6Y 1027   2.423   0.545   5.063 -1.7294  0.4286  0.3080
    8SAPS   C37 1028   2.261   0.427   4.997  0.0996  0.4612 -0.4200
    8SAPS   H7X 1029   2.177   0.491   5.030 -1.7961 -1.2894 -1.7836
    8SAPS   H7Y 1030   2.233   0.320   4.995 -0.7010  0.6568  0.1225
    8SAPS   C38 1031   2.290   0.468   4.854  0.2108  0.3279  0.2292
    8SAPS   H8X 1032   2.396   0.442   4.834  0.4061  0.2447  1.3444
    8SAPS   H8Y 1033   2.286   0.578   4.840  1.5011  0.4167  0.4770
    8SAPS   C39 1034   2.196   0.399   4.752 -0.1425 -0.7927  0.2303
    8SAPS   H9X 1035   2.099   0.394   4.806 -1.0920  1.0144 -1.2697
    8SAPS   H9Y 1036   2.237   0.298   4.729  0.0314 -0.5335 -0.6108
    8SAPS  C310 1037   2.199   0.470   4.613 -0.2958 -0.0735 -0.6265
    8SAPS  H10X 1038   2.185   0.580   4.615 -0.3427 -0.0989  0.7244
    8SAPS  H10Y 1039   2.122   0.423   4.548 -2.7365  0.7209  1.6003
    8SAPS  C311 1040   2.335   0.446   4.545 -0.3057 -0.5029  0.8869
    8SAPS  H11X 1041   2.339   0.337   4.524  1.9192 -0.2393 -0.1986
    8SAPS  H11Y 1042   2.416   0.470   4.618  0.9528  0.7516 -0.8823
    8SAPS  C312 1043   2.361   0.522   4.416 -0.6305  0.8525  0.1484
    8SAPS  H12X 1044   2.337   0.631   4.413  0.2891  1.0522 -0.0505
    8SAPS  H12Y 1045   2.291   0.469   4.347 -0.1131 -2.1338  1.8277
    8SAPS  C313 1046   2.503   0.507   4.352 -0.3311  0.1919 -0.3358
    8SAPS  H13X 1047   2.534   0.401   4.359  0.8605  0.5232 -0.4297
    8SAPS  H13Y 1048   2.576   0.560   4.417  0.1715 -2.1405  1.0384
    8SAPS  C314 1049   2.513   0.554   4.203 -0.6534  0.3160 -0.2627
    8SAPS  H14X 1050   2.513   0.664   4.194 -1.6101  0.2969 -0.5971
    8SAPS  H14Y 1051   2.415   0.525   4.159 -1.3605  1.2416  0.6758
    8SAPS  C315 1052   2.629   0.495   4.128 -0.9706 -0.5414  0.2537
    8SAPS  H15X 1053   2.601   0.388   4.118  1.8218 -1.1467 -1.6849
    8SAPS  H15Y 1054   2.723   0.503   4.188  0.5339  1.8446 -2.2993
    8SAPS  C316 1055   2.659   0.556   3.988  0.7326 -0.5117  0.1144
    8SAPS  H16X 1056   2.703   0.656   4.009 -0.3280 -0.1996  0.8988
    8SAPS  H16Y 1057   2.569   0.571   3.925  0.2095  3.4404  1.6241
    8SAPS  C317 1058   2.758   0.489   3.890  0.4198  0.3611 -0.6212
    8SAPS  H17X 1059   2.863   0.489   3.926 -0.9372  0.6621  3.6104
    8SAPS  H17Y 1060   2.765   0.548   3.796  0.8621  0.3362 -0.6056
    8SAPS  C318 1061   2.712   0.348   3.859  0.2515  0.5200  0.4927
    8SAPS  H18X 1062   2.721   0.279   3.945  0.9545 -2.5976 -1.9707
    8SAPS  H18Y 1063   2.786   0.308   3.786  2.4591  2.5495  1.5502
    8SAPS  H18Z 1064   2.613   0.351   3.808  1.2854  1.8118 -1.5346
    9SAPS     N 1065   7.001   5.910   5.983  0.4879  0.0596  0.0465
    9SAPS   HN1 1066   6.998   5.806   5.984  2.3171 -0.0676 -2.1810
    9SAPS   HN2 1067   6.921   5.935   5.921 -0.8004 -2.6267  0.5542
    9SAPS   HN3 1068   7.092   5.940   5.942 -0.8037  1.0940 -2.1462
    9SAPS   C12 1069   7.002   5.972   6.117  0.2070 -0.4888 -0.4974
    9SAPS  H12A 1070   6.952   5.902   6.182  3.2726 -1.9605  0.3767
    9SAPS   C13 1071   7.147   5.996   6.166 -0.1907 -0.0616 -0.1471
    9SAPS  O13A 1072   7.244   5.979   6.089 -0.0404 -0.1000 -0.1632
    9SAPS  O13B 1073   7.163   6.066   6.270  0.2061 -0.1007 -0.1414
    9SAPS   C11 1074   6.923   6.104   6.121  0.2041  0.3739  0.4368
    9SAPS  H11A 1075   6.959   6.182   6.050 -0.6991 -0.6533 -1.1900
    9SAPS  H11B 1076   6.927   6.140   6.226  0.0326 -0.0160  0.5749
    9SAPS     P 1077   6.681   6.141   6.010  0.0337  0.1614 -0.3861
    9SAPS   O13 1078   6.544   6.078   6.027  0.4473 -0.1076 -0.2470
    9SAPS   O14 1079   6.699   6.282   6.036  0.1143 -0.5356 -0.8806
    9SAPS   O12 1080   6.784   6.064   6.096 -0.3308  0.3712 -0.2656
    9SAPS   O11 1081   6.741   6.108   5.870 -0.1279  0.0455  0.0567
    9SAPS    C1 1082   6.706   6.000   5.787 -0.0598  0.2129 -0.0371
    9SAPS    HA 1083   6.794   5.970   5.727 -0.8287 -0.1052 -1.0124
    9SAPS    HB 1084   6.676   5.908   5.841 -1.8522  0.5201 -0.4767
    9SAPS    C2 1085   6.592   6.028   5.679  0.3888 -0.1843  0.5202
    9SAPS    HS 1086   6.642   6.079   5.594 -2.0462 -2.0380 -2.1284
    9SAPS   O21 1087   6.482   6.113   5.723  0.1816  0.0688  0.3079
    9SAPS   C21 1088   6.501   6.246   5.709  0.8195  0.3708  0.1552
    9SAPS   O22 1089   6.606   6.301   5.677 -0.4603  0.1092 -0.0501
    9SAPS   C22 1090   6.379   6.326   5.753  0.0039 -0.4712 -0.9325
    9SAPS   H2R 1091   6.350   6.293   5.855 -0.2907 -1.5860 -1.3764
    9SAPS   H2S 1092   6.408   6.433   5.758 -0.3585 -0.4004 -0.1682
    9SAPS    C3 1093   6.533   5.893   5.622 -0.3888  0.1182 -0.1103
    9SAPS    HX 1094   6.474   5.844   5.702 -1.1259 -0.8073 -1.2148
    9SAPS    HY 1095   6.627   5.838   5.601 -1.9844 -1.8887 -2.2289
    9SAPS   O31 1096   6.444   5.915   5.508 -0.3121 -0.7081 -0.2520
    9SAPS   C31 1097   6.370   5.824   5.453  0.3943  0.8186  0.9195
    9SAPS   O32 1098   6.376   5.705   5.485 -0.4350  0.8403 -0.3343
    9SAPS   C32 1099   6.281   5.879   5.339  0.3725 -0.4489  0.5430
    9SAPS   H2X 1100   6.245   5.979   5.369  0.5659  0.3694 -1.8569
    9SAPS   H2Y 1101   6.197   5.806   5.328  0.1996 -0.1717 -0.0031
    9SAPS   C23 1102   6.250   6.308   5.677  0.3335  0.1132  0.9160
    9SAPS   H3R 1103   6.161   6.335   5.738 -1.3814  1.7131 -2.1750
    9SAPS   H3S 1104   6.245   6.203   5.643 -2.5941  1.3670 -2.9091
    9SAPS   C24 1105   6.249   6.397   5.544  0.8807 -0.2524 -0.3985
    9SAPS   H4R 1106   6.355   6.412   5.511  0.7377 -0.9724 -1.1785
    9SAPS   H4S 1107   6.211   6.501   5.557 -1.1248 -0.9094 -0.9951
    9SAPS   C25 1108   6.178   6.317   5.437  0.5727 -0.0741 -0.1817
    9SAPS   H5R 1109   6.197   6.209   5.436  1.2044  0.0336 -0.0630
    9SAPS   C26 1110   6.102   6.366   5.337 -0.1837  0.2814 -0.3920
    9SAPS   H6R 1111   6.050   6.299   5.267 -1.1931  1.1126 -0.4554
    9SAPS   C27 1112   6.071   6.514   5.324  0.7084 -1.3188  0.0929
    9SAPS   H7R 1113   6.169   6.566   5.323  1.2203 -2.2812 -0.1042
    9SAPS   H7S 1114   6.031   6.559   5.417  3.0356  2.3248 -0.6082
    9SAPS   C28 1115   5.991   6.554   5.207 -0.3282 -0.0428  1.0336
    9SAPS   H8R 1116   6.060   6.599   5.134 -1.2899  0.3048  0.3384
    9SAPS   C29 1117   5.862   6.553   5.189 -0.8491  0.1531  0.8311
    9SAPS   H9R 1118   5.824   6.592   5.093  0.5005  1.3433  0.7754
    9SAPS  C210 1119   5.781   6.501   5.297  0.0744 -0.2804  0.3068
    9SAPS  H10R 1120   5.797   6.563   5.388  2.2618  0.9888 -0.9004
    9SAPS  H10S 1121   5.805   6.398   5.329 -1.3803  0.2847  3.4630
    9SAPS  C211 1122   5.633   6.517   5.267  0.6290  0.1526 -0.4511
    9SAPS  H11R 1123   5.588   6.606   5.315 -1.0926 -0.3183 -1.1569
    9SAPS  C212 1124   5.555   6.439   5.183  0.0999  0.4811 -0.2080
    9SAPS  H12R 1125   5.450   6.466   5.165 -0.2126 -0.4812  0.1636
    9SAPS  C213 1126   5.598   6.315   5.114  0.1213  0.3727  0.2601
    9SAPS  H13R 1127   5.625   6.249   5.199  1.9386  4.5689  3.1530
    9SAPS  H13S 1128   5.686   6.324   5.046 -0.4513 -2.8882 -1.0049
    9SAPS  C214 1129   5.479   6.248   5.038 -0.0712 -0.1681  0.2859
    9SAPS  H14R 1130   5.409   6.321   4.995  2.6123  1.1856 -1.9291
    9SAPS  C215 1131   5.472   6.116   5.016  0.2103  0.2499  0.0663
    9SAPS  H15R 1132   5.379   6.081   4.971  0.1092  0.3570  0.1922
    9SAPS  C216 1133   5.574   6.009   5.061 -0.0649  0.6320 -0.9538
    9SAPS  H16R 1134   5.540   5.970   5.160 -0.2772  1.7375 -0.5830
    9SAPS  H16S 1135   5.677   6.049   5.074  0.1087 -0.0099 -0.2834
    9SAPS  C217 1136   5.598   5.885   4.964 -0.2858  0.2272 -0.4033
    9SAPS  H17R 1137   5.665   5.809   5.008 -0.7551 -1.1259 -1.9673
    9SAPS  H17S 1138   5.640   5.923   4.868  0.7747 -0.6732 -0.3021
    9SAPS  C218 1139   5.464   5.812   4.926 -0.7219 -0.0517 -0.1338
    9SAPS  H18R 1140   5.411   5.885   4.860 -0.2175 -1.0105 -1.6336
    9SAPS  H18S 1141   5.400   5.808   5.017 -0.1142  0.6027  0.3256
    9SAPS  C219 1142   5.489   5.677   4.852 -0.2369 -0.1070 -0.5342
    9SAPS  H19R 1143   5.562   5.624   4.917 -1.7119 -0.4911  0.8390
    9SAPS  H19S 1144   5.532   5.672   4.749  0.7970 -1.0867 -0.0760
    9SAPS  C220 1145   5.351   5.602   4.841 -0.0826 -0.1747  0.0473
    9SAPS  H20R 1146   5.344   5.504   4.790 -1.4783 -0.2937  0.4337
    9SAPS  H20S 1147   5.278   5.669   4.792  2.3185  1.0925 -1.8839
    9SAPS  H20T 1148   5.329   5.584   4.949  0.5885  0.7051  0.3320
    9SAPS   C33 1149   6.350   5.886   5.199 -1.2687 -0.1559 -0.2120
    9SAPS   H3X 1150   6.398   5.788   5.178 -0.6739 -0.2568  1.5733
    9SAPS   H3Y 1151   6.431   5.960   5.215 -1.9064  0.5217 -0.0990
    9SAPS   C34 1152   6.269   5.934   5.077 -0.0098 -0.1186  0.3397
    9SAPS   H4X 1153   6.191   5.858   5.056  0.3305 -0.2178 -0.6191
    9SAPS   H4Y 1154   6.341   5.929   4.992 -0.0997 -0.2712  0.2738
    9SAPS   C35 1155   6.209   6.072   5.095 -0.1572  0.2663 -0.3972
    9SAPS   H5X 1156   6.284   6.134   5.147 -0.6491  0.4499  0.0937
    9SAPS   H5Y 1157   6.117   6.068   5.157 -0.0765  1.8163 -0.1412
    9SAPS   C36 1158   6.185   6.143   4.962 -0.2385  0.4306 -0.0006
    9SAPS   H6X 1159   6.262   6.124   4.884 -1.0386  0.7914 -0.8865
    9SAPS   H6Y 1160   6.189   6.253   4.981  2.0336 -0.0787  2.8224
    9SAPS   C37 1161   6.046   6.119   4.904 -0.3802  0.0485  0.3598
    9SAPS   H7X 1162   5.967   6.166   4.966  0.1876  0.8692  0.4759
    9SAPS   H7Y 1163   6.010   6.014   4.904 -2.3253  0.6714 -1.6263
    9SAPS   C38 1164   6.029   6.172   4.758  0.1245 -0.3975  0.2379
    9SAPS   H8X 1165   5.935   6.148   4.705  0.4466  0.7116 -0.8657
    9SAPS   H8Y 1166   6.098   6.109   4.699 -1.1936 -2.5275  0.9334
    9SAPS   C39 1167   6.068   6.313   4.735  0.1456 -0.2407 -0.1870
    9SAPS   H9X 1168   6.080   6.344   4.629 -0.3652  0.0794 -0.1541
    9SAPS   H9Y 1169   6.169   6.330   4.778 -1.1381 -1.0874  3.3733
    9SAPS  C310 1170   5.989   6.410   4.820 -0.0132  0.4466 -0.0864
    9SAPS  H10X 1171   6.030   6.512   4.806 -0.1581  0.6265  0.7672
    9SAPS  H10Y 1172   6.012   6.389   4.927  0.5192 -0.2823 -0.3359
    9SAPS  C311 1173   5.843   6.423   4.791  0.0771  0.5705 -0.3496
    9SAPS  H11X 1174   5.792   6.504   4.848 -1.5439 -1.5458  1.2947
    9SAPS  H11Y 1175   5.793   6.328   4.820 -0.7923  0.5052 -2.0234
    9SAPS  C312 1176   5.805   6.447   4.644 -0.2010 -0.0696 -0.3306
    9SAPS  H12X 1177   5.696   6.467   4.638  0.0628  1.6785  0.5954
    9SAPS  H12Y 1178   5.829   6.373   4.564 -0.8190  1.0985 -1.6152
    9SAPS  C313 1179   5.880   6.570   4.589  0.3174 -0.6134 -0.3580
    9SAPS  H13X 1180   5.991   6.559   4.579  0.3584  1.0079 -2.1326
    9SAPS  H13Y 1181   5.866   6.651   4.663 -1.1456 -0.8006 -0.4277
    9SAPS  C314 1182   5.839   6.604   4.447  0.1401  0.6575  0.4917
    9SAPS  H14X 1183   5.856   6.521   4.375 -1.6720  1.3264 -0.7571
    9SAPS  H14Y 1184   5.888   6.699   4.413 -3.6066  1.9835 -1.4388
    9SAPS  C315 1185   5.683   6.631   4.437 -0.4533 -0.3816  0.6061
    9SAPS  H15X 1186   5.654   6.706   4.514  1.8076 -0.0425  1.1820
    9SAPS  H15Y 1187   5.637   6.534   4.465 -1.4677  0.5381  2.1996
    9SAPS  C316 1188   5.629   6.683   4.304  0.2787 -0.2090 -0.4551
    9SAPS  H16X 1189   5.660   6.789   4.293 -0.5239  0.0432 -0.3555
    9SAPS  H16Y 1190   5.519   6.672   4.312  0.1873  0.5518 -0.5669
    9SAPS  C317 1191   5.675   6.608   4.176 -0.4027  0.3379  0.1112
    9SAPS  H17X 1192   5.786   6.599   4.169 -0.2910  1.5080  0.2818
    9SAPS  H17Y 1193   5.652   6.684   4.099 -1.3290  0.3258  0.3703
    9SAPS  C318 1194   5.611   6.472   4.150 -0.3079  0.1968  0.2367
    9SAPS  H18X 1195   5.627   6.397   4.230  0.7572  1.2450  1.0193
    9SAPS  H18Y 1196   5.656   6.432   4.057  0.6290  2.0439 -0.1381
    9SAPS  H18Z 1197   5.502   6.496   4.141  0.0720  2.3784  1.1141
   10SAPS     N 1198   0.501   6.650   6.047  0.0159 -0.0332 -0.2274
   10SAPS   HN1 1199   0.405   6.683   6.069 -0.8544 -2.7761  0.3005
   10SAPS   HN2 1200   0.525   6.711   5.967  0.1556  0.6304  0.3129
   10SAPS   HN3 1201   0.501   6.552   6.011 -0.0992 -0.4948  0.9907
   10SAPS   C12 1202   0.585   6.649   6.165 -0.1044  0.5443 -0.3831
   10SAPS  H12A 1203   0.572   6.745   6.213 -0.8595 -0.9092  2.3716
   10SAPS   C13 1204   0.565   6.537   6.266  0.3184  0.1796  0.0580
   10SAPS  O13A 1205   0.479   6.446   6.245 -0.2742 -0.5275 -0.5533
   10SAPS  O13B 1206   0.624   6.545   6.376 -0.2934 -0.0967 -0.2393
   10SAPS   C11 1207   0.736   6.639   6.111 -0.2354 -0.1443  0.1854
   10SAPS  H11A 1208   0.750   6.548   6.049 -2.0529  1.7177 -3.1120
   10SAPS  H11B 1209   0.799   6.635   6.202  0.0164  1.5993  0.1082
   10SAPS     P 1210   0.859   6.862   6.086  0.0793 -0.0031 -0.5270
   10SAPS   O13 1211   0.850   6.983   5.998 -0.8916  0.1929 -0.1064
   10SAPS   O14 1212   0.837   6.881   6.233  0.6354  0.0911  0.0316
   10SAPS   O12 1213   0.768   6.750   6.028 -0.1574  0.3016  0.7999
   10SAPS   O11 1214   0.995   6.787   6.073 -0.3714 -0.4033  0.0536
   10SAPS    C1 1215   1.069   6.776   5.948  0.6243 -1.0355 -0.1353
   10SAPS    HA 1216   1.003   6.794   5.860  1.6667  2.8163 -0.2473
   10SAPS    HB 1217   1.151   6.851   5.945  1.9917 -2.4620  0.6751
   10SAPS    C2 1218   1.139   6.641   5.944 -0.0266 -0.5821  0.1523
   10SAPS    HS 1219   1.188   6.624   6.042 -0.3596  2.7619  0.9826
   10SAPS   O21 1220   1.230   6.644   5.834 -0.0365  0.4612  0.2165
   10SAPS   C21 1221   1.357   6.613   5.852  0.4140 -0.6963 -0.5844
   10SAPS   O22 1222   1.394   6.563   5.959  0.2437 -0.7168  0.2902
   10SAPS   C22 1223   1.451   6.658   5.737  0.9019 -0.0964 -0.1057
   10SAPS   H2R 1224   1.478   6.762   5.763  1.1016 -0.7632  2.4368
   10SAPS   H2S 1225   1.540   6.594   5.752  1.5468  0.9038  0.3318
   10SAPS    C3 1226   1.030   6.536   5.905  0.5006  0.7608 -0.3179
   10SAPS    HX 1227   0.957   6.529   5.989 -0.0883 -0.8438 -0.9506
   10SAPS    HY 1228   1.089   6.443   5.895 -0.3908  0.5102 -3.7496
   10SAPS   O31 1229   0.966   6.562   5.773  0.2162  0.6074 -0.2127
   10SAPS   C31 1230   0.858   6.485   5.751  0.2218  0.6520  0.9694
   10SAPS   O32 1231   0.802   6.414   5.836 -0.2153 -0.1617  0.1392
   10SAPS   C32 1232   0.812   6.502   5.602  0.2620  0.4637  0.0569
   10SAPS   H2X 1233   0.701   6.500   5.611  0.2686 -0.8262 -0.0627
   10SAPS   H2Y 1234   0.828   6.410   5.543 -0.8080 -0.7233  1.5597
   10SAPS   C23 1235   1.384   6.640   5.606  0.3566 -0.0350 -0.2108
   10SAPS   H3R 1236   1.288   6.697   5.608 -0.6091 -1.4439 -3.0972
   10SAPS   H3S 1237   1.346   6.537   5.588  0.4415 -0.1966  0.5197
   10SAPS   C24 1238   1.479   6.679   5.492 -0.3760  0.9039 -0.0254
   10SAPS   H4R 1239   1.471   6.621   5.398 -0.7938 -0.9768  1.1598
   10SAPS   H4S 1240   1.582   6.650   5.523  0.0352  0.0147 -2.1724
   10SAPS   C25 1241   1.486   6.829   5.464 -0.1046  0.0928 -0.3155
   10SAPS   H5R 1242   1.557   6.876   5.534 -1.3010  0.8528  0.4149
   10SAPS   C26 1243   1.429   6.911   5.374  0.7423  0.0791  0.1375
   10SAPS   H6R 1244   1.456   7.018   5.381 -2.9182  1.2085 -1.8295
   10SAPS   C27 1245   1.332   6.876   5.268  0.5682 -0.0033  0.3489
   10SAPS   H7R 1246   1.264   6.963   5.254 -0.8826 -1.3978 -1.5215
   10SAPS   H7S 1247   1.257   6.799   5.297  1.2792 -0.1200  1.8862
   10SAPS   C28 1248   1.394   6.823   5.144  0.3614 -0.9222  0.0991
   10SAPS   H8R 1249   1.404   6.714   5.150 -1.5530 -1.2281 -1.7520
   10SAPS   C29 1250   1.410   6.893   5.027 -0.0282 -0.1217 -0.6806
   10SAPS   H9R 1251   1.463   6.846   4.943  2.4123  1.4870 -0.0786
   10SAPS  C210 1252   1.365   7.035   5.002 -0.8699 -0.3000  0.1095
   10SAPS  H10R 1253   1.422   7.088   4.923  0.0586  0.3730  1.2201
   10SAPS  H10S 1254   1.376   7.100   5.091  0.2184 -0.5076  0.1332
   10SAPS  C211 1255   1.224   7.040   4.961  0.0386 -0.3995  0.1359
   10SAPS  H11R 1256   1.164   6.969   5.019 -1.5632  1.8710  1.3296
   10SAPS  C212 1257   1.168   7.102   4.856 -0.4868 -0.2907 -0.3327
   10SAPS  H12R 1258   1.058   7.102   4.856 -0.5024  1.1525  0.5942
   10SAPS  C213 1259   1.230   7.185   4.757  0.3147 -0.8112  0.1324
   10SAPS  H13R 1260   1.341   7.180   4.761  0.4647 -0.5755 -2.5608
   10SAPS  H13S 1261   1.197   7.290   4.770 -1.6412 -1.3094 -0.6187
   10SAPS  C214 1262   1.189   7.133   4.623  0.6890 -0.2912  0.3692
   10SAPS  H14R 1263   1.143   7.204   4.552  0.8948  1.0002  1.5085
   10SAPS  C215 1264   1.190   7.013   4.565  0.3165  0.0928  0.0153
   10SAPS  H15R 1265   1.160   7.005   4.459  0.4628 -1.8425  0.1005
   10SAPS  C216 1266   1.244   6.876   4.620 -0.7877  0.3960 -0.7379
   10SAPS  H16R 1267   1.193   6.788   4.575  1.1379 -0.3004 -1.6562
   10SAPS  H16S 1268   1.229   6.866   4.729 -1.4956 -1.2799 -0.9705
   10SAPS  C217 1269   1.395   6.862   4.585 -0.0646  0.6181 -0.0360
   10SAPS  H17R 1270   1.444   6.800   4.663 -0.5798  0.1500 -0.0794
   10SAPS  H17S 1271   1.436   6.965   4.576 -2.3270  1.4234 -1.4952
   10SAPS  C218 1272   1.415   6.787   4.446  0.8786  0.3080 -0.1355
   10SAPS  H18R 1273   1.328   6.823   4.388 -0.0350  1.7886  2.0838
   10SAPS  H18S 1274   1.401   6.683   4.483 -0.2938  0.9579  1.3250
   10SAPS  C219 1275   1.552   6.811   4.380  0.1043  0.2568 -0.4653
   10SAPS  H19R 1276   1.583   6.917   4.396  0.8746 -0.2209  1.3522
   10SAPS  H19S 1277   1.547   6.799   4.270 -0.0562 -1.3479 -0.2926
   10SAPS  C220 1278   1.667   6.725   4.437 -0.0251 -0.3035  0.6084
   10SAPS  H20R 1279   1.635   6.624   4.401 -1.1166  0.0617  0.5453
   10SAPS  H20S 1280   1.676   6.715   4.547 -0.9911 -1.6272  0.5753
   10SAPS  H20T 1281   1.766   6.760   4.399  0.3500 -1.5859  0.3750
   10SAPS   C33 1282   0.875   6.613   5.522 -0.6837  0.5440  0.0642
   10SAPS   H3X 1283   0.983   6.588   5.511 -0.8788 -1.9300  3.1208
   10SAPS   H3Y 1284   0.856   6.710   5.572 -1.5891  0.9064 -0.9731
   10SAPS   C34 1285   0.807   6.614   5.388 -0.3411 -0.5488  0.4384
   10SAPS   H4X 1286   0.706   6.659   5.398 -0.0383  0.3849 -0.6488
   10SAPS   H4Y 1287   0.796   6.512   5.345  0.1004  0.9486 -3.4408
   10SAPS   C35 1288   0.876   6.702   5.279 -0.1788 -0.2435  0.4044
   10SAPS   H5X 1289   0.974   6.653   5.258  0.4323  1.4302 -0.7440
   10SAPS   H5Y 1290   0.887   6.807   5.313  2.5662 -0.2865 -0.2343
   10SAPS   C36 1291   0.794   6.694   5.152  0.4666 -0.4455  0.1707
   10SAPS   H6X 1292   0.686   6.709   5.175  0.3389 -0.3104 -0.5152
   10SAPS   H6Y 1293   0.805   6.594   5.105  1.6204 -0.5297  0.5979
   10SAPS   C37 1294   0.839   6.790   5.042  0.2849 -0.1014  0.5771
   10SAPS   H7X 1295   0.948   6.778   5.026  0.3764 -0.8742  1.7225
   10SAPS   H7Y 1296   0.829   6.897   5.070  1.8864 -0.1474  1.4184
   10SAPS   C38 1297   0.760   6.768   4.917 -0.2459  0.1092  0.4083
   10SAPS   H8X 1298   0.662   6.819   4.933  2.0902  4.2413  2.1285
   10SAPS   H8Y 1299   0.733   6.660   4.913 -1.8188  0.5048 -0.3118
   10SAPS   C39 1300   0.831   6.814   4.791 -0.0889 -0.4578 -0.2063
   10SAPS   H9X 1301   0.916   6.744   4.779  0.8079  0.5730  0.0113
   10SAPS   H9Y 1302   0.884   6.908   4.816  2.4139 -2.4192  2.1932
   10SAPS  C310 1303   0.756   6.827   4.663  0.6307  0.2035  0.2113
   10SAPS  H10X 1304   0.655   6.869   4.644  0.9247  0.5053 -0.7244
   10SAPS  H10Y 1305   0.730   6.724   4.632  1.4767 -0.2074  0.8562
   10SAPS  C311 1306   0.842   6.898   4.556 -0.8536  0.3548  0.1112
   10SAPS  H11X 1307   0.946   6.861   4.549 -0.2736  1.5684  2.0427
   10SAPS  H11Y 1308   0.844   7.005   4.586 -1.1940  0.7467 -1.2233
   10SAPS  C312 1309   0.780   6.892   4.414  0.3664  0.2947 -0.6838
   10SAPS  H12X 1310   0.680   6.941   4.421  0.5065  0.7926 -2.0301
   10SAPS  H12Y 1311   0.774   6.784   4.388  1.8962  0.2984 -1.0595
   10SAPS  C313 1312   0.862   6.971   4.309  0.1932 -0.4541  0.3933
   10SAPS  H13X 1313   0.817   6.938   4.213 -0.2714 -1.4915  0.9587
   10SAPS  H13Y 1314   0.965   6.931   4.311  1.0118  1.6405  1.0943
   10SAPS  C314 1315   0.870   7.127   4.336  0.0056 -0.4636  0.3474
   10SAPS  H14X 1316   0.902   7.139   4.442  0.1589  0.9529  0.1396
   10SAPS  H14Y 1317   0.768   7.171   4.329  0.0049 -0.4715  0.3072
   10SAPS  C315 1318   0.977   7.185   4.245  0.3764 -0.0273  0.2665
   10SAPS  H15X 1319   0.947   7.194   4.139  1.5330 -1.5598 -0.2078
   10SAPS  H15Y 1320   1.062   7.113   4.247  2.3533  2.2475  0.7331
   10SAPS  C316 1321   1.031   7.326   4.273  1.1416 -0.6753 -0.5575
   10SAPS  H16X 1322   1.094   7.324   4.365 -0.0804  0.2142  0.2944
   10SAPS  H16Y 1323   0.945   7.395   4.283  1.4076 -0.2111 -1.3731
   10SAPS  C317 1324   1.119   7.382   4.158 -0.1284 -0.0142  0.2796
   10SAPS  H17X 1325   1.164   7.482   4.176 -1.8727  0.6892  0.7882
   10SAPS  H17Y 1326   1.061   7.380   4.064 -1.4783  2.1775  1.0395
   10SAPS  C318 1327   1.233   7.284   4.121  0.9111  0.1500  0.0803
   10SAPS  H18X 1328   1.196   7.197   4.064 -0.2615  0.1691  0.7978
   10SAPS  H18Y 1329   1.286   7.253   4.213  2.4696 -1.2592 -1.2615
   10SAPS  H18Z 1330   1.306   7.336   4.056  1.9512 -1.0264  0.2917
   11SAPS     N 1331   3.409   2.768   1.952 -1.2872  0.3984  0.0332
   11SAPS   HN1 1332   3.441   2.679   1.909 -1.1360 -0.3137  1.5735
   11SAPS   HN2 1333   3.491   2.824   1.981 -1.3272  0.4268  0.0910
   11SAPS   HN3 1334   3.353   2.753   2.039  0.4695  0.8029  1.2657
   11SAPS   C12 1335   3.325   2.835   1.853 -0.5856  0.0516 -0.2924
   11SAPS  H12A 1336   3.387   2.846   1.765 -0.0486 -4.5921 -0.6718
   11SAPS   C13 1337   3.200   2.763   1.801  0.7592 -0.1747 -0.6618
   11SAPS  O13A 1338   3.158   2.655   1.855  0.2669  0.0447 -0.3618
   11SAPS  O13B 1339   3.143   2.810   1.701 -0.0995 -0.5170  0.0864
   11SAPS   C11 1340   3.278   2.977   1.918  1.0575 -0.5879 -0.7106
   11SAPS  H11A 1341   3.212   2.944   2.001  0.5496 -0.6359 -1.1279
   11SAPS  H11B 1342   3.209   3.021   1.843 -0.9497 -2.9699 -0.3165
   11SAPS     P 1343   3.355   3.166   2.071 -0.3533  0.1253  0.3176
   11SAPS   O13 1344   3.447   3.282   2.062 -0.6566 -0.2461  0.1653
   11SAPS   O14 1345   3.209   3.210   2.070 -1.1816  0.3098  0.1588
   11SAPS   O12 1346   3.382   3.057   1.962  0.3988 -0.0109  0.0698
   11SAPS   O11 1347   3.382   3.081   2.202  0.2160 -0.0588 -0.2783
   11SAPS    C1 1348   3.496   3.117   2.290  0.0451  0.4185  0.9076
   11SAPS    HA 1349   3.587   3.068   2.251 -0.1415  0.8992 -0.1635
   11SAPS    HB 1350   3.514   3.227   2.298  0.6255  0.5891 -2.2719
   11SAPS    C2 1351   3.477   3.084   2.443  0.3500  0.0151  0.0201
   11SAPS    HS 1352   3.469   2.973   2.453  1.9834  0.0842  2.5762
   11SAPS   O21 1353   3.357   3.142   2.502 -0.2142 -0.2172  0.3522
   11SAPS   C21 1354   3.246   3.079   2.481 -0.0228  0.5369  0.2132
   11SAPS   O22 1355   3.234   2.971   2.430 -0.2603 -0.1665 -0.0616
   11SAPS   C22 1356   3.132   3.167   2.527 -0.6416  0.1591 -0.3289
   11SAPS   H2R 1357   3.152   3.273   2.497  2.0639  0.0927  1.1091
   11SAPS   H2S 1358   3.034   3.141   2.482 -0.5494  3.0408 -2.3796
   11SAPS    C3 1359   3.601   3.138   2.521  0.2179  0.5191  0.9202
   11SAPS    HX 1360   3.628   3.233   2.471  0.8457 -0.2343 -0.1927
   11SAPS    HY 1361   3.690   3.072   2.510  0.3079  0.9204 -0.8772
   11SAPS   O31 1362   3.576   3.174   2.659  0.2754  0.1609 -0.1518
   11SAPS   C31 1363   3.563   3.071   2.739 -0.1604  0.0292  0.4066
   11SAPS   O32 1364   3.602   2.961   2.709  0.2011  0.5938  0.2689
   11SAPS   C32 1365   3.514   3.121   2.878  1.2451 -0.3759 -0.1295
   11SAPS   H2X 1366   3.405   3.143   2.871  0.2319 -4.9775 -0.7570
   11SAPS   H2Y 1367   3.565   3.218   2.897  1.4798 -0.6558  0.6639
   11SAPS   C23 1368   3.111   3.171   2.684 -0.1586  0.2369 -0.3966
   11SAPS   H3R 1369   3.208   3.207   2.726 -1.7579  1.5129  2.3526
   11SAPS   H3S 1370   3.082   3.073   2.726 -1.5966  0.8053 -0.0451
   11SAPS   C24 1371   3.004   3.275   2.723  0.0741  0.5460  0.4866
   11SAPS   H4R 1372   2.999   3.267   2.834 -0.9671 -0.3887  0.3857
   11SAPS   H4S 1373   2.906   3.247   2.678  0.9798 -1.7154 -0.1379
   11SAPS   C25 1374   3.057   3.410   2.689 -0.0116 -0.1425 -0.1685
   11SAPS   H5R 1375   3.036   3.438   2.584 -3.1745  1.6593  0.8951
   11SAPS   C26 1376   3.111   3.503   2.774  1.0220  0.0707 -0.0526
   11SAPS   H6R 1377   3.152   3.588   2.719 -1.4864 -0.8608 -3.5531
   11SAPS   C27 1378   3.131   3.499   2.921  0.1482  0.0986 -0.3988
   11SAPS   H7R 1379   3.148   3.393   2.951 -0.9775 -0.1938 -0.7305
   11SAPS   H7S 1380   3.035   3.530   2.967 -1.6531 -0.7404 -3.4162
   11SAPS   C28 1381   3.234   3.602   2.978  0.3009  0.1646  0.2904
   11SAPS   H8R 1382   3.186   3.697   3.006  1.9377  0.3779  2.5363
   11SAPS   C29 1383   3.363   3.579   2.983 -1.2638  0.1705  0.6599
   11SAPS   H9R 1384   3.432   3.652   3.027 -0.6732 -0.5446  0.9173
   11SAPS  C210 1385   3.429   3.455   2.925  0.4057  0.6471  0.5881
   11SAPS  H10R 1386   3.354   3.374   2.920 -1.3084  2.2860 -1.1655
   11SAPS  H10S 1387   3.518   3.428   2.987  0.0715 -0.1408  0.7242
   11SAPS  C211 1388   3.476   3.496   2.786  0.3915 -0.8454 -0.5269
   11SAPS  H11R 1389   3.393   3.544   2.733  0.0656  0.2537  0.9117
   11SAPS  C212 1390   3.605   3.487   2.747 -0.3090  0.1036 -0.0763
   11SAPS  H12R 1391   3.625   3.494   2.639  2.3864  0.0930  0.3720
   11SAPS  C213 1392   3.721   3.442   2.835 -0.6144  0.6861  0.0868
   11SAPS  H13R 1393   3.728   3.331   2.841 -0.9409  0.6799  0.4125
   11SAPS  H13S 1394   3.714   3.470   2.942 -1.5112 -1.2609  0.5573
   11SAPS  C214 1395   3.851   3.512   2.793  0.1120 -0.1118  0.3197
   11SAPS  H14R 1396   3.846   3.587   2.714  0.2309 -0.9643 -0.5047
   11SAPS  C215 1397   3.968   3.512   2.857  0.9608  0.5931 -0.1345
   11SAPS  H15R 1398   4.063   3.552   2.817  0.3615 -0.1888 -2.4368
   11SAPS  C216 1399   3.984   3.427   2.978 -1.5021  0.3317 -0.3792
   11SAPS  H16R 1400   4.090   3.399   2.963 -0.6600  1.9888  2.1534
   11SAPS  H16S 1401   3.922   3.335   2.969 -0.6694 -0.3478  0.7715
   11SAPS  C217 1402   3.956   3.493   3.113  0.3449 -0.4236 -0.3074
   11SAPS  H17R 1403   3.865   3.556   3.124  0.5914  0.1400 -1.4147
   11SAPS  H17S 1404   4.043   3.561   3.129 -0.0007  0.3625 -1.7441
   11SAPS  C218 1405   3.960   3.409   3.240 -0.0581  0.0604 -0.6482
   11SAPS  H18R 1406   4.048   3.341   3.238 -0.3611 -0.3347 -0.4454
   11SAPS  H18S 1407   3.875   3.339   3.235 -0.7854  0.7381  1.4933
   11SAPS  C219 1408   3.945   3.483   3.371  0.1166 -0.3331  0.8912
   11SAPS  H19R 1409   3.851   3.540   3.372  0.4538  0.2330  0.1977
   11SAPS  H19S 1410   4.031   3.553   3.369  1.7236 -2.2431  0.1590
   11SAPS  C220 1411   3.953   3.404   3.502 -0.1047 -0.4871  0.2146
   11SAPS  H20R 1412   3.893   3.460   3.576  0.1709 -1.1716  0.9698
   11SAPS  H20S 1413   4.060   3.393   3.532 -0.3029 -1.3956  0.6012
   11SAPS  H20T 1414   3.904   3.305   3.488 -1.2797  0.1038  0.1639
   11SAPS   C33 1415   3.535   3.015   2.992 -0.5676 -0.4746 -0.0704
   11SAPS   H3X 1416   3.638   2.973   2.986  0.0213  0.4575  2.6923
   11SAPS   H3Y 1417   3.459   2.935   2.978 -0.4703 -0.2442 -2.1317
   11SAPS   C34 1418   3.510   3.072   3.135  0.7077  0.5092 -0.3805
   11SAPS   H4X 1419   3.579   3.155   3.158  0.6003  0.0705  1.5668
   11SAPS   H4Y 1420   3.521   2.992   3.211  0.3582 -0.2228 -1.0893
   11SAPS   C35 1421   3.366   3.124   3.146  0.2563 -0.0361  0.3407
   11SAPS   H5X 1422   3.346   3.214   3.085  1.2542  0.6741  1.0482
   11SAPS   H5Y 1423   3.359   3.170   3.247 -1.4801 -2.4585  1.3903
   11SAPS   C36 1424   3.260   3.010   3.140  0.4000 -0.0573  0.3551
   11SAPS   H6X 1425   3.303   2.914   3.177  0.7926  1.1629  3.2199
   11SAPS   H6Y 1426   3.233   2.981   3.036  0.3406 -0.1785  0.4037
   11SAPS   C37 1427   3.136   3.049   3.215  0.1373  0.0866  1.0929
   11SAPS   H7X 1428   3.160   3.059   3.323  2.1978  2.0097  0.4955
   11SAPS   H7Y 1429   3.060   2.969   3.202 -1.4189  1.1499  3.1668
   11SAPS   C38 1430   3.073   3.189   3.176 -0.4619  0.3388 -0.2608
   11SAPS   H8X 1431   3.077   3.200   3.066 -0.7921  1.8981 -0.1356
   11SAPS   H8Y 1432   3.131   3.276   3.215  1.8671 -0.4812 -1.8115
   11SAPS   C39 1433   2.924   3.198   3.208 -0.2366 -0.0021 -0.6426
   11SAPS   H9X 1434   2.900   3.122   3.286 -1.6040  0.9548 -0.1074
   11SAPS   H9Y 1435   2.863   3.163   3.122 -2.4513 -1.6249  1.5003
   11SAPS  C310 1436   2.879   3.341   3.225 -0.0201  0.4140 -0.2616
   11SAPS  H10X 1437   2.894   3.385   3.124  1.1383  0.7305  0.0452
   11SAPS  H10Y 1438   2.952   3.393   3.290  0.2257  1.3395 -1.2606
   11SAPS  C311 1439   2.732   3.354   3.268 -0.8117 -0.5513  0.6641
   11SAPS  H11X 1440   2.662   3.285   3.216 -0.4762 -1.1928  1.0635
   11SAPS  H11Y 1441   2.697   3.456   3.238 -1.8300 -1.2927 -0.7165
   11SAPS  C312 1442   2.707   3.325   3.418 -0.2981 -0.8840  0.0786
   11SAPS  H12X 1443   2.769   3.235   3.437 -0.2295 -0.8032  0.2337
   11SAPS  H12Y 1444   2.599   3.314   3.442 -0.6975  0.6109 -0.9429
   11SAPS  C313 1445   2.774   3.442   3.505 -0.0827 -0.1108 -0.7950
   11SAPS  H13X 1446   2.714   3.535   3.494  0.6306  0.3407 -0.8887
   11SAPS  H13Y 1447   2.872   3.468   3.460 -0.0695  1.9664  0.3554
   11SAPS  C314 1448   2.809   3.408   3.645  0.6170 -0.0060  0.3285
   11SAPS  H14X 1449   2.893   3.336   3.643  2.2905  1.9256 -1.6582
   11SAPS  H14Y 1450   2.712   3.376   3.688 -0.1802 -0.2867 -1.6070
   11SAPS  C315 1451   2.852   3.527   3.720 -0.5012  0.0433 -0.0109
   11SAPS  H15X 1452   2.877   3.608   3.648 -0.6153 -0.8155 -1.0237
   11SAPS  H15Y 1453   2.935   3.500   3.789 -0.3983  0.1607 -0.0911
   11SAPS  C316 1454   2.735   3.593   3.807  0.0109  0.0601  0.1075
   11SAPS  H16X 1455   2.665   3.513   3.839  1.1985 -0.4709  1.4384
   11SAPS  H16Y 1456   2.671   3.653   3.739 -0.6255 -2.0978 -1.2722
   11SAPS  C317 1457   2.788   3.655   3.930  0.0063 -0.2293  0.6280
   11SAPS  H17X 1458   2.855   3.585   3.983 -0.6663 -2.6177 -1.5422
   11SAPS  H17Y 1459   2.697   3.678   3.990 -0.3997  1.4435 -0.5898
   11SAPS  C318 1460   2.858   3.792   3.905  0.9391 -0.5012 -0.1476
   11SAPS  H18X 1461   2.798   3.852   3.834 -1.0953 -1.4411  0.7350
   11SAPS  H18Y 1462   2.960   3.784   3.862  0.0833  1.8791 -2.7241
   11SAPS  H18Z 1463   2.869   3.844   4.003  1.0981  0.0285 -0.4503
   12SAPS     N 1464   2.947   2.537   1.733  0.0862 -0.6752  0.4702
   12SAPS   HN1 1465   3.026   2.488   1.687 -0.8850 -1.2107 -0.6565
   12SAPS   HN2 1466   2.995   2.606   1.795  0.9178 -1.3362  0.5635
   12SAPS   HN3 1467   2.896   2.471   1.795 -1.0638  0.2576  0.5591
   12SAPS   C12 1468   2.851   2.597   1.637 -0.0663  0.1271  0.4844
   12SAPS  H12A 1469   2.898   2.687   1.600 -0.7531 -0.0606 -0.8712
   12SAPS   C13 1470   2.821   2.499   1.525  0.2869  0.1694 -0.2132
   12SAPS  O13A 1471   2.882   2.395   1.516  0.1884 -0.2872 -0.2498
   12SAPS  O13B 1472   2.736   2.535   1.435  0.0217 -0.0303 -0.0251
   12SAPS   C11 1473   2.724   2.633   1.717  0.0602  0.2817 -0.3576
   12SAPS  H11A 1474   2.670   2.544   1.756 -0.4658  1.0840  0.7738
   12SAPS  H11B 1475   2.652   2.666   1.639  0.2478 -0.1810 -0.7226
   12SAPS     P 1476   2.639   2.733   1.943 -0.5830  0.4310  0.2139
   12SAPS   O13 1477   2.563   2.856   1.923 -0.7993 -0.8921 -0.3819
   12SAPS   O14 1478   2.569   2.601   1.944  0.8484  0.4984 -0.6380
   12SAPS   O12 1479   2.755   2.724   1.826  0.2827  0.4088 -0.2778
   12SAPS   O11 1480   2.732   2.733   2.072 -0.1779 -0.7051  0.2495
   12SAPS    C1 1481   2.767   2.869   2.113 -0.2942 -0.1193  0.2501
   12SAPS    HA 1482   2.798   2.941   2.035 -1.5484  0.5395  0.3473
   12SAPS    HB 1483   2.683   2.914   2.170  1.0814  2.2289  0.4746
   12SAPS    C2 1484   2.890   2.863   2.210 -0.0519 -0.0175  1.0757
   12SAPS    HS 1485   2.962   2.807   2.146  0.4676 -0.1093  1.7281
   12SAPS   O21 1486   2.863   2.784   2.330  0.9621  0.2419  0.0526
   12SAPS   C21 1487   2.962   2.721   2.390 -0.2690  0.5036 -0.4884
   12SAPS   O22 1488   3.075   2.727   2.347 -0.0631  0.3662 -0.3792
   12SAPS   C22 1489   2.916   2.648   2.516  1.0132  0.4730 -0.2669
   12SAPS   H2R 1490   2.842   2.569   2.490  0.2726  0.0265  3.0586
   12SAPS   H2S 1491   2.999   2.590   2.562 -1.2363 -2.4748  0.2416
   12SAPS    C3 1492   2.954   3.004   2.235 -0.2277  0.0744  0.6481
   12SAPS    HX 1493   2.993   3.054   2.143  0.7720 -0.1745  0.9355
   12SAPS    HY 1494   3.042   2.976   2.296 -0.7287  1.0850  1.8661
   12SAPS   O31 1495   2.870   3.082   2.318 -0.1687 -0.4660 -0.5452
   12SAPS   C31 1496   2.781   3.163   2.266  0.4390  0.7394 -0.0723
   12SAPS   O32 1497   2.751   3.169   2.148  0.1135 -0.0280 -0.0888
   12SAPS   C32 1498   2.717   3.259   2.374  0.4042 -0.7211  0.1602
   12SAPS   H2X 1499   2.733   3.209   2.472 -0.4466  2.9488  2.2507
   12SAPS   H2Y 1500   2.609   3.260   2.349  0.6319 -1.0214 -0.8821
   12SAPS   C23 1501   2.856   2.738   2.632  0.3561  0.4264  0.2256
   12SAPS   H3R 1502   2.817   2.663   2.704 -1.4979 -1.3756 -2.5705
   12SAPS   H3S 1503   2.766   2.796   2.601  1.3775  0.5615 -2.6057
   12SAPS   C24 1504   2.960   2.816   2.706  0.1144  0.0042 -0.0961
   12SAPS   H4R 1505   3.032   2.872   2.643  1.0805 -1.4128 -0.2733
   12SAPS   H4S 1506   3.037   2.747   2.749 -0.0113 -0.1313 -0.0870
   12SAPS   C25 1507   2.899   2.902   2.815  0.1777 -0.7778 -0.3806
   12SAPS   H5R 1508   2.837   2.986   2.782  0.1587 -0.4297  0.5265
   12SAPS   C26 1509   2.888   2.879   2.945 -0.1053 -0.3593 -0.4433
   12SAPS   H6R 1510   2.870   2.963   3.013 -2.3240 -1.9267  0.9543
   12SAPS   C27 1511   2.934   2.760   3.024  0.0745 -0.0175  0.4161
   12SAPS   H7R 1512   2.985   2.796   3.116  0.1063  0.3527  0.2525
   12SAPS   H7S 1513   3.008   2.705   2.961 -0.3002  1.6644 -1.5357
   12SAPS   C28 1514   2.814   2.666   3.050 -0.1376  0.0939 -0.5677
   12SAPS   H8R 1515   2.765   2.633   2.957 -2.1372  0.9969  0.1309
   12SAPS   C29 1516   2.749   2.644   3.167 -0.5000 -0.4641 -0.5219
   12SAPS   H9R 1517   2.664   2.575   3.171  0.3174 -1.4312  0.6088
   12SAPS  C210 1518   2.780   2.716   3.293 -0.4063 -0.2283 -0.4414
   12SAPS  H10R 1519   2.886   2.740   3.315  0.1286 -1.2374 -1.8662
   12SAPS  H10S 1520   2.752   2.661   3.386  2.2830 -2.5306 -0.9114
   12SAPS  C211 1521   2.703   2.847   3.295  0.1136  0.4025  0.0354
   12SAPS  H11R 1522   2.669   2.886   3.197 -1.9799 -0.9231  0.2197
   12SAPS  C212 1523   2.666   2.920   3.402 -0.2422 -0.5704  0.0503
   12SAPS  H12R 1524   2.632   3.020   3.371 -0.0154 -0.7314 -0.7275
   12SAPS  C213 1525   2.681   2.887   3.553 -0.1597  0.3871 -0.0666
   12SAPS  H13R 1526   2.661   2.779   3.571 -0.0655  0.5216  0.8373
   12SAPS  H13S 1527   2.600   2.935   3.612 -0.8272 -0.8478  0.0475
   12SAPS  C214 1528   2.818   2.933   3.611  0.1901  0.0635  0.3427
   12SAPS  H14R 1529   2.909   2.903   3.557  0.0685  0.0139  0.1633
   12SAPS  C215 1530   2.845   2.985   3.732 -0.7353  0.3238  0.5928
   12SAPS  H15R 1531   2.948   2.978   3.770 -0.7019 -0.2458  0.4104
   12SAPS  C216 1532   2.745   3.009   3.840  0.1418  0.1645 -0.5470
   12SAPS  H16R 1533   2.645   2.984   3.800  0.3193 -1.8778  0.2363
   12SAPS  H16S 1534   2.756   3.114   3.873 -0.1547 -0.0139  0.1052
   12SAPS  C217 1535   2.755   2.906   3.956  0.1075  0.3946  0.6938
   12SAPS  H17R 1536   2.862   2.892   3.981  0.0101 -0.2675  0.7633
   12SAPS  H17S 1537   2.713   2.809   3.920 -0.4530  0.0149  2.3197
   12SAPS  C218 1538   2.675   2.951   4.083  0.2465  0.0252  0.3931
   12SAPS  H18R 1539   2.571   2.975   4.049  1.3293  1.3703 -2.1176
   12SAPS  H18S 1540   2.707   3.052   4.117 -0.5703  0.6553 -0.6373
   12SAPS  C219 1541   2.670   2.859   4.201 -0.1984  0.3357  0.4614
   12SAPS  H19R 1542   2.631   2.760   4.168 -1.3954  0.5346  1.2499
   12SAPS  H19S 1543   2.591   2.894   4.271 -0.4084  1.4290 -0.3113
   12SAPS  C220 1544   2.803   2.841   4.288  0.5441  0.2760  0.0563
   12SAPS  H20R 1545   2.856   2.938   4.294  0.5972  0.4268 -2.1451
   12SAPS  H20S 1546   2.861   2.762   4.235 -2.5338 -1.3541 -1.0362
   12SAPS  H20T 1547   2.775   2.797   4.386  2.5163 -4.8753 -1.5199
   12SAPS   C33 1548   2.775   3.398   2.374  0.1784  0.7590  0.4779
   12SAPS   H3X 1549   2.761   3.450   2.277  1.1344  0.4362  0.1655
   12SAPS   H3Y 1550   2.886   3.395   2.375  0.1950  0.5376  4.1416
   12SAPS   C34 1551   2.723   3.479   2.492  0.0783 -0.0755 -0.3162
   12SAPS   H4X 1552   2.740   3.423   2.587  1.7745  1.9703  0.6460
   12SAPS   H4Y 1553   2.612   3.486   2.488  0.2103  0.7645 -3.1627
   12SAPS   C35 1554   2.786   3.621   2.490 -0.0052 -0.2356 -0.0946
   12SAPS   H5X 1555   2.738   3.682   2.410  1.5990  0.5204 -0.5045
   12SAPS   H5Y 1556   2.890   3.607   2.455 -0.8663  0.2590 -2.9850
   12SAPS   C36 1557   2.772   3.683   2.626  0.0063 -0.4396  0.2929
   12SAPS   H6X 1558   2.810   3.786   2.617 -0.3954 -0.4868 -2.0887
   12SAPS   H6Y 1559   2.844   3.631   2.693 -0.1028 -2.3076 -0.9970
   12SAPS   C37 1560   2.625   3.683   2.683 -0.1439 -1.0221  0.6296
   12SAPS   H7X 1561   2.602   3.578   2.707 -1.6481 -1.2586 -1.6814
   12SAPS   H7Y 1562   2.553   3.719   2.605 -0.6651 -3.0584  0.1530
   12SAPS   C38 1563   2.614   3.771   2.805 -0.6227 -0.3631 -1.1380
   12SAPS   H8X 1564   2.507   3.792   2.824 -0.3719  0.4244 -0.5601
   12SAPS   H8Y 1565   2.663   3.869   2.789  0.8258 -0.6056  1.5323
   12SAPS   C39 1566   2.675   3.702   2.927  0.1224 -0.7225  0.5757
   12SAPS   H9X 1567   2.785   3.691   2.937  0.0770 -1.2547  0.5108
   12SAPS   H9Y 1568   2.635   3.599   2.937 -1.7746 -0.0736  0.0485
   12SAPS  C310 1569   2.637   3.771   3.063 -0.8700 -0.3665 -0.1839
   12SAPS  H10X 1570   2.539   3.734   3.101 -1.1004  0.4263  0.0054
   12SAPS  H10Y 1571   2.627   3.880   3.046  3.0560 -0.3233 -2.8710
   12SAPS  C311 1572   2.744   3.770   3.173  1.0167 -0.2432 -0.4266
   12SAPS  H11X 1573   2.835   3.826   3.142  0.6307  2.7142  3.3573
   12SAPS  H11Y 1574   2.770   3.665   3.196 -1.7384 -0.7572  0.4995
   12SAPS  C312 1575   2.675   3.839   3.298 -0.1559 -0.3687 -0.6759
   12SAPS  H12X 1576   2.593   3.780   3.345 -1.2395  1.4510 -0.2093
   12SAPS  H12Y 1577   2.634   3.939   3.271  0.1925 -0.0893 -0.1779
   12SAPS  C313 1578   2.782   3.841   3.409  0.1388 -0.5481 -0.3332
   12SAPS  H13X 1579   2.883   3.864   3.367  0.5461 -2.1707 -0.2763
   12SAPS  H13Y 1580   2.785   3.734   3.441  0.2734 -0.3085  0.4565
   12SAPS  C314 1581   2.764   3.933   3.525 -0.2050  0.2901 -0.3201
   12SAPS  H14X 1582   2.840   3.892   3.596 -1.6547 -0.1613  1.0043
   12SAPS  H14Y 1583   2.670   3.908   3.580 -0.1794  0.6782 -0.0981
   12SAPS  C315 1584   2.771   4.084   3.501  0.4131 -0.8208 -0.7001
   12SAPS  H15X 1585   2.686   4.104   3.432 -0.1939 -1.1469 -0.0680
   12SAPS  H15Y 1586   2.871   4.106   3.460  0.4668 -0.7425 -0.5290
   12SAPS  C316 1587   2.775   4.156   3.635 -0.2957 -0.1591  0.0181
   12SAPS  H16X 1588   2.866   4.127   3.692 -0.5476 -1.2963 -0.1446
   12SAPS  H16Y 1589   2.692   4.113   3.696  0.7747 -0.4689  1.2773
   12SAPS  C317 1590   2.762   4.309   3.618  0.0109  0.2639 -0.0615
   12SAPS  H17X 1591   2.853   4.334   3.559  0.4167 -0.8838  0.0747
   12SAPS  H17Y 1592   2.760   4.366   3.714 -0.4067  1.5763 -0.8275
   12SAPS  C318 1593   2.638   4.360   3.542 -0.3973 -0.4601 -1.2803
   12SAPS  H18X 1594   2.643   4.469   3.521  2.0502 -0.4777 -0.9707
   12SAPS  H18Y 1595   2.545   4.352   3.602 -0.9799 -2.9229 -2.4751
   12SAPS  H18Z 1596   2.619   4.299   3.452 -0.4733 -1.7650 -0.4025
   13SAPS     N 1597   5.093   3.317   1.927 -0.1861  0.2633 -0.1841
   13SAPS   HN1 1598   5.088   3.416   1.959 -0.3360 -0.3375  1.7136
   13SAPS   HN2 1599   5.005   3.286   1.881 -1.7892  1.5514  1.9612
   13SAPS   HN3 1600   5.125   3.254   2.003  2.5929 -0.1750 -1.6251
   13SAPS   C12 1601   5.211   3.307   1.836  0.6930  0.1261 -0.2490
   13SAPS  H12A 1602   5.299   3.351   1.881 -0.4066  1.7753  0.3543
   13SAPS   C13 1603   5.246   3.169   1.799  0.1094  0.5121 -0.2216
   13SAPS  O13A 1604   5.173   3.071   1.835 -0.2692 -0.1495  0.0830
   13SAPS  O13B 1605   5.351   3.150   1.738 -0.3953  0.4244 -0.0967
   13SAPS   C11 1606   5.173   3.396   1.709 -0.1666  0.6843  0.4968
   13SAPS  H11A 1607   5.087   3.358   1.652  1.2549  1.8600 -2.5566
   13SAPS  H11B 1608   5.268   3.391   1.651  0.6504 -2.2347  2.0068
   13SAPS     P 1609   5.229   3.643   1.774  0.3789 -0.1159 -0.2374
   13SAPS   O13 1610   5.278   3.689   1.644  0.1844 -0.0788  0.8456
   13SAPS   O14 1611   5.174   3.744   1.869  0.5416  0.4500 -0.0973
   13SAPS   O12 1612   5.129   3.528   1.745  0.3272 -0.4060  0.5728
   13SAPS   O11 1613   5.350   3.564   1.845 -0.2202  0.0374 -0.1764
   13SAPS    C1 1614   5.460   3.626   1.907  0.2794 -0.2103 -0.0162
   13SAPS    HA 1615   5.551   3.624   1.844  0.7064 -0.1933  0.5977
   13SAPS    HB 1616   5.437   3.732   1.933  2.0644  0.1604  0.1081
   13SAPS    C2 1617   5.501   3.551   2.040  0.0875 -0.3225 -0.1675
   13SAPS    HS 1618   5.587   3.605   2.086 -0.1399  0.2586 -0.4156
   13SAPS   O21 1619   5.532   3.419   2.011 -0.0476 -0.1357  0.1987
   13SAPS   C21 1620   5.613   3.354   2.091 -0.1203 -0.5777 -0.8103
   13SAPS   O22 1621   5.671   3.401   2.189 -0.3319 -0.5189 -0.3364
   13SAPS   C22 1622   5.638   3.209   2.036  0.4804 -0.5405 -0.4152
   13SAPS   H2R 1623   5.534   3.173   2.024  0.1393 -0.1556  1.3223
   13SAPS   H2S 1624   5.691   3.225   1.939 -0.2819  0.9047 -0.6055
   13SAPS    C3 1625   5.380   3.555   2.149 -0.4496 -0.4759  0.0317
   13SAPS    HX 1626   5.297   3.488   2.120 -1.4147 -0.0924  1.8427
   13SAPS    HY 1627   5.332   3.655   2.157  0.4174 -0.2453  2.8344
   13SAPS   O31 1628   5.436   3.502   2.272  0.0860  0.6010  0.0384
   13SAPS   C31 1629   5.501   3.594   2.347 -0.0443  0.2452 -0.3201
   13SAPS   O32 1630   5.530   3.708   2.307 -0.6672  0.2023  0.1613
   13SAPS   C32 1631   5.544   3.522   2.472 -0.2746 -0.2128 -0.1988
   13SAPS   H2X 1632   5.631   3.577   2.513  0.9450 -0.2470 -2.6397
   13SAPS   H2Y 1633   5.573   3.418   2.444 -1.6611 -0.5509 -0.4310
   13SAPS   C23 1634   5.710   3.117   2.137  0.4647 -0.9924  0.1152
   13SAPS   H3R 1635   5.804   3.169   2.165  0.1053  1.8693 -3.5194
   13SAPS   H3S 1636   5.736   3.024   2.081 -0.9914 -0.8290 -0.8511
   13SAPS   C24 1637   5.629   3.082   2.261  0.3392  0.4530 -1.1722
   13SAPS   H4R 1638   5.529   3.046   2.230 -0.2083  0.6737  0.3122
   13SAPS   H4S 1639   5.604   3.178   2.312  2.1645  0.1167  0.3783
   13SAPS   C25 1640   5.687   2.985   2.357 -0.6407 -0.3203  0.3608
   13SAPS   H5R 1641   5.683   2.881   2.321 -0.2164  0.3001 -1.5415
   13SAPS   C26 1642   5.730   3.007   2.478 -0.2559  0.0445 -0.2997
   13SAPS   H6R 1643   5.762   2.917   2.533 -0.9384 -0.1033 -0.1465
   13SAPS   C27 1644   5.729   3.144   2.544  0.2285  0.4464 -0.1821
   13SAPS   H7R 1645   5.626   3.165   2.578  0.4086 -1.1812  1.4697
   13SAPS   H7S 1646   5.743   3.226   2.470 -0.1602  1.8842  1.3163
   13SAPS   C28 1647   5.830   3.137   2.658  0.6358  0.3417 -0.5871
   13SAPS   H8R 1648   5.933   3.164   2.630  1.1823 -1.3779 -0.2396
   13SAPS   C29 1649   5.812   3.100   2.791  0.2005 -1.4223 -0.2197
   13SAPS   H9R 1650   5.896   3.107   2.862 -2.9619  0.8307  3.4947
   13SAPS  C210 1651   5.687   3.039   2.856 -0.7040  0.0640  0.4676
   13SAPS  H10R 1652   5.610   3.030   2.776 -1.9342  1.6682  1.4327
   13SAPS  H10S 1653   5.647   3.116   2.926  1.4062  2.1104 -0.5049
   13SAPS  C211 1654   5.705   2.912   2.922 -0.7085 -0.1599  0.0008
   13SAPS  H11R 1655   5.693   2.825   2.855  0.4173  1.2383 -2.0904
   13SAPS  C212 1656   5.716   2.903   3.052  0.0884 -0.2307  0.5667
   13SAPS  H12R 1657   5.729   2.801   3.093 -0.2980 -0.4724  0.1006
   13SAPS  C213 1658   5.723   3.013   3.147  0.1162 -0.4587  0.6730
   13SAPS  H13R 1659   5.742   3.109   3.095 -0.4818 -0.7385 -0.0687
   13SAPS  H13S 1660   5.807   2.995   3.218 -1.2520 -0.1395  2.4274
   13SAPS  C214 1661   5.591   3.022   3.232 -0.4016 -1.2861 -0.2659
   13SAPS  H14R 1662   5.506   3.059   3.173  0.2868 -1.1069 -1.1530
   13SAPS  C215 1663   5.580   2.992   3.359 -0.5362  0.4076 -0.1339
   13SAPS  H15R 1664   5.480   3.008   3.402 -0.0613  2.4966  0.2385
   13SAPS  C216 1665   5.688   2.941   3.447 -0.0230 -0.5098 -1.1748
   13SAPS  H16R 1666   5.713   3.016   3.526  1.0753 -1.5570 -0.5065
   13SAPS  H16S 1667   5.788   2.921   3.403  1.6754  0.5412  2.0216
   13SAPS  C217 1668   5.666   2.805   3.520 -0.1293  0.6559  0.0312
   13SAPS  H17R 1669   5.643   2.727   3.444 -0.6692  1.2855 -0.4465
   13SAPS  H17S 1670   5.571   2.808   3.578 -1.0586 -1.7546 -1.2908
   13SAPS  C218 1671   5.783   2.763   3.617  0.3701  0.0012 -0.1835
   13SAPS  H18R 1672   5.880   2.805   3.582  0.8148 -0.4408  0.5108
   13SAPS  H18S 1673   5.794   2.652   3.615 -0.9092 -0.1688  1.3901
   13SAPS  C219 1674   5.743   2.814   3.757 -0.5830 -0.0392  0.4946
   13SAPS  H19R 1675   5.662   2.744   3.788 -1.8260  2.1540  2.2530
   13SAPS  H19S 1676   5.698   2.915   3.758  0.1633  0.3463 -1.2044
   13SAPS  C220 1677   5.855   2.804   3.864  0.1001  0.5733 -0.7034
   13SAPS  H20R 1678   5.930   2.876   3.824  1.0694 -0.0861 -0.1075
   13SAPS  H20S 1679   5.907   2.706   3.853 -1.4218 -0.2824 -0.3269
   13SAPS  H20T 1680   5.807   2.817   3.963 -0.2045 -1.4600 -0.5610
   13SAPS   C33 1681   5.423   3.533   2.574  0.5554 -0.0085  1.3495
   13SAPS   H3X 1682   5.334   3.477   2.537  1.5502 -0.2128 -0.8127
   13SAPS   H3Y 1683   5.394   3.640   2.566  2.1090  0.5450  2.8421
   13SAPS   C34 1684   5.465   3.495   2.714 -0.4298  0.4919 -0.0870
   13SAPS   H4X 1685   5.545   3.569   2.737 -2.9476  2.9806  0.9851
   13SAPS   H4Y 1686   5.511   3.394   2.715 -0.2877  0.5525 -0.5923
   13SAPS   C35 1687   5.362   3.525   2.824 -0.0332  0.0682 -0.6993
   13SAPS   H5X 1688   5.266   3.484   2.787  0.3356 -0.8051 -0.7138
   13SAPS   H5Y 1689   5.354   3.636   2.826 -1.1305 -0.0198  1.1823
   13SAPS   C36 1690   5.386   3.471   2.966 -0.4901 -0.4817 -0.1430
   13SAPS   H6X 1691   5.440   3.534   3.040  2.6978 -1.8982 -1.1698
   13SAPS   H6Y 1692   5.441   3.375   2.954  3.3948  1.7218 -0.6374
   13SAPS   C37 1693   5.256   3.424   3.036  0.1843 -0.0486  0.5038
   13SAPS   H7X 1694   5.219   3.332   2.987 -0.7629  0.4634  0.2400
   13SAPS   H7Y 1695   5.184   3.508   3.023 -0.6022 -0.6742  0.7987
   13SAPS   C38 1696   5.273   3.390   3.192  0.2476  0.1675 -0.3560
   13SAPS   H8X 1697   5.308   3.481   3.245  0.2749  0.1418 -0.3285
   13SAPS   H8Y 1698   5.350   3.310   3.196  1.3339  1.1380 -1.4072
   13SAPS   C39 1699   5.145   3.351   3.272 -0.4083  0.3237  0.0527
   13SAPS   H9X 1700   5.130   3.249   3.229 -1.2494  0.0117  1.0781
   13SAPS   H9Y 1701   5.059   3.414   3.241  0.3207  1.3309  0.0508
   13SAPS  C310 1702   5.157   3.353   3.427 -0.1762  0.3551 -0.0968
   13SAPS  H10X 1703   5.059   3.324   3.471  0.2620 -0.8175  0.1055
   13SAPS  H10Y 1704   5.201   3.450   3.460  0.6680 -0.5090  1.3690
   13SAPS  C311 1705   5.251   3.251   3.492  0.7795 -0.3835 -0.0943
   13SAPS  H11X 1706   5.333   3.218   3.426  0.7145 -1.4588  0.3486
   13SAPS  H11Y 1707   5.177   3.171   3.516 -1.4416  1.5880 -0.1653
   13SAPS  C312 1708   5.305   3.315   3.621  0.1616  0.2568  0.7354
   13SAPS  H12X 1709   5.224   3.335   3.695 -1.1213 -0.3281 -0.4806
   13SAPS  H12Y 1710   5.363   3.407   3.596 -1.4091  1.0331 -0.1952
   13SAPS  C313 1711   5.405   3.225   3.689 -0.7537  0.3096 -0.6371
   13SAPS  H13X 1712   5.466   3.288   3.758  3.3968 -2.5427 -1.4983
   13SAPS  H13Y 1713   5.477   3.178   3.619 -1.5196 -0.9403 -0.6005
   13SAPS  C314 1714   5.343   3.131   3.790  0.2600  0.3397  0.3263
   13SAPS  H14X 1715   5.285   3.055   3.733  2.0907 -0.9388  0.1189
   13SAPS  H14Y 1716   5.277   3.185   3.861 -0.6088 -3.3733  2.4541
   13SAPS  C315 1717   5.443   3.052   3.880  0.6081  0.4988  0.1087
   13SAPS  H15X 1718   5.519   3.129   3.906 -1.2015  2.8888 -1.3795
   13SAPS  H15Y 1719   5.494   2.977   3.817  2.5046  2.4016 -0.6964
   13SAPS  C316 1720   5.380   2.978   4.003  0.2506  0.3305 -0.2753
   13SAPS  H16X 1721   5.314   2.898   3.964  2.2910 -2.0391  0.9374
   13SAPS  H16Y 1722   5.317   3.041   4.069 -0.3114 -0.8100  0.2852
   13SAPS  C317 1723   5.478   2.905   4.089  0.3094 -0.2562  0.6248
   13SAPS  H17X 1724   5.544   2.976   4.144  1.0718 -0.5081  0.0321
   13SAPS  H17Y 1725   5.543   2.842   4.024 -0.5791 -1.0007  0.4556
   13SAPS  C318 1726   5.433   2.807   4.202 -0.2134 -0.6484 -0.8538
   13SAPS  H18X 1727   5.383   2.866   4.282 -1.3824 -0.4605 -1.6966
   13SAPS  H18Y 1728   5.516   2.745   4.239  1.3671  0.4604 -2.4575
   13SAPS  H18Z 1729   5.354   2.743   4.157 -1.3190  0.6656 -0.8355
   14SAPS     N 1730   3.677   2.430   2.109 -0.1576 -0.4869 -0.4918
   14SAPS   HN1 1731   3.625   2.462   2.194 -0.4516 -0.3770 -0.7126
   14SAPS   HN2 1732   3.770   2.398   2.142 -0.9246 -2.2289  0.0525
   14SAPS   HN3 1733   3.691   2.521   2.063  2.2450  0.2648  1.5672
   14SAPS   C12 1734   3.619   2.323   2.026  0.0131 -0.1056  0.1075
   14SAPS  H12A 1735   3.573   2.249   2.091  1.5991 -1.2556 -0.0490
   14SAPS   C13 1736   3.505   2.387   1.936  0.8065 -0.3088 -0.3480
   14SAPS  O13A 1737   3.507   2.513   1.919 -0.0698 -0.1052  0.2553
   14SAPS  O13B 1738   3.439   2.314   1.852 -0.2532 -0.3721 -0.3062
   14SAPS   C11 1739   3.732   2.277   1.932 -0.4580 -0.4949  0.2575
   14SAPS  H11A 1740   3.773   2.372   1.892 -1.7214 -0.0392  0.0372
   14SAPS  H11B 1741   3.683   2.218   1.852 -0.5342  1.1028 -0.8827
   14SAPS     P 1742   3.859   2.053   1.978  0.0547  0.1208 -0.0621
   14SAPS   O13 1743   3.872   2.052   1.828 -0.2288 -0.0431 -0.5904
   14SAPS   O14 1744   3.968   2.011   2.069  0.0703 -0.4847  0.2424
   14SAPS   O12 1745   3.831   2.204   2.009 -0.3032 -0.7369 -0.2701
   14SAPS   O11 1746   3.720   1.986   2.008 -0.3975  0.3594 -0.1247
   14SAPS    C1 1747   3.716   1.853   2.071  0.4124 -0.1786  0.3616
   14SAPS    HA 1748   3.705   1.766   2.002  0.5322 -0.7064  1.0086
   14SAPS    HB 1749   3.807   1.836   2.132  0.4706  1.4175  0.7456
   14SAPS    C2 1750   3.601   1.832   2.170  0.0185 -0.1733  1.2532
   14SAPS    HS 1751   3.505   1.878   2.140  0.4755  1.8358  2.7596
   14SAPS   O21 1752   3.637   1.895   2.298  0.3060 -0.2585  0.0121
   14SAPS   C21 1753   3.600   2.024   2.312  0.6169 -0.4620  0.3809
   14SAPS   O22 1754   3.528   2.084   2.236  0.2690  0.3552  0.1602
   14SAPS   C22 1755   3.656   2.081   2.437  0.2074 -0.4954 -0.7523
   14SAPS   H2R 1756   3.712   2.004   2.494 -0.7509 -1.7262 -1.4578
   14SAPS   H2S 1757   3.731   2.150   2.392 -2.2534  1.1160 -2.5264
   14SAPS    C3 1758   3.565   1.686   2.196 -0.0455 -0.4363 -0.5610
   14SAPS    HX 1759   3.653   1.620   2.181  0.3181 -0.4582  1.5461
   14SAPS    HY 1760   3.489   1.658   2.120 -1.1736 -1.2149  0.8236
   14SAPS   O31 1761   3.499   1.661   2.326 -0.0068  0.2398 -0.4982
   14SAPS   C31 1762   3.585   1.630   2.429  0.0981  0.5470 -0.3274
   14SAPS   O32 1763   3.706   1.610   2.411 -0.1049  0.1090 -0.3232
   14SAPS   C32 1764   3.489   1.599   2.547  0.4308  0.3499  0.7165
   14SAPS   H2X 1765   3.495   1.491   2.569  1.4545  0.1130 -0.6513
   14SAPS   H2Y 1766   3.390   1.633   2.511  0.0532  0.1260  1.5359
   14SAPS   C23 1767   3.555   2.158   2.527  0.1042 -0.3554  0.0062
   14SAPS   H3R 1768   3.482   2.082   2.563 -0.8749 -0.6650 -2.5442
   14SAPS   H3S 1769   3.501   2.235   2.469  0.1322  0.8248  1.5244
   14SAPS   C24 1770   3.624   2.239   2.641 -0.3122  0.2924 -0.3962
   14SAPS   H4R 1771   3.553   2.318   2.673 -1.1481 -0.3702 -0.6144
   14SAPS   H4S 1772   3.712   2.297   2.604  0.6736 -0.8289  0.1517
   14SAPS   C25 1773   3.658   2.139   2.750  0.1193  0.0944  0.1454
   14SAPS   H5R 1774   3.736   2.066   2.724  0.1173  0.1391  0.0131
   14SAPS   C26 1775   3.593   2.127   2.870  0.6993 -1.2901 -0.5643
   14SAPS   H6R 1776   3.610   2.037   2.932 -0.7962 -0.2766  1.3659
   14SAPS   C27 1777   3.484   2.218   2.906  0.6237 -0.9874 -0.3161
   14SAPS   H7R 1778   3.415   2.214   2.820 -0.9551  0.6049  0.8357
   14SAPS   H7S 1779   3.521   2.323   2.912 -5.1831  1.3424 -2.0869
   14SAPS   C28 1780   3.407   2.189   3.031 -0.0317  0.4609  0.8865
   14SAPS   H8R 1781   3.403   2.277   3.097  0.1407  1.0884  0.0750
   14SAPS   C29 1782   3.325   2.085   3.046 -0.0492 -0.4345 -0.4732
   14SAPS   H9R 1783   3.284   2.063   3.146 -0.9889 -1.1426 -1.0019
   14SAPS  C210 1784   3.293   1.978   2.942  0.2460  0.2070  0.0708
   14SAPS  H10R 1785   3.328   1.883   2.986  0.4512  0.9738  1.6033
   14SAPS  H10S 1786   3.349   1.996   2.847 -0.4485  0.3035 -0.3251
   14SAPS  C211 1787   3.152   1.977   2.906  0.3129 -0.5957 -0.0195
   14SAPS  H11R 1788   3.112   2.054   2.839 -0.7524 -0.5779  0.6223
   14SAPS  C212 1789   3.058   1.896   2.960 -0.7401 -0.4910 -0.5162
   14SAPS  H12R 1790   2.955   1.896   2.921 -1.7485 -1.4490  2.0608
   14SAPS  C213 1791   3.090   1.783   3.057 -0.4133  0.0305 -0.2265
   14SAPS  H13R 1792   2.993   1.753   3.102 -0.2055 -0.1956  0.0765
   14SAPS  H13S 1793   3.151   1.824   3.141  0.9080  0.9716 -1.6194
   14SAPS  C214 1794   3.156   1.664   2.993  0.4014 -0.1680  0.1379
   14SAPS  H14R 1795   3.141   1.659   2.884  0.1338 -1.8066  0.2350
   14SAPS  C215 1796   3.237   1.580   3.057 -0.5251 -0.1152  0.4177
   14SAPS  H15R 1797   3.300   1.511   2.999  1.0228 -0.2016  2.1455
   14SAPS  C216 1798   3.260   1.579   3.210 -0.1623 -0.4618 -0.5952
   14SAPS  H16R 1799   3.183   1.521   3.266  0.5254  0.2020  1.0864
   14SAPS  H16S 1800   3.257   1.684   3.246 -0.5226 -0.6213 -0.1560
   14SAPS  C217 1801   3.398   1.529   3.248  0.2258 -0.7039 -0.1587
   14SAPS  H17R 1802   3.474   1.580   3.185  1.3442 -0.8254  1.0679
   14SAPS  H17S 1803   3.418   1.420   3.243  1.9366 -0.5346  2.3767
   14SAPS  C218 1804   3.423   1.561   3.402  0.1693 -0.5134 -0.2551
   14SAPS  H18R 1805   3.362   1.491   3.463 -1.4957  0.4219 -0.8222
   14SAPS  H18S 1806   3.390   1.666   3.417 -0.6699 -0.8954  0.6033
   14SAPS  C219 1807   3.569   1.537   3.439 -0.1714  0.1692 -0.2448
   14SAPS  H19R 1808   3.642   1.577   3.366 -0.0954  2.6904  1.1783
   14SAPS  H19S 1809   3.576   1.426   3.436  0.2612  0.2162 -1.3779
   14SAPS  C220 1810   3.617   1.588   3.579 -0.0655 -0.4969 -0.4379
   14SAPS  H20R 1811   3.727   1.590   3.590 -0.2626 -1.5074  1.9755
   14SAPS  H20S 1812   3.567   1.543   3.668 -1.2166 -2.6274 -2.1072
   14SAPS  H20T 1813   3.592   1.696   3.588  0.1674 -0.6193  2.0138
   14SAPS   C33 1814   3.509   1.684   2.673  0.0683  0.5509 -0.0400
   14SAPS   H3X 1815   3.419   1.680   2.738 -1.3214 -1.9159 -2.0273
   14SAPS   H3Y 1816   3.515   1.791   2.643 -1.3759  0.7699  0.4352
   14SAPS   C34 1817   3.635   1.643   2.763 -0.6006 -0.4523 -0.3666
   14SAPS   H4X 1818   3.729   1.658   2.706  0.0003 -0.0666  0.7148
   14SAPS   H4Y 1819   3.629   1.534   2.785 -0.7348 -0.4885 -0.5804
   14SAPS   C35 1820   3.641   1.724   2.890 -0.0650 -0.0051  0.0814
   14SAPS   H5X 1821   3.546   1.709   2.946 -0.5119  2.8879  0.1956
   14SAPS   H5Y 1822   3.653   1.833   2.870  1.1358 -0.2009 -0.3273
   14SAPS   C36 1823   3.750   1.683   2.982  0.0932  0.3605  0.2691
   14SAPS   H6X 1824   3.841   1.651   2.927  0.0031 -0.2164  0.4538
   14SAPS   H6Y 1825   3.723   1.589   3.034  0.0465 -0.0510 -0.4988
   14SAPS   C37 1826   3.787   1.794   3.087 -0.4512  0.1116  0.3649
   14SAPS   H7X 1827   3.810   1.886   3.030 -1.6700  0.2635  0.1045
   14SAPS   H7Y 1828   3.879   1.762   3.141  0.2493  1.7005  0.1420
   14SAPS   C38 1829   3.670   1.844   3.179  0.5596  0.1395 -0.4247
   14SAPS   H8X 1830   3.631   1.768   3.250 -0.0667  2.0020  1.2859
   14SAPS   H8Y 1831   3.578   1.874   3.124 -1.1167  0.0477  2.2239
   14SAPS   C39 1832   3.721   1.946   3.285 -0.2235 -0.1498  0.3168
   14SAPS   H9X 1833   3.735   2.040   3.227 -0.6840 -0.8239 -0.8992
   14SAPS   H9Y 1834   3.806   1.905   3.343 -0.4021  1.7273  1.9594
   14SAPS  C310 1835   3.606   1.959   3.396 -0.8166  0.5914  0.4160
   14SAPS  H10X 1836   3.599   1.867   3.457 -1.2936  1.0475  1.0495
   14SAPS  H10Y 1837   3.513   1.974   3.337  0.2076 -1.3830 -1.8107
   14SAPS  C311 1838   3.640   2.078   3.476  0.1123  0.2205  0.5204
   14SAPS  H11X 1839   3.653   2.163   3.406 -0.5401  0.5698  0.8143
   14SAPS  H11Y 1840   3.742   2.075   3.520  0.3466 -0.5523 -0.0609
   14SAPS  C312 1841   3.536   2.115   3.582 -0.0626  0.6430  1.0303
   14SAPS  H12X 1842   3.438   2.131   3.532  0.4721  0.7801  0.0220
   14SAPS  H12Y 1843   3.572   2.214   3.619 -0.5270  1.0655  0.3588
   14SAPS  C313 1844   3.508   2.022   3.699 -0.4136  0.6705 -0.3140
   14SAPS  H13X 1845   3.479   1.929   3.646 -1.2462  1.5364 -1.3915
   14SAPS  H13Y 1846   3.431   2.050   3.774 -0.3395  0.4418 -0.1511
   14SAPS  C314 1847   3.630   1.980   3.785 -0.2677  0.9150  0.4145
   14SAPS  H14X 1848   3.675   2.077   3.816  0.9093  0.4122  0.3197
   14SAPS  H14Y 1849   3.706   1.925   3.725  0.2169  0.6359  1.2625
   14SAPS  C315 1850   3.580   1.919   3.913 -0.2198  0.1804 -0.2766
   14SAPS  H15X 1851   3.504   1.841   3.891  0.0565  0.1031 -0.9728
   14SAPS  H15Y 1852   3.528   1.993   3.977  0.3068  1.0968 -0.8982
   14SAPS  C316 1853   3.700   1.870   3.995  1.4405  0.6042  0.0451
   14SAPS  H16X 1854   3.751   1.965   4.021  1.5164  0.5738  0.0098
   14SAPS  H16Y 1855   3.761   1.796   3.938  1.6099 -0.5808  1.7296
   14SAPS  C317 1856   3.655   1.793   4.122  0.3196  0.1373  0.3114
   14SAPS  H17X 1857   3.590   1.707   4.095  0.1258 -0.3575  2.2897
   14SAPS  H17Y 1858   3.585   1.861   4.175  2.6898  5.8109 -3.3770
   14SAPS  C318 1859   3.758   1.749   4.212  0.3945 -0.6440  0.4094
   14SAPS  H18X 1860   3.774   1.840   4.273 -4.1743  0.5699  0.0043
   14SAPS  H18Y 1861   3.846   1.720   4.150  0.8057  0.1103  0.6467
   14SAPS  H18Z 1862   3.743   1.671   4.290  1.4631 -2.0508 -0.7535
   15SAPS     N 1863   4.733   6.218   1.859 -0.1516 -0.7964 -0.4038
   15SAPS   HN1 1864   4.636   6.189   1.834  0.0030 -0.9601 -0.8291
   15SAPS   HN2 1865   4.726   6.307   1.911 -1.0357 -0.7382 -0.6145
   15SAPS   HN3 1866   4.772   6.251   1.768  1.6953  2.8816  1.6137
   15SAPS   C12 1867   4.833   6.125   1.928 -0.0624 -0.1580  0.4547
   15SAPS  H12A 1868   4.852   6.043   1.860  2.0113 -0.0013  0.8073
   15SAPS   C13 1869   4.969   6.196   1.943 -0.8375  0.2588 -0.4028
   15SAPS  O13A 1870   4.980   6.313   1.904 -0.3449  0.5956  0.1476
   15SAPS  O13B 1871   5.075   6.137   1.975 -0.3783  0.0604  0.0963
   15SAPS   C11 1872   4.779   6.082   2.070 -0.2767 -1.0450 -0.7869
   15SAPS  H11A 1873   4.765   6.169   2.137 -3.4587 -0.8146 -1.6721
   15SAPS  H11B 1874   4.859   6.026   2.123  1.6668  2.5802  0.2841
   15SAPS     P 1875   4.626   5.857   2.088  0.5655  0.1418 -0.2106
   15SAPS   O13 1876   4.479   5.841   2.103 -0.1874  0.2680  0.1622
   15SAPS   O14 1877   4.695   5.778   1.984  0.5576  0.9533 -0.4116
   15SAPS   O12 1878   4.651   6.008   2.063  0.1012 -0.0759 -0.3611
   15SAPS   O11 1879   4.701   5.835   2.224  0.2882 -0.3892 -0.6805
   15SAPS    C1 1880   4.662   5.881   2.355  0.1784  0.4298 -0.6124
   15SAPS    HA 1881   4.643   5.991   2.349 -2.4080 -0.0119 -1.2626
   15SAPS    HB 1882   4.562   5.839   2.378  0.6128 -0.2170  0.1113
   15SAPS    C2 1883   4.759   5.847   2.474  0.3291 -0.0522  0.1786
   15SAPS    HS 1884   4.863   5.881   2.456  0.2047  0.6373  0.7126
   15SAPS   O21 1885   4.759   5.704   2.492  1.1811  0.1235 -0.0666
   15SAPS   C21 1886   4.829   5.637   2.400 -0.5809  0.4628  0.4778
   15SAPS   O22 1887   4.904   5.687   2.318 -0.0297  0.4424  0.4561
   15SAPS   C22 1888   4.830   5.491   2.432 -0.1150  0.3448  0.1168
   15SAPS   H2R 1889   4.837   5.474   2.541  0.7795 -1.7619 -0.2351
   15SAPS   H2S 1890   4.730   5.454   2.401  0.1147 -0.2249  0.0476
   15SAPS    C3 1891   4.715   5.917   2.606  0.4869  0.0335  0.7118
   15SAPS    HX 1892   4.721   6.026   2.587  0.6934  0.1754  1.5715
   15SAPS    HY 1893   4.785   5.902   2.691 -1.4398  2.8409  2.8701
   15SAPS   O31 1894   4.579   5.878   2.640 -0.1755 -0.1709  0.0300
   15SAPS   C31 1895   4.491   5.972   2.612 -0.4565  0.4656  0.3192
   15SAPS   O32 1896   4.508   6.069   2.540  0.6413  0.3283  0.0183
   15SAPS   C32 1897   4.361   5.942   2.686  0.1560  0.2510 -0.7121
   15SAPS   H2X 1898   4.326   5.845   2.644  0.5014 -0.1063 -0.1877
   15SAPS   H2Y 1899   4.284   6.019   2.662 -0.3562  0.7302  2.3036
   15SAPS   C23 1900   4.949   5.417   2.361  0.4394 -0.8997 -0.0365
   15SAPS   H3R 1901   5.049   5.460   2.384  0.1945  0.4356 -1.3985
   15SAPS   H3S 1902   4.934   5.426   2.251  1.6714  0.7015 -0.0853
   15SAPS   C24 1903   4.967   5.272   2.409  0.7361 -1.2836  0.4681
   15SAPS   H4R 1904   4.990   5.265   2.517 -2.1544  0.3148  1.2541
   15SAPS   H4S 1905   5.051   5.224   2.355  0.0970 -2.3386  0.3822
   15SAPS   C25 1906   4.845   5.193   2.385  0.1233  0.0437 -0.3038
   15SAPS   H5R 1907   4.820   5.202   2.278 -1.1487 -0.6412 -0.0802
   15SAPS   C26 1908   4.762   5.132   2.469  0.4942  0.0213  0.5043
   15SAPS   H6R 1909   4.665   5.094   2.432  0.2245  1.5549 -0.3983
   15SAPS   C27 1910   4.772   5.123   2.621 -0.2667 -0.1373 -0.6371
   15SAPS   H7R 1911   4.685   5.172   2.668  1.2775  1.1848  0.8930
   15SAPS   H7S 1912   4.862   5.176   2.658 -1.0570 -0.5231  1.9854
   15SAPS   C28 1913   4.780   4.974   2.659  0.2189  0.0236  0.6733
   15SAPS   H8R 1914   4.774   4.889   2.590  1.2311  0.1496  0.4202
   15SAPS   C29 1915   4.814   4.951   2.793  0.1371 -0.2531 -0.1604
   15SAPS   H9R 1916   4.804   4.852   2.838 -0.9779  0.3457  0.9357
   15SAPS  C210 1917   4.829   5.061   2.899  0.4289  0.2404 -0.4449
   15SAPS  H10R 1918   4.906   5.136   2.871  0.6008 -0.5604 -2.1963
   15SAPS  H10S 1919   4.861   5.009   2.992  1.0842 -1.0954 -1.4041
   15SAPS  C211 1920   4.699   5.129   2.922  0.5402 -0.0844 -0.6690
   15SAPS  H11R 1921   4.604   5.074   2.916  0.2785  0.3509 -0.5505
   15SAPS  C212 1922   4.672   5.256   2.960 -0.6113 -0.8649 -0.2146
   15SAPS  H12R 1923   4.568   5.285   2.982 -0.6023 -0.2182 -0.9857
   15SAPS  C213 1924   4.777   5.367   2.980  0.1884 -0.2063 -0.1696
   15SAPS  H13R 1925   4.880   5.324   2.975  0.3663  0.2700 -0.6229
   15SAPS  H13S 1926   4.769   5.408   3.082  2.9936  2.4421 -0.9492
   15SAPS  C214 1927   4.771   5.464   2.867 -0.5477  0.5540 -0.5361
   15SAPS  H14R 1928   4.714   5.429   2.780  0.3070 -0.8634 -0.5462
   15SAPS  C215 1929   4.808   5.592   2.870 -0.5581  0.5038 -0.6028
   15SAPS  H15R 1930   4.789   5.654   2.780  2.1800  1.8379 -0.3135
   15SAPS  C216 1931   4.855   5.673   2.986 -0.3042 -0.1355  0.2696
   15SAPS  H16R 1932   4.953   5.722   2.966  0.2560 -1.2369  0.2178
   15SAPS  H16S 1933   4.849   5.614   3.080 -2.9886 -0.3453 -0.0066
   15SAPS  C217 1934   4.759   5.780   3.014 -0.4079 -0.6100 -0.0751
   15SAPS  H17R 1935   4.662   5.729   3.037  0.3089 -1.8154  0.3120
   15SAPS  H17S 1936   4.739   5.845   2.926  2.1451 -1.4944 -1.3570
   15SAPS  C218 1937   4.800   5.870   3.132 -0.1071 -0.4297  0.2636
   15SAPS  H18R 1938   4.720   5.943   3.155 -0.2983 -0.9672  1.3111
   15SAPS  H18S 1939   4.890   5.933   3.116 -0.3652  1.0293  4.1683
   15SAPS  C219 1940   4.822   5.792   3.259  0.3163 -0.4661  0.1069
   15SAPS  H19R 1941   4.855   5.853   3.346 -0.0009 -0.7771  0.4462
   15SAPS  H19S 1942   4.904   5.717   3.256  0.1082 -0.7555  1.2733
   15SAPS  C220 1943   4.692   5.730   3.315 -0.4478  0.2382 -0.1935
   15SAPS  H20R 1944   4.616   5.810   3.328  0.9230  1.7161 -1.1021
   15SAPS  H20S 1945   4.712   5.678   3.411  1.8925  2.1251  0.3931
   15SAPS  H20T 1946   4.635   5.661   3.250 -0.6531 -0.2277  0.4681
   15SAPS   C33 1947   4.368   5.918   2.844  1.0476 -0.3614 -0.4576
   15SAPS   H3X 1948   4.449   5.852   2.879  0.0374 -0.5736  1.5704
   15SAPS   H3Y 1949   4.281   5.853   2.867  1.0014  0.2394  1.1530
   15SAPS   C34 1950   4.383   6.044   2.929  0.2441  0.0283  0.8941
   15SAPS   H4X 1951   4.295   6.112   2.919 -0.3204 -0.0916  4.4619
   15SAPS   H4Y 1952   4.476   6.100   2.909 -0.1905  1.0996  1.7974
   15SAPS   C35 1953   4.388   6.012   3.075 -0.6741  0.0370  0.2983
   15SAPS   H5X 1954   4.485   5.961   3.090 -1.4133 -2.0968 -1.7846
   15SAPS   H5Y 1955   4.311   5.937   3.104 -1.4131 -0.0357 -1.7695
   15SAPS   C36 1956   4.366   6.124   3.172 -0.0965  0.1065  0.4589
   15SAPS   H6X 1957   4.261   6.153   3.151  0.0787 -0.3197 -1.0518
   15SAPS   H6Y 1958   4.418   6.219   3.146 -2.6775  0.9948 -1.5651
   15SAPS   C37 1959   4.400   6.095   3.319  0.5864 -0.5570 -0.0076
   15SAPS   H7X 1960   4.371   6.180   3.384 -1.9569 -0.0491 -1.7584
   15SAPS   H7Y 1961   4.511   6.097   3.317  0.5566  1.6647 -1.6327
   15SAPS   C38 1962   4.346   5.961   3.367  0.5797 -0.0809 -0.6585
   15SAPS   H8X 1963   4.376   5.880   3.296  3.3706  1.9563 -1.9120
   15SAPS   H8Y 1964   4.238   5.975   3.349  0.1532 -0.2281  1.6878
   15SAPS   C39 1965   4.377   5.909   3.512  0.0027 -0.2054  0.5242
   15SAPS   H9X 1966   4.484   5.880   3.524  0.2310  0.7758  0.8868
   15SAPS   H9Y 1967   4.310   5.821   3.523  0.6178 -0.5891  1.2499
   15SAPS  C310 1968   4.345   6.010   3.625  0.8341  0.2177 -0.6208
   15SAPS  H10X 1969   4.267   6.078   3.585  0.5809  0.3692  0.1201
   15SAPS  H10Y 1970   4.429   6.080   3.646 -0.4955  0.8508  2.9924
   15SAPS  C311 1971   4.302   5.947   3.762 -0.1561 -0.2322  0.5929
   15SAPS  H11X 1972   4.373   5.864   3.784  0.0622 -0.5905 -1.4010
   15SAPS  H11Y 1973   4.202   5.900   3.752 -0.0815 -0.0775 -0.9766
   15SAPS  C312 1974   4.295   6.063   3.863  0.5530 -0.9345 -0.1201
   15SAPS  H12X 1975   4.221   6.141   3.834  2.6512  1.2784  0.3674
   15SAPS  H12Y 1976   4.393   6.116   3.860  1.1501 -1.9156  1.6124
   15SAPS  C313 1977   4.264   6.023   4.009 -0.3949  0.1179 -0.7842
   15SAPS  H13X 1978   4.346   5.961   4.050 -0.5738  0.6716  0.4283
   15SAPS  H13Y 1979   4.180   5.950   4.020 -0.3651  0.0478 -1.0169
   15SAPS  C314 1980   4.240   6.144   4.095  0.1832 -0.6328  0.8646
   15SAPS  H14X 1981   4.151   6.206   4.071  0.7952 -0.0554  0.0797
   15SAPS  H14Y 1982   4.323   6.216   4.086 -0.9523  0.4518 -1.2672
   15SAPS  C315 1983   4.259   6.096   4.245  0.1230 -0.1679  0.6419
   15SAPS  H15X 1984   4.290   6.185   4.304  0.2271 -0.0838  0.4598
   15SAPS  H15Y 1985   4.343   6.023   4.253 -0.8053 -1.5152 -1.5122
   15SAPS  C316 1986   4.138   6.036   4.321  0.2280  0.1499 -0.5365
   15SAPS  H16X 1987   4.097   5.945   4.274 -1.1953 -1.3907  3.4552
   15SAPS  H16Y 1988   4.061   6.116   4.313  1.0555  1.4012  2.8655
   15SAPS  C317 1989   4.156   6.011   4.465  0.5795 -0.9478  0.3831
   15SAPS  H17X 1990   4.193   6.107   4.507 -1.3004 -0.2579  0.5273
   15SAPS  H17Y 1991   4.242   5.945   4.487 -1.2929 -3.3849  0.6349
   15SAPS  C318 1992   4.028   5.957   4.532  0.5624  0.6359  0.0321
   15SAPS  H18X 1993   3.940   6.006   4.485  0.4720 -0.8390 -1.3710
   15SAPS  H18Y 1994   4.025   5.985   4.639 -1.3039  0.6934 -0.0122
   15SAPS  H18Z 1995   4.010   5.847   4.529  0.6139  0.5751  1.5368
   16SAPS     N 1996   6.234   4.191   1.750 -0.7996 -0.4460  0.1322
   16SAPS   HN1 1997   6.217   4.187   1.853  0.1781  2.0622  0.4233
   16SAPS   HN2 1998   6.178   4.112   1.714  0.5361 -1.2408 -0.2210
   16SAPS   HN3 1999   6.337   4.186   1.737 -0.5595  0.0581  1.7109
   16SAPS   C12 2000   6.190   4.330   1.694  0.2822 -0.2787 -0.3821
   16SAPS  H12A 2001   6.221   4.403   1.768  1.7717  0.4787 -1.7255
   16SAPS   C13 2002   6.250   4.364   1.557  0.0524 -0.1565 -0.0975
   16SAPS  O13A 2003   6.286   4.277   1.474  0.0827 -0.2100 -0.2027
   16SAPS  O13B 2004   6.227   4.483   1.518  0.0811 -0.0832 -0.0543
   16SAPS   C11 2005   6.038   4.334   1.689 -0.5832 -0.3288 -0.7161
   16SAPS  H11A 2006   6.005   4.252   1.622 -2.2887  1.1521 -1.7287
   16SAPS  H11B 2007   5.990   4.418   1.634 -1.4540  0.3795  1.0833
   16SAPS     P 2008   5.956   4.426   1.922  0.1789  0.0053  0.0288
   16SAPS   O13 2009   6.080   4.505   1.934 -0.3509 -0.2559  0.0779
   16SAPS   O14 2010   5.837   4.505   1.881 -0.0032  0.0178 -0.1193
   16SAPS   O12 2011   5.983   4.305   1.817  0.9355 -0.3238 -0.1085
   16SAPS   O11 2012   5.930   4.351   2.054  0.3416  1.1616 -0.1539
   16SAPS    C1 2013   5.804   4.276   2.080 -0.0450  0.0124  0.2768
   16SAPS    HA 2014   5.743   4.258   1.988  0.6370  1.1939 -0.4259
   16SAPS    HB 2015   5.830   4.178   2.124  0.0435 -0.6246 -1.1555
   16SAPS    C2 2016   5.702   4.348   2.181  0.3766 -0.1303 -0.4001
   16SAPS    HS 2017   5.645   4.420   2.119 -0.0889 -1.0025 -1.0069
   16SAPS   O21 2018   5.788   4.403   2.285  0.2419 -0.5547  0.2531
   16SAPS   C21 2019   5.803   4.541   2.283  0.7847 -0.6819  0.5216
   16SAPS   O22 2020   5.741   4.616   2.207 -0.8521  0.1427  0.1838
   16SAPS   C22 2021   5.890   4.581   2.401  0.0190  0.1885  0.3881
   16SAPS   H2R 2022   5.989   4.532   2.394  0.8083  1.5927  1.3940
   16SAPS   H2S 2023   5.883   4.692   2.392 -0.9719  0.2257  1.5268
   16SAPS    C3 2024   5.599   4.251   2.250  0.1200 -0.1446  0.2814
   16SAPS    HX 2025   5.661   4.196   2.324 -1.3667 -0.0197  1.6574
   16SAPS    HY 2026   5.567   4.171   2.179 -0.1756  1.5335 -1.5177
   16SAPS   O31 2027   5.485   4.301   2.320 -0.2065 -0.4136  0.1781
   16SAPS   C31 2028   5.378   4.319   2.232  0.4324 -0.1313  0.0202
   16SAPS   O32 2029   5.376   4.278   2.116  0.1164  0.2421 -0.4334
   16SAPS   C32 2030   5.268   4.382   2.306 -0.4791 -0.1621  0.4518
   16SAPS   H2X 2031   5.227   4.307   2.377  0.4322  0.3725  1.5662
   16SAPS   H2Y 2032   5.191   4.410   2.231 -0.3274 -0.2548  0.2619
   16SAPS   C23 2033   5.822   4.546   2.542 -0.1159  0.7162  0.5173
   16SAPS   H3R 2034   5.813   4.436   2.546 -2.3783  0.7544 -2.3677
   16SAPS   H3S 2035   5.714   4.569   2.545 -0.1750  0.3031  1.6175
   16SAPS   C24 2036   5.881   4.608   2.666 -0.2240  0.3995  0.1188
   16SAPS   H4R 2037   5.807   4.630   2.745 -0.4395  0.0965  0.0033
   16SAPS   H4S 2038   5.932   4.705   2.646 -2.3491  1.3562 -0.7752
   16SAPS   C25 2039   5.989   4.509   2.716  0.1582 -0.7725  0.0603
   16SAPS   H5R 2040   6.058   4.479   2.636  0.0694 -0.2227 -0.2242
   16SAPS   C26 2041   6.019   4.467   2.834 -1.0787 -0.3001 -0.1692
   16SAPS   H6R 2042   6.090   4.383   2.833 -1.8283 -0.9403 -2.2250
   16SAPS   C27 2043   5.963   4.498   2.974  0.1278  0.3468  0.1707
   16SAPS   H7R 2044   5.878   4.430   2.997 -0.7036  0.9447 -1.1083
   16SAPS   H7S 2045   5.913   4.596   2.959  1.2450  0.8131 -0.5327
   16SAPS   C28 2046   6.067   4.511   3.089  0.2881 -1.1275 -0.1795
   16SAPS   H8R 2047   6.138   4.591   3.068  1.7122 -2.5466 -0.8343
   16SAPS   C29 2048   6.085   4.434   3.202 -0.2219 -0.3932  0.1666
   16SAPS   H9R 2049   6.169   4.463   3.268  0.5892 -0.8341 -0.6749
   16SAPS  C210 2050   6.005   4.319   3.250 -0.5745  0.0566  0.0436
   16SAPS  H10R 2051   6.068   4.237   3.291  2.4067  1.8030 -0.8645
   16SAPS  H10S 2052   5.957   4.280   3.158 -0.2627  1.1387 -0.5845
   16SAPS  C211 2053   5.900   4.364   3.352  0.5088  0.1931 -0.3872
   16SAPS  H11R 2054   5.851   4.461   3.332  0.3895  0.1871 -0.1225
   16SAPS  C212 2055   5.864   4.291   3.464  0.4269 -0.5701  0.0495
   16SAPS  H12R 2056   5.798   4.344   3.534  1.0211  0.7906 -0.3820
   16SAPS  C213 2057   5.915   4.159   3.509  0.3755 -0.1697  0.5285
   16SAPS  H13R 2058   5.857   4.137   3.601 -1.5024  2.2616 -0.0435
   16SAPS  H13S 2059   6.021   4.165   3.541  0.9012 -2.3300 -0.6846
   16SAPS  C214 2060   5.900   4.041   3.418  0.1636  0.3449 -0.3172
   16SAPS  H14R 2061   5.868   4.068   3.316  0.2443  1.4606 -0.0486
   16SAPS  C215 2062   5.912   3.914   3.450 -0.4937  0.4608  0.0106
   16SAPS  H15R 2063   5.908   3.838   3.372  2.5311  0.1185  0.1467
   16SAPS  C216 2064   5.943   3.855   3.582 -0.5746  0.2353 -0.2839
   16SAPS  H16R 2065   5.854   3.861   3.648  1.2159 -1.6115  2.3887
   16SAPS  H16S 2066   6.016   3.922   3.631 -2.3814  1.1671  1.2154
   16SAPS  C217 2067   5.975   3.706   3.562 -0.0387  0.2602 -0.3020
   16SAPS  H17R 2068   5.898   3.674   3.488 -0.8328  1.2465  0.0863
   16SAPS  H17S 2069   5.951   3.654   3.657  0.3595 -0.4914 -0.6076
   16SAPS  C218 2070   6.114   3.668   3.506  0.2164 -0.5779  0.2210
   16SAPS  H18R 2071   6.186   3.723   3.571 -0.3765 -1.2873  1.4945
   16SAPS  H18S 2072   6.130   3.715   3.407 -1.8731  1.4232  0.8013
   16SAPS  C219 2073   6.150   3.516   3.509 -0.1181 -0.3428  0.0713
   16SAPS  H19R 2074   6.068   3.453   3.470 -1.8123  3.3349 -2.5752
   16SAPS  H19S 2075   6.154   3.488   3.617  0.2850  1.5350  0.5606
   16SAPS  C220 2076   6.288   3.489   3.447  0.3604 -0.6839  1.0529
   16SAPS  H20R 2077   6.299   3.484   3.337  1.7590  0.0512  1.1432
   16SAPS  H20S 2078   6.331   3.396   3.490  1.2872 -0.2754  1.0342
   16SAPS  H20T 2079   6.358   3.572   3.471 -0.4903 -0.4259  2.7278
   16SAPS   C33 2080   5.320   4.509   2.384  0.4969  0.2007  0.3295
   16SAPS   H3X 2081   5.226   4.566   2.394 -0.0673 -0.3384 -1.7126
   16SAPS   H3Y 2082   5.390   4.575   2.327 -2.6786  0.8067 -3.0448
   16SAPS   C34 2083   5.364   4.476   2.519 -0.5225  0.7570  0.7070
   16SAPS   H4X 2084   5.465   4.431   2.507 -2.1634 -2.6194 -0.9713
   16SAPS   H4Y 2085   5.288   4.410   2.566 -0.2174 -1.0132 -1.1953
   16SAPS   C35 2086   5.399   4.593   2.607 -0.5245  0.0599 -0.1914
   16SAPS   H5X 2087   5.302   4.645   2.617 -0.8267 -0.4442 -0.5081
   16SAPS   H5Y 2088   5.468   4.664   2.558 -1.3924  1.2765  0.3320
   16SAPS   C36 2089   5.457   4.557   2.742  0.9550  0.3573 -0.4275
   16SAPS   H6X 2090   5.550   4.497   2.732 -0.1620 -2.1916  3.3247
   16SAPS   H6Y 2091   5.378   4.494   2.789  0.3901 -1.1442 -3.3383
   16SAPS   C37 2092   5.489   4.681   2.831 -0.1486 -0.0921  0.2070
   16SAPS   H7X 2093   5.406   4.754   2.823  1.2949  1.4308 -1.6138
   16SAPS   H7Y 2094   5.577   4.726   2.780  0.8012 -1.9831  0.1242
   16SAPS   C38 2095   5.518   4.643   2.980 -0.0467 -0.7175  0.0199
   16SAPS   H8X 2096   5.557   4.737   3.026  0.4883  0.0306 -1.9155
   16SAPS   H8Y 2097   5.587   4.556   2.977  1.8916  0.8394 -1.9928
   16SAPS   C39 2098   5.385   4.615   3.064 -0.4537  0.5322 -0.3598
   16SAPS   H9X 2099   5.313   4.558   3.002  1.6145 -1.4534 -1.0211
   16SAPS   H9Y 2100   5.340   4.708   3.105  0.4221  0.0293  1.8211
   16SAPS  C310 2101   5.424   4.524   3.187  0.0853 -0.3606  0.0681
   16SAPS  H10X 2102   5.505   4.564   3.251 -1.7188 -2.0751  3.5108
   16SAPS  H10Y 2103   5.461   4.430   3.142  0.6631  0.8205 -2.0357
   16SAPS  C311 2104   5.302   4.488   3.270 -0.3407 -0.4021  0.3968
   16SAPS  H11X 2105   5.229   4.444   3.199  0.3523  1.2334 -1.4053
   16SAPS  H11Y 2106   5.263   4.578   3.322 -2.4375  0.2854 -2.2638
   16SAPS  C312 2107   5.319   4.378   3.375  0.2264  0.4467  0.1369
   16SAPS  H12X 2108   5.409   4.384   3.439 -1.3332  0.5925  2.3986
   16SAPS  H12Y 2109   5.334   4.285   3.316  1.0660  1.2837 -1.0018
   16SAPS  C313 2110   5.197   4.364   3.471  0.6376 -0.0385 -0.8279
   16SAPS  H13X 2111   5.187   4.259   3.505  1.4216  0.3020  0.4874
   16SAPS  H13Y 2112   5.113   4.385   3.402  0.4302  0.4434 -0.4353
   16SAPS  C314 2113   5.202   4.457   3.591  0.2389 -0.1108 -0.8441
   16SAPS  H14X 2114   5.184   4.554   3.540 -2.6966 -1.1495 -1.8508
   16SAPS  H14Y 2115   5.306   4.462   3.629  0.0946 -0.1315 -0.4407
   16SAPS  C315 2116   5.107   4.415   3.706  0.3822 -0.0394  0.3291
   16SAPS  H15X 2117   5.168   4.346   3.769 -1.4008 -1.9734 -0.0089
   16SAPS  H15Y 2118   5.020   4.359   3.666 -0.8761  1.1641  1.3365
   16SAPS  C316 2119   5.062   4.530   3.798  0.9374 -0.8752 -0.4581
   16SAPS  H16X 2120   4.995   4.487   3.876  2.0289  0.4468  1.2303
   16SAPS  H16Y 2121   5.002   4.606   3.744 -0.4172 -1.2985  0.4035
   16SAPS  C317 2122   5.174   4.601   3.866 -0.6331  0.2978  0.0438
   16SAPS  H17X 2123   5.256   4.645   3.805  2.4655 -2.2374  2.3020
   16SAPS  H17Y 2124   5.240   4.527   3.916  0.0005  0.1116 -1.0494
   16SAPS  C318 2125   5.128   4.700   3.975 -0.5938 -0.4140 -1.1882
   16SAPS  H18X 2126   5.211   4.732   4.041 -1.5817 -0.0695 -0.1008
   16SAPS  H18Y 2127   5.036   4.662   4.023  1.0507 -0.9134  1.6835
   16SAPS  H18Z 2128   5.087   4.794   3.932 -1.4636  0.3746  1.2753
   17SAPS     N 2129   2.322   5.834   1.844  0.0409  0.1408  0.3037
   17SAPS   HN1 2130   2.377   5.919   1.820  0.7300 -0.2176  0.5881
   17SAPS   HN2 2131   2.357   5.780   1.926 -0.1995 -0.7836 -0.2014
   17SAPS   HN3 2132   2.340   5.766   1.767  0.0840  0.6224 -0.1219
   17SAPS   C12 2133   2.176   5.862   1.855 -0.2921 -0.2878 -0.1057
   17SAPS  H12A 2134   2.146   5.889   1.954  2.3092  1.6236  0.2175
   17SAPS   C13 2135   2.149   5.974   1.753 -0.7980  0.3306  0.0269
   17SAPS  O13A 2136   2.245   6.010   1.674 -0.5474  0.1703  0.1419
   17SAPS  O13B 2137   2.035   6.011   1.734 -0.2842  0.3651 -0.7568
   17SAPS   C11 2138   2.096   5.726   1.814 -0.5641 -0.3624  0.2682
   17SAPS  H11A 2139   2.116   5.717   1.705 -0.0521  2.5108  0.0740
   17SAPS  H11B 2140   1.987   5.745   1.826 -0.9474 -3.0279  1.2151
   17SAPS     P 2141   2.055   5.571   2.027 -0.1071  0.3515  0.2822
   17SAPS   O13 2142   1.915   5.578   2.008 -0.1800  0.0933 -0.5543
   17SAPS   O14 2143   2.111   5.439   2.057  0.1189 -0.0487 -0.5394
   17SAPS   O12 2144   2.128   5.611   1.894 -0.1904  0.0710 -0.0089
   17SAPS   O11 2145   2.108   5.686   2.128 -0.3560  0.0425 -0.3864
   17SAPS    C1 2146   2.223   5.654   2.205  0.4301 -0.1197 -0.0145
   17SAPS    HA 2147   2.305   5.624   2.135  0.3623 -2.1112  0.7289
   17SAPS    HB 2148   2.260   5.743   2.260 -0.5648  0.1358  0.2447
   17SAPS    C2 2149   2.191   5.560   2.325  0.1363 -0.6516 -0.6868
   17SAPS    HS 2150   2.143   5.472   2.276 -1.1113 -0.5495  0.3220
   17SAPS   O21 2151   2.102   5.632   2.413 -0.1845  0.4828  0.0105
   17SAPS   C21 2152   2.031   5.549   2.487  0.1214  0.4953  0.1426
   17SAPS   O22 2153   2.028   5.427   2.468 -0.4322  0.5170 -0.0291
   17SAPS   C22 2154   1.958   5.621   2.599 -0.3811  0.9392  0.4624
   17SAPS   H2R 2155   2.032   5.684   2.653  0.0899  0.5782  0.2284
   17SAPS   H2S 2156   1.875   5.688   2.565 -1.4553 -0.9618 -0.7584
   17SAPS    C3 2157   2.320   5.517   2.403 -0.5411  0.3692  0.4068
   17SAPS    HX 2158   2.392   5.457   2.344 -1.2560  1.3405 -1.4761
   17SAPS    HY 2159   2.281   5.450   2.483 -0.3019  1.7144  1.6636
   17SAPS   O31 2160   2.381   5.645   2.453  0.0079  0.6553  0.5268
   17SAPS   C31 2161   2.354   5.680   2.576  1.0825  0.5083 -0.7241
   17SAPS   O32 2162   2.310   5.614   2.666 -0.3454 -0.5360  0.4977
   17SAPS   C32 2163   2.332   5.829   2.574 -0.2689  1.5127 -0.1418
   17SAPS   H2X 2164   2.232   5.841   2.528  0.3571  0.7715 -1.7163
   17SAPS   H2Y 2165   2.416   5.863   2.510  0.8233 -0.4516  0.1994
   17SAPS   C23 2166   1.900   5.515   2.698  0.0406  0.8448 -0.8916
   17SAPS   H3R 2167   1.974   5.436   2.724 -2.0214 -0.5341  0.9692
   17SAPS   H3S 2168   1.821   5.457   2.646 -1.3451  2.3363 -0.4982
   17SAPS   C24 2169   1.845   5.566   2.837 -0.7413 -0.2944  0.0158
   17SAPS   H4R 2170   1.818   5.478   2.898  0.7505 -0.3420  0.6228
   17SAPS   H4S 2171   1.761   5.634   2.810 -0.0180 -0.0528 -1.6688
   17SAPS   C25 2172   1.956   5.638   2.910 -0.4309 -0.1300  0.2983
   17SAPS   H5R 2173   1.976   5.734   2.859  2.4062 -1.3617 -1.0382
   17SAPS   C26 2174   1.999   5.623   3.039  0.6436  0.3282 -0.4962
   17SAPS   H6R 2175   2.065   5.701   3.081  0.1626 -0.3647  1.5885
   17SAPS   C27 2176   1.935   5.528   3.138  0.2222  0.4619  0.1979
   17SAPS   H7R 2177   1.830   5.517   3.102  1.1288 -1.5818 -1.9519
   17SAPS   H7S 2178   1.923   5.566   3.242  1.6054 -0.1400  0.5823
   17SAPS   C28 2179   2.009   5.390   3.148  0.4836  0.2429 -0.8030
   17SAPS   H8R 2180   2.012   5.334   3.053 -1.1118  0.9169 -1.2558
   17SAPS   C29 2181   2.085   5.348   3.254  0.1603 -0.8410  0.0995
   17SAPS   H9R 2182   2.135   5.251   3.239 -0.1744 -1.6510  3.6671
   17SAPS  C210 2183   2.094   5.421   3.386  0.0789  1.0316  1.1648
   17SAPS  H10R 2184   2.056   5.525   3.380 -2.2771  0.1342  0.2856
   17SAPS  H10S 2185   2.202   5.417   3.413  0.3241  2.7871  0.5265
   17SAPS  C211 2186   2.017   5.353   3.498 -0.5528 -0.2558 -0.2149
   17SAPS  H11R 2187   1.995   5.251   3.465 -2.5773 -0.2450  0.9933
   17SAPS  C212 2188   1.966   5.399   3.614 -0.3469 -0.1504  0.1273
   17SAPS  H12R 2189   1.915   5.329   3.681  0.7480 -1.2230 -0.1479
   17SAPS  C213 2190   1.974   5.545   3.665 -0.4915 -0.6560  0.3616
   17SAPS  H13R 2191   2.082   5.568   3.651 -0.2503 -0.8005  1.9338
   17SAPS  H13S 2192   1.964   5.551   3.775 -0.5964  0.4015  0.3042
   17SAPS  C214 2193   1.880   5.642   3.597 -0.0418 -0.8030 -0.3430
   17SAPS  H14R 2194   1.833   5.605   3.505  1.5916 -0.8355 -1.1989
   17SAPS  C215 2195   1.895   5.777   3.619  1.2533  0.2061 -0.2650
   17SAPS  H15R 2196   1.827   5.849   3.571 -1.7213 -2.1132  0.3360
   17SAPS  C216 2197   1.984   5.842   3.725 -0.1815 -0.2398  0.3103
   17SAPS  H16R 2198   2.072   5.902   3.693  1.3813 -2.1741  0.8493
   17SAPS  H16S 2199   2.027   5.764   3.792  0.8864 -1.2236 -1.4832
   17SAPS  C217 2200   1.903   5.928   3.826 -0.0366  0.1003  0.3532
   17SAPS  H17R 2201   1.845   6.004   3.770  2.0542  1.1032 -0.5030
   17SAPS  H17S 2202   1.973   5.974   3.899  0.5178  1.6371 -1.1228
   17SAPS  C218 2203   1.816   5.838   3.918  0.2357 -0.3771  0.7373
   17SAPS  H18R 2204   1.884   5.769   3.973  0.1814  0.0699  1.3568
   17SAPS  H18S 2205   1.762   5.764   3.855  0.2652 -1.2739  1.7599
   17SAPS  C219 2206   1.710   5.911   4.006 -0.1152 -0.5232  0.2682
   17SAPS  H19R 2207   1.638   5.956   3.935 -1.5524 -0.3450  1.8302
   17SAPS  H19S 2208   1.747   5.995   4.068  1.3055  0.3810 -1.7707
   17SAPS  C220 2209   1.628   5.818   4.098  0.0637 -0.0329 -0.8163
   17SAPS  H20R 2210   1.689   5.764   4.173 -1.7580 -2.1032 -0.7512
   17SAPS  H20S 2211   1.571   5.743   4.038  1.0142 -0.7500 -0.8372
   17SAPS  H20T 2212   1.558   5.887   4.150  1.4661  0.8495 -0.1012
   17SAPS   C33 2213   2.334   5.888   2.716  0.1081 -0.1714  0.1865
   17SAPS   H3X 2214   2.344   5.997   2.694  1.5182 -0.7849 -2.5137
   17SAPS   H3Y 2215   2.415   5.861   2.787 -2.3725 -2.5172  2.2103
   17SAPS   C34 2216   2.205   5.866   2.788  0.4934 -0.4546  0.2111
   17SAPS   H4X 2217   2.186   5.763   2.826 -2.3169 -0.5525 -1.3039
   17SAPS   H4Y 2218   2.129   5.899   2.714  0.8383  4.9804  2.0127
   17SAPS   C35 2219   2.195   5.972   2.899 -0.3807  0.0603 -0.3581
   17SAPS   H5X 2220   2.088   5.982   2.926 -0.2655 -1.4847  0.6910
   17SAPS   H5Y 2221   2.223   6.076   2.871  1.0789  0.3880  2.1998
   17SAPS   C36 2222   2.273   5.927   3.030  0.4720  0.1065  0.3521
   17SAPS   H6X 2223   2.381   5.942   3.007  0.1278  1.5668 -0.3649
   17SAPS   H6Y 2224   2.263   5.817   3.038 -1.0709  0.2026 -0.0102
   17SAPS   C37 2225   2.236   5.992   3.167  0.3071  0.2515 -0.3179
   17SAPS   H7X 2226   2.217   6.099   3.142 -0.4649  0.2464  0.2049
   17SAPS   H7Y 2227   2.313   5.977   3.246  0.2339  1.2018 -0.0576
   17SAPS   C38 2228   2.113   5.919   3.231  0.3516 -0.1559 -0.1207
   17SAPS   H8X 2229   2.149   5.816   3.254  0.0720 -0.4287 -0.9048
   17SAPS   H8Y 2230   2.037   5.908   3.151  1.3404 -0.4539 -1.0353
   17SAPS   C39 2231   2.042   5.980   3.350  0.2664 -0.4625  0.3257
   17SAPS   H9X 2232   2.110   5.980   3.438  1.7681  2.0977 -0.8128
   17SAPS   H9Y 2233   1.946   5.927   3.373 -0.1103  0.3976  0.7412
   17SAPS  C310 2234   2.018   6.129   3.322  0.6578  0.6653 -0.0298
   17SAPS  H10X 2235   1.950   6.140   3.236  2.0265  1.8120 -0.9971
   17SAPS  H10Y 2236   2.117   6.178   3.313 -0.4280  3.1160  0.8930
   17SAPS  C311 2237   1.943   6.192   3.444  0.2480 -0.1942 -0.0421
   17SAPS  H11X 2238   1.951   6.300   3.416  0.9441 -0.0158  0.8235
   17SAPS  H11Y 2239   2.003   6.182   3.537 -1.5300  2.3252  1.4720
   17SAPS  C312 2240   1.795   6.151   3.473 -0.1118  0.3314 -0.4653
   17SAPS  H12X 2241   1.797   6.051   3.523  1.9035 -0.6762 -2.4637
   17SAPS  H12Y 2242   1.734   6.149   3.381  1.0233 -1.1606 -1.2179
   17SAPS  C313 2243   1.736   6.247   3.575 -0.4182 -0.8637  0.0484
   17SAPS  H13X 2244   1.737   6.350   3.532 -0.1041  1.5210  5.4620
   17SAPS  H13Y 2245   1.814   6.245   3.653  1.7016 -1.9508 -2.0155
   17SAPS  C314 2246   1.601   6.208   3.608  0.5386 -0.7940 -0.8071
   17SAPS  H14X 2247   1.591   6.124   3.680 -1.1814 -0.4038 -0.5586
   17SAPS  H14Y 2248   1.532   6.185   3.524  0.6729 -0.5639 -0.9818
   17SAPS  C315 2249   1.520   6.319   3.686 -1.2973  0.2153 -1.0015
   17SAPS  H15X 2250   1.542   6.422   3.650  0.9151  0.4362  0.8682
   17SAPS  H15Y 2251   1.553   6.318   3.792 -2.0186 -0.3493 -0.7743
   17SAPS  C316 2252   1.370   6.291   3.680  0.1648 -0.4608 -0.2946
   17SAPS  H16X 2253   1.358   6.185   3.712  0.3195 -0.1866  0.6775
   17SAPS  H16Y 2254   1.349   6.293   3.571  0.9829  0.4320 -0.4335
   17SAPS  C317 2255   1.285   6.395   3.759 -0.6988  0.5541  0.0933
   17SAPS  H17X 2256   1.293   6.494   3.708  2.6564 -0.4916 -1.5314
   17SAPS  H17Y 2257   1.323   6.403   3.863 -1.7840  0.0107  0.5364
   17SAPS  C318 2258   1.145   6.347   3.761  0.2883 -0.0477  0.1809
   17SAPS  H18X 2259   1.135   6.251   3.815  1.6105  0.2989  1.0683
   17SAPS  H18Y 2260   1.116   6.323   3.656 -1.7973  2.6298  0.0752
   17SAPS  H18Z 2261   1.070   6.424   3.790  1.3689  1.6512 -1.4567
   18SAPS     N 2262   6.636   3.595   1.694 -0.2097  0.3142  0.2653
   18SAPS   HN1 2263   6.549   3.569   1.746  0.1922 -0.4966  0.5369
   18SAPS   HN2 2264   6.706   3.645   1.752 -0.4591  0.4846  0.4188
   18SAPS   HN3 2265   6.624   3.639   1.600  1.0298 -0.5529 -0.3086
   18SAPS   C12 2266   6.696   3.461   1.668 -0.0507  0.1824  0.3381
   18SAPS  H12A 2267   6.652   3.417   1.579  0.3285 -0.7126  0.5806
   18SAPS   C13 2268   6.852   3.468   1.652  0.2993 -0.1264 -0.1227
   18SAPS  O13A 2269   6.906   3.580   1.670 -0.2106  0.8370 -0.4189
   18SAPS  O13B 2270   6.920   3.375   1.600 -0.2726  0.0164  0.4129
   18SAPS   C11 2271   6.665   3.355   1.778  0.4126 -0.2730  0.4198
   18SAPS  H11A 2272   6.713   3.376   1.876 -0.5265  0.1109  0.8063
   18SAPS  H11B 2273   6.708   3.256   1.753  0.7070  0.4048 -1.8770
   18SAPS     P 2274   6.428   3.420   1.902  0.2161  0.2627 -0.4420
   18SAPS   O13 2275   6.423   3.563   1.870  0.2535  0.1317 -0.1704
   18SAPS   O14 2276   6.295   3.357   1.906  0.0235 -0.0981  0.2834
   18SAPS   O12 2277   6.520   3.344   1.792 -0.0874  0.0211 -0.0140
   18SAPS   O11 2278   6.504   3.389   2.032 -0.5446 -0.5098 -0.8125
   18SAPS    C1 2279   6.515   3.257   2.092 -0.1289 -0.0301  0.2288
   18SAPS    HA 2280   6.430   3.190   2.065  1.2520 -1.1367 -1.4785
   18SAPS    HB 2281   6.606   3.207   2.053 -1.4940 -1.9621 -0.5455
   18SAPS    C2 2282   6.551   3.255   2.249  0.2561  0.5248  0.5166
   18SAPS    HS 2283   6.463   3.293   2.306 -0.1860 -0.4445  0.4841
   18SAPS   O21 2284   6.664   3.340   2.266 -0.6015 -0.0954  0.3921
   18SAPS   C21 2285   6.678   3.414   2.378  0.5075  0.8512  0.6470
   18SAPS   O22 2286   6.599   3.422   2.468  0.5595  0.4660  0.0181
   18SAPS   C22 2287   6.826   3.464   2.371 -0.4181 -0.3330  0.1314
   18SAPS   H2R 2288   6.901   3.393   2.328  0.7778  1.5774 -1.0276
   18SAPS   H2S 2289   6.813   3.543   2.294 -0.3533  0.2711  0.7402
   18SAPS    C3 2290   6.581   3.114   2.287  0.3296  0.5171 -0.1057
   18SAPS    HX 2291   6.670   3.077   2.232  0.3108 -1.3124  1.0331
   18SAPS    HY 2292   6.512   3.043   2.237 -0.3908  0.6859  0.6392
   18SAPS   O31 2293   6.563   3.092   2.431  0.0824 -0.1709  0.0477
   18SAPS   C31 2294   6.684   3.074   2.490  0.6361  0.1407 -0.6140
   18SAPS   O32 2295   6.790   3.096   2.438 -0.3368 -0.2964  0.6483
   18SAPS   C32 2296   6.662   3.014   2.624 -0.3035  0.5115 -0.0113
   18SAPS   H2X 2297   6.762   2.978   2.657 -1.0703 -0.5185  1.2333
   18SAPS   H2Y 2298   6.598   2.923   2.623  1.6099 -0.8620 -0.2236
   18SAPS   C23 2299   6.878   3.537   2.493 -0.5291  0.7438 -0.0119
   18SAPS   H3R 2300   6.802   3.601   2.544 -0.2918  0.1131  1.1315
   18SAPS   H3S 2301   6.933   3.615   2.436  0.9456  0.9845  1.7202
   18SAPS   C24 2302   6.981   3.463   2.580 -0.1867 -0.0826  0.4345
   18SAPS   H4R 2303   7.037   3.535   2.644 -0.2032 -0.1536  0.5283
   18SAPS   H4S 2304   7.059   3.421   2.512  0.2109 -1.3377  1.6452
   18SAPS   C25 2305   6.910   3.359   2.662 -0.6280 -0.2915  0.7797
   18SAPS   H5R 2306   6.802   3.377   2.671 -0.0744  2.5959  2.2979
   18SAPS   C26 2307   6.958   3.233   2.682  0.4593 -0.5189  0.5146
   18SAPS   H6R 2308   6.899   3.167   2.749  0.3435  0.6942  1.6342
   18SAPS   C27 2309   7.098   3.183   2.645  0.0333 -0.6125  0.5783
   18SAPS   H7R 2310   7.170   3.261   2.678 -2.2528  1.6304  0.4197
   18SAPS   H7S 2311   7.110   3.182   2.535  2.6886 -3.0403  0.8528
   18SAPS   C28 2312   7.132   3.041   2.678  0.3942  0.0320 -0.7623
   18SAPS   H8R 2313   7.152   2.982   2.588  1.7106 -0.1638 -0.3571
   18SAPS   C29 2314   7.157   2.983   2.797 -0.3114  0.7801  0.2773
   18SAPS   H9R 2315   7.180   2.876   2.810  0.5052  1.0022  0.7413
   18SAPS  C210 2316   7.137   3.060   2.923  0.1693  0.1045  0.1483
   18SAPS  H10R 2317   7.065   3.145   2.916 -0.8371 -0.9553 -3.2025
   18SAPS  H10S 2318   7.236   3.101   2.949  0.0384  3.7104 -4.4095
   18SAPS  C211 2319   7.072   2.970   3.030  0.3222  0.1262 -0.7524
   18SAPS  H11R 2320   6.976   2.931   2.995 -0.9347  2.9950 -0.6336
   18SAPS  C212 2321   7.105   2.946   3.159 -0.2119 -0.3123 -0.8588
   18SAPS  H12R 2322   7.041   2.873   3.212 -0.4396  0.1980 -0.4327
   18SAPS  C213 2323   7.225   3.003   3.224 -0.6394 -0.1223  0.8269
   18SAPS  H13R 2324   7.206   3.089   3.292 -0.8766 -1.1538  2.0904
   18SAPS  H13S 2325   7.296   3.030   3.144 -1.5534 -0.9497 -0.2760
   18SAPS  C214 2326   7.287   2.888   3.311 -0.5000 -0.2930  0.5753
   18SAPS  H14R 2327   7.366   2.826   3.268 -0.2230 -0.5529  1.4512
   18SAPS  C215 2328   7.244   2.854   3.438  0.3434  0.0350 -0.1018
   18SAPS  H15R 2329   7.305   2.790   3.503  0.4587  0.9899  0.7519
   18SAPS  C216 2330   7.138   2.914   3.530 -0.6389 -0.4641 -0.1927
   18SAPS  H16R 2331   7.079   2.989   3.474 -0.9708  0.4924  1.3855
   18SAPS  H16S 2332   7.173   2.962   3.625 -3.1941 -1.1562  1.1450
   18SAPS  C217 2333   7.039   2.811   3.575  0.6586  0.1806 -0.0616
   18SAPS  H17R 2334   7.086   2.723   3.624 -0.8637 -0.3745  0.4331
   18SAPS  H17S 2335   6.980   2.773   3.489 -1.8516  0.3299  1.5527
   18SAPS  C218 2336   6.937   2.865   3.674 -0.2843 -0.0676  0.3890
   18SAPS  H18R 2337   6.895   2.960   3.636 -0.5666 -0.7144 -0.9892
   18SAPS  H18S 2338   6.970   2.879   3.779 -0.6182 -0.4187  0.5397
   18SAPS  C219 2339   6.816   2.763   3.692  0.1052  1.0553  0.6259
   18SAPS  H19R 2340   6.856   2.666   3.729 -0.1714  1.3087  1.5830
   18SAPS  H19S 2341   6.770   2.729   3.596  0.6249 -0.2695  0.8362
   18SAPS  C220 2342   6.708   2.812   3.791  0.0185  0.2518  0.2932
   18SAPS  H20R 2343   6.756   2.900   3.837  1.6377 -1.6516  2.3921
   18SAPS  H20S 2344   6.667   2.726   3.849 -0.1806 -0.0479 -0.2819
   18SAPS  H20T 2345   6.618   2.839   3.731 -0.8548 -1.1471  0.9439
   18SAPS   C33 2346   6.600   3.110   2.725  0.3564  0.3522 -0.7074
   18SAPS   H3X 2347   6.492   3.112   2.697  0.9514  1.6252 -3.0096
   18SAPS   H3Y 2348   6.644   3.212   2.714  0.2028  0.5823  0.7225
   18SAPS   C34 2349   6.637   3.059   2.862 -0.0074 -0.3908  0.3039
   18SAPS   H4X 2350   6.746   3.039   2.857  0.1941  0.9009 -0.6571
   18SAPS   H4Y 2351   6.581   2.966   2.883  1.3603 -0.9890  1.3738
   18SAPS   C35 2352   6.622   3.156   2.986  0.6997 -0.1453 -0.1599
   18SAPS   H5X 2353   6.513   3.174   2.976  0.6354  0.1751  0.9999
   18SAPS   H5Y 2354   6.677   3.249   2.963 -0.6200  0.5519 -0.5616
   18SAPS   C36 2355   6.669   3.095   3.121  0.6101  0.8060  0.0918
   18SAPS   H6X 2356   6.776   3.067   3.124 -0.1136 -2.1267 -0.3430
   18SAPS   H6Y 2357   6.611   3.002   3.137 -0.8021  1.3316 -1.8541
   18SAPS   C37 2358   6.654   3.196   3.233  0.3960  0.2404  0.1567
   18SAPS   H7X 2359   6.545   3.220   3.242  0.5155  1.2237 -0.9196
   18SAPS   H7Y 2360   6.706   3.293   3.218 -0.2733  0.5915  0.0871
   18SAPS   C38 2361   6.715   3.139   3.363  0.3993  0.0881  0.0624
   18SAPS   H8X 2362   6.817   3.110   3.329  0.8171  1.6285 -0.0615
   18SAPS   H8Y 2363   6.662   3.045   3.389 -1.2496  0.7468 -0.7931
   18SAPS   C39 2364   6.713   3.239   3.487 -0.8606  0.0203 -0.1020
   18SAPS   H9X 2365   6.764   3.336   3.467  0.2054 -0.1876  1.5188
   18SAPS   H9Y 2366   6.784   3.196   3.560  1.0641 -1.5912 -2.8349
   18SAPS  C310 2367   6.567   3.269   3.527  0.7983  1.0814  0.1402
   18SAPS  H10X 2368   6.520   3.168   3.530  1.6901  0.6686  0.6284
   18SAPS  H10Y 2369   6.512   3.315   3.442 -0.6232 -0.2481  0.3065
   18SAPS  C311 2370   6.558   3.343   3.655 -1.0241  0.6421 -0.3412
   18SAPS  H11X 2371   6.558   3.453   3.645 -1.2642  0.5968 -0.8351
   18SAPS  H11Y 2372   6.654   3.311   3.700 -0.5485  1.4440 -0.7941
   18SAPS  C312 2373   6.443   3.283   3.736 -0.6550  0.4764  0.2207
   18SAPS  H12X 2374   6.462   3.175   3.747  0.0441  0.6893  1.1364
   18SAPS  H12Y 2375   6.345   3.303   3.687 -1.0107  0.4526  0.9258
   18SAPS  C313 2376   6.426   3.356   3.873  0.0758 -0.0234  0.4648
   18SAPS  H13X 2377   6.524   3.402   3.899 -0.7160  1.1329  1.4735
   18SAPS  H13Y 2378   6.391   3.296   3.960  0.6325  0.2184  0.8557
   18SAPS  C314 2379   6.327   3.469   3.866 -0.4070 -0.7764 -0.3214
   18SAPS  H14X 2380   6.224   3.445   3.832 -0.0608 -1.5920 -0.8145
   18SAPS  H14Y 2381   6.360   3.528   3.778  0.8482  2.2884  2.1195
   18SAPS  C315 2382   6.302   3.549   3.996 -0.6980  0.5064 -0.1654
   18SAPS  H15X 2383   6.399   3.599   4.017 -0.9678  0.8358  0.3211
   18SAPS  H15Y 2384   6.272   3.490   4.085 -1.8622 -0.6402 -1.3059
   18SAPS  C316 2385   6.188   3.648   3.978  0.5568  0.3296  0.0835
   18SAPS  H16X 2386   6.108   3.571   3.979  0.1234  0.7627  2.2711
   18SAPS  H16Y 2387   6.199   3.722   3.896 -1.0766  0.6831  0.1650
   18SAPS  C317 2388   6.159   3.717   4.115  0.5559 -0.0834 -0.0660
   18SAPS  H17X 2389   6.164   3.637   4.192  0.1827 -0.7621 -0.7375
   18SAPS  H17Y 2390   6.058   3.762   4.118 -0.1711 -1.6539 -0.6784
   18SAPS  C318 2391   6.260   3.827   4.137 -0.4951 -0.8248  1.2988
   18SAPS  H18X 2392   6.364   3.795   4.117 -0.4395 -0.0426  0.2571
   18SAPS  H18Y 2393   6.251   3.877   4.235  2.8582 -1.2354  1.8518
   18SAPS  H18Z 2394   6.227   3.901   4.061 -1.6264 -1.5187  1.0980
   19SAPS     N 2395   2.716   0.998   1.897 -0.5124  0.1440  0.2520
   19SAPS   HN1 2396   2.792   1.049   1.848 -1.1901  2.0753  1.1630
   19SAPS   HN2 2397   2.666   1.055   1.968 -2.3875 -1.2727  0.1023
   19SAPS   HN3 2398   2.757   0.916   1.945  0.8873 -0.2763 -1.5863
   19SAPS   C12 2399   2.615   0.943   1.799 -0.1554  0.1660  0.3525
   19SAPS  H12A 2400   2.530   0.912   1.858 -0.9165 -0.4263 -1.0258
   19SAPS   C13 2401   2.570   1.051   1.696  0.4270  0.0844 -0.2757
   19SAPS  O13A 2402   2.630   1.160   1.694  0.2105 -0.7635 -0.3247
   19SAPS  O13B 2403   2.472   1.020   1.621  0.3501 -0.8707  0.1574
   19SAPS   C11 2404   2.676   0.815   1.730 -0.6034 -0.1646 -0.1539
   19SAPS  H11A 2405   2.621   0.797   1.635 -1.4070  3.5031 -0.4563
   19SAPS  H11B 2406   2.660   0.729   1.799 -0.3909  0.2490  0.4115
   19SAPS     P 2407   2.925   0.732   1.764 -0.1470  0.1150 -0.3047
   19SAPS   O13 2408   2.891   0.587   1.760 -0.3176 -0.0315 -0.5458
   19SAPS   O14 2409   3.058   0.764   1.714  0.7220  0.2221 -0.2273
   19SAPS   O12 2410   2.817   0.818   1.690 -0.4978 -0.0139 -0.4590
   19SAPS   O11 2411   2.915   0.778   1.914 -0.2009 -0.1936 -0.0635
   19SAPS    C1 2412   3.029   0.746   2.002  0.0800 -0.5158 -0.0869
   19SAPS    HA 2413   3.119   0.786   1.951  0.1908  0.5487  0.9082
   19SAPS    HB 2414   3.015   0.812   2.091 -1.0231  1.1386 -1.4596
   19SAPS    C2 2415   3.048   0.594   2.029  0.0404 -0.0797 -0.4984
   19SAPS    HS 2416   3.066   0.547   1.930  0.5910 -0.4591 -0.2198
   19SAPS   O21 2417   2.918   0.542   2.071  0.2433 -0.0479  0.4151
   19SAPS   C21 2418   2.916   0.408   2.080 -0.6089 -0.0967  0.5305
   19SAPS   O22 2419   2.990   0.332   2.012 -0.1987 -0.7881  0.0835
   19SAPS   C22 2420   2.802   0.367   2.176  0.1994 -0.8298  0.3829
   19SAPS   H2R 2421   2.771   0.454   2.238 -1.3551 -1.4675  0.5317
   19SAPS   H2S 2422   2.719   0.332   2.110 -0.3413  0.3035  0.4422
   19SAPS    C3 2423   3.160   0.552   2.129 -0.5188 -0.2003 -0.3566
   19SAPS    HX 2424   3.256   0.545   2.072 -0.5096 -3.8014 -0.0170
   19SAPS    HY 2425   3.130   0.450   2.161 -0.1803 -0.1321  0.1749
   19SAPS   O31 2426   3.175   0.635   2.247 -0.3635 -0.1115  0.3317
   19SAPS   C31 2427   3.264   0.736   2.242  0.0302  0.1789  0.5105
   19SAPS   O32 2428   3.338   0.756   2.146 -0.1176 -0.6020 -0.6726
   19SAPS   C32 2429   3.245   0.827   2.364 -0.3038  0.9543  0.0794
   19SAPS   H2X 2430   3.145   0.875   2.362  0.7114  3.0697 -2.1463
   19SAPS   H2Y 2431   3.321   0.908   2.353  1.2239 -0.3190  1.1504
   19SAPS   C23 2432   2.843   0.248   2.267 -0.0726  0.0850 -0.6497
   19SAPS   H3R 2433   2.867   0.156   2.209  2.4768  0.5631 -0.3907
   19SAPS   H3S 2434   2.746   0.216   2.309 -1.5308  4.3462 -0.5273
   19SAPS   C24 2435   2.941   0.282   2.374 -0.1969  0.6982  0.1824
   19SAPS   H4R 2436   2.908   0.375   2.426 -1.7530 -0.1059  0.6480
   19SAPS   H4S 2437   3.031   0.313   2.317  1.4332 -0.7571  1.8862
   19SAPS   C25 2438   2.964   0.165   2.468  0.3025 -0.0684  0.6324
   19SAPS   H5R 2439   3.005   0.072   2.424 -0.5545  0.0662 -0.4507
   19SAPS   C26 2440   2.953   0.168   2.599 -1.3164 -0.4150 -0.0566
   19SAPS   H6R 2441   2.960   0.076   2.658 -0.8240 -0.3270  0.0326
   19SAPS   C27 2442   2.918   0.284   2.693 -0.0783  0.0227 -0.4417
   19SAPS   H7R 2443   2.978   0.375   2.671 -1.4400  0.6985 -1.5041
   19SAPS   H7S 2444   2.942   0.250   2.796 -1.4078  0.8585  0.1658
   19SAPS   C28 2445   2.767   0.316   2.691  0.4945 -0.3061 -0.0557
   19SAPS   H8R 2446   2.733   0.316   2.587 -0.6462  0.3258  0.3148
   19SAPS   C29 2447   2.678   0.340   2.791  0.5995  0.2226 -0.0634
   19SAPS   H9R 2448   2.570   0.356   2.781  0.4417 -0.6843  0.2219
   19SAPS  C210 2449   2.713   0.367   2.934 -0.5000 -0.1947  0.1337
   19SAPS  H10R 2450   2.820   0.342   2.948 -0.3959 -0.5490 -1.2611
   19SAPS  H10S 2451   2.671   0.292   3.006  1.8003 -0.7797  0.9154
   19SAPS  C211 2452   2.672   0.502   2.993  0.3432 -0.0690 -0.0607
   19SAPS  H11R 2453   2.587   0.549   2.941 -1.2347 -1.1600  1.4734
   19SAPS  C212 2454   2.725   0.561   3.099 -0.0648 -0.0283 -0.0636
   19SAPS  H12R 2455   2.693   0.662   3.130  1.4926  0.1439  1.1006
   19SAPS  C213 2456   2.847   0.523   3.178 -0.4050 -0.4411 -0.5676
   19SAPS  H13R 2457   2.934   0.572   3.129 -0.7833  0.1129 -0.6970
   19SAPS  H13S 2458   2.859   0.413   3.167  1.2352 -0.6577  2.7778
   19SAPS  C214 2459   2.830   0.556   3.323 -0.3228  0.4444 -0.6074
   19SAPS  H14R 2460   2.883   0.646   3.357  0.7924 -0.6341  0.5662
   19SAPS  C215 2461   2.759   0.484   3.412 -0.3728  0.3935 -0.2705
   19SAPS  H15R 2462   2.752   0.513   3.518 -0.4075  2.3785 -0.8095
   19SAPS  C216 2463   2.674   0.361   3.384  0.2264 -0.0918 -0.2484
   19SAPS  H16R 2464   2.688   0.281   3.460 -0.6971  0.9502  1.0598
   19SAPS  H16S 2465   2.713   0.314   3.292  1.6061 -1.9783  1.2353
   19SAPS  C217 2466   2.528   0.382   3.359  0.0474  0.7773  0.5446
   19SAPS  H17R 2467   2.475   0.288   3.335 -1.3238  2.2297 -2.3986
   19SAPS  H17S 2468   2.516   0.445   3.268  1.3742  0.1816 -0.0584
   19SAPS  C218 2469   2.458   0.454   3.471  0.4652 -0.1771 -0.7735
   19SAPS  H18R 2470   2.477   0.562   3.484  0.9716 -0.4606  0.9446
   19SAPS  H18S 2471   2.468   0.400   3.568 -0.4546  1.8139  0.4498
   19SAPS  C219 2472   2.309   0.451   3.431  0.2947 -0.2567  0.7767
   19SAPS  H19R 2473   2.274   0.346   3.439 -0.2395 -0.0853  0.7117
   19SAPS  H19S 2474   2.302   0.492   3.327  1.7448  0.3706  0.9103
   19SAPS  C220 2475   2.226   0.539   3.524  0.3628 -1.2417 -0.3707
   19SAPS  H20R 2476   2.262   0.643   3.539  0.9606 -1.2466 -1.6479
   19SAPS  H20S 2477   2.221   0.488   3.622 -1.1291  1.6719  1.1224
   19SAPS  H20T 2478   2.124   0.539   3.480  0.8815  1.2702 -1.7192
   19SAPS   C33 2479   3.274   0.752   2.492  0.7553  0.1895 -0.3099
   19SAPS   H3X 2480   3.220   0.655   2.490  1.2081 -0.0554 -0.5046
   19SAPS   H3Y 2481   3.235   0.821   2.571 -0.8413 -1.1090  0.0709
   19SAPS   C34 2482   3.418   0.716   2.524  1.0435  0.5037  0.1825
   19SAPS   H4X 2483   3.485   0.802   2.503  1.8933  0.2784  1.8965
   19SAPS   H4Y 2484   3.439   0.638   2.447  0.4096 -1.8695  2.3529
   19SAPS   C35 2485   3.448   0.678   2.666  0.2034 -0.2954 -0.0610
   19SAPS   H5X 2486   3.455   0.765   2.735 -0.6353  0.1251 -0.5018
   19SAPS   H5Y 2487   3.537   0.612   2.680 -1.2143 -1.8820  1.7024
   19SAPS   C36 2488   3.329   0.589   2.726  0.1267  0.0504 -0.4085
   19SAPS   H6X 2489   3.319   0.498   2.663 -0.0276  0.8294 -1.4998
   19SAPS   H6Y 2490   3.235   0.648   2.733  0.0675  0.0276 -1.0102
   19SAPS   C37 2491   3.357   0.545   2.870  0.4885  0.5634 -0.9250
   19SAPS   H7X 2492   3.381   0.628   2.940 -2.5161  1.5934 -1.0261
   19SAPS   H7Y 2493   3.453   0.490   2.860  0.6087 -0.0830  3.1678
   19SAPS   C38 2494   3.242   0.458   2.926  0.3057 -0.3437 -0.9770
   19SAPS   H8X 2495   3.226   0.378   2.851 -1.0132  0.7680 -1.9253
   19SAPS   H8Y 2496   3.156   0.529   2.932  0.5826  0.0036 -1.1092
   19SAPS   C39 2497   3.284   0.396   3.056  0.3715 -0.1119  0.4016
   19SAPS   H9X 2498   3.390   0.365   3.054  0.8745  1.1650  3.6632
   19SAPS   H9Y 2499   3.239   0.295   3.060  0.7148 -0.3106 -0.7646
   19SAPS  C310 2500   3.253   0.486   3.176 -0.7199  0.9607  0.3686
   19SAPS  H10X 2501   3.146   0.472   3.206 -1.2490  2.5635 -0.7219
   19SAPS  H10Y 2502   3.256   0.593   3.145  0.6956 -0.0630 -3.2452
   19SAPS  C311 2503   3.355   0.472   3.295  0.7974 -0.7075  0.0552
   19SAPS  H11X 2504   3.459   0.491   3.261  1.4232  0.7096  2.6119
   19SAPS  H11Y 2505   3.349   0.367   3.333  1.0135 -0.0546  1.9690
   19SAPS  C312 2506   3.335   0.574   3.409 -0.2909 -0.0119  0.0416
   19SAPS  H12X 2507   3.304   0.672   3.369  0.9895 -0.7552 -2.9335
   19SAPS  H12Y 2508   3.431   0.581   3.465 -0.6703  1.8662  0.4595
   19SAPS  C313 2509   3.222   0.523   3.505 -0.2918 -0.0495 -0.2375
   19SAPS  H13X 2510   3.249   0.417   3.527 -0.5442 -0.2586 -0.9263
   19SAPS  H13Y 2511   3.132   0.520   3.440  0.0838  1.0197 -0.8124
   19SAPS  C314 2512   3.189   0.611   3.625  0.2358  0.1084 -0.2140
   19SAPS  H14X 2513   3.275   0.651   3.682 -1.1240  1.9207  0.5885
   19SAPS  H14Y 2514   3.127   0.541   3.685  2.9121 -0.1712  2.3157
   19SAPS  C315 2515   3.101   0.729   3.582 -0.1679  0.5003 -0.1039
   19SAPS  H15X 2516   3.010   0.691   3.532 -0.2554  0.8024 -0.1719
   19SAPS  H15Y 2517   3.155   0.796   3.512 -0.6584  2.4201  1.3019
   19SAPS  C316 2518   3.051   0.821   3.698  0.4561  0.4498 -0.4443
   19SAPS  H16X 2519   3.146   0.845   3.751  0.9664  1.4909 -1.7964
   19SAPS  H16Y 2520   2.994   0.757   3.768  2.1951  1.8674  2.3464
   19SAPS  C317 2521   2.969   0.938   3.648 -0.6078  0.1386  0.0830
   19SAPS  H17X 2522   2.886   0.889   3.593 -0.2318 -1.0846  0.5836
   19SAPS  H17Y 2523   3.024   1.015   3.591  1.2547  0.1347  1.8065
   19SAPS  C318 2524   2.915   1.003   3.776 -0.4669 -0.1361 -1.4452
   19SAPS  H18X 2525   2.849   0.938   3.836 -2.1174  1.7602 -1.1705
   19SAPS  H18Y 2526   2.858   1.095   3.752 -0.6021  0.5758  1.4697
   19SAPS  H18Z 2527   3.005   1.024   3.838 -0.3441  1.3834 -2.0893
   20SAPS     N 2528   4.507   1.085   1.712  0.0442 -0.1565  0.1495
   20SAPS   HN1 2529   4.509   1.081   1.608 -2.0849 -0.9747  0.1220
   20SAPS   HN2 2530   4.533   1.180   1.746  2.0584 -1.6069  2.9214
   20SAPS   HN3 2531   4.594   1.028   1.715  0.4972  0.4549 -0.9995
   20SAPS   C12 2532   4.395   1.015   1.778  0.6336 -0.3893 -0.5820
   20SAPS  H12A 2533   4.411   1.023   1.885  1.2561  0.1204 -0.7103
   20SAPS   C13 2534   4.253   1.074   1.752  0.2216  0.3649  0.7782
   20SAPS  O13A 2535   4.238   1.150   1.649 -0.2053  0.0067 -0.0934
   20SAPS  O13B 2536   4.152   1.024   1.809  0.0411  0.2985 -0.3952
   20SAPS   C11 2537   4.400   0.867   1.725 -0.5596  0.5865  0.0905
   20SAPS  H11A 2538   4.400   0.859   1.614 -0.7803 -4.1058  0.3284
   20SAPS  H11B 2539   4.311   0.818   1.770  1.0372 -0.7553  1.8849
   20SAPS     P 2540   4.532   0.730   1.904 -0.1891 -0.2835 -0.3688
   20SAPS   O13 2541   4.608   0.605   1.882 -0.5443  1.0636 -0.0786
   20SAPS   O14 2542   4.571   0.826   2.006  0.1980 -0.2017  0.1834
   20SAPS   O12 2543   4.518   0.796   1.764  0.5288 -0.1395  0.3289
   20SAPS   O11 2544   4.387   0.688   1.955 -0.5511  0.2591 -0.4965
   20SAPS    C1 2545   4.310   0.772   2.042 -0.9991 -0.2894 -0.1006
   20SAPS    HA 2546   4.364   0.788   2.138  0.2317  1.9688 -1.1356
   20SAPS    HB 2547   4.292   0.874   2.001  0.7540  0.4579  0.9455
   20SAPS    C2 2548   4.177   0.710   2.081  0.4123  0.5999 -0.4931
   20SAPS    HS 2549   4.131   0.775   2.159  0.8810  0.1100  0.1965
   20SAPS   O21 2550   4.214   0.578   2.137  0.5671  0.0614 -0.0568
   20SAPS   C21 2551   4.259   0.582   2.268 -0.6997 -0.0116  0.1460
   20SAPS   O22 2552   4.263   0.684   2.338 -0.1773 -0.0114 -0.0827
   20SAPS   C22 2553   4.304   0.442   2.316 -0.2412  0.5138  0.1602
   20SAPS   H2R 2554   4.320   0.377   2.227  1.3548  0.5997  0.3736
   20SAPS   H2S 2555   4.403   0.464   2.360 -1.1557  1.4226  1.8231
   20SAPS    C3 2556   4.061   0.696   1.973  0.6961 -0.1003  0.3501
   20SAPS    HX 2557   4.090   0.623   1.894 -2.6815 -2.2512  0.9710
   20SAPS    HY 2558   4.058   0.798   1.930 -2.4897 -0.4442 -0.3348
   20SAPS   O31 2559   3.937   0.662   2.041  0.2440  0.2502  0.8660
   20SAPS   C31 2560   3.896   0.536   2.040  0.0633 -0.1766 -0.2229
   20SAPS   O32 2561   3.960   0.445   1.988  0.6182  0.3427 -0.3311
   20SAPS   C32 2562   3.752   0.527   2.102 -0.3920  0.1789 -0.2010
   20SAPS   H2X 2563   3.737   0.418   2.116 -2.5559  0.6347  1.3410
   20SAPS   H2Y 2564   3.681   0.573   2.030 -0.3622 -2.3211 -1.9081
   20SAPS   C23 2565   4.215   0.370   2.421 -0.3556  0.3914 -0.9766
   20SAPS   H3R 2566   4.145   0.302   2.367  0.4263  0.4189 -2.0461
   20SAPS   H3S 2567   4.150   0.448   2.467 -0.8889 -0.6408  0.0381
   20SAPS   C24 2568   4.290   0.297   2.536  0.5384  0.1841 -0.2162
   20SAPS   H4R 2569   4.360   0.371   2.581 -0.7691  1.2204  0.1624
   20SAPS   H4S 2570   4.348   0.216   2.488 -0.8114  0.0461 -1.6468
   20SAPS   C25 2571   4.192   0.245   2.637  0.0217 -0.3022 -0.0875
   20SAPS   H5R 2572   4.132   0.161   2.600  0.6090 -1.9361  2.5605
   20SAPS   C26 2573   4.172   0.292   2.762 -0.2132  1.0277 -0.1822
   20SAPS   H6R 2574   4.097   0.236   2.821 -1.4174  0.4742 -2.1828
   20SAPS   C27 2575   4.248   0.398   2.835 -0.0806 -0.6217  0.1896
   20SAPS   H7R 2576   4.205   0.500   2.835 -2.7276 -1.6891 -1.7745
   20SAPS   H7S 2577   4.341   0.423   2.780 -0.1560  0.4627  0.5546
   20SAPS   C28 2578   4.292   0.350   2.978 -0.3397  0.1642  1.1258
   20SAPS   H8R 2579   4.208   0.321   3.041  0.2683 -2.8757  0.5903
   20SAPS   C29 2580   4.414   0.362   3.029 -0.3267 -0.2549 -0.0735
   20SAPS   H9R 2581   4.416   0.328   3.133 -1.8901 -1.3384 -0.3909
   20SAPS  C210 2582   4.547   0.408   2.961  0.0651  0.2583  0.1773
   20SAPS  H10R 2583   4.598   0.474   3.034 -0.9699  0.8482  0.3787
   20SAPS  H10S 2584   4.527   0.471   2.871  0.7401 -0.4268 -0.4629
   20SAPS  C211 2585   4.626   0.287   2.919  0.3997 -0.0728 -0.0513
   20SAPS  H11R 2586   4.576   0.237   2.834  0.3419 -2.0792  1.1418
   20SAPS  C212 2587   4.730   0.229   2.985 -0.4410 -0.2265 -0.2738
   20SAPS  H12R 2588   4.775   0.138   2.941 -0.4012 -0.6718  0.6802
   20SAPS  C213 2589   4.776   0.284   3.119  0.4714  0.5528  0.5286
   20SAPS  H13R 2590   4.687   0.333   3.164  1.5215  1.6444  1.4491
   20SAPS  H13S 2591   4.856   0.359   3.101  0.5382  0.1611 -0.9241
   20SAPS  C214 2592   4.823   0.184   3.218 -0.7293 -0.7357  0.1731
   20SAPS  H14R 2593   4.898   0.119   3.171  1.4305  2.4028 -0.9181
   20SAPS  C215 2594   4.806   0.175   3.345  0.0931 -0.5056  0.1329
   20SAPS  H15R 2595   4.857   0.094   3.400  2.2052 -0.2279 -1.3879
   20SAPS  C216 2596   4.726   0.269   3.432  0.0846 -0.1345  0.1825
   20SAPS  H16R 2597   4.722   0.374   3.396  1.6592 -0.4386 -0.9237
   20SAPS  H16S 2598   4.770   0.280   3.533 -1.2575  1.3231  0.6365
   20SAPS  C217 2599   4.574   0.232   3.427 -0.0847 -0.2575 -0.1617
   20SAPS  H17R 2600   4.548   0.142   3.488 -0.9986  0.7217  0.9242
   20SAPS  H17S 2601   4.542   0.212   3.323 -1.5493  1.4176 -0.0569
   20SAPS  C218 2602   4.501   0.352   3.490 -0.2451  0.4500 -0.6420
   20SAPS  H18R 2603   4.393   0.339   3.466 -0.9342  1.8585  1.5259
   20SAPS  H18S 2604   4.519   0.443   3.428  0.3426 -0.2736 -1.5441
   20SAPS  C219 2605   4.516   0.374   3.646  0.4086  0.3771 -0.1357
   20SAPS  H19R 2606   4.617   0.414   3.669 -0.4134  1.3804  1.8996
   20SAPS  H19S 2607   4.518   0.279   3.704  1.3584  0.6578  0.3038
   20SAPS  C220 2608   4.424   0.469   3.714  0.1682  0.1539 -0.2760
   20SAPS  H20R 2609   4.319   0.457   3.679 -0.0626  0.6951  0.2223
   20SAPS  H20S 2610   4.435   0.578   3.695 -0.1154  0.4828  1.3461
   20SAPS  H20T 2611   4.433   0.452   3.823  0.9386  1.3130 -0.1557
   20SAPS   C33 2612   3.739   0.581   2.251 -0.4700 -0.0672  0.3876
   20SAPS   H3X 2613   3.635   0.595   2.286 -0.2230 -0.4579  1.2752
   20SAPS   H3Y 2614   3.780   0.684   2.261 -0.7974  0.0214  0.8434
   20SAPS   C34 2615   3.802   0.498   2.354 -0.3418  0.0187 -0.5562
   20SAPS   H4X 2616   3.913   0.500   2.347 -0.2270 -0.9549  0.9385
   20SAPS   H4Y 2617   3.766   0.393   2.352  1.1183 -0.5310  1.4019
   20SAPS   C35 2618   3.779   0.565   2.490 -0.0139 -0.1835 -0.4177
   20SAPS   H5X 2619   3.670   0.564   2.512 -0.1882 -0.6231 -1.2981
   20SAPS   H5Y 2620   3.811   0.672   2.496  0.5784 -0.3971  0.3431
   20SAPS   C36 2621   3.854   0.485   2.600  0.0623 -0.4350  0.2142
   20SAPS   H6X 2622   3.920   0.554   2.656  0.3984  0.1490 -0.8830
   20SAPS   H6Y 2623   3.932   0.419   2.556 -2.1148 -1.9442 -1.5335
   20SAPS   C37 2624   3.761   0.428   2.706 -0.1966  0.2655  1.0313
   20SAPS   H7X 2625   3.693   0.348   2.668 -0.9749  2.0730 -1.6103
   20SAPS   H7Y 2626   3.701   0.502   2.763 -2.6822  0.0874 -1.1865
   20SAPS   C38 2627   3.845   0.366   2.816  0.2126  0.2288 -0.1279
   20SAPS   H8X 2628   3.914   0.447   2.850 -1.9181  1.9768  0.1736
   20SAPS   H8Y 2629   3.899   0.274   2.785 -1.6518 -0.6789 -0.7622
   20SAPS   C39 2630   3.756   0.325   2.939 -1.0586 -0.6520  0.3051
   20SAPS   H9X 2631   3.700   0.236   2.905 -0.8719 -1.0202  0.9478
   20SAPS   H9Y 2632   3.688   0.409   2.964 -0.5414 -0.2819  0.4993
   20SAPS  C310 2633   3.833   0.259   3.058 -0.4535 -0.3754  0.0292
   20SAPS  H10X 2634   3.917   0.198   3.017 -0.7426  1.0092 -2.8029
   20SAPS  H10Y 2635   3.763   0.184   3.099 -2.6977  1.2761 -0.6769
   20SAPS  C311 2636   3.885   0.354   3.173  0.9002  1.0327 -0.3514
   20SAPS  H11X 2637   3.793   0.414   3.193  0.5697  0.2943  0.3509
   20SAPS  H11Y 2638   3.960   0.425   3.132  2.0327  1.2542  2.0353
   20SAPS  C312 2639   3.944   0.291   3.294  0.8081  0.3366 -0.2839
   20SAPS  H12X 2640   4.030   0.225   3.270  1.9824  1.6811  0.1024
   20SAPS  H12Y 2641   3.867   0.228   3.343  1.3773 -1.7322 -1.9660
   20SAPS  C313 2642   4.004   0.396   3.397  0.0359  0.4184 -0.1031
   20SAPS  H13X 2643   3.924   0.470   3.421  0.4849  0.6398  0.7204
   20SAPS  H13Y 2644   4.077   0.460   3.343 -0.2199 -0.4717 -1.5490
   20SAPS  C314 2645   4.085   0.333   3.508 -0.0365  0.4981  0.1029
   20SAPS  H14X 2646   4.152   0.408   3.557  0.7557 -0.1035 -0.0520
   20SAPS  H14Y 2647   4.153   0.261   3.459 -0.6844 -0.3114  0.3911
   20SAPS  C315 2648   4.011   0.243   3.607  0.7278  0.0612 -0.5612
   20SAPS  H15X 2649   3.959   0.163   3.552 -1.3553  0.6525  0.4561
   20SAPS  H15Y 2650   3.940   0.300   3.672  0.3041 -0.5338 -0.5054
   20SAPS  C316 2651   4.109   0.181   3.708 -0.0377 -0.0638  0.3544
   20SAPS  H16X 2652   4.131   0.248   3.793 -2.2225  1.1540 -0.0063
   20SAPS  H16Y 2653   4.196   0.143   3.650 -0.4513  1.6320 -1.4339
   20SAPS  C317 2654   4.026   0.058   3.776  0.0417  0.5808 -0.0076
   20SAPS  H17X 2655   4.103  -0.007   3.823 -1.5509 -1.7894 -0.5655
   20SAPS  H17Y 2656   3.974  -0.001   3.698 -0.8963  3.1245 -1.3636
   20SAPS  C318 2657   3.917   0.106   3.880  0.0525  0.3182 -0.5142
   20SAPS  H18X 2658   3.838   0.157   3.822 -0.7051  0.0543  0.2666
   20SAPS  H18Y 2659   3.958   0.179   3.952 -0.8219  0.0236  0.3023
   20SAPS  H18Z 2660   3.873   0.018   3.932 -0.4939 -0.6575 -2.5745
   21CHL1    C3 2661   2.884   3.930   5.668 -1.0409  0.9516  0.1257
   21CHL1    H3 2662   2.883   3.821   5.648 -2.7679  1.4943 -2.9859
   21CHL1    O3 2663   2.874   3.944   5.808 -0.5194 -0.3119  0.1724
   21CHL1   H3' 2664   2.957   3.985   5.834 -0.5654  0.8514 -1.4321
   21CHL1    C4 2665   3.022   3.980   5.614 -0.2757  0.1046 -0.3421
   21CHL1   H4A 2666   3.038   4.086   5.644  1.4557 -0.1212 -0.4133
   21CHL1   H4B 2667   3.095   3.930   5.682 -0.5552  0.0953 -0.0511
   21CHL1    C5 2668   3.036   3.963   5.467  0.2153  1.0626 -0.4449
   21CHL1    C6 2669   3.135   3.906   5.408 -0.1380  0.3200  0.4155
   21CHL1    H6 2670   3.220   3.875   5.471 -0.1251  0.1599  0.3195
   21CHL1    C7 2671   3.143   3.880   5.259  0.1084  0.1445 -0.4926
   21CHL1   H7A 2672   3.247   3.895   5.222  0.2028 -0.3759 -0.4318
   21CHL1   H7B 2673   3.122   3.774   5.235 -0.3793  0.5112 -1.7043
   21CHL1    C8 2674   3.057   3.972   5.174  0.7788  1.4614  0.7265
   21CHL1    H8 2675   3.093   4.076   5.189  4.2753  0.4436 -0.0640
   21CHL1   C14 2676   3.063   3.931   5.029 -0.4480  0.5132 -0.0375
   21CHL1   H14 2677   3.020   3.828   5.031 -2.5574  1.2682 -2.8093
   21CHL1   C15 2678   3.200   3.931   4.951 -0.9999 -0.4154 -0.3175
   21CHL1  H15A 2679   3.244   4.032   4.967 -2.0020 -0.3759  2.4732
   21CHL1  H15B 2680   3.262   3.843   4.976 -0.8582  0.6592  3.4020
   21CHL1   C16 2681   3.155   3.939   4.808 -0.1390  0.1603  0.4351
   21CHL1  H16A 2682   3.213   4.020   4.759  1.2058 -0.5228  0.8696
   21CHL1  H16B 2683   3.185   3.843   4.760 -2.5466 -1.3853  1.9336
   21CHL1   C17 2684   3.005   3.950   4.800  0.0766  0.5919 -0.1637
   21CHL1   H17 2685   2.970   3.845   4.804  2.5434 -0.1885  2.6794
   21CHL1   C13 2686   2.972   4.011   4.935  0.2960  0.3000 -0.3829
   21CHL1   C18 2687   3.016   4.162   4.934 -0.9257 -0.4023 -0.0421
   21CHL1  H18A 2688   3.013   4.197   5.040 -1.8958 -1.8164  0.4144
   21CHL1  H18B 2689   3.117   4.190   4.897 -1.3052  1.8516  0.5197
   21CHL1  H18C 2690   2.939   4.226   4.884  0.9530  3.6977  2.1036
   21CHL1   C12 2691   2.822   4.000   4.977  0.4595 -0.1658 -0.8269
   21CHL1  H12A 2692   2.748   4.064   4.923  1.9147  1.1614 -1.2874
   21CHL1  H12B 2693   2.781   3.897   4.973 -3.3805  1.1997  0.6786
   21CHL1   C11 2694   2.809   4.030   5.130  0.3447  0.2280  0.9316
   21CHL1  H11A 2695   2.806   4.141   5.138 -1.5857  0.2490 -0.0312
   21CHL1  H11B 2696   2.707   4.001   5.162  0.0163  2.5005  2.0251
   21CHL1    C9 2697   2.913   3.964   5.233  0.0417 -0.8234  1.2290
   21CHL1    H9 2698   2.888   3.856   5.235  2.4678 -1.5237 -2.0319
   21CHL1   C10 2699   2.912   4.004   5.377 -0.5765  0.0670  0.8756
   21CHL1   C19 2700   2.903   4.161   5.377  0.9900 -0.0319 -0.1161
   21CHL1  H19A 2701   2.995   4.210   5.339  0.6890 -0.1442 -1.0079
   21CHL1  H19B 2702   2.813   4.193   5.320  0.9411 -0.5796 -0.3510
   21CHL1  H19C 2703   2.894   4.211   5.476 -0.0381  4.2592 -2.2543
   21CHL1    C1 2704   2.783   3.951   5.443  0.0109  0.0995  0.2643
   21CHL1   H1A 2705   2.699   3.990   5.382  0.3945 -0.0657 -0.3707
   21CHL1   H1B 2706   2.773   3.841   5.434 -1.7034  0.0387  2.3810
   21CHL1    C2 2707   2.763   3.978   5.589  0.0861 -0.5772 -0.3880
   21CHL1   H2A 2708   2.667   3.937   5.628  1.5777  0.5989  4.8952
   21CHL1   H2B 2709   2.757   4.088   5.598 -2.0167 -0.7091  0.1991
   21CHL1   C20 2710   2.959   4.014   4.666 -0.4997  0.3605 -0.4648
   21CHL1   H20 2711   3.018   4.107   4.650 -2.7835  2.2043  1.4455
   21CHL1   C21 2712   2.806   4.059   4.674 -0.2549  0.1376 -0.2226
   21CHL1  H21A 2713   2.798   4.145   4.744  0.7223 -0.8635  1.1402
   21CHL1  H21B 2714   2.729   3.986   4.705 -1.8603  1.5977 -0.6384
   21CHL1  H21C 2715   2.744   4.088   4.586 -1.4100  0.4407  0.6862
   21CHL1   C22 2716   2.982   3.922   4.546 -0.8125 -0.0574 -0.1453
   21CHL1  H22A 2717   3.090   3.896   4.538 -1.2810 -1.8681 -0.9559
   21CHL1  H22B 2718   2.929   3.828   4.572 -0.8420 -0.0261 -0.0905
   21CHL1   C23 2719   2.945   3.976   4.403 -0.2557 -0.1110  0.1796
   21CHL1  H23A 2720   2.995   3.914   4.326 -1.0678  1.4195 -1.6236
   21CHL1  H23B 2721   2.835   3.981   4.387 -0.0629 -1.6379 -1.7190
   21CHL1   C24 2722   2.989   4.118   4.381 -0.0359 -0.0140  0.0255
   21CHL1  H24A 2723   2.918   4.174   4.445  1.5442  0.5535  1.3352
   21CHL1  H24B 2724   3.088   4.140   4.427  0.5515 -0.2791 -1.0861
   21CHL1   C25 2725   2.977   4.178   4.239  0.4869 -0.7423 -0.5822
   21CHL1   H25 2726   3.059   4.130   4.181  2.3197  0.4902  0.8967
   21CHL1   C26 2727   2.843   4.161   4.161 -0.7612 -0.2043  0.0303
   21CHL1  H26A 2728   2.756   4.159   4.230 -0.2360 -0.4972  0.6935
   21CHL1  H26B 2729   2.829   4.244   4.089 -0.6097 -0.9449 -0.8645
   21CHL1  H26C 2730   2.841   4.066   4.103 -0.2019 -0.4393  0.3903
   21CHL1   C27 2731   2.999   4.328   4.263  0.2010  0.6676 -0.1088
   21CHL1  H27A 2732   3.108   4.349   4.258  0.8413 -2.3451  0.0263
   21CHL1  H27B 2733   2.953   4.385   4.179  3.3606  1.9124 -1.0801
   21CHL1  H27C 2734   2.968   4.370   4.361 -0.8509 -0.3649  0.0135
   22CHL1    C3 2735   2.850   3.387   5.696  0.4905  0.0152 -0.0659
   22CHL1    H3 2736   2.803   3.291   5.666 -0.5678  0.8181 -0.9889
   22CHL1    O3 2737   2.845   3.394   5.831  0.6976 -0.2634  0.3644
   22CHL1   H3' 2738   2.751   3.391   5.848  0.5250  0.8000 -0.3709
   22CHL1    C4 2739   3.000   3.390   5.651  0.5112 -0.2413 -0.9090
   22CHL1   H4A 2740   3.045   3.485   5.687 -0.4290 -0.0205 -0.3050
   22CHL1   H4B 2741   3.053   3.303   5.695  1.7890  1.0300  0.1196
   22CHL1    C5 2742   3.010   3.373   5.501 -0.0769 -0.0419 -1.0806
   22CHL1    C6 2743   3.071   3.271   5.442  0.8987 -0.4944  0.0831
   22CHL1    H6 2744   3.111   3.190   5.505 -2.6515  0.1757  3.3606
   22CHL1    C7 2745   3.091   3.255   5.289 -0.0569  0.2718  0.6924
   22CHL1   H7A 2746   3.196   3.222   5.282 -0.2037  0.0160 -0.3888
   22CHL1   H7B 2747   3.027   3.167   5.263 -0.5715  0.3987  1.5143
   22CHL1    C8 2748   3.056   3.384   5.215  0.5135  0.0983 -0.7757
   22CHL1    H8 2749   3.132   3.463   5.233  0.3308  0.9218 -3.3762
   22CHL1   C14 2750   3.018   3.354   5.073 -0.1383 -0.0011  0.4422
   22CHL1   H14 2751   2.931   3.285   5.081 -0.3074  0.1418 -0.1032
   22CHL1   C15 2752   3.112   3.264   4.992  0.5169 -0.1149  0.4948
   22CHL1  H15A 2753   3.222   3.280   4.997  0.7035 -1.5845  1.8887
   22CHL1  H15B 2754   3.094   3.158   5.022  0.7145 -0.4381 -0.5089
   22CHL1   C16 2755   3.068   3.287   4.844 -0.0114 -0.6253 -1.2165
   22CHL1  H16A 2756   3.165   3.321   4.802  0.9286  0.9112  2.0041
   22CHL1  H16B 2757   3.037   3.188   4.803 -1.0137 -1.1608  0.7431
   22CHL1   C17 2758   2.958   3.400   4.850 -0.6584 -0.2584 -0.1945
   22CHL1   H17 2759   2.869   3.336   4.867 -0.4068 -1.3524 -2.6938
   22CHL1   C13 2760   2.984   3.469   4.981  0.2034 -0.5488  0.5682
   22CHL1   C18 2761   3.110   3.567   4.968 -0.3896  0.0408 -0.1309
   22CHL1  H18A 2762   3.133   3.606   5.070 -0.2555 -2.0430  0.6566
   22CHL1  H18B 2763   3.195   3.507   4.931  0.3853  0.8500  0.2955
   22CHL1  H18C 2764   3.094   3.643   4.889 -2.8123  1.9513  2.0928
   22CHL1   C12 2765   2.864   3.545   5.040  0.1844  0.8221  0.5468
   22CHL1  H12A 2766   2.838   3.642   4.994  0.7895  0.9032  0.3777
   22CHL1  H12B 2767   2.774   3.480   5.027  1.0940 -0.3184 -0.2020
   22CHL1   C11 2768   2.884   3.570   5.190  0.0972  0.0459 -0.3769
   22CHL1  H11A 2769   2.964   3.647   5.193 -0.0336  0.1724 -0.0776
   22CHL1  H11B 2770   2.787   3.612   5.223  0.4941  2.7901 -2.4937
   22CHL1    C9 2771   2.929   3.447   5.270 -0.2504 -0.3829  0.1209
   22CHL1    H9 2772   2.847   3.372   5.265 -0.7737  0.2440 -0.8180
   22CHL1   C10 2773   2.935   3.477   5.419 -0.0476  0.3180 -0.7180
   22CHL1   C19 2774   3.006   3.607   5.438 -0.2479 -0.2243 -0.5498
   22CHL1  H19A 2775   2.951   3.695   5.397 -0.1208 -0.2049 -0.6775
   22CHL1  H19B 2776   3.017   3.636   5.545  1.2453  1.9208 -1.2507
   22CHL1  H19C 2777   3.102   3.598   5.384 -0.0316 -2.7286  0.1770
   22CHL1    C1 2778   2.786   3.499   5.481  0.0597 -0.3944  0.1621
   22CHL1   H1A 2779   2.737   3.596   5.460 -1.2678 -1.1637 -0.3757
   22CHL1   H1B 2780   2.727   3.412   5.445 -0.9583  0.1855  0.4050
   22CHL1    C2 2781   2.774   3.505   5.640  0.2786 -0.0686 -1.0815
   22CHL1   H2A 2782   2.664   3.504   5.659  0.4003  2.1963 -0.1787
   22CHL1   H2B 2783   2.816   3.601   5.676 -1.4388  0.2980 -0.0003
   22CHL1   C20 2784   2.939   3.475   4.719 -0.4292  0.9697 -0.3054
   22CHL1   H20 2785   3.031   3.536   4.707  0.3514 -0.0755  0.2536
   22CHL1   C21 2786   2.816   3.564   4.728  0.3521 -0.4735  0.4015
   22CHL1  H21A 2787   2.736   3.508   4.781  0.2496 -1.7111 -1.0081
   22CHL1  H21B 2788   2.790   3.589   4.623  0.0525  2.4921  1.1518
   22CHL1  H21C 2789   2.830   3.664   4.772 -3.5291 -0.7636  2.5347
   22CHL1   C22 2790   2.925   3.370   4.608 -0.5110  0.0228  0.9001
   22CHL1  H22A 2791   3.008   3.297   4.611  1.0601  1.7333  0.0609
   22CHL1  H22B 2792   2.828   3.315   4.610  0.1356 -1.1886 -0.8167
   22CHL1   C23 2793   2.947   3.433   4.464 -0.3792  0.4156 -0.1865
   22CHL1  H23A 2794   2.862   3.498   4.434 -2.2854 -1.3565  1.2137
   22CHL1  H23B 2795   3.046   3.484   4.471  0.0789 -0.5630  0.6536
   22CHL1   C24 2796   2.948   3.326   4.354 -0.7836  0.4465  0.7820
   22CHL1  H24A 2797   3.031   3.257   4.379 -0.0264  0.8420 -0.5815
   22CHL1  H24B 2798   2.852   3.270   4.362  0.1760 -1.2279  0.6846
   22CHL1   C25 2799   2.976   3.377   4.208  0.3581 -0.3784  0.1097
   22CHL1   H25 2800   2.883   3.430   4.177 -0.4859 -3.2459 -2.5292
   22CHL1   C26 2801   3.109   3.456   4.202  0.7069 -0.4106  0.6278
   22CHL1  H26A 2802   3.090   3.555   4.248 -0.3063 -0.4070  0.2278
   22CHL1  H26B 2803   3.193   3.404   4.252  1.3003  0.2594  0.3337
   22CHL1  H26C 2804   3.141   3.476   4.098 -2.7371 -0.5638 -0.5150
   22CHL1   C27 2805   2.983   3.255   4.114 -0.1272 -0.0999 -0.7008
   22CHL1  H27A 2806   3.058   3.182   4.150 -0.8086 -0.9216 -0.9296
   22CHL1  H27B 2807   2.894   3.192   4.135  0.3654 -0.9485 -1.1478
   22CHL1  H27C 2808   3.007   3.285   4.010  0.7045 -2.7326 -1.3080
   23CHL1    C3 2809   2.407   3.581   5.562 -0.7542  0.1743  0.0667
   23CHL1    H3 2810   2.471   3.497   5.527  0.7390  1.1979  0.3149
   23CHL1    O3 2811   2.409   3.598   5.699 -0.1206 -0.3144  0.5567
   23CHL1   H3' 2812   2.368   3.684   5.704 -0.4380 -0.4601  0.4320
   23CHL1    C4 2813   2.439   3.711   5.484 -0.2522 -0.6145 -0.0029
   23CHL1   H4A 2814   2.371   3.794   5.512  0.4919  0.6135 -1.7339
   23CHL1   H4B 2815   2.534   3.756   5.520 -1.0054  2.6253 -1.9212
   23CHL1    C5 2816   2.431   3.692   5.337  0.3595 -0.2291 -0.0833
   23CHL1    C6 2817   2.535   3.724   5.258  0.5317 -0.5987  0.3532
   23CHL1    H6 2818   2.614   3.787   5.301 -1.2548  1.3740  0.8128
   23CHL1    C7 2819   2.536   3.693   5.110  0.6898  0.2508  0.0846
   23CHL1   H7A 2820   2.603   3.770   5.066 -1.0514  1.8899  0.2458
   23CHL1   H7B 2821   2.591   3.598   5.087  1.4991  0.2228  1.9964
   23CHL1    C8 2822   2.398   3.680   5.054  0.2452  0.8465 -0.0424
   23CHL1    H8 2823   2.352   3.780   5.059 -0.8161  0.2259  3.9769
   23CHL1   C14 2824   2.406   3.632   4.904 -0.2419 -0.1479  0.1441
   23CHL1   H14 2825   2.453   3.531   4.897 -0.5112 -0.2053 -0.9294
   23CHL1   C15 2826   2.503   3.722   4.822  0.1622  0.0578 -0.2737
   23CHL1  H15A 2827   2.478   3.827   4.847  0.3529  0.3839 -1.4314
   23CHL1  H15B 2828   2.612   3.704   4.835  0.4616  1.0215 -1.3653
   23CHL1   C16 2829   2.463   3.676   4.677 -0.1336  0.2753 -0.3330
   23CHL1  H16A 2830   2.450   3.763   4.609  3.4343  1.4022  0.3247
   23CHL1  H16B 2831   2.536   3.603   4.635  0.2755 -0.9439  2.3693
   23CHL1   C17 2832   2.328   3.597   4.691  0.6117  0.9888  0.4051
   23CHL1   H17 2833   2.354   3.489   4.689  1.3371  1.1620 -1.5134
   23CHL1   C13 2834   2.277   3.624   4.833 -0.5019  0.1441  0.0705
   23CHL1   C18 2835   2.207   3.765   4.832 -0.0170 -0.3833 -1.1566
   23CHL1  H18A 2836   2.180   3.795   4.936  0.6578 -0.8607 -0.8435
   23CHL1  H18B 2837   2.270   3.850   4.799 -0.6383  0.3029 -0.5987
   23CHL1  H18C 2838   2.112   3.750   4.777 -0.9319  4.6364 -1.1751
   23CHL1   C12 2839   2.197   3.524   4.902  0.4148  0.1870 -0.4854
   23CHL1  H12A 2840   2.092   3.528   4.867  0.6636 -0.6862 -1.3251
   23CHL1  H12B 2841   2.246   3.425   4.891  2.0724  1.0238 -0.6932
   23CHL1   C11 2842   2.179   3.552   5.056  0.2300 -0.5268 -0.1161
   23CHL1  H11A 2843   2.108   3.637   5.059  0.3260 -0.4354 -0.3666
   23CHL1  H11B 2844   2.132   3.461   5.100 -2.4414  0.7617 -0.1635
   23CHL1    C9 2845   2.311   3.582   5.134 -0.7846 -1.0634  0.5261
   23CHL1    H9 2846   2.368   3.487   5.134  1.7136  0.3817  1.9522
   23CHL1   C10 2847   2.301   3.622   5.282 -0.7881 -0.0874  0.3125
   23CHL1   C19 2848   2.187   3.728   5.298 -0.0931  0.0672  0.3569
   23CHL1  H19A 2849   2.089   3.709   5.249  0.5150  0.2198 -0.9590
   23CHL1  H19B 2850   2.174   3.755   5.405 -1.0970 -0.5600  0.3968
   23CHL1  H19C 2851   2.211   3.823   5.246  1.7981 -0.1980  0.6754
   23CHL1    C1 2852   2.255   3.503   5.373  0.0499 -0.2377  0.0382
   23CHL1   H1A 2853   2.162   3.454   5.335 -0.0245 -0.6891  0.8011
   23CHL1   H1B 2854   2.330   3.428   5.340 -1.4568 -2.3110  1.1895
   23CHL1    C2 2855   2.270   3.520   5.526  0.5676  0.5724  0.0117
   23CHL1   H2A 2856   2.265   3.423   5.579 -1.7049  0.9139  0.4904
   23CHL1   H2B 2857   2.192   3.590   5.564  1.3779  0.1885  2.4713
   23CHL1   C20 2858   2.228   3.609   4.569  0.2660 -0.3432 -0.2566
   23CHL1   H20 2859   2.185   3.712   4.566  1.1289  0.0846  1.3323
   23CHL1   C21 2860   2.113   3.512   4.593  0.3605  0.7182  0.1047
   23CHL1  H21A 2861   2.037   3.543   4.668  1.0123 -1.3174  1.6598
   23CHL1  H21B 2862   2.151   3.413   4.627 -0.2653  0.8700  1.2795
   23CHL1  H21C 2863   2.042   3.495   4.510  1.1891 -1.3254 -0.2232
   23CHL1   C22 2864   2.290   3.573   4.434  0.3516  0.4782  0.0628
   23CHL1  H22A 2865   2.383   3.635   4.428 -0.9791  2.6044  0.6842
   23CHL1  H22B 2866   2.325   3.468   4.439 -2.0281 -0.3556 -0.2324
   23CHL1   C23 2867   2.203   3.594   4.313 -0.8078  0.3555 -0.3753
   23CHL1  H23A 2868   2.261   3.570   4.222 -1.6711 -0.7650 -0.6465
   23CHL1  H23B 2869   2.115   3.528   4.332  0.7630 -1.5454  0.4234
   23CHL1   C24 2870   2.156   3.736   4.286 -0.1933 -0.1330  0.0884
   23CHL1  H24A 2871   2.097   3.772   4.373 -1.5521 -1.7588 -0.1457
   23CHL1  H24B 2872   2.242   3.806   4.281  0.1291 -0.5584 -0.3272
   23CHL1   C25 2873   2.066   3.760   4.164 -0.1880  0.3118  0.0592
   23CHL1   H25 2874   2.123   3.732   4.072  1.8958 -0.0703  1.4520
   23CHL1   C26 2875   1.933   3.666   4.173  0.0801 -0.0088  0.1551
   23CHL1  H26A 2876   1.872   3.685   4.082  1.1884  1.1151 -0.3597
   23CHL1  H26B 2877   1.957   3.559   4.190  2.4053  0.3240 -0.8117
   23CHL1  H26C 2878   1.880   3.690   4.268  1.9004  2.1061  0.6807
   23CHL1   C27 2879   2.033   3.912   4.144  0.1647 -0.7374 -0.2873
   23CHL1  H27A 2880   2.117   3.980   4.118 -1.2230  0.4930 -1.6620
   23CHL1  H27B 2881   1.959   3.920   4.061 -0.4227 -2.7153  0.0141
   23CHL1  H27C 2882   1.993   3.950   4.240  1.1731 -0.7340  0.1287
   24CHL1    C3 2883   2.824   4.899   5.814 -0.3119 -0.2828 -1.3545
   24CHL1    H3 2884   2.742   4.968   5.786 -0.3195  0.2069 -0.1888
   24CHL1    O3 2885   2.848   4.919   5.956 -0.2426 -0.1624  0.6817
   24CHL1   H3' 2886   2.758   4.926   5.987  0.7515 -0.7916  3.8989
   24CHL1    C4 2887   2.782   4.757   5.795 -0.6196 -0.9680 -0.3532
   24CHL1   H4A 2888   2.858   4.690   5.839 -0.6318 -0.8971 -0.2226
   24CHL1   H4B 2889   2.693   4.754   5.862  0.4534  2.5301  1.3687
   24CHL1    C5 2890   2.761   4.727   5.648 -0.1302  0.1361  0.9960
   24CHL1    C6 2891   2.640   4.682   5.610  0.0658 -0.7975 -0.2031
   24CHL1    H6 2892   2.558   4.665   5.681  1.2914  0.3522  1.5265
   24CHL1    C7 2893   2.612   4.652   5.461  0.1108  0.2056 -0.3154
   24CHL1   H7A 2894   2.560   4.555   5.449 -0.4458  0.6161 -1.2488
   24CHL1   H7B 2895   2.546   4.733   5.424 -2.1758 -1.3022  0.3510
   24CHL1    C8 2896   2.739   4.631   5.375 -0.1343  0.1999 -0.5004
   24CHL1    H8 2897   2.779   4.530   5.400  0.5291  0.4231 -0.6514
   24CHL1   C14 2898   2.703   4.633   5.231 -0.2430  0.0788 -0.1159
   24CHL1   H14 2899   2.664   4.734   5.206 -0.3181 -0.2411 -1.2909
   24CHL1   C15 2900   2.593   4.543   5.184  0.0735  0.5784 -0.2526
   24CHL1  H15A 2901   2.608   4.446   5.236  0.9005  0.3063 -0.9819
   24CHL1  H15B 2902   2.493   4.580   5.216 -0.2263 -2.0960  2.1520
   24CHL1   C16 2903   2.613   4.533   5.032 -0.6549  0.2084  0.4106
   24CHL1  H16A 2904   2.637   4.426   5.019  1.5704  0.6469  0.7832
   24CHL1  H16B 2905   2.526   4.555   4.965  1.3032  2.1059 -1.6050
   24CHL1   C17 2906   2.742   4.606   4.995 -0.1885 -0.4807 -0.5317
   24CHL1   H17 2907   2.719   4.714   4.984  0.8099 -0.0349  1.3765
   24CHL1   C13 2908   2.818   4.614   5.129  0.1620  0.2559  0.0157
   24CHL1   C18 2909   2.880   4.469   5.156  0.4505  0.4811  0.2723
   24CHL1  H18A 2910   2.820   4.379   5.131  3.0470 -1.4916  0.9473
   24CHL1  H18B 2911   2.983   4.459   5.117  0.3916  1.0602 -0.0407
   24CHL1  H18C 2912   2.891   4.457   5.266  0.1025 -0.6289  0.1895
   24CHL1   C12 2913   2.917   4.731   5.155 -0.4848 -0.7303  0.7571
   24CHL1  H12A 2914   3.010   4.722   5.095 -1.1019  0.2049 -0.3701
   24CHL1  H12B 2915   2.878   4.832   5.131  1.7722 -0.2981 -1.3524
   24CHL1   C11 2916   2.960   4.743   5.301 -0.2246  0.4494 -0.4463
   24CHL1  H11A 2917   3.026   4.655   5.314 -1.4480 -0.7898 -2.3609
   24CHL1  H11B 2918   3.011   4.840   5.318 -1.7825  1.0086  1.1800
   24CHL1    C9 2919   2.839   4.737   5.404 -0.6186 -0.3859 -0.5813
   24CHL1    H9 2920   2.779   4.828   5.386  2.8327  2.3946  1.3029
   24CHL1   C10 2921   2.883   4.747   5.553  0.7041  0.2265  0.2792
   24CHL1   C19 2922   2.988   4.636   5.578 -0.1814  0.7849  0.0797
   24CHL1  H19A 2923   3.081   4.663   5.522 -0.0557 -1.8650 -1.0888
   24CHL1  H19B 2924   3.013   4.631   5.686 -1.1209 -0.6910  0.2382
   24CHL1  H19C 2925   2.960   4.539   5.531 -0.1570  0.9096 -0.1942
   24CHL1    C1 2926   2.940   4.889   5.579 -0.1778  0.8096 -1.1020
   24CHL1   H1A 2927   3.031   4.890   5.515 -0.3384 -1.8705 -1.4436
   24CHL1   H1B 2928   2.862   4.955   5.535  1.4478  2.0722 -2.1663
   24CHL1    C2 2929   2.954   4.930   5.727 -0.0915 -1.3869 -0.7162
   24CHL1   H2A 2930   2.974   5.038   5.738 -0.9481 -1.1329 -1.6654
   24CHL1   H2B 2931   3.041   4.873   5.766  0.1733 -0.3418  0.2621
   24CHL1   C20 2932   2.805   4.547   4.874 -0.1189 -0.6147  0.1361
   24CHL1   H20 2933   2.842   4.445   4.897  1.1098  0.4350  3.1405
   24CHL1   C21 2934   2.923   4.634   4.835 -0.9724 -0.1743 -0.1683
   24CHL1  H21A 2935   3.007   4.618   4.906 -2.6836  0.9286  2.1512
   24CHL1  H21B 2936   2.882   4.738   4.827 -1.3641 -0.2996  0.2171
   24CHL1  H21C 2937   2.964   4.600   4.738 -2.1729  1.0849 -1.1475
   24CHL1   C22 2938   2.719   4.538   4.747 -0.0024 -0.6108  0.7000
   24CHL1  H22A 2939   2.777   4.485   4.669  0.1346 -0.3859  0.6481
   24CHL1  H22B 2940   2.624   4.481   4.761  0.2236 -1.1655  0.0004
   24CHL1   C23 2941   2.678   4.675   4.684  0.1274  0.0503 -0.9357
   24CHL1  H23A 2942   2.615   4.729   4.758  0.3808  1.0395 -1.4285
   24CHL1  H23B 2943   2.757   4.751   4.665 -0.3747  1.0887  1.0124
   24CHL1   C24 2944   2.575   4.659   4.564 -0.5133 -1.0041 -0.5259
   24CHL1  H24A 2945   2.564   4.741   4.490 -1.0740 -1.0103 -0.4527
   24CHL1  H24B 2946   2.615   4.581   4.495  1.0044  0.4820 -1.3805
   24CHL1   C25 2947   2.430   4.618   4.607  0.5665  0.2009 -0.4914
   24CHL1   H25 2948   2.436   4.518   4.655  1.1946  0.6188  0.3255
   24CHL1   C26 2949   2.363   4.708   4.715  0.1839  0.5326 -0.3253
   24CHL1  H26A 2950   2.421   4.712   4.810  0.4654  0.6360 -0.5026
   24CHL1  H26B 2951   2.365   4.811   4.674  1.3339  1.1538  1.2739
   24CHL1  H26C 2952   2.256   4.693   4.743  0.7054 -0.1776  1.2997
   24CHL1   C27 2953   2.331   4.598   4.490 -0.4532 -0.9496  0.0061
   24CHL1  H27A 2954   2.367   4.514   4.426 -2.2053 -0.1855 -2.0442
   24CHL1  H27B 2955   2.228   4.583   4.529 -0.9915  1.4761 -0.4138
   24CHL1  H27C 2956   2.336   4.684   4.420  0.8817 -0.0596  1.1672
   25CHL1    C3 2957   3.400   5.177   5.626  0.7431 -0.4343 -0.0852
   25CHL1    H3 2958   3.449   5.083   5.593  0.6168  0.2060 -2.2039
   25CHL1    O3 2959   3.422   5.206   5.764  0.0126 -0.5965  0.1547
   25CHL1   H3' 2960   3.515   5.232   5.770  0.8213 -3.2018 -0.2567
   25CHL1    C4 2961   3.454   5.291   5.548  0.4194  0.3648 -0.3251
   25CHL1   H4A 2962   3.399   5.382   5.580 -0.7665 -0.2295 -0.6304
   25CHL1   H4B 2963   3.560   5.313   5.574  0.4540 -0.1082 -0.0764
   25CHL1    C5 2964   3.426   5.273   5.399  0.1770  0.7122  0.3903
   25CHL1    C6 2965   3.536   5.275   5.317  0.6460  0.0803  0.0187
   25CHL1    H6 2966   3.635   5.285   5.363 -0.5671  1.2586  2.4721
   25CHL1    C7 2967   3.531   5.232   5.170 -0.1112 -0.6725 -0.4222
   25CHL1   H7A 2968   3.591   5.300   5.106  0.9738 -2.9267 -1.8694
   25CHL1   H7B 2969   3.588   5.136   5.171  1.5476  0.2647 -1.6777
   25CHL1    C8 2970   3.392   5.219   5.115  0.8932 -0.2256 -0.4553
   25CHL1    H8 2971   3.349   5.321   5.108  1.8610  0.4198  2.1333
   25CHL1   C14 2972   3.391   5.156   4.981 -0.7181 -0.2236  0.4027
   25CHL1   H14 2973   3.450   5.062   4.983 -0.2169  0.0966  1.2052
   25CHL1   C15 2974   3.470   5.228   4.866 -0.0745  0.0663  0.1159
   25CHL1  H15A 2975   3.461   5.339   4.872 -0.4586 -0.0487  1.9772
   25CHL1  H15B 2976   3.578   5.203   4.872 -0.3117 -0.7679  1.0317
   25CHL1   C16 2977   3.414   5.171   4.734 -0.3861 -0.0437  0.3199
   25CHL1  H16A 2978   3.382   5.256   4.670  1.3174  0.7894  0.5545
   25CHL1  H16B 2979   3.496   5.116   4.682 -1.2197 -1.5107  0.5089
   25CHL1   C17 2980   3.292   5.082   4.780  0.4358  0.1599  0.7544
   25CHL1   H17 2981   3.330   4.980   4.802  1.2818  0.4048  0.4551
   25CHL1   C13 2982   3.257   5.126   4.922  0.0504 -0.0694 -0.5951
   25CHL1   C18 2983   3.181   5.255   4.907  0.1122 -0.4928  0.4047
   25CHL1  H18A 2984   3.074   5.248   4.880  0.4675 -0.2884 -1.1104
   25CHL1  H18B 2985   3.180   5.312   5.003 -0.4334 -0.7401  0.5448
   25CHL1  H18C 2986   3.222   5.324   4.830  1.2190 -0.6916  0.8071
   25CHL1   C12 2987   3.192   5.026   5.016  0.5652  0.3123 -0.1763
   25CHL1  H12A 2988   3.093   4.995   4.975  0.5744  1.0481 -0.7697
   25CHL1  H12B 2989   3.260   4.939   5.029 -0.1602  0.1672  3.1997
   25CHL1   C11 2990   3.170   5.089   5.157  0.0090 -0.4219 -0.4372
   25CHL1  H11A 2991   3.097   5.171   5.167 -0.5127 -1.0062  0.6204
   25CHL1  H11B 2992   3.133   5.006   5.221 -2.4801  2.8121  2.5374
   25CHL1    C9 2993   3.303   5.141   5.217  0.0604  0.1892  0.7286
   25CHL1    H9 2994   3.361   5.050   5.242 -0.8859 -1.0239 -1.3801
   25CHL1   C10 2995   3.284   5.217   5.352 -0.0404 -0.4578  0.4828
   25CHL1   C19 2996   3.195   5.339   5.340  0.5844 -0.2032 -0.3861
   25CHL1  H19A 2997   3.199   5.399   5.434  1.2977 -3.1490  1.5138
   25CHL1  H19B 2998   3.222   5.401   5.251 -0.3891 -0.0198 -0.5587
   25CHL1  H19C 2999   3.090   5.308   5.323 -0.5160  2.8340  0.5130
   25CHL1    C1 3000   3.229   5.120   5.457  0.1599 -0.3901 -0.4629
   25CHL1   H1A 3001   3.123   5.093   5.441 -1.0099  0.9007  4.3293
   25CHL1   H1B 3002   3.284   5.026   5.435 -0.9092 -1.0302 -0.4047
   25CHL1    C2 3003   3.252   5.157   5.603 -0.1575 -0.5536 -0.8885
   25CHL1   H2A 3004   3.234   5.064   5.660  1.1493  0.1693  0.7775
   25CHL1   H2B 3005   3.193   5.242   5.644  1.4605 -0.8287  2.1292
   25CHL1   C20 3006   3.173   5.065   4.676 -0.0976 -0.5701 -0.0635
   25CHL1   H20 3007   3.102   5.143   4.711 -0.1231 -1.5630  2.1590
   25CHL1   C21 3008   3.118   4.925   4.687 -0.2058 -0.3393 -0.4629
   25CHL1  H21A 3009   3.190   4.841   4.673  1.8289  1.3514 -0.4141
   25CHL1  H21B 3010   3.040   4.905   4.610  1.7005 -3.2606 -1.7293
   25CHL1  H21C 3011   3.062   4.912   4.782  0.9376  1.5953  0.5008
   25CHL1   C22 3012   3.221   5.085   4.530  0.5554 -0.3399  0.3148
   25CHL1  H22A 3013   3.272   5.183   4.518  0.5677 -0.5486 -1.5451
   25CHL1  H22B 3014   3.298   5.006   4.521  1.6750  0.6602  0.8875
   25CHL1   C23 3015   3.105   5.062   4.426 -0.1747 -0.7780  1.1564
   25CHL1  H23A 3016   3.109   4.953   4.402 -1.5769 -1.0635  2.1514
   25CHL1  H23B 3017   3.011   5.094   4.476 -0.4849  1.9601 -1.0765
   25CHL1   C24 3018   3.130   5.142   4.293  0.1929  0.8451 -0.1141
   25CHL1  H24A 3019   3.156   5.246   4.321  0.2172  1.3753 -2.0064
   25CHL1  H24B 3020   3.227   5.112   4.248  1.0162  1.4448  1.2242
   25CHL1   C25 3021   3.021   5.153   4.193 -0.4742  0.3112 -0.0560
   25CHL1   H25 3022   2.930   5.164   4.256 -0.0384 -1.6654  0.9658
   25CHL1   C26 3023   3.025   5.261   4.088 -0.0341  0.9604 -1.3488
   25CHL1  H26A 3024   3.115   5.233   4.028  0.1671  0.5662 -0.8628
   25CHL1  H26B 3025   2.930   5.258   4.030 -0.2200 -0.9697 -0.9554
   25CHL1  H26C 3026   3.023   5.360   4.139 -1.9641 -0.0488  0.5732
   25CHL1   C27 3027   3.001   5.014   4.125  0.2337  0.0721  0.7152
   25CHL1  H27A 3028   3.081   5.004   4.049 -1.2347 -0.9525 -0.7356
   25CHL1  H27B 3029   2.991   4.933   4.200 -0.8554 -1.3042 -0.8825
   25CHL1  H27C 3030   2.903   5.003   4.073  0.1654  1.4167  0.5450
   26CHL1    C3 3031   2.798   2.656   5.731 -0.7921  0.5621  0.1636
   26CHL1    H3 3032   2.688   2.664   5.717 -0.6078  0.7336 -1.2548
   26CHL1    O3 3033   2.820   2.619   5.868  0.5098  0.4255 -0.1519
   26CHL1   H3' 3034   2.784   2.694   5.915  3.9624  2.5462 -0.7205
   26CHL1    C4 3035   2.840   2.540   5.646 -0.5645  0.1175 -0.8694
   26CHL1   H4A 3036   2.942   2.520   5.686 -1.8458  0.9375  3.0354
   26CHL1   H4B 3037   2.779   2.451   5.673  1.9061 -0.6360  2.6057
   26CHL1    C5 3038   2.846   2.567   5.497 -0.9833  0.6725 -0.0815
   26CHL1    C6 3039   2.772   2.491   5.410 -0.1469  0.1114 -0.4155
   26CHL1    H6 3040   2.719   2.403   5.450  2.4030 -0.8644  0.8687
   26CHL1    C7 3041   2.764   2.522   5.262 -0.8564 -0.2899 -0.1425
   26CHL1   H7A 3042   2.763   2.419   5.218  0.0483 -0.6471  0.6450
   26CHL1   H7B 3043   2.667   2.570   5.239 -0.5971 -0.5935 -1.9233
   26CHL1    C8 3044   2.888   2.612   5.213  0.1299  0.3965 -0.5519
   26CHL1    H8 3045   2.981   2.550   5.218  0.5013  0.9788 -0.1916
   26CHL1   C14 3046   2.882   2.651   5.072 -0.0598  0.8207 -0.1582
   26CHL1   H14 3047   2.787   2.709   5.069 -0.2683  0.4695 -0.5981
   26CHL1   C15 3048   2.872   2.543   4.966  0.1718 -0.0872  0.1357
   26CHL1  H15A 3049   2.950   2.465   4.980 -0.0758 -0.5060 -0.7637
   26CHL1  H15B 3050   2.773   2.494   4.955 -0.8400  2.1259 -0.9418
   26CHL1   C16 3051   2.904   2.618   4.829  0.0191 -0.4370  0.3599
   26CHL1  H16A 3052   2.987   2.568   4.773  1.4535  2.7612 -0.5065
   26CHL1  H16B 3053   2.813   2.599   4.768 -0.8013  1.7705  0.8706
   26CHL1   C17 3054   2.940   2.767   4.870  0.7216  0.0435  0.6608
   26CHL1   H17 3055   2.845   2.824   4.877  1.3460  1.0734  0.8659
   26CHL1   C13 3056   2.986   2.749   5.019 -0.1498  0.1301 -0.9347
   26CHL1   C18 3057   3.125   2.686   5.020  0.2301 -0.9262  0.4171
   26CHL1  H18A 3058   3.124   2.586   4.971 -3.2909  0.7180 -3.1803
   26CHL1  H18B 3059   3.197   2.756   4.972  1.2760 -1.0081  1.8553
   26CHL1  H18C 3060   3.172   2.668   5.119  1.2194 -1.2113 -0.0958
   26CHL1   C12 3061   2.986   2.879   5.098 -1.3076  0.7877  0.0273
   26CHL1  H12A 3062   3.073   2.936   5.058 -1.0217  0.0848 -0.3488
   26CHL1  H12B 3063   2.889   2.934   5.103 -0.7423  1.7892  0.1278
   26CHL1   C11 3064   3.007   2.839   5.247  0.4735  0.1981  0.8643
   26CHL1  H11A 3065   3.114   2.807   5.251  0.3548 -0.3018  0.0697
   26CHL1  H11B 3066   3.006   2.933   5.306 -2.4992 -0.2448  1.5954
   26CHL1    C9 3067   2.903   2.735   5.302 -0.1020  0.7694  0.5826
   26CHL1    H9 3068   2.808   2.793   5.297  0.5174  1.7173 -0.5759
   26CHL1   C10 3069   2.931   2.694   5.453 -0.1895 -0.9596  0.3158
   26CHL1   C19 3070   3.079   2.671   5.477 -0.1338  0.2973 -0.2291
   26CHL1  H19A 3071   3.109   2.598   5.398  2.1849 -0.7630  1.5580
   26CHL1  H19B 3072   3.145   2.759   5.461 -0.8787  0.8364 -0.3304
   26CHL1  H19C 3073   3.106   2.627   5.575 -1.2575 -0.6030 -0.3106
   26CHL1    C1 3074   2.892   2.809   5.555 -0.0089 -0.8633  0.0870
   26CHL1   H1A 3075   2.951   2.902   5.538  2.0413 -1.9862  1.0154
   26CHL1   H1B 3076   2.786   2.829   5.528  0.0885 -0.5868 -0.0924
   26CHL1    C2 3077   2.882   2.777   5.706  0.3324  0.3754 -0.2152
   26CHL1   H2A 3078   2.834   2.862   5.760 -0.3551 -0.2346  0.1485
   26CHL1   H2B 3079   2.984   2.768   5.750  0.4623 -0.5746 -0.7053
   26CHL1   C20 3080   3.020   2.853   4.769 -0.3179  0.0862 -0.0906
   26CHL1   H20 3081   3.059   2.934   4.834 -0.6461 -0.8639  1.3084
   26CHL1   C21 3082   2.927   2.918   4.669  0.3172  0.5427  0.5589
   26CHL1  H21A 3083   2.854   2.984   4.721 -2.1396 -0.8715 -1.0293
   26CHL1  H21B 3084   2.857   2.846   4.623 -0.1197 -0.5361  2.8223
   26CHL1  H21C 3085   2.979   2.984   4.597  0.1853  0.3410  0.2830
   26CHL1   C22 3086   3.143   2.787   4.695  0.0851  0.7126  0.0685
   26CHL1  H22A 3087   3.186   2.706   4.758 -2.1019 -1.8473 -1.6191
   26CHL1  H22B 3088   3.100   2.743   4.603  0.3350  2.1237 -0.7313
   26CHL1   C23 3089   3.253   2.881   4.657 -0.0924  0.4214  0.2715
   26CHL1  H23A 3090   3.232   2.954   4.576  3.6748  0.1519 -1.0663
   26CHL1  H23B 3091   3.284   2.933   4.749  0.3016  0.0920  0.3259
   26CHL1   C24 3092   3.390   2.823   4.610  0.4534  0.1150 -0.1813
   26CHL1  H24A 3093   3.474   2.893   4.632 -0.8681  0.9508  2.2908
   26CHL1  H24B 3094   3.409   2.735   4.675  0.8135 -3.0496 -4.3822
   26CHL1   C25 3095   3.394   2.776   4.460 -0.7009 -0.3574  0.1267
   26CHL1   H25 3096   3.347   2.846   4.389  0.1484  1.4615  1.3084
   26CHL1   C26 3097   3.537   2.757   4.416  0.2799 -0.0204 -0.0610
   26CHL1  H26A 3098   3.588   2.681   4.479  1.6485 -1.6933 -3.0770
   26CHL1  H26B 3099   3.533   2.708   4.316  0.6354 -0.3652  0.0921
   26CHL1  H26C 3100   3.591   2.853   4.424 -0.5700  0.3673  1.2069
   26CHL1   C27 3101   3.331   2.636   4.439 -0.2113 -0.7813  0.1846
   26CHL1  H27A 3102   3.403   2.567   4.487  0.6390 -0.2447 -0.3056
   26CHL1  H27B 3103   3.237   2.628   4.497 -1.2269 -2.8766 -1.6901
   26CHL1  H27C 3104   3.323   2.609   4.331  0.0762 -0.3748  0.0583
   27CHL1    C3 3105   2.440   3.018   5.683  0.5723 -0.7664  0.5138
   27CHL1    H3 3106   2.330   3.005   5.671  0.0322  2.3205  1.7531
   27CHL1    O3 3107   2.465   3.006   5.822 -0.2871  0.2138 -0.4686
   27CHL1   H3' 3108   2.515   2.924   5.830  2.1468  1.8655  2.3277
   27CHL1    C4 3109   2.522   2.911   5.606  0.2630  0.6224  0.9026
   27CHL1   H4A 3110   2.625   2.928   5.644  0.9137 -0.6071 -0.3158
   27CHL1   H4B 3111   2.494   2.807   5.633 -0.3180  0.1118 -1.5320
   27CHL1    C5 3112   2.518   2.926   5.455  0.7240  0.9927 -0.6066
   27CHL1    C6 3113   2.477   2.823   5.381 -0.7984  0.5333  0.7504
   27CHL1    H6 3114   2.450   2.724   5.422  1.7851  0.2790  1.9091
   27CHL1    C7 3115   2.487   2.827   5.224 -0.5382  0.7145 -0.4466
   27CHL1   H7A 3116   2.551   2.743   5.191 -2.3502 -1.8932  2.4567
   27CHL1   H7B 3117   2.388   2.816   5.175 -0.6732  1.9767 -0.4774
   27CHL1    C8 3118   2.539   2.956   5.170 -0.2359 -0.7900 -0.5566
   27CHL1    H8 3119   2.650   2.952   5.175 -0.3396 -1.1091  2.2934
   27CHL1   C14 3120   2.497   2.975   5.025  0.2801 -0.1656  0.8963
   27CHL1   H14 3121   2.386   2.988   5.022  0.1698 -1.3687 -1.1162
   27CHL1   C15 3122   2.511   2.852   4.930 -0.1908  0.3318  0.5094
   27CHL1  H15A 3123   2.609   2.800   4.936 -0.8050 -1.0713 -1.0953
   27CHL1  H15B 3124   2.431   2.776   4.947 -0.9726  1.2559  0.9949
   27CHL1   C16 3125   2.496   2.917   4.792 -0.1555 -0.1942 -0.4965
   27CHL1  H16A 3126   2.585   2.880   4.737 -0.5858 -1.2320 -0.4932
   27CHL1  H16B 3127   2.402   2.887   4.741 -0.7260  1.3944 -0.4182
   27CHL1   C17 3128   2.492   3.078   4.809 -0.1218  0.2816 -0.3282
   27CHL1   H17 3129   2.387   3.114   4.803 -0.3584  0.2331  2.9398
   27CHL1   C13 3130   2.558   3.098   4.950  0.4703 -0.2376 -0.6971
   27CHL1   C18 3131   2.709   3.082   4.948 -0.0181 -0.0846  0.4127
   27CHL1  H18A 3132   2.729   2.985   4.897 -1.7868  0.2838 -1.0315
   27CHL1  H18B 3133   2.740   3.162   4.878  0.2163 -1.8281 -1.5352
   27CHL1  H18C 3134   2.753   3.088   5.050 -0.2863 -0.0459  0.5257
   27CHL1   C12 3135   2.519   3.226   5.023 -0.3525 -0.2916 -0.0993
   27CHL1  H12A 3136   2.573   3.315   4.986 -1.5154  1.0232  1.3528
   27CHL1  H12B 3137   2.410   3.244   5.011 -0.6762  0.1861  3.1625
   27CHL1   C11 3138   2.553   3.213   5.179 -0.0856  0.2015 -0.4651
   27CHL1  H11A 3139   2.663   3.206   5.189 -0.0675  1.3504  0.2082
   27CHL1  H11B 3140   2.527   3.302   5.240 -1.6050 -0.0672 -0.6819
   27CHL1    C9 3141   2.499   3.086   5.249 -0.2883 -0.2156 -0.2210
   27CHL1    H9 3142   2.388   3.085   5.248 -0.3030 -1.8950  1.1755
   27CHL1   C10 3143   2.545   3.066   5.395 -0.0857 -0.3382  0.2160
   27CHL1   C19 3144   2.700   3.095   5.417  0.0227  0.1707 -0.4499
   27CHL1  H19A 3145   2.721   3.198   5.382 -0.5346  0.4611  0.0517
   27CHL1  H19B 3146   2.733   3.097   5.523 -0.9528  0.2772 -0.1412
   27CHL1  H19C 3147   2.773   3.028   5.368 -0.4073 -0.0424 -0.8057
   27CHL1    C1 3148   2.460   3.171   5.474  0.0128 -0.3987 -0.3174
   27CHL1   H1A 3149   2.493   3.273   5.446  0.1290  0.3218  2.2801
   27CHL1   H1B 3150   2.355   3.148   5.448 -0.1726 -2.5902  2.1252
   27CHL1    C2 3151   2.475   3.157   5.632  0.0092 -0.3191 -0.4139
   27CHL1   H2A 3152   2.411   3.237   5.675 -0.4310 -1.4793  1.1784
   27CHL1   H2B 3153   2.580   3.183   5.656 -0.5740  1.3499  0.3896
   27CHL1   C20 3154   2.558   3.142   4.693 -0.7537 -0.1245  0.0150
   27CHL1   H20 3155   2.661   3.104   4.679 -0.9704 -0.7482  0.1098
   27CHL1   C21 3156   2.559   3.288   4.723 -0.2738 -0.0293  0.2231
   27CHL1  H21A 3157   2.590   3.339   4.629  0.9749  0.3599  0.8505
   27CHL1  H21B 3158   2.642   3.312   4.792 -0.7788  0.5104  0.6531
   27CHL1  H21C 3159   2.463   3.324   4.766 -1.3107 -1.3903 -0.8801
   27CHL1   C22 3160   2.482   3.112   4.560  0.1742  0.2401 -0.2420
   27CHL1  H22A 3161   2.542   3.166   4.483  0.6707 -0.3997 -0.3077
   27CHL1  H22B 3162   2.479   3.003   4.537  2.1202 -0.1931  1.4360
   27CHL1   C23 3163   2.335   3.155   4.542  0.6339 -0.6547 -0.6086
   27CHL1  H23A 3164   2.271   3.112   4.622  1.2738  0.3118  0.4421
   27CHL1  H23B 3165   2.330   3.266   4.546 -1.5518 -0.8036  2.5111
   27CHL1   C24 3166   2.282   3.124   4.407  0.6492  0.4315  0.8736
   27CHL1  H24A 3167   2.358   3.159   4.334  1.1765 -2.0121  0.2046
   27CHL1  H24B 3168   2.270   3.014   4.392  0.2957  0.7794 -1.5136
   27CHL1   C25 3169   2.148   3.191   4.375 -0.5415  0.0964  0.3652
   27CHL1   H25 3170   2.155   3.297   4.408 -0.1732  0.7775 -1.8215
   27CHL1   C26 3171   2.126   3.192   4.217  0.3902  0.0923 -0.4707
   27CHL1  H26A 3172   2.215   3.221   4.156  0.2063  2.8942  0.5125
   27CHL1  H26B 3173   2.082   3.097   4.179  0.9974 -1.0947  1.7073
   27CHL1  H26C 3174   2.046   3.264   4.191  0.4250 -0.3606 -1.9256
   27CHL1   C27 3175   2.024   3.128   4.433 -0.1492  0.2433  0.5011
   27CHL1  H27A 3176   1.922   3.168   4.415 -0.5474 -1.5782 -1.5260
   27CHL1  H27B 3177   2.038   3.122   4.543 -3.2824 -0.8948  0.8882
   27CHL1  H27C 3178   2.020   3.025   4.392 -0.0936  0.6067 -0.4278
   28CHL1    C3 3179   4.356   2.195   5.686 -1.6063 -0.4762 -0.3833
   28CHL1    H3 3180   4.440   2.267   5.678 -2.6598  1.0029  1.5377
   28CHL1    O3 3181   4.357   2.142   5.817  0.8502 -0.2630 -0.6976
   28CHL1   H3' 3182   4.329   2.051   5.806  1.0953 -0.4746  0.3440
   28CHL1    C4 3183   4.221   2.271   5.658  0.5204  0.0650 -0.3391
   28CHL1   H4A 3184   4.142   2.203   5.697 -0.0367  0.1410 -1.3094
   28CHL1   H4B 3185   4.220   2.361   5.722 -0.8560  1.1697 -1.8595
   28CHL1    C5 3186   4.204   2.302   5.508  0.0276 -0.1512 -0.3670
   28CHL1    C6 3187   4.181   2.423   5.470  0.2252  0.4395 -0.8343
   28CHL1    H6 3188   4.161   2.495   5.551  0.0703 -2.0726  1.4118
   28CHL1    C7 3189   4.166   2.474   5.328 -0.1566  0.1118 -0.0767
   28CHL1   H7A 3190   4.077   2.541   5.328 -0.2262  0.0270 -1.0394
   28CHL1   H7B 3191   4.256   2.531   5.295  1.0803 -1.1759  1.0362
   28CHL1    C8 3192   4.139   2.350   5.235  0.4839 -0.0046  0.4756
   28CHL1    H8 3193   4.033   2.321   5.253  0.0352  1.0905 -0.3695
   28CHL1   C14 3194   4.145   2.397   5.091 -0.2438 -0.3507  0.4627
   28CHL1   H14 3195   4.245   2.443   5.081  0.0710 -0.9243  0.9914
   28CHL1   C15 3196   4.055   2.512   5.051  0.2159  0.7659  0.0513
   28CHL1  H15A 3197   3.958   2.487   5.098 -0.2519  0.8823 -0.8461
   28CHL1  H15B 3198   4.089   2.608   5.096  0.4958  0.1760  1.1064
   28CHL1   C16 3199   4.073   2.515   4.902 -0.5217  0.7052 -0.1954
   28CHL1  H16A 3200   3.980   2.522   4.841  0.0149 -0.6487 -1.2073
   28CHL1  H16B 3201   4.135   2.605   4.882 -0.8740  1.5658  2.4505
   28CHL1   C17 3202   4.138   2.374   4.863  0.4630 -0.1270  0.1710
   28CHL1   H17 3203   4.245   2.402   4.850  0.0483  1.8030  0.7450
   28CHL1   C13 3204   4.130   2.287   4.983  0.2371 -0.4127 -0.0932
   28CHL1   C18 3205   3.988   2.228   4.994 -0.2364 -0.3448 -0.0974
   28CHL1  H18A 3206   3.964   2.189   5.095 -2.8097  0.1693 -0.4766
   28CHL1  H18B 3207   3.910   2.303   4.971 -1.0557 -1.3163 -0.5203
   28CHL1  H18C 3208   3.977   2.141   4.926 -0.9407 -0.6571  0.4038
   28CHL1   C12 3209   4.244   2.185   5.010 -0.1691  0.0035 -0.1167
   28CHL1  H12A 3210   4.229   2.103   4.937  0.1722 -0.1571 -0.0071
   28CHL1  H12B 3211   4.348   2.221   4.999 -0.4383  0.7354 -0.3200
   28CHL1   C11 3212   4.229   2.127   5.147 -1.0065 -0.1920 -0.1382
   28CHL1  H11A 3213   4.130   2.078   5.142 -1.1956  0.2436 -0.6757
   28CHL1  H11B 3214   4.311   2.053   5.163 -1.2235 -0.3807  0.1045
   28CHL1    C9 3215   4.239   2.235   5.262 -0.1029 -0.4251  0.2632
   28CHL1    H9 3216   4.337   2.284   5.243  0.9988 -3.0099 -1.0602
   28CHL1   C10 3217   4.229   2.189   5.411 -0.1450  0.5224  1.0228
   28CHL1   C19 3218   4.110   2.091   5.423 -0.4498 -0.2532 -0.0846
   28CHL1  H19A 3219   4.021   2.111   5.360 -1.2743 -1.6493  0.6058
   28CHL1  H19B 3220   4.147   1.995   5.380 -0.7073 -0.8736  1.0780
   28CHL1  H19C 3221   4.069   2.062   5.521 -0.1260  0.8990  0.3982
   28CHL1    C1 3222   4.372   2.120   5.438  0.0469 -0.3449  0.7755
   28CHL1   H1A 3223   4.381   2.033   5.370  1.1454  3.1787 -3.7969
   28CHL1   H1B 3224   4.453   2.190   5.409 -0.3072 -0.1154  0.3248
   28CHL1    C2 3225   4.383   2.080   5.586 -0.1946 -0.5205 -0.6571
   28CHL1   H2A 3226   4.486   2.045   5.607  0.7812  1.8884 -1.2769
   28CHL1   H2B 3227   4.307   2.002   5.607 -0.4439 -0.0910  0.0649
   28CHL1   C20 3228   4.104   2.324   4.722  0.0475  0.2527  0.2189
   28CHL1   H20 3229   3.996   2.299   4.716 -0.3105  1.2941  1.8600
   28CHL1   C21 3230   4.183   2.193   4.700 -0.6533  0.2877 -0.1023
   28CHL1  H21A 3231   4.139   2.115   4.766  0.5512  1.8514  2.6447
   28CHL1  H21B 3232   4.292   2.201   4.725 -0.3016  1.7113 -1.9689
   28CHL1  H21C 3233   4.180   2.165   4.593  2.4166  0.5587 -0.3097
   28CHL1   C22 3234   4.137   2.432   4.613  0.5677  0.4308  0.8781
   28CHL1  H22A 3235   4.096   2.530   4.644  0.0226  0.3812  0.3024
   28CHL1  H22B 3236   4.248   2.439   4.616  0.5714  0.2385  1.3242
   28CHL1   C23 3237   4.077   2.399   4.470 -0.6636 -0.2128  0.2429
   28CHL1  H23A 3238   4.135   2.331   4.404 -2.3154 -0.6377 -0.7956
   28CHL1  H23B 3239   3.977   2.352   4.482 -0.7338 -0.0139  0.4211
   28CHL1   C24 3240   4.066   2.526   4.389  0.4165 -0.2205  0.2817
   28CHL1  H24A 3241   3.995   2.601   4.429 -0.0688 -2.0039  2.8576
   28CHL1  H24B 3242   4.162   2.583   4.396 -0.8677  2.0637 -0.1438
   28CHL1   C25 3243   4.026   2.501   4.242  0.2625 -0.3848 -0.6201
   28CHL1   H25 3244   4.104   2.440   4.193  0.6182  0.6981 -1.4077
   28CHL1   C26 3245   3.896   2.416   4.229 -0.0488  0.3336 -0.2899
   28CHL1  H26A 3246   3.878   2.400   4.120 -4.3573 -1.0252  0.5273
   28CHL1  H26B 3247   3.914   2.318   4.277  1.3102  0.1277 -1.1766
   28CHL1  H26C 3248   3.807   2.461   4.277  0.5219  1.9844 -0.7350
   28CHL1   C27 3249   4.023   2.632   4.161  0.7565  0.2178  1.0149
   28CHL1  H27A 3250   4.124   2.678   4.154  0.0793  1.7278  0.9513
   28CHL1  H27B 3251   3.983   2.620   4.059 -1.3299  3.2259  1.4103
   28CHL1  H27C 3252   3.957   2.702   4.216 -0.7501 -1.0417  0.8335
   29CHL1    C3 3253   1.999   3.882   5.612 -0.3984  0.1348  0.1931
   29CHL1    H3 3254   2.085   3.822   5.574  0.7813  2.4017 -0.8371
   29CHL1    O3 3255   2.029   3.923   5.740 -0.3382 -0.0040 -0.5482
   29CHL1   H3' 3256   1.954   3.980   5.761 -1.0561 -0.4959 -1.7248
   29CHL1    C4 3257   1.990   4.009   5.538  0.1031 -0.3465  0.5454
   29CHL1   H4A 3258   1.919   4.085   5.577  1.9306  1.3586  0.6153
   29CHL1   H4B 3259   2.089   4.058   5.539 -0.3710  0.6071  1.1171
   29CHL1    C5 3260   1.953   3.985   5.397 -0.2238 -1.0033  0.3607
   29CHL1    C6 3261   2.036   4.020   5.297 -1.4457  0.6847  0.0529
   29CHL1    H6 3262   2.130   4.071   5.319 -0.9805  0.6835 -1.8061
   29CHL1    C7 3263   2.007   4.007   5.151 -0.4677  0.0488  0.0562
   29CHL1   H7A 3264   1.996   4.107   5.103 -0.2458 -0.2534 -0.6336
   29CHL1   H7B 3265   2.081   3.953   5.089  1.8615  1.3342  1.6682
   29CHL1    C8 3266   1.858   3.961   5.124 -0.2026 -0.1306 -0.1629
   29CHL1    H8 3267   1.789   4.045   5.143  0.4207 -0.1926  2.5824
   29CHL1   C14 3268   1.834   3.919   4.978  0.3045 -0.3420 -0.3327
   29CHL1   H14 3269   1.902   3.832   4.966 -0.8035 -1.0621 -1.5645
   29CHL1   C15 3270   1.885   4.007   4.861 -0.2461 -0.5844 -0.2752
   29CHL1  H15A 3271   1.835   4.106   4.863  1.7653  0.4604  0.1235
   29CHL1  H15B 3272   1.994   4.028   4.867 -0.4832  1.3008 -2.2482
   29CHL1   C16 3273   1.840   3.924   4.734 -0.4354  0.5008 -0.3825
   29CHL1  H16A 3274   1.809   3.989   4.649 -0.6415 -0.6703 -1.2218
   29CHL1  H16B 3275   1.924   3.858   4.703 -0.1371  0.0805  1.2783
   29CHL1   C17 3276   1.728   3.832   4.782  0.6202  0.1447  0.5535
   29CHL1   H17 3277   1.773   3.730   4.787  1.9891  0.7802  1.6658
   29CHL1   C13 3278   1.699   3.860   4.938  0.1799  0.0257 -0.2765
   29CHL1   C18 3279   1.595   3.971   4.950 -0.5759  0.1959 -0.2790
   29CHL1  H18A 3280   1.624   4.058   4.887  0.8159  0.3156  0.5152
   29CHL1  H18B 3281   1.493   3.934   4.924  0.7302 -2.2894 -2.1050
   29CHL1  H18C 3282   1.601   4.001   5.057  1.0172  1.0149 -0.5867
   29CHL1   C12 3283   1.678   3.743   5.037  0.3411  0.7826 -0.1946
   29CHL1  H12A 3284   1.581   3.697   5.011  0.4429  0.4044  0.0929
   29CHL1  H12B 3285   1.768   3.678   5.041  0.8138  1.5089  1.6706
   29CHL1   C11 3286   1.675   3.798   5.183 -1.3476  0.1850  0.4879
   29CHL1  H11A 3287   1.591   3.870   5.190 -0.0114  1.7391  0.7473
   29CHL1  H11B 3288   1.642   3.713   5.247  1.7456 -0.1944  1.6867
   29CHL1    C9 3289   1.817   3.854   5.226 -0.6744 -0.0613  0.8365
   29CHL1    H9 3290   1.872   3.758   5.218 -0.7256 -0.0609  0.4830
   29CHL1   C10 3291   1.825   3.906   5.370 -0.2187  0.3167 -1.2636
   29CHL1   C19 3292   1.711   4.009   5.392  0.4421 -0.2377  0.2714
   29CHL1  H19A 3293   1.701   4.097   5.325  1.8776 -1.5058 -1.6587
   29CHL1  H19B 3294   1.614   3.956   5.388 -0.5758  1.5555  0.4466
   29CHL1  H19C 3295   1.711   4.049   5.496 -0.5852  1.6193 -0.4193
   29CHL1    C1 3296   1.824   3.781   5.467 -0.4605  0.3096 -0.0621
   29CHL1   H1A 3297   1.719   3.746   5.463 -0.8428  1.4701 -0.2303
   29CHL1   H1B 3298   1.876   3.696   5.417 -2.6006 -1.0098 -0.1088
   29CHL1    C2 3299   1.863   3.808   5.610  0.4020 -0.2722  0.3130
   29CHL1   H2A 3300   1.876   3.715   5.670 -0.5367  0.8196  2.2515
   29CHL1   H2B 3301   1.789   3.876   5.657  0.5759  2.2254 -2.8162
   29CHL1   C20 3302   1.610   3.837   4.688 -0.9784 -0.1349  0.9922
   29CHL1   H20 3303   1.566   3.938   4.695 -0.2100  0.2251  0.6855
   29CHL1   C21 3304   1.505   3.732   4.734  0.2313  0.1134  0.1755
   29CHL1  H21A 3305   1.538   3.629   4.758 -0.0874 -0.0439 -0.0629
   29CHL1  H21B 3306   1.427   3.720   4.656 -1.1048  0.1684  1.4817
   29CHL1  H21C 3307   1.452   3.763   4.827  1.2087  0.6395  0.5680
   29CHL1   C22 3308   1.643   3.827   4.533  0.3038  0.0447 -0.9912
   29CHL1  H22A 3309   1.753   3.835   4.516  0.3604  2.4397  0.3554
   29CHL1  H22B 3310   1.624   3.720   4.512  0.4770  0.3295 -2.6713
   29CHL1   C23 3311   1.549   3.898   4.430  0.5146  0.0429 -0.0311
   29CHL1  H23A 3312   1.446   3.859   4.447 -0.2997  2.0672 -0.1928
   29CHL1  H23B 3313   1.542   4.006   4.455 -0.6149 -0.0739  0.1685
   29CHL1   C24 3314   1.588   3.866   4.283 -0.2093  0.6292 -0.2642
   29CHL1  H24A 3315   1.679   3.925   4.258  0.2290  0.8770  1.8713
   29CHL1  H24B 3316   1.622   3.761   4.278 -0.2754  0.5986 -0.0741
   29CHL1   C25 3317   1.480   3.908   4.180 -0.2113 -0.5724  0.1395
   29CHL1   H25 3318   1.457   4.012   4.211 -0.7106 -0.3679 -0.9322
   29CHL1   C26 3319   1.553   3.902   4.046  0.0003 -0.5249 -0.1552
   29CHL1  H26A 3320   1.473   3.930   3.974 -0.3465 -1.6270 -0.1982
   29CHL1  H26B 3321   1.649   3.958   4.039 -0.5199  0.4461  0.3187
   29CHL1  H26C 3322   1.573   3.797   4.018  1.0188 -0.4906  0.4248
   29CHL1   C27 3323   1.355   3.824   4.171  0.4264  0.1440  0.8418
   29CHL1  H27A 3324   1.395   3.721   4.156 -1.9000 -0.4061 -2.1281
   29CHL1  H27B 3325   1.289   3.841   4.258 -0.0767  0.0304  0.4864
   29CHL1  H27C 3326   1.288   3.861   4.090  1.1938 -0.5632 -0.1197
   30CHL1    C3 3327   2.588   5.434   5.701  0.3677  0.0876  0.5391
   30CHL1    H3 3328   2.479   5.445   5.686  0.7503  0.8342 -1.7654
   30CHL1    O3 3329   2.630   5.456   5.832  0.0056 -0.7005 -0.3892
   30CHL1   H3' 3330   2.549   5.433   5.879 -0.1334  1.0702  0.2867
   30CHL1    C4 3331   2.631   5.286   5.671  0.7538 -0.0368  0.6279
   30CHL1   H4A 3332   2.735   5.267   5.704 -0.0159 -4.6491  0.7756
   30CHL1   H4B 3333   2.584   5.221   5.747  1.0072 -1.5109 -0.4421
   30CHL1    C5 3334   2.616   5.242   5.528  0.2103 -0.0571 -0.3259
   30CHL1    C6 3335   2.532   5.147   5.496 -0.4329 -0.0212  0.4502
   30CHL1    H6 3336   2.479   5.095   5.578  0.3778 -1.1930  0.2503
   30CHL1    C7 3337   2.520   5.099   5.357  0.2105 -0.2131  0.3217
   30CHL1   H7A 3338   2.546   4.992   5.366 -1.3491 -0.4748  1.9310
   30CHL1   H7B 3339   2.421   5.120   5.310  0.6020 -0.7787 -0.7933
   30CHL1    C8 3340   2.615   5.152   5.257  0.4534  0.4578 -0.0875
   30CHL1    H8 3341   2.701   5.082   5.264  2.3975  2.9055  0.8037
   30CHL1   C14 3342   2.570   5.143   5.109  0.1667 -0.0214  0.7015
   30CHL1   H14 3343   2.494   5.221   5.084  1.6892  1.4801  0.6419
   30CHL1   C15 3344   2.511   5.007   5.064  0.1636 -0.3001 -0.9132
   30CHL1  H15A 3345   2.577   4.925   5.100  2.6598  1.7706 -0.6737
   30CHL1  H15B 3346   2.406   4.986   5.097  0.5366 -1.4502 -0.4087
   30CHL1   C16 3347   2.515   5.021   4.911 -0.2746 -0.7573  0.6443
   30CHL1  H16A 3348   2.555   4.922   4.882  0.7457  0.5795 -2.6983
   30CHL1  H16B 3349   2.419   5.040   4.858  0.9707 -1.4898 -1.9282
   30CHL1   C17 3350   2.613   5.140   4.880  0.3149 -0.1435 -0.1231
   30CHL1   H17 3351   2.550   5.225   4.848  2.2372  1.1477 -0.6106
   30CHL1   C13 3352   2.684   5.177   5.009 -0.2386 -0.6331  0.7006
   30CHL1   C18 3353   2.805   5.086   5.024 -0.4840  0.2465 -0.0909
   30CHL1  H18A 3354   2.889   5.130   4.966 -1.1613  0.8444 -0.6331
   30CHL1  H18B 3355   2.852   5.076   5.125 -2.7216 -2.3409  0.7619
   30CHL1  H18C 3356   2.774   4.981   5.004 -0.3683 -0.2160  2.0234
   30CHL1   C12 3357   2.714   5.326   5.026  0.7830 -0.2967 -0.0937
   30CHL1  H12A 3358   2.791   5.372   4.960 -0.4798 -0.3134 -1.6178
   30CHL1  H12B 3359   2.620   5.383   5.012  1.8509  1.3796 -0.6376
   30CHL1   C11 3360   2.757   5.349   5.171 -0.1241 -0.3373 -0.2171
   30CHL1  H11A 3361   2.858   5.302   5.182  0.4803  1.5810  3.0576
   30CHL1  H11B 3362   2.764   5.459   5.181 -0.9758 -0.2734 -0.3093
   30CHL1    C9 3363   2.657   5.295   5.278  0.3160  0.4313  0.3186
   30CHL1    H9 3364   2.564   5.354   5.264  0.4627  0.4153 -0.7486
   30CHL1   C10 3365   2.698   5.327   5.429  0.0129 -0.4101  0.2152
   30CHL1   C19 3366   2.853   5.305   5.453  0.1333 -0.0788  0.2657
   30CHL1  H19A 3367   2.887   5.322   5.557  1.4266  0.7967 -0.2854
   30CHL1  H19B 3368   2.883   5.199   5.435  0.1281  0.1419 -1.1007
   30CHL1  H19C 3369   2.913   5.380   5.396  1.2858  0.0723  1.6421
   30CHL1    C1 3370   2.662   5.473   5.453 -0.0994 -0.3606 -0.0825
   30CHL1   H1A 3371   2.731   5.539   5.396  1.5364 -1.0099  1.1131
   30CHL1   H1B 3372   2.562   5.497   5.410 -0.4503  0.6245  1.2266
   30CHL1    C2 3373   2.673   5.519   5.608  0.3114 -0.1081  0.2383
   30CHL1   H2A 3374   2.655   5.628   5.620 -0.5084 -0.2114 -0.0360
   30CHL1   H2B 3375   2.777   5.499   5.640  0.3029 -0.9279 -0.2271
   30CHL1   C20 3376   2.699   5.108   4.761 -0.3292  0.5991  0.6051
   30CHL1   H20 3377   2.742   5.006   4.775 -0.4343  0.6324  1.1988
   30CHL1   C21 3378   2.804   5.215   4.726  0.0890 -0.8897  0.3957
   30CHL1  H21A 3379   2.882   5.235   4.802  1.2868  0.6177 -1.1970
   30CHL1  H21B 3380   2.751   5.311   4.708 -2.8478 -3.0653 -3.0995
   30CHL1  H21C 3381   2.863   5.183   4.638  0.6911  2.2751 -0.4191
   30CHL1   C22 3382   2.604   5.091   4.642  0.2998 -0.2725 -0.3474
   30CHL1  H22A 3383   2.518   5.022   4.655 -0.4218 -0.0849 -3.5573
   30CHL1  H22B 3384   2.561   5.190   4.617 -1.4388 -0.8637  0.2064
   30CHL1   C23 3385   2.671   5.034   4.514 -0.2814  0.2548 -0.3676
   30CHL1  H23A 3386   2.748   5.110   4.490  0.0652  0.5653  1.6851
   30CHL1  H23B 3387   2.704   4.930   4.536 -2.0829 -0.4501 -0.8435
   30CHL1   C24 3388   2.580   5.027   4.392  0.6374 -0.2491  0.3677
   30CHL1  H24A 3389   2.491   4.964   4.411 -1.0792  1.7537 -0.7707
   30CHL1  H24B 3390   2.527   5.123   4.372  0.6679  0.1784  2.2056
   30CHL1   C25 3391   2.648   4.977   4.263  0.0085  0.1063  0.2218
   30CHL1   H25 3392   2.734   5.043   4.239 -0.9642  1.1595 -0.3976
   30CHL1   C26 3393   2.704   4.837   4.270 -0.0980  0.7909  0.0588
   30CHL1  H26A 3394   2.784   4.819   4.344  0.7322 -1.9670 -1.4299
   30CHL1  H26B 3395   2.629   4.757   4.288 -0.7747  1.1461 -1.1096
   30CHL1  H26C 3396   2.753   4.812   4.173 -0.3879  1.5400 -0.2842
   30CHL1   C27 3397   2.546   4.984   4.145  0.2407  0.0893 -0.0399
   30CHL1  H27A 3398   2.468   4.907   4.159  1.1180 -0.6494  0.8664
   30CHL1  H27B 3399   2.509   5.088   4.129 -0.1246  0.0414  0.4663
   30CHL1  H27C 3400   2.607   4.942   4.062 -0.6028  0.0913 -0.6608
   31CHL1    C3 3401   1.637   4.932   5.828  0.0163 -0.0841  0.4013
   31CHL1    H3 3402   1.705   4.845   5.822  0.0189 -0.0198 -0.6820
   31CHL1    O3 3403   1.622   4.967   5.961 -0.5537  0.2628  0.1610
   31CHL1   H3' 3404   1.576   4.897   6.008  0.5711 -1.5941 -1.4464
   31CHL1    C4 3405   1.679   5.054   5.736  0.0366 -0.6133  0.0939
   31CHL1   H4A 3406   1.605   5.135   5.754  1.9893  1.3791 -0.5927
   31CHL1   H4B 3407   1.774   5.088   5.782 -0.1834  1.0871 -0.6697
   31CHL1    C5 3408   1.684   5.021   5.588 -0.0563 -0.2495 -1.8283
   31CHL1    C6 3409   1.802   5.031   5.524  0.3992  0.1746  0.1350
   31CHL1    H6 3410   1.880   5.058   5.596  0.8116 -2.2634  0.6527
   31CHL1    C7 3411   1.828   4.985   5.382  0.3343  0.2784  0.8845
   31CHL1   H7A 3412   1.897   5.060   5.338  0.2726  0.1416  0.5538
   31CHL1   H7B 3413   1.870   4.882   5.388  0.8984  0.5556  1.6644
   31CHL1    C8 3414   1.696   4.981   5.301 -0.3291  0.7100  0.0926
   31CHL1    H8 3415   1.655   5.083   5.289 -0.9580  0.5999  1.2728
   31CHL1   C14 3416   1.714   4.907   5.173 -0.2114  0.8512  0.4033
   31CHL1   H14 3417   1.747   4.802   5.187  1.0455  0.7781 -2.6778
   31CHL1   C15 3418   1.823   4.970   5.090  0.5356  0.2696  0.0287
   31CHL1  H15A 3419   1.813   5.080   5.080 -1.0606  0.1222 -0.1144
   31CHL1  H15B 3420   1.925   4.943   5.125 -0.1759 -0.9304  1.1820
   31CHL1   C16 3421   1.787   4.918   4.942  0.8048 -0.0751 -0.4143
   31CHL1  H16A 3422   1.758   5.004   4.879  0.9277  0.3556  0.1221
   31CHL1  H16B 3423   1.865   4.848   4.903 -0.2738 -0.9672 -1.0113
   31CHL1   C17 3424   1.656   4.837   4.957  0.5444  0.7290  1.0472
   31CHL1   H17 3425   1.697   4.735   4.973 -1.0050 -0.2328 -0.9144
   31CHL1   C13 3426   1.589   4.894   5.083 -0.5840 -0.0200  0.6689
   31CHL1   C18 3427   1.518   5.034   5.052 -0.2913 -0.1456  0.7107
   31CHL1  H18A 3428   1.586   5.104   4.999 -1.7736  1.1782  0.5334
   31CHL1  H18B 3429   1.429   5.025   4.986  0.8711  1.0555 -1.0821
   31CHL1  H18C 3430   1.492   5.095   5.141  0.1239  0.2743  0.5488
   31CHL1   C12 3431   1.495   4.802   5.160  0.4596 -0.0005  0.6006
   31CHL1  H12A 3432   1.397   4.790   5.108 -0.2673  0.5003  1.8165
   31CHL1  H12B 3433   1.543   4.703   5.167  0.1283 -0.0881  1.7399
   31CHL1   C11 3434   1.462   4.857   5.299 -0.0718 -0.1438 -0.0694
   31CHL1  H11A 3435   1.412   4.956   5.285  0.5177  0.1363 -0.2297
   31CHL1  H11B 3436   1.395   4.781   5.345 -0.1759  0.0886  0.1641
   31CHL1    C9 3437   1.590   4.900   5.383 -0.0793  0.0099 -0.4259
   31CHL1    H9 3438   1.634   4.800   5.402 -1.7797 -1.1535 -2.4231
   31CHL1   C10 3439   1.562   4.961   5.519  0.0095 -0.7239 -0.2201
   31CHL1   C19 3440   1.460   5.082   5.514  0.0045 -0.4389  0.9776
   31CHL1  H19A 3441   1.489   5.169   5.451  0.6215 -1.1463  0.2813
   31CHL1  H19B 3442   1.362   5.044   5.478  0.1683 -0.7098  0.8152
   31CHL1  H19C 3443   1.431   5.121   5.614  2.2740 -0.0367  1.5090
   31CHL1    C1 3444   1.501   4.857   5.625  0.9533  0.4924 -0.3577
   31CHL1   H1A 3445   1.398   4.830   5.592  0.7779  1.0140 -0.2466
   31CHL1   H1B 3446   1.567   4.768   5.618 -0.0227 -0.2040 -0.9079
   31CHL1    C2 3447   1.503   4.892   5.772 -0.3622  0.3999  0.0965
   31CHL1   H2A 3448   1.463   4.809   5.834  0.1576  0.0759 -0.0008
   31CHL1   H2B 3449   1.431   4.974   5.791  0.3027  0.6027  1.9017
   31CHL1   C20 3450   1.577   4.826   4.826  0.5889 -0.0553 -0.1012
   31CHL1   H20 3451   1.489   4.894   4.835  0.1884 -0.7255  1.1897
   31CHL1   C21 3452   1.497   4.694   4.827 -0.1770  0.5927  0.0354
   31CHL1  H21A 3453   1.407   4.689   4.762  0.6862  0.5363 -1.1584
   31CHL1  H21B 3454   1.456   4.680   4.930  1.8803 -0.5883  0.7260
   31CHL1  H21C 3455   1.567   4.611   4.804 -0.6532  0.2077 -0.0286
   31CHL1   C22 3456   1.655   4.844   4.694 -0.3486 -0.5168  0.0862
   31CHL1  H22A 3457   1.688   4.949   4.679  0.6357 -0.9123 -0.5512
   31CHL1  H22B 3458   1.739   4.771   4.700  3.0820  3.2209  0.1630
   31CHL1   C23 3459   1.572   4.797   4.581  0.2335 -0.3238  0.4527
   31CHL1  H23A 3460   1.576   4.688   4.562 -0.8898 -0.3569  0.3712
   31CHL1  H23B 3461   1.469   4.839   4.587  0.8957  1.6021 -1.0423
   31CHL1   C24 3462   1.620   4.860   4.449  0.0797  0.2012 -0.2438
   31CHL1  H24A 3463   1.549   4.816   4.376 -1.4254  0.8205  0.8167
   31CHL1  H24B 3464   1.619   4.971   4.448  1.2782  0.2253 -0.8154
   31CHL1   C25 3465   1.762   4.810   4.414  0.0285  0.3562 -0.1329
   31CHL1   H25 3466   1.827   4.850   4.495  2.0241 -1.3042 -0.8812
   31CHL1   C26 3467   1.785   4.657   4.415 -0.2198 -0.2635 -0.4954
   31CHL1  H26A 3468   1.754   4.610   4.510 -1.1564  2.6379  0.6979
   31CHL1  H26B 3469   1.722   4.606   4.339  0.1057 -0.8961 -0.3482
   31CHL1  H26C 3470   1.881   4.613   4.381 -0.1769 -0.2944 -0.3341
   31CHL1   C27 3471   1.798   4.867   4.279 -0.3614 -0.6870  0.6902
   31CHL1  H27A 3472   1.771   4.973   4.261 -0.9549 -0.9410  0.0907
   31CHL1  H27B 3473   1.907   4.869   4.260  0.4692  0.2392  5.0442
   31CHL1  H27C 3474   1.747   4.805   4.202  0.7780 -1.2135  0.3470
   32CHL1    C3 3475   4.323   1.272   5.694  0.4904 -0.1589  0.2475
   32CHL1    H3 3476   4.420   1.219   5.687  1.4944  1.6949 -0.1058
   32CHL1    O3 3477   4.304   1.328   5.821 -0.0659  0.2922 -0.4930
   32CHL1   H3' 3478   4.210   1.347   5.827  0.6144  3.2734  2.0845
   32CHL1    C4 3479   4.331   1.394   5.601 -0.3589 -0.4073 -0.4260
   32CHL1   H4A 3480   4.254   1.472   5.619 -0.2386 -0.1989 -0.8074
   32CHL1   H4B 3481   4.428   1.447   5.616 -1.1301  0.4054  1.9784
   32CHL1    C5 3482   4.316   1.363   5.452  0.0121  0.4747 -0.2916
   32CHL1    C6 3483   4.402   1.427   5.370 -0.2305  0.4726  0.2414
   32CHL1    H6 3484   4.470   1.503   5.409  0.1055  1.0229 -1.3680
   32CHL1    C7 3485   4.401   1.417   5.216 -0.0560  0.1827  0.6765
   32CHL1   H7A 3486   4.403   1.518   5.170  0.3139  0.0309  0.3552
   32CHL1   H7B 3487   4.490   1.356   5.189 -1.1538 -1.5393  0.8483
   32CHL1    C8 3488   4.276   1.336   5.155 -0.5093 -0.2723  0.0002
   32CHL1    H8 3489   4.191   1.406   5.152 -0.1042  0.2245  0.0516
   32CHL1   C14 3490   4.320   1.283   5.015  1.0803 -0.3842 -0.6643
   32CHL1   H14 3491   4.399   1.208   5.037 -0.6885 -2.1729 -0.2744
   32CHL1   C15 3492   4.374   1.380   4.911  0.0517 -0.6502  0.2280
   32CHL1  H15A 3493   4.317   1.474   4.927  0.7625  0.2974 -2.5646
   32CHL1  H15B 3494   4.479   1.396   4.945  0.1206 -0.4272 -0.0899
   32CHL1   C16 3495   4.344   1.312   4.777  0.2044 -1.0589  0.7915
   32CHL1  H16A 3496   4.282   1.378   4.713  0.9937 -0.8258  0.2490
   32CHL1  H16B 3497   4.443   1.286   4.734  0.6748 -0.5052  1.5204
   32CHL1   C17 3498   4.271   1.179   4.811  0.5788  0.1844 -0.5001
   32CHL1   H17 3499   4.343   1.096   4.827  0.5785  0.1382 -0.7349
   32CHL1   C13 3500   4.210   1.209   4.948  1.0310  0.3295 -0.4666
   32CHL1   C18 3501   4.085   1.302   4.929 -0.7718  0.0257  0.2433
   32CHL1  H18A 3502   4.110   1.369   4.844  0.8511 -1.8712 -0.7966
   32CHL1  H18B 3503   4.005   1.228   4.905  0.9941 -1.1347 -2.2072
   32CHL1  H18C 3504   4.057   1.369   5.013  1.1005  0.3360  0.6298
   32CHL1   C12 3505   4.189   1.085   5.035  0.4272  0.5020 -0.6534
   32CHL1  H12A 3506   4.112   1.016   4.995 -1.9434  1.9353  1.2575
   32CHL1  H12B 3507   4.283   1.025   5.037  0.4068  0.4454 -1.4161
   32CHL1   C11 3508   4.147   1.116   5.186 -0.0795 -0.8768  1.1615
   32CHL1  H11A 3509   4.043   1.153   5.178  0.2481 -0.5578 -2.3694
   32CHL1  H11B 3510   4.151   1.037   5.265 -0.3995 -0.2134  1.8403
   32CHL1    C9 3511   4.241   1.225   5.251  0.2265  0.4600  0.8482
   32CHL1    H9 3512   4.333   1.164   5.264  0.3060  0.4269  0.1534
   32CHL1   C10 3513   4.210   1.264   5.395 -0.0292 -0.5722  1.0943
   32CHL1   C19 3514   4.067   1.317   5.411 -0.8783 -0.3066 -0.2724
   32CHL1  H19A 3515   4.048   1.401   5.340 -0.7975  0.6022  0.7743
   32CHL1  H19B 3516   3.994   1.239   5.382 -0.3369 -0.5978 -0.8695
   32CHL1  H19C 3517   4.042   1.354   5.513  1.8143 -2.6310  1.2824
   32CHL1    C1 3518   4.226   1.148   5.500 -0.0577  0.3442  0.0234
   32CHL1   H1A 3519   4.144   1.074   5.485  1.2454 -0.5871 -2.7506
   32CHL1   H1B 3520   4.318   1.090   5.481  1.4075  2.8705 -0.7311
   32CHL1    C2 3521   4.210   1.180   5.649 -0.4979  1.0658  0.6657
   32CHL1   H2A 3522   4.212   1.090   5.715 -0.7765 -0.4951 -1.3796
   32CHL1   H2B 3523   4.109   1.223   5.666 -1.5925 -0.8951 -0.5994
   32CHL1   C20 3524   4.174   1.140   4.693 -0.0805 -0.1628 -0.3684
   32CHL1   H20 3525   4.096   1.216   4.671  1.2670  0.5392 -3.0003
   32CHL1   C21 3526   4.098   1.003   4.724 -0.0992 -0.8564  0.1992
   32CHL1  H21A 3527   4.021   1.009   4.803 -0.1007  0.8713  0.0795
   32CHL1  H21B 3528   4.182   0.930   4.736  1.5932  1.6380  4.5310
   32CHL1  H21C 3529   4.043   0.965   4.635  0.6500 -0.6030 -0.3785
   32CHL1   C22 3530   4.259   1.130   4.561 -0.0416  0.2397  0.5724
   32CHL1  H22A 3531   4.303   1.231   4.542  1.0090 -0.0925  1.1931
   32CHL1  H22B 3532   4.335   1.050   4.568 -1.0697 -0.6834  1.3100
   32CHL1   C23 3533   4.175   1.104   4.433 -0.5771 -0.0130  0.5686
   32CHL1  H23A 3534   4.140   0.998   4.433  0.0035 -0.2494 -2.6091
   32CHL1  H23B 3535   4.087   1.170   4.420 -0.0578  0.0950 -2.8077
   32CHL1   C24 3536   4.259   1.119   4.304 -0.1354 -0.5274  0.5582
   32CHL1  H24A 3537   4.295   1.224   4.301  2.5849 -1.4619 -0.7317
   32CHL1  H24B 3538   4.340   1.043   4.306 -1.0118 -1.5187 -0.7274
   32CHL1   C25 3539   4.182   1.108   4.175 -0.5343 -0.0816 -0.3860
   32CHL1   H25 3540   4.101   1.184   4.169 -0.4184  0.0476 -0.2757
   32CHL1   C26 3541   4.265   1.130   4.047 -0.0719  0.1017 -0.9048
   32CHL1  H26A 3542   4.337   1.045   4.043  0.6350  0.6617 -0.0653
   32CHL1  H26B 3543   4.205   1.138   3.953  0.8276  0.5609 -1.4498
   32CHL1  H26C 3544   4.321   1.225   4.057 -0.6657  0.3010  0.6473
   32CHL1   C27 3545   4.117   0.970   4.162 -0.8251 -0.0499  0.1708
   32CHL1  H27A 3546   4.197   0.893   4.168  1.0813  1.8529 -0.1228
   32CHL1  H27B 3547   4.032   0.956   4.232  0.0597  1.5238  1.6029
   32CHL1  H27C 3548   4.072   0.962   4.061 -0.0993  0.6620 -0.2153
   33CHL1    C3 3549   1.204   3.994   5.655 -0.0205 -0.6487  0.6126
   33CHL1    H3 3550   1.109   4.052   5.649  2.1234  2.7513 -1.8235
   33CHL1    O3 3551   1.264   4.012   5.774  0.6222 -0.3690 -0.7217
   33CHL1   H3' 3552   1.337   3.950   5.774  0.3327 -0.7160  0.4185
   33CHL1    C4 3553   1.173   3.845   5.630 -0.0197  0.3567 -0.8960
   33CHL1   H4A 3554   1.259   3.781   5.658 -0.2952 -0.7139 -2.4332
   33CHL1   H4B 3555   1.100   3.808   5.705  1.7037 -2.3106 -0.4776
   33CHL1    C5 3556   1.122   3.832   5.487  0.1843  0.0263 -0.3458
   33CHL1    C6 3557   1.001   3.785   5.461  0.2690  0.1768 -0.5777
   33CHL1    H6 3558   0.933   3.768   5.546  0.4461 -0.2041 -0.5130
   33CHL1    C7 3559   0.944   3.753   5.327  0.2810 -0.0259  0.1265
   33CHL1   H7A 3560   0.907   3.649   5.327  0.0426  0.0581  0.5837
   33CHL1   H7B 3561   0.866   3.826   5.296  0.0590 -0.3641 -0.1141
   33CHL1    C8 3562   1.062   3.754   5.221 -0.3814 -0.3476  0.7763
   33CHL1    H8 3563   1.114   3.659   5.243 -1.5780 -0.8281  1.6426
   33CHL1   C14 3564   0.988   3.762   5.086 -0.2105 -1.1902  0.3272
   33CHL1   H14 3565   0.945   3.865   5.082  0.3056 -0.9725  0.3290
   33CHL1   C15 3566   0.876   3.657   5.061 -0.1254 -0.1144 -0.0515
   33CHL1  H15A 3567   0.913   3.564   5.108 -0.2969 -1.9133 -3.3044
   33CHL1  H15B 3568   0.781   3.696   5.103  0.5234 -0.4045  1.7391
   33CHL1   C16 3569   0.871   3.647   4.905  0.6214  0.3411  0.1941
   33CHL1  H16A 3570   0.893   3.542   4.877  0.7076  0.6764 -1.0415
   33CHL1  H16B 3571   0.776   3.682   4.859  1.3945  1.3984 -0.6391
   33CHL1   C17 3572   0.984   3.747   4.852 -0.2246  0.0328 -0.2748
   33CHL1   H17 3573   0.921   3.839   4.846 -0.6699 -0.3550 -1.7957
   33CHL1   C13 3574   1.081   3.763   4.968 -0.3638 -0.4004  0.3547
   33CHL1   C18 3575   1.180   3.641   4.970  0.3119 -0.2642 -0.5690
   33CHL1  H18A 3576   1.118   3.549   4.964 -3.3495  2.0838 -0.3229
   33CHL1  H18B 3577   1.249   3.637   4.883  0.8936 -3.3868 -0.0335
   33CHL1  H18C 3578   1.251   3.634   5.055 -0.7696  1.8534  0.5437
   33CHL1   C12 3579   1.170   3.888   4.977 -0.0458 -0.0608 -0.2881
   33CHL1  H12A 3580   1.234   3.904   4.889 -0.3273 -1.1555 -0.6998
   33CHL1  H12B 3581   1.107   3.979   4.979  0.0217  0.0068 -1.2446
   33CHL1   C11 3582   1.244   3.891   5.112  0.4865  0.3214  0.0175
   33CHL1  H11A 3583   1.321   3.812   5.127  0.2655 -0.1511 -1.3210
   33CHL1  H11B 3584   1.303   3.984   5.129  1.2414 -0.2386  0.5189
   33CHL1    C9 3585   1.153   3.874   5.234  0.6296  0.5228 -0.6779
   33CHL1    H9 3586   1.081   3.959   5.226  1.7644  1.5366 -0.2937
   33CHL1   C10 3587   1.217   3.876   5.378  0.1660  0.0079  0.5162
   33CHL1   C19 3588   1.348   3.791   5.379 -0.2533 -0.5705 -0.3157
   33CHL1  H19A 3589   1.401   3.797   5.476 -0.6165  0.8109 -0.1921
   33CHL1  H19B 3590   1.335   3.684   5.350 -1.4237 -0.1427 -1.4313
   33CHL1  H19C 3591   1.423   3.837   5.312 -0.7717 -0.6072 -0.9230
   33CHL1    C1 3592   1.250   4.022   5.411 -0.0582  0.2758 -0.1284
   33CHL1   H1A 3593   1.320   4.083   5.350  0.0606  1.9441  1.6059
   33CHL1   H1B 3594   1.161   4.086   5.394 -1.3370 -1.3456  0.3405
   33CHL1    C2 3595   1.302   4.046   5.548  0.1801 -0.4710 -0.0195
   33CHL1   H2A 3596   1.317   4.155   5.560 -4.5451  0.3172 -0.5044
   33CHL1   H2B 3597   1.400   3.997   5.567  1.3160  1.2399 -1.3134
   33CHL1   C20 3598   1.029   3.715   4.709 -0.0354  0.2020  0.6842
   33CHL1   H20 3599   1.084   3.619   4.707 -0.6386 -0.1313 -0.1981
   33CHL1   C21 3600   1.135   3.816   4.648 -0.1374  0.0500 -0.1875
   33CHL1  H21A 3601   1.152   3.791   4.541  1.0562 -0.2349  0.0696
   33CHL1  H21B 3602   1.232   3.795   4.698  0.0547 -1.1753 -1.0461
   33CHL1  H21C 3603   1.095   3.918   4.666  1.3383  0.9253 -1.7440
   33CHL1   C22 3604   0.910   3.706   4.603  0.4366  0.2128 -0.6223
   33CHL1  H22A 3605   0.825   3.649   4.646  3.0356 -1.0648  3.0128
   33CHL1  H22B 3606   0.872   3.810   4.594 -0.4828  0.1872  2.2796
   33CHL1   C23 3607   0.947   3.640   4.470 -0.3337 -0.4849 -0.0614
   33CHL1  H23A 3608   1.006   3.714   4.412 -1.3735  1.6126  1.5171
   33CHL1  H23B 3609   1.016   3.556   4.495  0.8010 -0.0315 -1.5495
   33CHL1   C24 3610   0.822   3.589   4.394 -0.3072 -0.0033 -0.1108
   33CHL1  H24A 3611   0.760   3.517   4.451  1.1931 -0.3392  1.1313
   33CHL1  H24B 3612   0.752   3.675   4.392 -1.5959 -1.0756 -1.7487
   33CHL1   C25 3613   0.839   3.544   4.253 -0.2048 -0.2006  0.2916
   33CHL1   H25 3614   0.862   3.639   4.200  1.1696 -0.3799  0.5535
   33CHL1   C26 3615   0.947   3.446   4.225 -0.0569  0.5194 -0.3173
   33CHL1  H26A 3616   0.970   3.423   4.119 -1.4298  1.0401 -0.7433
   33CHL1  H26B 3617   1.036   3.496   4.268  0.4706  0.4981 -1.3826
   33CHL1  H26C 3618   0.924   3.350   4.278 -0.1147 -0.6497 -2.4055
   33CHL1   C27 3619   0.709   3.488   4.200 -0.8544  0.2424  0.7833
   33CHL1  H27A 3620   0.628   3.484   4.276 -0.1742 -1.8414  1.4161
   33CHL1  H27B 3621   0.666   3.552   4.119 -2.5020 -0.0948  1.3713
   33CHL1  H27C 3622   0.724   3.383   4.167  1.9969  0.9803 -0.3943
   34CHL1    C3 3623   1.808   5.553   5.820  0.0782 -0.7433  0.7914
   34CHL1    H3 3624   1.915   5.542   5.849  0.4834 -1.9781 -1.1216
   34CHL1    O3 3625   1.730   5.576   5.940 -0.0139 -0.8420  0.4211
   34CHL1   H3' 3626   1.644   5.602   5.908 -0.6348 -1.3876  1.6225
   34CHL1    C4 3627   1.798   5.677   5.727  1.0299  0.1029 -0.7601
   34CHL1   H4A 3628   1.693   5.708   5.745  0.6475 -0.8461 -1.3230
   34CHL1   H4B 3629   1.873   5.748   5.767  1.0558 -0.8524  0.9696
   34CHL1    C5 3630   1.818   5.656   5.580 -0.4899 -0.1930 -0.4049
   34CHL1    C6 3631   1.908   5.726   5.510 -0.5913 -0.0285  0.3785
   34CHL1    H6 3632   1.967   5.806   5.558 -1.2376  0.7841 -0.1661
   34CHL1    C7 3633   1.929   5.712   5.360 -0.2642  0.1537  0.2185
   34CHL1   H7A 3634   1.919   5.812   5.315  1.0706  0.1912 -0.0267
   34CHL1   H7B 3635   2.025   5.658   5.346 -1.5383 -1.4843 -2.4521
   34CHL1    C8 3636   1.821   5.625   5.288  0.1852  0.0837  0.8483
   34CHL1    H8 3637   1.725   5.678   5.270 -0.3849 -1.0439  0.5196
   34CHL1   C14 3638   1.867   5.582   5.156 -0.3803  0.6145  0.1785
   34CHL1   H14 3639   1.947   5.505   5.164 -1.1345 -0.0063  2.1016
   34CHL1   C15 3640   1.921   5.696   5.061 -1.0972  0.2633  0.1745
   34CHL1  H15A 3641   1.854   5.785   5.071 -1.9903 -0.5342  1.3914
   34CHL1  H15B 3642   2.025   5.726   5.082 -0.0574 -1.6651 -1.9395
   34CHL1   C16 3643   1.921   5.622   4.924  0.2165 -0.1506 -0.2819
   34CHL1  H16A 3644   1.868   5.676   4.843  0.0011 -1.6749 -1.1626
   34CHL1  H16B 3645   2.020   5.594   4.885  0.0777 -1.6579  0.4021
   34CHL1   C17 3646   1.844   5.491   4.939 -0.3409 -0.0481  0.7558
   34CHL1   H17 3647   1.925   5.418   4.962  2.4353  1.5586 -3.2584
   34CHL1   C13 3648   1.769   5.500   5.071  0.3174  0.2869  0.5179
   34CHL1   C18 3649   1.637   5.576   5.044 -0.5258 -0.3381 -0.4874
   34CHL1  H18A 3650   1.598   5.601   5.146  0.9803 -0.1345  0.0442
   34CHL1  H18B 3651   1.653   5.674   4.995  3.2990 -0.8161 -0.3089
   34CHL1  H18C 3652   1.562   5.519   4.986 -0.7259 -1.2430  0.6382
   34CHL1   C12 3653   1.748   5.368   5.149 -0.6811  0.4600 -0.3301
   34CHL1  H12A 3654   1.673   5.304   5.099  0.1502 -1.2713  0.5554
   34CHL1  H12B 3655   1.847   5.318   5.161 -0.7392  1.0764  3.5657
   34CHL1   C11 3656   1.704   5.392   5.295  0.3814 -1.2399  0.0197
   34CHL1  H11A 3657   1.602   5.434   5.282  1.4439  1.6968  0.7133
   34CHL1  H11B 3658   1.692   5.292   5.342 -2.5641 -1.9264 -1.9919
   34CHL1    C9 3659   1.784   5.497   5.373 -0.5249  0.7526 -0.7186
   34CHL1    H9 3660   1.884   5.454   5.394 -1.8838 -1.1876  2.1896
   34CHL1   C10 3661   1.744   5.536   5.521 -0.5334  0.0734  0.3481
   34CHL1   C19 3662   1.591   5.563   5.513  0.3087 -0.4436  0.3436
   34CHL1  H19A 3663   1.571   5.637   5.432 -0.3745  0.5862  1.4357
   34CHL1  H19B 3664   1.531   5.472   5.492  0.9570 -1.3253  2.1450
   34CHL1  H19C 3665   1.552   5.613   5.604 -2.0983 -0.0810 -0.8470
   34CHL1    C1 3666   1.774   5.411   5.610  0.1188 -0.1765  0.5058
   34CHL1   H1A 3667   1.695   5.336   5.586  0.6427 -0.9315  1.1216
   34CHL1   H1B 3668   1.876   5.371   5.595 -0.0319  0.3486 -2.0618
   34CHL1    C2 3669   1.744   5.434   5.761 -0.0704  0.0938  0.3740
   34CHL1   H2A 3670   1.775   5.351   5.828 -0.3560 -0.0621  0.3165
   34CHL1   H2B 3671   1.633   5.442   5.764 -0.1035 -0.1592 -0.1643
   34CHL1   C20 3672   1.775   5.438   4.809 -0.5223 -0.2476 -0.4851
   34CHL1   H20 3673   1.693   5.506   4.777 -0.9052 -1.0759 -1.2628
   34CHL1   C21 3674   1.718   5.295   4.838  0.0826 -0.3582 -0.5141
   34CHL1  H21A 3675   1.778   5.235   4.910 -1.0022 -0.1292  0.5858
   34CHL1  H21B 3676   1.693   5.234   4.749  4.2127 -0.2454 -1.8449
   34CHL1  H21C 3677   1.622   5.312   4.892 -0.1138 -0.2206 -0.9073
   34CHL1   C22 3678   1.871   5.427   4.691 -0.4636  0.1551  0.7140
   34CHL1  H22A 3679   1.924   5.523   4.673  1.4499 -1.4815 -2.7629
   34CHL1  H22B 3680   1.948   5.349   4.709  0.1995  0.5324 -0.4710
   34CHL1   C23 3681   1.802   5.400   4.553 -0.1324  0.4683 -0.2426
   34CHL1  H23A 3682   1.761   5.297   4.556  0.6151  0.1539 -0.5239
   34CHL1  H23B 3683   1.717   5.470   4.538  0.3450  1.0575 -0.2155
   34CHL1   C24 3684   1.910   5.396   4.448  0.6527  0.1092 -0.4292
   34CHL1  H24A 3685   2.003   5.356   4.495 -1.0988 -3.5302  0.1549
   34CHL1  H24B 3686   1.870   5.338   4.362 -2.9859  0.1296  1.1804
   34CHL1   C25 3687   1.931   5.540   4.392 -0.2588  1.1705 -1.0344
   34CHL1   H25 3688   1.889   5.617   4.460 -2.9100 -1.2523  0.1823
   34CHL1   C26 3689   2.079   5.567   4.356 -0.2708  0.6042 -0.0780
   34CHL1  H26A 3690   2.138   5.553   4.449 -0.2830 -1.9575 -0.4345
   34CHL1  H26B 3691   2.112   5.486   4.288 -1.1271 -0.8409  1.2070
   34CHL1  H26C 3692   2.081   5.669   4.310 -2.4906  0.6707 -0.0716
   34CHL1   C27 3693   1.859   5.549   4.256  0.0068  0.7345  0.2407
   34CHL1  H27A 3694   1.893   5.468   4.189  2.5155  1.2197  0.8986
   34CHL1  H27B 3695   1.748   5.539   4.265 -0.0206 -0.4682 -1.3428
   34CHL1  H27C 3696   1.877   5.644   4.202 -0.1560  0.5718 -0.1023
   35CHL1    C3 3697   2.404   5.849   5.745  0.0216 -0.5586  0.4777
   35CHL1    H3 3698   2.507   5.809   5.749  0.2729 -0.3358 -2.6282
   35CHL1    O3 3699   2.362   5.897   5.871 -0.2420 -0.1177  0.4229
   35CHL1   H3' 3700   2.285   5.846   5.894  0.2921 -0.9663  0.3559
   35CHL1    C4 3701   2.416   5.978   5.654  0.2432  0.7695  0.1041
   35CHL1   H4A 3702   2.325   6.041   5.654  1.4242  2.5150  0.3912
   35CHL1   H4B 3703   2.489   6.041   5.710  2.1227 -1.7597  0.6215
   35CHL1    C5 3704   2.455   5.940   5.518 -0.1632 -0.1348  1.0211
   35CHL1    C6 3705   2.574   5.988   5.467 -0.5132 -0.1619 -0.1375
   35CHL1    H6 3706   2.642   6.062   5.512  0.4458  0.6492 -2.8229
   35CHL1    C7 3707   2.625   5.938   5.332  0.3212  1.2198  0.4790
   35CHL1   H7A 3708   2.678   6.016   5.272  0.6703  1.5934  1.2589
   35CHL1   H7B 3709   2.692   5.850   5.343  1.3016  1.8903  0.0026
   35CHL1    C8 3710   2.512   5.882   5.239 -0.5039  0.3657 -0.7373
   35CHL1    H8 3711   2.441   5.966   5.221  0.7417  1.5677 -0.1519
   35CHL1   C14 3712   2.561   5.834   5.106  0.0746  0.5949  0.2175
   35CHL1   H14 3713   2.639   5.757   5.123  1.2288  1.1680 -2.2064
   35CHL1   C15 3714   2.629   5.928   5.008 -0.9444  0.1078 -0.1956
   35CHL1  H15A 3715   2.572   6.023   4.995  1.5773  1.4074 -2.0982
   35CHL1  H15B 3716   2.735   5.953   5.028 -1.1325 -1.5486  3.1387
   35CHL1   C16 3717   2.613   5.852   4.864  0.0087  1.1976 -0.6409
   35CHL1  H16A 3718   2.543   5.915   4.805 -1.4978 -0.1723 -0.3773
   35CHL1  H16B 3719   2.710   5.846   4.811  1.3397 -0.2351  1.8675
   35CHL1   C17 3720   2.538   5.715   4.886 -0.0906 -0.5427  0.0373
   35CHL1   H17 3721   2.622   5.648   4.916  0.1716 -0.1458  0.1996
   35CHL1   C13 3722   2.465   5.747   5.024  0.1773  0.7864 -0.1218
   35CHL1   C18 3723   2.337   5.830   4.999 -0.4747  0.0218 -0.1599
   35CHL1  H18A 3724   2.276   5.870   5.083  1.2804  1.9144  0.2669
   35CHL1  H18B 3725   2.375   5.922   4.949  3.4280 -1.0843  0.6256
   35CHL1  H18C 3726   2.267   5.771   4.936  1.1109  0.5065 -2.4359
   35CHL1   C12 3727   2.434   5.626   5.108 -0.2979  0.0223  0.3784
   35CHL1  H12A 3728   2.360   5.569   5.046  0.6993  1.3024 -2.0568
   35CHL1  H12B 3729   2.520   5.556   5.107 -0.0122  0.3785  0.3982
   35CHL1   C11 3730   2.361   5.667   5.245  0.5013 -0.2427  0.0081
   35CHL1  H11A 3731   2.258   5.701   5.222 -0.2208 -1.3605  1.5127
   35CHL1  H11B 3732   2.342   5.579   5.309  0.3670  0.6997  1.2757
   35CHL1    C9 3733   2.436   5.777   5.328 -0.2557 -0.0153 -0.0229
   35CHL1    H9 3734   2.513   5.709   5.369  0.5342  0.5664 -0.5468
   35CHL1   C10 3735   2.365   5.834   5.450 -0.5328 -0.3065 -0.5732
   35CHL1   C19 3736   2.236   5.908   5.403 -0.5347 -0.5577 -0.3356
   35CHL1  H19A 3737   2.256   5.958   5.307 -0.3424 -0.6636 -0.3505
   35CHL1  H19B 3738   2.150   5.837   5.398 -0.4151 -0.9617  2.3245
   35CHL1  H19C 3739   2.218   5.985   5.482  0.4412  0.4234 -1.0642
   35CHL1    C1 3740   2.338   5.715   5.551  0.3015  0.3180  0.1089
   35CHL1   H1A 3741   2.255   5.654   5.510  0.8639 -0.3049 -0.1031
   35CHL1   H1B 3742   2.424   5.645   5.556 -2.0125 -2.5995  0.4852
   35CHL1    C2 3743   2.302   5.752   5.696 -0.5105 -0.4005  0.6838
   35CHL1   H2A 3744   2.315   5.662   5.758 -0.2838 -0.6537  0.2697
   35CHL1   H2B 3745   2.199   5.792   5.711 -1.2978 -2.2126  0.2577
   35CHL1   C20 3746   2.467   5.671   4.759 -0.4579  0.3646 -0.5379
   35CHL1   H20 3747   2.405   5.749   4.710 -0.5656  1.1697  0.8618
   35CHL1   C21 3748   2.385   5.548   4.791 -0.0263 -0.2140 -0.5602
   35CHL1  H21A 3749   2.331   5.517   4.698  0.8369  1.6244 -1.6925
   35CHL1  H21B 3750   2.306   5.581   4.862 -0.7316 -0.5860 -1.1588
   35CHL1  H21C 3751   2.445   5.463   4.831 -0.2358 -0.7217 -1.2985
   35CHL1   C22 3752   2.575   5.620   4.655  0.3737  0.2765  0.7700
   35CHL1  H22A 3753   2.636   5.707   4.622 -0.4621  0.8492  0.7239
   35CHL1  H22B 3754   2.630   5.548   4.719  1.0857  2.2423  2.4344
   35CHL1   C23 3755   2.517   5.563   4.526 -0.8265  0.0663  0.1300
   35CHL1  H23A 3756   2.484   5.457   4.534 -1.2584  0.1818 -0.1070
   35CHL1  H23B 3757   2.438   5.631   4.487 -1.1488  0.0605  0.7758
   35CHL1   C24 3758   2.628   5.551   4.423 -0.4342  0.4916 -0.3051
   35CHL1  H24A 3759   2.657   5.656   4.403 -0.6307  0.4079 -1.0296
   35CHL1  H24B 3760   2.710   5.492   4.470 -0.4677 -0.3121 -1.2410
   35CHL1   C25 3761   2.582   5.475   4.294  0.7184  0.2404 -0.5330
   35CHL1   H25 3762   2.520   5.385   4.318 -0.9085  1.3482 -0.5322
   35CHL1   C26 3763   2.497   5.559   4.202 -0.2285 -0.0858 -0.2613
   35CHL1  H26A 3764   2.542   5.656   4.174  0.8604 -0.0152  1.6719
   35CHL1  H26B 3765   2.465   5.508   4.109 -2.7667  0.0031  0.5348
   35CHL1  H26C 3766   2.398   5.576   4.248  0.1536 -1.9604  1.2883
   35CHL1   C27 3767   2.710   5.421   4.220 -0.3830 -0.1254  0.3132
   35CHL1  H27A 3768   2.770   5.506   4.181 -0.1854 -1.5618 -2.5899
   35CHL1  H27B 3769   2.781   5.359   4.279  0.5340 -0.2280 -0.8693
   35CHL1  H27C 3770   2.679   5.365   4.130  0.0996  1.5637 -0.9317
   36CHL1    C3 3771   0.753   4.000   5.712 -0.3448  0.4447 -0.0399
   36CHL1    H3 3772   0.837   3.935   5.679 -1.3254 -1.1056  0.4233
   36CHL1    O3 3773   0.727   3.989   5.850 -0.1968  0.0035 -0.3596
   36CHL1   H3' 3774   0.666   3.916   5.863  0.6087 -0.3641  1.5244
   36CHL1    C4 3775   0.780   4.146   5.682  0.3992  0.2311 -0.0466
   36CHL1   H4A 3776   0.694   4.200   5.729 -0.6201 -0.4996 -1.0380
   36CHL1   H4B 3777   0.870   4.184   5.733 -0.8646 -1.3753  3.5239
   36CHL1    C5 3778   0.784   4.169   5.534  0.1848 -0.3404 -0.1094
   36CHL1    C6 3779   0.886   4.231   5.478 -0.1716  0.3031  0.3191
   36CHL1    H6 3780   0.976   4.258   5.535  1.3058 -1.5705 -1.0793
   36CHL1    C7 3781   0.896   4.263   5.333  0.1245 -0.1245  0.6063
   36CHL1   H7A 3782   0.921   4.370   5.321  1.2240 -0.4769 -0.4549
   36CHL1   H7B 3783   0.978   4.214   5.276  0.7956  2.9949 -1.2072
   36CHL1    C8 3784   0.768   4.245   5.247  0.6025  0.3877 -0.5957
   36CHL1    H8 3785   0.685   4.317   5.265  1.4502  1.7914 -2.0640
   36CHL1   C14 3786   0.797   4.240   5.099  0.0163 -0.6163 -0.5953
   36CHL1   H14 3787   0.872   4.160   5.083 -0.2411 -0.9935  0.0615
   36CHL1   C15 3788   0.851   4.370   5.029  0.2511  0.3765 -0.0332
   36CHL1  H15A 3789   0.788   4.458   5.056  0.5937  0.3937  0.7172
   36CHL1  H15B 3790   0.952   4.396   5.066  0.6116 -1.1775  0.0957
   36CHL1   C16 3791   0.841   4.338   4.883 -0.3262  0.1305  0.4457
   36CHL1  H16A 3792   0.812   4.426   4.821 -0.3581 -0.0500  0.2016
   36CHL1  H16B 3793   0.936   4.307   4.835 -1.1470  1.2913 -2.0559
   36CHL1   C17 3794   0.750   4.210   4.871 -0.3926  0.2774  0.1048
   36CHL1   H17 3795   0.819   4.123   4.871  2.5186  2.4056 -2.9681
   36CHL1   C13 3796   0.677   4.207   5.007  0.3571 -0.3317 -0.0717
   36CHL1   C18 3797   0.573   4.326   4.997 -0.4159  1.3184  0.2463
   36CHL1  H18A 3798   0.543   4.342   5.103  1.0089  1.1141  0.6855
   36CHL1  H18B 3799   0.600   4.418   4.941 -0.9195  0.6052 -1.1861
   36CHL1  H18C 3800   0.486   4.281   4.944 -0.8926  0.9518  1.3275
   36CHL1   C12 3801   0.614   4.076   5.054  1.0239  1.2345  0.0357
   36CHL1  H12A 3802   0.519   4.063   4.997  1.0456 -1.4109  0.5662
   36CHL1  H12B 3803   0.685   3.996   5.023 -0.7743 -0.1256 -0.6672
   36CHL1   C11 3804   0.573   4.077   5.207  0.2060  0.0728 -0.3154
   36CHL1  H11A 3805   0.498   4.158   5.216  1.9017  1.7775 -1.2331
   36CHL1  H11B 3806   0.520   3.983   5.235  0.9554 -0.5066 -0.8053
   36CHL1    C9 3807   0.691   4.116   5.300  0.2865  0.3292  0.5262
   36CHL1    H9 3808   0.777   4.050   5.279  1.6113  2.4291 -0.8070
   36CHL1   C10 3809   0.658   4.116   5.451  0.1266 -0.7733  0.3764
   36CHL1   C19 3810   0.545   4.217   5.479  0.4466  0.0075 -0.3156
   36CHL1  H19A 3811   0.531   4.222   5.589 -0.5016 -1.4921 -0.3536
   36CHL1  H19B 3812   0.571   4.314   5.431 -1.7725  1.0475  0.5365
   36CHL1  H19C 3813   0.450   4.181   5.434 -0.8699  0.8615  1.7112
   36CHL1    C1 3814   0.618   3.971   5.492 -0.7102 -0.1894  0.5071
   36CHL1   H1A 3815   0.517   3.949   5.451 -1.0497  0.7474  0.8332
   36CHL1   H1B 3816   0.694   3.906   5.443  0.3032 -1.1039  3.1620
   36CHL1    C2 3817   0.624   3.947   5.644  0.0397 -0.3869 -0.3515
   36CHL1   H2A 3818   0.623   3.840   5.674 -1.7518 -0.1667  0.4392
   36CHL1   H2B 3819   0.536   4.003   5.682  0.1038  0.6284 -1.6887
   36CHL1   C20 3820   0.667   4.206   4.739 -0.2533 -0.0949  0.2757
   36CHL1   H20 3821   0.588   4.283   4.746 -1.9102 -1.6445 -1.0507
   36CHL1   C21 3822   0.591   4.070   4.721 -0.2508 -0.3670 -0.8663
   36CHL1  H21A 3823   0.657   3.981   4.708 -0.4347 -1.0265  2.3336
   36CHL1  H21B 3824   0.540   4.082   4.623  1.7950  1.0888 -1.7707
   36CHL1  H21C 3825   0.507   4.058   4.793 -1.8141  1.7580 -2.2587
   36CHL1   C22 3826   0.755   4.241   4.619 -0.6797  0.4254 -0.2503
   36CHL1  H22A 3827   0.697   4.260   4.526 -0.5881  0.9422 -0.2053
   36CHL1  H22B 3828   0.803   4.340   4.637  0.3721 -0.5008  2.3784
   36CHL1   C23 3829   0.870   4.143   4.601 -0.1820  0.5457 -0.0331
   36CHL1  H23A 3830   0.942   4.151   4.685 -2.8149 -0.4897  2.4064
   36CHL1  H23B 3831   0.837   4.040   4.576  1.1341  0.5163 -1.6930
   36CHL1   C24 3832   0.938   4.193   4.475  0.2982  0.1737  0.5574
   36CHL1  H24A 3833   0.855   4.193   4.401  1.5669  2.7486 -0.9296
   36CHL1  H24B 3834   0.967   4.299   4.494  0.5021  0.3570 -0.7449
   36CHL1   C25 3835   1.066   4.128   4.426 -0.1417 -0.0377  0.5384
   36CHL1   H25 3836   1.062   4.017   4.425 -3.3499  0.0011 -2.2766
   36CHL1   C26 3837   1.103   4.173   4.286 -0.1071  0.0448  0.2587
   36CHL1  H26A 3838   1.038   4.126   4.209 -0.5890 -0.0810  0.7398
   36CHL1  H26B 3839   1.097   4.284   4.283  0.1387  0.0814  1.1091
   36CHL1  H26C 3840   1.205   4.137   4.260 -0.6378 -0.9310 -0.4764
   36CHL1   C27 3841   1.186   4.164   4.515  0.8927  0.0350 -0.1920
   36CHL1  H27A 3842   1.204   4.273   4.506  1.3486  0.0240  0.5499
   36CHL1  H27B 3843   1.156   4.146   4.621 -0.2631  0.0613 -0.5073
   36CHL1  H27C 3844   1.279   4.108   4.492 -0.3317 -2.3534  0.3804
   37CHL1    C3 3845   0.968   1.959   5.711  0.4601 -0.7098  0.0422
   37CHL1    H3 3846   1.021   1.869   5.672 -0.3704 -1.0465 -0.3210
   37CHL1    O3 3847   0.973   1.947   5.848  0.1519 -0.5940  0.4609
   37CHL1   H3' 3848   0.919   2.017   5.885  0.9317  1.3229 -1.9065
   37CHL1    C4 3849   1.049   2.081   5.663  0.1110 -0.2054  0.1781
   37CHL1   H4A 3850   1.020   2.179   5.705 -0.5804  0.5165 -1.9228
   37CHL1   H4B 3851   1.151   2.075   5.707  2.3228 -1.3603 -4.7331
   37CHL1    C5 3852   1.047   2.083   5.511 -0.0754 -0.1435  0.0257
   37CHL1    C6 3853   1.158   2.087   5.441  0.0465 -0.2973  0.0752
   37CHL1    H6 3854   1.249   2.080   5.502  0.1608  2.3270  0.2924
   37CHL1    C7 3855   1.169   2.097   5.292  0.0900  0.4399 -0.4797
   37CHL1   H7A 3856   1.245   2.175   5.269 -1.1942  1.3104 -1.8417
   37CHL1   H7B 3857   1.200   2.003   5.241  0.5860 -1.2896  2.8338
   37CHL1    C8 3858   1.041   2.161   5.230  0.7374  0.1534 -0.1054
   37CHL1    H8 3859   1.028   2.266   5.265 -0.8041 -0.8821  2.6069
   37CHL1   C14 3860   1.038   2.149   5.078 -0.0015 -0.4819  0.8313
   37CHL1   H14 3861   1.045   2.041   5.057 -0.6169  0.0515 -2.4322
   37CHL1   C15 3862   1.164   2.200   5.007 -0.3930 -0.3681 -0.7532
   37CHL1  H15A 3863   1.200   2.299   5.042 -0.2221 -0.9985  0.9279
   37CHL1  H15B 3864   1.248   2.127   5.013  0.7518  0.8749 -1.3856
   37CHL1   C16 3865   1.119   2.208   4.862 -0.1288 -0.4519 -1.1667
   37CHL1  H16A 3866   1.141   2.310   4.824 -0.6586  0.9703  2.1882
   37CHL1  H16B 3867   1.183   2.135   4.809 -1.8138 -4.5811  2.1827
   37CHL1   C17 3868   0.966   2.169   4.855 -0.2045 -0.1413  0.5778
   37CHL1   H17 3869   0.966   2.060   4.834  1.2221 -0.2295  1.0051
   37CHL1   C13 3870   0.918   2.196   5.001 -0.1606  0.0221 -0.2074
   37CHL1   C18 3871   0.893   2.350   5.026  0.3210 -0.0921 -0.1952
   37CHL1  H18A 3872   0.796   2.380   4.982  0.5467 -1.4982 -1.6702
   37CHL1  H18B 3873   0.881   2.361   5.136  1.8598 -0.3994  0.0162
   37CHL1  H18C 3874   0.974   2.412   4.983  0.0130 -0.2448 -0.9946
   37CHL1   C12 3875   0.800   2.104   5.049 -0.3930 -0.3007  0.2364
   37CHL1  H12A 3876   0.704   2.115   4.996 -0.5083  2.5131  0.9446
   37CHL1  H12B 3877   0.840   2.005   5.018  1.8291  1.1998 -1.8998
   37CHL1   C11 3878   0.784   2.113   5.207  0.6556 -0.2556 -0.1729
   37CHL1  H11A 3879   0.738   2.210   5.236 -2.2541 -2.0472  1.4312
   37CHL1  H11B 3880   0.705   2.039   5.232 -0.5071  1.0056 -0.0694
   37CHL1    C9 3881   0.919   2.085   5.285 -0.1627  0.1580  0.3233
   37CHL1    H9 3882   0.956   1.982   5.264 -1.0946 -0.3538  1.1428
   37CHL1   C10 3883   0.903   2.090   5.444 -0.5100 -0.6384 -0.3013
   37CHL1   C19 3884   0.839   2.229   5.496  0.2980  0.1399 -0.6055
   37CHL1  H19A 3885   0.835   2.241   5.607  1.3464  2.3834 -0.7847
   37CHL1  H19B 3886   0.897   2.314   5.457 -1.3472  1.0751 -1.0556
   37CHL1  H19C 3887   0.733   2.236   5.463 -1.2127 -0.4445  3.7092
   37CHL1    C1 3888   0.824   1.971   5.500 -0.0962 -0.2686 -0.0932
   37CHL1   H1A 3889   0.719   1.977   5.464  0.7795  1.4376 -2.4681
   37CHL1   H1B 3890   0.880   1.885   5.458 -0.0282  0.0849 -0.7227
   37CHL1    C2 3891   0.830   1.956   5.655 -0.4297  0.2822  0.1250
   37CHL1   H2A 3892   0.779   1.859   5.674 -0.4558  0.3090  0.1919
   37CHL1   H2B 3893   0.766   2.035   5.699 -1.1350  0.0620 -0.4909
   37CHL1   C20 3894   0.904   2.239   4.745 -0.6405 -0.6571  0.2629
   37CHL1   H20 3895   0.905   2.350   4.757 -1.7769 -0.7346  1.3212
   37CHL1   C21 3896   0.754   2.210   4.746  0.4712 -0.2163 -0.0746
   37CHL1  H21A 3897   0.688   2.263   4.674 -1.5187 -0.8442  1.2827
   37CHL1  H21B 3898   0.714   2.250   4.841 -0.2159 -0.8565 -0.0923
   37CHL1  H21C 3899   0.733   2.102   4.738 -2.3142  0.3526 -0.9113
   37CHL1   C22 3900   0.970   2.221   4.604  0.1763  0.2917  0.7586
   37CHL1  H22A 3901   1.081   2.221   4.608  0.2743  1.8764 -1.1092
   37CHL1  H22B 3902   0.938   2.122   4.566 -0.3930  1.0305 -0.7353
   37CHL1   C23 3903   0.942   2.330   4.500  0.5707 -0.7726 -0.3066
   37CHL1  H23A 3904   0.841   2.312   4.458 -1.9037  5.0877  2.4982
   37CHL1  H23B 3905   0.930   2.430   4.546 -0.2211 -1.4451  0.9554
   37CHL1   C24 3906   1.044   2.324   4.393 -0.5008 -0.0868 -0.2606
   37CHL1  H24A 3907   1.131   2.373   4.442  1.4845 -2.6796 -1.0338
   37CHL1  H24B 3908   1.072   2.223   4.354 -1.5099 -0.2232 -0.6451
   37CHL1   C25 3909   0.999   2.396   4.265 -0.3625 -0.3383  0.2809
   37CHL1   H25 3910   0.906   2.342   4.236 -1.5032 -1.1118  5.0473
   37CHL1   C26 3911   0.961   2.550   4.272  0.2396  0.3170 -1.0684
   37CHL1  H26A 3912   0.859   2.572   4.309 -0.5425 -2.1862 -1.6430
   37CHL1  H26B 3913   1.038   2.604   4.331  1.9114 -3.2198  0.1568
   37CHL1  H26C 3914   0.966   2.600   4.173 -1.8373 -1.0584 -1.9021
   37CHL1   C27 3915   1.117   2.397   4.152 -0.6767 -0.3664  0.0167
   37CHL1  H27A 3916   1.168   2.298   4.153 -0.5268 -0.2890  0.1626
   37CHL1  H27B 3917   1.063   2.418   4.057 -0.2897 -1.0943 -0.3685
   37CHL1  H27C 3918   1.192   2.476   4.174 -0.5728 -0.5299  0.2388
   38CHL1    C3 3919   2.961   0.531   5.839 -0.2837 -0.3963  0.0821
   38CHL1    H3 3920   2.865   0.477   5.856  1.3906 -3.0254  1.4167
   38CHL1    O3 3921   3.028   0.512   5.968  0.8440 -0.3760 -0.0460
   38CHL1   H3' 3922   3.116   0.552   5.971  0.3494  0.8093 -0.8576
   38CHL1    C4 3923   3.050   0.480   5.714  0.2578  0.0524  1.0267
   38CHL1   H4A 3924   3.134   0.549   5.736 -0.6268  1.1070  1.1697
   38CHL1   H4B 3925   3.076   0.372   5.725  2.1897  0.3690 -0.0931
   38CHL1    C5 3926   2.995   0.503   5.573  0.2980 -0.3766 -0.0722
   38CHL1    C6 3927   2.966   0.404   5.487  0.4923 -0.2785  0.1109
   38CHL1    H6 3928   2.990   0.301   5.517 -3.2982 -0.7887  1.6606
   38CHL1    C7 3929   2.919   0.433   5.346 -0.9232 -0.0145 -0.0555
   38CHL1   H7A 3930   2.988   0.387   5.273  0.1680  1.4542  0.0309
   38CHL1   H7B 3931   2.820   0.387   5.327 -0.8103 -0.1571 -0.2990
   38CHL1    C8 3932   2.912   0.578   5.302 -0.4625  0.3443 -0.3818
   38CHL1    H8 3933   3.011   0.622   5.276  0.1945 -1.0057 -0.2010
   38CHL1   C14 3934   2.806   0.596   5.186  0.0129 -0.0291 -0.5531
   38CHL1   H14 3935   2.711   0.552   5.224  0.8914 -3.1077 -1.7599
   38CHL1   C15 3936   2.818   0.507   5.060  0.3438 -0.0300 -0.8160
   38CHL1  H15A 3937   2.922   0.510   5.022 -0.1299  0.3715 -2.1078
   38CHL1  H15B 3938   2.795   0.401   5.084  0.3305 -0.3152 -2.0489
   38CHL1   C16 3939   2.724   0.575   4.959 -0.4418 -0.0518 -0.0876
   38CHL1  H16A 3940   2.773   0.574   4.860  1.6846 -0.5672  0.9569
   38CHL1  H16B 3941   2.627   0.522   4.947 -0.2201 -0.5222  0.2309
   38CHL1   C17 3942   2.680   0.712   5.014 -0.3748  0.0197  0.6214
   38CHL1   H17 3943   2.581   0.700   5.063 -0.9381  0.7441 -0.3272
   38CHL1   C13 3944   2.780   0.740   5.136  0.1785 -0.0417 -0.5653
   38CHL1   C18 3945   2.911   0.807   5.089  0.4873  0.4147  0.4293
   38CHL1  H18A 3946   2.911   0.918   5.085  1.1685  0.4147  0.4694
   38CHL1  H18B 3947   3.000   0.796   5.154  0.2449 -0.3652  0.6455
   38CHL1  H18C 3948   2.947   0.769   4.991 -0.8983  0.5112 -0.1283
   38CHL1   C12 3949   2.733   0.824   5.259 -0.2484  0.0315  0.6628
   38CHL1  H12A 3950   2.729   0.933   5.236  0.2300 -0.2265 -0.6337
   38CHL1  H12B 3951   2.629   0.788   5.276 -0.3769  0.4699  0.8300
   38CHL1   C11 3952   2.834   0.809   5.379  0.1498 -0.4860  0.4796
   38CHL1  H11A 3953   2.927   0.865   5.356  0.6350 -1.3511  0.3500
   38CHL1  H11B 3954   2.787   0.854   5.470  1.1156  1.2332  0.1607
   38CHL1    C9 3955   2.862   0.665   5.420  0.0610 -0.2335 -0.2182
   38CHL1    H9 3956   2.764   0.621   5.447 -0.5575  1.2937  0.0705
   38CHL1   C10 3957   2.946   0.653   5.552  0.1553 -0.3174  0.7985
   38CHL1   C19 3958   3.069   0.748   5.545 -0.3380  0.7172 -0.1228
   38CHL1  H19A 3959   3.134   0.743   5.455  0.4839  2.1875  0.3747
   38CHL1  H19B 3960   3.034   0.853   5.553 -1.1491  0.5416 -1.1800
   38CHL1  H19C 3961   3.138   0.725   5.629 -0.7943 -0.9643 -0.1839
   38CHL1    C1 3962   2.860   0.700   5.676 -0.5094  0.0460  0.6066
   38CHL1   H1A 3963   2.821   0.803   5.664 -2.1095 -0.5080  1.0142
   38CHL1   H1B 3964   2.774   0.631   5.680 -0.5817  0.0691 -0.4803
   38CHL1    C2 3965   2.920   0.677   5.818 -0.2676  0.3267 -0.0398
   38CHL1   H2A 3966   2.841   0.697   5.894 -0.0012 -0.7727  0.5369
   38CHL1   H2B 3967   3.007   0.746   5.823 -0.1572  0.1343  0.7702
   38CHL1   C20 3968   2.648   0.822   4.904 -0.1330 -0.6407  0.1167
   38CHL1   H20 3969   2.742   0.841   4.847 -0.5921  3.1248  0.4714
   38CHL1   C21 3970   2.604   0.955   4.968 -1.0349 -0.2833  0.9450
   38CHL1  H21A 3971   2.578   1.017   4.879  2.3337  0.7556  0.6506
   38CHL1  H21B 3972   2.688   1.006   5.019 -0.5586  1.4550 -1.4515
   38CHL1  H21C 3973   2.513   0.932   5.027  0.2479 -1.9208  2.3097
   38CHL1   C22 3974   2.550   0.774   4.793  0.1043  0.2993  0.0833
   38CHL1  H22A 3975   2.586   0.673   4.763 -1.9173 -0.2171 -0.6881
   38CHL1  H22B 3976   2.445   0.765   4.829 -0.0259 -0.5741 -0.4873
   38CHL1   C23 3977   2.542   0.864   4.667  0.3196 -0.1279 -0.1809
   38CHL1  H23A 3978   2.557   0.973   4.684  0.7568 -0.3275  0.7750
   38CHL1  H23B 3979   2.613   0.826   4.590  0.2190  1.0453 -0.8525
   38CHL1   C24 3980   2.399   0.876   4.612 -0.4336 -0.0042 -1.3039
   38CHL1  H24A 3981   2.350   0.781   4.582  0.1665 -1.1936  1.3775
   38CHL1  H24B 3982   2.330   0.914   4.690  1.9979  0.6072  0.6197
   38CHL1   C25 3983   2.377   0.987   4.502 -0.6404 -0.2748  0.1051
   38CHL1   H25 3984   2.427   1.081   4.535  0.1388 -0.7335  0.2388
   38CHL1   C26 3985   2.435   0.931   4.374  0.0325 -0.1734  0.1507
   38CHL1  H26A 3986   2.546   0.933   4.383 -0.1601  3.5263  2.5481
   38CHL1  H26B 3987   2.404   0.827   4.352  3.9360 -0.7268 -3.4712
   38CHL1  H26C 3988   2.394   0.995   4.293 -0.2316 -0.1507  0.3034
   38CHL1   C27 3989   2.229   1.022   4.491  0.4004  0.0619  0.2055
   38CHL1  H27A 3990   2.201   1.066   4.589  2.2727  1.7021  0.0475
   38CHL1  H27B 3991   2.213   1.109   4.423 -0.2952 -0.0565  0.2154
   38CHL1  H27C 3992   2.166   0.934   4.466 -1.0485  0.7678  1.2656
   39CHL1    C3 3993   4.331   0.690   5.698  0.2464  0.0125  0.1985
   39CHL1    H3 3994   4.226   0.653   5.698  0.5831 -0.9426  1.1218
   39CHL1    O3 3995   4.376   0.730   5.824  0.2629  0.5331 -0.1263
   39CHL1   H3' 3996   4.298   0.772   5.861  1.3128  1.6096  0.9097
   39CHL1    C4 3997   4.414   0.574   5.647 -0.1742  0.7109  0.1391
   39CHL1   H4A 3998   4.519   0.611   5.644  0.3085 -0.5401  1.1375
   39CHL1   H4B 3999   4.417   0.490   5.720  2.6493  2.3203  1.9924
   39CHL1    C5 4000   4.381   0.540   5.505  0.1697  0.0791 -0.6594
   39CHL1    C6 4001   4.338   0.417   5.476  0.3207 -0.1896  0.0747
   39CHL1    H6 4002   4.334   0.342   5.556  0.3958 -1.1385 -0.8106
   39CHL1    C7 4003   4.308   0.366   5.341 -0.4087 -0.2565  0.0488
   39CHL1   H7A 4004   4.351   0.267   5.315 -1.4837 -0.3812 -1.3178
   39CHL1   H7B 4005   4.198   0.354   5.352 -0.5433 -0.1425 -1.1622
   39CHL1    C8 4006   4.330   0.462   5.230  0.5529  0.1145  0.6111
   39CHL1    H8 4007   4.437   0.462   5.199  0.2149  2.2740 -0.6778
   39CHL1   C14 4008   4.232   0.436   5.114 -0.2429 -0.0322 -0.0633
   39CHL1   H14 4009   4.129   0.454   5.153 -0.1901  1.0013 -0.3845
   39CHL1   C15 4010   4.236   0.291   5.057 -0.2408 -0.1897  0.0982
   39CHL1  H15A 4011   4.338   0.260   5.026 -1.4530 -1.6507 -2.5793
   39CHL1  H15B 4012   4.173   0.222   5.116  0.6466 -0.4050  0.8038
   39CHL1   C16 4013   4.154   0.309   4.929 -0.2473 -0.1446 -0.3300
   39CHL1  H16A 4014   4.222   0.266   4.853  1.8451 -2.1575  2.5580
   39CHL1  H16B 4015   4.062   0.247   4.930 -0.3402 -0.0035  0.1116
   39CHL1   C17 4016   4.133   0.462   4.902 -0.6214  0.8393  0.0527
   39CHL1   H17 4017   4.027   0.488   4.925 -0.8180  0.3729 -0.3236
   39CHL1   C13 4018   4.238   0.533   4.994  0.6152  0.4568  0.5189
   39CHL1   C18 4019   4.379   0.516   4.935  0.3354  0.1776  0.0028
   39CHL1  H18A 4020   4.460   0.515   5.012  0.6727 -0.6518 -0.3583
   39CHL1  H18B 4021   4.392   0.421   4.880 -0.0628  0.6191 -0.8540
   39CHL1  H18C 4022   4.408   0.611   4.884  0.3974  1.1280  1.7394
   39CHL1   C12 4023   4.210   0.676   5.039 -0.1156 -0.3922 -0.3481
   39CHL1  H12A 4024   4.245   0.745   4.959 -0.9582  0.4709  0.0127
   39CHL1  H12B 4025   4.103   0.691   5.063 -0.0914 -1.1008  0.2221
   39CHL1   C11 4026   4.300   0.704   5.161  0.5924  0.5924 -0.1843
   39CHL1  H11A 4027   4.403   0.721   5.124  0.8090 -0.4611 -0.0677
   39CHL1  H11B 4028   4.271   0.806   5.197  1.7629  0.1731  2.0420
   39CHL1    C9 4029   4.294   0.603   5.279  0.1713  0.4303 -0.0543
   39CHL1    H9 4030   4.187   0.604   5.308  0.3045 -0.4327  0.4753
   39CHL1   C10 4031   4.380   0.650   5.400 -0.2147  0.6853  0.0234
   39CHL1   C19 4032   4.518   0.684   5.366  0.0634  0.2421  0.0586
   39CHL1  H19A 4033   4.527   0.758   5.284 -1.2766  1.3561  0.9135
   39CHL1  H19B 4034   4.568   0.725   5.456 -0.1941  2.3614 -0.7420
   39CHL1  H19C 4035   4.566   0.590   5.331 -1.0497  0.1018 -1.1460
   39CHL1    C1 4036   4.314   0.778   5.457 -0.4916 -0.3292 -0.1189
   39CHL1   H1A 4037   4.341   0.865   5.393 -0.5873  0.2344  0.5945
   39CHL1   H1B 4038   4.204   0.763   5.445 -0.7171  0.2370  1.1326
   39CHL1    C2 4039   4.341   0.811   5.609 -0.0082 -1.2749  0.0375
   39CHL1   H2A 4040   4.258   0.877   5.642  0.9679 -0.6593  1.3192
   39CHL1   H2B 4041   4.431   0.875   5.623 -1.4348  0.3518  2.1577
   39CHL1   C20 4042   4.149   0.498   4.749 -0.0518  0.1110 -0.2477
   39CHL1   H20 4043   4.242   0.450   4.713 -0.2024 -0.8698  0.6618
   39CHL1   C21 4044   4.165   0.647   4.720 -0.2965  0.0108 -0.0676
   39CHL1  H21A 4045   4.178   0.670   4.612  0.6521  0.6151  0.1605
   39CHL1  H21B 4046   4.260   0.687   4.761 -1.2398  2.7808 -0.4733
   39CHL1  H21C 4047   4.086   0.695   4.781  0.0658 -1.1019  1.3177
   39CHL1   C22 4048   4.027   0.455   4.663 -0.0195 -0.2127 -0.7946
   39CHL1  H22A 4049   3.992   0.355   4.697 -0.5845 -0.2088 -1.3515
   39CHL1  H22B 4050   3.939   0.523   4.671  0.2668 -0.0431  1.3357
   39CHL1   C23 4051   4.068   0.428   4.515  0.2622  0.0999 -0.3283
   39CHL1  H23A 4052   4.133   0.510   4.481 -0.7872  1.2199  0.3166
   39CHL1  H23B 4053   4.134   0.339   4.509 -1.7689 -1.6099  1.3621
   39CHL1   C24 4054   3.944   0.407   4.430  0.5685 -1.1288  0.3202
   39CHL1  H24A 4055   3.906   0.309   4.466  0.9405 -0.7012  1.8943
   39CHL1  H24B 4056   3.868   0.484   4.452 -0.1637 -1.3288 -1.3991
   39CHL1   C25 4057   3.966   0.389   4.279  0.2158 -0.8904  0.1807
   39CHL1   H25 4058   4.009   0.288   4.265  0.8825 -0.7146  0.9404
   39CHL1   C26 4059   3.834   0.384   4.197  0.9106  0.8355  0.2633
   39CHL1  H26A 4060   3.787   0.483   4.219 -0.7866  0.2433 -0.6609
   39CHL1  H26B 4061   3.866   0.395   4.092  0.2716 -0.8447 -0.1172
   39CHL1  H26C 4062   3.770   0.299   4.229  0.6733  1.2713  0.9643
   39CHL1   C27 4063   4.059   0.497   4.217 -0.5859  0.1716  0.0559
   39CHL1  H27A 4064   4.044   0.494   4.107 -0.2816  0.6016  0.0008
   39CHL1  H27B 4065   4.033   0.596   4.261 -0.0453 -0.0859  0.9820
   39CHL1  H27C 4066   4.166   0.475   4.238 -0.2934 -0.1646 -1.7232
   40CHL1    C3 4067   2.460   6.509   5.641  0.3045  0.2436  0.4267
   40CHL1    H3 4068   2.560   6.542   5.603 -0.2300  1.7883  0.3155
   40CHL1    O3 4069   2.455   6.529   5.777  0.6665  0.2147 -0.1189
   40CHL1   H3' 4070   2.473   6.622   5.787  0.1505  0.3634 -0.5868
   40CHL1    C4 4071   2.349   6.594   5.579 -0.8638  0.5326  0.2473
   40CHL1   H4A 4072   2.252   6.573   5.628  0.3157 -1.0392  1.9786
   40CHL1   H4B 4073   2.371   6.702   5.596 -1.7472  0.8815 -0.7716
   40CHL1    C5 4074   2.337   6.578   5.428  0.8431  0.5063  0.6445
   40CHL1    C6 4075   2.364   6.674   5.337  0.4050 -0.0337 -0.3883
   40CHL1    H6 4076   2.385   6.779   5.363  1.0038 -0.4643  0.9251
   40CHL1    C7 4077   2.351   6.646   5.190 -0.2610  0.3983 -0.5503
   40CHL1   H7A 4078   2.292   6.730   5.149 -0.7902  0.5863  0.5970
   40CHL1   H7B 4079   2.447   6.661   5.135 -0.8911  1.2692 -1.4486
   40CHL1    C8 4080   2.276   6.517   5.157 -0.1079  0.0425  0.1988
   40CHL1    H8 4081   2.167   6.534   5.167 -0.0823  0.5008 -0.3145
   40CHL1   C14 4082   2.307   6.486   5.009  0.1820 -0.0368  0.7883
   40CHL1   H14 4083   2.416   6.468   4.995  0.0395 -0.5711  0.3610
   40CHL1   C15 4084   2.271   6.587   4.900 -0.4120  0.2791 -0.1579
   40CHL1  H15A 4085   2.169   6.629   4.912 -0.5131 -0.2492  0.9317
   40CHL1  H15B 4086   2.329   6.681   4.904 -0.6456  0.4575 -0.9110
   40CHL1   C16 4087   2.277   6.505   4.771  0.4250  0.0381 -0.1371
   40CHL1  H16A 4088   2.189   6.527   4.707 -0.1118  0.8684  0.8553
   40CHL1  H16B 4089   2.370   6.532   4.717  0.3798 -0.4039 -0.4377
   40CHL1   C17 4090   2.282   6.353   4.804  0.0077 -0.7150  0.9814
   40CHL1   H17 4091   2.384   6.314   4.786 -0.2683 -0.6430 -0.7485
   40CHL1   C13 4092   2.249   6.355   4.957  0.2560 -0.3955  0.7318
   40CHL1   C18 4093   2.093   6.367   4.975 -0.3484 -0.2925 -0.0191
   40CHL1  H18A 4094   2.054   6.412   5.069  0.1290 -2.1920  1.1196
   40CHL1  H18B 4095   2.044   6.417   4.889  1.6898  2.0468  0.1038
   40CHL1  H18C 4096   2.049   6.265   4.980  0.3679 -0.5411  1.5985
   40CHL1   C12 4097   2.312   6.244   5.043  0.1699  0.4612  0.5103
   40CHL1  H12A 4098   2.273   6.146   5.006  0.9689  0.9007 -1.5382
   40CHL1  H12B 4099   2.420   6.226   5.024  0.4111  0.9850  1.3608
   40CHL1   C11 4100   2.281   6.268   5.190 -0.5553 -0.4807  0.7598
   40CHL1  H11A 4101   2.175   6.239   5.205 -1.1295 -0.3557 -2.7561
   40CHL1  H11B 4102   2.345   6.199   5.249 -0.1747  0.4845  1.4939
   40CHL1    C9 4103   2.324   6.404   5.238 -0.7327  0.2205 -0.4484
   40CHL1    H9 4104   2.435   6.402   5.229 -0.6973  1.1177 -0.2692
   40CHL1   C10 4105   2.306   6.427   5.389  0.5061 -0.5499  0.5753
   40CHL1   C19 4106   2.160   6.394   5.424 -0.2891 -0.3377 -0.2776
   40CHL1  H19A 4107   2.142   6.285   5.413 -0.5570 -0.5995  2.4219
   40CHL1  H19B 4108   2.148   6.416   5.532  3.7019  2.0858 -0.2259
   40CHL1  H19C 4109   2.081   6.456   5.375 -1.6164  0.6292  2.9689
   40CHL1    C1 4110   2.409   6.335   5.464 -0.2271  0.0219 -0.6640
   40CHL1   H1A 4111   2.371   6.231   5.452 -0.7474  0.0050  0.9273
   40CHL1   H1B 4112   2.504   6.344   5.408  0.2646  0.3635  0.2113
   40CHL1    C2 4113   2.440   6.360   5.603 -0.1772  0.9358  0.1020
   40CHL1   H2A 4114   2.516   6.292   5.648 -1.0261 -0.0465  0.0547
   40CHL1   H2B 4115   2.341   6.332   5.645  0.3104 -1.1811 -0.0827
   40CHL1   C20 4116   2.196   6.260   4.710  0.4622 -0.1635 -0.0615
   40CHL1   H20 4117   2.092   6.299   4.717  0.4983 -0.2474  1.0500
   40CHL1   C21 4118   2.201   6.109   4.747  0.1713 -0.3229 -0.3266
   40CHL1  H21A 4119   2.150   6.097   4.845  1.3205  0.7136  0.4165
   40CHL1  H21B 4120   2.300   6.059   4.734 -0.5505 -0.7096 -5.1828
   40CHL1  H21C 4121   2.137   6.071   4.665  0.9383  1.2901 -1.7035
   40CHL1   C22 4122   2.231   6.293   4.563 -0.6191  0.7722  0.5574
   40CHL1  H22A 4123   2.252   6.401   4.549 -1.0990  0.5562 -2.2165
   40CHL1  H22B 4124   2.321   6.232   4.537 -1.1110  0.3317 -0.1359
   40CHL1   C23 4125   2.102   6.265   4.469  1.0801  0.0679  0.2535
   40CHL1  H23A 4126   2.058   6.163   4.467  0.1858  0.3403  3.6564
   40CHL1  H23B 4127   2.026   6.333   4.513 -0.2825 -0.6902 -0.9063
   40CHL1   C24 4128   2.129   6.313   4.327  0.3648 -0.0464 -0.1685
   40CHL1  H24A 4129   2.185   6.409   4.337  0.9819 -0.5523  1.3296
   40CHL1  H24B 4130   2.199   6.237   4.285  2.0181  1.4376 -0.1714
   40CHL1   C25 4131   2.007   6.335   4.234 -0.0026  0.0345  0.0561
   40CHL1   H25 4132   2.045   6.347   4.130 -0.0521 -2.7415 -0.3321
   40CHL1   C26 4133   1.911   6.211   4.247 -0.4263 -0.6931  0.7340
   40CHL1  H26A 4134   1.839   6.223   4.164  1.8589 -0.3689 -1.2536
   40CHL1  H26B 4135   1.976   6.122   4.237  1.0954  0.3654  0.9337
   40CHL1  H26C 4136   1.870   6.214   4.350  0.7277  0.8555  1.1713
   40CHL1   C27 4137   1.921   6.456   4.270 -0.0222  0.1573  0.4545
   40CHL1  H27A 4138   1.859   6.439   4.360 -1.4396 -4.3969 -1.2419
   40CHL1  H27B 4139   1.983   6.547   4.283 -0.4201  0.2847  1.4850
   40CHL1  H27C 4140   1.843   6.475   4.194 -0.9551 -0.3930  1.2619
   41CHL1    C3 4141   1.652   6.155   5.670 -0.7850  0.4544  0.3331
   41CHL1    H3 4142   1.541   6.163   5.658 -0.7630 -2.1274 -2.3630
   41CHL1    O3 4143   1.684   6.145   5.807 -0.5678 -0.1380 -0.2048
   41CHL1   H3' 4144   1.647   6.058   5.825  0.5437 -0.6228 -0.2568
   41CHL1    C4 4145   1.697   6.028   5.589  0.5577  0.1023  0.2335
   41CHL1   H4A 4146   1.803   6.005   5.613  0.1992 -2.3903 -0.3576
   41CHL1   H4B 4147   1.633   5.947   5.630 -0.5925  0.6862 -0.3839
   41CHL1    C5 4148   1.668   6.037   5.439  0.7993  0.0308 -0.1779
   41CHL1    C6 4149   1.598   5.939   5.372  0.5018  0.2295 -0.2930
   41CHL1    H6 4150   1.541   5.867   5.432 -1.3303  2.2234  0.4485
   41CHL1    C7 4151   1.549   5.949   5.226  0.5019 -0.3912  0.4317
   41CHL1   H7A 4152   1.546   5.855   5.167 -0.8680 -0.2160  0.2152
   41CHL1   H7B 4153   1.447   5.989   5.209  0.2881 -1.0168  0.2619
   41CHL1    C8 4154   1.640   6.048   5.155 -0.6652  0.3314  0.3533
   41CHL1    H8 4155   1.731   5.985   5.145 -1.1478 -0.4894  1.0407
   41CHL1   C14 4156   1.575   6.081   5.019 -0.6576  0.8747  0.0694
   41CHL1   H14 4157   1.488   6.143   5.047 -0.8288  1.1050 -0.9537
   41CHL1   C15 4158   1.535   5.966   4.935 -0.0827 -0.2924  0.4533
   41CHL1  H15A 4159   1.614   5.889   4.920 -0.7293 -0.7035 -0.9104
   41CHL1  H15B 4160   1.440   5.917   4.965  0.7603 -1.8012  0.7407
   41CHL1   C16 4161   1.511   6.039   4.795 -0.3937 -0.0955 -0.1749
   41CHL1  H16A 4162   1.556   5.979   4.712  0.2357 -0.7845  0.6608
   41CHL1  H16B 4163   1.404   6.056   4.772 -1.1202  0.2269  3.1812
   41CHL1   C17 4164   1.582   6.181   4.805  0.0134  0.1365  0.0011
   41CHL1   H17 4165   1.499   6.251   4.829 -1.6703 -1.5915 -0.6320
   41CHL1   C13 4166   1.665   6.167   4.933  0.1875  0.1500 -0.0750
   41CHL1   C18 4167   1.799   6.097   4.893  0.6904 -0.1818 -0.2694
   41CHL1  H18A 4168   1.851   6.062   4.984  0.7368  0.3587 -0.0872
   41CHL1  H18B 4169   1.779   6.008   4.829 -0.0298  0.2896 -0.7155
   41CHL1  H18C 4170   1.869   6.171   4.848 -0.4057  1.0994  0.0632
   41CHL1   C12 4171   1.695   6.300   5.022 -0.3755 -0.2497  0.1166
   41CHL1  H12A 4172   1.772   6.353   4.962 -1.6346  2.3876  0.7352
   41CHL1  H12B 4173   1.604   6.363   5.025  0.2216  0.7139 -1.3021
   41CHL1   C11 4174   1.764   6.269   5.154  0.3801  0.5419 -0.0943
   41CHL1  H11A 4175   1.866   6.228   5.133 -0.5027 -2.0680  0.4727
   41CHL1  H11B 4176   1.773   6.365   5.210  1.2769 -0.3273  1.3074
   41CHL1    C9 4177   1.680   6.173   5.238  0.4292 -0.2231 -0.1094
   41CHL1    H9 4178   1.585   6.229   5.246  1.7266  2.0636 -0.2757
   41CHL1   C10 4179   1.726   6.161   5.384 -0.6641  0.2312  0.3729
   41CHL1   C19 4180   1.879   6.130   5.368 -0.2189 -0.1892  0.4587
   41CHL1  H19A 4181   1.927   6.226   5.337 -0.0388 -0.2256  0.6282
   41CHL1  H19B 4182   1.936   6.087   5.453  2.3076 -0.6060 -1.3857
   41CHL1  H19C 4183   1.896   6.055   5.288  2.1496  2.1442 -1.3443
   41CHL1    C1 4184   1.699   6.292   5.464  0.2950 -0.2006  0.4595
   41CHL1   H1A 4185   1.755   6.383   5.433  1.4075 -1.8372 -2.5141
   41CHL1   H1B 4186   1.592   6.321   5.455  0.0274 -0.3409  2.7488
   41CHL1    C2 4187   1.724   6.273   5.622  0.3242 -0.1501 -0.0982
   41CHL1   H2A 4188   1.688   6.364   5.675  0.2531  0.3355 -0.9731
   41CHL1   H2B 4189   1.833   6.265   5.638 -0.0021  0.2558  2.5418
   41CHL1   C20 4190   1.635   6.220   4.663 -0.0739 -0.0132  0.4027
   41CHL1   H20 4191   1.704   6.146   4.618  0.6712 -0.0700  1.6153
   41CHL1   C21 4192   1.721   6.352   4.668  0.7060  0.2419  0.2253
   41CHL1  H21A 4193   1.747   6.374   4.562  2.2691 -2.9089 -0.1164
   41CHL1  H21B 4194   1.813   6.333   4.727  0.6932 -1.4083 -0.2634
   41CHL1  H21C 4195   1.664   6.431   4.721 -0.9485 -0.7614 -0.0040
   41CHL1   C22 4196   1.519   6.230   4.568  0.6233  0.0959  0.4914
   41CHL1  H22A 4197   1.438   6.154   4.575 -0.5033  1.2964  0.7307
   41CHL1  H22B 4198   1.481   6.332   4.586 -0.3623 -0.3837  1.1791
   41CHL1   C23 4199   1.562   6.231   4.417  0.2036 -0.0416  0.1979
   41CHL1  H23A 4200   1.643   6.304   4.393  0.0707  0.5566  1.4917
   41CHL1  H23B 4201   1.597   6.130   4.388  0.3360 -0.5711  2.1277
   41CHL1   C24 4202   1.441   6.266   4.331 -0.3552  0.0397  0.7174
   41CHL1  H24A 4203   1.359   6.194   4.351 -0.7588 -0.1947 -1.5853
   41CHL1  H24B 4204   1.411   6.372   4.344 -3.3007 -0.9551  2.6594
   41CHL1   C25 4205   1.474   6.252   4.176 -0.6572  0.0129  0.1709
   41CHL1   H25 4206   1.533   6.160   4.157 -0.1272  0.5640 -0.8934
   41CHL1   C26 4207   1.347   6.256   4.093 -0.4446 -0.7666 -0.2097
   41CHL1  H26A 4208   1.302   6.357   4.104  3.4592  0.9056  1.4270
   41CHL1  H26B 4209   1.370   6.231   3.987 -0.9213 -0.0845 -0.4773
   41CHL1  H26C 4210   1.278   6.172   4.116 -0.6168 -0.3022  1.0151
   41CHL1   C27 4211   1.564   6.368   4.115 -0.1267 -0.6979 -1.2217
   41CHL1  H27A 4212   1.649   6.389   4.184  0.0057 -4.9256  0.0237
   41CHL1  H27B 4213   1.611   6.332   4.021 -1.3073 -2.6300 -1.0867
   41CHL1  H27C 4214   1.505   6.460   4.096  0.4472 -0.4348 -1.7989
   42CHL1    C3 4215   4.698   6.353   5.704  0.0113  0.1357 -0.2280
   42CHL1    H3 4216   4.734   6.458   5.715 -0.3057  0.3359 -1.0577
   42CHL1    O3 4217   4.675   6.294   5.827 -0.3350  0.2665  0.2421
   42CHL1   H3' 4218   4.625   6.213   5.812  1.0369 -0.5818  0.1820
   42CHL1    C4 4219   4.560   6.333   5.630  1.0896  0.2363 -1.0654
   42CHL1   H4A 4220   4.541   6.224   5.622  1.8600  0.0184  0.0545
   42CHL1   H4B 4221   4.481   6.371   5.698  2.6055 -0.5100  1.1581
   42CHL1    C5 4222   4.553   6.391   5.491  0.1334 -0.4695 -0.3451
   42CHL1    C6 4223   4.468   6.500   5.455 -0.6229  0.3509 -0.2847
   42CHL1    H6 4224   4.405   6.525   5.542  0.9498 -1.7666  1.4973
   42CHL1    C7 4225   4.459   6.559   5.316  1.2454 -0.3869 -0.3346
   42CHL1   H7A 4226   4.352   6.569   5.287  2.0172  2.2694 -2.4326
   42CHL1   H7B 4227   4.504   6.660   5.324 -1.0912  0.6686 -0.0740
   42CHL1    C8 4228   4.550   6.493   5.214 -0.8978  0.6765  1.0924
   42CHL1    H8 4229   4.491   6.407   5.175 -0.3881  1.1280 -0.7368
   42CHL1   C14 4230   4.583   6.588   5.107 -0.2466 -0.0060 -0.0690
   42CHL1   H14 4231   4.648   6.667   5.150 -1.2497  0.7307  0.1143
   42CHL1   C15 4232   4.467   6.666   5.043 -0.3889  0.4529 -0.2044
   42CHL1  H15A 4233   4.393   6.591   5.008  1.5351 -1.2439 -0.6995
   42CHL1  H15B 4234   4.413   6.738   5.108 -1.8767 -0.1651 -0.7453
   42CHL1   C16 4235   4.546   6.735   4.927  0.4068  0.3481 -0.6898
   42CHL1  H16A 4236   4.483   6.758   4.838  1.6767  2.9168 -0.9521
   42CHL1  H16B 4237   4.587   6.833   4.958 -2.7270  1.9672 -1.4575
   42CHL1   C17 4238   4.675   6.651   4.895  0.2708  0.1405  0.8473
   42CHL1   H17 4239   4.759   6.717   4.927 -0.2323  1.7927 -1.0901
   42CHL1   C13 4240   4.670   6.533   4.992 -0.2234 -0.0062  1.0609
   42CHL1   C18 4241   4.595   6.417   4.918  0.6672 -0.5419  0.6964
   42CHL1  H18A 4242   4.657   6.377   4.835 -0.5001  2.0939 -1.5339
   42CHL1  H18B 4243   4.553   6.337   4.982 -1.7374  0.5689  0.5545
   42CHL1  H18C 4244   4.506   6.463   4.870  1.6778  0.9375  0.1951
   42CHL1   C12 4245   4.805   6.487   5.047  0.3214  0.3138 -0.9081
   42CHL1  H12A 4246   4.872   6.442   4.971  0.8685 -1.4579  0.5716
   42CHL1  H12B 4247   4.859   6.572   5.094 -0.1488  0.4443 -0.5998
   42CHL1   C11 4248   4.774   6.387   5.166  0.8290  0.1340  0.1184
   42CHL1  H11A 4249   4.711   6.311   5.115  0.5348  0.2291  0.3333
   42CHL1  H11B 4250   4.871   6.345   5.201  0.9337 -1.5597 -2.1187
   42CHL1    C9 4251   4.688   6.442   5.275  0.3876 -0.5625  0.0271
   42CHL1    H9 4252   4.721   6.541   5.313  0.2408 -0.4826 -0.0548
   42CHL1   C10 4253   4.667   6.350   5.399 -0.3833 -0.0046 -0.5988
   42CHL1   C19 4254   4.637   6.211   5.349  0.9616 -0.4592 -1.1268
   42CHL1  H19A 4255   4.608   6.148   5.437  0.2761  1.8872  0.3806
   42CHL1  H19B 4256   4.541   6.212   5.293 -2.3526  0.6861  4.1964
   42CHL1  H19C 4257   4.718   6.154   5.298 -0.2405 -1.9845 -1.3608
   42CHL1    C1 4258   4.803   6.336   5.470 -0.3304 -0.1751  0.1200
   42CHL1   H1A 4259   4.873   6.281   5.403 -2.1309 -1.8750 -0.3797
   42CHL1   H1B 4260   4.848   6.436   5.489 -0.6403 -0.4758  2.5110
   42CHL1    C2 4261   4.801   6.277   5.613  0.0532  0.4052  0.0964
   42CHL1   H2A 4262   4.903   6.276   5.658 -0.8991  2.6693  2.4630
   42CHL1   H2B 4263   4.774   6.170   5.618  0.8379  0.2726  2.0931
   42CHL1   C20 4264   4.707   6.640   4.748 -0.0845  0.1042  0.1737
   42CHL1   H20 4265   4.624   6.587   4.696  0.0772 -0.0229  0.0449
   42CHL1   C21 4266   4.829   6.556   4.717 -0.0825 -0.3964 -0.2841
   42CHL1  H21A 4267   4.829   6.457   4.766  0.1637  0.4749  1.5277
   42CHL1  H21B 4268   4.914   6.605   4.768  0.0783 -1.0602  0.0888
   42CHL1  H21C 4269   4.836   6.552   4.607  0.8278 -0.1847 -0.2356
   42CHL1   C22 4270   4.720   6.777   4.673  0.0816  0.0287  0.5519
   42CHL1  H22A 4271   4.638   6.850   4.695  1.9630  2.5299 -0.4762
   42CHL1  H22B 4272   4.818   6.817   4.705 -0.1317  0.5864  0.5168
   42CHL1   C23 4273   4.712   6.766   4.519 -0.1357  0.0224  0.0667
   42CHL1  H23A 4274   4.794   6.704   4.478 -0.7316  0.4327 -1.7759
   42CHL1  H23B 4275   4.618   6.716   4.487 -1.0149  0.2723  2.1603
   42CHL1   C24 4276   4.704   6.897   4.434  0.0696  0.6961 -0.2805
   42CHL1  H24A 4277   4.626   6.964   4.476 -0.3283  0.2885 -0.3564
   42CHL1  H24B 4278   4.799   6.952   4.451  0.4720  0.0778 -0.4910
   42CHL1   C25 4279   4.687   6.888   4.281 -0.8915  0.6645 -0.1962
   42CHL1   H25 4280   4.584   6.849   4.265  0.2382 -1.5755 -2.1500
   42CHL1   C26 4281   4.695   7.023   4.210 -0.3007 -0.0820 -0.4482
   42CHL1  H26A 4282   4.791   7.077   4.225  0.5870 -2.6718  3.6783
   42CHL1  H26B 4283   4.677   7.016   4.100 -2.7613  0.8300 -0.1451
   42CHL1  H26C 4284   4.612   7.089   4.244 -0.2007  0.1133 -0.5819
   42CHL1   C27 4285   4.781   6.795   4.202 -0.4655  0.2097 -0.2149
   42CHL1  H27A 4286   4.776   6.689   4.233 -0.8953 -0.2281 -1.7380
   42CHL1  H27B 4287   4.759   6.792   4.093 -0.3365  2.5560 -0.3269
   42CHL1  H27C 4288   4.884   6.835   4.218 -0.7876  0.0948  2.3209
   43CHL1    C3 4289   0.408   2.495   5.750 -0.2743 -0.1010 -0.0460
   43CHL1    H3 4290   0.388   2.600   5.721 -3.9153 -1.1683 -1.7693
   43CHL1    O3 4291   0.439   2.476   5.891 -0.0142 -0.2569  0.0089
   43CHL1   H3' 4292   0.367   2.526   5.929 -0.9857 -0.5668 -1.3660
   43CHL1    C4 4293   0.291   2.402   5.712  0.1412 -0.6666 -0.2978
   43CHL1   H4A 4294   0.316   2.298   5.746 -0.8384 -0.5750  0.7650
   43CHL1   H4B 4295   0.203   2.439   5.768  1.7775  3.1904 -0.1702
   43CHL1    C5 4296   0.253   2.392   5.566  0.2575  0.0140  0.4992
   43CHL1    C6 4297   0.134   2.419   5.516 -0.2612  0.4607 -0.6262
   43CHL1    H6 4298   0.055   2.449   5.586 -0.9510 -0.4876 -0.9838
   43CHL1    C7 4299   0.104   2.403   5.366  0.0854  0.7407  0.3412
   43CHL1   H7A 4300   0.007   2.350   5.358  0.8760 -0.6636 -0.1503
   43CHL1   H7B 4301   0.094   2.500   5.314  4.1320  1.8588  1.4389
   43CHL1    C8 4302   0.208   2.327   5.279  0.2355 -0.2802  0.6596
   43CHL1    H8 4303   0.184   2.219   5.290 -2.2116  0.1089 -0.3039
   43CHL1   C14 4304   0.187   2.359   5.131 -0.2952 -0.0823  0.8963
   43CHL1   H14 4305   0.198   2.469   5.132 -0.9386 -0.0135  0.4330
   43CHL1   C15 4306   0.048   2.336   5.067  0.2398 -0.1833  0.0389
   43CHL1  H15A 4307   0.016   2.232   5.089 -0.9660  0.0737 -0.4444
   43CHL1  H15B 4308  -0.020   2.412   5.112  2.2525  1.6588  0.0254
   43CHL1   C16 4309   0.076   2.351   4.913  0.0260 -0.6333  0.0709
   43CHL1  H16A 4310   0.053   2.253   4.867  1.4522 -1.0153  0.1744
   43CHL1  H16B 4311   0.025   2.440   4.869  1.7087 -0.1668 -0.9708
   43CHL1   C17 4312   0.234   2.366   4.905 -0.3368 -0.3733 -0.0955
   43CHL1   H17 4313   0.243   2.477   4.909 -2.7388 -0.1212 -0.4682
   43CHL1   C13 4314   0.287   2.302   5.037 -0.0866  0.6733  0.4371
   43CHL1   C18 4315   0.268   2.149   5.034  0.2916 -0.1138 -0.6614
   43CHL1  H18A 4316   0.185   2.120   4.966  1.3779  0.2345 -2.1617
   43CHL1  H18B 4317   0.356   2.101   4.986 -1.8662 -1.7242 -3.1370
   43CHL1  H18C 4318   0.252   2.102   5.134 -0.7841 -0.7448 -1.1211
   43CHL1   C12 4319   0.433   2.333   5.086 -0.1768 -0.3261  0.6773
   43CHL1  H12A 4320   0.512   2.276   5.033  2.0598  3.8163 -0.6860
   43CHL1  H12B 4321   0.448   2.442   5.073 -0.6914 -0.3514 -0.1276
   43CHL1   C11 4322   0.462   2.308   5.241 -0.3674  0.2036 -0.1592
   43CHL1  H11A 4323   0.466   2.197   5.247 -1.7093  0.1715  0.2129
   43CHL1  H11B 4324   0.566   2.348   5.251  0.1862 -1.0321 -0.7917
   43CHL1    C9 4325   0.351   2.366   5.330  0.4998  0.3763 -0.1547
   43CHL1    H9 4326   0.360   2.474   5.308 -2.4370  1.2027  2.3738
   43CHL1   C10 4327   0.380   2.351   5.487 -0.4725 -1.1913  1.0184
   43CHL1   C19 4328   0.414   2.202   5.517 -0.8706 -0.3322 -0.3220
   43CHL1  H19A 4329   0.514   2.194   5.469 -0.5164 -0.3098  0.4039
   43CHL1  H19B 4330   0.410   2.191   5.627 -1.7961  1.0314 -0.2063
   43CHL1  H19C 4331   0.340   2.131   5.474 -1.2442  0.1342 -0.4606
   43CHL1    C1 4332   0.504   2.447   5.518  0.6841 -0.9834 -0.6130
   43CHL1   H1A 4333   0.591   2.418   5.457  0.5234 -3.7827  0.4378
   43CHL1   H1B 4334   0.478   2.552   5.490  0.6131 -0.1938  2.1785
   43CHL1    C2 4335   0.531   2.444   5.668  0.3955 -0.2062 -0.5723
   43CHL1   H2A 4336   0.619   2.502   5.704  1.0440 -2.0171  0.8103
   43CHL1   H2B 4337   0.552   2.337   5.689 -2.1396 -0.4152  1.1581
   43CHL1   C20 4338   0.295   2.321   4.770 -0.7211 -0.2060  0.1458
   43CHL1   H20 4339   0.311   2.211   4.771 -1.1150 -0.2728 -1.3020
   43CHL1   C21 4340   0.428   2.392   4.757 -0.1901 -0.6031 -0.6381
   43CHL1  H21A 4341   0.406   2.500   4.748  0.9149 -0.3850 -0.8244
   43CHL1  H21B 4342   0.477   2.370   4.659 -0.0560 -2.7343 -0.1066
   43CHL1  H21C 4343   0.499   2.375   4.840 -1.8626 -0.6857  0.7925
   43CHL1   C22 4344   0.203   2.361   4.651  0.6049 -0.3955  0.1589
   43CHL1  H22A 4345   0.104   2.312   4.660  0.4469  0.0687  0.9696
   43CHL1  H22B 4346   0.182   2.470   4.664  1.0792 -0.5488  2.4291
   43CHL1   C23 4347   0.248   2.328   4.506  0.6974  0.2616  0.4136
   43CHL1  H23A 4348   0.166   2.368   4.444 -0.6876  1.0249  2.6922
   43CHL1  H23B 4349   0.346   2.377   4.488  0.2795  0.5716 -1.0471
   43CHL1   C24 4350   0.258   2.181   4.477 -0.5798  0.3637 -0.2844
   43CHL1  H24A 4351   0.322   2.125   4.549 -1.6388 -0.2879  0.1589
   43CHL1  H24B 4352   0.153   2.146   4.483 -0.5498  0.1601 -0.9139
   43CHL1   C25 4353   0.307   2.145   4.336 -0.4984 -0.5851 -0.6819
   43CHL1   H25 4354   0.257   2.216   4.266  3.2228  2.5613 -0.2972
   43CHL1   C26 4355   0.454   2.194   4.330  0.5887  1.1983  0.0260
   43CHL1  H26A 4356   0.501   2.155   4.423  0.8704 -0.1627 -0.6725
   43CHL1  H26B 4357   0.504   2.135   4.251 -0.4009 -0.3450  0.5369
   43CHL1  H26C 4358   0.466   2.305   4.327 -0.3064  1.4519  3.4732
   43CHL1   C27 4359   0.280   2.003   4.291  0.4926 -0.5767 -0.0777
   43CHL1  H27A 4360   0.174   1.968   4.292  0.4839 -0.5697 -0.6000
   43CHL1  H27B 4361   0.323   1.988   4.189  0.6846  0.1422 -0.1012
   43CHL1  H27C 4362   0.338   1.936   4.357 -0.3305 -0.3798  0.8552
   44CHL1    C3 4363   0.200   4.741   5.748 -0.2614  0.4965  0.0464
   44CHL1    H3 4364   0.143   4.832   5.721  0.5834  1.0584  0.1215
   44CHL1    O3 4365   0.247   4.747   5.878 -0.3819 -0.1078  0.2717
   44CHL1   H3' 4366   0.333   4.704   5.876  0.2570  1.1700 -0.1213
   44CHL1    C4 4367   0.113   4.609   5.733  0.1232  0.1077 -0.7825
   44CHL1   H4A 4368   0.162   4.518   5.773  1.6516  1.2539  0.0373
   44CHL1   H4B 4369   0.027   4.626   5.801  0.9996 -2.3091  0.9917
   44CHL1    C5 4370   0.074   4.578   5.588 -0.1374 -0.0458 -0.2047
   44CHL1    C6 4371  -0.057   4.561   5.549 -0.0677  0.0063 -0.0881
   44CHL1    H6 4372  -0.134   4.573   5.627 -1.5658 -0.6095 -1.4466
   44CHL1    C7 4373  -0.100   4.522   5.412  0.0955  0.6245 -0.0840
   44CHL1   H7A 4374  -0.166   4.435   5.432  1.3531 -0.0760  1.0523
   44CHL1   H7B 4375  -0.164   4.595   5.358 -0.0258 -1.1201 -2.3707
   44CHL1    C8 4376   0.021   4.473   5.323  0.7729 -0.4947  0.3018
   44CHL1    H8 4377   0.042   4.368   5.355  0.7955  0.4286  3.5797
   44CHL1   C14 4378  -0.015   4.491   5.172 -1.1165 -0.0496  1.1172
   44CHL1   H14 4379  -0.024   4.601   5.164  1.3538  0.1337  0.3761
   44CHL1   C15 4380  -0.143   4.441   5.127  0.0170  0.0683  0.0847
   44CHL1  H15A 4381  -0.153   4.336   5.162  0.3602 -0.1814 -0.5590
   44CHL1  H15B 4382  -0.227   4.502   5.165 -0.8244 -1.3567  0.5587
   44CHL1   C16 4383  -0.127   4.446   4.973 -0.1999  0.2857  0.0924
   44CHL1  H16A 4384  -0.139   4.346   4.924  3.2009  1.1392 -2.6911
   44CHL1  H16B 4385  -0.205   4.510   4.927  0.2114  0.3790 -0.4896
   44CHL1   C17 4386   0.020   4.491   4.940  0.9133  0.1037  0.7074
   44CHL1   H17 4387   0.015   4.602   4.935  1.4021  0.0509 -1.7497
   44CHL1   C13 4388   0.094   4.457   5.072  0.3311 -0.1205  0.2371
   44CHL1   C18 4389   0.128   4.306   5.085 -0.4839 -0.2443  0.6611
   44CHL1  H18A 4390   0.206   4.292   5.007  0.3167  3.3143  0.7635
   44CHL1  H18B 4391   0.165   4.270   5.183  3.3108  2.1436  0.2319
   44CHL1  H18C 4392   0.049   4.232   5.061 -0.8432  0.7590 -1.3466
   44CHL1   C12 4393   0.221   4.541   5.107  0.3950  0.5288  0.0355
   44CHL1  H12A 4394   0.300   4.504   5.038  1.3420  1.1978  0.7508
   44CHL1  H12B 4395   0.198   4.647   5.087 -1.6798 -0.0703 -0.9084
   44CHL1   C11 4396   0.265   4.522   5.251  0.4322 -0.0172 -0.0693
   44CHL1  H11A 4397   0.295   4.420   5.283 -0.5342 -0.0845  0.6328
   44CHL1  H11B 4398   0.349   4.593   5.269 -1.2175  1.4951  1.7410
   44CHL1    C9 4399   0.150   4.566   5.347  0.6631  0.0765  0.2983
   44CHL1    H9 4400   0.122   4.671   5.326 -0.6671 -0.5740 -1.3302
   44CHL1   C10 4401   0.193   4.574   5.492 -0.7512  0.0642  0.0763
   44CHL1   C19 4402   0.280   4.449   5.525  0.0005  0.1642 -0.3862
   44CHL1  H19A 4403   0.382   4.478   5.492  0.8465  1.0982  2.9089
   44CHL1  H19B 4404   0.281   4.428   5.634 -0.0982  0.1850 -0.3808
   44CHL1  H19C 4405   0.250   4.367   5.457  0.2647  0.9646 -1.4841
   44CHL1    C1 4406   0.280   4.704   5.513  0.0538  0.2740  0.6273
   44CHL1   H1A 4407   0.371   4.697   5.449 -0.0810  1.6509  0.2709
   44CHL1   H1B 4408   0.222   4.789   5.470 -1.4475 -0.9912  0.1310
   44CHL1    C2 4409   0.321   4.728   5.659  0.3292  0.4394  0.4579
   44CHL1   H2A 4410   0.386   4.818   5.658 -0.8151  1.3978  4.4429
   44CHL1   H2B 4411   0.379   4.641   5.695 -1.7453 -0.6099  1.3134
   44CHL1   C20 4412   0.077   4.450   4.803 -0.7498 -0.2656  0.1421
   44CHL1   H20 4413   0.018   4.510   4.730 -1.1076 -1.7860 -0.8457
   44CHL1   C21 4414   0.070   4.301   4.766 -0.2164 -0.0368  0.0129
   44CHL1  H21A 4415  -0.033   4.260   4.777  0.3060 -1.5474 -0.5715
   44CHL1  H21B 4416   0.140   4.242   4.829  2.3079  0.9645 -1.7538
   44CHL1  H21C 4417   0.082   4.287   4.656 -0.7958  0.5265 -0.1298
   44CHL1   C22 4418   0.221   4.503   4.790 -0.2976  0.2134  0.2533
   44CHL1  H22A 4419   0.230   4.604   4.836  2.2304  0.8608 -1.5592
   44CHL1  H22B 4420   0.291   4.426   4.830 -0.5394 -0.6457 -0.9652
   44CHL1   C23 4421   0.265   4.510   4.642  0.1984 -0.0511  0.0867
   44CHL1  H23A 4422   0.243   4.417   4.585 -2.5758  0.9435 -0.5134
   44CHL1  H23B 4423   0.197   4.585   4.596 -0.9702 -1.3047 -0.2653
   44CHL1   C24 4424   0.410   4.546   4.610  0.7590  0.0789  0.4679
   44CHL1  H24A 4425   0.431   4.641   4.664 -1.1760  0.1262  1.1775
   44CHL1  H24B 4426   0.483   4.468   4.640  0.3151 -0.4602  0.1597
   44CHL1   C25 4427   0.452   4.560   4.464  0.1960  0.0719  0.3218
   44CHL1   H25 4428   0.427   4.462   4.417 -0.1250  1.0955 -1.6612
   44CHL1   C26 4429   0.370   4.666   4.389  0.6620  0.0910 -0.2180
   44CHL1  H26A 4430   0.404   4.662   4.283  0.7896  0.6330 -0.2029
   44CHL1  H26B 4431   0.264   4.633   4.392 -0.2443  2.8110 -0.3192
   44CHL1  H26C 4432   0.378   4.771   4.425  3.0302  0.0776 -0.6046
   44CHL1   C27 4433   0.599   4.594   4.441 -0.7121 -0.4356 -0.6148
   44CHL1  H27A 4434   0.622   4.687   4.498  0.7333  0.7004 -2.9702
   44CHL1  H27B 4435   0.663   4.508   4.468  0.5210  0.7955  0.4632
   44CHL1  H27C 4436   0.616   4.619   4.334  1.9951  0.9123  0.0960
   45CHL1    C3 4437   6.913   4.932   5.646 -0.4424 -0.1109 -0.6036
   45CHL1    H3 4438   6.965   4.835   5.657 -0.9087 -0.2437  0.5589
   45CHL1    O3 4439   6.867   4.967   5.780  0.1604 -0.3931  0.5044
   45CHL1   H3' 4440   6.829   5.053   5.764 -0.1115 -0.1739  2.2336
   45CHL1    C4 4441   7.015   5.034   5.602 -0.0531  0.0522 -0.3307
   45CHL1   H4A 4442   6.980   5.138   5.618  0.6489 -0.0223  1.7008
   45CHL1   H4B 4443   7.103   5.030   5.670  0.6373  0.5365 -1.1827
   45CHL1    C5 4444   7.056   5.005   5.461  0.6555  0.1515 -0.2125
   45CHL1    C6 4445   7.185   5.011   5.423 -0.7158 -0.3014  0.2974
   45CHL1    H6 4446   7.266   5.034   5.493  1.6423 -0.1505 -2.3754
   45CHL1    C7 4447   7.228   4.997   5.275  0.7794 -0.5631 -1.1502
   45CHL1   H7A 4448   7.300   5.078   5.252 -0.3320  1.1307  1.1681
   45CHL1   H7B 4449   7.266   4.894   5.260 -2.5601 -2.1670  0.6670
   45CHL1    C8 4450   7.114   5.008   5.170 -0.4269  0.5970 -0.5646
   45CHL1    H8 4451   7.092   5.117   5.168  0.2173  0.7096 -2.0060
   45CHL1   C14 4452   7.148   4.950   5.036  0.2430  0.5705  0.5475
   45CHL1   H14 4453   7.165   4.841   5.050  0.4901  0.7578  1.7820
   45CHL1   C15 4454   7.277   5.006   4.984 -0.3655  0.5078 -0.1402
   45CHL1  H15A 4455   7.280   5.117   4.996 -0.9027  0.9073 -3.3037
   45CHL1  H15B 4456   7.368   4.956   5.025 -0.7744 -1.7549 -1.9362
   45CHL1   C16 4457   7.271   4.972   4.835  0.2960 -0.6271 -0.1953
   45CHL1  H16A 4458   7.289   5.066   4.778  0.3862 -1.8706 -2.2485
   45CHL1  H16B 4459   7.346   4.899   4.798  0.2202 -0.2878 -1.0279
   45CHL1   C17 4460   7.129   4.909   4.805  0.1998 -0.5283 -0.4507
   45CHL1   H17 4461   7.128   4.799   4.820 -0.3002 -0.6686 -1.5122
   45CHL1   C13 4462   7.046   4.969   4.921 -0.4033 -0.1465 -0.1793
   45CHL1   C18 4463   7.009   5.114   4.891 -0.5276 -0.4122  0.7729
   45CHL1  H18A 4464   6.931   5.134   4.816 -0.5352 -1.2806  0.5436
   45CHL1  H18B 4465   6.980   5.152   4.991 -0.5622 -4.2341  2.3101
   45CHL1  H18C 4466   7.096   5.166   4.846 -0.7061 -1.3779 -0.7162
   45CHL1   C12 4467   6.927   4.888   4.968  0.5024  0.1481  0.7050
   45CHL1  H12A 4468   6.839   4.897   4.901  0.7285 -0.1112  0.3651
   45CHL1  H12B 4469   6.948   4.778   4.964 -0.9754 -0.1242  0.0614
   45CHL1   C11 4470   6.887   4.933   5.108 -0.2760 -0.0422 -0.0338
   45CHL1  H11A 4471   6.825   5.025   5.101 -2.0007 -1.3921 -3.3555
   45CHL1  H11B 4472   6.807   4.863   5.141 -0.5512 -0.3012 -1.2400
   45CHL1    C9 4473   6.991   4.939   5.218  0.5369 -0.4176  0.1106
   45CHL1    H9 4474   7.014   4.832   5.236 -0.7474 -0.7970 -0.4916
   45CHL1   C10 4475   6.942   4.989   5.355 -0.1887  0.5226 -0.2788
   45CHL1   C19 4476   6.866   5.121   5.338  0.2044 -0.3268 -0.3041
   45CHL1  H19A 4477   6.770   5.120   5.281  1.4662 -0.8766 -2.4612
   45CHL1  H19B 4478   6.843   5.171   5.435 -1.7613  0.6506 -1.2326
   45CHL1  H19C 4479   6.935   5.196   5.295  0.7374 -1.3091 -1.1771
   45CHL1    C1 4480   6.831   4.886   5.412  0.6262 -0.1517 -0.1658
   45CHL1   H1A 4481   6.744   4.895   5.344  0.0248  0.4893  0.6929
   45CHL1   H1B 4482   6.866   4.781   5.398  0.0705 -0.1826 -1.3539
   45CHL1    C2 4483   6.788   4.916   5.557 -0.0828 -0.1735  0.2130
   45CHL1   H2A 4484   6.723   4.839   5.604 -0.7596  0.6370  0.6224
   45CHL1   H2B 4485   6.733   5.013   5.554  0.1315 -0.0120  1.1817
   45CHL1   C20 4486   7.079   4.944   4.664 -0.2888 -0.7083 -0.4365
   45CHL1   H20 4487   7.065   5.053   4.648 -0.8817 -0.5633  1.0613
   45CHL1   C21 4488   6.944   4.883   4.645  0.5343 -0.0213  0.0825
   45CHL1  H21A 4489   6.864   4.933   4.704  2.1573  2.1566  0.4931
   45CHL1  H21B 4490   6.940   4.777   4.679 -0.3832  0.2150  0.7204
   45CHL1  H21C 4491   6.914   4.882   4.538  1.6730  1.0781 -0.2525
   45CHL1   C22 4492   7.169   4.891   4.556 -0.2878 -0.1149  0.0532
   45CHL1  H22A 4493   7.279   4.906   4.560 -0.1713  0.1970 -2.8802
   45CHL1  H22B 4494   7.153   4.782   4.545 -1.3289  0.2023 -1.8765
   45CHL1   C23 4495   7.134   4.958   4.421  0.2471  0.3236  0.0113
   45CHL1  H23A 4496   7.036   4.923   4.385  1.3182 -0.6131 -2.0634
   45CHL1  H23B 4497   7.140   5.068   4.434 -0.9780  0.6327 -1.8765
   45CHL1   C24 4498   7.232   4.904   4.314  0.2825 -0.0169  0.1861
   45CHL1  H24A 4499   7.334   4.923   4.355  0.8452 -0.0212 -1.1925
   45CHL1  H24B 4500   7.219   4.794   4.318 -2.9516  0.3137 -0.1014
   45CHL1   C25 4501   7.208   4.956   4.167  0.8260  0.5517 -0.3303
   45CHL1   H25 4502   7.225   5.065   4.176  0.0223  0.6541 -0.0102
   45CHL1   C26 4503   7.307   4.896   4.072 -0.8059 -0.2948  0.1727
   45CHL1  H26A 4504   7.286   4.791   4.041 -1.1555  0.3756 -1.9448
   45CHL1  H26B 4505   7.303   4.966   3.986  2.8492 -1.7443 -1.3013
   45CHL1  H26C 4506   7.411   4.896   4.111 -1.2009  0.2448  1.2341
   45CHL1   C27 4507   7.061   4.942   4.118  0.2150 -0.6731 -0.6901
   45CHL1  H27A 4508   7.035   4.842   4.077 -0.9171 -1.0920  1.0069
   45CHL1  H27B 4509   6.996   4.982   4.199  0.9381  0.4222 -0.6313
   45CHL1  H27C 4510   7.043   5.011   4.033  0.5602  0.8990  0.4878
   46CHL1    C3 4511   1.099   6.160   5.695 -0.4583 -0.2187 -0.8915
   46CHL1    H3 4512   1.029   6.244   5.714  0.3658 -0.0799  1.6296
   46CHL1    O3 4513   1.111   6.088   5.818 -0.6853  0.0657 -0.2906
   46CHL1   H3' 4514   1.166   6.010   5.808 -0.6513 -0.3093  2.3250
   46CHL1    C4 4515   1.057   6.062   5.589  0.1371 -0.1047 -0.4489
   46CHL1   H4A 4516   1.130   5.979   5.576  0.8946  0.3066  1.0377
   46CHL1   H4B 4517   0.961   6.019   5.626 -0.1479  1.7222  1.0262
   46CHL1    C5 4518   1.048   6.151   5.464 -0.3833 -0.0291  0.3298
   46CHL1    C6 4519   0.925   6.160   5.401 -0.8511  0.1123  0.1389
   46CHL1    H6 4520   0.835   6.112   5.443 -0.8859  1.0428  1.1618
   46CHL1    C7 4521   0.910   6.206   5.265  1.2957 -0.6140  0.6191
   46CHL1   H7A 4522   0.853   6.123   5.218  0.1052  0.8737 -0.6231
   46CHL1   H7B 4523   0.848   6.298   5.265  0.1062 -1.4076  0.9305
   46CHL1    C8 4524   1.042   6.232   5.193 -0.8334 -0.3854 -0.5397
   46CHL1    H8 4525   1.085   6.132   5.172 -1.3566 -0.4313 -1.4195
   46CHL1   C14 4526   1.019   6.325   5.075 -0.5722  0.4188 -0.1252
   46CHL1   H14 4527   0.985   6.421   5.119 -2.2122  0.4065 -1.2980
   46CHL1   C15 4528   0.915   6.280   4.976  0.5370  0.1363  0.5771
   46CHL1  H15A 4529   0.934   6.173   4.952  1.3666  0.3642  0.2059
   46CHL1  H15B 4530   0.811   6.283   5.016 -0.6602 -0.3166 -2.3987
   46CHL1   C16 4531   0.942   6.372   4.854  0.2574 -0.1550 -0.3136
   46CHL1  H16A 4532   0.932   6.306   4.765  0.6657 -0.5082 -0.0943
   46CHL1  H16B 4533   0.877   6.462   4.845  1.4733  0.5492 -2.6984
   46CHL1   C17 4534   1.087   6.439   4.873  0.5316  0.3327 -0.8290
   46CHL1   H17 4535   1.076   6.542   4.914 -2.1274 -0.1767 -0.1519
   46CHL1   C13 4536   1.144   6.357   4.994  0.0609 -0.4564 -0.7322
   46CHL1   C18 4537   1.197   6.222   4.949  0.2821  0.0077 -0.7666
   46CHL1  H18A 4538   1.282   6.247   4.882  1.4062 -1.2995  0.1401
   46CHL1  H18B 4539   1.223   6.149   5.029  0.4193 -1.3490 -2.0403
   46CHL1  H18C 4540   1.137   6.169   4.872  1.5947  0.4797 -2.1334
   46CHL1   C12 4541   1.243   6.428   5.091 -0.7015 -0.8706  0.2604
   46CHL1  H12A 4542   1.335   6.458   5.036 -0.0921 -0.1280  1.6439
   46CHL1  H12B 4543   1.198   6.522   5.130 -0.9721 -1.1565  0.6429
   46CHL1   C11 4544   1.274   6.338   5.211 -0.3007  0.1127 -0.1613
   46CHL1  H11A 4545   1.335   6.252   5.176  0.2532  0.9088 -1.1613
   46CHL1  H11B 4546   1.338   6.394   5.283  0.2314 -0.8080  0.1000
   46CHL1    C9 4547   1.144   6.295   5.287  0.6011  0.9758 -0.4895
   46CHL1    H9 4548   1.110   6.393   5.328  2.4778  0.1904  3.1328
   46CHL1   C10 4549   1.176   6.208   5.412 -0.2425 -0.0472  0.7463
   46CHL1   C19 4550   1.286   6.103   5.376  0.0891 -0.1606  0.4632
   46CHL1  H19A 4551   1.255   6.030   5.298  0.1172  3.3596 -2.9975
   46CHL1  H19B 4552   1.386   6.144   5.353 -0.2729  0.8898  0.7216
   46CHL1  H19C 4553   1.312   6.037   5.462  1.0205 -2.5210 -1.5763
   46CHL1    C1 4554   1.238   6.289   5.531  0.1093 -0.6809  0.1882
   46CHL1   H1A 4555   1.344   6.310   5.505 -0.2691 -0.0993 -0.8707
   46CHL1   H1B 4556   1.173   6.378   5.544  1.8161  0.9909 -2.2688
   46CHL1    C2 4557   1.238   6.211   5.665  0.0085 -0.2381  0.5403
   46CHL1   H2A 4558   1.262   6.293   5.736  0.0199  0.9110 -0.7770
   46CHL1   H2B 4559   1.321   6.138   5.655  0.3621  0.0426  1.4170
   46CHL1   C20 4560   1.169   6.442   4.737  0.2217 -0.0690 -0.2490
   46CHL1   H20 4561   1.176   6.334   4.711  0.6748 -0.6468  2.1744
   46CHL1   C21 4562   1.301   6.506   4.756 -0.0145 -0.4858 -1.0242
   46CHL1  H21A 4563   1.355   6.451   4.836 -0.5851  0.3531 -0.0394
   46CHL1  H21B 4564   1.299   6.613   4.788  1.4983 -1.2429  1.7138
   46CHL1  H21C 4565   1.365   6.510   4.666 -2.2290 -0.0955 -2.6349
   46CHL1   C22 4566   1.085   6.505   4.630 -0.5271 -0.1920 -0.0261
   46CHL1  H22A 4567   0.981   6.470   4.615 -1.3748  2.2555 -0.1727
   46CHL1  H22B 4568   1.075   6.614   4.649 -0.3836 -0.3054  0.6847
   46CHL1   C23 4569   1.140   6.478   4.486  0.1167 -0.5265 -0.0075
   46CHL1  H23A 4570   1.249   6.495   4.475  0.6741 -3.1892  0.9431
   46CHL1  H23B 4571   1.118   6.376   4.446 -2.6141  0.3079 -0.7485
   46CHL1   C24 4572   1.075   6.585   4.391 -0.1943  0.1269 -0.4100
   46CHL1  H24A 4573   0.969   6.586   4.425  0.0098 -2.3142  0.4227
   46CHL1  H24B 4574   1.114   6.688   4.399 -3.1494  1.2415  0.4494
   46CHL1   C25 4575   1.091   6.553   4.241  0.3266 -0.9089  0.5340
   46CHL1   H25 4576   1.095   6.445   4.212 -1.7321 -0.6519 -0.8168
   46CHL1   C26 4577   0.976   6.617   4.161  0.2936  0.2131  0.6470
   46CHL1  H26A 4578   0.981   6.727   4.151 -2.0170  0.1593 -1.6955
   46CHL1  H26B 4579   0.979   6.578   4.057  0.2118  3.4433 -0.6314
   46CHL1  H26C 4580   0.884   6.611   4.223  2.0413 -0.1434  3.2862
   46CHL1   C27 4581   1.228   6.597   4.179 -0.1215 -0.1138  0.5059
   46CHL1  H27A 4582   1.230   6.579   4.069  0.2261  2.4752  0.0494
   46CHL1  H27B 4583   1.246   6.706   4.191 -0.1102 -0.0902  0.2677
   46CHL1  H27C 4584   1.321   6.545   4.213  0.4472 -0.1619 -1.0779
   47CHL1    C3 4585   1.264   0.087   5.728  0.2531 -0.7154  0.5743
   47CHL1    H3 4586   1.330   0.087   5.639 -0.3723  0.4612  0.1044
   47CHL1    O3 4587   1.334   0.076   5.856  0.2897 -0.4269 -0.2368
   47CHL1   H3' 4588   1.370  -0.013   5.860 -0.3391 -0.6901 -0.3583
   47CHL1    C4 4589   1.166   0.211   5.732  0.1298 -0.1303  0.4461
   47CHL1   H4A 4590   1.092   0.203   5.815 -1.4586 -0.2515 -0.9472
   47CHL1   H4B 4591   1.232   0.295   5.762  0.4354 -0.6444  1.2311
   47CHL1    C5 4592   1.102   0.218   5.599 -0.6041 -0.2114  0.4733
   47CHL1    C6 4593   1.118   0.332   5.528  0.4818  0.6761 -0.5433
   47CHL1    H6 4594   1.174   0.419   5.564 -1.3739  0.7166  2.4189
   47CHL1    C7 4595   1.059   0.347   5.388 -0.1791 -0.3219 -0.0280
   47CHL1   H7A 4596   1.033   0.454   5.372  0.8664  0.4463  3.0857
   47CHL1   H7B 4597   1.129   0.314   5.308  0.2258  2.6453 -0.9644
   47CHL1    C8 4598   0.938   0.258   5.359 -0.0512  0.7272 -0.7126
   47CHL1    H8 4599   0.856   0.293   5.426 -0.4651 -1.0342 -0.2725
   47CHL1   C14 4600   0.905   0.264   5.213  0.0110  0.9374 -0.6402
   47CHL1   H14 4601   0.989   0.229   5.149 -0.8426 -1.6650 -0.3876
   47CHL1   C15 4602   0.853   0.397   5.158  0.6467  0.5844  0.3368
   47CHL1  H15A 4603   0.773   0.436   5.224 -0.7491  0.1764 -1.1002
   47CHL1  H15B 4604   0.938   0.465   5.138  0.6485  0.3455 -0.4775
   47CHL1   C16 4605   0.776   0.365   5.031 -0.4507  0.2193 -0.9602
   47CHL1  H16A 4606   0.677   0.415   5.038 -0.0192  0.7773  1.7440
   47CHL1  H16B 4607   0.823   0.404   4.938 -0.5902  1.1708 -0.6358
   47CHL1   C17 4608   0.773   0.206   5.018  0.0122 -0.0381  0.1374
   47CHL1   H17 4609   0.869   0.178   4.969  1.2015  3.9041  0.1031
   47CHL1   C13 4610   0.788   0.168   5.175 -0.4503  0.1188  0.0492
   47CHL1   C18 4611   0.662   0.192   5.251  0.0601  0.5279 -0.1040
   47CHL1  H18A 4612   0.677   0.173   5.360 -1.9961  0.6214  0.2135
   47CHL1  H18B 4613   0.607   0.287   5.231 -1.7268 -0.6249 -0.6912
   47CHL1  H18C 4614   0.591   0.116   5.213  0.1792  0.2941  0.1366
   47CHL1   C12 4615   0.838   0.022   5.203  0.2957 -0.1835 -0.4305
   47CHL1  H12A 4616   0.758  -0.049   5.174  1.2668 -1.1293 -0.8660
   47CHL1  H12B 4617   0.927  -0.002   5.140 -1.7507 -1.3770 -2.9578
   47CHL1   C11 4618   0.885  -0.001   5.348  0.1525 -0.3282  0.1909
   47CHL1  H11A 4619   0.796  -0.001   5.415  0.9162 -0.4889  1.2244
   47CHL1  H11B 4620   0.934  -0.098   5.369  3.4950  1.5240  1.3580
   47CHL1    C9 4621   0.980   0.110   5.399  0.1244  0.0544 -0.1621
   47CHL1    H9 4622   1.076   0.090   5.348 -1.0591 -0.7916 -2.0921
   47CHL1   C10 4623   1.016   0.095   5.553  0.6661  0.3159  0.6170
   47CHL1   C19 4624   0.890   0.086   5.637 -0.3849 -0.6938 -0.6270
   47CHL1  H19A 4625   0.833  -0.008   5.619 -1.1017 -0.1726 -1.1459
   47CHL1  H19B 4626   0.909   0.082   5.746 -0.3827 -0.6292 -0.6243
   47CHL1  H19C 4627   0.823   0.175   5.626  0.0989 -0.3363 -0.6724
   47CHL1    C1 4628   1.103  -0.030   5.573 -0.7933 -0.4818 -0.6259
   47CHL1   H1A 4629   1.052  -0.128   5.565 -0.1459 -0.7907 -1.0389
   47CHL1   H1B 4630   1.186  -0.039   5.500  1.5108 -4.6356  2.2292
   47CHL1    C2 4631   1.174  -0.039   5.711  0.4230  0.0509  0.7407
   47CHL1   H2A 4632   1.236  -0.128   5.734  0.0633 -0.6410 -0.8575
   47CHL1   H2B 4633   1.092  -0.035   5.785 -0.5622  1.2823 -0.3866
   47CHL1   C20 4634   0.647   0.162   4.940  0.0296  0.7622 -0.0463
   47CHL1   H20 4635   0.557   0.210   4.984 -1.4891 -1.7984 -0.2716
   47CHL1   C21 4636   0.629   0.008   4.940  0.1125 -0.3900 -0.5271
   47CHL1  H21A 4637   0.716  -0.047   4.899  1.4758 -0.8277  2.7932
   47CHL1  H21B 4638   0.546  -0.024   4.872  0.7133  1.4472 -2.1761
   47CHL1  H21C 4639   0.590  -0.034   5.035 -1.1222  0.9402 -0.4338
   47CHL1   C22 4640   0.643   0.219   4.793 -0.3126 -0.0166  0.3593
   47CHL1  H22A 4641   0.551   0.180   4.744 -1.3657  0.4048  1.9658
   47CHL1  H22B 4642   0.633   0.330   4.798 -2.6580 -0.2805  2.4588
   47CHL1   C23 4643   0.763   0.191   4.695  0.3818 -0.2662 -0.3866
   47CHL1  H23A 4644   0.864   0.216   4.734 -0.3877  2.2121  0.0965
   47CHL1  H23B 4645   0.753   0.081   4.679 -0.1705 -0.4098  0.8674
   47CHL1   C24 4646   0.744   0.274   4.562  0.2645  0.4982  0.2389
   47CHL1  H24A 4647   0.785   0.224   4.471  0.9318 -2.4818  2.1033
   47CHL1  H24B 4648   0.634   0.283   4.548 -0.0514 -0.1971  2.1523
   47CHL1   C25 4649   0.799   0.420   4.571  1.2096 -0.6957  0.1178
   47CHL1   H25 4650   0.769   0.461   4.670  2.2863 -3.5129  1.6760
   47CHL1   C26 4651   0.950   0.437   4.563 -0.0153 -0.5044  0.3205
   47CHL1  H26A 4652   0.994   0.377   4.645 -0.5542 -1.1174  0.1774
   47CHL1  H26B 4653   1.001   0.406   4.469 -2.9034  0.1665 -1.5301
   47CHL1  H26C 4654   0.974   0.544   4.579 -0.4210 -0.2197 -0.9380
   47CHL1   C27 4655   0.732   0.490   4.452 -0.6382 -0.2699  0.3765
   47CHL1  H27A 4656   0.772   0.590   4.423 -0.5833 -0.4724 -0.2319
   47CHL1  H27B 4657   0.740   0.427   4.361 -0.8466 -2.2831  1.7161
   47CHL1  H27C 4658   0.623   0.502   4.468 -1.0610 -1.8038 -1.2261
   48CHL1    C3 4659   6.054   0.021   5.638 -0.2502 -0.1748  0.1879
   48CHL1    H3 4660   6.135   0.096   5.639 -0.3496 -0.0698  0.9028
   48CHL1    O3 4661   6.000   0.005   5.765  0.4956  0.4979 -0.0998
   48CHL1   H3' 4662   6.065  -0.034   5.824 -1.0289 -0.5422  0.9383
   48CHL1    C4 4663   5.933   0.064   5.542 -0.8524  0.1728  0.4784
   48CHL1   H4A 4664   5.838   0.010   5.560 -0.7477  0.3830  1.7100
   48CHL1   H4B 4665   5.918   0.170   5.573 -0.0600  0.3884  0.1307
   48CHL1    C5 4666   5.978   0.055   5.395 -0.1816  0.2058 -0.1968
   48CHL1    C6 4667   5.957   0.154   5.309 -0.1579 -0.2028  0.6850
   48CHL1    H6 4668   5.901   0.242   5.345 -1.9221 -1.7913  1.8976
   48CHL1    C7 4669   5.984   0.139   5.159 -0.5649 -0.5220 -0.2158
   48CHL1   H7A 4670   5.903   0.190   5.102 -0.3560  1.0848  0.8719
   48CHL1   H7B 4671   6.080   0.190   5.136  0.1722 -1.2146  1.2597
   48CHL1    C8 4672   6.007  -0.006   5.112  0.5107  0.4863  0.1116
   48CHL1    H8 4673   5.910  -0.059   5.116  0.1826  1.2188  3.0413
   48CHL1   C14 4674   6.055  -0.009   4.971 -0.0397 -0.4495 -0.0578
   48CHL1   H14 4675   6.153   0.042   4.975 -0.5970  0.6027  0.3082
   48CHL1   C15 4676   5.984   0.072   4.861  0.5943  0.2405  0.6652
   48CHL1  H15A 4677   5.878   0.038   4.859  1.1601 -1.5168 -1.5122
   48CHL1  H15B 4678   5.982   0.179   4.891  0.6162  0.0818  1.2503
   48CHL1   C16 4679   6.050   0.028   4.729 -0.6910  0.4003  0.0044
   48CHL1  H16A 4680   5.974   0.025   4.648 -2.6164  0.0909  1.7906
   48CHL1  H16B 4681   6.116   0.113   4.703 -1.5972  1.5389  1.4348
   48CHL1   C17 4682   6.130  -0.103   4.767 -0.3475  0.2897  0.0528
   48CHL1   H17 4683   6.237  -0.077   4.780 -0.3639  1.8642 -2.6890
   48CHL1   C13 4684   6.083  -0.142   4.911  0.6728 -1.0097  0.0620
   48CHL1   C18 4685   5.962  -0.243   4.910  0.2130 -0.3608  0.5713
   48CHL1  H18A 4686   5.913  -0.241   5.009  0.1813  6.3996  0.6809
   48CHL1  H18B 4687   5.897  -0.198   4.832  0.3170  1.6351  1.5835
   48CHL1  H18C 4688   6.002  -0.342   4.880 -1.1679 -0.3126 -1.4786
   48CHL1   C12 4689   6.193  -0.204   5.008  0.2894 -0.4625 -0.2413
   48CHL1  H12A 4690   6.210  -0.304   4.963  1.3130 -1.1349  1.5717
   48CHL1  H12B 4691   6.284  -0.143   4.992  1.4597 -2.1999 -0.3534
   48CHL1   C11 4692   6.147  -0.214   5.153 -0.1572 -0.3407 -0.3304
   48CHL1  H11A 4693   6.056  -0.278   5.152  1.4549 -2.7025 -1.2462
   48CHL1  H11B 4694   6.230  -0.265   5.207 -1.3561 -0.6368  1.2852
   48CHL1    C9 4695   6.108  -0.072   5.211  0.1350 -0.3902 -0.4475
   48CHL1    H9 4696   6.197  -0.009   5.231  0.0038 -0.2391 -0.3397
   48CHL1   C10 4697   6.047  -0.079   5.359  0.3301 -0.1930 -0.0892
   48CHL1   C19 4698   5.946  -0.187   5.352  0.5407  0.3211  1.2257
   48CHL1  H19A 4699   5.881  -0.176   5.262  1.9263  0.3818  0.2097
   48CHL1  H19B 4700   5.991  -0.288   5.348 -0.9945 -0.4479  2.5800
   48CHL1  H19C 4701   5.869  -0.191   5.432  0.3642 -0.0345  1.0425
   48CHL1    C1 4702   6.167  -0.110   5.457  0.6589 -0.4893  0.4555
   48CHL1   H1A 4703   6.205  -0.213   5.437 -0.4962 -0.6684 -0.8566
   48CHL1   H1B 4704   6.250  -0.038   5.438  1.0905 -0.4300  2.3919
   48CHL1    C2 4705   6.124  -0.108   5.601  0.0944 -0.3589 -0.4145
   48CHL1   H2A 4706   6.220  -0.124   5.653  0.3118  0.0103 -0.7075
   48CHL1   H2B 4707   6.058  -0.195   5.626 -0.5819  0.7476  1.7882
   48CHL1   C20 4708   6.131  -0.211   4.656 -0.5787 -0.5289  0.2408
   48CHL1   H20 4709   6.029  -0.248   4.634  0.3676 -2.0916 -1.6545
   48CHL1   C21 4710   6.221  -0.328   4.689 -1.0646  0.0590 -0.0991
   48CHL1  H21A 4711   6.229  -0.394   4.601 -0.6079  1.7336 -1.3376
   48CHL1  H21B 4712   6.326  -0.301   4.713 -1.1003  0.6535 -0.5901
   48CHL1  H21C 4713   6.182  -0.393   4.771 -0.6372 -1.6962 -1.2551
   48CHL1   C22 4714   6.160  -0.150   4.516  0.2998  0.3471  0.0877
   48CHL1  H22A 4715   6.097  -0.062   4.490  1.1465  0.6689 -0.9062
   48CHL1  H22B 4716   6.267  -0.120   4.511  1.2259 -3.0217 -2.2516
   48CHL1   C23 4717   6.134  -0.252   4.395 -1.2435 -0.3003 -0.1736
   48CHL1  H23A 4718   6.217  -0.326   4.395 -0.0709  0.9246 -3.1470
   48CHL1  H23B 4719   6.036  -0.302   4.411 -2.0680  0.8810 -1.4569
   48CHL1   C24 4720   6.145  -0.175   4.259 -0.2668 -0.6450  0.5327
   48CHL1  H24A 4721   6.075  -0.089   4.252 -1.3156 -1.5729 -0.5791
   48CHL1  H24B 4722   6.250  -0.144   4.243 -0.2337 -1.9230 -2.0467
   48CHL1   C25 4723   6.114  -0.269   4.140 -0.0564 -0.1038 -0.6286
   48CHL1   H25 4724   6.019  -0.324   4.159  0.0132 -0.7400 -2.0399
   48CHL1   C26 4725   6.112  -0.196   4.007 -0.0135 -0.7027  0.7136
   48CHL1  H26A 4726   6.201  -0.134   3.984 -1.7125  1.5307 -0.0103
   48CHL1  H26B 4727   6.103  -0.275   3.929 -0.5587 -1.9901  2.0667
   48CHL1  H26C 4728   6.027  -0.125   4.004  1.1761  0.7786  1.3720
   48CHL1   C27 4729   6.219  -0.387   4.138  0.4411 -0.8844  0.0933
   48CHL1  H27A 4730   6.321  -0.342   4.143 -1.1948  2.9249  0.8859
   48CHL1  H27B 4731   6.203  -0.448   4.229  2.6204 -0.3730  0.8403
   48CHL1  H27C 4732   6.214  -0.449   4.046  1.4404  0.3203 -0.7797
   49CHL1    C3 4733   4.088   4.071   2.430  0.3951  0.0231  0.4140
   49CHL1    H3 4734   4.109   4.178   2.453 -0.3941  0.2252  0.1795
   49CHL1    O3 4735   4.076   4.054   2.289  0.4772  0.3802 -0.5173
   49CHL1   H3' 4736   4.053   3.962   2.274  0.7522  0.3244 -0.6076
   49CHL1    C4 4737   4.209   3.992   2.492  0.3248  0.0140  0.1248
   49CHL1   H4A 4738   4.195   3.884   2.468  0.5292  0.2079 -0.8807
   49CHL1   H4B 4739   4.295   4.029   2.433  1.4880 -3.1576 -0.2706
   49CHL1    C5 4740   4.222   4.003   2.642  0.0693  0.0697 -0.1762
   49CHL1    C6 4741   4.341   4.043   2.696  0.3368 -0.7877 -0.3383
   49CHL1    H6 4742   4.425   4.067   2.628  0.4778 -2.2907 -0.7087
   49CHL1    C7 4743   4.364   4.045   2.846 -0.2508  0.1657 -0.1037
   49CHL1   H7A 4744   4.458   3.991   2.873 -1.1143 -2.2359 -1.7704
   49CHL1   H7B 4745   4.381   4.150   2.877 -1.9299  1.1128 -2.3453
   49CHL1    C8 4746   4.246   3.979   2.925 -0.2266  0.1661 -0.4332
   49CHL1    H8 4747   4.261   3.870   2.918  0.8997  0.3115 -0.3768
   49CHL1   C14 4748   4.267   4.013   3.076  0.1847 -0.2524 -0.1794
   49CHL1   H14 4749   4.266   4.123   3.087 -0.2239 -0.2449 -0.2928
   49CHL1   C15 4750   4.399   3.979   3.150 -0.0317 -0.5935 -0.1468
   49CHL1  H15A 4751   4.420   3.870   3.140 -1.7449 -0.8990 -0.5465
   49CHL1  H15B 4752   4.482   4.041   3.109 -0.6529 -0.8193 -1.8009
   49CHL1   C16 4753   4.365   3.998   3.301 -0.0282 -0.1973  0.6090
   49CHL1  H16A 4754   4.389   3.906   3.358 -1.6769 -0.2406  1.2433
   49CHL1  H16B 4755   4.415   4.090   3.337 -2.9426  2.0146 -0.7846
   49CHL1   C17 4756   4.206   4.011   3.307  0.1400  0.0784 -0.8512
   49CHL1   H17 4757   4.182   4.120   3.301 -0.2659  0.0914  0.6471
   49CHL1   C13 4758   4.156   3.964   3.169 -0.1042  0.5048  0.5426
   49CHL1   C18 4759   4.144   3.809   3.161 -0.1383  0.0064 -0.2585
   49CHL1  H18A 4760   4.057   3.779   3.223 -0.0059  1.5741  0.7163
   49CHL1  H18B 4761   4.121   3.773   3.059 -2.0878  0.7645 -0.1108
   49CHL1  H18C 4762   4.236   3.751   3.183 -1.2784 -1.4381  0.8052
   49CHL1   C12 4763   4.030   4.035   3.119 -0.3860  0.1027 -0.7474
   49CHL1  H12A 4764   3.942   3.999   3.177 -0.1691 -0.3372 -0.6868
   49CHL1  H12B 4765   4.032   4.145   3.136  1.7026 -0.0120 -0.0375
   49CHL1   C11 4766   3.995   3.995   2.977  0.0726  0.7121  0.3972
   49CHL1  H11A 4767   3.959   3.891   2.965  1.4009  0.2490  0.2898
   49CHL1  H11B 4768   3.913   4.061   2.942  0.6227  1.7883  1.0869
   49CHL1    C9 4769   4.109   4.015   2.869 -0.1051  0.1134  0.3742
   49CHL1    H9 4770   4.111   4.126   2.867  0.8518  0.1502  2.1090
   49CHL1   C10 4771   4.099   3.968   2.720  0.1048 -0.0077  0.2911
   49CHL1   C19 4772   4.071   3.820   2.710  1.0054  0.5182 -0.3402
   49CHL1  H19A 4773   4.155   3.759   2.750 -0.6076 -0.8459  1.0203
   49CHL1  H19B 4774   3.970   3.795   2.749  1.2303 -1.1614 -0.7874
   49CHL1  H19C 4775   4.065   3.790   2.603 -1.4715 -0.6084  0.0802
   49CHL1    C1 4776   3.978   4.041   2.662  0.6587 -0.4047  0.4083
   49CHL1   H1A 4777   3.894   3.990   2.715 -0.9297  1.7199  0.0096
   49CHL1   H1B 4778   3.985   4.145   2.699 -1.4361 -0.1914  0.2620
   49CHL1    C2 4779   3.959   4.034   2.508 -0.0069 -0.5742  1.1286
   49CHL1   H2A 4780   3.872   4.088   2.466 -0.8564 -2.3573  0.5253
   49CHL1   H2B 4781   3.950   3.927   2.479 -1.5759 -0.6108  1.7267
   49CHL1   C20 4782   4.140   3.969   3.437  0.4744 -0.2805 -0.8034
   49CHL1   H20 4783   4.033   3.946   3.420  0.6307 -0.6822 -1.2572
   49CHL1   C21 4784   4.147   4.078   3.540 -0.2819  0.0092  0.4236
   49CHL1  H21A 4785   4.085   4.060   3.631  0.3298 -0.1366  0.8148
   49CHL1  H21B 4786   4.117   4.172   3.489  2.0293  0.3713 -0.3276
   49CHL1  H21C 4787   4.251   4.103   3.570 -0.6299  0.5869  1.1831
   49CHL1   C22 4788   4.196   3.836   3.505 -0.1113 -0.3435  0.3022
   49CHL1  H22A 4789   4.215   3.758   3.428 -0.8750  3.3349 -3.8311
   49CHL1  H22B 4790   4.296   3.861   3.547  0.6185 -1.7943 -0.5501
   49CHL1   C23 4791   4.102   3.774   3.611  0.0668 -0.2766  0.3905
   49CHL1  H23A 4792   4.068   3.856   3.678 -2.8265 -0.9416 -0.1816
   49CHL1  H23B 4793   4.010   3.731   3.564  0.7351  0.1134 -1.3154
   49CHL1   C24 4794   4.173   3.659   3.680 -0.5613 -0.3333  0.4664
   49CHL1  H24A 4795   4.204   3.587   3.601  1.3915  0.9297  0.0348
   49CHL1  H24B 4796   4.266   3.705   3.720 -1.2695  0.8144  0.8192
   49CHL1   C25 4797   4.098   3.585   3.791 -0.6979  0.3278  0.8557
   49CHL1   H25 4798   3.990   3.582   3.766 -0.1946  0.2903 -1.3762
   49CHL1   C26 4799   4.142   3.441   3.818 -0.4158 -0.2673  0.3535
   49CHL1  H26A 4800   4.080   3.376   3.884 -0.1784 -1.6151 -0.7158
   49CHL1  H26B 4801   4.147   3.384   3.723 -2.4975  3.3096 -2.0397
   49CHL1  H26C 4802   4.245   3.439   3.859  0.1717 -0.4195 -1.0731
   49CHL1   C27 4803   4.086   3.672   3.924 -0.6203  0.1686  0.3773
   49CHL1  H27A 4804   4.074   3.780   3.898 -0.2490  0.2217  0.4242
   49CHL1  H27B 4805   4.003   3.635   3.988 -0.8822  1.6709  0.9318
   49CHL1  H27C 4806   4.176   3.678   3.989 -0.0865  1.4507 -0.4619
   50CHL1    C3 4807   4.104   3.445   2.343  0.7389 -0.1985  0.1809
   50CHL1    H3 4808   4.112   3.522   2.422  2.9164  1.6506 -1.7303
   50CHL1    O3 4809   4.108   3.515   2.219 -0.1110  0.1719  0.0967
   50CHL1   H3' 4810   4.179   3.476   2.168 -1.1520 -2.4766  0.5791
   50CHL1    C4 4811   4.225   3.346   2.352 -0.7581 -0.4915  0.4376
   50CHL1   H4A 4812   4.224   3.280   2.263 -1.3278 -0.5373  0.4796
   50CHL1   H4B 4813   4.323   3.399   2.349 -1.4709  0.9133  1.1748
   50CHL1    C5 4814   4.218   3.277   2.485  0.3034 -0.1229 -0.1719
   50CHL1    C6 4815   4.317   3.279   2.576  0.2112  0.1466  0.1173
   50CHL1    H6 4816   4.413   3.330   2.559 -0.3209  0.6324 -1.5328
   50CHL1    C7 4817   4.314   3.206   2.711 -0.2603 -0.1635 -0.2338
   50CHL1   H7A 4818   4.406   3.143   2.720  0.4303  0.7907 -0.5294
   50CHL1   H7B 4819   4.303   3.278   2.794 -1.7025 -2.2270  1.4260
   50CHL1    C8 4820   4.198   3.104   2.711  0.3875 -0.1520 -0.7485
   50CHL1    H8 4821   4.228   3.016   2.650 -3.8921 -0.4553 -2.5595
   50CHL1   C14 4822   4.186   3.067   2.862  0.2572  0.3660 -0.1612
   50CHL1   H14 4823   4.155   3.156   2.921  0.6867 -1.9605  3.7092
   50CHL1   C15 4824   4.312   3.030   2.946 -0.1672 -1.0805  0.4646
   50CHL1  H15A 4825   4.377   2.966   2.883 -0.3767 -0.9664  0.1305
   50CHL1  H15B 4826   4.367   3.124   2.969  0.0704 -1.3569  1.0413
   50CHL1   C16 4827   4.254   2.952   3.071 -1.0260 -0.1791 -0.1749
   50CHL1  H16A 4828   4.313   2.858   3.082  0.5445  0.9792  1.6809
   50CHL1  H16B 4829   4.266   3.017   3.160  0.8053 -0.0080 -0.5279
   50CHL1   C17 4830   4.108   2.931   3.041 -0.4945 -0.5649  1.0699
   50CHL1   H17 4831   4.059   3.013   3.097  2.4777  0.6904  1.9571
   50CHL1   C13 4832   4.090   2.959   2.887 -0.6651 -0.2676 -0.6824
   50CHL1   C18 4833   4.135   2.833   2.817  0.6600 -0.3498  0.2305
   50CHL1  H18A 4834   4.135   2.848   2.707  0.3031  1.0474  0.4046
   50CHL1  H18B 4835   4.239   2.801   2.837  0.6041 -0.8206 -0.2298
   50CHL1  H18C 4836   4.065   2.751   2.843 -0.0117  0.1382 -0.0192
   50CHL1   C12 4837   3.948   3.007   2.842 -0.1825 -0.0861  0.3324
   50CHL1  H12A 4838   3.880   2.919   2.848  0.8665 -0.9102  0.2017
   50CHL1  H12B 4839   3.913   3.094   2.901 -0.1599  0.0658  0.1233
   50CHL1   C11 4840   3.948   3.053   2.689 -0.2657  0.3618 -0.2706
   50CHL1  H11A 4841   3.956   2.974   2.612 -1.1968 -0.8399  0.8364
   50CHL1  H11B 4842   3.851   3.105   2.674  0.3275  2.2433  1.9843
   50CHL1    C9 4843   4.065   3.153   2.660  0.1452 -0.4079  0.5144
   50CHL1    H9 4844   4.039   3.247   2.712  1.5139  0.5888 -0.5634
   50CHL1   C10 4845   4.078   3.199   2.510  0.4267 -0.0547 -0.1730
   50CHL1   C19 4846   4.072   3.080   2.414  0.0432  0.4044 -0.2205
   50CHL1  H19A 4847   4.164   3.018   2.424 -0.0647  0.0004 -1.5632
   50CHL1  H19B 4848   3.986   3.011   2.405  1.7488 -2.0822  1.6089
   50CHL1  H19C 4849   4.092   3.118   2.311  0.7012 -0.0488 -0.2673
   50CHL1    C1 4850   3.962   3.291   2.467  1.0503  0.3952 -0.0226
   50CHL1   H1A 4851   3.869   3.230   2.469  2.1564 -1.3707 -1.0469
   50CHL1   H1B 4852   3.948   3.366   2.547 -3.0147 -1.6197  1.3206
   50CHL1    C2 4853   3.973   3.372   2.340  1.1226 -0.9134 -0.2932
   50CHL1   H2A 4854   3.886   3.440   2.348 -0.2527 -2.8454  2.0132
   50CHL1   H2B 4855   3.963   3.304   2.253  0.2451 -3.8987  2.0188
   50CHL1   C20 4856   4.045   2.803   3.112 -0.7837 -0.0472 -0.2482
   50CHL1   H20 4857   4.069   2.708   3.059  0.4899  1.4887 -2.5008
   50CHL1   C21 4858   3.894   2.820   3.109  0.3471  0.0117  0.2350
   50CHL1  H21A 4859   3.855   2.752   3.188 -0.1808 -0.4454 -0.4123
   50CHL1  H21B 4860   3.853   2.792   3.010  0.0761  5.0216 -1.1852
   50CHL1  H21C 4861   3.859   2.918   3.146  0.6818  0.5135 -0.7591
   50CHL1   C22 4862   4.099   2.768   3.256  0.0286 -0.4276  0.3160
   50CHL1  H22A 4863   4.070   2.663   3.277  1.1397 -0.7732  0.1317
   50CHL1  H22B 4864   4.209   2.755   3.256  0.3848  2.2194  0.4558
   50CHL1   C23 4865   4.063   2.860   3.372 -0.6090 -0.3337 -0.1450
   50CHL1  H23A 4866   4.119   2.956   3.367  1.1251 -1.2718  0.8666
   50CHL1  H23B 4867   3.954   2.876   3.359 -0.1029  1.9057 -1.8918
   50CHL1   C24 4868   4.093   2.807   3.516 -0.0308  0.5949  0.7099
   50CHL1  H24A 4869   4.057   2.701   3.515  2.8657 -0.4303 -0.1822
   50CHL1  H24B 4870   4.203   2.810   3.531 -0.0974 -0.8303  1.6468
   50CHL1   C25 4871   4.012   2.882   3.630 -0.9982 -0.0120 -0.2108
   50CHL1   H25 4872   3.907   2.854   3.610 -1.1048 -0.9595  1.6241
   50CHL1   C26 4873   4.062   2.831   3.774 -0.1028 -0.6418  0.5295
   50CHL1  H26A 4874   4.014   2.899   3.847 -1.3360 -0.6060 -0.2949
   50CHL1  H26B 4875   4.033   2.726   3.791  0.8287 -0.9770  0.0902
   50CHL1  H26C 4876   4.172   2.849   3.783 -0.2021 -0.9084  2.4798
   50CHL1   C27 4877   4.033   3.036   3.617 -0.3928 -0.1969 -0.5304
   50CHL1  H27A 4878   3.992   3.099   3.699 -0.7683  0.3963 -1.1780
   50CHL1  H27B 4879   4.141   3.060   3.612 -0.5421  0.1882 -2.1784
   50CHL1  H27C 4880   3.995   3.070   3.519 -0.6010 -1.0736 -0.7654
   51CHL1    C3 4881   4.234   4.582   2.261  0.0845 -0.3772 -0.2085
   51CHL1    H3 4882   4.177   4.677   2.269 -0.9143 -0.8811 -1.2304
   51CHL1    O3 4883   4.254   4.547   2.124 -0.1967  0.2794  0.0859
   51CHL1   H3' 4884   4.304   4.465   2.128  1.1262  1.1411  1.3849
   51CHL1    C4 4885   4.375   4.624   2.318 -0.1829 -0.2078 -0.4633
   51CHL1   H4A 4886   4.452   4.551   2.285  0.5501  1.3120 -2.1844
   51CHL1   H4B 4887   4.408   4.721   2.276 -2.0206  0.7910  0.3599
   51CHL1    C5 4888   4.371   4.638   2.467 -0.6414 -0.2498 -0.6090
   51CHL1    C6 4889   4.413   4.753   2.521 -1.2838 -0.0844  0.0701
   51CHL1    H6 4890   4.447   4.833   2.454 -2.9099  0.4094 -0.1892
   51CHL1    C7 4891   4.408   4.774   2.673  0.2859 -0.6442 -0.6752
   51CHL1   H7A 4892   4.486   4.845   2.709 -0.3837  0.4031 -1.2767
   51CHL1   H7B 4893   4.313   4.829   2.689  0.5255 -0.9599  2.1209
   51CHL1    C8 4894   4.410   4.643   2.754 -0.0083  0.0741  0.1760
   51CHL1    H8 4895   4.511   4.598   2.739 -0.4252 -0.9280  0.3303
   51CHL1   C14 4896   4.397   4.662   2.905 -1.1542  0.2762 -0.2867
   51CHL1   H14 4897   4.297   4.712   2.911 -0.8140  1.1020 -1.2594
   51CHL1   C15 4898   4.490   4.766   2.965 -0.3478 -0.4121  0.6319
   51CHL1  H15A 4899   4.593   4.741   2.929 -0.5960 -0.7420  0.1415
   51CHL1  H15B 4900   4.462   4.871   2.941  1.2699 -0.0550  0.1980
   51CHL1   C16 4901   4.482   4.745   3.121  0.0808  0.3740 -0.3292
   51CHL1  H16A 4902   4.575   4.715   3.175 -1.2678 -0.1417  1.7565
   51CHL1  H16B 4903   4.427   4.826   3.172 -0.1461 -1.7068  2.8423
   51CHL1   C17 4904   4.382   4.617   3.135 -0.0523 -0.3658 -0.6314
   51CHL1   H17 4905   4.282   4.663   3.152  1.5278  2.4092  1.5931
   51CHL1   C13 4906   4.390   4.546   2.999  0.3984 -0.5660 -0.0936
   51CHL1   C18 4907   4.522   4.466   2.994  0.1039  0.7180 -0.2072
   51CHL1  H18A 4908   4.544   4.432   2.891  1.8510 -3.0987  1.3332
   51CHL1  H18B 4909   4.606   4.536   3.013 -0.9545  1.8894  0.2194
   51CHL1  H18C 4910   4.523   4.376   3.059  0.4149  2.2646  1.9937
   51CHL1   C12 4911   4.267   4.463   2.956  0.7504  0.2814 -0.4415
   51CHL1  H12A 4912   4.254   4.366   3.008  1.0829  0.4741 -0.0003
   51CHL1  H12B 4913   4.181   4.527   2.984  0.1358 -0.0738 -1.4700
   51CHL1   C11 4914   4.264   4.439   2.800 -0.1857 -0.0323  0.0812
   51CHL1  H11A 4915   4.338   4.358   2.778 -0.9550 -0.8474  0.4593
   51CHL1  H11B 4916   4.165   4.405   2.762  0.3864  1.1014 -2.5140
   51CHL1    C9 4917   4.298   4.555   2.699 -0.0821 -0.7380 -0.0182
   51CHL1    H9 4918   4.214   4.626   2.709  1.2827  0.6780  1.8671
   51CHL1   C10 4919   4.316   4.517   2.548  0.1129  0.3080 -0.0369
   51CHL1   C19 4920   4.417   4.406   2.547 -0.6635  0.2666 -0.9209
   51CHL1  H19A 4921   4.509   4.433   2.603 -0.3554 -0.1236 -1.2334
   51CHL1  H19B 4922   4.375   4.309   2.582  1.2464 -0.2076  0.1075
   51CHL1  H19C 4923   4.460   4.387   2.446  0.4951 -3.7251  0.2207
   51CHL1    C1 4924   4.179   4.480   2.489  0.0409  0.2188  0.5179
   51CHL1   H1A 4925   4.127   4.398   2.544 -1.8711  0.7315 -0.5187
   51CHL1   H1B 4926   4.114   4.566   2.514 -1.7779 -0.5155 -1.5190
   51CHL1    C2 4927   4.181   4.461   2.339  0.5977 -0.8135  0.5771
   51CHL1   H2A 4928   4.081   4.421   2.314  0.6760  1.1974 -3.2116
   51CHL1   H2B 4929   4.246   4.371   2.333  4.6873  1.7192  3.9586
   51CHL1   C20 4930   4.419   4.538   3.262  0.2282 -0.1475  0.2549
   51CHL1   H20 4931   4.527   4.515   3.276  0.5334  2.0884  1.8350
   51CHL1   C21 4932   4.339   4.415   3.263  0.4607 -0.0343  0.2543
   51CHL1  H21A 4933   4.328   4.373   3.366 -0.4866  0.9224  0.5424
   51CHL1  H21B 4934   4.375   4.338   3.192  0.2315  1.0632 -1.0598
   51CHL1  H21C 4935   4.239   4.452   3.234 -0.0930 -4.8628 -4.8735
   51CHL1   C22 4936   4.376   4.638   3.374 -0.4203 -0.8443 -0.8220
   51CHL1  H22A 4937   4.358   4.744   3.347 -3.4894 -1.1170 -0.0321
   51CHL1  H22B 4938   4.273   4.607   3.402 -0.1607 -0.3500  0.7341
   51CHL1   C23 4939   4.477   4.632   3.499 -0.1013 -0.1688  0.5895
   51CHL1  H23A 4940   4.518   4.533   3.528  1.8056  0.4725  0.1825
   51CHL1  H23B 4941   4.574   4.684   3.480  1.3879 -3.2897 -0.7270
   51CHL1   C24 4942   4.410   4.689   3.627  0.1234  0.1055 -0.0461
   51CHL1  H24A 4943   4.497   4.708   3.694  1.7049  1.4570 -2.3988
   51CHL1  H24B 4944   4.366   4.788   3.601 -2.1336 -0.6744  0.7170
   51CHL1   C25 4945   4.305   4.598   3.701  0.0330 -0.0418  0.0026
   51CHL1   H25 4946   4.208   4.587   3.648  0.9768 -2.5279 -1.2557
   51CHL1   C26 4947   4.354   4.460   3.733 -0.0388  0.3702  0.7897
   51CHL1  H26A 4948   4.455   4.472   3.778 -0.0232 -1.4845  1.2876
   51CHL1  H26B 4949   4.282   4.409   3.800 -0.1997 -0.1677  0.2155
   51CHL1  H26C 4950   4.354   4.399   3.640  0.4990  2.2330 -0.4720
   51CHL1   C27 4951   4.252   4.671   3.834 -0.1015  0.4475 -0.4283
   51CHL1  H27A 4952   4.168   4.610   3.874  2.0658 -0.1757  3.3803
   51CHL1  H27B 4953   4.328   4.672   3.915  0.5994 -2.1886 -0.9903
   51CHL1  H27C 4954   4.224   4.773   3.801  1.9707  1.5206  1.0217
   52CHL1    C3 4955   4.278   5.324   2.331  0.3889  0.1596  0.0930
   52CHL1    H3 4956   4.211   5.411   2.313 -1.0893 -0.9693  0.0300
   52CHL1    O3 4957   4.304   5.271   2.204  0.4234 -0.2632 -0.4309
   52CHL1   H3' 4958   4.336   5.181   2.205 -0.2575 -0.6000 -3.2128
   52CHL1    C4 4959   4.407   5.354   2.415  0.0686 -0.3329 -0.2704
   52CHL1   H4A 4960   4.461   5.257   2.416  0.1942 -0.2610  1.9470
   52CHL1   H4B 4961   4.464   5.433   2.363 -0.2991  0.5154  0.6082
   52CHL1    C5 4962   4.381   5.385   2.557 -0.3580  0.9068  0.5681
   52CHL1    C6 4963   4.439   5.494   2.608 -0.4681  0.9820  0.3450
   52CHL1    H6 4964   4.497   5.555   2.538  1.9193 -0.3728  1.0742
   52CHL1    C7 4965   4.418   5.546   2.745  0.4922 -0.3807  0.2469
   52CHL1   H7A 4966   4.510   5.583   2.795 -0.2264 -0.6214  1.7536
   52CHL1   H7B 4967   4.341   5.626   2.741  0.3245 -0.5575 -0.0714
   52CHL1    C8 4968   4.348   5.441   2.838 -0.6721 -0.3888 -0.1355
   52CHL1    H8 4969   4.429   5.371   2.867 -0.7682  0.3100  1.8981
   52CHL1   C14 4970   4.296   5.500   2.969 -0.4592  0.4119 -0.6520
   52CHL1   H14 4971   4.219   5.573   2.935  0.7336  0.2233 -3.9328
   52CHL1   C15 4972   4.394   5.572   3.054  0.5953 -0.1742 -0.0746
   52CHL1  H15A 4973   4.497   5.532   3.061  0.6567  0.0647  0.4057
   52CHL1  H15B 4974   4.408   5.675   3.016 -0.0568 -0.0375  0.0455
   52CHL1   C16 4975   4.329   5.585   3.192  0.1041  0.1374 -0.2695
   52CHL1  H16A 4976   4.400   5.568   3.276  0.1796  2.8288  0.2422
   52CHL1  H16B 4977   4.298   5.690   3.210  1.8505  0.5237  0.6888
   52CHL1   C17 4978   4.199   5.491   3.196 -0.0016 -0.3043 -0.2385
   52CHL1   H17 4979   4.107   5.550   3.178  0.5816  0.8034  0.4233
   52CHL1   C13 4980   4.222   5.408   3.066 -0.8633 -0.3351  0.1027
   52CHL1   C18 4981   4.308   5.286   3.103  0.3425 -0.1349  0.2314
   52CHL1  H18A 4982   4.378   5.315   3.184  1.5960 -0.9564 -0.5535
   52CHL1  H18B 4983   4.250   5.202   3.147 -0.7104  0.1439 -0.6090
   52CHL1  H18C 4984   4.370   5.248   3.020  0.9538  2.4512 -0.5274
   52CHL1   C12 4985   4.098   5.362   2.990  0.0333 -0.7004  0.3811
   52CHL1  H12A 4986   4.043   5.296   3.061 -0.5952 -0.3885  0.1907
   52CHL1  H12B 4987   4.039   5.455   2.973  1.4331  0.1810  0.3099
   52CHL1   C11 4988   4.139   5.300   2.858  0.9267  0.2004  0.8086
   52CHL1  H11A 4989   4.182   5.200   2.879 -1.0054 -1.3514 -2.1864
   52CHL1  H11B 4990   4.043   5.276   2.806  1.1038 -0.0535  0.5951
   52CHL1    C9 4991   4.235   5.380   2.764 -0.2013 -0.1222 -0.2060
   52CHL1    H9 4992   4.167   5.463   2.737  0.5479  0.2877 -0.8618
   52CHL1   C10 4993   4.277   5.305   2.633 -0.1092  0.1321 -1.1674
   52CHL1   C19 4994   4.328   5.165   2.668 -0.1859 -0.1186  0.2691
   52CHL1  H19A 4995   4.245   5.112   2.721 -0.6189  0.0374 -0.2513
   52CHL1  H19B 4996   4.351   5.111   2.574 -0.5759 -0.0295  0.1218
   52CHL1  H19C 4997   4.419   5.161   2.732  1.2187 -0.7387 -1.7124
   52CHL1    C1 4998   4.152   5.282   2.551 -0.1478 -0.8163  0.0188
   52CHL1   H1A 4999   4.079   5.214   2.601 -1.2337  0.3240  0.0062
   52CHL1   H1B 5000   4.090   5.374   2.551 -0.0694 -0.7535  1.7734
   52CHL1    C2 5001   4.179   5.230   2.413  0.5577 -0.3858  0.1617
   52CHL1   H2A 5002   4.084   5.222   2.356  1.2954 -0.5820 -1.0725
   52CHL1   H2B 5003   4.234   5.133   2.413  0.2442 -0.5719  1.8498
   52CHL1   C20 5004   4.179   5.429   3.337 -0.4716 -0.3525 -0.1132
   52CHL1   H20 5005   4.273   5.374   3.361 -0.1935 -0.2974 -1.0566
   52CHL1   C21 5006   4.051   5.343   3.333 -1.1898  0.2128 -0.2920
   52CHL1  H21A 5007   4.069   5.237   3.307  1.6005  0.3086  1.0731
   52CHL1  H21B 5008   3.973   5.398   3.276 -0.0120  0.5681 -1.6151
   52CHL1  H21C 5009   4.009   5.347   3.435 -1.3729  2.6399 -0.4220
   52CHL1   C22 5010   4.174   5.534   3.447 -0.5798 -0.1949 -0.3321
   52CHL1  H22A 5011   4.256   5.607   3.442  0.4366 -1.2001  1.1243
   52CHL1  H22B 5012   4.075   5.585   3.444 -0.1266  0.7344  0.3355
   52CHL1   C23 5013   4.183   5.474   3.593 -0.4400  0.6611  1.0695
   52CHL1  H23A 5014   4.103   5.400   3.616  0.8875  0.2856  4.6919
   52CHL1  H23B 5015   4.279   5.419   3.596 -0.2230  1.0997  2.3879
   52CHL1   C24 5016   4.197   5.580   3.707 -0.3546 -0.2412  0.6000
   52CHL1  H24A 5017   4.287   5.637   3.676 -0.9436 -0.2612 -1.1925
   52CHL1  H24B 5018   4.115   5.655   3.702 -0.1041  0.0670  1.1644
   52CHL1   C25 5019   4.223   5.522   3.844  0.5290  0.1565  0.9989
   52CHL1   H25 5020   4.310   5.454   3.844  0.0892 -0.4052  1.3476
   52CHL1   C26 5021   4.248   5.635   3.944  0.8765 -0.0931 -0.6182
   52CHL1  H26A 5022   4.331   5.703   3.912  0.4051  1.1118  0.6437
   52CHL1  H26B 5023   4.158   5.701   3.948  0.4543 -0.5993 -1.7438
   52CHL1  H26C 5024   4.278   5.608   4.048 -2.2116  0.1604  0.3909
   52CHL1   C27 5025   4.116   5.425   3.898 -0.1629 -0.2202 -0.1466
   52CHL1  H27A 5026   4.009   5.455   3.900  0.3800  1.6542  0.8148
   52CHL1  H27B 5027   4.131   5.330   3.841 -0.2028 -2.0080  2.7077
   52CHL1  H27C 5028   4.141   5.403   4.004  2.1218  1.8947 -0.2051
   53CHL1    C3 5029   3.461   5.468   2.214 -1.0150 -0.0603 -0.1229
   53CHL1    H3 5030   3.358   5.494   2.246 -0.3645  0.8333  1.2923
   53CHL1    O3 5031   3.477   5.487   2.074  0.4311 -0.0258 -0.6738
   53CHL1   H3' 5032   3.418   5.561   2.055  0.0028 -0.2937 -0.3949
   53CHL1    C4 5033   3.558   5.559   2.289  0.4489 -1.1324 -0.3659
   53CHL1   H4A 5034   3.657   5.544   2.241  0.7783 -1.4378  0.3987
   53CHL1   H4B 5035   3.527   5.660   2.255  1.6912 -0.6889 -0.1845
   53CHL1    C5 5036   3.560   5.544   2.431  0.9709 -0.3156 -0.1776
   53CHL1    C6 5037   3.529   5.648   2.512  0.5930 -0.6265  0.3625
   53CHL1    H6 5038   3.508   5.748   2.472  0.4717 -0.3436  1.1296
   53CHL1    C7 5039   3.514   5.645   2.660  0.8976  0.1628 -0.8036
   53CHL1   H7A 5040   3.557   5.735   2.709  0.0238 -0.0764  0.4336
   53CHL1   H7B 5041   3.411   5.639   2.700  1.3778  0.3947  0.4919
   53CHL1    C8 5042   3.581   5.514   2.718  0.2041 -0.6401  0.3494
   53CHL1    H8 5043   3.690   5.533   2.712 -0.4432  4.0422  1.4871
   53CHL1   C14 5044   3.551   5.485   2.868 -0.3168 -0.4393  0.8876
   53CHL1   H14 5045   3.441   5.474   2.869 -0.2723 -1.6312 -1.6291
   53CHL1   C15 5046   3.556   5.602   2.971  0.0309 -0.3491 -0.2482
   53CHL1  H15A 5047   3.650   5.659   2.956 -0.4421  0.0879 -1.5921
   53CHL1  H15B 5048   3.463   5.661   2.957  0.6632  0.5113 -0.8458
   53CHL1   C16 5049   3.560   5.534   3.108  0.2844  0.2469 -0.1772
   53CHL1  H16A 5050   3.652   5.576   3.155  0.5479 -1.6166  1.0206
   53CHL1  H16B 5051   3.471   5.557   3.170  0.1541  0.9606 -0.6322
   53CHL1   C17 5052   3.585   5.383   3.080  1.6245  0.1249 -0.5689
   53CHL1   H17 5053   3.487   5.332   3.075  1.4967  0.2211  0.6798
   53CHL1   C13 5054   3.624   5.364   2.931  0.7261  0.0694  0.3105
   53CHL1   C18 5055   3.769   5.391   2.923  0.1382  0.5505 -0.0231
   53CHL1  H18A 5056   3.818   5.296   2.952 -2.3689 -0.9036 -0.4595
   53CHL1  H18B 5057   3.799   5.404   2.816 -0.0805 -0.6536 -0.2400
   53CHL1  H18C 5058   3.818   5.464   2.991  0.1776 -0.3045  0.8641
   53CHL1   C12 5059   3.571   5.242   2.859  0.0386  0.6151  0.4214
   53CHL1  H12A 5060   3.626   5.156   2.903 -0.0523  1.3792  2.0599
   53CHL1  H12B 5061   3.463   5.219   2.873 -0.0239  0.5518 -0.1524
   53CHL1   C11 5062   3.599   5.260   2.708 -0.0258 -0.3589 -0.4573
   53CHL1  H11A 5063   3.710   5.254   2.712 -0.1176 -0.6068  1.9011
   53CHL1  H11B 5064   3.562   5.168   2.657  3.6344 -1.7298 -0.8200
   53CHL1    C9 5065   3.545   5.389   2.637  0.2124 -0.8421  0.9564
   53CHL1    H9 5066   3.434   5.382   2.643  0.3215 -2.4048  1.3999
   53CHL1   C10 5067   3.578   5.398   2.486 -0.3497 -0.8860 -0.1266
   53CHL1   C19 5068   3.725   5.368   2.466  0.2728  0.0833 -0.2472
   53CHL1  H19A 5069   3.743   5.377   2.357 -0.3911  2.1546 -0.1951
   53CHL1  H19B 5070   3.795   5.443   2.510  0.4658 -1.1394  1.5970
   53CHL1  H19C 5071   3.761   5.271   2.507 -1.6226 -0.3657  0.4121
   53CHL1    C1 5072   3.483   5.300   2.408  0.7262  0.1460  0.3370
   53CHL1   H1A 5073   3.495   5.194   2.441 -1.2863  0.1186  1.0322
   53CHL1   H1B 5074   3.374   5.319   2.420  0.7310  1.3548 -1.3329
   53CHL1    C2 5075   3.485   5.320   2.251 -0.3181  0.1942 -0.2261
   53CHL1   H2A 5076   3.430   5.250   2.186  0.4895 -1.1656  0.5356
   53CHL1   H2B 5077   3.592   5.299   2.230 -0.7344  0.3683 -2.6677
   53CHL1   C20 5078   3.655   5.325   3.199  0.1969 -0.5717 -0.4060
   53CHL1   H20 5079   3.755   5.374   3.209  0.1549 -0.2373 -1.5392
   53CHL1   C21 5080   3.672   5.175   3.169  0.2672 -0.3275 -0.9497
   53CHL1  H21A 5081   3.699   5.124   3.263  1.0292  0.3410 -0.8008
   53CHL1  H21B 5082   3.740   5.156   3.083  1.0525 -2.6110  0.1207
   53CHL1  H21C 5083   3.576   5.134   3.132 -0.2590 -1.0481  1.1403
   53CHL1   C22 5084   3.590   5.353   3.343 -0.2544  0.5811  0.0613
   53CHL1  H22A 5085   3.592   5.461   3.368  1.2946  0.6221 -0.1900
   53CHL1  H22B 5086   3.488   5.309   3.348  0.1141 -0.2402  0.4742
   53CHL1   C23 5087   3.661   5.301   3.467  0.0713  0.6126 -1.1963
   53CHL1  H23A 5088   3.666   5.190   3.469 -0.1505  0.6178  0.6721
   53CHL1  H23B 5089   3.770   5.322   3.459  0.5234 -1.3335 -0.3833
   53CHL1   C24 5090   3.617   5.363   3.606  0.2101 -0.3206 -0.3269
   53CHL1  H24A 5091   3.630   5.472   3.592  2.1666 -0.5580 -0.4240
   53CHL1  H24B 5092   3.510   5.338   3.626  0.4670 -1.3830 -0.2168
   53CHL1   C25 5093   3.695   5.298   3.727 -1.1546 -0.0057 -0.6173
   53CHL1   H25 5094   3.660   5.192   3.724  2.6695 -1.3513 -0.7816
   53CHL1   C26 5095   3.850   5.294   3.710  0.1225 -0.2777 -0.3902
   53CHL1  H26A 5096   3.901   5.260   3.803  0.2650  0.6453 -0.1248
   53CHL1  H26B 5097   3.890   5.219   3.639  0.4758 -2.2007  1.7622
   53CHL1  H26C 5098   3.895   5.394   3.689 -0.9497 -0.0063 -1.3917
   53CHL1   C27 5099   3.666   5.355   3.870  0.6631 -0.4824  0.4943
   53CHL1  H27A 5100   3.559   5.381   3.881  0.7338 -0.0788  0.2194
   53CHL1  H27B 5101   3.682   5.282   3.953 -3.3863 -2.2427 -0.1785
   53CHL1  H27C 5102   3.725   5.445   3.897 -0.7416  0.3956  0.6519
   54CHL1    C3 5103   2.797   5.756   2.237 -0.7580  0.2843  0.2354
   54CHL1    H3 5104   2.842   5.855   2.214  0.2253 -0.4675 -1.1430
   54CHL1    O3 5105   2.748   5.703   2.117  0.0302 -0.3492 -0.2111
   54CHL1   H3' 5106   2.711   5.621   2.152  0.6187  0.7322  3.0928
   54CHL1    C4 5107   2.900   5.660   2.293 -0.2702 -0.4325 -0.2068
   54CHL1   H4A 5108   2.865   5.555   2.287 -0.4360 -0.4219  0.5467
   54CHL1   H4B 5109   2.989   5.678   2.229 -0.0549  0.8720  0.4323
   54CHL1    C5 5110   2.940   5.698   2.435 -0.6313 -0.4932 -0.2469
   54CHL1    C6 5111   3.066   5.733   2.471  0.2462  0.1755 -0.1754
   54CHL1    H6 5112   3.149   5.740   2.400  1.4006  0.2062  1.1398
   54CHL1    C7 5113   3.098   5.753   2.622 -0.2975  0.5080 -1.1444
   54CHL1   H7A 5114   3.188   5.695   2.652 -0.5798  0.0414 -1.2051
   54CHL1   H7B 5115   3.132   5.858   2.638  1.5412 -0.2031 -0.3141
   54CHL1    C8 5116   2.982   5.714   2.723  0.2533  0.4433 -0.5436
   54CHL1    H8 5117   2.973   5.604   2.734 -0.3435  0.4264 -1.1432
   54CHL1   C14 5118   3.018   5.767   2.859 -0.6745 -0.4851 -0.2809
   54CHL1   H14 5119   3.021   5.877   2.846 -1.9467 -0.3645  0.4386
   54CHL1   C15 5120   3.155   5.740   2.927 -0.6598  0.7443  0.2164
   54CHL1  H15A 5121   3.175   5.631   2.929 -2.0972  0.4544 -0.6768
   54CHL1  H15B 5122   3.247   5.786   2.886 -0.1496  1.2639  1.9036
   54CHL1   C16 5123   3.130   5.792   3.067  0.0500 -0.0996 -0.7645
   54CHL1  H16A 5124   3.168   5.718   3.141  1.0225  0.4272 -0.7328
   54CHL1  H16B 5125   3.175   5.892   3.078 -0.4706  0.0044  0.5869
   54CHL1   C17 5126   2.972   5.813   3.088 -0.0611  0.0305 -0.5415
   54CHL1   H17 5127   2.962   5.924   3.081  2.6318  0.2808 -0.7503
   54CHL1   C13 5128   2.909   5.752   2.967  0.5951  0.5390  0.7110
   54CHL1   C18 5129   2.895   5.597   2.988  0.0895  0.3884 -0.0043
   54CHL1  H18A 5130   2.831   5.550   2.911 -2.6054  1.0773  1.7245
   54CHL1  H18B 5131   2.992   5.545   2.994 -0.4297 -0.5053  0.8749
   54CHL1  H18C 5132   2.841   5.591   3.086  1.7166 -0.4268  0.8594
   54CHL1   C12 5133   2.780   5.822   2.916 -0.0541 -0.2097 -0.4341
   54CHL1  H12A 5134   2.702   5.789   2.989 -0.3058  0.8919 -0.2029
   54CHL1  H12B 5135   2.792   5.932   2.914  1.7196 -0.3903 -0.4088
   54CHL1   C11 5136   2.734   5.758   2.778  0.1058 -0.7289  0.2758
   54CHL1  H11A 5137   2.696   5.654   2.795 -1.1605 -0.5192 -1.1107
   54CHL1  H11B 5138   2.640   5.806   2.741  0.2753 -1.6311 -1.4081
   54CHL1    C9 5139   2.850   5.769   2.676  0.3428  0.1666 -0.5837
   54CHL1    H9 5140   2.857   5.879   2.665 -0.0939  0.1845 -0.6966
   54CHL1   C10 5141   2.816   5.705   2.535 -0.8663  0.1874  0.4709
   54CHL1   C19 5142   2.765   5.557   2.560  0.3659  0.2045  0.2455
   54CHL1  H19A 5143   2.661   5.568   2.599  0.7780  1.5102  1.0213
   54CHL1  H19B 5144   2.766   5.504   2.463 -0.0476  1.7649 -0.6322
   54CHL1  H19C 5145   2.830   5.501   2.630 -1.1411 -0.7606  0.8961
   54CHL1    C1 5146   2.703   5.791   2.474 -0.3798  0.2575 -0.5250
   54CHL1   H1A 5147   2.613   5.775   2.537  0.2229  0.7202  0.4723
   54CHL1   H1B 5148   2.720   5.900   2.485 -2.0017  0.4924 -0.2103
   54CHL1    C2 5149   2.672   5.763   2.330 -0.4692  0.1050  0.0966
   54CHL1   H2A 5150   2.604   5.838   2.284 -2.0202 -1.2515  0.1362
   54CHL1   H2B 5151   2.618   5.666   2.333 -0.2822 -0.0494 -1.5590
   54CHL1   C20 5152   2.921   5.768   3.226 -0.5157 -0.1616  0.3674
   54CHL1   H20 5153   2.953   5.663   3.237 -1.4603 -0.4856  0.0970
   54CHL1   C21 5154   2.772   5.793   3.245 -0.3574  0.2035 -0.4054
   54CHL1  H21A 5155   2.744   5.767   3.349 -2.2060  1.7288 -0.5001
   54CHL1  H21B 5156   2.715   5.722   3.182  0.9302 -1.2684  0.0696
   54CHL1  H21C 5157   2.747   5.898   3.216 -0.4858  0.3411  0.2031
   54CHL1   C22 5158   2.992   5.848   3.337 -0.1139 -0.6916 -0.2496
   54CHL1  H22A 5159   2.945   5.818   3.434 -1.4209 -0.0701 -0.6831
   54CHL1  H22B 5160   3.098   5.817   3.341 -0.1806 -0.7049  2.1458
   54CHL1   C23 5161   2.965   5.998   3.343 -0.3737  0.7338 -0.7996
   54CHL1  H23A 5162   2.965   6.052   3.246 -0.1826  0.5804 -0.8847
   54CHL1  H23B 5163   2.864   6.007   3.389  0.3482 -0.4817  1.0513
   54CHL1   C24 5164   3.062   6.066   3.443  0.5270 -0.4834  0.0036
   54CHL1  H24A 5165   3.056   6.024   3.545  0.2999 -0.3037  0.0638
   54CHL1  H24B 5166   3.162   6.064   3.393 -0.1531  1.0406 -1.4797
   54CHL1   C25 5167   3.031   6.214   3.470  0.1668 -0.1627  0.0089
   54CHL1   H25 5168   2.928   6.220   3.511  0.3236  3.5255 -0.0320
   54CHL1   C26 5169   3.121   6.274   3.575 -0.0933  0.3122 -0.0690
   54CHL1  H26A 5170   3.225   6.282   3.537 -0.5010 -1.5208 -1.6514
   54CHL1  H26B 5171   3.091   6.378   3.600  1.6726  1.6650 -3.2456
   54CHL1  H26C 5172   3.118   6.212   3.667 -0.8005  1.0215  0.3901
   54CHL1   C27 5173   3.019   6.311   3.348 -0.6609 -0.2275 -0.1910
   54CHL1  H27A 5174   2.989   6.409   3.391 -1.7103 -1.0190  0.9427
   54CHL1  H27B 5175   3.116   6.316   3.294 -1.0151  1.0585 -0.7278
   54CHL1  H27C 5176   2.940   6.271   3.280  0.5400 -1.6307 -0.8000
   55CHL1    C3 5177   5.048   2.304   2.275 -0.3919  0.2607  0.6358
   55CHL1    H3 5178   5.048   2.402   2.327  0.6117  1.2012 -1.0843
   55CHL1    O3 5179   5.049   2.323   2.138 -1.0113  0.4115  0.2884
   55CHL1   H3' 5180   5.050   2.235   2.099  1.2244  0.7214 -0.4244
   55CHL1    C4 5181   5.168   2.213   2.330  0.3664 -1.0981 -0.0040
   55CHL1   H4A 5182   5.176   2.118   2.274 -1.6905 -1.4862  0.3034
   55CHL1   H4B 5183   5.259   2.275   2.315  0.8130 -2.0442 -1.1988
   55CHL1    C5 5184   5.151   2.193   2.480  0.3305  0.4500  0.2887
   55CHL1    C6 5185   5.237   2.230   2.577  0.5879 -0.3052 -0.0235
   55CHL1    H6 5186   5.330   2.281   2.547  0.0971  1.0421  0.7260
   55CHL1    C7 5187   5.218   2.189   2.720  0.6630 -0.2837 -0.1182
   55CHL1   H7A 5188   5.317   2.156   2.759  2.2126  1.3278 -2.4875
   55CHL1   H7B 5189   5.176   2.270   2.784  0.3192 -1.3763  1.0412
   55CHL1    C8 5190   5.114   2.075   2.741 -0.1537  0.5577 -0.3408
   55CHL1    H8 5191   5.163   1.977   2.717 -0.8994 -0.3441  1.7211
   55CHL1   C14 5192   5.085   2.065   2.891 -0.9564  0.0536 -0.3876
   55CHL1   H14 5193   5.045   2.164   2.923 -0.9070  0.2927 -1.0673
   55CHL1   C15 5194   5.203   2.050   2.983  0.1586 -0.0554  0.3333
   55CHL1  H15A 5195   5.263   1.965   2.945 -0.1323  0.3374 -1.0004
   55CHL1  H15B 5196   5.270   2.137   3.002 -1.5743  1.6578 -1.1794
   55CHL1   C16 5197   5.143   1.994   3.111  0.5321 -0.2688 -0.7475
   55CHL1  H16A 5198   5.183   1.890   3.119  1.0275  0.0552  1.3268
   55CHL1  H16B 5199   5.170   2.040   3.209 -0.4357  1.2479 -1.1703
   55CHL1   C17 5200   4.992   1.970   3.088 -0.0987 -0.1838  0.6063
   55CHL1   H17 5201   4.931   2.057   3.121 -1.1830 -1.2999  1.5757
   55CHL1   C13 5202   4.991   1.954   2.928 -0.0217 -0.4002  0.8926
   55CHL1   C18 5203   5.054   1.815   2.885 -0.3189  0.5659 -0.3768
   55CHL1  H18A 5204   5.152   1.789   2.929  0.1985 -0.4814 -2.0788
   55CHL1  H18B 5205   4.990   1.729   2.913 -0.8443  0.4334 -1.9276
   55CHL1  H18C 5206   5.069   1.806   2.775 -1.9769 -1.1143 -0.4874
   55CHL1   C12 5207   4.859   1.982   2.861 -0.1698 -0.6642 -0.4979
   55CHL1  H12A 5208   4.778   1.908   2.877 -1.8659  1.2985  0.2506
   55CHL1  H12B 5209   4.819   2.077   2.903  0.9564 -0.8325  0.9924
   55CHL1   C11 5210   4.872   1.993   2.705  0.3578 -0.2848 -0.7738
   55CHL1  H11A 5211   4.895   1.891   2.667 -0.7196 -0.8141 -0.0475
   55CHL1  H11B 5212   4.775   2.030   2.666  1.5400  0.3590 -3.1771
   55CHL1    C9 5213   4.983   2.092   2.663 -0.0842  0.0212  0.2136
   55CHL1    H9 5214   4.942   2.190   2.697  0.2919  0.7044 -1.2709
   55CHL1   C10 5215   5.017   2.117   2.515  1.1729 -0.0101  0.0835
   55CHL1   C19 5216   5.015   1.973   2.448 -0.5542 -0.4402  0.5076
   55CHL1  H19A 5217   5.085   1.906   2.504 -0.3614 -1.4524 -0.9342
   55CHL1  H19B 5218   4.914   1.927   2.450 -0.5295 -0.6224 -1.6569
   55CHL1  H19C 5219   5.051   1.984   2.344  0.6268 -1.6658  0.7700
   55CHL1    C1 5220   4.902   2.194   2.450  0.1704  0.4544  0.0490
   55CHL1   H1A 5221   4.812   2.129   2.455 -0.4709  1.1711 -1.7471
   55CHL1   H1B 5222   4.875   2.288   2.504 -0.1879  0.6867 -0.5249
   55CHL1    C2 5223   4.920   2.231   2.305 -0.4223 -0.3217 -0.0148
   55CHL1   H2A 5224   4.840   2.299   2.269 -0.0847  0.1128  0.0487
   55CHL1   H2B 5225   4.921   2.137   2.246  0.8360  0.5626 -1.4382
   55CHL1   C20 5226   4.942   1.852   3.165  0.0710  0.2683 -0.1527
   55CHL1   H20 5227   4.990   1.762   3.121 -0.1472  1.3863 -2.7797
   55CHL1   C21 5228   4.785   1.834   3.145 -0.0117  0.4648  0.5928
   55CHL1  H21A 5229   4.757   1.826   3.037  0.8919  0.7825  0.3310
   55CHL1  H21B 5230   4.733   1.917   3.197  0.0461  0.9084 -0.0531
   55CHL1  H21C 5231   4.750   1.735   3.182  0.9526 -0.2158 -0.2705
   55CHL1   C22 5232   4.979   1.867   3.316  0.2985  0.0132  0.3297
   55CHL1  H22A 5233   5.089   1.875   3.333  0.5288  0.2745 -1.2337
   55CHL1  H22B 5234   4.929   1.957   3.358 -1.1541 -0.1732 -0.9784
   55CHL1   C23 5235   4.947   1.742   3.403 -0.1923 -0.6052  0.6519
   55CHL1  H23A 5236   4.838   1.723   3.401 -0.0729 -1.3113  0.7086
   55CHL1  H23B 5237   4.993   1.656   3.349 -1.4517 -1.7065  1.3059
   55CHL1   C24 5238   4.993   1.742   3.551  0.9730  0.2832  0.1080
   55CHL1  H24A 5239   5.092   1.793   3.546  0.8836  0.3666 -1.0394
   55CHL1  H24B 5240   4.931   1.809   3.613  1.6752  1.8782 -0.8844
   55CHL1   C25 5241   5.005   1.602   3.617  0.5097 -0.3828 -0.4084
   55CHL1   H25 5242   5.078   1.545   3.555 -0.8855 -0.9222 -1.5931
   55CHL1   C26 5243   5.041   1.611   3.767  0.2273 -0.5653 -0.3412
   55CHL1  H26A 5244   4.960   1.655   3.829  0.6373  0.8780 -0.8274
   55CHL1  H26B 5245   5.065   1.510   3.809  0.8465  0.7505  2.6389
   55CHL1  H26C 5246   5.128   1.678   3.780  0.2065 -0.5559 -0.2424
   55CHL1   C27 5247   4.875   1.520   3.606  0.0250 -0.3968 -0.0865
   55CHL1  H27A 5248   4.777   1.554   3.646 -0.1119 -2.6749  1.6611
   55CHL1  H27B 5249   4.859   1.499   3.498 -1.9882  0.0830  0.1036
   55CHL1  H27C 5250   4.903   1.428   3.663  0.3059  0.6467  1.4947
   56CHL1    C3 5251   5.935   3.861   2.256  0.6075 -0.4998  0.3953
   56CHL1    H3 5252   5.832   3.893   2.229  1.3415  0.5084 -1.3207
   56CHL1    O3 5253   6.013   3.834   2.141 -0.2193 -0.3558  0.4013
   56CHL1   H3' 5254   6.046   3.744   2.143 -0.2135 -0.3759 -0.4982
   56CHL1    C4 5255   6.001   3.965   2.347 -0.3718  0.8063 -0.8504
   56CHL1   H4A 5256   6.098   3.921   2.378 -1.4095  0.2788  1.7590
   56CHL1   H4B 5257   6.027   4.057   2.290  1.0758  0.0169 -1.4787
   56CHL1    C5 5258   5.928   3.996   2.466  0.4640 -0.3329 -0.1068
   56CHL1    C6 5259   5.874   4.119   2.493  0.5014 -0.3879 -0.1213
   56CHL1    H6 5260   5.886   4.203   2.423  1.6846  0.3457  0.9453
   56CHL1    C7 5261   5.802   4.142   2.625  0.3407 -0.2453 -0.3891
   56CHL1   H7A 5262   5.824   4.238   2.677  2.2533 -2.6844  3.4837
   56CHL1   H7B 5263   5.695   4.158   2.598  0.2947 -1.8999 -1.2031
   56CHL1    C8 5264   5.815   4.034   2.735  0.7009  0.2889  0.4641
   56CHL1    H8 5265   5.916   4.029   2.781  1.1938  1.3331 -0.4719
   56CHL1   C14 5266   5.701   4.063   2.831 -0.3472 -0.6522 -0.0330
   56CHL1   H14 5267   5.605   4.051   2.777 -1.9659 -1.6201  2.9262
   56CHL1   C15 5268   5.697   4.199   2.916  0.9456 -0.1007 -0.5608
   56CHL1  H15A 5269   5.801   4.216   2.951  0.0799 -0.0713  2.1517
   56CHL1  H15B 5270   5.662   4.284   2.854  1.5592 -0.2989 -1.1936
   56CHL1   C16 5271   5.606   4.168   3.033 -0.9996  0.6983  0.3713
   56CHL1  H16A 5272   5.660   4.201   3.124 -1.5386  0.4645  0.7814
   56CHL1  H16B 5273   5.513   4.227   3.020 -1.0733  0.6422  0.6213
   56CHL1   C17 5274   5.584   4.011   3.033  0.3737  0.7486  0.0352
   56CHL1   H17 5275   5.488   4.006   2.977 -0.1090  1.5320  0.7930
   56CHL1   C13 5276   5.694   3.954   2.944 -0.4773 -0.4584 -0.2985
   56CHL1   C18 5277   5.826   3.962   3.023  0.3852  0.5417  0.2705
   56CHL1  H18A 5278   5.848   4.054   3.082  1.4041  0.1068  0.5684
   56CHL1  H18B 5279   5.836   3.888   3.105 -2.6917 -1.7024 -1.2594
   56CHL1  H18C 5280   5.919   3.949   2.963  0.3171  1.3414 -0.0200
   56CHL1   C12 5281   5.670   3.822   2.869  0.0544 -0.1869 -0.0274
   56CHL1  H12A 5282   5.668   3.737   2.940 -1.0716 -0.1647 -0.0218
   56CHL1  H12B 5283   5.573   3.815   2.816  0.7830  2.6572 -1.8504
   56CHL1   C11 5284   5.775   3.786   2.763 -0.6218  0.7240  0.4931
   56CHL1  H11A 5285   5.866   3.758   2.819 -1.7842 -2.2688  0.9924
   56CHL1  H11B 5286   5.746   3.690   2.714 -2.9458  1.3296  0.6131
   56CHL1    C9 5287   5.795   3.904   2.667  0.4618  0.3002 -0.4816
   56CHL1    H9 5288   5.696   3.918   2.619  1.4722  0.5640 -2.5280
   56CHL1   C10 5289   5.895   3.872   2.558 -0.2086 -0.6743  0.3310
   56CHL1   C19 5290   6.021   3.816   2.624  0.0498  0.2369 -0.2480
   56CHL1  H19A 5291   6.062   3.888   2.698  0.3919 -1.4422  1.2422
   56CHL1  H19B 5292   5.997   3.716   2.667 -0.3093 -1.3468 -3.8780
   56CHL1  H19C 5293   6.101   3.798   2.548  0.4056  0.8937 -0.0346
   56CHL1    C1 5294   5.831   3.771   2.460 -0.6078 -0.2397  0.1121
   56CHL1   H1A 5295   5.825   3.672   2.511 -2.4595  1.1517  2.6784
   56CHL1   H1B 5296   5.734   3.806   2.421 -0.0673  0.0752 -0.9854
   56CHL1    C2 5297   5.914   3.731   2.335 -0.7402 -0.0239  0.7019
   56CHL1   H2A 5298   5.860   3.650   2.281 -0.5291  2.0905 -2.8561
   56CHL1   H2B 5299   6.005   3.674   2.366 -1.9491 -2.6483 -0.4448
   56CHL1   C20 5300   5.559   3.936   3.169  0.1474  0.0069  0.0304
   56CHL1   H20 5301   5.654   3.893   3.207 -1.8488 -1.4270  3.6334
   56CHL1   C21 5302   5.462   3.826   3.141  0.4001  0.1649 -0.6219
   56CHL1  H21A 5303   5.360   3.865   3.120  0.0806 -1.1456 -1.5677
   56CHL1  H21B 5304   5.462   3.770   3.237  1.1261  1.0702 -0.0950
   56CHL1  H21C 5305   5.490   3.754   3.061 -0.1968  0.1365 -0.8128
   56CHL1   C22 5306   5.502   4.034   3.270 -0.1083 -0.1046  0.3456
   56CHL1  H22A 5307   5.574   4.117   3.288 -0.6385  0.7205 -1.2265
   56CHL1  H22B 5308   5.411   4.076   3.224  1.5553  2.2973 -0.8489
   56CHL1   C23 5309   5.472   3.975   3.412 -0.7483  0.2034  0.4793
   56CHL1  H23A 5310   5.384   3.908   3.405  1.1726 -2.3258 -0.0103
   56CHL1  H23B 5311   5.558   3.913   3.445  0.5612  2.4840  1.4788
   56CHL1   C24 5312   5.437   4.094   3.521  0.1139  0.7100  0.3364
   56CHL1  H24A 5313   5.511   4.172   3.495  2.0397 -1.2052 -0.0308
   56CHL1  H24B 5314   5.341   4.139   3.488  0.1912 -0.3140 -1.3280
   56CHL1   C25 5315   5.433   4.047   3.669  0.3417 -0.0407  0.6396
   56CHL1   H25 5316   5.534   4.003   3.684 -0.2961 -1.8139 -0.1100
   56CHL1   C26 5317   5.416   4.161   3.770 -0.0544  0.1793 -0.6932
   56CHL1  H26A 5318   5.310   4.191   3.763 -0.4219 -0.7927  0.6190
   56CHL1  H26B 5319   5.434   4.125   3.874  0.3154  0.5427 -0.6297
   56CHL1  H26C 5320   5.479   4.249   3.742  1.2836 -1.1383 -1.9637
   56CHL1   C27 5321   5.335   3.936   3.704  0.1789  0.6474  0.4326
   56CHL1  H27A 5322   5.230   3.970   3.695  0.4390  1.5728  0.8444
   56CHL1  H27B 5323   5.346   3.851   3.633 -1.4810  0.6607  0.1435
   56CHL1  H27C 5324   5.347   3.894   3.806  0.3063  0.6919  0.4369
   57CHL1    C3 5325   4.799   1.454   2.275  0.2683  0.1752  0.2482
   57CHL1    H3 5326   4.752   1.355   2.254  0.2289 -0.2738  2.4045
   57CHL1    O3 5327   4.809   1.523   2.150  0.4063 -0.1645  0.0773
   57CHL1   H3' 5328   4.724   1.566   2.157  0.8414  0.5059  1.4676
   57CHL1    C4 5329   4.718   1.544   2.369 -0.6425  0.0607 -0.2018
   57CHL1   H4A 5330   4.764   1.645   2.380  1.0219 -0.7423  0.3674
   57CHL1   H4B 5331   4.617   1.534   2.324 -1.4716 -1.9591  1.9979
   57CHL1    C5 5332   4.719   1.487   2.510 -0.0340 -0.3529 -0.1163
   57CHL1    C6 5333   4.604   1.447   2.567  0.7379  0.5062  0.0993
   57CHL1    H6 5334   4.508   1.470   2.518 -0.6944  1.1452  3.0724
   57CHL1    C7 5335   4.595   1.391   2.710 -0.9758  0.3994 -0.3710
   57CHL1   H7A 5336   4.509   1.427   2.771 -1.4545  0.4972 -1.0999
   57CHL1   H7B 5337   4.587   1.281   2.701 -1.9090  0.5679 -1.7459
   57CHL1    C8 5338   4.721   1.426   2.789 -0.3175  0.3039 -0.6752
   57CHL1    H8 5339   4.716   1.536   2.804  3.1609  0.4842 -0.5648
   57CHL1   C14 5340   4.714   1.356   2.926  0.3449 -0.1226 -0.0155
   57CHL1   H14 5341   4.693   1.250   2.899 -1.0863 -0.3675  1.9959
   57CHL1   C15 5342   4.591   1.378   3.021 -0.2910 -0.2505 -0.3626
   57CHL1  H15A 5343   4.572   1.484   3.050 -1.0725  0.1138 -2.1411
   57CHL1  H15B 5344   4.498   1.336   2.978 -1.5109  2.4779 -0.5314
   57CHL1   C16 5345   4.635   1.315   3.149  0.4247 -0.5741 -0.2456
   57CHL1  H16A 5346   4.630   1.395   3.227 -1.6145  1.4694 -2.3582
   57CHL1  H16B 5347   4.571   1.226   3.166  1.5823 -1.3725  0.0069
   57CHL1   C17 5348   4.789   1.271   3.132  0.6422 -1.4279 -0.2851
   57CHL1   H17 5349   4.772   1.167   3.097  0.9994 -1.0165 -1.7351
   57CHL1   C13 5350   4.839   1.358   3.006 -0.1701 -0.3102 -0.0492
   57CHL1   C18 5351   4.871   1.502   3.064 -0.1874  0.1424 -0.0719
   57CHL1  H18A 5352   4.965   1.511   3.124  0.2631  0.2045 -0.7857
   57CHL1  H18B 5353   4.871   1.572   2.979  0.2258 -0.2615 -0.4108
   57CHL1  H18C 5354   4.791   1.535   3.134  0.3074 -0.7565  0.9534
   57CHL1   C12 5355   4.951   1.294   2.917  0.1117  0.3767 -0.1180
   57CHL1  H12A 5356   5.044   1.291   2.979  0.2417  0.8847 -0.2888
   57CHL1  H12B 5357   4.925   1.188   2.895  1.7920  0.1011 -0.9134
   57CHL1   C11 5358   4.972   1.379   2.788 -0.2970  0.1754 -0.3605
   57CHL1  H11A 5359   5.012   1.478   2.820 -0.8531  0.6678 -1.1732
   57CHL1  H11B 5360   5.053   1.326   2.733 -2.1084 -1.9251 -1.0806
   57CHL1    C9 5361   4.842   1.384   2.706  0.1812 -0.2594  0.6723
   57CHL1    H9 5362   4.827   1.277   2.681  0.6360  0.5515 -3.3609
   57CHL1   C10 5363   4.855   1.466   2.577  0.0239  0.2490  0.0340
   57CHL1   C19 5364   4.942   1.596   2.605  0.0352 -0.1147 -0.0222
   57CHL1  H19A 5365   4.892   1.651   2.687  0.1587 -0.7435  0.4831
   57CHL1  H19B 5366   5.047   1.572   2.629  0.1868 -1.2299 -1.7219
   57CHL1  H19C 5367   4.954   1.662   2.516 -2.4690  1.0796  0.4798
   57CHL1    C1 5368   4.932   1.375   2.477 -0.8441  0.3975 -0.0049
   57CHL1   H1A 5369   5.040   1.370   2.504 -0.6510  1.8483 -0.5091
   57CHL1   H1B 5370   4.899   1.269   2.471  1.4142 -0.4046  0.9960
   57CHL1    C2 5371   4.934   1.431   2.340  0.3253  0.4248  0.5223
   57CHL1   H2A 5372   4.993   1.361   2.276  0.9083 -0.2858  1.8124
   57CHL1   H2B 5373   4.994   1.524   2.332  2.1044 -0.7209  0.1250
   57CHL1   C20 5374   4.858   1.266   3.266 -0.8000  0.4591 -0.2282
   57CHL1   H20 5375   4.840   1.362   3.320 -0.4040 -0.0589  0.8298
   57CHL1   C21 5376   5.014   1.265   3.251 -0.1581  1.0025 -0.1780
   57CHL1  H21A 5377   5.048   1.181   3.187  0.3475  0.3323  0.9429
   57CHL1  H21B 5378   5.062   1.251   3.350  0.0252  2.5175 -0.0321
   57CHL1  H21C 5379   5.040   1.363   3.204  0.4746  0.9656  0.0809
   57CHL1   C22 5380   4.810   1.155   3.363 -0.8273  0.0553  0.1648
   57CHL1  H22A 5381   4.855   1.175   3.463  0.9872 -0.2185 -0.5767
   57CHL1  H22B 5382   4.700   1.155   3.377 -0.6775  1.3161  1.4609
   57CHL1   C23 5383   4.849   1.009   3.321 -0.0277 -0.9831  0.0094
   57CHL1  H23A 5384   4.802   0.983   3.223 -0.2957 -0.4269 -0.0124
   57CHL1  H23B 5385   4.958   0.991   3.315  0.5700  2.3424  0.0614
   57CHL1   C24 5386   4.798   0.913   3.430 -0.4432  1.4688 -1.4635
   57CHL1  H24A 5387   4.843   0.939   3.528  0.1174 -0.0302 -1.3086
   57CHL1  H24B 5388   4.690   0.890   3.422  0.0567 -1.1320 -1.1929
   57CHL1   C25 5389   4.862   0.766   3.425  0.0616 -0.8210  0.0501
   57CHL1   H25 5390   4.969   0.773   3.452  0.1040 -1.7945  0.1794
   57CHL1   C26 5391   4.787   0.682   3.530 -0.4975 -1.0415 -0.3263
   57CHL1  H26A 5392   4.788   0.576   3.499  0.4434 -2.1744  3.3876
   57CHL1  H26B 5393   4.830   0.698   3.631  0.2728 -0.8599 -0.6819
   57CHL1  H26C 5394   4.679   0.709   3.533 -0.3625 -0.6521  1.7460
   57CHL1   C27 5395   4.852   0.710   3.288  0.0912 -0.3509  0.3703
   57CHL1  H27A 5396   4.747   0.698   3.253  0.3630  0.7937 -0.8908
   57CHL1  H27B 5397   4.897   0.783   3.217 -2.8299  1.2735  0.1200
   57CHL1  H27C 5398   4.897   0.609   3.278 -0.1792 -0.4651  0.3179
   58CHL1    C3 5399   5.722   2.113   2.264  0.5528 -0.0854  0.4554
   58CHL1    H3 5400   5.772   2.014   2.259  0.7464  0.0695 -1.0418
   58CHL1    O3 5401   5.696   2.149   2.133 -0.0873  0.1785 -0.2557
   58CHL1   H3' 5402   5.654   2.235   2.139 -0.9392 -0.2506  0.0556
   58CHL1    C4 5403   5.586   2.089   2.331 -0.5437 -0.3462 -0.1637
   58CHL1   H4A 5404   5.528   2.183   2.325 -0.9981 -0.6721 -0.9858
   58CHL1   H4B 5405   5.545   2.002   2.275  2.5967 -0.7619 -1.9270
   58CHL1    C5 5406   5.609   2.045   2.477 -0.0605 -0.3344 -0.6861
   58CHL1    C6 5407   5.560   1.934   2.526 -0.0408  0.5720 -0.0453
   58CHL1    H6 5408   5.496   1.875   2.458 -2.5232  1.8719  1.0767
   58CHL1    C7 5409   5.575   1.886   2.669 -0.0227  0.4591 -1.1850
   58CHL1   H7A 5410   5.476   1.851   2.706  0.3975 -1.1259 -1.5177
   58CHL1   H7B 5411   5.638   1.794   2.669 -1.2901 -0.4690 -3.6834
   58CHL1    C8 5412   5.639   1.989   2.755  0.3884 -0.3667 -0.5697
   58CHL1    H8 5413   5.556   2.056   2.787  1.3448  1.0530 -1.0327
   58CHL1   C14 5414   5.696   1.928   2.883  0.3493  0.0456 -0.5755
   58CHL1   H14 5415   5.783   1.868   2.849  0.6192  0.8343 -1.2868
   58CHL1   C15 5416   5.608   1.824   2.954  0.6339 -0.0739 -0.0682
   58CHL1  H15A 5417   5.510   1.873   2.972  0.8577 -0.0544  1.0778
   58CHL1  H15B 5418   5.598   1.722   2.909 -0.4537  1.2012 -2.8343
   58CHL1   C16 5419   5.687   1.803   3.086 -0.4211 -0.6450  0.1239
   58CHL1  H16A 5420   5.620   1.835   3.169 -1.4920 -1.9195 -0.2288
   58CHL1  H16B 5421   5.731   1.702   3.103 -1.5645 -1.1147  0.4072
   58CHL1   C17 5422   5.800   1.915   3.092 -0.2201 -1.0879 -0.4460
   58CHL1   H17 5423   5.891   1.867   3.049 -0.7865  1.3970 -4.6456
   58CHL1   C13 5424   5.754   2.022   2.989  0.6057  0.5940 -0.3289
   58CHL1   C18 5425   5.648   2.109   3.051  0.4655  0.1858  0.1503
   58CHL1  H18A 5426   5.571   2.050   3.105  0.5189 -1.3068 -1.3462
   58CHL1  H18B 5427   5.688   2.180   3.127 -0.7206 -0.3025  1.2490
   58CHL1  H18C 5428   5.583   2.162   2.978 -1.3492 -1.1795  0.7430
   58CHL1   C12 5429   5.861   2.106   2.913 -0.2025 -0.3953  0.0899
   58CHL1  H12A 5430   5.909   2.188   2.970 -1.3199  0.8509 -0.7238
   58CHL1  H12B 5431   5.943   2.040   2.877 -1.3816 -0.4270 -2.7205
   58CHL1   C11 5432   5.808   2.175   2.784  0.2792  0.2831 -0.0099
   58CHL1  H11A 5433   5.741   2.252   2.828 -0.9777 -1.6777  1.6199
   58CHL1  H11B 5434   5.894   2.233   2.745  0.8246 -0.1473  0.5471
   58CHL1    C9 5435   5.745   2.077   2.685 -0.0161  0.2176  0.0784
   58CHL1    H9 5436   5.825   2.006   2.657 -0.9477 -0.3857 -1.0691
   58CHL1   C10 5437   5.704   2.143   2.555 -0.5534  0.4965 -0.4192
   58CHL1   C19 5438   5.621   2.261   2.580 -0.3579 -0.5414 -1.3358
   58CHL1  H19A 5439   5.575   2.304   2.489 -1.3591  1.8428  0.2668
   58CHL1  H19B 5440   5.537   2.237   2.649 -0.3902  0.2963 -1.0866
   58CHL1  H19C 5441   5.687   2.345   2.610 -1.0745 -0.4661  0.0618
   58CHL1    C1 5442   5.829   2.179   2.473 -0.0267 -0.3049 -0.1035
   58CHL1   H1A 5443   5.891   2.249   2.533 -1.5804 -0.2216  1.4360
   58CHL1   H1B 5444   5.898   2.092   2.466  0.4975  0.1567 -0.7174
   58CHL1    C2 5445   5.802   2.221   2.327  0.7275 -0.1862 -0.2735
   58CHL1   H2A 5446   5.902   2.233   2.279  0.6607  3.0168  0.3303
   58CHL1   H2B 5447   5.756   2.320   2.313  2.0033  0.5670  0.7177
   58CHL1   C20 5448   5.843   1.962   3.226  0.1217 -0.9336  0.1453
   58CHL1   H20 5449   5.762   2.028   3.263  0.1809 -0.0906 -1.2158
   58CHL1   C21 5450   5.969   2.046   3.217 -0.6076  0.3074  0.2438
   58CHL1  H21A 5451   6.018   2.054   3.317  0.3701  3.1042 -0.3880
   58CHL1  H21B 5452   5.940   2.147   3.180  1.4830  0.5456 -0.8728
   58CHL1  H21C 5453   6.038   2.007   3.139 -1.2455  1.0318 -0.6919
   58CHL1   C22 5454   5.870   1.851   3.331  0.1109 -0.4532  1.0178
   58CHL1  H22A 5455   5.920   1.883   3.425 -2.0436  1.0955  1.6757
   58CHL1  H22B 5456   5.770   1.811   3.361 -1.8642  1.8482 -2.2416
   58CHL1   C23 5457   5.971   1.744   3.271 -0.1287  0.1964  0.2320
   58CHL1  H23A 5458   5.946   1.717   3.166  1.2277  0.3030 -0.1270
   58CHL1  H23B 5459   6.071   1.791   3.281  0.0508 -0.0756 -0.3043
   58CHL1   C24 5460   5.976   1.622   3.362  0.3881  0.5108 -0.8372
   58CHL1  H24A 5461   6.000   1.651   3.466 -2.8762  0.3542 -0.0050
   58CHL1  H24B 5462   5.868   1.594   3.363  0.3746  0.5716  1.0987
   58CHL1   C25 5463   6.059   1.502   3.302  0.6900  0.1829 -1.1866
   58CHL1   H25 5464   6.030   1.485   3.196 -1.8556  1.9681 -0.8039
   58CHL1   C26 5465   6.210   1.538   3.312 -0.4744  0.5285  0.3529
   58CHL1  H26A 5466   6.237   1.617   3.238 -3.4277  1.1155 -0.1896
   58CHL1  H26B 5467   6.215   1.585   3.412 -0.2731 -0.8803  1.0153
   58CHL1  H26C 5468   6.268   1.444   3.299  0.1880  0.8191  1.2335
   58CHL1   C27 5469   6.026   1.382   3.395  0.3040 -0.1420  0.6008
   58CHL1  H27A 5470   6.082   1.290   3.370  0.1864  0.5165 -2.1763
   58CHL1  H27B 5471   6.049   1.398   3.503 -0.8394 -0.9831  0.9880
   58CHL1  H27C 5472   5.917   1.357   3.399  0.1173  0.3949 -0.9902
   59CHL1    C3 5473   4.545   0.959   2.312 -0.5405 -0.6480 -0.3212
   59CHL1    H3 5474   4.438   0.946   2.287 -1.2095  1.3597  1.3301
   59CHL1    O3 5475   4.618   0.984   2.194 -0.3612  0.1890 -0.3282
   59CHL1   H3' 5476   4.599   0.915   2.130 -0.7170 -0.6966  0.7255
   59CHL1    C4 5477   4.565   1.084   2.404  0.0337  0.3829 -0.2651
   59CHL1   H4A 5478   4.672   1.102   2.430  0.9555 -2.1116 -2.1346
   59CHL1   H4B 5479   4.523   1.176   2.357 -0.6660 -0.9720 -2.3455
   59CHL1    C5 5480   4.491   1.050   2.533  0.0865  0.6051  0.1585
   59CHL1    C6 5481   4.395   1.133   2.578  0.4886 -0.3617 -0.2872
   59CHL1    H6 5482   4.376   1.219   2.512  2.0097  1.5448  1.6768
   59CHL1    C7 5483   4.323   1.116   2.711 -0.6146 -0.3519 -0.0819
   59CHL1   H7A 5484   4.320   1.219   2.752  1.4619  0.2492 -1.3716
   59CHL1   H7B 5485   4.226   1.065   2.693 -0.0064 -0.8553 -2.0589
   59CHL1    C8 5486   4.395   1.019   2.807  0.0457 -0.1942 -0.2289
   59CHL1    H8 5487   4.490   1.066   2.842  0.6752 -2.1408  0.7339
   59CHL1   C14 5488   4.307   0.978   2.931  0.2583 -0.3565 -0.0231
   59CHL1   H14 5489   4.216   0.931   2.888 -2.1388  2.8430  1.3174
   59CHL1   C15 5490   4.259   1.095   3.023  0.0281  0.0777  0.1785
   59CHL1  H15A 5491   4.344   1.164   3.041 -0.2938  0.2734  0.9457
   59CHL1  H15B 5492   4.173   1.143   2.971  0.4062  1.4342  0.7836
   59CHL1   C16 5493   4.223   1.018   3.152 -0.2931  0.3051  0.1769
   59CHL1  H16A 5494   4.271   1.074   3.235 -0.2655 -2.8586  2.3909
   59CHL1  H16B 5495   4.116   1.012   3.183 -0.8319  2.5725 -1.1747
   59CHL1   C17 5496   4.273   0.869   3.134  0.0640  0.6392  0.4719
   59CHL1   H17 5497   4.191   0.806   3.092  0.1721 -1.3719  3.1887
   59CHL1   C13 5498   4.369   0.872   3.023  0.0482 -0.9552  0.0369
   59CHL1   C18 5499   4.512   0.907   3.080  0.3546  0.7971  0.5144
   59CHL1  H18A 5500   4.499   0.967   3.172  1.5783  0.2314  1.0573
   59CHL1  H18B 5501   4.574   0.816   3.096 -0.1454  0.3772  0.1284
   59CHL1  H18C 5502   4.577   0.968   3.015  1.0042  0.6245  1.0029
   59CHL1   C12 5503   4.382   0.742   2.939  0.3538 -0.2039  0.3706
   59CHL1  H12A 5504   4.419   0.660   3.003  1.5559  1.9670  2.5741
   59CHL1  H12B 5505   4.280   0.709   2.910  0.5607 -0.0194 -0.5915
   59CHL1   C11 5506   4.472   0.768   2.816  0.1856 -0.4630 -0.8836
   59CHL1  H11A 5507   4.577   0.773   2.851 -0.5942 -0.2160  1.5221
   59CHL1  H11B 5508   4.466   0.673   2.759  1.6115 -0.2434 -1.4075
   59CHL1    C9 5509   4.433   0.891   2.728  0.5560  0.5221 -0.6717
   59CHL1    H9 5510   4.335   0.858   2.686 -0.0469 -0.0177  1.1157
   59CHL1   C10 5511   4.530   0.923   2.608 -0.0628  0.3753 -0.5246
   59CHL1   C19 5512   4.670   0.936   2.675 -0.6117  0.5774 -0.1831
   59CHL1  H19A 5513   4.673   0.998   2.767  1.3000  0.4772 -0.1690
   59CHL1  H19B 5514   4.711   0.835   2.695 -0.6983  0.2110 -1.7952
   59CHL1  H19C 5515   4.737   0.987   2.602 -1.3486  0.6837 -0.8057
   59CHL1    C1 5516   4.524   0.807   2.506 -0.4643 -0.5088 -1.2392
   59CHL1   H1A 5517   4.559   0.707   2.541  1.6227  0.2832 -1.0330
   59CHL1   H1B 5518   4.416   0.784   2.491 -0.7661 -1.1887  1.7349
   59CHL1    C2 5519   4.599   0.830   2.372  0.2870 -0.3228 -0.3579
   59CHL1   H2A 5520   4.581   0.743   2.306 -1.9388 -1.3673  1.5225
   59CHL1   H2B 5521   4.706   0.842   2.398  0.1379  0.3776 -0.0371
   59CHL1   C20 5522   4.305   0.809   3.274  0.2883 -0.7650  0.4128
   59CHL1   H20 5523   4.393   0.861   3.317 -0.1042  0.2657 -0.0190
   59CHL1   C21 5524   4.339   0.656   3.249  0.2783 -0.3008 -0.1445
   59CHL1  H21A 5525   4.274   0.606   3.174  0.9499 -0.2774 -0.7446
   59CHL1  H21B 5526   4.334   0.591   3.339  0.7348 -1.4024 -0.9156
   59CHL1  H21C 5527   4.440   0.651   3.203 -0.0969 -1.9000 -0.8378
   59CHL1   C22 5528   4.188   0.825   3.375 -0.0647  0.1364 -0.1291
   59CHL1  H22A 5529   4.158   0.932   3.385 -2.1241 -0.4969  0.7928
   59CHL1  H22B 5530   4.094   0.770   3.353 -1.2135  1.5830  1.0454
   59CHL1   C23 5531   4.245   0.782   3.516 -0.3305 -0.0863  0.6493
   59CHL1  H23A 5532   4.272   0.676   3.532  0.1074  0.3355  2.8840
   59CHL1  H23B 5533   4.331   0.847   3.541 -1.5427  1.3852  1.0948
   59CHL1   C24 5534   4.141   0.821   3.629  0.0007 -0.3729  0.0436
   59CHL1  H24A 5535   4.122   0.931   3.632  2.3266  0.1651 -2.6743
   59CHL1  H24B 5536   4.053   0.761   3.601  0.0147 -1.1685  1.6483
   59CHL1   C25 5537   4.186   0.761   3.766  0.0976 -0.4169  0.3021
   59CHL1   H25 5538   4.188   0.653   3.742  1.4036  0.2073 -2.6420
   59CHL1   C26 5539   4.321   0.814   3.816  0.5874  0.3935 -0.3667
   59CHL1  H26A 5540   4.395   0.789   3.737 -2.2675 -0.9073 -2.7110
   59CHL1  H26B 5541   4.320   0.925   3.817 -1.7381  0.4184 -1.0228
   59CHL1  H26C 5542   4.359   0.765   3.908 -1.1989 -2.6528 -1.1741
   59CHL1   C27 5543   4.077   0.790   3.871  0.4551 -0.5013  0.0185
   59CHL1  H27A 5544   4.109   0.759   3.973  1.0759  1.3386  0.4058
   59CHL1  H27B 5545   4.039   0.895   3.871 -3.7580 -1.9284  1.6926
   59CHL1  H27C 5546   3.984   0.737   3.844 -0.2536  0.1536  1.1177
   60CHL1    C3 5547   5.034   6.454   2.278  0.0842 -0.8752  0.1372
   60CHL1    H3 5548   5.134   6.438   2.324  1.0703  3.2176 -0.3217
   60CHL1    O3 5549   5.052   6.470   2.138 -0.3106  0.0638  0.0063
   60CHL1   H3' 5550   5.105   6.400   2.099  1.9081  2.4761 -1.4715
   60CHL1    C4 5551   4.925   6.344   2.307  0.6043 -0.3513 -0.0389
   60CHL1   H4A 5552   4.827   6.364   2.259  0.8717 -0.4913 -0.6441
   60CHL1   H4B 5553   4.966   6.245   2.277 -0.3737 -1.3510  1.8552
   60CHL1    C5 5554   4.895   6.337   2.456  0.6080  0.0198 -0.1196
   60CHL1    C6 5555   4.923   6.221   2.524 -0.3101 -0.2036  0.0685
   60CHL1    H6 5556   4.956   6.127   2.477 -0.4332 -0.8507  1.2562
   60CHL1    C7 5557   4.920   6.217   2.672  0.1525  0.4494  0.5861
   60CHL1   H7A 5558   4.887   6.118   2.712  1.7946 -0.8768 -1.2552
   60CHL1   H7B 5559   5.021   6.228   2.716 -0.0679 -2.9202  2.1392
   60CHL1    C8 5560   4.815   6.323   2.727  0.1351  0.0639  0.2159
   60CHL1    H8 5561   4.717   6.296   2.684 -0.0750  2.1075 -0.6724
   60CHL1   C14 5562   4.823   6.318   2.872  0.0358 -0.3873 -0.1852
   60CHL1   H14 5563   4.928   6.344   2.897  0.6563 -2.4643 -0.5490
   60CHL1   C15 5564   4.782   6.186   2.946  0.0090 -0.4373 -0.5491
   60CHL1  H15A 5565   4.694   6.141   2.895  0.8299 -0.0050 -2.4049
   60CHL1  H15B 5566   4.869   6.118   2.939 -1.7644 -2.9267  0.7265
   60CHL1   C16 5567   4.750   6.231   3.088 -0.4415 -0.2128  0.5098
   60CHL1  H16A 5568   4.645   6.200   3.106 -0.1537 -0.5218  1.6885
   60CHL1  H16B 5569   4.817   6.188   3.164 -1.4963  0.4496  1.8315
   60CHL1   C17 5570   4.753   6.384   3.082  0.3360 -0.1871 -0.4234
   60CHL1   H17 5571   4.855   6.409   3.121  0.4981 -1.0279 -0.3073
   60CHL1   C13 5572   4.736   6.426   2.937  0.6828 -0.0924 -0.2423
   60CHL1   C18 5573   4.588   6.419   2.889 -0.1218 -0.2433  0.1742
   60CHL1  H18A 5574   4.519   6.486   2.943  1.6196  0.7248  1.2606
   60CHL1  H18B 5575   4.581   6.436   2.780  0.9618 -2.5684 -0.2883
   60CHL1  H18C 5576   4.547   6.316   2.891  0.9184 -0.7214 -1.5693
   60CHL1   C12 5577   4.800   6.566   2.890 -0.1511  0.4374 -0.3486
   60CHL1  H12A 5578   4.737   6.646   2.934 -0.9918 -0.5895  0.3489
   60CHL1  H12B 5579   4.907   6.572   2.916  0.0461 -0.4464 -0.9052
   60CHL1   C11 5580   4.786   6.581   2.739  0.2775 -0.2714 -0.3114
   60CHL1  H11A 5581   4.677   6.576   2.718  0.3600 -1.3405 -0.5086
   60CHL1  H11B 5582   4.833   6.676   2.705 -1.4656  1.3553  1.6869
   60CHL1    C9 5583   4.859   6.460   2.675  0.4919 -0.0587 -0.4644
   60CHL1    H9 5584   4.968   6.467   2.698  0.0428  2.9303  0.8794
   60CHL1   C10 5585   4.856   6.471   2.522 -0.8024  0.0057  0.7913
   60CHL1   C19 5586   4.710   6.512   2.480 -0.7749 -0.7324  0.6925
   60CHL1  H19A 5587   4.684   6.614   2.517  0.1497  0.4067 -1.6870
   60CHL1  H19B 5588   4.713   6.521   2.369 -0.4070  0.8225  0.8061
   60CHL1  H19C 5589   4.628   6.438   2.478  0.1787 -1.7795 -1.7669
   60CHL1    C1 5590   4.970   6.577   2.491 -0.0776 -0.0367  0.1910
   60CHL1   H1A 5591   4.941   6.678   2.526  3.7403  0.8440  1.0679
   60CHL1   H1B 5592   5.062   6.547   2.545 -1.2439 -2.5784  0.8610
   60CHL1    C2 5593   4.992   6.586   2.339  0.0388 -0.4210  0.9321
   60CHL1   H2A 5594   5.062   6.669   2.319  0.6195 -0.5178  2.4504
   60CHL1   H2B 5595   4.897   6.619   2.292  0.9073  1.5720  0.5635
   60CHL1   C20 5596   4.652   6.440   3.185 -0.7601  0.0485 -0.0974
   60CHL1   H20 5597   4.556   6.402   3.143  1.5213 -5.2467 -0.9888
   60CHL1   C21 5598   4.649   6.586   3.193 -0.2307 -0.0584 -0.1406
   60CHL1  H21A 5599   4.612   6.628   3.097 -3.0185  0.1100  0.9793
   60CHL1  H21B 5600   4.754   6.618   3.212 -0.4548 -0.1165  1.2178
   60CHL1  H21C 5601   4.574   6.622   3.266  0.1370 -0.2849  0.3532
   60CHL1   C22 5602   4.686   6.386   3.331  0.3304 -0.4835 -0.2471
   60CHL1  H22A 5603   4.673   6.276   3.337 -0.4906 -0.3498  0.4292
   60CHL1  H22B 5604   4.792   6.410   3.354 -0.1717  0.7100  0.8891
   60CHL1   C23 5605   4.605   6.439   3.452 -0.1425 -0.0614 -0.4149
   60CHL1  H23A 5606   4.609   6.550   3.457  1.6824 -0.1123 -0.2768
   60CHL1  H23B 5607   4.496   6.430   3.436 -0.3492  1.3048  0.1467
   60CHL1   C24 5608   4.643   6.380   3.586  0.1723  0.2396 -0.4531
   60CHL1  H24A 5609   4.618   6.272   3.574  0.7703 -0.1038  1.2639
   60CHL1  H24B 5610   4.753   6.391   3.594  0.3081  1.1381 -2.9313
   60CHL1   C25 5611   4.588   6.442   3.714 -0.2862  0.2384  0.4713
   60CHL1   H25 5612   4.611   6.551   3.718  1.3108 -0.0335 -0.4638
   60CHL1   C26 5613   4.432   6.430   3.724 -0.2890 -0.4879  0.0564
   60CHL1  H26A 5614   4.405   6.324   3.705  2.2032 -1.0947 -0.3861
   60CHL1  H26B 5615   4.393   6.449   3.826  0.3432  0.6933  0.0848
   60CHL1  H26C 5616   4.379   6.479   3.640 -0.8653 -0.6188  0.3445
   60CHL1   C27 5617   4.652   6.371   3.833  0.2355  0.0722 -0.1532
   60CHL1  H27A 5618   4.628   6.263   3.835  3.2165 -0.6125  2.9638
   60CHL1  H27B 5619   4.763   6.383   3.825  0.4154  0.2829  2.3164
   60CHL1  H27C 5620   4.617   6.415   3.929  3.0499  0.5272  0.7185
   61CHL1    C3 5621   6.389   2.327   2.187 -0.3538 -0.1695  0.1694
   61CHL1    H3 5622   6.453   2.236   2.186  0.6744  0.5527 -0.9993
   61CHL1    O3 5623   6.366   2.381   2.060  0.2934 -0.4587 -0.2015
   61CHL1   H3' 5624   6.378   2.476   2.062 -0.0053 -0.4152 -0.4587
   61CHL1    C4 5625   6.255   2.296   2.241 -0.0976  0.1810 -0.1259
   61CHL1   H4A 5626   6.185   2.381   2.254  0.1959  0.6013 -1.2165
   61CHL1   H4B 5627   6.198   2.228   2.174 -0.8275  2.3461 -1.7440
   61CHL1    C5 5628   6.273   2.231   2.382  0.3919  0.4628  0.1138
   61CHL1    C6 5629   6.241   2.103   2.406  0.2097  0.0173 -0.3715
   61CHL1    H6 5630   6.194   2.041   2.329 -2.2405  1.7639 -0.3302
   61CHL1    C7 5631   6.241   2.032   2.538  0.8088  0.1929 -0.2712
   61CHL1   H7A 5632   6.149   1.978   2.570  0.0998  0.7006 -1.4315
   61CHL1   H7B 5633   6.319   1.953   2.537 -1.5297 -2.1932  0.2964
   61CHL1    C8 5634   6.277   2.126   2.658 -0.0145 -1.1792  0.3673
   61CHL1    H8 5635   6.191   2.189   2.689  1.9973  1.5105  0.7086
   61CHL1   C14 5636   6.332   2.039   2.773  0.2834 -0.2040 -0.4374
   61CHL1   H14 5637   6.425   1.989   2.739 -0.1247 -2.2910  1.4089
   61CHL1   C15 5638   6.241   1.925   2.816  0.4327 -0.3375 -0.2947
   61CHL1  H15A 5639   6.138   1.963   2.800  0.0001 -1.4569 -0.2533
   61CHL1  H15B 5640   6.234   1.836   2.750 -0.7630 -0.0799 -0.5191
   61CHL1   C16 5641   6.280   1.899   2.961  0.1047 -0.3463 -0.0789
   61CHL1  H16A 5642   6.200   1.902   3.039 -0.4866  0.1331 -0.6978
   61CHL1  H16B 5643   6.333   1.802   2.968  1.1434  0.2246 -0.0207
   61CHL1   C17 5644   6.386   2.008   2.989  0.1602  0.3406  0.1730
   61CHL1   H17 5645   6.485   1.971   2.956 -0.5776 -0.9001 -0.6783
   61CHL1   C13 5646   6.361   2.121   2.891  0.0844 -0.6542 -1.0053
   61CHL1   C18 5647   6.228   2.193   2.940  0.1462  0.2908  0.3404
   61CHL1  H18A 5648   6.248   2.258   3.028  0.8416  2.4288 -1.3561
   61CHL1  H18B 5649   6.172   2.251   2.864 -1.1777 -1.1766  0.1636
   61CHL1  H18C 5650   6.149   2.121   2.972  0.6024 -0.7592 -0.8902
   61CHL1   C12 5651   6.476   2.219   2.857 -0.5503  0.5937  0.6228
   61CHL1  H12A 5652   6.499   2.284   2.944 -1.6296  1.4845  0.2578
   61CHL1  H12B 5653   6.559   2.155   2.822 -1.2285  0.8390 -1.5453
   61CHL1   C11 5654   6.442   2.306   2.740  0.3127  0.2649 -0.4659
   61CHL1  H11A 5655   6.368   2.380   2.776  0.2985 -0.1076  0.2782
   61CHL1  H11B 5656   6.521   2.377   2.707  0.1957  1.0089  0.8257
   61CHL1    C9 5657   6.381   2.232   2.620 -0.2886 -0.3224  0.0444
   61CHL1    H9 5658   6.471   2.176   2.586 -0.9183 -1.2614 -0.0818
   61CHL1   C10 5659   6.343   2.315   2.489  0.5071 -0.3082 -0.0086
   61CHL1   C19 5660   6.235   2.425   2.536 -0.2311  0.4551  0.1834
   61CHL1  H19A 5661   6.159   2.384   2.607  0.7574  2.2192  2.3343
   61CHL1  H19B 5662   6.294   2.509   2.579  0.4218 -0.3472  0.8862
   61CHL1  H19C 5663   6.187   2.474   2.449 -3.1693 -0.2157  1.3464
   61CHL1    C1 5664   6.468   2.383   2.427 -0.0218 -0.5108 -0.4037
   61CHL1   H1A 5665   6.504   2.463   2.495 -1.3133 -0.2416 -0.0114
   61CHL1   H1B 5666   6.544   2.303   2.427  0.4643 -0.0510 -0.6218
   61CHL1    C2 5667   6.457   2.432   2.279  0.0574  0.3986 -0.4856
   61CHL1   H2A 5668   6.558   2.456   2.239  1.0370 -1.6192  0.7171
   61CHL1   H2B 5669   6.398   2.527   2.283  1.5823  1.2683  2.4889
   61CHL1   C20 5670   6.403   2.023   3.141  0.2532  0.4241 -0.2279
   61CHL1   H20 5671   6.301   2.033   3.185 -0.3585 -0.6209 -1.3806
   61CHL1   C21 5672   6.496   2.147   3.167 -0.2380  0.9070 -0.2540
   61CHL1  H21A 5673   6.580   2.136   3.095 -0.7349  2.0554 -1.0147
   61CHL1  H21B 5674   6.543   2.152   3.268  0.4749 -0.5418 -0.4950
   61CHL1  H21C 5675   6.440   2.241   3.147 -2.0241 -0.0403  0.2537
   61CHL1   C22 5676   6.466   1.892   3.203  0.2780  0.0214  0.8787
   61CHL1  H22A 5677   6.400   1.805   3.185 -0.9209  0.9708  0.6128
   61CHL1  H22B 5678   6.565   1.873   3.158  1.6413  1.4190  3.1823
   61CHL1   C23 5679   6.471   1.891   3.353  0.1116  0.1683 -0.0849
   61CHL1  H23A 5680   6.496   1.791   3.393  1.4644  0.3328 -0.4829
   61CHL1  H23B 5681   6.560   1.954   3.376  1.8156 -0.7738 -3.7133
   61CHL1   C24 5682   6.345   1.947   3.427 -0.4095 -0.3715 -0.2463
   61CHL1  H24A 5683   6.337   2.054   3.397 -0.8329 -0.4145 -0.2945
   61CHL1  H24B 5684   6.258   1.890   3.387 -1.6996  0.4775  1.2854
   61CHL1   C25 5685   6.346   1.933   3.580  0.0452 -0.3337 -0.0240
   61CHL1   H25 5686   6.440   1.966   3.629  1.3203 -1.5578 -1.5958
   61CHL1   C26 5687   6.235   2.017   3.636 -0.0133 -0.4797  0.2297
   61CHL1  H26A 5688   6.225   1.998   3.745  0.6452  0.5296  0.4770
   61CHL1  H26B 5689   6.252   2.126   3.621 -1.6160  0.0082  1.7430
   61CHL1  H26C 5690   6.139   1.994   3.586  0.0714 -0.5044  0.0802
   61CHL1   C27 5691   6.337   1.784   3.623 -0.5317 -0.1854  0.2266
   61CHL1  H27A 5692   6.313   1.785   3.731 -0.3261  0.5642  0.2672
   61CHL1  H27B 5693   6.252   1.727   3.578 -0.6128 -0.9299  1.3148
   61CHL1  H27C 5694   6.426   1.721   3.601 -0.0153  0.3317  0.8632
   62CHL1    C3 5695   1.714   1.102   2.332 -1.3390 -0.2914 -0.5822
   62CHL1    H3 5696   1.810   1.154   2.314  0.3276 -3.4293 -1.2000
   62CHL1    O3 5697   1.676   1.057   2.205 -0.4695  0.3671  0.1533
   62CHL1   H3' 5698   1.592   1.015   2.227 -0.5531 -0.8110 -2.2309
   62CHL1    C4 5699   1.746   0.985   2.428  0.0888  0.1377  0.4958
   62CHL1   H4A 5700   1.665   0.910   2.423  1.5479 -1.4537  0.1834
   62CHL1   H4B 5701   1.834   0.932   2.386  0.0875  1.2678 -1.0095
   62CHL1    C5 5702   1.778   1.028   2.569 -0.1221  0.2270  0.5525
   62CHL1    C6 5703   1.890   0.985   2.627 -0.2531  0.0043  0.0537
   62CHL1    H6 5704   1.948   0.908   2.575  0.5246 -0.0534  0.9872
   62CHL1    C7 5705   1.937   1.021   2.760  0.2546 -0.2816  0.0900
   62CHL1   H7A 5706   1.984   0.939   2.818  3.6702  0.8745 -0.9465
   62CHL1   H7B 5707   2.020   1.094   2.748  1.0796 -1.5309 -2.1401
   62CHL1    C8 5708   1.826   1.090   2.848 -0.7143 -0.2649  0.1276
   62CHL1    H8 5709   1.746   1.019   2.877 -0.1708 -1.1709 -0.5554
   62CHL1   C14 5710   1.891   1.150   2.973  0.6786 -0.7536  0.4311
   62CHL1   H14 5711   1.969   1.214   2.928  0.1509 -0.4586 -0.0683
   62CHL1   C15 5712   1.964   1.055   3.073  0.6951  0.7293  0.4718
   62CHL1  H15A 5713   1.889   0.976   3.097 -0.6863  1.7529 -0.3915
   62CHL1  H15B 5714   2.055   1.007   3.032 -0.4582 -1.9687  0.9774
   62CHL1   C16 5715   1.984   1.147   3.191  0.0627  0.3381  0.1835
   62CHL1  H16A 5716   1.968   1.092   3.286 -1.8153 -2.3024 -1.6095
   62CHL1  H16B 5717   2.086   1.191   3.202  0.1293  0.6387 -1.5068
   62CHL1   C17 5718   1.900   1.275   3.171 -0.0981  0.0167  0.5424
   62CHL1   H17 5719   1.974   1.344   3.126  1.2348 -1.0732  1.0309
   62CHL1   C13 5720   1.796   1.242   3.059  0.4163  0.5562  0.1214
   62CHL1   C18 5721   1.680   1.161   3.128  0.1041 -0.8045  0.1822
   62CHL1  H18A 5722   1.725   1.076   3.184  0.5368  0.0280  1.1203
   62CHL1  H18B 5723   1.609   1.216   3.194  2.2379 -0.4350  2.2484
   62CHL1  H18C 5724   1.618   1.116   3.047  0.3836 -1.2044  0.1913
   62CHL1   C12 5725   1.752   1.357   2.966  0.1457 -0.0023 -0.1923
   62CHL1  H12A 5726   1.684   1.424   3.023 -1.6194 -0.3753 -1.7883
   62CHL1  H12B 5727   1.839   1.415   2.930  0.8880  0.3436  2.0820
   62CHL1   C11 5728   1.675   1.300   2.845  0.0732  0.2658  0.0152
   62CHL1  H11A 5729   1.576   1.268   2.882  1.6005 -1.8058  2.4967
   62CHL1  H11B 5730   1.645   1.387   2.783 -1.2824  0.2738  0.6727
   62CHL1    C9 5731   1.755   1.199   2.762 -0.2513  0.2442  0.6364
   62CHL1    H9 5732   1.833   1.266   2.719  1.0368 -1.8863 -0.4784
   62CHL1   C10 5733   1.683   1.134   2.634  0.4869  0.4388 -0.0544
   62CHL1   C19 5734   1.545   1.064   2.673  0.0613 -0.2770  0.0296
   62CHL1  H19A 5735   1.570   0.974   2.734 -2.0650 -0.8171  0.1274
   62CHL1  H19B 5736   1.482   1.138   2.726 -0.5122 -0.1963 -0.7582
   62CHL1  H19C 5737   1.494   1.025   2.583  3.6052  2.9750 -3.6199
   62CHL1    C1 5738   1.651   1.248   2.526  0.4415  0.0188 -0.2139
   62CHL1   H1A 5739   1.570   1.308   2.573  1.4850  0.7905  0.6311
   62CHL1   H1B 5740   1.741   1.314   2.523  1.1065 -0.8888 -0.4872
   62CHL1    C2 5741   1.610   1.199   2.384 -0.1932 -0.4253 -0.2484
   62CHL1   H2A 5742   1.577   1.288   2.326  0.5435  0.9447  1.3661
   62CHL1   H2B 5743   1.521   1.133   2.395 -2.4564  1.7288 -4.5800
   62CHL1   C20 5744   1.857   1.342   3.307 -0.7506 -0.0339 -0.5483
   62CHL1   H20 5745   1.793   1.266   3.358 -2.2816  1.2858 -0.4703
   62CHL1   C21 5746   1.765   1.454   3.284  0.3318  0.1145 -0.0009
   62CHL1  H21A 5747   1.817   1.536   3.231 -0.0246  0.1456 -0.3039
   62CHL1  H21B 5748   1.725   1.494   3.379  2.8198 -1.1903  1.6605
   62CHL1  H21C 5749   1.671   1.435   3.228  0.3145  0.2997 -0.0345
   62CHL1   C22 5750   1.976   1.379   3.396  0.0921 -0.0499 -0.4179
   62CHL1  H22A 5751   2.057   1.304   3.386 -1.8580 -2.0190 -1.7112
   62CHL1  H22B 5752   2.026   1.468   3.352  1.0052  0.4777  1.6234
   62CHL1   C23 5753   1.946   1.402   3.542  0.5529 -0.0398 -0.0374
   62CHL1  H23A 5754   1.881   1.492   3.547  2.9858  1.7138  0.9171
   62CHL1  H23B 5755   1.890   1.316   3.583  0.7343  0.0845  0.4675
   62CHL1   C24 5756   2.069   1.422   3.629 -0.2273  0.8170 -0.0552
   62CHL1  H24A 5757   2.125   1.334   3.668 -0.1637  0.4733 -0.8991
   62CHL1  H24B 5758   2.143   1.479   3.569  0.1352 -2.1332 -2.5538
   62CHL1   C25 5759   2.037   1.499   3.758  0.9589  0.2170  0.1111
   62CHL1   H25 5760   1.987   1.593   3.728 -1.9293 -1.5788 -0.9256
   62CHL1   C26 5761   1.943   1.417   3.854 -0.7095  0.0637  0.2072
   62CHL1  H26A 5762   2.002   1.333   3.899 -0.6686 -0.2122 -0.3630
   62CHL1  H26B 5763   1.892   1.487   3.923 -0.0926  0.0541  0.6878
   62CHL1  H26C 5764   1.857   1.374   3.799 -1.1799  1.3255 -0.0613
   62CHL1   C27 5765   2.169   1.542   3.824  0.4428  0.2279  0.1799
   62CHL1  H27A 5766   2.213   1.632   3.776 -0.5228 -0.0099 -1.1468
   62CHL1  H27B 5767   2.158   1.573   3.931  2.6784 -2.8514  1.3972
   62CHL1  H27C 5768   2.250   1.466   3.829  0.0332 -0.2132  0.1185
   63CHL1    C3 5769   6.280   4.482   2.219  0.1009 -1.1150 -0.2256
   63CHL1    H3 5770   6.212   4.569   2.234 -0.1479 -1.2730 -0.4340
   63CHL1    O3 5771   6.304   4.485   2.080  0.9158 -0.0090  0.0166
   63CHL1   H3' 5772   6.218   4.456   2.049  1.5644 -2.2529  0.2715
   63CHL1    C4 5773   6.407   4.497   2.301 -0.2782  0.3050 -0.1304
   63CHL1   H4A 5774   6.477   4.429   2.248  0.9710 -0.7517  2.7568
   63CHL1   H4B 5775   6.459   4.594   2.294  0.1316 -0.0638 -2.3221
   63CHL1    C5 5776   6.404   4.456   2.453 -0.4849 -0.0902  0.7035
   63CHL1    C6 5777   6.449   4.541   2.547 -0.1236  0.0144 -0.5870
   63CHL1    H6 5778   6.483   4.641   2.519  0.8469 -0.0948  0.1581
   63CHL1    C7 5779   6.454   4.488   2.685 -0.6109 -0.3142 -0.5472
   63CHL1   H7A 5780   6.546   4.523   2.738 -1.4886  0.5613  0.4345
   63CHL1   H7B 5781   6.376   4.542   2.744  0.0137 -0.9355  0.8703
   63CHL1    C8 5782   6.441   4.338   2.713 -0.1517  0.0163 -0.6242
   63CHL1    H8 5783   6.535   4.294   2.674 -0.3231  0.5863 -1.6801
   63CHL1   C14 5784   6.413   4.296   2.860  0.0741 -0.2292  0.1247
   63CHL1   H14 5785   6.312   4.335   2.884  0.3650  0.6931 -0.1201
   63CHL1   C15 5786   6.505   4.372   2.965 -0.2905  0.2569  0.1280
   63CHL1  H15A 5787   6.613   4.350   2.947 -0.8709 -2.0713 -0.5322
   63CHL1  H15B 5788   6.493   4.482   2.983 -2.8199  0.3087 -1.6753
   63CHL1   C16 5789   6.452   4.297   3.088 -0.0379 -0.4786 -0.1344
   63CHL1  H16A 5790   6.540   4.279   3.154  1.0991  1.2530 -1.1107
   63CHL1  H16B 5791   6.374   4.351   3.146 -0.0027 -0.9572  0.3632
   63CHL1   C17 5792   6.370   4.172   3.040  0.1936 -0.3283  0.7437
   63CHL1   H17 5793   6.264   4.200   3.052  0.3347  2.5787 -3.7914
   63CHL1   C13 5794   6.411   4.153   2.896 -0.8628 -0.5815  0.0699
   63CHL1   C18 5795   6.554   4.089   2.892 -0.3139  0.5157 -0.0019
   63CHL1  H18A 5796   6.623   4.145   2.959  0.9350  0.8535 -1.5496
   63CHL1  H18B 5797   6.550   3.982   2.920  1.8346 -0.1515 -2.0976
   63CHL1  H18C 5798   6.580   4.079   2.784  2.6322 -0.9880  0.7909
   63CHL1   C12 5799   6.303   4.083   2.809 -0.1734 -0.3512  0.9983
   63CHL1  H12A 5800   6.307   3.974   2.827 -1.4752 -0.6543 -0.4558
   63CHL1  H12B 5801   6.206   4.115   2.852 -0.5228 -1.5188  1.0866
   63CHL1   C11 5802   6.321   4.118   2.657  0.3511  0.1600  0.3268
   63CHL1  H11A 5803   6.410   4.056   2.636  0.0882 -0.0567 -0.1672
   63CHL1  H11B 5804   6.238   4.078   2.595 -0.3248  0.4628  1.0181
   63CHL1    C9 5805   6.329   4.271   2.623 -0.6244 -0.5852  0.1620
   63CHL1    H9 5806   6.234   4.315   2.659  0.1482 -0.3217  1.9362
   63CHL1   C10 5807   6.345   4.312   2.480  0.0738  0.4865 -0.5947
   63CHL1   C19 5808   6.424   4.201   2.406  0.3578 -0.1670 -0.2576
   63CHL1  H19A 5809   6.515   4.177   2.466  0.3577 -2.4356 -1.1153
   63CHL1  H19B 5810   6.364   4.110   2.382 -0.3588  0.5836 -1.3818
   63CHL1  H19C 5811   6.454   4.214   2.300 -1.8169  2.5752 -0.5863
   63CHL1    C1 5812   6.200   4.320   2.414  0.5053  0.6677 -0.0788
   63CHL1   H1A 5813   6.144   4.225   2.429  0.4452  0.6723 -0.2698
   63CHL1   H1B 5814   6.143   4.396   2.472  1.6875  2.1224 -0.7772
   63CHL1    C2 5815   6.205   4.358   2.267  0.4701  0.1217  0.7059
   63CHL1   H2A 5816   6.101   4.356   2.230  2.0914  1.4145 -4.2680
   63CHL1   H2B 5817   6.257   4.279   2.208  1.2365 -0.6048  2.2994
   63CHL1   C20 5818   6.393   4.048   3.137  0.3753  0.2090  0.1054
   63CHL1   H20 5819   6.499   4.014   3.132 -0.7357 -3.2486 -1.3794
   63CHL1   C21 5820   6.313   3.923   3.080  0.6374 -0.3476 -0.4752
   63CHL1  H21A 5821   6.282   3.847   3.155  0.8082 -0.6339 -0.7000
   63CHL1  H21B 5822   6.380   3.884   3.001  2.6317  0.0349  0.9892
   63CHL1  H21C 5823   6.216   3.947   3.030 -1.5307 -3.9469  1.8022
   63CHL1   C22 5824   6.351   4.073   3.281 -0.6813 -0.3367  0.0796
   63CHL1  H22A 5825   6.378   4.173   3.319  0.6150  0.2026 -2.1794
   63CHL1  H22B 5826   6.240   4.069   3.277 -0.5664 -2.1784 -2.1552
   63CHL1   C23 5827   6.409   3.963   3.378 -0.1879 -0.9781  0.4363
   63CHL1  H23A 5828   6.361   3.865   3.360  0.9560 -1.4987  0.1458
   63CHL1  H23B 5829   6.517   3.948   3.357  0.0396  1.2075 -0.1648
   63CHL1   C24 5830   6.385   4.013   3.523  0.3985  0.1183 -0.4088
   63CHL1  H24A 5831   6.433   4.112   3.539 -1.8322  1.0547  0.6401
   63CHL1  H24B 5832   6.278   4.042   3.532  0.2587 -0.2694 -0.8067
   63CHL1   C25 5833   6.414   3.906   3.625 -0.2514  0.1535  0.7538
   63CHL1   H25 5834   6.367   3.811   3.594  0.1181  0.9530 -2.3822
   63CHL1   C26 5835   6.560   3.883   3.657 -0.6092  0.3844  0.3343
   63CHL1  H26A 5836   6.579   3.809   3.738 -1.5696 -0.8015 -0.5112
   63CHL1  H26B 5837   6.612   3.856   3.563 -1.8550  1.2659 -0.6263
   63CHL1  H26C 5838   6.597   3.978   3.703  2.6044 -0.7068  0.1158
   63CHL1   C27 5839   6.339   3.952   3.752  0.1400 -1.2122 -0.0357
   63CHL1  H27A 5840   6.235   3.914   3.746 -0.4437  0.1809  0.9021
   63CHL1  H27B 5841   6.377   3.908   3.847  0.9606  0.7562  0.5833
   63CHL1  H27C 5842   6.356   4.061   3.766 -3.0077 -0.8985  1.9427
   64CHL1    C3 5843   1.646   6.135   2.285 -0.6278  0.1327  0.3700
   64CHL1    H3 5844   1.680   6.035   2.252  0.7715  0.7303 -0.0147
   64CHL1    O3 5845   1.649   6.227   2.174  0.3036 -0.1358 -0.3846
   64CHL1   H3' 5846   1.592   6.296   2.208  0.3937 -0.2641  0.0242
   64CHL1    C4 5847   1.502   6.116   2.342 -0.2576  0.0154 -0.1100
   64CHL1   H4A 5848   1.454   6.213   2.366  1.6382  1.7599 -3.0085
   64CHL1   H4B 5849   1.438   6.070   2.263 -0.9725 -0.0520  0.5048
   64CHL1    C5 5850   1.495   6.032   2.467 -0.4244  0.3976  0.2686
   64CHL1    C6 5851   1.421   5.922   2.480 -0.8544 -0.3354  0.4281
   64CHL1    H6 5852   1.351   5.897   2.399 -0.3823  1.0912 -0.4483
   64CHL1    C7 5853   1.404   5.842   2.601 -0.0334 -0.1467  0.0188
   64CHL1   H7A 5854   1.301   5.807   2.623  0.7994 -3.5989 -1.2007
   64CHL1   H7B 5855   1.465   5.749   2.599 -1.4493 -1.1841  3.0553
   64CHL1    C8 5856   1.455   5.908   2.734 -0.6838 -0.2345 -0.5156
   64CHL1    H8 5857   1.389   5.983   2.781 -0.0371 -1.3907  2.3755
   64CHL1   C14 5858   1.480   5.800   2.843 -0.2700 -0.0851 -1.5445
   64CHL1   H14 5859   1.561   5.734   2.807  1.5126  1.3802 -0.3054
   64CHL1   C15 5860   1.364   5.713   2.887  0.0312  0.3276 -0.1927
   64CHL1  H15A 5861   1.278   5.777   2.916 -0.1827 -0.4037  0.8120
   64CHL1  H15B 5862   1.342   5.641   2.804 -1.6595  0.6015 -0.0074
   64CHL1   C16 5863   1.427   5.638   3.006 -0.4562 -0.0954  0.1316
   64CHL1  H16A 5864   1.343   5.638   3.079 -0.7233  0.4368 -0.1664
   64CHL1  H16B 5865   1.453   5.535   2.973 -1.6127 -1.3430  2.9952
   64CHL1   C17 5866   1.542   5.726   3.059  0.5321  0.1106 -0.2334
   64CHL1   H17 5867   1.633   5.682   3.012  0.4215  0.2270 -0.5528
   64CHL1   C13 5868   1.535   5.857   2.976 -0.6508  0.0300  0.3402
   64CHL1   C18 5869   1.448   5.956   3.051 -0.3209 -0.1401  0.3252
   64CHL1  H18A 5870   1.429   6.043   2.985  0.9510 -1.5715 -2.0086
   64CHL1  H18B 5871   1.350   5.913   3.080 -1.1180  1.3307 -0.1922
   64CHL1  H18C 5872   1.502   5.991   3.142 -3.1002  0.8176  1.6635
   64CHL1   C12 5873   1.671   5.929   2.940 -0.1615  0.3038  0.5235
   64CHL1  H12A 5874   1.721   5.972   3.029 -1.7181 -0.9194  2.0136
   64CHL1  H12B 5875   1.745   5.857   2.899 -0.8551 -0.1466  0.0292
   64CHL1   C11 5876   1.655   6.036   2.832  0.1311  0.0440  0.3598
   64CHL1  H11A 5877   1.593   6.120   2.872 -1.6754 -0.8772 -0.4394
   64CHL1  H11B 5878   1.752   6.076   2.796  1.1054 -2.7490 -0.2477
   64CHL1    C9 5879   1.587   5.982   2.702 -0.5155 -0.0821 -0.7535
   64CHL1    H9 5880   1.648   5.896   2.670  0.5025  0.2293  0.3036
   64CHL1   C10 5881   1.581   6.080   2.580 -0.5751  0.7434 -0.4270
   64CHL1   C19 5882   1.512   6.210   2.631 -0.0891  0.3281 -0.0674
   64CHL1  H19A 5883   1.407   6.187   2.662  0.3820 -0.8065  0.7251
   64CHL1  H19B 5884   1.566   6.263   2.713  0.7116  1.6212 -1.4147
   64CHL1  H19C 5885   1.504   6.297   2.562 -0.0262 -0.9598 -1.7291
   64CHL1    C1 5886   1.723   6.117   2.524 -0.0427  0.1803 -0.4385
   64CHL1   H1A 5887   1.784   6.174   2.598  1.2126 -2.8417  0.9333
   64CHL1   H1B 5888   1.775   6.022   2.500 -1.5979 -0.6919 -0.4262
   64CHL1    C2 5889   1.731   6.196   2.390 -0.1458  0.2365  0.2263
   64CHL1   H2A 5890   1.838   6.193   2.362 -0.1537 -3.3711  0.3770
   64CHL1   H2B 5891   1.695   6.300   2.407  0.0200  0.5575 -1.3673
   64CHL1   C20 5892   1.558   5.734   3.221  1.3395  0.2127  0.6080
   64CHL1   H20 5893   1.472   5.796   3.255  0.1081 -1.0042 -0.2616
   64CHL1   C21 5894   1.696   5.798   3.263 -0.0526 -0.4234  0.5181
   64CHL1  H21A 5895   1.776   5.761   3.196  0.8094  2.8281 -0.3334
   64CHL1  H21B 5896   1.698   5.783   3.373 -3.9039 -1.8884  0.4838
   64CHL1  H21C 5897   1.680   5.905   3.238  0.5981 -0.8916 -2.0723
   64CHL1   C22 5898   1.556   5.592   3.285 -0.5726 -0.2125  0.6578
   64CHL1  H22A 5899   1.511   5.522   3.211  0.9036 -0.2841 -0.1786
   64CHL1  H22B 5900   1.657   5.553   3.306 -0.0406  0.9075  0.2229
   64CHL1   C23 5901   1.477   5.562   3.413  0.1952  0.3534 -0.5617
   64CHL1  H23A 5902   1.495   5.646   3.484 -0.1284 -0.0637  0.0234
   64CHL1  H23B 5903   1.373   5.552   3.376 -0.1617  2.3475 -0.1374
   64CHL1   C24 5904   1.537   5.436   3.475 -0.6153  0.2730 -0.0883
   64CHL1  H24A 5905   1.547   5.357   3.399 -1.4410  0.8461 -0.7926
   64CHL1  H24B 5906   1.642   5.454   3.509 -1.3902 -0.0399  2.5965
   64CHL1   C25 5907   1.465   5.380   3.599  0.4231 -0.0801  0.5675
   64CHL1   H25 5908   1.506   5.285   3.639 -1.3850 -1.4656 -0.7434
   64CHL1   C26 5909   1.462   5.482   3.720 -0.0315 -0.3947 -0.0615
   64CHL1  H26A 5910   1.405   5.434   3.802 -1.2760 -3.4838 -2.6490
   64CHL1  H26B 5911   1.567   5.497   3.755 -0.3980 -2.8132  2.2730
   64CHL1  H26C 5912   1.413   5.578   3.694 -0.4242 -0.5353  0.1576
   64CHL1   C27 5913   1.314   5.334   3.563  0.1092  0.0559  0.3318
   64CHL1  H27A 5914   1.319   5.232   3.518 -1.0900  0.2563 -0.2904
   64CHL1  H27B 5915   1.247   5.321   3.650 -2.0048 -1.7354 -1.4847
   64CHL1  H27C 5916   1.263   5.408   3.498  0.7689  1.2920  1.2003
   65CHL1    C3 5917   1.154   1.585   2.421 -0.3856 -0.2863 -0.4454
   65CHL1    H3 5918   1.120   1.674   2.479 -0.4235  0.4824 -1.6197
   65CHL1    O3 5919   1.176   1.614   2.281  0.0377  0.1552 -0.3972
   65CHL1   H3' 5920   1.177   1.526   2.244 -1.5032 -0.3629  0.7487
   65CHL1    C4 5921   1.285   1.532   2.482  0.3414  0.0392  0.0894
   65CHL1   H4A 5922   1.317   1.440   2.429  0.3902 -1.0885  2.0383
   65CHL1   H4B 5923   1.364   1.610   2.478 -1.2428  1.6976  0.4334
   65CHL1    C5 5924   1.278   1.479   2.621 -0.2884  0.1623  0.6168
   65CHL1    C6 5925   1.357   1.541   2.711  0.1731 -0.1538 -0.1532
   65CHL1    H6 5926   1.421   1.623   2.675  1.3431 -0.0884  2.0030
   65CHL1    C7 5927   1.355   1.501   2.855  0.3324  0.9211 -0.2427
   65CHL1   H7A 5928   1.462   1.496   2.887  0.1215  1.2880  0.5246
   65CHL1   H7B 5929   1.307   1.590   2.900 -0.4608  0.3567  0.0364
   65CHL1    C8 5930   1.273   1.368   2.885  0.8108  0.4348 -0.3350
   65CHL1    H8 5931   1.330   1.278   2.854 -1.5336 -0.1282 -3.2485
   65CHL1   C14 5932   1.241   1.358   3.035  0.2944  0.2091 -0.8773
   65CHL1   H14 5933   1.177   1.448   3.048 -1.1381 -0.9498  0.2089
   65CHL1   C15 5934   1.346   1.380   3.142  0.5520  0.0042  0.3863
   65CHL1  H15A 5935   1.438   1.318   3.128  0.3871  0.4460 -3.0352
   65CHL1  H15B 5936   1.381   1.485   3.147 -0.3929  0.3014  0.8962
   65CHL1   C16 5937   1.285   1.334   3.273 -0.3904  0.4242  0.1246
   65CHL1  H16A 5938   1.355   1.267   3.327  0.8205  0.9926 -0.7271
   65CHL1  H16B 5939   1.253   1.402   3.355 -0.3467  1.5668 -0.8011
   65CHL1   C17 5940   1.155   1.263   3.228 -0.8735  0.4153  1.0580
   65CHL1   H17 5941   1.081   1.346   3.239 -1.2594  0.1723  0.2927
   65CHL1   C13 5942   1.156   1.237   3.074 -0.1053 -0.1365  0.6093
   65CHL1   C18 5943   1.237   1.105   3.061  0.3215 -0.5120 -0.0468
   65CHL1  H18A 5944   1.257   1.080   2.955  0.1106  2.0529 -0.7328
   65CHL1  H18B 5945   1.330   1.120   3.119  0.7413  1.4515 -1.1855
   65CHL1  H18C 5946   1.180   1.019   3.102  0.8616 -0.4654  0.8202
   65CHL1   C12 5947   1.022   1.231   2.995 -0.8923  0.0445 -0.7561
   65CHL1  H12A 5948   0.981   1.133   3.025  0.9897 -0.8506 -0.9932
   65CHL1  H12B 5949   0.955   1.314   3.027 -1.8035 -0.3394 -1.6423
   65CHL1   C11 5950   1.053   1.240   2.847 -0.4086 -0.3242 -0.1298
   65CHL1  H11A 5951   1.101   1.144   2.817  1.7452  0.7574 -0.2486
   65CHL1  H11B 5952   0.960   1.248   2.787  0.4660  1.8669 -1.2595
   65CHL1    C9 5953   1.138   1.365   2.805  0.1142  0.3411  0.1699
   65CHL1    H9 5954   1.078   1.455   2.828  1.2308  1.1222  0.0373
   65CHL1   C10 5955   1.160   1.378   2.652 -0.6078 -0.3218  0.4162
   65CHL1   C19 5956   1.201   1.241   2.595  0.3483  0.0432  0.1724
   65CHL1  H19A 5957   1.277   1.197   2.663  0.1974  0.1899  0.4363
   65CHL1  H19B 5958   1.118   1.167   2.600  1.2727 -1.0257 -0.0915
   65CHL1  H19C 5959   1.236   1.239   2.490 -2.7985 -0.6344 -0.9092
   65CHL1    C1 5960   1.028   1.421   2.580  0.3819 -0.6780 -0.0704
   65CHL1   H1A 5961   0.964   1.331   2.587  0.1182 -0.4938 -0.1128
   65CHL1   H1B 5962   0.978   1.500   2.640 -1.5119 -1.8369 -0.0712
   65CHL1    C2 5963   1.043   1.481   2.440  0.1300  0.1445  0.0135
   65CHL1   H2A 5964   0.946   1.521   2.403  1.0360  3.2808  0.8644
   65CHL1   H2B 5965   1.072   1.398   2.372 -2.6535  1.0287 -2.3736
   65CHL1   C20 5966   1.096   1.152   3.309 -0.3780  0.0496  0.0510
   65CHL1   H20 5967   1.035   1.078   3.253 -0.2920 -0.7893  1.0660
   65CHL1   C21 5968   1.001   1.215   3.418 -0.0936 -1.1470  0.5412
   65CHL1  H21A 5969   0.963   1.131   3.481 -1.5231 -1.4015 -0.6357
   65CHL1  H21B 5970   0.919   1.280   3.382  2.6695  1.0232 -2.0665
   65CHL1  H21C 5971   1.068   1.272   3.485  0.5370  2.6300 -3.1712
   65CHL1   C22 5972   1.192   1.068   3.393  0.0228  0.3172 -0.0028
   65CHL1  H22A 5973   1.291   1.057   3.345 -0.5649 -0.4401 -1.0829
   65CHL1  H22B 5974   1.202   1.116   3.493 -3.3474  0.0222  0.5551
   65CHL1   C23 5975   1.135   0.923   3.413  0.8188  0.6222  0.4328
   65CHL1  H23A 5976   1.029   0.925   3.446  0.5063  0.0790 -0.5084
   65CHL1  H23B 5977   1.131   0.877   3.311 -0.3799 -0.6711  1.0385
   65CHL1   C24 5978   1.213   0.829   3.500  0.4774  0.0774 -0.1575
   65CHL1  H24A 5979   1.136   0.751   3.516 -1.1041  1.8368  1.1246
   65CHL1  H24B 5980   1.291   0.797   3.428  2.4586  3.5526  0.3277
   65CHL1   C25 5981   1.278   0.893   3.623  0.0976 -0.2196  0.2746
   65CHL1   H25 5982   1.340   0.973   3.578 -2.2221  0.9411 -0.9382
   65CHL1   C26 5983   1.178   0.941   3.731  0.2393 -0.6118 -0.4538
   65CHL1  H26A 5984   1.119   0.855   3.770 -1.9296  1.0040 -0.0273
   65CHL1  H26B 5985   1.234   0.995   3.810  1.1340 -1.1490 -0.7100
   65CHL1  H26C 5986   1.105   1.013   3.688 -1.7813 -2.0885  0.3962
   65CHL1   C27 5987   1.372   0.796   3.699 -0.3850  0.1903 -0.3496
   65CHL1  H27A 5988   1.420   0.851   3.783  0.4858  1.8686 -1.9036
   65CHL1  H27B 5989   1.312   0.712   3.740 -0.2896  0.3125  0.0413
   65CHL1  H27C 5990   1.458   0.765   3.636 -0.3222  2.2025 -1.3076
   66CHL1    C3 5991   6.960   2.593   2.348  0.7701 -0.5570 -0.3964
   66CHL1    H3 5992   6.890   2.516   2.310  2.1015 -2.5871  1.1249
   66CHL1    O3 5993   7.035   2.649   2.239 -0.2136 -0.1303  0.4153
   66CHL1   H3' 5994   7.064   2.732   2.277  0.1586 -0.8462  1.7434
   66CHL1    C4 5995   6.887   2.713   2.407 -0.6152 -0.0532 -0.1295
   66CHL1   H4A 5996   6.959   2.798   2.412  0.5192 -0.8562 -2.1076
   66CHL1   H4B 5997   6.817   2.741   2.325 -0.2076 -0.4594 -0.6270
   66CHL1    C5 5998   6.821   2.677   2.542  0.4667 -0.1408  0.4600
   66CHL1    C6 5999   6.690   2.695   2.561  0.3921 -0.8153 -0.8055
   66CHL1    H6 6000   6.624   2.750   2.492 -1.1040  0.1472  1.3230
   66CHL1    C7 6001   6.633   2.660   2.695 -0.3852 -0.1403  1.1767
   66CHL1   H7A 6002   6.567   2.743   2.727 -0.7499 -0.1313  0.4043
   66CHL1   H7B 6003   6.572   2.571   2.670 -4.0697  2.1818  1.5507
   66CHL1    C8 6004   6.729   2.640   2.815  0.2002 -0.0368 -0.3250
   66CHL1    H8 6005   6.762   2.741   2.850  1.7002 -0.9334  0.9159
   66CHL1   C14 6006   6.657   2.577   2.926 -0.1774  0.0092  0.6314
   66CHL1   H14 6007   6.612   2.481   2.893 -1.3288  0.5288  0.6638
   66CHL1   C15 6008   6.536   2.652   2.971  0.0324  0.3570 -0.0472
   66CHL1  H15A 6009   6.567   2.758   2.957 -0.3391  0.5451  0.5157
   66CHL1  H15B 6010   6.447   2.623   2.912  0.8762 -0.9247 -0.7150
   66CHL1   C16 6011   6.517   2.599   3.114  0.1385 -0.4457 -0.1450
   66CHL1  H16A 6012   6.496   2.679   3.188 -0.3972  0.0126 -0.7809
   66CHL1  H16B 6013   6.416   2.551   3.121  0.6560 -1.2674  2.2776
   66CHL1   C17 6014   6.630   2.501   3.140  0.7386  0.5639 -0.5396
   66CHL1   H17 6015   6.591   2.400   3.113 -2.6002  1.5076  0.5172
   66CHL1   C13 6016   6.742   2.540   3.041  0.0018  1.1936 -0.1716
   66CHL1   C18 6017   6.808   2.669   3.098  0.5700 -0.7439 -0.4432
   66CHL1  H18A 6018   6.729   2.740   3.131  1.7116  0.3518  0.0328
   66CHL1  H18B 6019   6.860   2.644   3.193  2.3113 -1.9659 -1.7015
   66CHL1  H18C 6020   6.881   2.713   3.027  1.1096 -1.0364 -0.0798
   66CHL1   C12 6021   6.855   2.434   2.999  0.7794  0.4847 -0.7889
   66CHL1  H12A 6022   6.930   2.422   3.080 -0.5895 -1.4046  0.2250
   66CHL1  H12B 6023   6.807   2.337   2.975  0.2798 -0.0144  2.0703
   66CHL1   C11 6024   6.938   2.489   2.882  0.0589 -0.0065 -0.3203
   66CHL1  H11A 6025   6.998   2.577   2.916  0.7257 -0.8599  0.7743
   66CHL1  H11B 6026   7.014   2.413   2.853  2.0493  2.2345 -1.2394
   66CHL1    C9 6027   6.846   2.545   2.769 -0.5399  0.0311 -0.3472
   66CHL1    H9 6028   6.808   2.449   2.728  0.2658  0.7443 -2.9028
   66CHL1   C10 6029   6.914   2.609   2.648 -0.0532  1.0074  0.0278
   66CHL1   C19 6030   7.019   2.713   2.701  0.6183 -0.5848 -0.3092
   66CHL1  H19A 6031   6.964   2.791   2.758  0.1845  0.9385 -2.7379
   66CHL1  H19B 6032   7.094   2.659   2.763  0.7706 -2.9793 -2.4890
   66CHL1  H19C 6033   7.070   2.760   2.614  0.8029  0.2892  0.2613
   66CHL1    C1 6034   6.995   2.494   2.573 -0.2887  0.0263  0.2545
   66CHL1   H1A 6035   7.067   2.442   2.639 -1.3479 -1.2384  0.4538
   66CHL1   H1B 6036   6.923   2.416   2.540 -0.6009  0.0652  0.8386
   66CHL1    C2 6037   7.064   2.534   2.442  0.1267  0.0514  0.2091
   66CHL1   H2A 6038   7.106   2.441   2.399  0.2132  0.4556 -0.5906
   66CHL1   H2B 6039   7.150   2.604   2.452 -0.2849  0.3300  2.0827
   66CHL1   C20 6040   6.664   2.492   3.297  0.5770 -0.4804  0.2750
   66CHL1   H20 6041   6.696   2.594   3.327  2.5233 -0.9655 -0.0974
   66CHL1   C21 6042   6.776   2.394   3.310 -0.3649 -0.6572 -0.2301
   66CHL1  H21A 6043   6.762   2.292   3.269  1.1632 -0.4151 -1.3990
   66CHL1  H21B 6044   6.790   2.383   3.419 -1.3947  0.9851  0.0897
   66CHL1  H21C 6045   6.867   2.441   3.267 -2.0399  2.9050 -0.1072
   66CHL1   C22 6046   6.544   2.441   3.385 -0.0403  0.4959 -0.1202
   66CHL1  H22A 6047   6.451   2.492   3.353  0.6003  0.8797 -1.4150
   66CHL1  H22B 6048   6.526   2.331   3.377 -1.1081  0.6809 -0.2965
   66CHL1   C23 6049   6.558   2.462   3.540 -0.3165 -1.1603 -0.2727
   66CHL1  H23A 6050   6.643   2.405   3.582 -1.4019 -2.4294  0.2752
   66CHL1  H23B 6051   6.583   2.569   3.549  0.2768 -1.4867  2.4398
   66CHL1   C24 6052   6.431   2.417   3.614 -0.0151 -0.0740  0.3583
   66CHL1  H24A 6053   6.337   2.458   3.571 -1.1828 -3.5267 -0.5916
   66CHL1  H24B 6054   6.420   2.307   3.603  1.2497 -0.1154 -0.5626
   66CHL1   C25 6055   6.448   2.458   3.768 -0.3456  0.1556  0.1574
   66CHL1   H25 6056   6.450   2.568   3.778  2.3783  0.1552 -0.1785
   66CHL1   C26 6057   6.322   2.415   3.850 -0.5483  0.2988 -0.1857
   66CHL1  H26A 6058   6.300   2.310   3.820  1.4427 -0.4518  0.8660
   66CHL1  H26B 6059   6.346   2.416   3.958 -1.3040 -1.9244  0.0338
   66CHL1  H26C 6060   6.234   2.482   3.843 -0.2354  0.6352 -0.9438
   66CHL1   C27 6061   6.568   2.407   3.842  0.4340 -0.1245 -0.2152
   66CHL1  H27A 6062   6.561   2.296   3.842 -1.8522 -0.0161 -1.5250
   66CHL1  H27B 6063   6.570   2.452   3.944  1.2744  3.6800 -1.8602
   66CHL1  H27C 6064   6.663   2.438   3.793  1.5686 -1.5610  0.9877
   67CHL1    C3 6065   4.641   6.991   2.222 -0.6450  0.4220 -0.3258
   67CHL1    H3 6066   4.680   7.095   2.228 -0.2848  0.2329  0.5913
   67CHL1    O3 6067   4.653   6.939   2.091  0.1873 -0.0423  0.1785
   67CHL1   H3' 6068   4.676   6.846   2.097  1.8791  0.1331 -2.8909
   67CHL1    C4 6069   4.714   6.901   2.321  0.2336  0.6612 -0.2617
   67CHL1   H4A 6070   4.679   6.799   2.293  0.6149 -0.2078  2.3017
   67CHL1   H4B 6071   4.824   6.906   2.308  0.1909  0.4429 -0.7156
   67CHL1    C5 6072   4.673   6.923   2.468  0.0965  0.2181 -0.6236
   67CHL1    C6 6073   4.772   6.939   2.556  0.1345  0.0448  0.1951
   67CHL1    H6 6074   4.872   6.908   2.522  0.9608  1.1563  1.5222
   67CHL1    C7 6075   4.753   6.967   2.701 -0.6285 -0.0829  0.0663
   67CHL1   H7A 6076   4.802   6.885   2.758 -0.6290 -0.3381 -0.3014
   67CHL1   H7B 6077   4.775   7.071   2.733  2.1028 -0.5083 -0.3231
   67CHL1    C8 6078   4.602   6.946   2.742  0.5240 -0.0609  0.2144
   67CHL1    H8 6079   4.575   6.838   2.742  1.0164 -0.2119 -1.8126
   67CHL1   C14 6080   4.576   6.999   2.880  0.2915 -0.8667  0.4572
   67CHL1   H14 6081   4.592   7.108   2.867 -0.5905 -0.7616  0.2204
   67CHL1   C15 6082   4.664   6.951   2.997 -0.5847 -0.7273 -0.0556
   67CHL1  H15A 6083   4.647   6.842   3.000 -1.0063 -0.6546  0.3552
   67CHL1  H15B 6084   4.772   6.978   2.999 -0.9019  0.7510 -1.4181
   67CHL1   C16 6085   4.593   7.001   3.118  0.4844 -0.5354 -0.6562
   67CHL1  H16A 6086   4.578   6.910   3.181 -0.0438  0.5296  0.7998
   67CHL1  H16B 6087   4.659   7.070   3.176  1.6507 -2.2754  0.1330
   67CHL1   C17 6088   4.455   7.058   3.076  0.0426 -0.1448 -0.3243
   67CHL1   H17 6089   4.472   7.167   3.066  0.4621 -0.1131  0.7373
   67CHL1   C13 6090   4.433   6.994   2.937 -0.5097 -0.0682  0.0835
   67CHL1   C18 6091   4.386   6.843   2.949 -0.2353 -1.0057  0.2784
   67CHL1  H18A 6092   4.414   6.777   2.864 -1.5295 -1.3594  0.1252
   67CHL1  H18B 6093   4.428   6.787   3.035  1.6462 -0.6795 -0.4042
   67CHL1  H18C 6094   4.276   6.838   2.960 -0.5828  2.4877 -0.8913
   67CHL1   C12 6095   4.345   7.074   2.837  0.3562 -0.2330  0.2571
   67CHL1  H12A 6096   4.242   7.064   2.877 -0.0271 -1.1585 -0.9275
   67CHL1  H12B 6097   4.371   7.182   2.841  1.2300 -0.4281  0.0741
   67CHL1   C11 6098   4.358   7.022   2.689 -0.3601  0.3199  0.9791
   67CHL1  H11A 6099   4.303   6.926   2.692  3.6414 -2.1396 -0.5705
   67CHL1  H11B 6100   4.308   7.098   2.624  0.3686  0.8711  1.0588
   67CHL1    C9 6101   4.506   7.012   2.635 -0.7054 -0.1625 -0.0140
   67CHL1    H9 6102   4.542   7.116   2.630 -0.6666 -0.1018  1.3707
   67CHL1   C10 6103   4.523   6.957   2.493 -0.2178  0.0090 -0.6019
   67CHL1   C19 6104   4.440   6.827   2.481  0.2033  0.7043  0.2043
   67CHL1  H19A 6105   4.482   6.765   2.399  1.8951 -0.4643  1.9194
   67CHL1  H19B 6106   4.457   6.770   2.575 -0.9545  0.3260  0.1884
   67CHL1  H19C 6107   4.332   6.850   2.467  0.2030  0.5028 -0.1337
   67CHL1    C1 6108   4.468   7.053   2.391 -0.2628  0.0482 -0.2975
   67CHL1   H1A 6109   4.362   7.081   2.408  0.0535 -0.0513  1.9655
   67CHL1   H1B 6110   4.520   7.151   2.385  0.8156 -0.4287  1.0339
   67CHL1    C2 6111   4.489   7.004   2.247 -0.0409  0.2826 -0.0180
   67CHL1   H2A 6112   4.446   7.087   2.187  0.2563  2.3676  2.5342
   67CHL1   H2B 6113   4.430   6.913   2.228 -0.3828  0.1719  1.4934
   67CHL1   C20 6114   4.351   7.029   3.187 -0.1397 -0.0326 -0.9514
   67CHL1   H20 6115   4.345   6.919   3.200  1.0831  0.2228  2.3766
   67CHL1   C21 6116   4.212   7.076   3.144  0.3651 -0.6649  0.0731
   67CHL1  H21A 6117   4.222   7.177   3.099 -0.8144  0.1647  1.6366
   67CHL1  H21B 6118   4.140   7.078   3.229  0.1352 -0.2367 -0.1296
   67CHL1  H21C 6119   4.161   7.015   3.067 -1.0713 -0.0164  0.4937
   67CHL1   C22 6120   4.374   7.085   3.329 -0.3068 -0.7416 -0.0075
   67CHL1  H22A 6121   4.482   7.111   3.336 -0.7066  0.9227  0.3097
   67CHL1  H22B 6122   4.325   7.185   3.327 -0.2390 -0.7052  0.1317
   67CHL1   C23 6123   4.338   6.980   3.433 -0.1585 -0.8094  0.4798
   67CHL1  H23A 6124   4.227   6.993   3.431  0.0541  1.0341 -0.6881
   67CHL1  H23B 6125   4.372   6.882   3.394 -2.0837 -0.9527 -0.9042
   67CHL1   C24 6126   4.396   7.010   3.579 -0.4089 -0.5703  0.4490
   67CHL1  H24A 6127   4.505   7.025   3.572 -0.3052 -1.1861  0.7502
   67CHL1  H24B 6128   4.351   7.104   3.618 -0.4059 -0.6780  0.7115
   67CHL1   C25 6129   4.359   6.889   3.671  0.2951  0.0881  0.6034
   67CHL1   H25 6130   4.248   6.882   3.666  0.3064 -1.5175  2.1192
   67CHL1   C26 6131   4.433   6.757   3.635 -0.0347  0.8117  0.1162
   67CHL1  H26A 6132   4.443   6.703   3.731 -1.5906  1.2192  0.5304
   67CHL1  H26B 6133   4.376   6.693   3.564  0.4266  0.9496 -0.3781
   67CHL1  H26C 6134   4.534   6.781   3.595 -1.3970  4.4936 -1.3451
   67CHL1   C27 6135   4.387   6.921   3.821  0.3560 -0.1746  0.5445
   67CHL1  H27A 6136   4.355   6.831   3.878  0.7905 -0.1198  0.8733
   67CHL1  H27B 6137   4.492   6.951   3.842 -0.5779  2.7697  1.3727
   67CHL1  H27C 6138   4.322   7.007   3.849  0.1421  0.7910 -2.6664
   68CHL1    C3 6139   2.435   7.020   2.164 -0.3142  0.2329  0.4830
   68CHL1    H3 6140   2.420   6.910   2.174 -2.0070  0.5391  1.5501
   68CHL1    O3 6141   2.440   7.056   2.026  0.7170  0.3703 -0.2919
   68CHL1   H3' 6142   2.469   7.146   2.041 -0.0006  0.3017  1.5900
   68CHL1    C4 6143   2.319   7.103   2.226 -0.6334 -0.7128 -0.3676
   68CHL1   H4A 6144   2.341   7.209   2.199  0.5617 -0.9846 -0.5184
   68CHL1   H4B 6145   2.223   7.089   2.172 -0.1721 -0.3267 -1.3118
   68CHL1    C5 6146   2.318   7.068   2.372  0.5022  0.5918 -0.2423
   68CHL1    C6 6147   2.213   7.000   2.418  0.5481 -0.2730  0.5298
   68CHL1    H6 6148   2.129   6.971   2.352 -1.4939  1.5401  2.2394
   68CHL1    C7 6149   2.203   6.971   2.560 -0.7072  0.4389 -0.1188
   68CHL1   H7A 6150   2.100   6.988   2.598  0.3520  1.3352  2.4608
   68CHL1   H7B 6151   2.225   6.862   2.572  1.6596  0.7880 -1.0241
   68CHL1    C8 6152   2.296   7.051   2.652  0.8373  0.0541  0.1345
   68CHL1    H8 6153   2.262   7.157   2.652 -0.7961 -0.4627  0.1395
   68CHL1   C14 6154   2.306   6.992   2.790 -0.0255  0.8298  0.3182
   68CHL1   H14 6155   2.357   6.894   2.774  0.2048  0.6421  2.0244
   68CHL1   C15 6156   2.174   6.978   2.863 -0.2531  0.6237 -0.5764
   68CHL1  H15A 6157   2.116   7.071   2.848  0.7213  1.3306 -0.0238
   68CHL1  H15B 6158   2.111   6.902   2.811 -0.2249 -0.6166  1.1357
   68CHL1   C16 6159   2.209   6.962   3.008  0.1308 -0.0808  0.2995
   68CHL1  H16A 6160   2.139   7.016   3.076  2.7007  0.3109  2.7663
   68CHL1  H16B 6161   2.216   6.854   3.034  1.1001  0.1462  1.0382
   68CHL1   C17 6162   2.354   7.016   3.028  0.0033  0.2585 -0.4868
   68CHL1   H17 6163   2.420   6.927   3.038 -1.0410 -0.4486  0.2424
   68CHL1   C13 6164   2.390   7.077   2.882  0.1255 -0.0382 -0.1640
   68CHL1   C18 6165   2.327   7.218   2.901  0.1540  0.0847  0.2457
   68CHL1  H18A 6166   2.239   7.223   2.969  1.4214  1.1780  1.8410
   68CHL1  H18B 6167   2.407   7.288   2.932  0.6879 -0.5562  0.3220
   68CHL1  H18C 6168   2.291   7.258   2.804  0.6803  1.4446  0.6053
   68CHL1   C12 6169   2.538   7.084   2.839 -0.0645 -0.9323 -0.5272
   68CHL1  H12A 6170   2.611   7.144   2.898 -0.5972 -1.4640  0.6829
   68CHL1  H12B 6171   2.565   6.976   2.843  1.3216 -0.5393  2.0713
   68CHL1   C11 6172   2.544   7.129   2.691  0.1672 -0.0081  0.0643
   68CHL1  H11A 6173   2.516   7.235   2.710  3.4455  0.5490  2.2179
   68CHL1  H11B 6174   2.649   7.122   2.655  0.0529  0.4998 -0.3745
   68CHL1    C9 6175   2.439   7.049   2.595 -0.6930 -0.0012 -0.4105
   68CHL1    H9 6176   2.473   6.944   2.585 -0.3465  0.0428  0.2505
   68CHL1   C10 6177   2.441   7.102   2.450  0.3659 -0.8411  0.2675
   68CHL1   C19 6178   2.435   7.259   2.460 -0.1538 -0.2117 -0.0898
   68CHL1  H19A 6179   2.515   7.305   2.522 -0.7154  1.7824 -0.7825
   68CHL1  H19B 6180   2.447   7.309   2.362 -0.1096  1.3895  0.7025
   68CHL1  H19C 6181   2.343   7.296   2.512  1.2426 -0.1220  2.4330
   68CHL1    C1 6182   2.564   7.046   2.376 -0.6822 -0.5545 -0.3076
   68CHL1   H1A 6183   2.659   7.086   2.419 -1.0760 -0.0117  0.0723
   68CHL1   H1B 6184   2.575   6.938   2.400  1.0240 -0.0933  1.1338
   68CHL1    C2 6185   2.568   7.061   2.220 -1.1279  0.3790 -0.6636
   68CHL1   H2A 6186   2.655   6.997   2.192 -1.7083 -0.6656 -0.1369
   68CHL1   H2B 6187   2.596   7.164   2.190  2.3189  0.3726  2.2218
   68CHL1   C20 6188   2.386   7.095   3.157 -0.2038 -0.1050  0.1628
   68CHL1   H20 6189   2.334   7.193   3.156  0.5487  0.2889 -0.2063
   68CHL1   C21 6190   2.538   7.121   3.169  0.0160  1.1342 -0.5913
   68CHL1  H21A 6191   2.564   7.215   3.115 -0.8976  1.8455  0.1851
   68CHL1  H21B 6192   2.590   7.033   3.126  3.7009  2.9376  0.0052
   68CHL1  H21C 6193   2.575   7.132   3.273 -0.3655 -0.1806 -0.3061
   68CHL1   C22 6194   2.342   7.018   3.285  0.1814  0.2265  0.3199
   68CHL1  H22A 6195   2.239   6.980   3.269  0.2674 -0.0324  0.3883
   68CHL1  H22B 6196   2.398   6.924   3.300 -1.4112 -0.5805  1.2533
   68CHL1   C23 6197   2.333   7.085   3.416  0.5331 -0.0482 -0.0083
   68CHL1  H23A 6198   2.439   7.100   3.448  1.0911 -1.6888 -1.0200
   68CHL1  H23B 6199   2.294   7.189   3.403  0.9222  0.2938  1.4919
   68CHL1   C24 6200   2.259   7.016   3.531  0.3643  0.4139 -0.0064
   68CHL1  H24A 6201   2.149   7.027   3.532  0.0797 -1.5270 -3.1028
   68CHL1  H24B 6202   2.283   6.908   3.515  0.2756  0.3091  0.5456
   68CHL1   C25 6203   2.310   7.054   3.670 -0.1987 -0.6648  0.0066
   68CHL1   H25 6204   2.420   7.069   3.678 -0.2151 -0.1757 -0.7031
   68CHL1   C26 6205   2.250   7.192   3.718 -0.4999 -0.1089  0.7501
   68CHL1  H26A 6206   2.139   7.195   3.723 -0.4362  0.9208  1.6160
   68CHL1  H26B 6207   2.302   7.228   3.809 -0.8145  0.4422  0.7156
   68CHL1  H26C 6208   2.274   7.268   3.640 -1.1343 -0.5269  0.1454
   68CHL1   C27 6209   2.298   6.940   3.776  0.4330  0.3536  0.0461
   68CHL1  H27A 6210   2.364   6.857   3.745  0.3566 -1.7860  5.0560
   68CHL1  H27B 6211   2.334   6.973   3.876  3.7771  0.4869 -1.1650
   68CHL1  H27C 6212   2.192   6.905   3.781  0.1537  1.4629  2.6250
   69CHL1    C3 6213   5.537   6.718   2.239 -0.1164 -0.5470 -0.2660
   69CHL1    H3 6214   5.577   6.616   2.255 -2.7068 -1.4411  0.6798
   69CHL1    O3 6215   5.523   6.732   2.096  0.2346 -0.1711  0.1938
   69CHL1   H3' 6216   5.556   6.649   2.061  1.1262 -0.2432  1.1718
   69CHL1    C4 6217   5.404   6.740   2.309 -0.2800 -0.4966  0.0354
   69CHL1   H4A 6218   5.360   6.836   2.274 -1.7503 -0.9381  0.6494
   69CHL1   H4B 6219   5.331   6.664   2.274 -0.3227 -0.6640  0.4886
   69CHL1    C5 6220   5.426   6.736   2.458 -0.2089 -0.5570  0.3800
   69CHL1    C6 6221   5.359   6.648   2.532 -0.0527  0.5167 -0.4619
   69CHL1    H6 6222   5.289   6.579   2.483 -0.6389  2.9460 -3.2141
   69CHL1    C7 6223   5.374   6.640   2.679  0.1065 -0.1874 -0.3722
   69CHL1   H7A 6224   5.277   6.625   2.732 -0.4715 -0.4433 -1.4900
   69CHL1   H7B 6225   5.443   6.561   2.716 -1.5503 -1.2312  0.5693
   69CHL1    C8 6226   5.442   6.772   2.743  0.5095  0.1258 -0.7082
   69CHL1    H8 6227   5.367   6.854   2.735 -0.1937 -0.4331  0.1081
   69CHL1   C14 6228   5.488   6.760   2.886  0.0567  0.0554  0.0968
   69CHL1   H14 6229   5.581   6.698   2.891  1.3383  2.0373  1.3920
   69CHL1   C15 6230   5.387   6.691   2.980  0.0951  0.2359  0.0970
   69CHL1  H15A 6231   5.287   6.730   2.953  0.7117  1.2679 -0.7310
   69CHL1  H15B 6232   5.394   6.581   2.995  3.0360  0.6434  2.1491
   69CHL1   C16 6233   5.428   6.746   3.118 -0.5008  0.0605  0.5918
   69CHL1  H16A 6234   5.342   6.800   3.163 -0.7597 -1.9523  2.6052
   69CHL1  H16B 6235   5.435   6.666   3.194  1.9662 -0.3182 -0.0055
   69CHL1   C17 6236   5.554   6.834   3.096  0.3708 -0.2535  0.3459
   69CHL1   H17 6237   5.628   6.752   3.087 -0.1083 -0.6179 -0.3664
   69CHL1   C13 6238   5.528   6.887   2.954  0.2763  0.8233 -0.0314
   69CHL1   C18 6239   5.422   6.994   2.947 -1.4018 -0.1232 -0.0502
   69CHL1  H18A 6240   5.327   6.961   2.993 -2.1366  1.9554 -0.0433
   69CHL1  H18B 6241   5.447   7.085   3.006  0.2602  0.1723 -1.1630
   69CHL1  H18C 6242   5.391   7.022   2.844 -0.3623 -0.4996 -0.4705
   69CHL1   C12 6243   5.660   6.927   2.882 -0.3926  0.5867  0.3289
   69CHL1  H12A 6244   5.699   7.025   2.916  2.7512 -0.5775  0.2390
   69CHL1  H12B 6245   5.735   6.849   2.907 -0.1203  0.2780 -1.3974
   69CHL1   C11 6246   5.638   6.935   2.733  0.8825  0.1342 -0.6093
   69CHL1  H11A 6247   5.578   7.026   2.712  0.4739  0.0267  0.0722
   69CHL1  H11B 6248   5.737   6.945   2.683  2.0198 -1.1347  1.3114
   69CHL1    C9 6249   5.569   6.813   2.671 -0.1749  0.2923 -0.2782
   69CHL1    H9 6250   5.632   6.722   2.683  3.0004  2.2704 -1.4031
   69CHL1   C10 6251   5.530   6.834   2.519  0.1179 -0.7148 -0.2636
   69CHL1   C19 6252   5.458   6.969   2.503  0.4079  0.2638 -0.4752
   69CHL1  H19A 6253   5.418   6.984   2.400 -1.3424 -0.0824  0.1350
   69CHL1  H19B 6254   5.369   6.974   2.569  1.0406 -1.2335  0.5361
   69CHL1  H19C 6255   5.528   7.054   2.515  0.2828  0.3018 -0.0454
   69CHL1    C1 6256   5.661   6.828   2.439 -0.1389  0.9725  0.1196
   69CHL1   H1A 6257   5.729   6.914   2.459  1.7105 -0.3855 -0.1524
   69CHL1   H1B 6258   5.719   6.737   2.466  1.0547  2.1040  1.5139
   69CHL1    C2 6259   5.644   6.817   2.283 -0.0708 -0.5176 -0.2261
   69CHL1   H2A 6260   5.742   6.789   2.240 -0.2105 -2.7915  0.8635
   69CHL1   H2B 6261   5.617   6.917   2.243  2.6302  0.2502 -0.1865
   69CHL1   C20 6262   5.592   6.936   3.201  0.3159 -0.5152  0.0142
   69CHL1   H20 6263   5.558   7.034   3.163 -0.7551 -1.5225 -1.6873
   69CHL1   C21 6264   5.739   6.931   3.222 -1.0187 -0.1160 -0.4659
   69CHL1  H21A 6265   5.785   6.957   3.124  0.5491  0.7677  0.4967
   69CHL1  H21B 6266   5.771   6.828   3.250  0.6359  0.2647 -0.9344
   69CHL1  H21C 6267   5.765   7.014   3.290  0.9643  0.3847 -1.8134
   69CHL1   C22 6268   5.519   6.906   3.341 -0.2758 -0.2447 -0.5443
   69CHL1  H22A 6269   5.409   6.905   3.326 -0.5586 -1.2691  1.4228
   69CHL1  H22B 6270   5.555   6.803   3.364  3.0247  0.7329 -1.1978
   69CHL1   C23 6271   5.553   7.005   3.454  0.3702 -0.1992 -0.0481
   69CHL1  H23A 6272   5.662   6.998   3.474  0.3671 -0.0815  0.0103
   69CHL1  H23B 6273   5.522   7.107   3.421 -1.0044 -1.0182 -1.3447
   69CHL1   C24 6274   5.497   6.970   3.588 -0.6228  1.1437 -0.0016
   69CHL1  H24A 6275   5.544   6.882   3.638 -1.5078  0.3861 -0.4828
   69CHL1  H24B 6276   5.521   7.054   3.656  1.4186  0.4107  0.2458
   69CHL1   C25 6277   5.344   6.966   3.591 -1.1160 -0.0535 -0.1944
   69CHL1   H25 6278   5.323   6.882   3.521 -0.9004 -0.8301  0.6500
   69CHL1   C26 6279   5.298   6.939   3.733  0.0009 -0.0536 -0.5788
   69CHL1  H26A 6280   5.340   6.847   3.778 -0.2058 -0.5109 -1.3147
   69CHL1  H26B 6281   5.322   7.019   3.806  1.0204 -0.5338 -0.3831
   69CHL1  H26C 6282   5.187   6.928   3.735 -0.0499  0.3017 -1.5624
   69CHL1   C27 6283   5.287   7.094   3.527  0.3516 -0.0977  0.2540
   69CHL1  H27A 6284   5.322   7.185   3.579  1.3892  1.2170 -2.6687
   69CHL1  H27B 6285   5.315   7.096   3.420 -1.0031 -0.5065 -0.1289
   69CHL1  H27C 6286   5.176   7.089   3.534  0.1080  2.0706 -1.5311
   70CHL1    C3 6287   1.532   0.498   2.330  0.5245  0.4001  0.4567
   70CHL1    H3 6288   1.434   0.458   2.364  0.5665 -1.3753 -1.4198
   70CHL1    O3 6289   1.551   0.503   2.186 -0.4771 -0.0204  0.3863
   70CHL1   H3' 6290   1.554   0.413   2.154  2.4257 -0.7261  2.4784
   70CHL1    C4 6291   1.533   0.649   2.378 -0.4829  0.1866  0.6720
   70CHL1   H4A 6292   1.636   0.687   2.361 -1.0322  1.1097 -0.6806
   70CHL1   H4B 6293   1.455   0.705   2.322 -1.8487 -0.5343  1.8338
   70CHL1    C5 6294   1.505   0.642   2.531  0.7444 -0.0449  1.1436
   70CHL1    C6 6295   1.395   0.698   2.582  0.2504 -0.0220  0.1293
   70CHL1    H6 6296   1.328   0.751   2.513  1.6172  0.6825 -0.6769
   70CHL1    C7 6297   1.370   0.713   2.736 -0.0024  0.3981  0.2853
   70CHL1   H7A 6298   1.330   0.809   2.772  1.7666  2.0092 -1.8641
   70CHL1   H7B 6299   1.301   0.630   2.763  3.1664 -1.8909  1.7098
   70CHL1    C8 6300   1.497   0.687   2.816 -0.6818  0.6012  0.3625
   70CHL1    H8 6301   1.551   0.784   2.807 -2.1479  1.2637 -1.4045
   70CHL1   C14 6302   1.465   0.676   2.955  0.3214 -0.4371 -0.3319
   70CHL1   H14 6303   1.397   0.589   2.968 -2.0747  1.5261  0.6543
   70CHL1   C15 6304   1.389   0.787   3.028  0.3170 -0.0029  0.3281
   70CHL1  H15A 6305   1.430   0.890   3.025  0.4662  0.0575  3.0233
   70CHL1  H15B 6306   1.281   0.796   3.002  0.8336  0.2926 -1.8507
   70CHL1   C16 6307   1.406   0.759   3.181 -0.0809 -0.0375  0.5729
   70CHL1  H16A 6308   1.431   0.853   3.234  1.9283 -0.3331  0.1914
   70CHL1  H16B 6309   1.311   0.728   3.229 -1.3662  0.4253 -1.5927
   70CHL1   C17 6310   1.521   0.649   3.186  0.3377  0.7204  0.4863
   70CHL1   H17 6311   1.463   0.555   3.200 -0.3597  1.2500  1.2178
   70CHL1   C13 6312   1.584   0.641   3.046 -0.8574  0.7798  0.6740
   70CHL1   C18 6313   1.699   0.753   3.039  0.2088 -0.1084 -0.1124
   70CHL1  H18A 6314   1.726   0.774   2.933 -1.1554 -0.7580 -0.6092
   70CHL1  H18B 6315   1.656   0.850   3.072 -1.4905 -1.3623  1.4323
   70CHL1  H18C 6316   1.786   0.712   3.092 -0.7388 -1.3466  0.4928
   70CHL1   C12 6317   1.644   0.509   2.999  0.2727  0.1509 -0.7639
   70CHL1  H12A 6318   1.732   0.483   3.062  0.1593  2.5904  0.4563
   70CHL1  H12B 6319   1.567   0.432   3.021 -0.4088  0.3252 -2.4785
   70CHL1   C11 6320   1.689   0.517   2.855  0.1102 -0.1077 -0.2119
   70CHL1  H11A 6321   1.766   0.598   2.853  0.6599 -0.5982  0.6436
   70CHL1  H11B 6322   1.736   0.420   2.829 -0.8242 -0.6079 -0.0336
   70CHL1    C9 6323   1.579   0.561   2.760  0.1371 -0.0949  0.1775
   70CHL1    H9 6324   1.500   0.484   2.776  0.3885 -0.3406  0.2330
   70CHL1   C10 6325   1.615   0.574   2.611  0.3452  0.1974  0.3228
   70CHL1   C19 6326   1.750   0.651   2.611 -0.6812 -0.4126  0.4284
   70CHL1  H19A 6327   1.743   0.752   2.657  1.5429  0.5344 -1.2026
   70CHL1  H19B 6328   1.834   0.594   2.656  1.2789  1.1006 -1.1832
   70CHL1  H19C 6329   1.787   0.675   2.509  0.3703 -1.0840  0.6476
   70CHL1    C1 6330   1.640   0.431   2.559 -0.0076  0.7520  0.3297
   70CHL1   H1A 6331   1.732   0.391   2.605  1.0626 -0.1796 -2.5606
   70CHL1   H1B 6332   1.562   0.365   2.602 -1.8612  1.6270 -1.5867
   70CHL1    C2 6333   1.653   0.422   2.403  0.5768 -0.1037 -0.3716
   70CHL1   H2A 6334   1.648   0.317   2.367  1.9769 -0.2529 -0.1633
   70CHL1   H2B 6335   1.747   0.470   2.370  0.4995  0.8989  0.8249
   70CHL1   C20 6336   1.623   0.651   3.300  0.4457 -0.1412 -0.1963
   70CHL1   H20 6337   1.722   0.610   3.272  1.0656  0.6380  0.8621
   70CHL1   C21 6338   1.567   0.557   3.411  0.0739  0.3240  0.1503
   70CHL1  H21A 6339   1.637   0.558   3.497 -1.7431 -1.7544  1.6959
   70CHL1  H21B 6340   1.550   0.454   3.374 -0.0471  0.4102 -0.0371
   70CHL1  H21C 6341   1.478   0.595   3.465  0.7535 -1.1917  2.4024
   70CHL1   C22 6342   1.651   0.794   3.359 -0.3354  0.2592  0.3233
   70CHL1  H22A 6343   1.689   0.866   3.283 -0.8046  0.2605  0.0892
   70CHL1  H22B 6344   1.558   0.837   3.403 -0.9877 -0.1187 -0.6625
   70CHL1   C23 6345   1.763   0.782   3.465 -0.1639 -0.0642  0.1198
   70CHL1  H23A 6346   1.741   0.709   3.545 -0.9550 -0.1717 -0.1870
   70CHL1  H23B 6347   1.849   0.742   3.406 -1.0334  1.5561 -2.3714
   70CHL1   C24 6348   1.801   0.910   3.535  0.4812  0.3741  0.2859
   70CHL1  H24A 6349   1.852   0.985   3.470  1.2488 -0.0229  0.4185
   70CHL1  H24B 6350   1.706   0.952   3.574  0.4484 -1.1328  1.8565
   70CHL1   C25 6351   1.909   0.891   3.647  0.3255  0.2244  0.1800
   70CHL1   H25 6352   1.991   0.833   3.599  0.3181 -0.0751  0.5287
   70CHL1   C26 6353   1.977   1.027   3.682 -0.3446 -0.0670 -0.8260
   70CHL1  H26A 6354   1.922   1.091   3.755  0.3906  1.5520 -1.6638
   70CHL1  H26B 6355   2.074   1.005   3.731 -1.8599 -1.6311  1.6206
   70CHL1  H26C 6356   2.001   1.090   3.593 -0.0081  2.7059  1.1451
   70CHL1   C27 6357   1.864   0.826   3.769  0.5333  0.0903 -0.6325
   70CHL1  H27A 6358   1.783   0.889   3.811  0.5078  0.4353 -1.1922
   70CHL1  H27B 6359   1.812   0.729   3.754 -0.5395  0.5271  0.2344
   70CHL1  H27C 6360   1.940   0.822   3.851 -0.7894 -2.2104  0.5108
   71CHL1    C3 6361   0.102   1.995   2.221 -0.1864  0.1895 -0.2850
   71CHL1    H3 6362   0.195   1.953   2.263  0.6394  0.7446 -1.5338
   71CHL1    O3 6363   0.122   2.022   2.087 -0.1276 -0.2099  0.1388
   71CHL1   H3' 6364   0.032   2.046   2.063 -0.0502 -0.9373 -0.8862
   71CHL1    C4 6365  -0.015   1.888   2.252 -0.3346  0.3069 -0.5248
   71CHL1   H4A 6366  -0.111   1.924   2.210 -0.7864 -0.4181 -0.1231
   71CHL1   H4B 6367   0.000   1.791   2.201  0.9542 -0.6121  1.5237
   71CHL1    C5 6368  -0.029   1.878   2.404  0.6438 -0.0982 -0.0689
   71CHL1    C6 6369  -0.031   1.758   2.466 -0.7697  0.6691 -0.1960
   71CHL1    H6 6370  -0.010   1.667   2.408  2.3706  1.3691 -0.2608
   71CHL1    C7 6371  -0.061   1.734   2.612  0.4109 -0.2595  0.5108
   71CHL1   H7A 6372  -0.143   1.660   2.626 -1.7902  1.7249 -1.5586
   71CHL1   H7B 6373   0.033   1.704   2.664  1.0116  1.3189  0.3497
   71CHL1    C8 6374  -0.117   1.859   2.680 -0.0344  0.5115 -0.3098
   71CHL1    H8 6375  -0.227   1.857   2.665 -0.3961 -1.4514  2.1679
   71CHL1   C14 6376  -0.094   1.854   2.835  0.3530  0.0278 -0.4659
   71CHL1   H14 6377   0.015   1.859   2.855  0.0815 -0.9587  1.3588
   71CHL1   C15 6378  -0.139   1.733   2.911 -0.4299 -0.7036 -0.2169
   71CHL1  H15A 6379  -0.226   1.675   2.873 -2.3544  1.6130  0.5469
   71CHL1  H15B 6380  -0.061   1.654   2.902  1.4424  0.8149  2.0285
   71CHL1   C16 6381  -0.160   1.781   3.060  0.1307 -0.1724  0.1175
   71CHL1  H16A 6382  -0.267   1.762   3.083  0.0014  0.8382  0.3515
   71CHL1  H16B 6383  -0.094   1.727   3.132  0.4767 -0.4938 -0.4379
   71CHL1   C17 6384  -0.122   1.938   3.061  0.0421  0.3463  0.1797
   71CHL1   H17 6385  -0.012   1.938   3.075  0.2752  0.1551 -1.5319
   71CHL1   C13 6386  -0.153   1.973   2.915  0.6046  0.5562 -0.3596
   71CHL1   C18 6387  -0.304   1.972   2.899 -0.3941 -0.0653  0.3953
   71CHL1  H18A 6388  -0.344   1.869   2.909  0.7326 -0.6020 -0.4387
   71CHL1  H18B 6389  -0.362   2.039   2.966 -1.5464 -1.4757  0.8168
   71CHL1  H18C 6390  -0.334   1.997   2.795  2.8829 -3.2895 -1.4268
   71CHL1   C12 6391  -0.095   2.106   2.863  0.1673 -0.1817  0.3039
   71CHL1  H12A 6392  -0.147   2.187   2.919  0.5575 -0.8337  1.6422
   71CHL1  H12B 6393   0.010   2.117   2.901 -0.3479  0.1860  1.6638
   71CHL1   C11 6394  -0.107   2.113   2.712 -0.0616 -0.6749  0.0079
   71CHL1  H11A 6395  -0.214   2.132   2.687  0.7869  2.8969 -1.1713
   71CHL1  H11B 6396  -0.044   2.202   2.690  0.3300 -1.5643 -2.6170
   71CHL1    C9 6397  -0.049   1.991   2.632  0.0301  0.7711  0.7504
   71CHL1    H9 6398   0.058   1.984   2.660  0.3509 -1.0855 -0.8461
   71CHL1   C10 6399  -0.051   2.015   2.477  0.0521 -0.0689  0.0710
   71CHL1   C19 6400  -0.194   2.072   2.428 -0.6588 -0.0377 -0.2171
   71CHL1  H19A 6401  -0.208   2.179   2.456  3.4111  0.5697 -0.2197
   71CHL1  H19B 6402  -0.199   2.083   2.317 -2.5487  0.0296 -0.1448
   71CHL1  H19C 6403  -0.282   2.009   2.453  1.1310 -2.0403  1.1850
   71CHL1    C1 6404   0.067   2.108   2.442 -0.3101  0.6050 -0.0636
   71CHL1   H1A 6405   0.047   2.205   2.492 -1.8208  0.2335  0.0817
   71CHL1   H1B 6406   0.158   2.065   2.488 -1.7374 -1.0693  1.2517
   71CHL1    C2 6407   0.079   2.125   2.289  0.8914 -0.3666 -0.2933
   71CHL1   H2A 6408   0.162   2.195   2.267  0.2794  0.7891  1.0199
   71CHL1   H2B 6409  -0.011   2.171   2.245  1.2731  3.1504  2.3951
   71CHL1   C20 6410  -0.180   2.018   3.180 -0.5263  0.1734 -0.2382
   71CHL1   H20 6411  -0.273   2.058   3.133  0.0541  0.1214 -1.4430
   71CHL1   C21 6412  -0.076   2.125   3.213  0.4127  0.4797  0.4117
   71CHL1  H21A 6413   0.020   2.077   3.242  0.1529  0.2380  0.8909
   71CHL1  H21B 6414  -0.102   2.194   3.296 -0.7443  0.5497 -0.0024
   71CHL1  H21C 6415  -0.058   2.189   3.124 -0.5870  1.0288  0.6021
   71CHL1   C22 6416  -0.222   1.939   3.297  0.0613 -0.0126  0.6917
   71CHL1  H22A 6417  -0.298   1.864   3.265 -1.4561  1.2733  1.2257
   71CHL1  H22B 6418  -0.128   1.890   3.331 -0.4900 -0.9586  0.8824
   71CHL1   C23 6419  -0.283   2.016   3.414 -0.4642  0.2969  0.0258
   71CHL1  H23A 6420  -0.201   2.084   3.446 -0.5611  0.7539 -0.6794
   71CHL1  H23B 6421  -0.379   2.070   3.393 -0.6462 -0.0573 -0.0505
   71CHL1   C24 6422  -0.328   1.944   3.544 -0.3293 -0.5069  0.1693
   71CHL1  H24A 6423  -0.438   1.928   3.544 -0.7502  2.0888 -1.0116
   71CHL1  H24B 6424  -0.287   1.841   3.541  1.1927  0.1314 -1.9323
   71CHL1   C25 6425  -0.291   2.013   3.676 -0.2976 -0.7283 -0.2086
   71CHL1   H25 6426  -0.183   2.013   3.701  0.1620 -0.8702 -2.1113
   71CHL1   C26 6427  -0.362   2.147   3.686  0.3504 -0.0287  0.4033
   71CHL1  H26A 6428  -0.471   2.125   3.687  0.1397  0.8941 -0.6921
   71CHL1  H26B 6429  -0.335   2.198   3.781  0.7376 -0.5718  0.5908
   71CHL1  H26C 6430  -0.348   2.212   3.597  1.4495 -0.9407 -0.1073
   71CHL1   C27 6431  -0.341   1.920   3.786  0.4743  0.1511  0.0216
   71CHL1  H27A 6432  -0.313   1.953   3.888 -1.1382 -1.0916  0.8859
   71CHL1  H27B 6433  -0.452   1.920   3.776  0.4014 -0.9273  0.7451
   71CHL1  H27C 6434  -0.300   1.817   3.774 -1.9972 -1.0485  1.3918
   72CHL1    C3 6435   5.964   6.370   2.325 -0.3879  0.8845  0.3535
   72CHL1    H3 6436   6.070   6.341   2.343 -0.6063 -0.0192  0.2200
   72CHL1    O3 6437   5.943   6.377   2.184 -0.0495  0.1320  0.1523
   72CHL1   H3' 6438   5.871   6.319   2.156  0.7907 -1.0010  0.3107
   72CHL1    C4 6439   5.883   6.247   2.381  0.3557  0.1608  0.2147
   72CHL1   H4A 6440   5.784   6.258   2.333  1.4847  0.6740 -2.0588
   72CHL1   H4B 6441   5.933   6.157   2.339  1.0080  0.9754 -0.7832
   72CHL1    C5 6442   5.883   6.243   2.530 -0.0908  0.4612 -0.2717
   72CHL1    C6 6443   5.919   6.133   2.593 -0.3602  0.6619  0.0892
   72CHL1    H6 6444   5.945   6.041   2.539 -0.1107  1.4953 -1.2326
   72CHL1    C7 6445   5.905   6.110   2.741  0.0779  0.3412  0.4142
   72CHL1   H7A 6446   5.855   6.014   2.766  0.6916 -0.0288  0.2173
   72CHL1   H7B 6447   6.001   6.092   2.793 -1.0220 -3.3128  1.3205
   72CHL1    C8 6448   5.825   6.219   2.815 -0.1319 -0.3538 -0.0562
   72CHL1    H8 6449   5.719   6.187   2.807  0.1527 -1.4121  0.3092
   72CHL1   C14 6450   5.855   6.229   2.971  0.0338  0.1051  0.4285
   72CHL1   H14 6451   5.961   6.254   2.992 -0.0192  1.0487 -0.3872
   72CHL1   C15 6452   5.834   6.090   3.035 -0.9067 -0.0200  0.4341
   72CHL1  H15A 6453   5.736   6.046   3.005 -0.2991 -2.7821  2.2877
   72CHL1  H15B 6454   5.919   6.020   3.019  0.6397  1.7431  0.7682
   72CHL1   C16 6455   5.830   6.134   3.180  0.0948 -0.0301  0.2038
   72CHL1  H16A 6456   5.743   6.077   3.219 -0.3935 -0.0916 -0.9557
   72CHL1  H16B 6457   5.923   6.112   3.237  1.2768  0.5709 -1.4773
   72CHL1   C17 6458   5.811   6.289   3.195 -0.5880  0.3555 -0.0559
   72CHL1   H17 6459   5.907   6.344   3.202 -0.3940 -0.0304  0.2641
   72CHL1   C13 6460   5.762   6.321   3.051 -0.5362  0.6399  0.3624
   72CHL1   C18 6461   5.608   6.298   3.031  0.0356  0.7281  0.4152
   72CHL1  H18A 6462   5.589   6.298   2.922  0.8627  0.6083  0.2679
   72CHL1  H18B 6463   5.588   6.198   3.077 -0.7854  0.2849 -0.8861
   72CHL1  H18C 6464   5.557   6.376   3.092 -0.0897  0.0245  1.2181
   72CHL1   C12 6465   5.801   6.461   2.995 -0.2989 -0.4630  0.3081
   72CHL1  H12A 6466   5.745   6.529   3.061  1.3044 -0.5208  1.7570
   72CHL1  H12B 6467   5.908   6.484   3.012 -0.5275  0.7447  0.1191
   72CHL1   C11 6468   5.774   6.471   2.839  0.4145  0.1830  0.0078
   72CHL1  H11A 6469   5.665   6.487   2.830  0.7779  2.2082 -1.1600
   72CHL1  H11B 6470   5.809   6.572   2.810 -3.0317  1.2361 -0.5948
   72CHL1    C9 6471   5.851   6.361   2.760  0.3936  0.2923  0.5727
   72CHL1    H9 6472   5.957   6.388   2.783  0.9133 -1.2624  0.0846
   72CHL1   C10 6473   5.839   6.369   2.602  0.4165  0.0252 -0.3360
   72CHL1   C19 6474   5.680   6.398   2.581 -0.1270 -0.3933 -0.1696
   72CHL1  H19A 6475   5.647   6.502   2.603  1.4032 -0.3450  2.0271
   72CHL1  H19B 6476   5.659   6.391   2.472 -1.6327  2.2551 -0.0700
   72CHL1  H19C 6477   5.612   6.322   2.624 -1.0184  0.4551 -0.0782
   72CHL1    C1 6478   5.927   6.487   2.550  0.2609  0.1285  0.6703
   72CHL1   H1A 6479   5.916   6.585   2.602 -0.7021  0.1659  0.3987
   72CHL1   H1B 6480   6.035   6.474   2.573  0.5236  0.1583 -0.4889
   72CHL1    C2 6481   5.923   6.498   2.396 -0.5481 -0.3671 -0.9576
   72CHL1   H2A 6482   5.988   6.584   2.370 -1.9476  1.1491  0.4670
   72CHL1   H2B 6483   5.820   6.522   2.361  0.0422 -0.0751 -2.5354
   72CHL1   C20 6484   5.716   6.327   3.310  0.6382 -0.2942 -0.0250
   72CHL1   H20 6485   5.616   6.283   3.288  1.2254 -1.4847 -0.3357
   72CHL1   C21 6486   5.693   6.478   3.321  0.4624  0.4970  0.5875
   72CHL1  H21A 6487   5.629   6.502   3.409  2.3339  1.3864  1.7466
   72CHL1  H21B 6488   5.637   6.516   3.233 -0.1393 -2.1233 -0.1827
   72CHL1  H21C 6489   5.788   6.527   3.355  0.8172 -0.9874  1.7691
   72CHL1   C22 6490   5.779   6.271   3.442  0.4820  0.6462 -0.4371
   72CHL1  H22A 6491   5.815   6.166   3.439 -1.6688 -0.1470  0.7335
   72CHL1  H22B 6492   5.864   6.335   3.474  1.4676 -1.2704  0.9005
   72CHL1   C23 6493   5.689   6.273   3.568  0.4690 -0.2860  0.4081
   72CHL1  H23A 6494   5.651   6.369   3.609 -0.4058  1.0879 -3.3912
   72CHL1  H23B 6495   5.598   6.212   3.550  1.4401 -0.7790 -3.1868
   72CHL1   C24 6496   5.770   6.213   3.685 -0.1895  0.1608  0.3433
   72CHL1  H24A 6497   5.815   6.117   3.652 -0.4834  0.2316 -0.2607
   72CHL1  H24B 6498   5.851   6.284   3.715  1.9557 -1.4380 -1.4676
   72CHL1   C25 6499   5.679   6.187   3.808  0.0669 -0.2775 -0.1914
   72CHL1   H25 6500   5.614   6.273   3.833 -0.1913 -0.1599 -1.2662
   72CHL1   C26 6501   5.588   6.062   3.794  0.0001  0.4590  1.3423
   72CHL1  H26A 6502   5.650   5.970   3.780 -4.0322 -2.5654  2.5078
   72CHL1  H26B 6503   5.519   6.039   3.877 -0.0997 -0.2552  1.0698
   72CHL1  H26C 6504   5.529   6.071   3.700  1.9451  1.3697  0.1626
   72CHL1   C27 6505   5.773   6.150   3.921  0.2781  0.1409 -0.0567
   72CHL1  H27A 6506   5.847   6.228   3.946  0.8782 -0.6565  0.6796
   72CHL1  H27B 6507   5.714   6.132   4.013  0.5341  2.2295  0.5325
   72CHL1  H27C 6508   5.831   6.059   3.893  0.6742  0.3375  0.1224
   73CHL1    C3 6509   0.022   0.693   2.235 -0.5729  0.1072  0.0085
   73CHL1    H3 6510   0.093   0.608   2.229 -1.8544 -0.9431 -0.4519
   73CHL1    O3 6511  -0.014   0.726   2.105  0.4610 -0.0272  0.0337
   73CHL1   H3' 6512  -0.066   0.806   2.114  0.0304 -0.3859  0.7776
   73CHL1    C4 6513  -0.105   0.667   2.317 -0.7275  0.3400  0.1510
   73CHL1   H4A 6514  -0.175   0.751   2.301  1.8015  1.9811 -2.8877
   73CHL1   H4B 6515  -0.148   0.576   2.270  0.1217 -0.0289  0.0752
   73CHL1    C5 6516  -0.064   0.654   2.463  0.6863  0.0620  0.3665
   73CHL1    C6 6517  -0.103   0.548   2.540 -0.2941 -0.4596 -0.0103
   73CHL1    H6 6518  -0.153   0.461   2.492  0.5823 -1.1997  0.4077
   73CHL1    C7 6519  -0.082   0.544   2.688 -0.2193 -0.9630 -0.0078
   73CHL1   H7A 6520  -0.166   0.505   2.749 -0.3688  1.1776  1.2044
   73CHL1   H7B 6521   0.002   0.481   2.723  1.1298  0.2520 -0.9897
   73CHL1    C8 6522  -0.051   0.678   2.745 -0.5517  0.0983 -0.2194
   73CHL1    H8 6523  -0.144   0.739   2.739 -0.5754 -0.0082 -1.0058
   73CHL1   C14 6524   0.013   0.667   2.888 -0.3499 -0.0609 -0.5080
   73CHL1   H14 6525   0.107   0.613   2.867 -0.3619 -1.2182  2.3203
   73CHL1   C15 6526  -0.054   0.566   2.990 -0.0326 -0.4742 -0.5574
   73CHL1  H15A 6527  -0.165   0.566   2.995 -0.1222 -2.0011 -2.0829
   73CHL1  H15B 6528  -0.019   0.465   2.962 -0.9568 -0.1691 -2.9429
   73CHL1   C16 6529   0.018   0.603   3.123  0.0349  0.3934 -0.2642
   73CHL1  H16A 6530  -0.056   0.631   3.202 -0.3493 -0.3478 -0.3530
   73CHL1  H16B 6531   0.072   0.515   3.163 -0.9760 -1.0975 -2.0828
   73CHL1   C17 6532   0.107   0.728   3.090 -0.8399  0.5471 -0.4794
   73CHL1   H17 6533   0.212   0.698   3.065 -0.7418 -1.1947  1.9249
   73CHL1   C13 6534   0.052   0.799   2.966  0.9441  0.3324 -0.3581
   73CHL1   C18 6535  -0.068   0.882   3.008  0.0310  0.1028  0.4380
   73CHL1  H18A 6536  -0.120   0.907   2.913 -0.6643  0.3593  0.8784
   73CHL1  H18B 6537  -0.143   0.827   3.069 -2.2688  0.9885 -1.5063
   73CHL1  H18C 6538  -0.041   0.975   3.063  1.7448  1.3662 -2.4107
   73CHL1   C12 6539   0.154   0.869   2.870  0.9216  0.7657  0.4753
   73CHL1  H12A 6540   0.187   0.964   2.916 -1.4383  1.1003  1.5383
   73CHL1  H12B 6541   0.247   0.808   2.869 -0.1138 -0.8299 -0.2336
   73CHL1   C11 6542   0.100   0.891   2.732 -0.0877  0.2569  0.1887
   73CHL1  H11A 6543   0.006   0.947   2.753 -1.8336 -2.6744  0.4350
   73CHL1  H11B 6544   0.164   0.953   2.666 -1.2631  0.6335 -0.6057
   73CHL1    C9 6545   0.057   0.754   2.665  0.3024 -0.4417 -0.5631
   73CHL1    H9 6546   0.151   0.696   2.662  1.2463  0.9776  0.6680
   73CHL1   C10 6547   0.011   0.777   2.515 -0.8818  0.6217  0.1167
   73CHL1   C19 6548  -0.081   0.894   2.506  0.3775  0.1063 -0.1564
   73CHL1  H19A 6549  -0.177   0.895   2.562 -0.3474  1.1306 -1.3788
   73CHL1  H19B 6550  -0.017   0.977   2.542  1.5140 -0.1099 -1.6082
   73CHL1  H19C 6551  -0.110   0.915   2.400 -0.6537 -2.7261 -0.4795
   73CHL1    C1 6552   0.135   0.801   2.434  0.1757  0.2460 -0.1181
   73CHL1   H1A 6553   0.190   0.892   2.465  0.2960  0.6239 -1.4042
   73CHL1   H1B 6554   0.203   0.714   2.447  0.8070  0.4889 -1.6035
   73CHL1    C2 6555   0.109   0.811   2.283  0.3166  0.5393  0.5378
   73CHL1   H2A 6556   0.211   0.802   2.240 -0.2153 -1.7200 -0.3660
   73CHL1   H2B 6557   0.069   0.909   2.249  0.0642 -0.7644 -3.2388
   73CHL1   C20 6558   0.127   0.812   3.216 -0.4178 -0.0974 -0.5180
   73CHL1   H20 6559   0.030   0.848   3.258 -0.1649  0.0860 -0.0919
   73CHL1   C21 6560   0.225   0.925   3.185  0.2201  0.0454 -0.7709
   73CHL1  H21A 6561   0.256   0.978   3.278 -2.3954 -2.1471  1.4204
   73CHL1  H21B 6562   0.176   1.008   3.130  0.0723  0.0250 -0.6701
   73CHL1  H21C 6563   0.309   0.898   3.118  0.5104  1.1657 -0.8698
   73CHL1   C22 6564   0.182   0.728   3.340  0.3996  0.2425 -0.3752
   73CHL1  H22A 6565   0.104   0.651   3.357  0.4580  0.7195  2.1564
   73CHL1  H22B 6566   0.278   0.679   3.315 -0.5373 -1.8946  0.1040
   73CHL1   C23 6567   0.197   0.806   3.473 -0.6643  0.4169  0.3524
   73CHL1  H23A 6568   0.271   0.889   3.464 -1.5199  1.1544  0.0860
   73CHL1  H23B 6569   0.098   0.852   3.493 -0.4005  0.9755  0.4049
   73CHL1   C24 6570   0.234   0.707   3.584 -0.2528 -0.1467  0.3458
   73CHL1  H24A 6571   0.151   0.634   3.595 -0.4593 -0.0591 -0.5867
   73CHL1  H24B 6572   0.327   0.656   3.551  0.7694  0.3947  2.3459
   73CHL1   C25 6573   0.254   0.767   3.727  0.1613  0.8771  0.3254
   73CHL1   H25 6574   0.335   0.842   3.724  1.2164 -0.2861 -2.0416
   73CHL1   C26 6575   0.122   0.829   3.774 -0.2498  0.7846  0.2696
   73CHL1  H26A 6576   0.088   0.897   3.694  1.4581  1.5150  0.1565
   73CHL1  H26B 6577   0.045   0.750   3.791  0.8164 -0.2885  0.1963
   73CHL1  H26C 6578   0.126   0.891   3.866 -2.1978  1.5397 -0.1415
   73CHL1   C27 6579   0.304   0.651   3.818  0.0600 -0.0608  0.3061
   73CHL1  H27A 6580   0.384   0.593   3.767 -1.7946  0.2322 -3.1087
   73CHL1  H27B 6581   0.311   0.692   3.921 -1.4947  1.7769 -0.2778
   73CHL1  H27C 6582   0.215   0.587   3.826 -0.5236  0.6875 -0.0896
   74CHL1    C3 6583   1.327   0.008   2.308 -0.5065  0.1109 -0.0962
   74CHL1    H3 6584   1.376  -0.092   2.309  1.5906  1.1110  2.3167
   74CHL1    O3 6585   1.309   0.048   2.175 -0.0244 -0.0041 -0.4920
   74CHL1   H3' 6586   1.294   0.143   2.175 -3.4121 -0.4554 -1.4225
   74CHL1    C4 6587   1.194  -0.007   2.383  0.5097 -0.3919 -0.5174
   74CHL1   H4A 6588   1.134   0.086   2.372  2.3864  1.0782  1.3326
   74CHL1   H4B 6589   1.144  -0.088   2.325  0.7203 -0.3265 -0.7901
   74CHL1    C5 6590   1.213  -0.039   2.526  0.2680 -0.1855  0.1931
   74CHL1    C6 6591   1.159  -0.143   2.575  0.2864  0.1916 -0.2857
   74CHL1    H6 6592   1.091  -0.205   2.516  1.4434 -1.6276  0.2692
   74CHL1    C7 6593   1.171  -0.189   2.717  0.1956 -0.1980  0.1631
   74CHL1   H7A 6594   1.079  -0.235   2.759 -0.1683  2.4775  2.4230
   74CHL1   H7B 6595   1.243  -0.273   2.731 -0.9751 -1.4556 -1.0987
   74CHL1    C8 6596   1.213  -0.079   2.815 -0.3524  0.3602 -0.3544
   74CHL1    H8 6597   1.127  -0.013   2.840  0.1063  0.6020  0.5930
   74CHL1   C14 6598   1.254  -0.136   2.949  0.0837 -0.0990 -0.1009
   74CHL1   H14 6599   1.341  -0.199   2.921  2.2334  2.0806  1.4051
   74CHL1   C15 6600   1.158  -0.238   3.014  0.2847  0.4890 -0.5204
   74CHL1  H15A 6601   1.057  -0.194   3.030  0.3128  1.1137 -1.9944
   74CHL1  H15B 6602   1.154  -0.337   2.964 -0.8337  1.3453 -2.1780
   74CHL1   C16 6603   1.210  -0.243   3.157  0.2731  0.3730  1.0721
   74CHL1  H16A 6604   1.132  -0.221   3.233  2.1084  0.2262  3.0435
   74CHL1  H16B 6605   1.254  -0.339   3.187  1.0683 -0.0116 -1.1997
   74CHL1   C17 6606   1.325  -0.138   3.171  0.6967 -1.0830 -0.3506
   74CHL1   H17 6607   1.415  -0.194   3.138 -0.1597 -0.4999 -3.8658
   74CHL1   C13 6608   1.302  -0.042   3.052  1.1193 -0.0376 -1.1771
   74CHL1   C18 6609   1.191   0.057   3.096  0.6736 -0.5613  0.5110
   74CHL1  H18A 6610   1.150   0.115   3.011 -0.2189 -0.1882  1.1840
   74CHL1  H18B 6611   1.096   0.024   3.144 -1.7717  2.5199 -1.9679
   74CHL1  H18C 6612   1.235   0.128   3.169 -0.1381  0.3586  0.1214
   74CHL1   C12 6613   1.419   0.025   2.986 -0.1207 -0.4111 -0.8841
   74CHL1  H12A 6614   1.452   0.106   3.055  1.0668  2.1508 -4.3093
   74CHL1  H12B 6615   1.513  -0.032   2.971 -0.1544 -1.3806  2.1828
   74CHL1   C11 6616   1.386   0.104   2.861  0.0291  0.3345 -0.3445
   74CHL1  H11A 6617   1.301   0.173   2.877 -1.6435 -1.0008 -3.1539
   74CHL1  H11B 6618   1.473   0.165   2.827  1.4247 -2.0426 -1.1692
   74CHL1    C9 6619   1.328   0.006   2.754  0.4575  0.1421 -0.4057
   74CHL1    H9 6620   1.410  -0.068   2.743 -0.3872 -1.1486  1.6618
   74CHL1   C10 6621   1.297   0.062   2.609  0.1038  0.2972 -0.4525
   74CHL1   C19 6622   1.210   0.195   2.624  0.4723 -0.8132  0.3708
   74CHL1  H19A 6623   1.259   0.269   2.691 -1.0602  0.3514  0.2470
   74CHL1  H19B 6624   1.189   0.245   2.527 -1.5930 -0.3487  1.0171
   74CHL1  H19C 6625   1.111   0.169   2.668 -0.5929  0.9315 -0.9517
   74CHL1    C1 6626   1.431   0.095   2.528 -0.3725  0.3865 -0.3221
   74CHL1   H1A 6627   1.486   0.184   2.564  2.1795 -1.1962 -0.1275
   74CHL1   H1B 6628   1.500   0.010   2.550  0.9119  1.4704 -0.1322
   74CHL1    C2 6629   1.411   0.112   2.381  0.3656  0.1660  0.1832
   74CHL1   H2A 6630   1.513   0.113   2.336  0.6855 -1.1374  0.8419
   74CHL1   H2B 6631   1.368   0.212   2.362 -1.9852 -0.7928  0.3630
   74CHL1   C20 6632   1.337  -0.091   3.316  0.1116  0.2791  0.2421
   74CHL1   H20 6633   1.240  -0.043   3.342 -1.8981 -3.3372 -0.1443
   74CHL1   C21 6634   1.442   0.019   3.328 -0.4871 -0.8485  0.0293
   74CHL1  H21A 6635   1.528   0.001   3.260  1.0135 -0.6955  1.8342
   74CHL1  H21B 6636   1.478   0.026   3.433 -0.0878  1.4724 -0.2227
   74CHL1  H21C 6637   1.399   0.121   3.319 -0.8844 -0.8596  1.5859
   74CHL1   C22 6638   1.367  -0.213   3.409 -0.1154  0.8627 -0.0504
   74CHL1  H22A 6639   1.320  -0.309   3.379 -2.3157  1.6165  0.8761
   74CHL1  H22B 6640   1.476  -0.229   3.406 -0.5368 -2.1927 -0.8474
   74CHL1   C23 6641   1.328  -0.184   3.556 -0.0677 -0.0952 -0.3119
   74CHL1  H23A 6642   1.378  -0.093   3.595 -0.3275  0.0763 -0.3752
   74CHL1  H23B 6643   1.218  -0.186   3.573  0.0759  1.8768  0.9693
   74CHL1   C24 6644   1.391  -0.307   3.637 -1.4909  0.5356  0.1614
   74CHL1  H24A 6645   1.372  -0.400   3.579 -1.7778 -0.2456  1.4867
   74CHL1  H24B 6646   1.499  -0.293   3.617 -1.2691 -1.4273 -0.1120
   74CHL1   C25 6647   1.355  -0.330   3.781  0.0039  0.3819 -0.8048
   74CHL1   H25 6648   1.385  -0.434   3.807  0.9688  1.0338  0.7359
   74CHL1   C26 6649   1.428  -0.231   3.868 -0.1058 -0.1105  0.2439
   74CHL1  H26A 6650   1.399  -0.248   3.974  1.2016 -0.1369  0.6085
   74CHL1  H26B 6651   1.538  -0.231   3.857 -0.1534  0.3583 -0.2649
   74CHL1  H26C 6652   1.384  -0.133   3.837 -0.9434 -0.2085  1.1140
   74CHL1   C27 6653   1.201  -0.327   3.819 -0.2147  0.3602 -0.0203
   74CHL1  H27A 6654   1.156  -0.228   3.793 -0.8147  0.4441  1.3099
   74CHL1  H27B 6655   1.149  -0.408   3.765  2.0688  0.0254 -1.8190
   74CHL1  H27C 6656   1.186  -0.354   3.925  1.9060  0.1820  0.2646
   75CHL1    C3 6657   0.818   0.058   2.261  0.1697 -0.6567  0.0405
   75CHL1    H3 6658   0.923   0.026   2.270  0.6153 -0.4683 -3.6656
   75CHL1    O3 6659   0.804   0.066   2.121  0.0736  0.6510 -0.5512
   75CHL1   H3' 6660   0.731   0.129   2.115 -0.0438  0.7202  1.3436
   75CHL1    C4 6661   0.723  -0.053   2.316  0.3154 -0.0171 -0.8185
   75CHL1   H4A 6662   0.618  -0.022   2.298 -0.2525 -1.7333 -0.4583
   75CHL1   H4B 6663   0.729  -0.152   2.267 -0.7337 -0.8965  0.8138
   75CHL1    C5 6664   0.728  -0.073   2.468  0.6568  0.4563 -0.3503
   75CHL1    C6 6665   0.752  -0.191   2.522 -0.0735 -0.1555  0.2969
   75CHL1    H6 6666   0.779  -0.271   2.452 -2.7068  0.0725 -1.0801
   75CHL1    C7 6667   0.756  -0.216   2.667 -0.0012  0.2541 -0.2239
   75CHL1   H7A 6668   0.703  -0.312   2.687  0.6771  0.2240  1.5230
   75CHL1   H7B 6669   0.863  -0.235   2.688  0.2138  0.2060 -1.3212
   75CHL1    C8 6670   0.714  -0.099   2.755  0.1382  0.1691 -0.0930
   75CHL1    H8 6671   0.603  -0.107   2.757  0.2508 -1.6397 -0.0816
   75CHL1   C14 6672   0.770  -0.117   2.889 -0.3506  0.9611  0.5202
   75CHL1   H14 6673   0.878  -0.092   2.882 -0.5522  1.7750  0.1955
   75CHL1   C15 6674   0.751  -0.252   2.961 -0.4964 -0.0634 -0.6746
   75CHL1  H15A 6675   0.645  -0.284   2.952 -0.6108 -0.0747  0.6384
   75CHL1  H15B 6676   0.821  -0.333   2.931  0.0271  0.3272 -0.4956
   75CHL1   C16 6677   0.772  -0.215   3.107  0.4279  0.9430 -0.3840
   75CHL1  H16A 6678   0.679  -0.249   3.158  2.1734 -2.8283  0.4081
   75CHL1  H16B 6679   0.864  -0.254   3.154 -1.4303  0.0014  2.6491
   75CHL1   C17 6680   0.775  -0.061   3.107  0.1462 -0.0146 -1.1204
   75CHL1   H17 6681   0.886  -0.047   3.105  0.1282  1.3400  2.9766
   75CHL1   C13 6682   0.720  -0.009   2.984 -0.0260  0.0030  0.6918
   75CHL1   C18 6683   0.566  -0.014   2.997 -0.5310  0.2901 -0.3271
   75CHL1  H18A 6684   0.536   0.061   3.074 -0.3561  1.0020 -0.9452
   75CHL1  H18B 6685   0.512   0.002   2.901  0.2205  1.7923 -0.5241
   75CHL1  H18C 6686   0.536  -0.113   3.036 -0.7986  1.0126  1.3718
   75CHL1   C12 6687   0.779   0.124   2.928  0.5363 -0.0315  0.0423
   75CHL1  H12A 6688   0.763   0.207   3.000 -0.9124 -0.5150  0.3018
   75CHL1  H12B 6689   0.890   0.120   2.927  0.4768 -2.0236 -0.1683
   75CHL1   C11 6690   0.726   0.158   2.790  0.8828 -0.2764  0.3035
   75CHL1  H11A 6691   0.617   0.174   2.805  1.4128  1.1173  2.9837
   75CHL1  H11B 6692   0.769   0.253   2.751  0.0092  0.4113  1.0134
   75CHL1    C9 6693   0.751   0.042   2.693  0.1706  0.7863  0.4351
   75CHL1    H9 6694   0.861   0.026   2.687  0.3284  0.1118  4.0194
   75CHL1   C10 6695   0.709   0.058   2.544 -0.5081  0.5200 -0.0685
   75CHL1   C19 6696   0.556   0.098   2.539 -0.6338 -0.1220  0.3024
   75CHL1  H19A 6697   0.535   0.132   2.435 -1.4757 -0.9014  0.2182
   75CHL1  H19B 6698   0.488   0.013   2.561 -1.7574  0.3140 -1.4116
   75CHL1  H19C 6699   0.541   0.181   2.611  0.4424 -0.4978  0.9677
   75CHL1    C1 6700   0.803   0.165   2.473 -0.3392 -0.1197  0.1786
   75CHL1   H1A 6701   0.775   0.255   2.532 -0.3569 -0.3905  0.5873
   75CHL1   H1B 6702   0.911   0.146   2.493 -0.1818 -2.6877 -2.7269
   75CHL1    C2 6703   0.801   0.187   2.321  0.2977 -0.0824  0.6055
   75CHL1   H2A 6704   0.876   0.267   2.303  0.1898  0.0876  0.8965
   75CHL1   H2B 6705   0.699   0.225   2.296  0.9568  1.6903  0.5379
   75CHL1   C20 6706   0.733  -0.000   3.242 -0.2514 -0.2040  0.7397
   75CHL1   H20 6707   0.628  -0.029   3.266 -0.8248  0.0852 -1.3778
   75CHL1   C21 6708   0.736   0.146   3.260  0.5304  0.2033 -0.3531
   75CHL1  H21A 6709   0.718   0.176   3.365 -1.3784 -1.5813 -0.1230
   75CHL1  H21B 6710   0.660   0.202   3.201 -1.0924  0.8580  2.2881
   75CHL1  H21C 6711   0.838   0.184   3.240  0.8366 -0.7934 -0.7332
   75CHL1   C22 6712   0.821  -0.061   3.358 -0.2865 -0.6445 -0.2605
   75CHL1  H22A 6713   0.815  -0.171   3.347  3.1414 -0.9174 -0.0639
   75CHL1  H22B 6714   0.929  -0.038   3.347 -0.2083 -1.4934 -1.3527
   75CHL1   C23 6715   0.776  -0.007   3.499 -0.1033 -0.3382 -0.8661
   75CHL1  H23A 6716   0.828   0.089   3.517 -1.1963  0.5963 -2.5697
   75CHL1  H23B 6717   0.666   0.007   3.498 -0.2614 -1.3140  0.4891
   75CHL1   C24 6718   0.817  -0.115   3.607 -0.3102  0.2638  0.3946
   75CHL1  H24A 6719   0.772  -0.208   3.567  0.0406  0.3438 -0.1886
   75CHL1  H24B 6720   0.926  -0.126   3.624 -0.2449  0.8049  0.3255
   75CHL1   C25 6721   0.763  -0.097   3.748 -0.1307  0.2933 -0.4972
   75CHL1   H25 6722   0.652  -0.101   3.749 -0.1655  0.8349  1.6793
   75CHL1   C26 6723   0.794  -0.212   3.845 -0.6118  0.0410  1.1948
   75CHL1  H26A 6724   0.731  -0.299   3.817  1.1920 -0.2792 -2.2252
   75CHL1  H26B 6725   0.900  -0.235   3.817 -0.7918  0.0192  0.5227
   75CHL1  H26C 6726   0.777  -0.182   3.950  1.2605 -0.5865  1.6983
   75CHL1   C27 6727   0.811   0.043   3.806  0.0526 -0.3352  0.7004
   75CHL1  H27A 6728   0.766   0.126   3.748 -0.0003 -1.2318 -0.5401
   75CHL1  H27B 6729   0.786   0.060   3.913 -3.9797  1.0674 -0.3944
   75CHL1  H27C 6730   0.921   0.042   3.793  0.1357 -1.0493  1.4136
   76CHL1    C3 6731   0.316   6.752   2.264 -0.2426 -0.1634  0.3531
   76CHL1    H3 6732   0.345   6.651   2.300 -0.1854  0.2388  1.4347
   76CHL1    O3 6733   0.336   6.755   2.131 -0.0735 -0.0674 -0.5462
   76CHL1   H3' 6734   0.298   6.841   2.113 -0.5429  0.4278  2.4961
   76CHL1    C4 6735   0.165   6.767   2.295 -0.1946  0.2817 -0.0630
   76CHL1   H4A 6736   0.114   6.854   2.249 -0.9471 -0.3322 -0.4135
   76CHL1   H4B 6737   0.106   6.683   2.251  0.7902 -1.5326  1.9553
   76CHL1    C5 6738   0.130   6.756   2.442 -0.8226  0.3000 -0.5009
   76CHL1    C6 6739   0.039   6.668   2.489  0.6292 -0.4114 -0.5121
   76CHL1    H6 6740  -0.013   6.602   2.419  0.5887 -0.3011 -0.5861
   76CHL1    C7 6741   0.006   6.657   2.635 -0.4649 -0.4892  0.4637
   76CHL1   H7A 6742  -0.105   6.653   2.643 -0.5938  1.4062 -0.1480
   76CHL1   H7B 6743   0.044   6.557   2.666 -2.4702 -0.9233  1.5859
   76CHL1    C8 6744   0.058   6.777   2.715  0.7067  0.1662  0.1991
   76CHL1    H8 6745  -0.006   6.865   2.694 -1.0685 -0.7980  1.4410
   76CHL1   C14 6746   0.065   6.724   2.855 -0.3784 -0.3174 -0.1942
   76CHL1   H14 6747   0.141   6.644   2.854  1.7230  1.6198  0.9043
   76CHL1   C15 6748  -0.056   6.660   2.908  0.0662 -0.5136 -0.2679
   76CHL1  H15A 6749  -0.141   6.705   2.852  0.1066  1.8145  1.4556
   76CHL1  H15B 6750  -0.049   6.551   2.889 -1.2043 -0.9620  1.5811
   76CHL1   C16 6751  -0.050   6.695   3.061  0.2376  0.0790  0.3126
   76CHL1  H16A 6752  -0.133   6.763   3.090  0.3309 -0.2525  1.3792
   76CHL1  H16B 6753  -0.065   6.605   3.125 -1.3605 -1.0633 -1.5779
   76CHL1   C17 6754   0.089   6.753   3.096  0.3559  0.1926  0.4517
   76CHL1   H17 6755   0.157   6.666   3.103 -2.6827 -2.1377  2.6090
   76CHL1   C13 6756   0.110   6.826   2.963  0.7307  0.1232  0.0546
   76CHL1   C18 6757   0.026   6.948   2.951  0.6481 -0.5346 -0.1739
   76CHL1  H18A 6758   0.026   6.997   3.050  3.2994  0.5021 -0.6553
   76CHL1  H18B 6759   0.061   7.022   2.876  0.6951 -1.1541 -0.7710
   76CHL1  H18C 6760  -0.082   6.929   2.932  0.6003 -0.7897  0.3426
   76CHL1   C12 6761   0.262   6.855   2.926 -0.3526  0.2055  0.3564
   76CHL1  H12A 6762   0.302   6.926   3.002  1.1456 -2.8307  2.4736
   76CHL1  H12B 6763   0.317   6.759   2.934  1.2424  1.1310  0.6461
   76CHL1   C11 6764   0.279   6.901   2.779 -0.2769  0.4764 -1.1170
   76CHL1  H11A 6765   0.238   7.004   2.780  0.5047  0.7863  1.4330
   76CHL1  H11B 6766   0.389   6.889   2.762  0.4118  1.0231  2.5870
   76CHL1    C9 6767   0.204   6.810   2.676  0.3153 -0.0526  0.6701
   76CHL1    H9 6768   0.263   6.716   2.678 -0.0252 -0.2891 -0.2361
   76CHL1   C10 6769   0.219   6.856   2.531 -0.3654 -0.0814 -0.3379
   76CHL1   C19 6770   0.172   7.002   2.520  0.4565 -0.1045  0.0680
   76CHL1  H19A 6771   0.070   7.000   2.565 -0.7658  1.1376 -2.5529
   76CHL1  H19B 6772   0.236   7.070   2.581 -2.5750  1.2869  1.8163
   76CHL1  H19C 6773   0.169   7.042   2.416  0.5922 -0.5215 -0.0982
   76CHL1    C1 6774   0.366   6.838   2.487  0.0168  0.2759 -0.4460
   76CHL1   H1A 6775   0.437   6.904   2.541 -0.3171 -0.8831  1.4540
   76CHL1   H1B 6776   0.408   6.745   2.531  1.5009  2.1890  2.3356
   76CHL1    C2 6777   0.408   6.849   2.339  0.1859  0.2639 -0.3710
   76CHL1   H2A 6778   0.515   6.824   2.321 -0.2721 -0.8228 -1.7047
   76CHL1   H2B 6779   0.391   6.950   2.297 -1.4115 -1.1291 -3.2800
   76CHL1   C20 6780   0.110   6.841   3.227 -0.4151 -0.4364  0.0567
   76CHL1   H20 6781   0.160   6.936   3.200  0.0692 -0.6222  0.2981
   76CHL1   C21 6782   0.193   6.755   3.318  0.0239 -0.7606 -0.3022
   76CHL1  H21A 6783   0.208   6.813   3.412 -2.2272  0.4075 -0.6489
   76CHL1  H21B 6784   0.291   6.727   3.273  0.6354 -0.4167  0.7973
   76CHL1  H21C 6785   0.135   6.666   3.350 -2.2283  1.1805  1.1152
   76CHL1   C22 6786  -0.026   6.874   3.284 -0.0685  0.1743  0.1808
   76CHL1  H22A 6787  -0.090   6.920   3.205 -0.5777 -0.9015 -0.0485
   76CHL1  H22B 6788  -0.076   6.779   3.311  0.8117 -0.2789  0.2394
   76CHL1   C23 6789  -0.018   6.963   3.411  0.5172 -0.3850 -0.3016
   76CHL1  H23A 6790  -0.122   6.969   3.450 -0.2895 -2.2404 -2.1021
   76CHL1  H23B 6791   0.041   6.913   3.491  0.3781  1.6111  1.0852
   76CHL1   C24 6792   0.026   7.107   3.390  0.3568  0.2319  0.8371
   76CHL1  H24A 6793   0.134   7.116   3.363  0.1159  1.9358  0.3851
   76CHL1  H24B 6794  -0.030   7.150   3.304  0.3625  0.6765  1.0546
   76CHL1   C25 6795  -0.016   7.197   3.509 -0.4063  0.0713  0.3606
   76CHL1   H25 6796  -0.126   7.191   3.526 -0.1708  2.4641  3.1308
   76CHL1   C26 6797   0.048   7.144   3.642  0.1761 -0.7132 -0.3827
   76CHL1  H26A 6798   0.151   7.104   3.637 -0.0496 -1.8433  2.6386
   76CHL1  H26B 6799   0.036   7.226   3.716 -3.2481  0.4004 -2.0757
   76CHL1  H26C 6800  -0.004   7.052   3.676  0.9931 -0.1775  2.4322
   76CHL1   C27 6801   0.014   7.344   3.485  0.1538 -0.0279  0.2674
   76CHL1  H27A 6802   0.022   7.405   3.577  1.5231 -1.5476  1.1741
   76CHL1  H27B 6803   0.108   7.342   3.426  0.5449  1.6315  0.8416
   76CHL1  H27C 6804  -0.069   7.387   3.424 -1.1247 -1.0335  1.2543
   77SOPE     N 6805   3.051   4.107   6.377 -1.0545  0.3429  0.3960
   77SOPE   HN1 6806   3.110   4.139   6.457  1.7222 -1.2083 -0.9746
   77SOPE   HN2 6807   3.036   4.179   6.303 -0.4307 -1.9712 -2.0516
   77SOPE   HN3 6808   2.958   4.075   6.410  0.5852 -2.8808  2.0414
   77SOPE   C12 6809   3.120   3.997   6.301 -0.0708  0.2653 -0.0182
   77SOPE  H12A 6810   3.042   3.949   6.239  0.9864 -0.6633 -0.6558
   77SOPE  H12B 6811   3.153   3.923   6.377  0.6580  0.2287 -0.3666
   77SOPE   C11 6812   3.243   4.044   6.220  0.3775  0.4577 -0.3828
   77SOPE  H11A 6813   3.308   3.956   6.203 -0.0116  0.3548 -1.4028
   77SOPE  H11B 6814   3.298   4.118   6.281 -1.2947  0.2618  1.4456
   77SOPE     P 6815   3.192   4.039   5.972  0.0804 -0.0034  0.0065
   77SOPE   O13 6816   3.095   4.102   5.885 -0.3023  0.1893  0.0538
   77SOPE   O14 6817   3.177   3.899   5.992  0.3036  0.0380 -0.2896
   77SOPE   O12 6818   3.195   4.115   6.104  0.6529  0.7662  0.0332
   77SOPE   O11 6819   3.333   4.061   5.904  0.3904 -0.0046 -0.0012
   77SOPE    C1 6820   3.419   4.179   5.906 -0.5268  0.2029 -0.1829
   77SOPE    HA 6821   3.519   4.144   5.871 -1.1765 -1.0904 -0.7953
   77SOPE    HB 6822   3.419   4.215   6.011 -2.4544 -1.7515  0.5437
   77SOPE    C2 6823   3.370   4.292   5.812  0.3916  0.3698 -0.4284
   77SOPE    HS 6824   3.264   4.310   5.839  0.1599  1.7152 -2.1522
   77SOPE   O21 6825   3.385   4.248   5.683 -0.1495  0.8320 -0.1238
   77SOPE   C21 6826   3.299   4.296   5.596  0.0771  0.5438 -0.2237
   77SOPE   O22 6827   3.202   4.361   5.626  0.4704  0.2294  0.5071
   77SOPE   C22 6828   3.341   4.254   5.448  0.0697  0.4608  0.1705
   77SOPE   H2R 6829   3.276   4.165   5.436  0.8875  0.0453 -1.3280
   77SOPE   H2S 6830   3.450   4.236   5.453  0.2727  1.5580 -0.0633
   77SOPE    C3 6831   3.443   4.423   5.838  0.1996  0.7251  0.0335
   77SOPE    HX 6832   3.542   4.411   5.788 -0.1353  0.3947 -0.5653
   77SOPE    HY 6833   3.467   4.427   5.946 -2.9147 -1.3033  0.8467
   77SOPE   O31 6834   3.373   4.540   5.789  0.2403  0.0388 -0.0026
   77SOPE   C31 6835   3.438   4.649   5.808  0.1100 -0.3548 -0.4882
   77SOPE   O32 6836   3.544   4.664   5.871  0.3751  0.0163 -0.3309
   77SOPE   C32 6837   3.356   4.765   5.737 -0.9012 -0.5991 -0.4666
   77SOPE   H2X 6838   3.396   4.866   5.756 -0.7797 -0.7779  0.2649
   77SOPE   H2Y 6839   3.256   4.768   5.786 -1.0512  0.2394 -0.8261
   77SOPE   C23 6840   3.307   4.362   5.347  0.3140  0.3461  0.3133
   77SOPE   H3R 6841   3.372   4.452   5.351 -0.2722  0.8784 -1.6039
   77SOPE   H3S 6842   3.202   4.396   5.361  0.1298 -0.1279  0.0905
   77SOPE   C24 6843   3.331   4.307   5.206 -0.6764  0.5990  0.3027
   77SOPE   H4R 6844   3.440   4.309   5.190 -0.6390 -1.1091  0.2781
   77SOPE   H4S 6845   3.297   4.201   5.202  0.7793  0.2032 -3.3026
   77SOPE   C25 6846   3.269   4.394   5.100  0.5022  0.1184 -0.2468
   77SOPE   H5R 6847   3.165   4.359   5.078  0.8247 -0.5594 -0.7401
   77SOPE   H5S 6848   3.269   4.497   5.140 -0.8003 -0.2383  0.6954
   77SOPE   C26 6849   3.357   4.404   4.975 -0.8194 -0.1122 -0.2202
   77SOPE   H6R 6850   3.465   4.418   4.995 -0.8248 -0.2033 -0.1303
   77SOPE   H6S 6851   3.356   4.309   4.918  0.1201 -1.1172  1.4054
   77SOPE   C27 6852   3.311   4.516   4.878  0.5550  0.1324  0.2385
   77SOPE   H7R 6853   3.200   4.517   4.876  0.5176  2.2894  1.7536
   77SOPE   H7S 6854   3.351   4.612   4.915 -0.1244  0.1660  0.8895
   77SOPE   C28 6855   3.356   4.483   4.726  0.1705  0.1791 -0.5788
   77SOPE   H8R 6856   3.467   4.480   4.728  0.2410  2.4490 -0.1473
   77SOPE   H8S 6857   3.311   4.388   4.690  1.3040 -1.1771  1.4669
   77SOPE   C29 6858   3.308   4.586   4.633 -0.8325  0.5248 -0.9149
   77SOPE   H91 6859   3.226   4.639   4.683  0.8352  1.3964  0.9820
   77SOPE  C210 6860   3.352   4.616   4.506  0.0324  0.1670 -0.3055
   77SOPE  H101 6861   3.303   4.702   4.458 -2.4689 -0.2440  1.4264
   77SOPE  C211 6862   3.470   4.559   4.436  0.6015  0.1998  0.1629
   77SOPE  H11R 6863   3.530   4.492   4.501 -2.4750 -3.6861 -0.8437
   77SOPE  H11S 6864   3.538   4.637   4.396 -0.3386  0.7094 -0.4757
   77SOPE  C212 6865   3.425   4.471   4.320  0.4981 -0.1479  0.0757
   77SOPE  H12R 6866   3.370   4.379   4.346  1.1530 -0.6365 -0.2675
   77SOPE  H12S 6867   3.524   4.441   4.282  0.5214  0.8983 -0.7266
   77SOPE  C213 6868   3.345   4.544   4.207 -0.0237 -0.0689 -0.3137
   77SOPE  H13R 6869   3.395   4.643   4.194  1.6221 -0.3483  3.3241
   77SOPE  H13S 6870   3.237   4.555   4.228  0.4354 -0.1858  2.3194
   77SOPE  C214 6871   3.358   4.476   4.075  0.8155 -0.2352  0.8072
   77SOPE  H14R 6872   3.345   4.366   4.082  3.3506 -0.6136 -0.1347
   77SOPE  H14S 6873   3.465   4.490   4.050  0.9701 -0.0106  1.5861
   77SOPE  C215 6874   3.273   4.544   3.965 -0.1007  0.2550  0.2734
   77SOPE  H15R 6875   3.317   4.518   3.867  1.2843  0.3546  0.8587
   77SOPE  H15S 6876   3.283   4.655   3.973  2.5424  0.2972 -2.6839
   77SOPE  C216 6877   3.129   4.499   3.968  0.0307 -0.0965 -0.1434
   77SOPE  H16R 6878   3.082   4.549   4.055  1.3933  1.2945 -0.1856
   77SOPE  H16S 6879   3.126   4.388   3.978  1.1486  0.1033  2.9892
   77SOPE  C217 6880   3.061   4.554   3.841 -0.6973 -0.2766 -0.1808
   77SOPE  H17R 6881   3.099   4.498   3.753 -1.2435 -0.6185 -0.1975
   77SOPE  H17S 6882   3.082   4.663   3.835 -0.6853 -0.2907 -0.4126
   77SOPE  C218 6883   2.911   4.541   3.848  0.4358  0.0842  0.8698
   77SOPE  H18R 6884   2.876   4.435   3.856  0.9293 -0.3679 -2.3426
   77SOPE  H18S 6885   2.861   4.586   3.760  0.3725 -0.2078  0.7550
   77SOPE  H18T 6886   2.874   4.601   3.934  0.6235 -0.6195  1.4480
   77SOPE   C33 6887   3.332   4.744   5.587 -0.0777 -0.5091 -0.1261
   77SOPE   H3X 6888   3.243   4.810   5.576  0.8986  1.1682  1.6884
   77SOPE   H3Y 6889   3.306   4.641   5.556  1.6027 -1.7296  2.3880
   77SOPE   C34 6890   3.441   4.794   5.493  0.2901  0.1944 -0.6051
   77SOPE   H4X 6891   3.527   4.733   5.527 -0.7413 -0.9380 -0.0046
   77SOPE   H4Y 6892   3.460   4.904   5.494 -2.9270  0.7932 -2.0341
   77SOPE   C35 6893   3.430   4.768   5.344 -0.0300 -0.1388 -0.2052
   77SOPE   H5X 6894   3.348   4.827   5.299 -0.8931 -0.4478  0.9325
   77SOPE   H5Y 6895   3.402   4.661   5.334 -1.5891  0.3301 -1.0065
   77SOPE   C36 6896   3.559   4.795   5.263  0.3283 -0.0199 -0.3231
   77SOPE   H6X 6897   3.644   4.743   5.313 -1.3851 -1.2283  1.4225
   77SOPE   H6Y 6898   3.567   4.905   5.279  0.5891  0.2008 -1.9201
   77SOPE   C37 6899   3.538   4.757   5.114  0.0717 -0.0356 -0.0991
   77SOPE   H7X 6900   3.433   4.774   5.084 -0.5440  0.4447  2.2411
   77SOPE   H7Y 6901   3.557   4.649   5.093 -0.2724  0.1601 -1.5125
   77SOPE   C38 6902   3.647   4.831   5.036 -0.1641  0.2322 -0.0630
   77SOPE   H8X 6903   3.743   4.786   5.070  0.8066  0.5736 -2.2796
   77SOPE   H8Y 6904   3.638   4.940   5.056  1.3289 -0.0118  2.1474
   77SOPE   C39 6905   3.635   4.809   4.880 -0.4272 -0.8958  0.3725
   77SOPE   H9X 6906   3.688   4.895   4.833  0.2592 -1.6139 -0.2000
   77SOPE   H9Y 6907   3.528   4.806   4.852 -1.0869 -0.1815  2.7340
   77SOPE  C310 6908   3.686   4.668   4.837 -0.1115 -0.1294  0.1066
   77SOPE  H10X 6909   3.618   4.596   4.886 -1.2088  1.4994  1.0401
   77SOPE  H10Y 6910   3.789   4.654   4.876 -0.1509  1.5039  0.8425
   77SOPE  C311 6911   3.707   4.631   4.689  0.0335 -0.0408  0.4210
   77SOPE  H11X 6912   3.774   4.709   4.646 -2.8310  0.8657 -2.5735
   77SOPE  H11Y 6913   3.610   4.633   4.635  0.1994  0.2222  0.1253
   77SOPE  C312 6914   3.771   4.491   4.668  0.3512 -0.7116  0.3096
   77SOPE  H12X 6915   3.690   4.415   4.677 -1.1311  0.5758 -1.7351
   77SOPE  H12Y 6916   3.853   4.487   4.742  0.3711  1.7844  0.4731
   77SOPE  C313 6917   3.830   4.472   4.525 -0.4013  0.1316 -0.3067
   77SOPE  H13X 6918   3.756   4.469   4.442 -1.7223  1.3619  0.8027
   77SOPE  H13Y 6919   3.881   4.373   4.521  2.1168  1.4736 -4.1269
   77SOPE  C314 6920   3.944   4.570   4.492  0.5825 -0.9136  0.3957
   77SOPE  H14X 6921   4.009   4.582   4.582  0.5210 -1.5230  0.5220
   77SOPE  H14Y 6922   3.900   4.671   4.475  1.0665 -1.0598 -1.9017
   77SOPE  C315 6923   4.016   4.539   4.363 -0.3263 -0.1055 -0.0301
   77SOPE  H15X 6924   4.069   4.443   4.381  1.6348  1.2191  1.5091
   77SOPE  H15Y 6925   4.108   4.597   4.341 -1.1079 -0.0341 -3.3316
   77SOPE  C316 6926   3.935   4.527   4.231 -0.3116 -0.0582 -0.9575
   77SOPE  H16X 6927   3.882   4.430   4.246 -0.2572  0.0920  0.3245
   77SOPE  H16Y 6928   4.002   4.503   4.146  2.5548  1.9040  0.6715
   77SOPE  C317 6929   3.842   4.644   4.200 -0.0984 -0.6396 -0.2500
   77SOPE  H17X 6930   3.901   4.715   4.139 -3.2083  1.3463 -1.0843
   77SOPE  H17Y 6931   3.811   4.694   4.294 -1.2422  1.1588 -1.5483
   77SOPE  C318 6932   3.716   4.612   4.121 -0.1426  0.5300 -0.2108
   77SOPE  H18X 6933   3.737   4.616   4.011 -2.4753 -3.5738 -0.9117
   77SOPE  H18Y 6934   3.637   4.689   4.130  0.8264  1.6533 -1.0678
   77SOPE  H18Z 6935   3.680   4.507   4.131 -0.9317  0.5058 -2.7839
   78SOPE     N 6936   1.674   4.125   6.286  0.4440  0.0886 -0.3004
   78SOPE   HN1 6937   1.603   4.079   6.347 -0.4456  0.2850 -1.1781
   78SOPE   HN2 6938   1.635   4.164   6.198  0.7801 -0.3887 -0.6628
   78SOPE   HN3 6939   1.730   4.041   6.259  2.5613  1.1824  0.5934
   78SOPE   C12 6940   1.759   4.233   6.353 -0.8887  0.3281  0.1837
   78SOPE  H12A 6941   1.776   4.202   6.458  0.1780  1.7252  0.4443
   78SOPE  H12B 6942   1.708   4.332   6.355 -1.8507 -0.2019  1.5173
   78SOPE   C11 6943   1.895   4.248   6.279  0.8747 -0.0220  0.0657
   78SOPE  H11A 6944   1.950   4.338   6.313  0.8988  0.4123 -1.1018
   78SOPE  H11B 6945   1.872   4.277   6.174  1.8737 -0.7202 -0.3436
   78SOPE     P 6946   1.981   4.032   6.170 -0.1034  0.4265  0.2726
   78SOPE   O13 6947   1.854   3.958   6.188 -0.2288 -0.0744 -0.1276
   78SOPE   O14 6948   2.100   3.944   6.179  0.3199 -0.6210  0.3301
   78SOPE   O12 6949   1.977   4.134   6.292 -0.0497  0.4816 -0.1166
   78SOPE   O11 6950   1.975   4.122   6.041 -0.0108  0.2513  0.9703
   78SOPE    C1 6951   2.095   4.177   5.986 -0.2043 -0.1903 -0.4684
   78SOPE    HA 6952   2.104   4.140   5.882 -1.9425  0.5326 -0.8974
   78SOPE    HB 6953   2.184   4.160   6.050 -1.2826  3.3225  2.0957
   78SOPE    C2 6954   2.070   4.331   5.979 -0.5343  0.2022 -0.3057
   78SOPE    HS 6955   2.051   4.351   6.087  0.6950 -0.0382 -0.0411
   78SOPE   O21 6956   1.963   4.356   5.884 -0.1779 -0.1284  0.2679
   78SOPE   C21 6957   1.885   4.458   5.919 -0.6628 -0.3332 -0.0328
   78SOPE   O22 6958   1.903   4.526   6.018 -0.1732  0.4094  0.2583
   78SOPE   C22 6959   1.765   4.461   5.821  0.1037 -0.2427  0.6599
   78SOPE   H2R 6960   1.675   4.485   5.881  0.3894 -0.4975  1.2032
   78SOPE   H2S 6961   1.750   4.362   5.773 -0.5145  0.5728 -0.8685
   78SOPE    C3 6962   2.191   4.417   5.930  0.5588  0.8134  0.0433
   78SOPE    HX 6963   2.288   4.402   5.981  0.9318  0.4321 -0.7658
   78SOPE    HY 6964   2.167   4.525   5.937  0.2847  0.9710 -2.7069
   78SOPE   O31 6965   2.217   4.390   5.791  0.7123  0.1275 -0.0199
   78SOPE   C31 6966   2.289   4.285   5.742  0.0023  0.1150 -0.2194
   78SOPE   O32 6967   2.343   4.197   5.807  0.5827  0.6039  0.4711
   78SOPE   C32 6968   2.290   4.291   5.586  0.2715  0.5690  1.2267
   78SOPE   H2X 6969   2.322   4.393   5.556  0.6723  0.2616  0.5973
   78SOPE   H2Y 6970   2.185   4.280   5.552  0.5521 -0.3954  0.6461
   78SOPE   C23 6971   1.798   4.564   5.704  0.0779 -0.4288 -0.2995
   78SOPE   H3R 6972   1.827   4.667   5.734  0.8218 -0.6003 -0.4111
   78SOPE   H3S 6973   1.695   4.573   5.664 -0.0912  1.7826  0.5657
   78SOPE   C24 6974   1.889   4.517   5.595 -0.7899  0.0664  1.5952
   78SOPE   H4R 6975   1.936   4.606   5.548 -0.0196 -1.6577 -1.0211
   78SOPE   H4S 6976   1.977   4.472   5.646  0.2748  1.2332  0.8137
   78SOPE   C25 6977   1.837   4.430   5.473  0.3794  0.1253 -0.1769
   78SOPE   H5R 6978   1.930   4.378   5.442  0.7219 -0.5505  1.8918
   78SOPE   H5S 6979   1.777   4.350   5.521  0.0743  1.0675  1.0144
   78SOPE   C26 6980   1.773   4.510   5.361  0.1363  0.2374  0.5254
   78SOPE   H6R 6981   1.702   4.584   5.401 -1.4321  0.2215 -2.1294
   78SOPE   H6S 6982   1.858   4.560   5.308 -0.1917 -0.3526 -0.5766
   78SOPE   C27 6983   1.718   4.410   5.249 -0.5224 -0.1138 -0.1319
   78SOPE   H7R 6984   1.788   4.325   5.259 -0.5432 -0.0277  0.7688
   78SOPE   H7S 6985   1.619   4.370   5.279 -0.4391 -1.6060 -1.7652
   78SOPE   C28 6986   1.725   4.462   5.107 -0.3114 -0.6541 -0.7633
   78SOPE   H8R 6987   1.644   4.536   5.092 -1.6327 -1.1639  3.3036
   78SOPE   H8S 6988   1.818   4.519   5.089 -0.7338  0.6179  0.9973
   78SOPE   C29 6989   1.711   4.364   4.997 -0.1407 -0.2156  0.4321
   78SOPE   H91 6990   1.811   4.328   4.969  0.5440 -0.0698  2.6372
   78SOPE  C210 6991   1.598   4.335   4.934  0.1851  0.6297  0.4334
   78SOPE  H101 6992   1.600   4.253   4.860 -2.0295  1.7920 -0.9760
   78SOPE  C211 6993   1.461   4.391   4.981 -0.8634  0.1244  0.6436
   78SOPE  H11R 6994   1.421   4.430   4.884  0.4347  0.1809  0.1280
   78SOPE  H11S 6995   1.462   4.473   5.055  2.6252  2.2943 -1.6442
   78SOPE  C212 6996   1.375   4.287   5.052 -0.1673 -0.0619 -0.7190
   78SOPE  H12R 6997   1.420   4.256   5.149 -1.1236 -1.3605 -0.6735
   78SOPE  H12S 6998   1.359   4.200   4.986  0.1668 -1.3439  0.8586
   78SOPE  C213 6999   1.231   4.333   5.078 -0.2953  0.5308  1.4823
   78SOPE  H13R 7000   1.183   4.244   5.124  1.8671 -2.3377 -1.5796
   78SOPE  H13S 7001   1.187   4.348   4.977  0.3000 -0.3333  1.0892
   78SOPE  C214 7002   1.226   4.451   5.183 -0.3205  0.0569  0.4454
   78SOPE  H14R 7003   1.122   4.489   5.184  0.0301  1.0561 -0.1697
   78SOPE  H14S 7004   1.291   4.534   5.147 -1.8843  0.8858 -0.5151
   78SOPE  C215 7005   1.244   4.393   5.325 -0.3231  0.0755 -0.3000
   78SOPE  H15R 7006   1.346   4.349   5.327 -1.1020 -1.8868  4.7889
   78SOPE  H15S 7007   1.180   4.303   5.342  1.4442 -1.4266 -1.3638
   78SOPE  C216 7008   1.236   4.494   5.431  0.4361  0.3917  0.4013
   78SOPE  H16R 7009   1.133   4.532   5.444  0.4604  0.3421  0.7489
   78SOPE  H16S 7010   1.298   4.586   5.417  1.1290 -0.1288  0.0449
   78SOPE  C217 7011   1.264   4.431   5.568 -0.1365 -0.0554 -0.2641
   78SOPE  H17R 7012   1.355   4.368   5.566  1.2396  1.8822  0.2496
   78SOPE  H17S 7013   1.180   4.363   5.596  2.1342 -2.5710  0.6144
   78SOPE  C218 7014   1.294   4.532   5.679  0.2923 -0.8114 -0.3962
   78SOPE  H18R 7015   1.400   4.562   5.664  0.1793 -1.4329 -2.5523
   78SOPE  H18S 7016   1.278   4.483   5.778 -1.5603  0.6699  0.0586
   78SOPE  H18T 7017   1.230   4.621   5.692  1.6809 -0.0751  1.5758
   78SOPE   C33 7018   2.385   4.190   5.525  0.0713 -0.4160  0.4188
   78SOPE   H3X 7019   2.366   4.089   5.567 -0.5998 -0.9733 -1.1920
   78SOPE   H3Y 7020   2.491   4.218   5.543  0.1792  1.3159 -2.6168
   78SOPE   C34 7021   2.377   4.196   5.368 -0.4772 -0.0056 -0.1560
   78SOPE   H4X 7022   2.421   4.290   5.329  0.2663  0.3516  1.4740
   78SOPE   H4Y 7023   2.270   4.217   5.345 -1.2175 -1.4504  1.8419
   78SOPE   C35 7024   2.424   4.079   5.284 -0.0798  0.6048 -0.5412
   78SOPE   H5X 7025   2.390   3.983   5.329 -1.7610  1.7285  0.6459
   78SOPE   H5Y 7026   2.533   4.061   5.295 -0.6458 -3.4328 -0.8460
   78SOPE   C36 7027   2.376   4.061   5.136  0.5879  0.4502 -0.7924
   78SOPE   H6X 7028   2.266   4.052   5.128  0.8692 -3.9515 -0.8013
   78SOPE   H6Y 7029   2.414   3.962   5.103  0.1295  0.1651 -0.4722
   78SOPE   C37 7030   2.429   4.176   5.046 -0.4699 -0.1081 -0.8320
   78SOPE   H7X 7031   2.537   4.191   5.068 -0.4339 -0.5809 -0.6888
   78SOPE   H7Y 7032   2.387   4.276   5.068  1.6868  0.8309 -0.8135
   78SOPE   C38 7033   2.423   4.133   4.899  0.2565  0.1943 -0.2154
   78SOPE   H8X 7034   2.327   4.082   4.879 -0.3863  0.9135  1.0355
   78SOPE   H8Y 7035   2.506   4.059   4.891 -0.0676 -0.2868  0.8402
   78SOPE   C39 7036   2.464   4.244   4.799 -0.1404 -0.5239 -0.2415
   78SOPE   H9X 7037   2.568   4.268   4.828 -1.2205  0.3613  3.1682
   78SOPE   H9Y 7038   2.405   4.333   4.828  1.8713  0.8145 -0.1701
   78SOPE  C310 7039   2.453   4.216   4.647  0.2567 -0.0438  0.3240
   78SOPE  H10X 7040   2.524   4.136   4.619  0.2632 -0.4637  1.4856
   78SOPE  H10Y 7041   2.501   4.305   4.602 -0.5730  1.6427  2.6640
   78SOPE  C311 7042   2.310   4.175   4.612 -0.6009 -0.7133  0.0444
   78SOPE  H11X 7043   2.247   4.265   4.626  0.6681  0.6034 -2.3293
   78SOPE  H11Y 7044   2.273   4.089   4.671 -1.3366 -1.3745 -1.3522
   78SOPE  C312 7045   2.309   4.121   4.470 -0.3757 -0.6029  0.3319
   78SOPE  H12X 7046   2.208   4.079   4.453 -1.0209  1.5829 -1.4488
   78SOPE  H12Y 7047   2.384   4.040   4.460  1.3681  1.0255 -0.0487
   78SOPE  C313 7048   2.329   4.230   4.367 -0.3491 -0.3939  0.2209
   78SOPE  H13X 7049   2.432   4.271   4.377 -0.0255 -1.4339  1.4012
   78SOPE  H13Y 7050   2.264   4.315   4.396 -0.0373 -0.4774  1.1733
   78SOPE  C314 7051   2.312   4.171   4.223  0.3998  0.1795 -0.8418
   78SOPE  H14X 7052   2.212   4.126   4.210 -0.2626  1.1605  0.7154
   78SOPE  H14Y 7053   2.392   4.095   4.211 -0.4064 -0.8204  0.1207
   78SOPE  C315 7054   2.347   4.273   4.115  0.3727 -0.5933  0.2284
   78SOPE  H15X 7055   2.294   4.367   4.141  2.6189  0.4003  1.3108
   78SOPE  H15Y 7056   2.296   4.220   4.031 -0.2112  1.1292 -0.5126
   78SOPE  C316 7057   2.494   4.299   4.097 -0.2069 -0.0990 -0.0153
   78SOPE  H16X 7058   2.536   4.213   4.041 -0.9157  0.7775 -1.9388
   78SOPE  H16Y 7059   2.550   4.298   4.193 -0.5277  3.5329  0.2705
   78SOPE  C317 7060   2.532   4.407   4.004 -0.0258 -0.1758  0.2463
   78SOPE  H17X 7061   2.640   4.434   4.009 -0.2282  0.8761 -0.6991
   78SOPE  H17Y 7062   2.474   4.498   4.028 -0.4843 -0.0069 -1.4052
   78SOPE  C318 7063   2.504   4.370   3.858  0.2806 -0.7739  0.1166
   78SOPE  H18X 7064   2.547   4.271   3.830  0.3818 -1.3213  2.1559
   78SOPE  H18Y 7065   2.548   4.453   3.800  0.5716 -0.5582  0.6425
   78SOPE  H18Z 7066   2.394   4.379   3.843  0.1671 -1.3099  0.5989
   79SOPE     N 7067   4.483   1.498   5.959 -0.1568 -0.2231  0.6496
   79SOPE   HN1 7068   4.518   1.577   5.900  0.6046 -0.7489  0.3780
   79SOPE   HN2 7069   4.571   1.442   5.968  0.4103  0.8331  1.7035
   79SOPE   HN3 7070   4.424   1.436   5.899 -0.3421  0.2350  0.3566
   79SOPE   C12 7071   4.449   1.539   6.104  0.6536 -0.7238  0.2754
   79SOPE  H12A 7072   4.535   1.598   6.140  0.1318  0.6406 -0.6564
   79SOPE  H12B 7073   4.444   1.447   6.166 -0.8225 -1.2514 -0.5972
   79SOPE   C11 7074   4.312   1.609   6.102  0.2750 -0.0596 -0.1035
   79SOPE  H11A 7075   4.290   1.633   6.209 -0.5485  0.4813 -0.3920
   79SOPE  H11B 7076   4.232   1.540   6.066  0.7171 -2.4831  3.2629
   79SOPE     P 7077   4.234   1.859   6.069  0.1049  0.0524  0.2610
   79SOPE   O13 7078   4.318   1.947   6.156  0.4332 -0.2588 -0.1650
   79SOPE   O14 7079   4.103   1.817   6.122  0.1096  0.5641  0.3953
   79SOPE   O12 7080   4.310   1.728   6.027 -0.1239 -0.9863  0.3716
   79SOPE   O11 7081   4.211   1.934   5.938  0.1447 -0.3307 -0.0118
   79SOPE    C1 7082   4.083   1.990   5.907 -0.5432  0.6190 -0.6772
   79SOPE    HA 7083   4.103   2.091   5.865 -0.7254  2.0676  2.6104
   79SOPE    HB 7084   4.012   1.995   5.992  1.0599 -0.4989  0.7519
   79SOPE    C2 7085   4.006   1.896   5.804  0.2606 -0.4393 -0.6815
   79SOPE    HS 7086   3.986   1.801   5.858 -0.2922  0.3834  0.5771
   79SOPE   O21 7087   4.082   1.873   5.685  0.1523  0.5115  0.0335
   79SOPE   C21 7088   4.069   1.752   5.638 -0.4334  0.7935  0.1595
   79SOPE   O22 7089   4.010   1.661   5.694  0.1627 -0.3036 -0.8169
   79SOPE   C22 7090   4.142   1.739   5.508 -0.3066  0.1958 -0.1025
   79SOPE   H2R 7091   4.186   1.638   5.505  0.8923  0.6088  2.1346
   79SOPE   H2S 7092   4.219   1.817   5.492 -0.5798  0.7858  1.2982
   79SOPE    C3 7093   3.854   1.939   5.778 -0.3444  0.1527 -0.2264
   79SOPE    HX 7094   3.789   1.945   5.868 -1.3150  1.0847 -0.9703
   79SOPE    HY 7095   3.815   1.858   5.712  0.7346 -1.0453  0.5698
   79SOPE   O31 7096   3.841   2.057   5.697  0.4087  0.3041 -0.1037
   79SOPE   C31 7097   3.833   2.168   5.765  0.0554 -0.8566  0.3598
   79SOPE   O32 7098   3.839   2.185   5.886  0.1060 -0.2969  0.5460
   79SOPE   C32 7099   3.836   2.286   5.662 -0.0003 -0.1830 -0.9960
   79SOPE   H2X 7100   3.928   2.268   5.603 -0.4329 -1.6298 -1.2361
   79SOPE   H2Y 7101   3.859   2.372   5.728  1.5464 -0.4162 -1.2138
   79SOPE   C23 7102   4.042   1.741   5.390  0.6267 -0.0060 -0.5962
   79SOPE   H3R 7103   3.982   1.834   5.388  0.2144 -0.2664 -0.3780
   79SOPE   H3S 7104   3.965   1.665   5.418  0.5166 -0.0707 -1.0690
   79SOPE   C24 7105   4.112   1.706   5.264 -0.1798 -0.8154 -0.5373
   79SOPE   H4R 7106   4.196   1.775   5.240  0.8521 -2.9345 -3.2127
   79SOPE   H4S 7107   4.159   1.606   5.269  1.1180 -0.1518  1.2275
   79SOPE   C25 7108   4.016   1.713   5.143 -0.1698  0.4561  0.3176
   79SOPE   H5R 7109   3.948   1.629   5.169  0.6217  0.3578  2.1650
   79SOPE   H5S 7110   3.945   1.798   5.149 -1.7003 -0.6462 -1.8328
   79SOPE   C26 7111   4.074   1.707   5.002 -0.2922 -0.0873  0.5432
   79SOPE   H6R 7112   4.149   1.783   4.972 -0.3039 -1.6836 -3.7440
   79SOPE   H6S 7113   4.124   1.609   4.989  1.5110  0.4066  3.3917
   79SOPE   C27 7114   3.964   1.716   4.891 -0.2825 -0.5547  0.2181
   79SOPE   H7R 7115   3.927   1.616   4.860 -3.1110  0.4696  0.1453
   79SOPE   H7S 7116   3.877   1.759   4.946 -0.9491 -2.7580  0.9338
   79SOPE   C28 7117   4.001   1.802   4.767  0.1663  0.0185 -0.3332
   79SOPE   H8R 7118   3.913   1.825   4.703 -1.1426  2.2285  2.1573
   79SOPE   H8S 7119   4.033   1.904   4.798  1.7131  0.5426 -3.4197
   79SOPE   C29 7120   4.098   1.729   4.680  1.2054  0.1689 -0.0620
   79SOPE   H91 7121   4.050   1.641   4.633  1.1756 -0.2700  0.7868
   79SOPE  C210 7122   4.228   1.744   4.665 -0.5671  0.2589  0.2206
   79SOPE  H101 7123   4.282   1.676   4.598  1.7772  2.4643 -0.1765
   79SOPE  C211 7124   4.300   1.852   4.733  0.6060 -0.0787  0.3472
   79SOPE  H11R 7125   4.234   1.910   4.801 -0.1920 -1.5523  0.8560
   79SOPE  H11S 7126   4.349   1.912   4.653 -1.5801 -0.6744 -1.4969
   79SOPE  C212 7127   4.414   1.791   4.818 -0.1518  0.0238 -0.4686
   79SOPE  H12R 7128   4.474   1.711   4.772 -0.0814 -0.4569  0.4391
   79SOPE  H12S 7129   4.358   1.753   4.907 -0.4777 -0.6923 -0.9777
   79SOPE  C213 7130   4.519   1.902   4.850  0.1139 -0.2939  0.0777
   79SOPE  H13R 7131   4.466   1.993   4.886  1.9745  0.5837  0.6401
   79SOPE  H13S 7132   4.561   1.917   4.748  0.6305 -0.7907  0.2134
   79SOPE  C214 7133   4.617   1.858   4.958  0.2506 -0.3152  0.1562
   79SOPE  H14R 7134   4.705   1.925   4.949  0.9615 -1.1725  0.6124
   79SOPE  H14S 7135   4.660   1.758   4.935  0.0637 -0.7438  1.6311
   79SOPE  C215 7136   4.573   1.851   5.103 -0.7919  0.1908 -0.1046
   79SOPE  H15R 7137   4.499   1.770   5.122 -0.1985 -0.0755  1.1710
   79SOPE  H15S 7138   4.519   1.944   5.131 -2.2852 -0.9552  0.9153
   79SOPE  C216 7139   4.697   1.854   5.204  0.0206  0.5872  0.3821
   79SOPE  H16R 7140   4.750   1.942   5.162 -0.3329  0.3201 -0.6431
   79SOPE  H16S 7141   4.763   1.765   5.203  3.6103  3.1506 -1.1559
   79SOPE  C217 7142   4.649   1.884   5.342 -0.2875 -0.1055 -0.4868
   79SOPE  H17R 7143   4.603   1.985   5.340 -0.2100 -0.0681 -0.3919
   79SOPE  H17S 7144   4.733   1.905   5.412 -1.9705 -2.8968  2.4884
   79SOPE  C218 7145   4.568   1.776   5.412 -0.2660 -0.5585  0.0255
   79SOPE  H18R 7146   4.516   1.810   5.505  0.8282  1.1065  0.0459
   79SOPE  H18S 7147   4.643   1.696   5.427 -1.1940 -1.3274  0.6178
   79SOPE  H18T 7148   4.497   1.734   5.338  1.0251  0.1586 -1.6376
   79SOPE   C33 7149   3.730   2.309   5.557  0.4836  0.2648  0.0030
   79SOPE   H3X 7150   3.634   2.338   5.605 -0.8558 -0.8512 -1.9303
   79SOPE   H3Y 7151   3.718   2.215   5.500 -1.5165  0.5785 -0.1444
   79SOPE   C34 7152   3.770   2.419   5.454 -0.5403  0.1783  1.2605
   79SOPE   H4X 7153   3.851   2.365   5.400 -1.7426  0.6543 -1.0939
   79SOPE   H4Y 7154   3.799   2.507   5.515  0.1672  0.2226  0.8699
   79SOPE   C35 7155   3.657   2.464   5.365  0.3383  0.0895  0.0831
   79SOPE   H5X 7156   3.580   2.512   5.429  0.2613  0.7684 -0.5185
   79SOPE   H5Y 7157   3.617   2.368   5.326  1.0669 -0.8689  1.6723
   79SOPE   C36 7158   3.701   2.554   5.251  0.1681 -0.3562  0.0392
   79SOPE   H6X 7159   3.775   2.509   5.181  1.7429  1.6352  0.3974
   79SOPE   H6Y 7160   3.758   2.648   5.269 -0.9583  0.9623 -2.9233
   79SOPE   C37 7161   3.579   2.602   5.165 -0.1079  0.4949  0.0944
   79SOPE   H7X 7162   3.604   2.696   5.111 -2.8936  1.4751  0.4792
   79SOPE   H7Y 7163   3.496   2.634   5.231  0.7188 -0.6610  1.7319
   79SOPE   C38 7164   3.526   2.488   5.072 -0.6907  0.2855  0.8121
   79SOPE   H8X 7165   3.448   2.433   5.130 -0.8419 -0.5876 -0.2082
   79SOPE   H8Y 7166   3.606   2.416   5.049 -1.0183 -0.1577  1.0546
   79SOPE   C39 7167   3.464   2.537   4.944  0.0084 -1.1049  0.7805
   79SOPE   H9X 7168   3.416   2.633   4.972 -0.6948 -0.8639 -1.1391
   79SOPE   H9Y 7169   3.388   2.471   4.898 -0.2697  0.4444 -1.0521
   79SOPE  C310 7170   3.588   2.576   4.844  0.7602  0.6288  0.2948
   79SOPE  H10X 7171   3.665   2.639   4.893 -0.0660  3.4883 -1.9685
   79SOPE  H10Y 7172   3.533   2.620   4.758  0.1404 -0.5829  0.0574
   79SOPE  C311 7173   3.661   2.446   4.785 -0.0959  0.8951 -0.0696
   79SOPE  H11X 7174   3.710   2.385   4.864 -0.4368 -1.9646 -1.9937
   79SOPE  H11Y 7175   3.736   2.474   4.708 -1.1222 -0.1083 -1.4700
   79SOPE  C312 7176   3.568   2.347   4.719 -0.5771 -0.2392  1.0021
   79SOPE  H12X 7177   3.502   2.391   4.641  1.3783  0.7872 -0.1136
   79SOPE  H12Y 7178   3.496   2.303   4.790 -2.4549 -0.9753 -1.2849
   79SOPE  C313 7179   3.648   2.229   4.661 -0.1223 -0.2031 -0.4902
   79SOPE  H13X 7180   3.733   2.273   4.605 -0.1684 -0.9388 -1.1507
   79SOPE  H13Y 7181   3.589   2.178   4.582  0.3438  1.2331 -1.7881
   79SOPE  C314 7182   3.695   2.127   4.766  0.2762 -0.2855  0.2844
   79SOPE  H14X 7183   3.734   2.181   4.856  0.5630  0.5316 -0.3220
   79SOPE  H14Y 7184   3.781   2.064   4.735 -1.9109 -1.4456 -3.6005
   79SOPE  C315 7185   3.588   2.028   4.784 -0.2427  0.3473 -0.0377
   79SOPE  H15X 7186   3.579   1.958   4.699  0.1639 -4.1707  3.4363
   79SOPE  H15Y 7187   3.493   2.086   4.788  0.4198  1.4895 -0.6415
   79SOPE  C316 7188   3.612   1.949   4.918 -0.2957 -0.3960 -0.1783
   79SOPE  H16X 7189   3.715   1.907   4.925  0.2487  0.3577 -3.1265
   79SOPE  H16Y 7190   3.530   1.874   4.920  0.0241 -0.7934 -1.6400
   79SOPE  C317 7191   3.573   2.031   5.045  0.2671  0.1055  0.1089
   79SOPE  H17X 7192   3.465   2.059   5.042  0.2726  0.0596 -0.8644
   79SOPE  H17Y 7193   3.628   2.128   5.040 -0.5850  0.7258  2.1463
   79SOPE  C318 7194   3.604   1.964   5.183  0.2930  0.2396  0.7334
   79SOPE  H18X 7195   3.713   1.944   5.180 -0.1254 -1.9721 -0.3569
   79SOPE  H18Y 7196   3.542   1.873   5.196 -1.7059  1.4921  0.2220
   79SOPE  H18Z 7197   3.579   2.038   5.262  3.6178 -0.3000  2.4147
   80SOPE     N 7198   2.389   4.868   6.551  0.1679  0.1394  0.3921
   80SOPE   HN1 7199   2.483   4.843   6.589  0.5847  0.5336 -0.3625
   80SOPE   HN2 7200   2.391   4.965   6.513 -0.5090 -0.1807 -0.4918
   80SOPE   HN3 7201   2.321   4.847   6.626  1.9111  0.2261  2.0255
   80SOPE   C12 7202   2.360   4.780   6.431  0.6866 -0.4811 -0.3025
   80SOPE  H12A 7203   2.252   4.787   6.406  0.4219  1.0278  1.1809
   80SOPE  H12B 7204   2.379   4.674   6.458 -2.1302 -0.8252  0.4677
   80SOPE   C11 7205   2.452   4.820   6.316  0.1406 -0.6910  0.6108
   80SOPE  H11A 7206   2.408   4.787   6.220  0.1743 -0.4722  0.5209
   80SOPE  H11B 7207   2.552   4.771   6.323  1.7150  2.3664  0.5949
   80SOPE     P 7208   2.529   5.025   6.180  0.1299 -0.0319  0.4399
   80SOPE   O13 7209   2.638   4.937   6.133  0.2906 -0.1536  0.8662
   80SOPE   O14 7210   2.553   5.173   6.186 -0.0178  0.4503  0.1197
   80SOPE   O12 7211   2.463   4.962   6.313  0.2129  0.1347 -0.1445
   80SOPE   O11 7212   2.422   5.001   6.071  0.1445 -1.0090  0.2170
   80SOPE    C1 7213   2.286   5.046   6.084 -0.4727 -0.1356  0.3011
   80SOPE    HA 7214   2.278   5.120   6.166  2.7738  0.8142 -0.1652
   80SOPE    HB 7215   2.221   4.964   6.121  0.6104  0.0422  2.6978
   80SOPE    C2 7216   2.235   5.105   5.952 -0.6943  0.4731  0.0929
   80SOPE    HS 7217   2.132   5.142   5.969 -1.4748 -0.9698 -1.3689
   80SOPE   O21 7218   2.230   5.004   5.854  0.4057  0.1872 -0.3794
   80SOPE   C21 7219   2.127   4.925   5.853 -0.2205 -0.0192 -0.7971
   80SOPE   O22 7220   2.033   4.936   5.926  0.4405  0.1272 -0.7478
   80SOPE   C22 7221   2.121   4.841   5.727  0.5474  0.1541 -0.1245
   80SOPE   H2R 7222   2.085   4.912   5.649 -1.3900 -0.3343  0.2902
   80SOPE   H2S 7223   2.051   4.757   5.746 -2.0901  1.6715 -2.7292
   80SOPE    C3 7224   2.330   5.215   5.896 -0.8016 -0.4774 -0.8810
   80SOPE    HX 7225   2.432   5.172   5.900 -0.1206  1.2216  0.5980
   80SOPE    HY 7226   2.331   5.288   5.979  0.3241 -2.7758  1.2095
   80SOPE   O31 7227   2.304   5.282   5.773  0.3012  0.6357 -0.0813
   80SOPE   C31 7228   2.194   5.353   5.773  0.4553 -0.3471 -0.2456
   80SOPE   O32 7229   2.115   5.362   5.866 -0.4888  0.0420 -0.4526
   80SOPE   C32 7230   2.171   5.401   5.632  0.4751 -0.1443  0.5208
   80SOPE   H2X 7231   2.266   5.444   5.594  1.4329 -2.9348 -0.3526
   80SOPE   H2Y 7232   2.092   5.478   5.640 -0.9354 -1.2133 -2.3198
   80SOPE   C23 7233   2.259   4.788   5.687  0.2289  0.1067 -0.7321
   80SOPE   H3R 7234   2.283   4.699   5.748  0.4315 -0.4412 -1.5984
   80SOPE   H3S 7235   2.349   4.852   5.696  0.3682 -0.3427  1.2998
   80SOPE   C24 7236   2.258   4.730   5.537 -0.8105 -0.4674 -0.4448
   80SOPE   H4R 7237   2.345   4.662   5.541 -0.8282 -0.6469 -2.7249
   80SOPE   H4S 7238   2.159   4.680   5.531 -0.6941 -0.9098  1.1410
   80SOPE   C25 7239   2.271   4.846   5.449  0.7590  0.2035  0.3512
   80SOPE   H5R 7240   2.199   4.930   5.459  0.7003 -0.0340  2.0897
   80SOPE   H5S 7241   2.374   4.886   5.445  0.1007  1.7988 -1.2805
   80SOPE   C26 7242   2.252   4.803   5.306 -0.5994  0.5718 -0.0620
   80SOPE   H6R 7243   2.264   4.898   5.249 -1.0048  0.0396 -1.0310
   80SOPE   H6S 7244   2.339   4.735   5.289 -1.5888 -0.9683  0.9594
   80SOPE   C27 7245   2.119   4.735   5.264 -0.3736 -0.2892 -0.3289
   80SOPE   H7R 7246   2.114   4.634   5.310  1.8863 -0.3599 -0.1531
   80SOPE   H7S 7247   2.038   4.800   5.303  0.6817  0.3788  0.8174
   80SOPE   C28 7248   2.106   4.733   5.111  0.0448  0.5006  0.7555
   80SOPE   H8R 7249   2.005   4.688   5.105 -0.4585  1.7575 -0.3732
   80SOPE   H8S 7250   2.120   4.827   5.053  3.8666 -1.0802 -1.0563
   80SOPE   C29 7251   2.193   4.628   5.058 -0.1964 -0.1207  0.5593
   80SOPE   H91 7252   2.295   4.623   5.099  0.9397  2.9452 -1.6877
   80SOPE  C210 7253   2.169   4.536   4.964 -0.2682 -0.3257  0.0314
   80SOPE  H101 7254   2.253   4.479   4.919 -0.6141  0.1569 -1.2270
   80SOPE  C211 7255   2.043   4.512   4.882 -0.5419 -0.1675 -0.3695
   80SOPE  H11R 7256   1.994   4.608   4.857  0.1923  0.4818  0.6933
   80SOPE  H11S 7257   1.983   4.444   4.946  0.5017  1.0325  1.9183
   80SOPE  C212 7258   2.069   4.435   4.750  0.4331  0.3402 -0.2379
   80SOPE  H12R 7259   2.119   4.338   4.773 -0.0597  0.1112 -0.1318
   80SOPE  H12S 7260   2.117   4.491   4.667 -0.8472  1.0257 -0.5229
   80SOPE  C213 7261   1.932   4.385   4.682 -0.2937  0.0810 -0.1499
   80SOPE  H13R 7262   1.872   4.477   4.662 -3.1482 -1.7100 -0.1056
   80SOPE  H13S 7263   1.884   4.316   4.754 -0.3950  0.3733  0.0673
   80SOPE  C214 7264   1.951   4.315   4.548  0.5009 -0.0445  0.8096
   80SOPE  H14R 7265   2.030   4.237   4.545 -0.1185 -0.5914 -2.7629
   80SOPE  H14S 7266   1.999   4.390   4.482 -0.7811 -0.8051 -1.0181
   80SOPE  C215 7267   1.821   4.286   4.477 -0.3410  0.1970  0.3300
   80SOPE  H15R 7268   1.755   4.375   4.469 -1.4622 -0.5149  1.3894
   80SOPE  H15S 7269   1.776   4.202   4.534 -0.2119  0.3268  0.6239
   80SOPE  C216 7270   1.840   4.222   4.334  0.2581  0.1711 -0.2436
   80SOPE  H16R 7271   1.741   4.179   4.307  1.1081 -2.3305  0.4420
   80SOPE  H16S 7272   1.917   4.143   4.343  0.0628  0.1089  0.9606
   80SOPE  C217 7273   1.884   4.327   4.229 -0.0598  0.7268  0.2415
   80SOPE  H17R 7274   1.993   4.348   4.230 -0.0227  0.8177 -2.4667
   80SOPE  H17S 7275   1.839   4.426   4.253  1.0212  0.7425  2.3361
   80SOPE  C218 7276   1.840   4.290   4.086 -0.0894 -0.5083 -0.6060
   80SOPE  H18R 7277   1.732   4.263   4.089  0.2194 -1.9103 -1.5453
   80SOPE  H18S 7278   1.898   4.204   4.045  2.0930  0.9067 -0.5661
   80SOPE  H18T 7279   1.863   4.369   4.012  2.2321  0.1721  0.7868
   80SOPE   C33 7280   2.142   5.294   5.523  0.0883 -0.4532  0.0618
   80SOPE   H3X 7281   2.033   5.276   5.510 -0.8344  0.9582  4.9032
   80SOPE   H3Y 7282   2.181   5.196   5.559  0.8111 -0.1279  0.1503
   80SOPE   C34 7283   2.194   5.325   5.383 -0.7268 -0.7357 -0.8166
   80SOPE   H4X 7284   2.305   5.326   5.386 -0.7296  0.2437 -0.6280
   80SOPE   H4Y 7285   2.165   5.430   5.358 -0.3308 -0.8390 -1.7324
   80SOPE   C35 7286   2.129   5.232   5.280  0.4376  0.2757 -0.0590
   80SOPE   H5X 7287   2.020   5.249   5.271  0.2248 -0.7499  0.5211
   80SOPE   H5Y 7288   2.145   5.127   5.312 -1.4184  0.0697  0.2302
   80SOPE   C36 7289   2.186   5.261   5.141 -0.2665  0.0011  0.6340
   80SOPE   H6X 7290   2.297   5.267   5.140 -0.3713  2.5812 -1.0830
   80SOPE   H6Y 7291   2.155   5.364   5.112 -0.0465  0.3187  1.5293
   80SOPE   C37 7292   2.123   5.175   5.033  0.0180  0.0044  0.0235
   80SOPE   H7X 7293   2.012   5.168   5.030 -0.0655 -0.3628  2.8042
   80SOPE   H7Y 7294   2.155   5.070   5.054  0.1956 -0.1422 -0.9777
   80SOPE   C38 7295   2.175   5.201   4.884  0.0700  0.1055  0.3113
   80SOPE   H8X 7296   2.284   5.181   4.884 -0.4843 -3.3161 -2.2830
   80SOPE   H8Y 7297   2.142   5.304   4.859  0.1425 -0.4915 -2.3255
   80SOPE   C39 7298   2.117   5.117   4.767 -0.1030  0.4432 -0.8141
   80SOPE   H9X 7299   2.011   5.148   4.760 -0.3189 -0.1907 -0.3312
   80SOPE   H9Y 7300   2.111   5.012   4.801  1.1747 -0.0083 -1.9412
   80SOPE  C310 7301   2.196   5.142   4.647 -0.1743  0.4049  0.2220
   80SOPE  H10X 7302   2.303   5.118   4.666 -0.1750  0.4237  0.2489
   80SOPE  H10Y 7303   2.195   5.249   4.618 -0.2785  0.7712  1.5527
   80SOPE  C311 7304   2.157   5.048   4.528 -1.2494 -0.1903  0.0931
   80SOPE  H11X 7305   2.047   5.033   4.525 -1.0715 -1.5434 -0.3044
   80SOPE  H11Y 7306   2.202   4.947   4.543 -0.3408  0.3071  0.7220
   80SOPE  C312 7307   2.204   5.123   4.402  1.1109 -0.0212 -0.6464
   80SOPE  H12X 7308   2.314   5.122   4.419  1.2238  0.4125 -1.3308
   80SOPE  H12Y 7309   2.171   5.229   4.399 -3.0047 -1.2180 -0.2133
   80SOPE  C313 7310   2.151   5.066   4.275 -0.3207  0.0607  0.8559
   80SOPE  H13X 7311   2.212   5.116   4.197 -1.5636 -3.2624 -2.4281
   80SOPE  H13Y 7312   2.044   5.091   4.263  0.0682  1.1524 -0.4816
   80SOPE  C314 7313   2.187   4.925   4.243 -0.1726  1.3670  0.2248
   80SOPE  H14X 7314   2.134   4.867   4.322 -0.9941  0.6207 -0.8435
   80SOPE  H14Y 7315   2.296   4.905   4.251 -0.7803 -1.2308  2.7153
   80SOPE  C315 7316   2.139   4.880   4.107 -0.3075  0.1334 -0.0384
   80SOPE  H15X 7317   2.206   4.923   4.029 -1.4781 -0.5641 -1.4348
   80SOPE  H15Y 7318   2.036   4.909   4.078 -0.1942  0.1799 -0.3933
   80SOPE  C316 7319   2.147   4.726   4.084  0.2673  0.0304  0.2430
   80SOPE  H16X 7320   2.089   4.685   4.170  1.3089  0.7828  1.3243
   80SOPE  H16Y 7321   2.254   4.701   4.098 -0.0491 -1.2735  0.3791
   80SOPE  C317 7322   2.093   4.689   3.949 -0.2676  0.0111  0.2125
   80SOPE  H17X 7323   2.133   4.754   3.868  0.0517  0.8380  1.0182
   80SOPE  H17Y 7324   1.991   4.732   3.952 -1.1284 -1.9957  0.5564
   80SOPE  C318 7325   2.088   4.542   3.906  0.4547  0.5286 -0.4931
   80SOPE  H18X 7326   2.188   4.524   3.862 -0.4044 -0.9300 -1.9311
   80SOPE  H18Y 7327   2.003   4.509   3.842 -1.1972  0.1827  1.8102
   80SOPE  H18Z 7328   2.080   4.478   3.997 -1.8044  0.6468 -0.5912
   81SOPE     N 7329   3.067   6.553   6.080  0.3521 -0.2701 -0.4957
   81SOPE   HN1 7330   3.025   6.461   6.055 -0.7957  0.5332 -1.6132
   81SOPE   HN2 7331   2.992   6.617   6.114  0.8160 -0.5659  1.0930
   81SOPE   HN3 7332   3.107   6.591   5.992 -1.0189  2.0382 -0.1778
   81SOPE   C12 7333   3.163   6.546   6.194  0.0832 -0.4378 -0.0966
   81SOPE  H12A 7334   3.191   6.438   6.189  0.8509 -0.1837 -1.2848
   81SOPE  H12B 7335   3.101   6.565   6.284 -0.4264 -1.3861 -0.2362
   81SOPE   C11 7336   3.274   6.649   6.172 -0.1235  0.3061 -0.2952
   81SOPE  H11A 7337   3.363   6.646   6.239  3.2161  1.9934 -4.4385
   81SOPE  H11B 7338   3.221   6.744   6.195 -1.7788 -0.6797  0.0411
   81SOPE     P 7339   3.432   6.760   6.001  0.0176 -0.4235 -0.1459
   81SOPE   O13 7340   3.546   6.733   6.085 -0.0408  0.3126 -0.2471
   81SOPE   O14 7341   3.366   6.892   6.017  0.0335  0.0750 -0.3036
   81SOPE   O12 7342   3.324   6.642   6.040 -0.3357  0.2161  0.3685
   81SOPE   O11 7343   3.465   6.735   5.849 -0.2117  0.2589 -0.4329
   81SOPE    C1 7344   3.382   6.784   5.746  0.1464 -0.8200 -0.4492
   81SOPE    HA 7345   3.432   6.764   5.649  1.1054  0.5800 -0.2657
   81SOPE    HB 7346   3.360   6.893   5.754  0.3320 -0.5806 -2.7000
   81SOPE    C2 7347   3.238   6.713   5.730  0.0917 -0.5519  0.1868
   81SOPE    HS 7348   3.201   6.693   5.833  1.3540 -2.7762  0.2287
   81SOPE   O21 7349   3.261   6.586   5.663 -0.5168 -0.2191  0.0944
   81SOPE   C21 7350   3.191   6.484   5.717 -0.4719  0.5204  0.0155
   81SOPE   O22 7351   3.110   6.488   5.813 -0.3411  0.0466  0.5070
   81SOPE   C22 7352   3.221   6.358   5.634  0.5573 -0.7517 -0.0502
   81SOPE   H2R 7353   3.231   6.275   5.707 -0.9111  0.3084  1.4010
   81SOPE   H2S 7354   3.316   6.373   5.579  0.7622  2.2804  1.0701
   81SOPE    C3 7355   3.145   6.810   5.657 -0.0466  0.3874 -0.0633
   81SOPE    HX 7356   3.197   6.848   5.566  0.2774  0.7256  0.2606
   81SOPE    HY 7357   3.141   6.896   5.727  1.5888  1.3717 -1.1449
   81SOPE   O31 7358   3.011   6.750   5.635  0.0430 -0.0792  0.1871
   81SOPE   C31 7359   2.941   6.799   5.535  0.3024  0.1300  0.2600
   81SOPE   O32 7360   2.983   6.881   5.451 -0.5507 -0.2106  0.4058
   81SOPE   C32 7361   2.796   6.733   5.543  1.0922  0.2697 -0.3181
   81SOPE   H2X 7362   2.738   6.789   5.619 -0.8327 -1.0545 -0.7583
   81SOPE   H2Y 7363   2.814   6.629   5.579 -1.1136 -0.4191 -1.0595
   81SOPE   C23 7364   3.106   6.335   5.537  0.6502  0.5464  0.6121
   81SOPE   H3R 7365   3.009   6.320   5.588  0.3188 -0.9575 -0.4319
   81SOPE   H3S 7366   3.142   6.245   5.483 -1.8922  1.1245 -2.1866
   81SOPE   C24 7367   3.072   6.434   5.426  0.7693  0.2075  0.0714
   81SOPE   H4R 7368   2.994   6.383   5.365  0.3409 -0.7154  1.3822
   81SOPE   H4S 7369   3.028   6.522   5.477  2.0327 -0.1701  1.8402
   81SOPE   C25 7370   3.198   6.475   5.348 -0.2363 -0.1237  0.0399
   81SOPE   H5R 7371   3.233   6.566   5.402 -1.0869  0.7676 -0.8798
   81SOPE   H5S 7372   3.273   6.394   5.352  0.9772  1.0210  1.2006
   81SOPE   C26 7373   3.171   6.512   5.198  0.7520  0.2330 -0.4327
   81SOPE   H6R 7374   3.071   6.471   5.171  0.7427 -0.1209  0.1332
   81SOPE   H6S 7375   3.164   6.622   5.202  3.0638  0.3392  4.6181
   81SOPE   C27 7376   3.287   6.468   5.100 -0.5053 -0.0033 -0.4859
   81SOPE   H7R 7377   3.385   6.487   5.148 -0.9822 -0.9718  0.8988
   81SOPE   H7S 7378   3.279   6.359   5.077  0.7779  0.1382 -1.6603
   81SOPE   C28 7379   3.300   6.546   4.970 -0.3943  0.1254 -0.1887
   81SOPE   H8R 7380   3.316   6.654   4.991  0.4122 -0.3246  1.5635
   81SOPE   H8S 7381   3.396   6.515   4.924 -0.5590  0.1879 -0.5790
   81SOPE   C29 7382   3.192   6.535   4.868  0.1839  0.4716 -0.5464
   81SOPE   H91 7383   3.095   6.510   4.915 -0.0863  2.7826  0.1630
   81SOPE  C210 7384   3.202   6.519   4.737 -0.3134 -0.1931 -0.5489
   81SOPE  H101 7385   3.112   6.511   4.674 -0.4667 -1.0411 -0.2297
   81SOPE  C211 7386   3.331   6.523   4.651 -0.5186  0.1545  0.5515
   81SOPE  H11R 7387   3.358   6.420   4.618 -2.4740 -0.4293  0.7107
   81SOPE  H11S 7388   3.419   6.560   4.706 -1.5899  0.7436  1.8911
   81SOPE  C212 7389   3.313   6.598   4.517  0.2128 -0.6678 -0.6876
   81SOPE  H12R 7390   3.414   6.635   4.488 -0.8423  0.6962 -2.7242
   81SOPE  H12S 7391   3.251   6.687   4.541 -1.2751 -1.1944 -2.5019
   81SOPE  C213 7392   3.256   6.525   4.396 -1.1621 -0.2116 -0.4751
   81SOPE  H13R 7393   3.161   6.474   4.421 -1.6380  1.0614  0.3616
   81SOPE  H13S 7394   3.318   6.439   4.361 -1.6112 -1.2547  1.2068
   81SOPE  C214 7395   3.233   6.612   4.272 -0.9334  1.1730  0.5206
   81SOPE  H14R 7396   3.335   6.649   4.248 -0.6258 -1.5350 -2.7274
   81SOPE  H14S 7397   3.171   6.695   4.312 -0.2332  1.0934  1.7932
   81SOPE  C215 7398   3.180   6.540   4.145 -0.0334  0.0473  0.1923
   81SOPE  H15R 7399   3.076   6.504   4.152 -0.4954  1.4042  0.4607
   81SOPE  H15S 7400   3.246   6.451   4.136 -0.4856 -0.3427  0.7514
   81SOPE  C216 7401   3.193   6.629   4.020 -0.0117  0.3792 -0.5181
   81SOPE  H16R 7402   3.172   6.558   3.937  1.1250 -0.0307 -0.4644
   81SOPE  H16S 7403   3.294   6.676   4.016 -0.6275  2.0819  2.8189
   81SOPE  C217 7404   3.087   6.741   4.009  0.6111 -0.0554 -0.1591
   81SOPE  H17R 7405   3.091   6.803   4.101  1.5124 -0.8479  0.3527
   81SOPE  H17S 7406   2.987   6.693   4.003  1.0607 -0.7395 -2.5700
   81SOPE  C218 7407   3.101   6.832   3.880  0.0769  0.3066  0.4359
   81SOPE  H18R 7408   3.196   6.803   3.830  0.0464  0.7463  0.1264
   81SOPE  H18S 7409   3.114   6.939   3.906  3.1769 -0.1977  1.1290
   81SOPE  H18T 7410   3.022   6.816   3.803 -0.4562 -2.2445  1.4566
   81SOPE   C33 7411   2.716   6.718   5.411  0.3045  0.0296 -0.5127
   81SOPE   H3X 7412   2.685   6.815   5.367 -2.6494 -0.4151  0.4571
   81SOPE   H3Y 7413   2.621   6.667   5.440  1.2033 -2.4898 -1.9007
   81SOPE   C34 7414   2.794   6.625   5.313 -0.2359 -0.7600  0.4015
   81SOPE   H4X 7415   2.817   6.531   5.367  0.4885  0.2868  1.9600
   81SOPE   H4Y 7416   2.896   6.659   5.286 -0.0891 -1.9281 -0.5219
   81SOPE   C35 7417   2.713   6.579   5.188 -0.7330  0.3421 -0.3871
   81SOPE   H5X 7418   2.689   6.671   5.131 -4.4928  1.1219  2.2016
   81SOPE   H5Y 7419   2.622   6.522   5.219 -1.6627 -0.1662 -3.8055
   81SOPE   C36 7420   2.781   6.476   5.110 -0.7107  1.3420  0.0934
   81SOPE   H6X 7421   2.824   6.395   5.172  0.6969  1.7903 -0.2819
   81SOPE   H6Y 7422   2.874   6.521   5.067 -0.1100 -1.8759 -2.1836
   81SOPE   C37 7423   2.701   6.404   4.999 -0.1782  0.1200 -0.0455
   81SOPE   H7X 7424   2.658   6.472   4.922  0.4561 -0.2595 -0.7524
   81SOPE   H7Y 7425   2.612   6.355   5.043 -0.8298 -1.1424 -2.6174
   81SOPE   C38 7426   2.790   6.309   4.914 -0.0306 -0.0782  0.0382
   81SOPE   H8X 7427   2.819   6.238   4.994 -3.1045 -1.1926  0.2446
   81SOPE   H8Y 7428   2.882   6.355   4.871 -0.2083 -0.1258 -0.3886
   81SOPE   C39 7429   2.717   6.241   4.801  1.1213  0.0821 -1.2055
   81SOPE   H9X 7430   2.655   6.319   4.753  0.5637 -1.7925 -3.6333
   81SOPE   H9Y 7431   2.640   6.169   4.837  2.9676 -3.0695 -3.2993
   81SOPE  C310 7432   2.794   6.166   4.692  0.7706 -0.0209  0.1392
   81SOPE  H10X 7433   2.842   6.078   4.741 -0.6463 -0.4821  0.7117
   81SOPE  H10Y 7434   2.871   6.240   4.662  0.0238  1.2882  1.3713
   81SOPE  C311 7435   2.703   6.122   4.581  0.7694 -0.7005 -0.0215
   81SOPE  H11X 7436   2.648   6.211   4.545 -0.0717 -1.1352  0.1632
   81SOPE  H11Y 7437   2.628   6.046   4.613  1.8954 -2.1389 -0.7239
   81SOPE  C312 7438   2.786   6.052   4.468 -0.4521 -0.2125 -0.0355
   81SOPE  H12X 7439   2.865   6.128   4.450 -1.1434  1.3095  2.9885
   81SOPE  H12Y 7440   2.723   6.041   4.377 -0.3314 -1.6535  0.0438
   81SOPE  C313 7441   2.839   5.913   4.507 -0.7433  0.1191 -0.0554
   81SOPE  H13X 7442   2.752   5.843   4.505 -0.8771  0.3136 -1.5182
   81SOPE  H13Y 7443   2.873   5.926   4.612 -1.0454  1.4002 -0.1132
   81SOPE  C314 7444   2.949   5.856   4.426  0.2297  0.2206  0.3898
   81SOPE  H14X 7445   2.986   5.768   4.484 -2.0891 -0.4845  0.8646
   81SOPE  H14Y 7446   3.034   5.927   4.427  0.7536 -0.4104  1.6509
   81SOPE  C315 7447   2.914   5.814   4.286  0.2107  0.4623  0.1865
   81SOPE  H15X 7448   2.890   5.901   4.221  2.3982  0.2189 -0.9862
   81SOPE  H15Y 7449   2.821   5.753   4.288  0.5625 -0.0710  0.3138
   81SOPE  C316 7450   3.030   5.740   4.224 -0.2867  0.1048 -0.0132
   81SOPE  H16X 7451   3.050   5.647   4.280  1.4801  0.5861  0.2014
   81SOPE  H16Y 7452   3.125   5.798   4.222  1.0586 -2.0017  1.1554
   81SOPE  C317 7453   2.996   5.698   4.079 -0.0641  0.2781 -0.1466
   81SOPE  H17X 7454   2.946   5.778   4.020 -2.2097 -0.9697 -0.0781
   81SOPE  H17Y 7455   2.910   5.628   4.070 -0.1237  0.2946  0.2971
   81SOPE  C318 7456   3.119   5.648   4.014  0.0762  0.5901  0.2405
   81SOPE  H18X 7457   3.201   5.721   4.029 -0.0611  0.4560  1.7702
   81SOPE  H18Y 7458   3.105   5.616   3.909 -0.1415  0.0751  0.4223
   81SOPE  H18Z 7459   3.158   5.556   4.063  0.3211  1.1815  1.1729
   82SOPE     N 7460   6.912   1.390   6.141  0.2834 -0.5267  0.4669
   82SOPE   HN1 7461   7.014   1.390   6.124  0.4614  1.5267  1.3052
   82SOPE   HN2 7462   6.874   1.487   6.143  0.9247 -0.2861  1.1076
   82SOPE   HN3 7463   6.893   1.344   6.232  1.4650  2.3140  2.2256
   82SOPE   C12 7464   6.848   1.310   6.030 -0.0277  0.1779 -0.2181
   82SOPE  H12A 7465   6.878   1.349   5.930 -1.3937  1.8251 -0.0068
   82SOPE  H12B 7466   6.738   1.323   6.041  0.1309  0.3756  1.1327
   82SOPE   C11 7467   6.888   1.159   6.035  0.3482 -0.2485 -0.0133
   82SOPE  H11A 7468   6.994   1.141   6.007  0.4128  2.4899 -1.7120
   82SOPE  H11B 7469   6.817   1.124   5.958  0.5937  3.1827 -1.8870
   82SOPE     P 7470   6.962   1.008   6.235  0.1061 -0.3702 -0.0091
   82SOPE   O13 7471   6.879   0.951   6.343 -0.0327  0.4211  0.0667
   82SOPE   O14 7472   7.087   1.074   6.267 -0.0096  0.1975  0.3909
   82SOPE   O12 7473   6.859   1.099   6.156 -0.0352 -0.0496  0.4364
   82SOPE   O11 7474   6.999   0.891   6.132 -0.2577 -0.5714  0.1205
   82SOPE    C1 7475   6.915   0.777   6.108  0.3581  0.3626  0.3621
   82SOPE    HA 7476   6.813   0.802   6.143  1.3116  1.5935  2.3485
   82SOPE    HB 7477   6.966   0.693   6.161  1.4746 -0.5644 -2.0918
   82SOPE    C2 7478   6.923   0.736   5.960  0.3184 -0.7621 -0.4494
   82SOPE    HS 7479   7.026   0.702   5.936  1.5897  3.5058 -1.6108
   82SOPE   O21 7480   6.894   0.849   5.877  0.0491 -0.2355 -0.3091
   82SOPE   C21 7481   6.983   0.873   5.776 -0.9400  0.1567 -0.2868
   82SOPE   O22 7482   7.062   0.794   5.731 -0.1820 -0.0532  0.0451
   82SOPE   C22 7483   6.943   1.006   5.711 -0.1750 -0.7796  0.3947
   82SOPE   H2R 7484   7.004   1.094   5.741 -2.2116  0.3556  1.3121
   82SOPE   H2S 7485   6.844   1.045   5.740  0.1204 -1.6219  2.6324
   82SOPE    C3 7486   6.815   0.632   5.941 -0.6912  0.3699  0.9987
   82SOPE    HX 7487   6.722   0.688   5.966 -2.0667 -2.0386  1.4319
   82SOPE    HY 7488   6.824   0.544   6.008 -1.7480  1.5481  2.7358
   82SOPE   O31 7489   6.793   0.592   5.801 -0.5205  0.6728 -0.2274
   82SOPE   C31 7490   6.869   0.505   5.732  0.3716 -0.7459  0.1254
   82SOPE   O32 7491   6.953   0.435   5.778  0.0471  0.4488 -0.0474
   82SOPE   C32 7492   6.833   0.518   5.582  0.1437 -0.4700 -0.1905
   82SOPE   H2X 7493   6.727   0.552   5.571  1.2343  3.0611 -0.4700
   82SOPE   H2Y 7494   6.834   0.410   5.557  1.3193 -0.2709 -1.0081
   82SOPE   C23 7495   6.946   1.018   5.555  0.0226  0.3288  0.2909
   82SOPE   H3R 7496   6.916   1.122   5.529  0.3122 -0.0853 -1.7308
   82SOPE   H3S 7497   6.868   0.960   5.501 -0.2374  2.0842 -1.2632
   82SOPE   C24 7498   7.094   1.001   5.497 -0.3423 -1.8075 -0.1079
   82SOPE   H4R 7499   7.163   1.059   5.561  1.0148 -2.2814 -1.1256
   82SOPE   H4S 7500   7.136   0.899   5.505 -1.1052 -2.0623  0.8168
   82SOPE   C25 7501   7.096   1.050   5.352  0.6873 -0.1965 -0.6672
   82SOPE   H5R 7502   7.012   1.010   5.293 -0.6434 -0.9615  1.6928
   82SOPE   H5S 7503   7.080   1.160   5.346 -0.7158 -0.4577 -2.0595
   82SOPE   C26 7504   7.228   1.018   5.279  0.3211 -0.2395 -0.5825
   82SOPE   H6R 7505   7.306   1.088   5.317  0.7662  0.2339 -2.3046
   82SOPE   H6S 7506   7.268   0.915   5.294 -0.2710 -0.7417 -2.3242
   82SOPE   C27 7507   7.226   1.028   5.132  0.5394 -0.1573  0.9532
   82SOPE   H7R 7508   7.195   1.129   5.098 -1.6827  0.5417  4.7533
   82SOPE   H7S 7509   7.328   1.004   5.096 -0.3439  0.0252 -1.8178
   82SOPE   C28 7510   7.126   0.925   5.072  0.0249  0.5603 -0.3304
   82SOPE   H8R 7511   7.168   0.825   5.094 -2.2652 -0.0162  1.6920
   82SOPE   H8S 7512   7.036   0.914   5.136  0.0857 -0.3225 -0.3891
   82SOPE   C29 7513   7.096   0.940   4.921  0.0511  0.5166 -0.5383
   82SOPE   H91 7514   7.153   0.870   4.859 -0.9881 -2.6870  1.9691
   82SOPE  C210 7515   6.997   1.006   4.865  0.2933 -0.3277  0.4714
   82SOPE  H101 7516   6.984   1.001   4.756  0.6955 -1.2622  0.4541
   82SOPE  C211 7517   6.891   1.082   4.946 -0.8002  0.0525  0.1212
   82SOPE  H11R 7518   6.918   1.187   4.925  0.1320 -0.5621 -1.9436
   82SOPE  H11S 7519   6.896   1.058   5.054 -2.6742  0.2482  0.2699
   82SOPE  C212 7520   6.745   1.070   4.893  0.1795 -0.2507  0.6637
   82SOPE  H12R 7521   6.751   1.089   4.783  1.7743 -0.1836  0.7626
   82SOPE  H12S 7522   6.681   1.145   4.944 -0.7197 -1.4809  1.3817
   82SOPE  C213 7523   6.694   0.932   4.905  1.1409  0.1104 -0.2154
   82SOPE  H13R 7524   6.767   0.859   4.863  2.0058  0.3912  0.7947
   82SOPE  H13S 7525   6.601   0.920   4.844  1.4501 -0.4811 -0.5804
   82SOPE  C214 7526   6.667   0.890   5.047  0.1112  0.2989 -0.0336
   82SOPE  H14R 7527   6.646   0.978   5.111 -0.5541 -0.7598  1.2157
   82SOPE  H14S 7528   6.757   0.839   5.089  0.7038  0.2541 -1.3201
   82SOPE  C215 7529   6.555   0.786   5.055  1.0541 -0.1313 -0.1236
   82SOPE  H15R 7530   6.559   0.722   4.964  1.3908 -0.6158  0.2307
   82SOPE  H15S 7531   6.458   0.839   5.061  0.7512 -0.7173  0.1795
   82SOPE  C216 7532   6.565   0.706   5.182 -0.4746  0.0148 -0.3133
   82SOPE  H16R 7533   6.641   0.625   5.181 -0.7113 -0.2170  0.3484
   82SOPE  H16S 7534   6.470   0.647   5.190 -0.1898 -0.1327  2.2698
   82SOPE  C217 7535   6.568   0.775   5.320  0.0765  0.4383 -0.2563
   82SOPE  H17R 7536   6.644   0.854   5.336 -0.9223  1.0999  1.2859
   82SOPE  H17S 7537   6.601   0.698   5.393 -0.5763  0.4186  0.0154
   82SOPE  C218 7538   6.439   0.843   5.366 -0.2010 -0.1566 -0.1977
   82SOPE  H18R 7539   6.405   0.922   5.296 -0.6021 -0.5641 -0.4630
   82SOPE  H18S 7540   6.476   0.876   5.465 -2.5066 -0.7246  0.8919
   82SOPE  H18T 7541   6.350   0.776   5.375  0.5796 -1.3952 -1.4160
   82SOPE   C33 7542   6.930   0.612   5.505 -0.3112  0.4054 -0.2064
   82SOPE   H3X 7543   7.034   0.616   5.543 -0.4312 -0.9705  0.2875
   82SOPE   H3Y 7544   6.886   0.713   5.517 -1.3398 -0.0312 -0.2115
   82SOPE   C34 7545   6.948   0.581   5.360  0.2907 -0.4518 -0.4150
   82SOPE   H4X 7546   7.036   0.637   5.323 -0.8542  0.4076 -1.8932
   82SOPE   H4Y 7547   6.859   0.630   5.314  0.9269  1.9336  0.8821
   82SOPE   C35 7548   6.958   0.437   5.327  0.2176  0.2330  0.2503
   82SOPE   H5X 7549   6.860   0.384   5.326  0.0285  0.5396  1.5572
   82SOPE   H5Y 7550   7.033   0.390   5.394 -0.4044  0.7300  1.3097
   82SOPE   C36 7551   7.012   0.422   5.185 -0.0456  0.4578  0.3208
   82SOPE   H6X 7552   6.998   0.319   5.145  0.5387  1.3032 -2.1811
   82SOPE   H6Y 7553   7.123   0.432   5.183  0.2484 -1.9280  1.9136
   82SOPE   C37 7554   6.956   0.519   5.084 -0.0546  0.4287  0.4049
   82SOPE   H7X 7555   7.007   0.617   5.093 -3.2424  2.2497 -0.3896
   82SOPE   H7Y 7556   6.851   0.548   5.105 -0.6230 -0.6869 -0.8170
   82SOPE   C38 7557   6.972   0.468   4.936 -0.4369  0.3529 -0.1314
   82SOPE   H8X 7558   6.890   0.395   4.918 -1.1438  1.1354 -0.1467
   82SOPE   H8Y 7559   7.071   0.419   4.933  0.4052  2.1053 -1.5774
   82SOPE   C39 7560   6.970   0.573   4.822 -0.2224  0.2249 -0.1012
   82SOPE   H9X 7561   7.041   0.658   4.835 -1.0474  0.5254  2.8107
   82SOPE   H9Y 7562   6.873   0.624   4.833 -1.0752 -1.2300 -0.6918
   82SOPE  C310 7563   6.980   0.516   4.677 -0.1536  0.3712  0.1487
   82SOPE  H10X 7564   7.009   0.593   4.603 -0.2516  1.2928  1.0679
   82SOPE  H10Y 7565   6.880   0.474   4.652  0.3083 -0.0395 -1.0669
   82SOPE  C311 7566   7.078   0.400   4.675  0.4356 -0.2189  0.2315
   82SOPE  H11X 7567   7.049   0.326   4.753  2.3814  0.0920  1.2703
   82SOPE  H11Y 7568   7.184   0.419   4.699  0.8006 -1.0523 -0.6324
   82SOPE  C312 7569   7.079   0.345   4.528 -0.3160 -0.0016 -0.8915
   82SOPE  H12X 7570   6.974   0.332   4.495  0.0442 -2.8608 -0.9948
   82SOPE  H12Y 7571   7.128   0.246   4.518  0.0687  0.0291  0.5317
   82SOPE  C313 7572   7.153   0.444   4.429  0.5807  0.4809 -0.0379
   82SOPE  H13X 7573   7.252   0.474   4.470 -0.4827  1.5003  1.8502
   82SOPE  H13Y 7574   7.094   0.537   4.423  1.3901  1.0105  0.1060
   82SOPE  C314 7575   7.174   0.391   4.291 -0.2147 -0.7501  0.3834
   82SOPE  H14X 7576   7.219   0.290   4.291 -0.2017 -0.7446  0.1827
   82SOPE  H14Y 7577   7.236   0.467   4.239 -0.3278  0.7501  2.4112
   82SOPE  C315 7578   7.043   0.369   4.220  0.4496  0.0759 -0.1880
   82SOPE  H15X 7579   6.992   0.467   4.235 -2.3903 -1.4219  0.4745
   82SOPE  H15Y 7580   6.991   0.295   4.285 -0.0071  2.6566  2.4796
   82SOPE  C316 7581   7.042   0.321   4.077  0.2331 -0.3404  0.5643
   82SOPE  H16X 7582   6.939   0.328   4.036  0.1872  2.0323  0.9681
   82SOPE  H16Y 7583   7.080   0.218   4.065  2.6416  0.7357 -1.8785
   82SOPE  C317 7584   7.128   0.416   3.984 -0.6297 -0.2948 -0.5043
   82SOPE  H17X 7585   7.232   0.437   4.019 -0.3868  1.6177 -2.2399
   82SOPE  H17Y 7586   7.074   0.512   3.970 -0.2810  0.1759  1.2253
   82SOPE  C318 7587   7.135   0.359   3.846 -0.0865 -0.0536 -0.3307
   82SOPE  H18X 7588   7.037   0.362   3.793  0.2638 -2.6758 -1.2133
   82SOPE  H18Y 7589   7.183   0.260   3.829 -0.0801  0.0604 -0.9907
   82SOPE  H18Z 7590   7.195   0.429   3.783 -1.4480  1.9622  0.5669
   83SOPE     N 7591   2.991   5.403   1.790 -0.2665 -0.0291 -1.0291
   83SOPE   HN1 7592   3.009   5.396   1.687 -2.3103  1.7101 -1.5483
   83SOPE   HN2 7593   2.888   5.389   1.796 -0.4582  1.4400 -0.6373
   83SOPE   HN3 7594   3.022   5.497   1.824  1.0385 -1.4258  1.8027
   83SOPE   C12 7595   3.043   5.280   1.860 -0.2088 -0.1296  0.6626
   83SOPE  H12A 7596   2.980   5.262   1.950 -0.2335 -0.9918  0.4743
   83SOPE  H12B 7597   3.149   5.290   1.891  0.3217 -2.7584 -0.2009
   83SOPE   C11 7598   3.021   5.145   1.791  0.3392 -0.2787 -0.8411
   83SOPE  H11A 7599   2.916   5.144   1.757 -0.5366 -1.9064  1.7988
   83SOPE  H11B 7600   3.022   5.067   1.870  0.2481 -1.4504 -1.9636
   83SOPE     P 7601   3.251   5.042   1.703 -0.1795 -0.2041  0.1059
   83SOPE   O13 7602   3.343   5.081   1.594 -0.0801  0.4170  0.2760
   83SOPE   O14 7603   3.226   4.898   1.714  0.2132 -0.2088 -0.1666
   83SOPE   O12 7604   3.118   5.122   1.691  0.2762  0.2007 -0.7418
   83SOPE   O11 7605   3.307   5.094   1.845 -0.1416 -0.4121 -0.1797
   83SOPE    C1 7606   3.434   5.160   1.855  0.0331 -0.1051 -0.2856
   83SOPE    HA 7607   3.433   5.249   1.921 -1.2578  0.2501 -0.7642
   83SOPE    HB 7608   3.476   5.190   1.757  2.1176 -0.7708  0.3706
   83SOPE    C2 7609   3.534   5.057   1.918 -0.1503  1.4023 -0.6139
   83SOPE    HS 7610   3.563   4.985   1.839  1.9269  1.8193 -0.2532
   83SOPE   O21 7611   3.477   4.997   2.032 -0.0581  0.1309  0.3861
   83SOPE   C21 7612   3.497   4.871   2.068 -0.1123  0.9775  0.9368
   83SOPE   O22 7613   3.563   4.794   1.997 -0.6141 -0.3792  0.4127
   83SOPE   C22 7614   3.420   4.842   2.198  0.1770 -0.0930  1.1614
   83SOPE   H2R 7615   3.314   4.841   2.165  1.4955  0.2681 -3.3487
   83SOPE   H2S 7616   3.439   4.926   2.269 -1.4774  1.3231 -0.0194
   83SOPE    C3 7617   3.663   5.134   1.957  0.2008 -0.6799 -0.4037
   83SOPE    HX 7618   3.634   5.223   2.016 -0.7415 -0.9548 -0.4318
   83SOPE    HY 7619   3.712   5.163   1.862 -1.6272 -0.1074 -1.1889
   83SOPE   O31 7620   3.751   5.044   2.028  0.4175  0.2850  0.5882
   83SOPE   C31 7621   3.856   5.112   2.090  0.5334 -0.1778 -0.3630
   83SOPE   O32 7622   3.858   5.232   2.104 -0.1077 -0.1348 -0.0795
   83SOPE   C32 7623   3.962   5.012   2.132  0.1328 -0.7974  0.1082
   83SOPE   H2X 7624   4.054   5.069   2.158 -0.2973  0.3558 -0.8422
   83SOPE   H2Y 7625   3.985   4.942   2.048 -1.6959  0.5753 -1.5726
   83SOPE   C23 7626   3.452   4.700   2.246 -0.2071  0.6355 -0.0708
   83SOPE   H3R 7627   3.447   4.627   2.163 -0.2582 -1.5838  1.8477
   83SOPE   H3S 7628   3.375   4.673   2.322 -2.0199  2.4978 -1.1811
   83SOPE   C24 7629   3.592   4.685   2.314 -0.7000 -0.5397  0.1432
   83SOPE   H4R 7630   3.680   4.698   2.247 -1.1610 -0.8065 -0.5128
   83SOPE   H4S 7631   3.601   4.761   2.394  4.2567 -1.0320  0.2555
   83SOPE   C25 7632   3.587   4.564   2.398 -0.1677  0.1692  0.3139
   83SOPE   H5R 7633   3.508   4.584   2.474 -0.4969  0.0474  0.0066
   83SOPE   H5S 7634   3.552   4.482   2.332  0.0088  0.0673  0.3486
   83SOPE   C26 7635   3.714   4.536   2.478  0.2707  0.4012  0.6027
   83SOPE   H6R 7636   3.799   4.512   2.412 -2.0565 -0.1166 -2.3190
   83SOPE   H6S 7637   3.742   4.635   2.522 -1.1715  1.5045 -0.8961
   83SOPE   C27 7638   3.686   4.419   2.568 -0.0856  0.2340 -0.2223
   83SOPE   H7R 7639   3.608   4.447   2.642 -1.1674 -0.3016 -1.1524
   83SOPE   H7S 7640   3.642   4.337   2.508  1.8685 -0.1224 -1.2013
   83SOPE   C28 7641   3.809   4.359   2.641  0.2779 -0.7377 -0.1083
   83SOPE   H8R 7642   3.776   4.278   2.709 -1.0855 -0.0775  0.0219
   83SOPE   H8S 7643   3.868   4.306   2.563  0.2251 -0.8181 -0.0919
   83SOPE   C29 7644   3.885   4.475   2.706  0.2322  0.6557  0.0281
   83SOPE   H91 7645   3.944   4.547   2.646 -0.1036  2.1011  1.3779
   83SOPE  C210 7646   3.895   4.494   2.843  0.0808  0.3246 -0.2093
   83SOPE  H101 7647   3.964   4.574   2.875 -2.4040  2.2477  0.5563
   83SOPE  C211 7648   3.834   4.399   2.946 -0.3472 -0.1262 -0.3930
   83SOPE  H11R 7649   3.868   4.294   2.933  1.8428  0.5967 -0.8062
   83SOPE  H11S 7650   3.724   4.393   2.943 -0.3753 -0.5738  1.3549
   83SOPE  C212 7651   3.871   4.454   3.085 -0.3832 -0.0612  0.0192
   83SOPE  H12R 7652   3.824   4.553   3.103 -0.5667  0.0542 -1.0809
   83SOPE  H12S 7653   3.982   4.456   3.092 -0.4425  0.3508  0.9953
   83SOPE  C213 7654   3.820   4.378   3.211 -0.3075 -0.4986  0.2030
   83SOPE  H13R 7655   3.846   4.270   3.201 -1.8403 -0.8569 -0.0113
   83SOPE  H13S 7656   3.711   4.372   3.196 -0.0768 -0.7584 -1.4903
   83SOPE  C214 7657   3.863   4.445   3.347  0.7630  0.5948  0.1454
   83SOPE  H14R 7658   3.797   4.534   3.361 -0.9187 -0.6446  0.3057
   83SOPE  H14S 7659   3.967   4.483   3.342 -0.0823  2.7917 -2.0335
   83SOPE  C215 7660   3.864   4.360   3.476 -0.1646 -0.2365  0.1648
   83SOPE  H15R 7661   3.932   4.279   3.445  1.0118  0.6937  0.2981
   83SOPE  H15S 7662   3.766   4.311   3.495  1.1248 -2.4972  1.2279
   83SOPE  C216 7663   3.911   4.448   3.594  0.5856  0.3915  0.3701
   83SOPE  H16R 7664   3.837   4.525   3.626  1.2014  1.6419 -1.1637
   83SOPE  H16S 7665   4.009   4.489   3.562 -0.0951  2.0284  0.3468
   83SOPE  C217 7666   3.946   4.363   3.716  0.4038  0.0414  0.2772
   83SOPE  H17R 7667   4.024   4.409   3.781 -0.6059  0.7404  1.0247
   83SOPE  H17S 7668   3.981   4.261   3.694  0.4238 -0.3695  2.1272
   83SOPE  C218 7669   3.821   4.346   3.813 -0.8497  0.1266  0.6667
   83SOPE  H18R 7670   3.780   4.443   3.849 -2.1508 -0.3274  0.4445
   83SOPE  H18S 7671   3.852   4.283   3.899 -2.1782  1.1711  1.9461
   83SOPE  H18T 7672   3.743   4.292   3.755 -0.1919 -0.2099  0.0968
   83SOPE   C33 7673   3.923   4.903   2.236 -1.0441  0.9162  0.4113
   83SOPE   H3X 7674   4.010   4.834   2.246 -1.2658  0.5114 -0.4514
   83SOPE   H3Y 7675   3.833   4.847   2.204 -0.1534 -0.1318 -0.3244
   83SOPE   C34 7676   3.921   4.974   2.379  0.4395 -1.2836 -0.5767
   83SOPE   H4X 7677   3.849   5.059   2.377  0.4914 -1.2411 -0.6957
   83SOPE   H4Y 7678   4.020   5.022   2.389  0.3736 -1.8308  3.2113
   83SOPE   C35 7679   3.895   4.882   2.492  0.5350 -0.2335 -0.6047
   83SOPE   H5X 7680   3.942   4.782   2.486  1.1053  0.0659 -1.1885
   83SOPE   H5Y 7681   3.788   4.853   2.507  0.0341  1.2225 -1.2287
   83SOPE   C36 7682   3.945   4.948   2.629 -0.6678 -0.6035  0.6306
   83SOPE   H6X 7683   3.874   5.030   2.654  2.3301  1.8429  1.3823
   83SOPE   H6Y 7684   4.042   4.991   2.598 -1.1271  0.9642  1.3201
   83SOPE   C37 7685   3.954   4.848   2.747 -0.1463  0.4490 -0.2885
   83SOPE   H7X 7686   4.000   4.755   2.706 -0.0177 -0.0036  0.8703
   83SOPE   H7Y 7687   3.857   4.796   2.765  1.0756 -1.5834  0.5190
   83SOPE   C38 7688   4.016   4.904   2.877 -0.3283  0.2468 -0.1894
   83SOPE   H8X 7689   3.968   5.001   2.903 -1.4011 -0.8230  1.9693
   83SOPE   H8Y 7690   4.125   4.921   2.868 -0.4191  1.1024  0.3507
   83SOPE   C39 7691   4.001   4.810   3.002  0.1668  0.0300 -0.0036
   83SOPE   H9X 7692   4.066   4.723   2.981 -2.1858 -2.5487  2.8655
   83SOPE   H9Y 7693   3.901   4.765   3.017  0.1430 -0.0074 -0.2638
   83SOPE  C310 7694   4.046   4.874   3.138  0.2570 -0.2945  0.1363
   83SOPE  H10X 7695   3.991   4.970   3.152 -2.7543 -1.6087 -2.0956
   83SOPE  H10Y 7696   4.153   4.905   3.135  0.9028 -2.0646  3.3494
   83SOPE  C311 7697   4.019   4.788   3.264  0.7739 -0.2369  0.1718
   83SOPE  H11X 7698   4.090   4.704   3.279  1.6257  0.1968 -1.2622
   83SOPE  H11Y 7699   3.924   4.734   3.243  0.4941 -0.1231  1.1463
   83SOPE  C312 7700   4.012   4.876   3.387  0.1269 -0.0908 -0.2251
   83SOPE  H12X 7701   3.936   4.954   3.367  1.1968  1.2426  0.8053
   83SOPE  H12Y 7702   4.113   4.918   3.409  0.8661 -2.2676  0.6485
   83SOPE  C313 7703   3.967   4.804   3.510  0.3333 -0.1785  0.3447
   83SOPE  H13X 7704   4.049   4.747   3.560 -0.0933  0.1159  1.3982
   83SOPE  H13Y 7705   3.888   4.728   3.490  0.8542 -0.5200 -0.4313
   83SOPE  C314 7706   3.921   4.896   3.628 -0.2642  0.1058  0.0457
   83SOPE  H14X 7707   3.849   4.971   3.591  1.1863  2.7848  2.4336
   83SOPE  H14Y 7708   4.016   4.953   3.640 -0.2628  0.1448 -0.1566
   83SOPE  C315 7709   3.874   4.828   3.756  0.3212  0.0869 -0.4272
   83SOPE  H15X 7710   3.942   4.746   3.788 -0.7779 -0.7532 -0.2084
   83SOPE  H15Y 7711   3.777   4.775   3.742  1.9879 -2.6413 -2.1821
   83SOPE  C316 7712   3.860   4.918   3.878 -0.2775  0.5703  0.5815
   83SOPE  H16X 7713   3.834   4.855   3.966 -1.3671  0.9948  0.5632
   83SOPE  H16Y 7714   3.775   4.985   3.856 -0.1557  1.2129  2.0283
   83SOPE  C317 7715   3.987   4.997   3.904  0.5365  0.1503 -0.3302
   83SOPE  H17X 7716   3.995   5.071   3.821  0.3212  0.3255 -0.1936
   83SOPE  H17Y 7717   4.074   4.929   3.913 -0.6492 -1.2237  0.9172
   83SOPE  C318 7718   3.974   5.079   4.034 -0.3444  0.1962  0.2066
   83SOPE  H18X 7719   3.886   5.143   4.013  1.4854  1.7805 -2.9142
   83SOPE  H18Y 7720   4.064   5.140   4.055 -0.4663 -0.3143  2.3872
   83SOPE  H18Z 7721   3.955   5.012   4.122 -0.4482 -1.3234 -0.9552
   84SOPE     N 7722   2.170   3.870   1.987  0.3752  0.2574  0.0465
   84SOPE   HN1 7723   2.168   3.770   2.015 -1.2143  1.3460  4.3834
   84SOPE   HN2 7724   2.073   3.905   1.974  1.0504  0.9338 -3.4668
   84SOPE   HN3 7725   2.224   3.884   1.899 -0.5145  0.1004 -0.5303
   84SOPE   C12 7726   2.245   3.926   2.106  0.0284 -0.5629 -0.2537
   84SOPE  H12A 7727   2.336   3.862   2.111 -0.2225 -1.1405 -2.4292
   84SOPE  H12B 7728   2.191   3.920   2.203  0.9732 -0.1933  0.3092
   84SOPE   C11 7729   2.275   4.068   2.092 -0.4495 -0.3840  0.6828
   84SOPE  H11A 7730   2.326   4.111   2.181 -0.0963 -1.5040  1.0293
   84SOPE  H11B 7731   2.187   4.131   2.069 -0.7343 -1.5031 -1.4022
   84SOPE     P 7732   2.417   4.229   1.948 -0.3351  0.2712  0.1339
   84SOPE   O13 7733   2.294   4.305   1.912 -0.0691  0.3175 -0.7616
   84SOPE   O14 7734   2.516   4.202   1.843 -0.2369  0.6419  0.8243
   84SOPE   O12 7735   2.374   4.084   1.987 -0.3434  0.0246 -0.1768
   84SOPE   O11 7736   2.473   4.288   2.080 -0.2507 -0.1595 -0.1973
   84SOPE    C1 7737   2.606   4.261   2.126 -0.6277  0.2143 -0.7231
   84SOPE    HA 7738   2.630   4.354   2.182 -0.8474  0.7244 -1.4714
   84SOPE    HB 7739   2.671   4.241   2.038 -0.5231 -4.0019  0.2125
   84SOPE    C2 7740   2.610   4.149   2.235  0.5047 -0.0531  0.1481
   84SOPE    HS 7741   2.563   4.058   2.194 -1.1302  0.9696 -0.2752
   84SOPE   O21 7742   2.529   4.205   2.344  0.4905 -0.2323 -0.1418
   84SOPE   C21 7743   2.474   4.100   2.413  0.1679  0.0088  0.4950
   84SOPE   O22 7744   2.501   3.986   2.400 -0.0938 -0.3135  0.1642
   84SOPE   C22 7745   2.357   4.155   2.497  0.1352  0.1237  0.5531
   84SOPE   H2R 7746   2.260   4.129   2.450  0.5028  1.2152 -0.8417
   84SOPE   H2S 7747   2.368   4.265   2.511  1.2344  0.3585 -1.8673
   84SOPE    C3 7748   2.762   4.120   2.282 -0.2144 -0.7400 -0.2166
   84SOPE    HX 7749   2.819   4.086   2.193  0.9869  0.1041  0.2279
   84SOPE    HY 7750   2.765   4.041   2.360 -1.2975 -0.0685  0.5219
   84SOPE   O31 7751   2.820   4.246   2.321 -0.1930  0.5435  0.8190
   84SOPE   C31 7752   2.823   4.270   2.446  0.3921 -0.0493  0.1107
   84SOPE   O32 7753   2.792   4.192   2.538 -0.3880  0.1233  0.4444
   84SOPE   C32 7754   2.841   4.415   2.468 -0.4121  0.2253 -0.2315
   84SOPE   H2X 7755   2.757   4.469   2.420 -0.6911 -0.4942 -0.5644
   84SOPE   H2Y 7756   2.938   4.443   2.421 -0.9502  0.6277 -1.1249
   84SOPE   C23 7757   2.337   4.079   2.633  0.0344 -0.0797 -0.3364
   84SOPE   H3R 7758   2.303   3.974   2.614  2.4014 -1.1310  1.0794
   84SOPE   H3S 7759   2.254   4.130   2.688  0.0006 -0.3056 -0.1766
   84SOPE   C24 7760   2.465   4.071   2.718  0.5209  0.0487  0.6440
   84SOPE   H4R 7761   2.441   4.023   2.815  2.2598 -0.0442  1.0450
   84SOPE   H4S 7762   2.544   4.011   2.667 -0.3204  1.0670 -1.9659
   84SOPE   C25 7763   2.524   4.195   2.759 -0.3262  0.0756  0.3628
   84SOPE   H5R 7764   2.587   4.235   2.677  0.2243 -0.4375  0.5369
   84SOPE   H5S 7765   2.445   4.271   2.778  0.4714  0.3047  3.0931
   84SOPE   C26 7766   2.620   4.194   2.876  0.0227 -0.8733 -0.1380
   84SOPE   H6R 7767   2.681   4.101   2.878  0.8315 -0.3494  2.4782
   84SOPE   H6S 7768   2.693   4.278   2.863 -0.3987 -0.2157  1.5499
   84SOPE   C27 7769   2.554   4.200   3.008 -0.4124 -0.2317 -0.2053
   84SOPE   H7R 7770   2.451   4.243   3.015 -0.2257 -0.0745  1.9131
   84SOPE   H7S 7771   2.539   4.095   3.039 -1.0865  0.2836  1.2848
   84SOPE   C28 7772   2.647   4.268   3.113 -0.7012 -0.5697  0.4118
   84SOPE   H8R 7773   2.573   4.252   3.195 -1.6848 -2.6739 -0.8661
   84SOPE   H8S 7774   2.734   4.201   3.132 -0.3519 -0.9165 -2.2981
   84SOPE   C29 7775   2.667   4.419   3.116 -0.0514  0.3964 -0.1171
   84SOPE   H91 7776   2.612   4.476   3.040  0.9823  0.5510 -0.7562
   84SOPE  C210 7777   2.771   4.482   3.178  0.0934 -0.3801 -0.1621
   84SOPE  H101 7778   2.774   4.592   3.181 -0.2684 -0.3479 -0.8225
   84SOPE  C211 7779   2.874   4.424   3.277 -0.0094 -0.0989 -0.7293
   84SOPE  H11R 7780   2.932   4.349   3.219  2.1829  0.7570  0.2974
   84SOPE  H11S 7781   2.823   4.379   3.365  1.6782 -0.7652 -0.0794
   84SOPE  C212 7782   2.977   4.526   3.329 -0.5124 -0.7076  0.2845
   84SOPE  H12R 7783   3.001   4.592   3.243 -2.0622 -0.0378  0.3464
   84SOPE  H12S 7784   3.060   4.464   3.368  3.3152  4.1789  0.4346
   84SOPE  C213 7785   2.920   4.621   3.430  0.8838 -0.1012 -0.5941
   84SOPE  H13R 7786   2.876   4.559   3.512 -0.8361  0.4462 -1.0981
   84SOPE  H13S 7787   2.826   4.666   3.393 -0.0308 -0.2145  1.4715
   84SOPE  C214 7788   3.010   4.733   3.485 -0.1557  0.1165 -0.4972
   84SOPE  H14R 7789   3.037   4.793   3.396 -0.4671  2.7576  1.1255
   84SOPE  H14S 7790   3.106   4.684   3.513  0.7349  2.4632  0.7510
   84SOPE  C215 7791   2.942   4.834   3.580  0.5290 -0.6609  0.2265
   84SOPE  H15R 7792   2.880   4.773   3.649  0.3533 -0.6897  0.0438
   84SOPE  H15S 7793   2.869   4.886   3.514 -1.6729 -1.5373  1.8960
   84SOPE  C216 7794   3.036   4.930   3.651 -0.0638  0.1350  0.2070
   84SOPE  H16R 7795   3.097   4.985   3.577 -0.5785  0.5784  0.1099
   84SOPE  H16S 7796   3.114   4.881   3.713  0.4283  0.5897 -0.0469
   84SOPE  C217 7797   2.958   5.046   3.728 -0.6032  0.1748 -0.6455
   84SOPE  H17R 7798   2.918   5.009   3.824 -1.1852  0.3893 -0.8039
   84SOPE  H17S 7799   2.883   5.077   3.652 -1.3985  0.5327  0.2807
   84SOPE  C218 7800   3.052   5.158   3.764  0.8138  0.0202  0.3203
   84SOPE  H18R 7801   3.143   5.124   3.818  2.6571  1.7287 -1.6200
   84SOPE  H18S 7802   2.995   5.227   3.832  2.2646  1.9348 -0.3587
   84SOPE  H18T 7803   3.088   5.205   3.670  2.5746  0.4893  1.2164
   84SOPE   C33 7804   2.857   4.469   2.615  0.3201  0.8436  0.1624
   84SOPE   H3X 7805   2.768   4.427   2.667 -0.1610 -0.5020 -1.7124
   84SOPE   H3Y 7806   2.858   4.580   2.605  1.0536  0.8622  0.4135
   84SOPE   C34 7807   2.993   4.430   2.679  0.0139  0.4937 -0.0760
   84SOPE   H4X 7808   3.066   4.444   2.596  0.2334 -0.5718 -0.0776
   84SOPE   H4Y 7809   3.010   4.322   2.701  1.9274  0.6168 -0.7907
   84SOPE   C35 7810   3.020   4.519   2.800 -0.0455 -0.7206  0.5574
   84SOPE   H5X 7811   2.948   4.508   2.883 -0.3193 -1.4600  0.2265
   84SOPE   H5Y 7812   3.007   4.625   2.769 -1.9713 -0.3388  2.5668
   84SOPE   C36 7813   3.176   4.513   2.834 -0.1690 -0.0271  0.0300
   84SOPE   H6X 7814   3.200   4.610   2.882  0.5520 -0.5803  0.8105
   84SOPE   H6Y 7815   3.236   4.503   2.742  0.0894  1.6502  0.0085
   84SOPE   C37 7816   3.217   4.420   2.945  0.7889 -0.1787 -0.1831
   84SOPE   H7X 7817   3.171   4.322   2.921  2.0261 -0.9084  0.4302
   84SOPE   H7Y 7818   3.166   4.451   3.039 -0.8435 -1.3582 -0.6474
   84SOPE   C38 7819   3.366   4.422   2.980  0.5805  0.5531 -0.2382
   84SOPE   H8X 7820   3.405   4.525   2.988 -1.5906  1.4476 -0.8128
   84SOPE   H8Y 7821   3.404   4.378   2.885  2.0753  1.3859 -0.0385
   84SOPE   C39 7822   3.414   4.331   3.094 -0.0164  0.0791 -0.5747
   84SOPE   H9X 7823   3.524   4.326   3.081 -0.2365  0.4525 -2.8132
   84SOPE   H9Y 7824   3.381   4.226   3.083  0.4851 -0.4108  2.3128
   84SOPE  C310 7825   3.395   4.400   3.235 -0.3503  0.3559 -0.2900
   84SOPE  H10X 7826   3.289   4.403   3.270  0.2071 -1.6729  1.7396
   84SOPE  H10Y 7827   3.435   4.503   3.235 -1.5344  0.8262 -0.0465
   84SOPE  C311 7828   3.455   4.312   3.345 -0.0989  0.2371 -0.5573
   84SOPE  H11X 7829   3.566   4.312   3.335 -0.1899 -2.7892 -1.9179
   84SOPE  H11Y 7830   3.417   4.208   3.352  0.0369  0.3547  2.3560
   84SOPE  C312 7831   3.438   4.368   3.486 -0.7977  0.1862 -0.2818
   84SOPE  H12X 7832   3.442   4.479   3.484  1.4922  0.1448  0.0390
   84SOPE  H12Y 7833   3.525   4.341   3.551  0.4742 -1.2890 -2.5479
   84SOPE  C313 7834   3.301   4.331   3.549 -0.3941 -0.4483  0.3767
   84SOPE  H13X 7835   3.228   4.325   3.465 -0.9959  2.4645  0.6212
   84SOPE  H13Y 7836   3.274   4.417   3.615 -0.2171 -1.3894  1.6964
   84SOPE  C314 7837   3.298   4.215   3.643  0.8640 -0.1443 -0.8247
   84SOPE  H14X 7838   3.378   4.241   3.717 -1.7598  1.5533  1.5181
   84SOPE  H14Y 7839   3.329   4.119   3.597  0.1402  0.4367 -2.5316
   84SOPE  C315 7840   3.162   4.188   3.714  0.3516 -0.5501 -0.2673
   84SOPE  H15X 7841   3.082   4.186   3.637 -2.2678 -2.3898  2.3884
   84SOPE  H15Y 7842   3.142   4.265   3.792 -0.0520 -0.2073 -0.7058
   84SOPE  C316 7843   3.158   4.049   3.790  0.7501 -0.4030 -0.4541
   84SOPE  H16X 7844   3.205   3.961   3.742  1.3161  0.0142 -0.6667
   84SOPE  H16Y 7845   3.052   4.022   3.808  0.0409  1.5247 -1.6287
   84SOPE  C317 7846   3.232   4.061   3.922  0.1671 -0.1775 -0.3799
   84SOPE  H17X 7847   3.187   4.142   3.983  0.7789  0.0879 -0.2783
   84SOPE  H17Y 7848   3.337   4.095   3.914  0.2068 -0.0606  0.5998
   84SOPE  C318 7849   3.233   3.929   4.000  0.4763 -0.2884 -0.2221
   84SOPE  H18X 7850   3.284   3.956   4.095 -0.0292 -2.3301  0.6500
   84SOPE  H18Y 7851   3.288   3.860   3.933  0.5644  0.8323 -1.3388
   84SOPE  H18Z 7852   3.131   3.897   4.029  0.9162 -0.3434  1.3011
   85SOPE     N 7853   5.625   4.666   1.847 -0.4573 -0.2759 -0.0186
   85SOPE   HN1 7854   5.600   4.647   1.748 -1.4192  0.1335  0.1399
   85SOPE   HN2 7855   5.648   4.765   1.866 -1.5787 -0.1754  0.9031
   85SOPE   HN3 7856   5.714   4.617   1.869  0.9154  1.7622 -0.9262
   85SOPE   C12 7857   5.521   4.627   1.943  0.0151  0.0874  0.7295
   85SOPE  H12A 7858   5.557   4.639   2.047 -1.8187  1.1300  1.2650
   85SOPE  H12B 7859   5.496   4.520   1.929  1.1275 -0.1591  0.5514
   85SOPE   C11 7860   5.388   4.706   1.926  0.9271  0.3928 -0.4167
   85SOPE  H11A 7861   5.408   4.814   1.943 -2.2656  1.0754 -0.7682
   85SOPE  H11B 7862   5.315   4.679   2.005 -0.2480  0.2844 -1.5158
   85SOPE     P 7863   5.248   4.532   1.782  0.3471 -0.3996 -0.4134
   85SOPE   O13 7864   5.344   4.432   1.740 -0.8584 -0.0550  0.0077
   85SOPE   O14 7865   5.132   4.556   1.698  0.5053  0.2712 -0.1148
   85SOPE   O12 7866   5.324   4.669   1.806 -0.4302 -0.2464 -0.1693
   85SOPE   O11 7867   5.202   4.502   1.928 -0.2666 -0.2429  0.5652
   85SOPE    C1 7868   5.064   4.475   1.966 -0.0322 -0.3468  0.3124
   85SOPE    HA 7869   5.078   4.402   2.048  0.0494 -1.5332 -0.7480
   85SOPE    HB 7870   4.997   4.441   1.884 -1.4993 -2.1620  2.2292
   85SOPE    C2 7871   4.977   4.594   2.012  0.0602 -0.3177  0.0033
   85SOPE    HS 7872   4.938   4.637   1.917  1.3303  0.5874 -0.1272
   85SOPE   O21 7873   5.065   4.687   2.078 -0.3470  0.0535  0.8446
   85SOPE   C21 7874   5.016   4.810   2.096  0.2496 -0.3232  0.6474
   85SOPE   O22 7875   4.904   4.845   2.064 -0.3413 -0.0143  0.0721
   85SOPE   C22 7876   5.136   4.905   2.135  0.5405 -0.3979 -0.9749
   85SOPE   H2R 7877   5.137   4.984   2.057  0.1276 -0.2887 -0.8740
   85SOPE   H2S 7878   5.231   4.849   2.124 -0.8235 -2.9695 -0.2941
   85SOPE    C3 7879   4.863   4.550   2.113  0.0339  0.4700  0.6153
   85SOPE    HX 7880   4.805   4.470   2.062  1.3840  1.3183 -2.3106
   85SOPE    HY 7881   4.797   4.637   2.131 -1.1989 -0.4949  0.8213
   85SOPE   O31 7882   4.926   4.508   2.240 -0.0979  0.3248 -0.5869
   85SOPE   C31 7883   4.874   4.566   2.346  0.0985 -0.2540 -0.0738
   85SOPE   O32 7884   4.790   4.654   2.346 -0.4862 -0.0122  0.0934
   85SOPE   C32 7885   4.947   4.514   2.469  0.5352  0.9871  0.0925
   85SOPE   H2X 7886   5.034   4.582   2.486  0.7939 -0.0317  3.2151
   85SOPE   H2Y 7887   4.993   4.419   2.434  1.0445  1.4743 -0.5903
   85SOPE   C23 7888   5.123   4.955   2.280 -1.0004 -0.3543 -0.3011
   85SOPE   H3R 7889   5.020   4.998   2.283 -0.8473 -0.0258  0.2829
   85SOPE   H3S 7890   5.202   5.031   2.295 -0.5581 -0.9743  0.5432
   85SOPE   C24 7891   5.139   4.837   2.379 -0.0272 -1.3904 -0.4591
   85SOPE   H4R 7892   5.073   4.751   2.357 -1.5984 -0.7374  1.4947
   85SOPE   H4S 7893   5.241   4.798   2.358 -0.1161 -1.2965 -1.0782
   85SOPE   C25 7894   5.125   4.880   2.518  0.8853 -0.0330  0.0329
   85SOPE   H5R 7895   5.026   4.914   2.553  0.7934  1.8564 -1.9570
   85SOPE   H5S 7896   5.156   4.794   2.581 -2.1995  0.0284  1.7070
   85SOPE   C26 7897   5.213   5.002   2.548  0.2168 -0.0068 -0.6514
   85SOPE   H6R 7898   5.299   5.006   2.477 -0.4268 -2.6299 -1.6227
   85SOPE   H6S 7899   5.152   5.092   2.522 -1.6137 -1.3285 -1.0080
   85SOPE   C27 7900   5.269   5.006   2.692 -0.0589  0.0533 -0.4522
   85SOPE   H7R 7901   5.331   4.915   2.710  0.3702  0.8837  2.5960
   85SOPE   H7S 7902   5.333   5.097   2.702  0.9518 -0.5160 -1.5647
   85SOPE   C28 7903   5.160   5.009   2.800 -0.1707 -0.0695  0.6257
   85SOPE   H8R 7904   5.111   5.109   2.807  0.2787  0.4056 -2.2707
   85SOPE   H8S 7905   5.088   4.927   2.779 -0.7956  0.2811  1.3807
   85SOPE   C29 7906   5.217   4.958   2.927 -0.3851  0.1515 -0.5964
   85SOPE   H91 7907   5.239   4.851   2.919  0.8993  0.3558 -0.0547
   85SOPE  C210 7908   5.232   5.024   3.045 -0.0208  0.5456 -0.2366
   85SOPE  H101 7909   5.289   4.969   3.122  0.8221  0.6364 -0.7827
   85SOPE  C211 7910   5.188   5.170   3.073  0.5550  0.5095  0.5849
   85SOPE  H11R 7911   5.151   5.217   2.979  1.7280  0.1811 -0.0412
   85SOPE  H11S 7912   5.273   5.239   3.089  2.2080 -1.3031 -0.0849
   85SOPE  C212 7913   5.084   5.180   3.182  0.3448  0.8531 -0.0238
   85SOPE  H12R 7914   5.119   5.134   3.277 -0.3183 -0.8325 -0.5662
   85SOPE  H12S 7915   4.996   5.116   3.159  1.0864 -0.3248  0.4048
   85SOPE  C213 7916   5.025   5.320   3.211  0.0119  0.4192  0.2660
   85SOPE  H13R 7917   4.915   5.323   3.195 -0.3373  0.9230  2.5754
   85SOPE  H13S 7918   5.070   5.387   3.135 -0.5549  1.5367  0.9119
   85SOPE  C214 7919   5.066   5.378   3.347  0.7353  0.2714  0.2258
   85SOPE  H14R 7920   5.064   5.292   3.418 -3.3004 -0.2522 -0.4266
   85SOPE  H14S 7921   4.997   5.459   3.380 -0.5114 -0.6075 -0.2095
   85SOPE  C215 7922   5.209   5.438   3.349  0.1950 -0.2826 -0.1611
   85SOPE  H15R 7923   5.221   5.506   3.262  1.8436  0.1280  0.3816
   85SOPE  H15S 7924   5.279   5.353   3.332  0.7392 -0.1520  1.3726
   85SOPE  C216 7925   5.252   5.512   3.480 -0.3364 -0.1259 -0.6005
   85SOPE  H16R 7926   5.214   5.616   3.471  1.4740  0.5228 -0.9685
   85SOPE  H16S 7927   5.363   5.518   3.471 -0.3369  1.0924  0.1874
   85SOPE  C217 7928   5.211   5.448   3.614 -0.6225 -0.5464 -0.8757
   85SOPE  H17R 7929   5.246   5.343   3.612  2.1436  0.3279 -0.5832
   85SOPE  H17S 7930   5.102   5.444   3.637 -0.0236 -0.8705  2.1551
   85SOPE  C218 7931   5.290   5.519   3.724 -0.0962 -0.0064 -0.0826
   85SOPE  H18R 7932   5.271   5.485   3.828 -0.8662 -2.7136 -1.0556
   85SOPE  H18S 7933   5.260   5.625   3.740 -1.0522  0.0423 -2.0360
   85SOPE  H18T 7934   5.396   5.533   3.696 -0.2007 -1.1717 -1.1312
   85SOPE   C33 7935   4.874   4.495   2.603  0.2739 -0.8502 -0.6033
   85SOPE   H3X 7936   4.811   4.403   2.605 -0.0843 -0.6829 -2.8453
   85SOPE   H3Y 7937   4.818   4.588   2.623  1.1596 -1.0693  3.2524
   85SOPE   C34 7938   4.969   4.490   2.730 -1.5842 -0.3337 -0.0557
   85SOPE   H4X 7939   5.047   4.565   2.707 -2.0996  0.7653  1.6919
   85SOPE   H4Y 7940   5.024   4.394   2.735 -0.3292  0.4051  0.6803
   85SOPE   C35 7941   4.901   4.524   2.868  0.2863 -0.4179  0.4095
   85SOPE   H5X 7942   4.849   4.431   2.900 -0.1898 -0.3337 -0.0986
   85SOPE   H5Y 7943   4.831   4.610   2.856  0.1291 -0.7342 -1.0021
   85SOPE   C36 7944   4.995   4.577   2.968  0.2397  0.2596  0.9281
   85SOPE   H6X 7945   5.055   4.661   2.927  0.2249 -0.0981  0.1460
   85SOPE   H6Y 7946   5.071   4.501   2.999  0.9565  0.4139 -0.3936
   85SOPE   C37 7947   4.914   4.636   3.087 -0.3286  0.2360 -0.1465
   85SOPE   H7X 7948   4.852   4.558   3.136  0.9103 -0.8455 -0.2577
   85SOPE   H7Y 7949   4.837   4.708   3.051  2.3649  2.6511 -1.2650
   85SOPE   C38 7950   4.994   4.698   3.195 -0.4006 -0.3317 -0.0215
   85SOPE   H8X 7951   5.065   4.773   3.154 -1.5223  0.5903 -0.2887
   85SOPE   H8Y 7952   5.063   4.620   3.235  3.1649  2.2187 -0.9559
   85SOPE   C39 7953   4.898   4.748   3.310  0.1632 -0.2416 -0.5549
   85SOPE   H9X 7954   4.967   4.768   3.394 -1.5978 -0.9509  1.0797
   85SOPE   H9Y 7955   4.837   4.667   3.354  1.1247 -1.5441 -1.5586
   85SOPE  C310 7956   4.807   4.860   3.261 -0.2599  0.7586  0.6018
   85SOPE  H10X 7957   4.748   4.846   3.168 -0.2024 -0.4793  0.7507
   85SOPE  H10Y 7958   4.883   4.933   3.225  2.0295 -2.5797 -1.5507
   85SOPE  C311 7959   4.724   4.934   3.370  0.8059  0.1007  0.0542
   85SOPE  H11X 7960   4.776   4.925   3.468  1.4600  1.0413 -0.2035
   85SOPE  H11Y 7961   4.620   4.897   3.370  0.7928  0.1404 -0.2752
   85SOPE  C312 7962   4.715   5.080   3.331  0.2637 -0.3540  0.1377
   85SOPE  H12X 7963   4.690   5.088   3.223 -0.6752  0.8291  0.4315
   85SOPE  H12Y 7964   4.815   5.127   3.342  0.7990 -1.4539  0.0320
   85SOPE  C313 7965   4.612   5.152   3.416  0.2731 -0.2378 -0.5165
   85SOPE  H13X 7966   4.636   5.138   3.523 -1.1300  0.4281 -0.0980
   85SOPE  H13Y 7967   4.510   5.116   3.392  0.8333 -2.6355  0.6594
   85SOPE  C314 7968   4.624   5.303   3.387  0.2241 -0.2364 -0.0017
   85SOPE  H14X 7969   4.527   5.352   3.409  0.1040 -0.4397 -0.0805
   85SOPE  H14Y 7970   4.644   5.320   3.279  1.5648  1.3167  0.4731
   85SOPE  C315 7971   4.736   5.379   3.465  0.3238  0.7840 -0.7069
   85SOPE  H15X 7972   4.775   5.448   3.387 -0.6028  1.4782 -0.5570
   85SOPE  H15Y 7973   4.811   5.307   3.503  1.3156  2.0325 -0.2575
   85SOPE  C316 7974   4.682   5.445   3.591 -0.0919  0.1984 -0.4128
   85SOPE  H16X 7975   4.611   5.376   3.642 -1.5941 -0.0216 -2.6802
   85SOPE  H16Y 7976   4.623   5.535   3.562 -0.2448  0.3340  0.3175
   85SOPE  C317 7977   4.780   5.504   3.690 -0.2023  0.2832  0.4093
   85SOPE  H17X 7978   4.839   5.417   3.726 -0.0183  0.8449  1.4878
   85SOPE  H17Y 7979   4.734   5.527   3.789 -1.2972 -1.1372  0.2503
   85SOPE  C318 7980   4.867   5.620   3.639  0.8157 -0.5560 -0.1230
   85SOPE  H18X 7981   4.798   5.702   3.610  0.7169 -0.0746  1.4498
   85SOPE  H18Y 7982   4.927   5.588   3.551  3.0664  0.1009  1.1107
   85SOPE  H18Z 7983   4.931   5.653   3.724  0.6009 -3.0014  1.0540
   86SOPE     N 7984   6.057   1.209   1.814 -0.0155 -0.0995 -0.1250
   86SOPE   HN1 7985   6.078   1.310   1.822 -1.3143  0.3171 -1.5529
   86SOPE   HN2 7986   6.012   1.174   1.901  1.0338 -1.6095 -0.1658
   86SOPE   HN3 7987   6.154   1.171   1.809  0.0071 -0.0378 -0.1518
   86SOPE   C12 7988   5.968   1.171   1.698  0.6920 -0.2502  0.8080
   86SOPE  H12A 7989   5.965   1.060   1.692  1.0589 -0.3976  3.0629
   86SOPE  H12B 7990   5.998   1.216   1.601 -0.4703  0.4092  0.7469
   86SOPE   C11 7991   5.829   1.226   1.721  0.9966 -1.2143 -0.4537
   86SOPE  H11A 7992   5.772   1.205   1.628 -1.2805 -0.0955  0.6150
   86SOPE  H11B 7993   5.825   1.334   1.749 -0.1716 -0.8151 -2.1076
   86SOPE     P 7994   5.627   1.165   1.883 -0.2911 -0.3522 -0.1534
   86SOPE   O13 7995   5.530   1.089   1.802  0.8012 -0.2906 -0.0625
   86SOPE   O14 7996   5.603   1.312   1.902  0.3701  0.3335  0.2938
   86SOPE   O12 7997   5.772   1.141   1.827 -0.4958 -0.4415  0.4006
   86SOPE   O11 7998   5.622   1.109   2.032 -0.4363 -0.1391 -0.2088
   86SOPE    C1 7999   5.638   1.199   2.140  0.2261  0.0281  0.0830
   86SOPE    HA 8000   5.606   1.140   2.228 -1.6031  1.3270  0.3210
   86SOPE    HB 8001   5.570   1.287   2.133  0.6908  0.3263 -0.9140
   86SOPE    C2 8002   5.779   1.246   2.164 -0.6434 -0.7272 -0.1436
   86SOPE    HS 8003   5.826   1.276   2.068  0.9014 -1.4051  0.3808
   86SOPE   O21 8004   5.851   1.134   2.223  0.0541 -0.4878 -0.1803
   86SOPE   C21 8005   5.944   1.077   2.155 -0.4263 -0.4215 -0.2644
   86SOPE   O22 8006   5.973   1.108   2.038  0.2118  0.5448 -0.2926
   86SOPE   C22 8007   6.014   0.971   2.248 -0.2744 -0.0705  0.1055
   86SOPE   H2R 8008   6.061   1.019   2.337 -1.8032  0.0385  0.8666
   86SOPE   H2S 8009   6.087   0.913   2.188 -0.8148 -0.7575  0.1139
   86SOPE    C3 8010   5.789   1.369   2.266  0.2452 -0.3005  0.7451
   86SOPE    HX 8011   5.748   1.459   2.215 -0.9932 -1.4290 -0.2975
   86SOPE    HY 8012   5.898   1.383   2.279  0.2712 -0.7603  1.0427
   86SOPE   O31 8013   5.721   1.338   2.392  0.2147 -0.2471  0.5013
   86SOPE   C31 8014   5.588   1.363   2.391 -0.9060  0.2854  0.2934
   86SOPE   O32 8015   5.524   1.421   2.301  0.4738 -0.0116  0.5941
   86SOPE   C32 8016   5.533   1.323   2.515 -0.1610  0.0677  0.1400
   86SOPE   H2X 8017   5.583   1.228   2.544 -0.2660  0.0054  0.1170
   86SOPE   H2Y 8018   5.424   1.309   2.503 -0.5611  2.2112  1.0333
   86SOPE   C23 8019   5.897   0.896   2.307 -0.7192 -0.3803  0.2972
   86SOPE   H3R 8020   5.816   0.956   2.354 -1.1937 -0.0571 -0.9119
   86SOPE   H3S 8021   5.952   0.836   2.383  0.7263  0.5299 -0.0185
   86SOPE   C24 8022   5.832   0.794   2.205 -0.2925  0.3344  0.7588
   86SOPE   H4R 8023   5.756   0.847   2.143 -1.3217 -1.4711  0.4337
   86SOPE   H4S 8024   5.913   0.766   2.134 -2.3159  0.4392 -1.6414
   86SOPE   C25 8025   5.777   0.672   2.274 -0.0652 -0.0880 -0.2172
   86SOPE   H5R 8026   5.858   0.599   2.294 -2.4626 -2.6390  0.5492
   86SOPE   H5S 8027   5.734   0.709   2.370 -1.2220 -1.7723 -0.0555
   86SOPE   C26 8028   5.682   0.601   2.180 -0.1697 -0.3757  0.1536
   86SOPE   H6R 8029   5.583   0.649   2.193  0.4992  0.5665  2.0509
   86SOPE   H6S 8030   5.716   0.611   2.075 -1.8193 -2.3005 -0.5794
   86SOPE   C27 8031   5.667   0.443   2.198 -0.6253  0.0699  0.0551
   86SOPE   H7R 8032   5.608   0.393   2.119  1.0884 -1.1570 -0.4652
   86SOPE   H7S 8033   5.768   0.399   2.195  0.0192  1.5153  0.0023
   86SOPE   C28 8034   5.604   0.409   2.341  0.6346 -0.0436  0.3608
   86SOPE   H8R 8035   5.616   0.299   2.353  1.5276 -0.0797 -0.8659
   86SOPE   H8S 8036   5.660   0.468   2.417 -2.6611  1.4722  1.7387
   86SOPE   C29 8037   5.452   0.438   2.349  0.4236  0.0305  0.1333
   86SOPE   H91 8038   5.404   0.470   2.255 -1.4982 -0.3922  0.9496
   86SOPE  C210 8039   5.387   0.437   2.469  0.2093  0.8961 -0.0924
   86SOPE  H101 8040   5.282   0.471   2.468 -0.2042 -0.3306 -1.5084
   86SOPE  C211 8041   5.454   0.408   2.598  0.0224 -0.1531 -0.7453
   86SOPE  H11R 8042   5.564   0.419   2.594 -0.1480  1.6995 -0.6867
   86SOPE  H11S 8043   5.422   0.308   2.634 -4.3095  1.5049  0.3197
   86SOPE  C212 8044   5.398   0.497   2.714 -0.1946 -0.6413  0.7652
   86SOPE  H12R 8045   5.431   0.447   2.808 -0.0066  2.5999  2.4937
   86SOPE  H12S 8046   5.288   0.516   2.715 -0.4920 -2.2655  2.4993
   86SOPE  C213 8047   5.460   0.639   2.730 -0.0871  0.6028 -0.9314
   86SOPE  H13R 8048   5.399   0.705   2.796 -1.2164 -3.0682  1.8795
   86SOPE  H13S 8049   5.464   0.689   2.631 -0.6387  0.5278 -0.9944
   86SOPE  C214 8050   5.598   0.630   2.800  0.0402 -0.3240 -0.4410
   86SOPE  H14R 8051   5.661   0.562   2.739 -0.7948 -0.3040 -1.3478
   86SOPE  H14S 8052   5.589   0.577   2.897  3.1756 -0.4637 -0.1795
   86SOPE  C215 8053   5.672   0.758   2.835  0.2946  0.5008  1.2325
   86SOPE  H15R 8054   5.746   0.725   2.911  1.1144 -2.1682 -0.6562
   86SOPE  H15S 8055   5.601   0.825   2.889 -2.6838  0.4251 -2.4352
   86SOPE  C216 8056   5.740   0.828   2.718 -0.4496 -0.0293 -0.2577
   86SOPE  H16R 8057   5.681   0.822   2.623  1.9089 -0.8049 -1.7200
   86SOPE  H16S 8058   5.842   0.789   2.695 -1.2695 -1.6644 -1.2428
   86SOPE  C217 8059   5.758   0.978   2.753 -0.3778  0.3836  0.0786
   86SOPE  H17R 8060   5.792   0.978   2.858  0.3838 -1.8729 -0.1437
   86SOPE  H17S 8061   5.665   1.037   2.771  0.6482  1.2070  2.8579
   86SOPE  C218 8062   5.847   1.049   2.652  0.2004  0.2974 -0.2638
   86SOPE  H18R 8063   5.945   0.999   2.634  0.6968  0.5463  1.6305
   86SOPE  H18S 8064   5.879   1.146   2.697 -1.2669  0.5504  0.2418
   86SOPE  H18T 8065   5.778   1.060   2.566 -3.4746 -0.7561  2.4373
   86SOPE   C33 8066   5.560   1.417   2.630  0.3840 -0.1832 -0.5204
   86SOPE   H3X 8067   5.510   1.515   2.613  0.4703 -0.0701 -0.1345
   86SOPE   H3Y 8068   5.671   1.431   2.629  0.5551 -1.4923 -0.8472
   86SOPE   C34 8069   5.521   1.368   2.766 -0.1399 -0.1034 -0.3396
   86SOPE   H4X 8070   5.600   1.416   2.827  0.3144  0.0445 -1.0351
   86SOPE   H4Y 8071   5.526   1.259   2.786 -0.9815 -0.2005 -0.6097
   86SOPE   C35 8072   5.380   1.420   2.813  0.0462 -0.2835 -0.3728
   86SOPE   H5X 8073   5.293   1.352   2.801 -0.1187 -0.1990  0.3337
   86SOPE   H5Y 8074   5.362   1.510   2.751 -4.1855 -0.5659  0.3038
   86SOPE   C36 8075   5.393   1.470   2.955  0.2225  0.0209 -0.4010
   86SOPE   H6X 8076   5.472   1.549   2.950  0.8171 -0.5338  0.1749
   86SOPE   H6Y 8077   5.430   1.384   3.015  0.5522  0.7482  0.4541
   86SOPE   C37 8078   5.263   1.524   3.008 -0.1369 -0.3425  0.5459
   86SOPE   H7X 8079   5.177   1.469   2.965 -0.8375 -0.2627  1.8278
   86SOPE   H7Y 8080   5.254   1.630   2.976 -0.1246 -0.8643 -1.2205
   86SOPE   C38 8081   5.254   1.532   3.161 -0.1864  0.0238  0.0803
   86SOPE   H8X 8082   5.256   1.437   3.220  0.0457  1.2198  2.0309
   86SOPE   H8Y 8083   5.154   1.576   3.183 -0.6139 -0.7316 -0.3264
   86SOPE   C39 8084   5.366   1.620   3.222 -0.1341 -0.4713  0.0458
   86SOPE   H9X 8085   5.354   1.726   3.192  0.0674 -0.2425  0.7718
   86SOPE   H9Y 8086   5.463   1.587   3.178  1.2407  1.6871  1.3722
   86SOPE  C310 8087   5.357   1.617   3.377 -0.4882  0.0371  0.3455
   86SOPE  H10X 8088   5.253   1.630   3.414 -0.7217  1.4672 -0.7506
   86SOPE  H10Y 8089   5.412   1.704   3.420 -1.6674  0.6481  0.6296
   86SOPE  C311 8090   5.420   1.494   3.444 -0.1915  0.1561  0.3804
   86SOPE  H11X 8091   5.507   1.455   3.388 -1.5400 -3.0518  0.4166
   86SOPE  H11Y 8092   5.353   1.406   3.441  1.0101 -0.7164 -1.5095
   86SOPE  C312 8093   5.466   1.523   3.592  0.0059 -0.1213 -0.6401
   86SOPE  H12X 8094   5.371   1.564   3.632  0.8105  1.4131 -0.2443
   86SOPE  H12Y 8095   5.546   1.600   3.586  0.0612 -0.2245 -1.2364
   86SOPE  C313 8096   5.517   1.405   3.674 -0.0088  0.4110  0.2417
   86SOPE  H13X 8097   5.430   1.336   3.675 -1.3225  1.9846 -2.1953
   86SOPE  H13Y 8098   5.542   1.431   3.779 -0.3462 -3.1492  1.2903
   86SOPE  C314 8099   5.640   1.355   3.600 -0.4117 -0.2958 -0.1668
   86SOPE  H14X 8100   5.696   1.444   3.563  0.8092 -1.4741 -1.2405
   86SOPE  H14Y 8101   5.603   1.294   3.514 -1.4697  0.0171  0.0679
   86SOPE  C315 8102   5.728   1.252   3.679 -0.2171 -0.2373 -0.2528
   86SOPE  H15X 8103   5.760   1.289   3.779 -1.2894 -1.9098  0.7446
   86SOPE  H15Y 8104   5.823   1.225   3.629  0.0851  0.4537 -0.0631
   86SOPE  C316 8105   5.655   1.125   3.705 -0.0162  0.7644  0.2656
   86SOPE  H16X 8106   5.636   1.070   3.611 -2.0572  0.3626  0.8785
   86SOPE  H16Y 8107   5.553   1.138   3.749 -0.1207  0.2270  0.1738
   86SOPE  C317 8108   5.727   1.035   3.806 -0.1693 -0.1669  0.8303
   86SOPE  H17X 8109   5.640   0.984   3.854 -0.1224 -0.7333  0.3210
   86SOPE  H17Y 8110   5.773   1.095   3.887 -1.3512  1.4320  0.3556
   86SOPE  C318 8111   5.814   0.925   3.761  0.1510  0.2354 -0.2630
   86SOPE  H18X 8112   5.894   0.977   3.705 -2.3244  2.3095 -1.9748
   86SOPE  H18Y 8113   5.754   0.868   3.687  1.7945 -0.1072 -1.3403
   86SOPE  H18Z 8114   5.843   0.856   3.843  0.3308  0.2991 -0.2750
   87SOPE     N 8115   6.304   0.755   1.571 -0.4026  0.2671  0.2639
   87SOPE   HN1 8116   6.228   0.732   1.638  1.0184  0.0702  1.8413
   87SOPE   HN2 8117   6.275   0.784   1.476  1.5542  2.0694  0.1829
   87SOPE   HN3 8118   6.369   0.674   1.560 -0.9780 -0.0060 -1.1353
   87SOPE   C12 8119   6.391   0.866   1.629 -0.2752  0.3803  0.4875
   87SOPE  H12A 8120   6.337   0.961   1.608 -1.2667  0.0971  1.6627
   87SOPE  H12B 8121   6.492   0.869   1.584  0.0372  2.3991  1.2820
   87SOPE   C11 8122   6.407   0.847   1.777 -0.1367 -0.3985  0.5430
   87SOPE  H11A 8123   6.445   0.745   1.800  0.0106 -0.5957 -0.5586
   87SOPE  H11B 8124   6.314   0.853   1.837 -0.4967 -1.8183  0.1552
   87SOPE     P 8125   6.452   1.084   1.886 -0.4910 -0.0897  0.1439
   87SOPE   O13 8126   6.317   1.122   1.832 -0.0735  0.0423 -0.0346
   87SOPE   O14 8127   6.564   1.181   1.853 -0.1393 -0.1154  0.0550
   87SOPE   O12 8128   6.493   0.945   1.830 -0.3717 -0.3034  0.0070
   87SOPE   O11 8129   6.437   1.062   2.048 -0.1379 -0.4738 -0.6789
   87SOPE    C1 8130   6.537   0.996   2.117  0.7175  0.8014  0.3926
   87SOPE    HA 8131   6.545   1.029   2.223  0.5900 -2.3640  1.4675
   87SOPE    HB 8132   6.639   1.013   2.077  1.9174  0.9967  3.3808
   87SOPE    C2 8133   6.528   0.841   2.121 -0.9044 -0.7161 -0.5223
   87SOPE    HS 8134   6.524   0.806   2.016  0.4925  1.1564 -1.2226
   87SOPE   O21 8135   6.414   0.806   2.197 -0.3219 -0.1794 -0.2577
   87SOPE   C21 8136   6.368   0.695   2.164 -0.2364  0.2187  0.9426
   87SOPE   O22 8137   6.414   0.619   2.081  0.4879  0.1923  0.1822
   87SOPE   C22 8138   6.249   0.657   2.254  0.5260  0.3142  0.2854
   87SOPE   H2R 8139   6.225   0.549   2.241  1.9907  0.0791 -0.6420
   87SOPE   H2S 8140   6.159   0.701   2.205 -0.4513 -0.0202  1.7639
   87SOPE    C3 8141   6.662   0.787   2.187 -0.2451  0.3143  0.3414
   87SOPE    HX 8142   6.749   0.834   2.137 -1.3298  2.3272  0.2626
   87SOPE    HY 8143   6.676   0.679   2.164 -1.1405  0.2627  0.0024
   87SOPE   O31 8144   6.660   0.826   2.332  0.3992  0.3855  0.0696
   87SOPE   C31 8145   6.637   0.725   2.411 -0.3198  0.2298 -0.1092
   87SOPE   O32 8146   6.617   0.611   2.370 -0.2004 -0.1362 -0.1110
   87SOPE   C32 8147   6.636   0.770   2.556  0.6012 -0.2797  0.3997
   87SOPE   H2X 8148   6.547   0.836   2.560  0.4891 -0.1644 -2.4674
   87SOPE   H2Y 8149   6.735   0.819   2.572  1.0829 -0.7007 -1.1888
   87SOPE   C23 8150   6.286   0.693   2.403  0.2508  0.5171 -0.1661
   87SOPE   H3R 8151   6.285   0.804   2.406  0.3626  0.4805  2.9314
   87SOPE   H3S 8152   6.383   0.654   2.440 -0.2179 -0.9597 -0.4745
   87SOPE   C24 8153   6.183   0.639   2.501  0.6311  0.4956 -0.0612
   87SOPE   H4R 8154   6.082   0.677   2.475  0.2212 -0.5576 -0.0245
   87SOPE   H4S 8155   6.166   0.529   2.498 -1.6501  0.7462  1.9909
   87SOPE   C25 8156   6.208   0.673   2.646  0.4428 -0.1760 -0.3699
   87SOPE   H5R 8157   6.312   0.647   2.674 -0.2547 -0.7421  1.7723
   87SOPE   H5S 8158   6.202   0.784   2.648 -0.3091 -0.1068 -3.8504
   87SOPE   C26 8159   6.108   0.610   2.746  0.0128 -0.0920 -0.2554
   87SOPE   H6R 8160   6.005   0.624   2.708  1.0888  2.3086 -2.4297
   87SOPE   H6S 8161   6.131   0.501   2.744 -2.1046 -0.6136  1.9127
   87SOPE   C27 8162   6.113   0.669   2.888 -0.1311  0.2836  0.1932
   87SOPE   H7R 8163   6.212   0.655   2.936  0.1192  1.1019 -0.0805
   87SOPE   H7S 8164   6.102   0.780   2.878  1.8106  0.2989 -2.0723
   87SOPE   C28 8165   6.017   0.594   2.986 -0.6300 -0.0553 -0.3243
   87SOPE   H8R 8166   6.030   0.637   3.088 -0.5397  0.7692 -0.6802
   87SOPE   H8S 8167   5.913   0.617   2.955 -0.7297 -1.5958 -1.1370
   87SOPE   C29 8168   6.040   0.446   2.996  1.0802  0.8432  0.8198
   87SOPE   H91 8169   6.044   0.391   2.901  1.6083  1.3563  0.5425
   87SOPE  C210 8170   6.042   0.370   3.109  1.0096 -0.4243  0.0367
   87SOPE  H101 8171   6.063   0.263   3.094  1.1022  0.0726 -3.7169
   87SOPE  C211 8172   6.041   0.411   3.252 -0.0917 -0.2477 -0.2091
   87SOPE  H11R 8173   5.939   0.437   3.289 -0.6643 -2.3361 -0.2862
   87SOPE  H11S 8174   6.092   0.509   3.264 -1.8569  0.7671 -0.7700
   87SOPE  C212 8175   6.103   0.303   3.339 -0.3686 -0.5488 -0.0657
   87SOPE  H12R 8176   6.211   0.287   3.321  0.1227  0.5781  1.7847
   87SOPE  H12S 8177   6.047   0.207   3.328  1.4573 -1.2960 -3.8503
   87SOPE  C213 8178   6.084   0.340   3.486 -0.6397  0.0563 -0.3214
   87SOPE  H13R 8179   5.978   0.369   3.507 -0.6860 -0.9099  0.8639
   87SOPE  H13S 8180   6.140   0.430   3.518 -0.4137 -0.2574  0.1731
   87SOPE  C214 8181   6.121   0.226   3.578  0.0505  0.0138  0.6459
   87SOPE  H14R 8182   6.227   0.199   3.554  0.2350  1.2279  0.0826
   87SOPE  H14S 8183   6.052   0.139   3.567 -1.9919  1.4173  2.0349
   87SOPE  C215 8184   6.120   0.276   3.724 -0.0414 -0.3337  0.2041
   87SOPE  H15R 8185   6.033   0.346   3.734  0.3857  0.0357  1.3483
   87SOPE  H15S 8186   6.205   0.345   3.740  0.2871 -0.1583 -2.0709
   87SOPE  C216 8187   6.127   0.151   3.812  0.2472 -0.4466  0.1232
   87SOPE  H16R 8188   6.224   0.102   3.788  0.6885  0.9115 -0.9281
   87SOPE  H16S 8189   6.045   0.077   3.798  1.0514 -1.2820 -0.2619
   87SOPE  C217 8190   6.131   0.193   3.961 -0.2326  1.1197  0.1139
   87SOPE  H17R 8191   6.231   0.241   3.960  0.1957  0.2348 -0.4894
   87SOPE  H17S 8192   6.135   0.097   4.017  1.1107  0.4086 -1.1547
   87SOPE  C218 8193   6.026   0.287   4.015  0.1943  0.1982  0.3262
   87SOPE  H18R 8194   6.021   0.374   3.946  2.0912 -1.5117 -2.0706
   87SOPE  H18S 8195   6.047   0.315   4.120 -0.4924 -0.7541  0.7231
   87SOPE  H18T 8196   5.928   0.235   4.010 -0.1860  0.8107  1.1719
   87SOPE   C33 8197   6.611   0.649   2.652 -0.1433 -0.6244  0.1037
   87SOPE   H3X 8198   6.694   0.576   2.655  0.8561  0.5374  0.9508
   87SOPE   H3Y 8199   6.510   0.606   2.634 -0.3030 -0.1211 -0.2327
   87SOPE   C34 8200   6.608   0.703   2.795  0.3738  0.2851 -0.2153
   87SOPE   H4X 8201   6.552   0.799   2.797 -1.0063 -0.4514 -2.2653
   87SOPE   H4Y 8202   6.714   0.710   2.830  0.9590 -1.8928 -1.4459
   87SOPE   C35 8203   6.545   0.615   2.904  0.0622  0.3467  0.7566
   87SOPE   H5X 8204   6.605   0.521   2.900 -0.4974 -0.0760  1.9441
   87SOPE   H5Y 8205   6.441   0.600   2.868  1.0684  0.4275 -2.3572
   87SOPE   C36 8206   6.552   0.671   3.048  0.2922  0.0223  0.4743
   87SOPE   H6X 8207   6.503   0.771   3.040  1.1860  0.6094  2.1160
   87SOPE   H6Y 8208   6.653   0.667   3.092  0.5717  0.2316 -0.1420
   87SOPE   C37 8209   6.468   0.590   3.151  0.1112  0.0925  0.1173
   87SOPE   H7X 8210   6.517   0.494   3.179  1.9941  0.7672 -0.7987
   87SOPE   H7Y 8211   6.372   0.573   3.098 -0.3691 -1.4655  1.4375
   87SOPE   C38 8212   6.439   0.660   3.280  0.3543  0.1184  0.2189
   87SOPE   H8X 8213   6.365   0.743   3.271  3.4751  3.0062  0.2187
   87SOPE   H8Y 8214   6.535   0.701   3.318 -1.1847  0.0095  4.5326
   87SOPE   C39 8215   6.403   0.566   3.395  0.7897 -0.3147 -0.3252
   87SOPE   H9X 8216   6.487   0.499   3.422 -0.5872 -0.7030  3.2545
   87SOPE   H9Y 8217   6.317   0.498   3.378  2.0074 -2.1386  0.7530
   87SOPE  C310 8218   6.402   0.643   3.533 -0.1299  0.6502  0.1524
   87SOPE  H10X 8219   6.491   0.710   3.531 -0.2457  0.8087  0.2575
   87SOPE  H10Y 8220   6.402   0.567   3.614  1.0891  1.0951  0.5885
   87SOPE  C311 8221   6.277   0.728   3.551  0.5172  1.1606 -0.2781
   87SOPE  H11X 8222   6.187   0.663   3.540  1.9958 -0.8328 -0.8296
   87SOPE  H11Y 8223   6.270   0.794   3.462 -1.2518  0.4851 -0.6675
   87SOPE  C312 8224   6.276   0.822   3.677  0.4469 -0.3753 -0.5403
   87SOPE  H12X 8225   6.190   0.892   3.681 -0.2978 -1.2694 -0.5031
   87SOPE  H12Y 8226   6.362   0.891   3.688 -0.0241  0.1257  0.1066
   87SOPE  C313 8227   6.276   0.739   3.810 -0.3944  0.1117 -0.5170
   87SOPE  H13X 8228   6.368   0.676   3.815 -0.5701 -0.0633  0.6676
   87SOPE  H13Y 8229   6.200   0.659   3.818 -1.5109  1.2328  0.2773
   87SOPE  C314 8230   6.270   0.830   3.937  0.6623  0.9978  0.5598
   87SOPE  H14X 8231   6.184   0.900   3.933 -0.7295 -0.5398  2.6273
   87SOPE  H14Y 8232   6.354   0.899   3.916 -0.8460  2.6126 -0.3221
   87SOPE  C315 8233   6.289   0.754   4.074 -0.2615  0.4370  0.2453
   87SOPE  H15X 8234   6.300   0.835   4.150  1.2560 -1.4173  2.0433
   87SOPE  H15Y 8235   6.374   0.683   4.073 -0.8351 -0.2732 -2.0016
   87SOPE  C316 8236   6.160   0.680   4.108 -0.2588  0.2939 -0.6104
   87SOPE  H16X 8237   6.139   0.606   4.028  2.1518 -0.8965 -0.1926
   87SOPE  H16Y 8238   6.072   0.745   4.124 -0.9222 -0.6030 -0.5517
   87SOPE  C317 8239   6.165   0.601   4.245  0.3867  0.1760  0.1153
   87SOPE  H17X 8240   6.060   0.566   4.254 -0.3829  2.3437 -0.2147
   87SOPE  H17Y 8241   6.189   0.680   4.319  0.0151  2.6940 -2.3637
   87SOPE  C318 8242   6.260   0.481   4.251 -0.4409 -0.5314 -0.3598
   87SOPE  H18X 8243   6.227   0.397   4.186  2.2622 -1.3630 -0.7425
   87SOPE  H18Y 8244   6.258   0.446   4.356  0.1177  3.2042  0.9890
   87SOPE  H18Z 8245   6.364   0.514   4.230 -1.0438  2.5671  1.1399
   88SOPE     N 8246   0.227   0.916   1.810  0.4846  0.4279 -0.1012
   88SOPE   HN1 8247   0.324   0.928   1.776  1.4966 -0.4943  2.3299
   88SOPE   HN2 8248   0.221   0.818   1.846  0.9029  0.5816  0.3941
   88SOPE   HN3 8249   0.160   0.926   1.731  0.1754 -1.7692 -0.1556
   88SOPE   C12 8250   0.176   1.006   1.919 -0.2065  0.1560 -0.9174
   88SOPE  H12A 8251   0.223   0.974   2.014 -2.3758  1.9909  0.8654
   88SOPE  H12B 8252   0.071   0.973   1.936  0.5392 -0.7900  2.2080
   88SOPE   C11 8253   0.195   1.153   1.885  0.1061 -0.2898  0.5978
   88SOPE  H11A 8254   0.156   1.214   1.970 -2.0112  1.6767 -1.7179
   88SOPE  H11B 8255   0.133   1.183   1.798  1.4426 -1.9678 -0.9629
   88SOPE     P 8256   0.356   1.349   1.861  0.0483  0.6333  0.3270
   88SOPE   O13 8257   0.251   1.422   1.790  0.1916  0.4449 -0.3127
   88SOPE   O14 8258   0.498   1.366   1.803  0.1865  0.1502  0.7163
   88SOPE   O12 8259   0.324   1.188   1.856  0.3620  0.3612  0.1543
   88SOPE   O11 8260   0.350   1.372   2.017  0.4494 -0.4848  0.4891
   88SOPE    C1 8261   0.447   1.297   2.089  0.5596 -0.2414  0.1781
   88SOPE    HA 8262   0.554   1.314   2.068  0.7477 -0.2331  1.1023
   88SOPE    HB 8263   0.422   1.189   2.078  1.8241 -0.5882  0.6555
   88SOPE    C2 8264   0.448   1.344   2.238 -0.1979  0.3855  0.3652
   88SOPE    HS 8265   0.514   1.270   2.290  2.1198  2.0568 -0.1147
   88SOPE   O21 8266   0.320   1.334   2.297  0.3282  0.9300  0.4193
   88SOPE   C21 8267   0.266   1.206   2.302 -0.7740  0.5704 -0.1276
   88SOPE   O22 8268   0.325   1.106   2.279 -0.3345  0.0763 -0.3688
   88SOPE   C22 8269   0.126   1.220   2.366  0.0706  0.1762  0.5648
   88SOPE   H2R 8270   0.064   1.128   2.356  0.6775 -0.2837  1.0200
   88SOPE   H2S 8271   0.075   1.312   2.332  1.4705  1.1617  1.0947
   88SOPE    C3 8272   0.500   1.490   2.259  0.1858  0.4424  0.3849
   88SOPE    HX 8273   0.450   1.554   2.184 -0.3312 -1.4813 -0.9442
   88SOPE    HY 8274   0.608   1.489   2.232  0.4328 -2.6249  1.2636
   88SOPE   O31 8275   0.491   1.532   2.400 -0.6887 -0.2708  0.2694
   88SOPE   C31 8276   0.413   1.634   2.415 -0.0832 -0.1498  0.7686
   88SOPE   O32 8277   0.340   1.689   2.334 -0.4897  0.3358  0.0783
   88SOPE   C32 8278   0.403   1.663   2.560 -0.1523  0.0832 -0.0850
   88SOPE   H2X 8279   0.503   1.665   2.609  0.1569  0.6504 -0.7284
   88SOPE   H2Y 8280   0.351   1.577   2.607 -2.5613  1.8985  0.7046
   88SOPE   C23 8281   0.153   1.254   2.523 -0.4016  0.7415 -0.1411
   88SOPE   H3R 8282   0.212   1.348   2.524 -0.9228  1.0617  1.2857
   88SOPE   H3S 8283   0.215   1.170   2.561 -0.2347  1.6342  1.5880
   88SOPE   C24 8284   0.031   1.255   2.610 -0.4437 -0.1026  0.0429
   88SOPE   H4R 8285  -0.038   1.340   2.591 -0.8668  0.0344  2.0848
   88SOPE   H4S 8286  -0.029   1.164   2.588 -1.7394  0.6942  0.2547
   88SOPE   C25 8287   0.078   1.235   2.757  0.2024 -0.1003  0.0045
   88SOPE   H5R 8288  -0.015   1.192   2.800 -0.6282  0.4920 -1.1502
   88SOPE   H5S 8289   0.161   1.161   2.760  1.6397  1.5817  4.2648
   88SOPE   C26 8290   0.127   1.358   2.829 -0.0237 -0.0108 -0.7818
   88SOPE   H6R 8291   0.211   1.405   2.775 -0.3133  2.5569  0.8968
   88SOPE   H6S 8292   0.054   1.434   2.864  0.6469 -0.0826  0.8287
   88SOPE   C27 8293   0.204   1.309   2.960  0.3309  0.3562 -0.2067
   88SOPE   H7R 8294   0.275   1.227   2.937  0.6046  0.3347  0.6933
   88SOPE   H7S 8295   0.261   1.392   3.007  0.6437  0.9847 -1.6724
   88SOPE   C28 8296   0.104   1.252   3.061  0.0052  0.4165  0.3546
   88SOPE   H8R 8297   0.041   1.173   3.015  0.7421 -0.8843  1.5352
   88SOPE   H8S 8298   0.160   1.209   3.147  0.3879 -0.7922 -0.4871
   88SOPE   C29 8299  -0.002   1.355   3.116 -0.3433 -0.5368  0.3616
   88SOPE   H91 8300  -0.036   1.443   3.060 -0.4751 -0.6788  0.2167
   88SOPE  C210 8301  -0.054   1.337   3.241  0.3986  0.3873  0.0081
   88SOPE  H101 8302  -0.126   1.411   3.278 -1.1899 -1.1226 -0.0219
   88SOPE  C211 8303  -0.024   1.225   3.338 -0.5779 -0.7042 -0.4311
   88SOPE  H11R 8304   0.077   1.234   3.382 -1.8094 -1.1888  2.6404
   88SOPE  H11S 8305  -0.021   1.124   3.292 -3.2117  0.6316 -3.7410
   88SOPE  C212 8306  -0.122   1.227   3.454 -0.3157  0.0520  0.1982
   88SOPE  H12R 8307  -0.224   1.193   3.428 -0.1175 -1.3214  1.1434
   88SOPE  H12S 8308  -0.121   1.324   3.507  4.3488  0.0372  0.3619
   88SOPE  C213 8309  -0.089   1.125   3.569 -0.4185 -0.0789  0.2769
   88SOPE  H13R 8310   0.017   1.128   3.601 -0.8827  0.2380  1.8730
   88SOPE  H13S 8311  -0.099   1.020   3.534 -0.2975  0.5418 -1.6584
   88SOPE  C214 8312  -0.176   1.144   3.691 -0.2466  0.5300  0.1027
   88SOPE  H14R 8313  -0.276   1.193   3.686 -0.8747 -0.3705  2.8137
   88SOPE  H14S 8314  -0.121   1.211   3.761  1.0817 -0.5085  0.0607
   88SOPE  C215 8315  -0.197   1.021   3.778  0.3036 -0.0457 -0.4320
   88SOPE  H15R 8316  -0.097   0.979   3.804  0.5948  0.4691 -0.7219
   88SOPE  H15S 8317  -0.246   0.932   3.731 -1.2328 -0.1124  1.2424
   88SOPE  C216 8318  -0.269   1.064   3.906 -0.7651  0.1095  0.6970
   88SOPE  H16R 8319  -0.223   1.156   3.947 -0.6266  0.3569 -0.0227
   88SOPE  H16S 8320  -0.251   0.974   3.969 -2.3073  0.7665  2.1135
   88SOPE  C217 8321  -0.425   1.086   3.891  0.0410  0.2849  0.0471
   88SOPE  H17R 8322  -0.473   1.006   3.830  0.4282  2.8424 -3.7885
   88SOPE  H17S 8323  -0.435   1.184   3.839  0.1907  0.8245  1.0284
   88SOPE  C218 8324  -0.502   1.107   4.022  0.5254  0.4924  0.5012
   88SOPE  H18R 8325  -0.432   1.148   4.098  2.6941  1.0383 -1.7234
   88SOPE  H18S 8326  -0.548   1.010   4.052  2.0226  0.0625  1.4431
   88SOPE  H18T 8327  -0.578   1.187   4.017  2.0892  1.8538 -3.3001
   88SOPE   C33 8328   0.322   1.790   2.582  0.5604 -0.8027  0.1809
   88SOPE   H3X 8329   0.217   1.755   2.572 -0.3037  2.2414 -2.1505
   88SOPE   H3Y 8330   0.346   1.876   2.516 -1.4459  0.5424  1.1676
   88SOPE   C34 8331   0.347   1.837   2.728 -0.7973  0.0936  0.4874
   88SOPE   H4X 8332   0.285   1.927   2.750 -0.1920  0.4362  0.8153
   88SOPE   H4Y 8333   0.452   1.852   2.761 -0.6563  1.8593 -0.7213
   88SOPE   C35 8334   0.291   1.740   2.841 -0.1947 -0.2970 -0.1377
   88SOPE   H5X 8335   0.354   1.649   2.836 -0.3833 -0.4861  0.8585
   88SOPE   H5Y 8336   0.192   1.705   2.805 -1.4709  1.1353  1.8959
   88SOPE   C36 8337   0.308   1.798   2.988 -0.6373  0.5127 -0.1574
   88SOPE   H6X 8338   0.244   1.888   2.992 -3.0713 -1.1766 -0.1670
   88SOPE   H6Y 8339   0.411   1.832   3.011 -0.5571  0.1279  0.0561
   88SOPE   C37 8340   0.242   1.708   3.096 -0.1353 -0.7738  0.0479
   88SOPE   H7X 8341   0.302   1.616   3.111  0.5107 -0.4680 -0.6430
   88SOPE   H7Y 8342   0.137   1.691   3.064  0.1337 -0.4900 -1.0110
   88SOPE   C38 8343   0.233   1.789   3.228 -0.3536  0.1897  0.3449
   88SOPE   H8X 8344   0.153   1.866   3.218  0.6010  1.2676  0.9509
   88SOPE   H8Y 8345   0.319   1.859   3.227 -0.4128  0.2886 -2.9422
   88SOPE   C39 8346   0.228   1.703   3.346 -0.5683 -0.5605  0.0645
   88SOPE   H9X 8347   0.315   1.635   3.340 -0.8653 -1.1192  1.8956
   88SOPE   H9Y 8348   0.138   1.639   3.357 -0.2320 -0.9449  0.6151
   88SOPE  C310 8349   0.260   1.796   3.467 -0.3173 -0.0381 -0.3818
   88SOPE  H10X 8350   0.334   1.868   3.426  0.6510 -2.1623 -2.5158
   88SOPE  H10Y 8351   0.306   1.739   3.551  0.7078  1.4708  0.0924
   88SOPE  C311 8352   0.144   1.878   3.521  0.2790  0.2848 -0.1222
   88SOPE  H11X 8353   0.068   1.802   3.550  1.9331 -1.3018  0.1249
   88SOPE  H11Y 8354   0.096   1.931   3.435  0.3842  1.8734  0.7716
   88SOPE  C312 8355   0.182   1.983   3.629 -0.6128 -0.1044  0.4112
   88SOPE  H12X 8356   0.092   2.045   3.651  0.1799  1.4690 -0.7025
   88SOPE  H12Y 8357   0.266   2.050   3.600  1.0586 -2.7235 -0.8726
   88SOPE  C313 8358   0.207   1.916   3.766  0.4550  0.1189 -0.0172
   88SOPE  H13X 8359   0.296   1.850   3.764 -0.1836 -0.7050 -1.8396
   88SOPE  H13Y 8360   0.113   1.866   3.796  1.1239 -0.6666  0.8253
   88SOPE  C314 8361   0.234   2.015   3.884 -0.4419 -0.1686  0.1473
   88SOPE  H14X 8362   0.268   1.953   3.970  0.6617  0.0717 -0.1029
   88SOPE  H14Y 8363   0.140   2.063   3.917 -0.2964  1.1944 -1.3725
   88SOPE  C315 8364   0.336   2.117   3.845  0.1301  0.6224 -0.0732
   88SOPE  H15X 8365   0.294   2.185   3.768  0.7981 -1.2764 -2.2015
   88SOPE  H15Y 8366   0.425   2.060   3.808  0.3980  1.3789 -0.6066
   88SOPE  C316 8367   0.385   2.203   3.959  0.0143 -0.6035 -0.5324
   88SOPE  H16X 8368   0.402   2.137   4.047 -1.0484 -0.3211 -0.1044
   88SOPE  H16Y 8369   0.301   2.272   3.986  0.1014 -0.2808 -1.0765
   88SOPE  C317 8370   0.503   2.302   3.929 -0.2499  0.5986  0.0455
   88SOPE  H17X 8371   0.474   2.358   3.837 -2.6939  0.9720  1.0088
   88SOPE  H17Y 8372   0.591   2.243   3.897 -0.3080  0.1798  0.6471
   88SOPE  C318 8373   0.542   2.404   4.031 -0.7543  0.0441  0.4248
   88SOPE  H18X 8374   0.608   2.484   3.992 -1.3583  0.0236 -0.6498
   88SOPE  H18Y 8375   0.590   2.359   4.121 -3.0829 -2.6704  0.3955
   88SOPE  H18Z 8376   0.450   2.463   4.055 -0.0603  1.1630  0.3669
   89SAPC     N 8377   3.926   3.988   6.118 -0.2592 -0.0643  0.3998
   89SAPC   C12 8378   3.946   4.039   5.979  0.4391  0.2495  0.6530
   89SAPC  H12A 8379   3.965   4.144   5.990  0.4869  0.4002 -0.8631
   89SAPC  H12B 8380   3.859   4.032   5.916  2.0360  1.9146 -1.8137
   89SAPC   C13 8381   3.806   4.052   6.179  0.1388  0.2447  0.8950
   89SAPC  H13A 8382   3.761   3.991   6.256 -1.4888 -0.9886 -0.9798
   89SAPC  H13B 8383   3.826   4.151   6.218  0.7069  0.5537 -0.1423
   89SAPC  H13C 8384   3.716   4.050   6.120  0.0486 -0.6928  1.0545
   89SAPC   C14 8385   3.909   3.835   6.125 -0.3697 -0.0569 -0.0415
   89SAPC  H14A 8386   3.828   3.803   6.062  0.7134 -3.3934  0.2112
   89SAPC  H14B 8387   3.996   3.786   6.084 -1.1923  0.3694 -2.4156
   89SAPC  H14C 8388   3.899   3.807   6.228  1.7287  0.7421  0.4053
   89SAPC   C15 8389   4.041   4.022   6.211  0.0790  0.2367 -0.1187
   89SAPC  H15A 8390   4.019   3.992   6.312 -1.6868  4.4442  0.8723
   89SAPC  H15B 8391   4.136   3.981   6.180  0.3668  1.4816 -0.9364
   89SAPC  H15C 8392   4.056   4.129   6.206 -1.3084  0.3909 -2.0300
   89SAPC   C11 8393   4.062   3.969   5.908  0.3311  0.2005  0.4936
   89SAPC  H11A 8394   4.158   3.962   5.964  0.9024  2.0570 -0.2205
   89SAPC  H11B 8395   4.078   4.035   5.821  0.3674 -3.2382 -2.2040
   89SAPC     P 8396   4.118   3.727   5.855  0.3063  0.4721  0.0951
   89SAPC   O13 8397   4.136   3.666   5.988  0.3010  0.0124 -0.1256
   89SAPC   O14 8398   4.078   3.634   5.749 -0.5730 -0.1695 -0.0389
   89SAPC   O12 8399   4.012   3.847   5.854 -0.1332  0.6591 -0.3793
   89SAPC   O11 8400   4.251   3.789   5.805 -0.4269 -0.5250  0.0172
   89SAPC    C1 8401   4.276   3.846   5.681  0.3636  0.0170  0.4791
   89SAPC    HA 8402   4.206   3.805   5.605  3.0371 -2.1760 -0.9315
   89SAPC    HB 8403   4.253   3.954   5.689 -3.1031 -0.6735  0.6655
   89SAPC    C2 8404   4.411   3.816   5.617  0.2404  0.3733  0.0878
   89SAPC    HS 8405   4.490   3.845   5.689  0.7524 -1.3372  0.2415
   89SAPC   O21 8406   4.420   3.886   5.491 -0.0469  0.1994 -0.6156
   89SAPC   C21 8407   4.442   4.013   5.509  0.1455  0.1204 -0.1483
   89SAPC   O22 8408   4.453   4.062   5.621  0.6875 -0.0001 -0.4231
   89SAPC   C22 8409   4.435   4.092   5.379 -0.1530  0.5183 -0.6621
   89SAPC   H2R 8410   4.545   4.111   5.374 -0.2590  1.6191  0.9603
   89SAPC   H2S 8411   4.401   4.024   5.298  3.0636 -1.3784 -0.4931
   89SAPC    C3 8412   4.433   3.670   5.576  0.8381  0.4626 -0.7369
   89SAPC    HX 8413   4.349   3.636   5.512  1.7020 -3.0871 -0.0587
   89SAPC    HY 8414   4.431   3.609   5.668 -3.7280 -3.1512 -3.0457
   89SAPC   O31 8415   4.553   3.640   5.505  0.1361  0.0840 -0.5288
   89SAPC   C31 8416   4.667   3.654   5.572  0.2768  0.3003  0.8915
   89SAPC   O32 8417   4.671   3.672   5.693  0.7615  0.4301 -0.3473
   89SAPC   C32 8418   4.787   3.624   5.484 -0.4546  0.0107 -0.1752
   89SAPC   H2X 8419   4.809   3.517   5.502  0.8195  0.2710 -0.1063
   89SAPC   H2Y 8420   4.877   3.682   5.516 -0.7302 -0.4786  1.5150
   89SAPC   C23 8421   4.347   4.224   5.383  0.5862  0.5611 -0.0765
   89SAPC   H3R 8422   4.375   4.297   5.304 -0.0021  2.4959  1.4548
   89SAPC   H3S 8423   4.367   4.284   5.474  1.0610 -0.2410  0.3496
   89SAPC   C24 8424   4.197   4.195   5.356 -0.3167  0.1013 -0.2263
   89SAPC   H4R 8425   4.199   4.134   5.264  2.6547  0.3983 -0.3908
   89SAPC   H4S 8426   4.150   4.292   5.328 -0.2002 -0.0326 -0.8879
   89SAPC   C25 8427   4.135   4.130   5.477  0.2831  0.1822  0.1808
   89SAPC   H5R 8428   4.185   4.171   5.565 -1.1029 -0.0185  1.0756
   89SAPC   C26 8429   4.056   4.019   5.483  0.3245  0.4073 -0.5858
   89SAPC   H6R 8430   4.034   3.977   5.582 -1.0816 -3.2473 -2.3295
   89SAPC   C27 8431   4.006   3.928   5.369  0.1801 -0.5559  0.2395
   89SAPC   H7R 8432   4.030   3.979   5.273  0.1265  1.4959  1.3036
   89SAPC   H7S 8433   3.895   3.928   5.369  0.1744  0.8084  0.1825
   89SAPC   C28 8434   4.041   3.783   5.372  0.1018 -0.3561  0.0768
   89SAPC   H8R 8435   3.978   3.717   5.432 -0.2894 -0.2288 -0.1944
   89SAPC   C29 8436   4.131   3.711   5.300 -0.2085 -0.7680 -0.0025
   89SAPC   H9R 8437   4.137   3.605   5.327 -3.0042 -0.6720  1.1576
   89SAPC  C210 8438   4.232   3.772   5.201 -0.1201  0.9593 -0.1041
   89SAPC  H10R 8439   4.321   3.707   5.188 -0.1556  0.6629  1.0558
   89SAPC  H10S 8440   4.274   3.872   5.227 -0.1872  0.9177  0.1727
   89SAPC  C211 8441   4.155   3.785   5.074  0.5635  0.4940  0.2904
   89SAPC  H11R 8442   4.056   3.830   5.090  0.2551 -0.8045  2.3073
   89SAPC  C212 8443   4.210   3.773   4.943 -0.0263  0.1190 -0.1889
   89SAPC  H12R 8444   4.136   3.792   4.863  0.8486  0.6476 -0.8754
   89SAPC  C213 8445   4.355   3.753   4.899  0.4114 -0.0664 -0.0317
   89SAPC  H13R 8446   4.378   3.645   4.882  1.0397 -0.0617  0.7732
   89SAPC  H13S 8447   4.422   3.786   4.981  0.9863  1.5346 -1.1320
   89SAPC  C214 8448   4.368   3.824   4.766 -0.3821 -0.4337  0.6484
   89SAPC  H14R 8449   4.396   3.931   4.772  0.1295 -0.5382  0.2371
   89SAPC  C215 8450   4.365   3.767   4.644  0.3863  0.5628  0.4909
   89SAPC  H15R 8451   4.386   3.831   4.557 -0.4183  0.2725  0.0805
   89SAPC  C216 8452   4.345   3.623   4.608  0.3945  0.1883 -0.0149
   89SAPC  H16R 8453   4.288   3.565   4.684  1.3610  0.0980  0.6479
   89SAPC  H16S 8454   4.446   3.577   4.608  0.0982 -0.4632 -0.5134
   89SAPC  C217 8455   4.294   3.591   4.472  0.2156 -0.6653  0.0603
   89SAPC  H17R 8456   4.298   3.480   4.464 -0.0088 -0.9683  3.4170
   89SAPC  H17S 8457   4.360   3.635   4.395 -0.0415  1.6045  1.0792
   89SAPC  C218 8458   4.148   3.631   4.446 -0.4520  0.4225 -0.5349
   89SAPC  H18R 8459   4.149   3.742   4.436  0.3524  0.5677  1.0557
   89SAPC  H18S 8460   4.090   3.594   4.533 -1.1721 -0.9425 -1.5914
   89SAPC  C219 8461   4.081   3.566   4.326 -0.5706  0.2928  0.1429
   89SAPC  H19R 8462   4.079   3.456   4.341  1.3571  0.1096 -0.8034
   89SAPC  H19S 8463   4.149   3.591   4.241 -1.6986  1.8161 -0.3432
   89SAPC  C220 8464   3.939   3.613   4.296  0.1115 -0.5370  0.4300
   89SAPC  H20R 8465   3.888   3.553   4.219 -1.1479  0.0547  0.7882
   89SAPC  H20S 8466   3.936   3.720   4.265  0.0874 -0.3473  1.0737
   89SAPC  H20T 8467   3.884   3.598   4.391 -2.0096 -1.2603 -0.8730
   89SAPC   C33 8468   4.769   3.650   5.330 -0.3322  0.4891 -0.3102
   89SAPC   H3X 8469   4.675   3.598   5.304  0.6884 -0.3785 -2.4545
   89SAPC   H3Y 8470   4.843   3.595   5.267 -0.5914  0.8484 -0.9266
   89SAPC   C34 8471   4.782   3.796   5.287 -0.3852 -0.1955 -0.7531
   89SAPC   H4X 8472   4.879   3.831   5.328 -0.8964  0.3410  0.0112
   89SAPC   H4Y 8473   4.701   3.856   5.335  1.0150 -0.1432  1.6555
   89SAPC   C35 8474   4.786   3.810   5.132 -0.0984  0.2480  0.0365
   89SAPC   H5X 8475   4.705   3.745   5.093 -0.0940  0.2165  0.0801
   89SAPC   H5Y 8476   4.882   3.767   5.098  0.7254  1.0137  1.3364
   89SAPC   C36 8477   4.774   3.953   5.091  1.0252  0.0009  0.0409
   89SAPC   H6X 8478   4.868   4.007   5.114  0.7853  0.2773  0.3751
   89SAPC   H6Y 8479   4.693   4.004   5.148  1.1116 -0.2904  0.4223
   89SAPC   C37 8480   4.740   3.969   4.943  0.2440  0.1415  0.3719
   89SAPC   H7X 8481   4.642   3.920   4.922  0.0242  0.3761  0.8301
   89SAPC   H7Y 8482   4.823   3.923   4.885 -0.2772  0.3528 -0.5533
   89SAPC   C38 8483   4.734   4.114   4.889 -0.6107 -0.1389 -0.3268
   89SAPC   H8X 8484   4.835   4.159   4.900  0.3534 -2.3476  0.1912
   89SAPC   H8Y 8485   4.669   4.173   4.957 -1.1286 -0.9585 -0.0957
   89SAPC   C39 8486   4.675   4.111   4.745  0.5574 -0.7860 -0.1071
   89SAPC   H9X 8487   4.696   4.206   4.690  1.5672 -2.0714 -2.0015
   89SAPC   H9Y 8488   4.566   4.111   4.764 -0.1028 -1.3741 -3.5904
   89SAPC  C310 8489   4.709   4.004   4.649  0.6227  0.4742 -0.3598
   89SAPC  H10X 8490   4.682   3.904   4.688 -2.5709  1.1665 -0.6022
   89SAPC  H10Y 8491   4.818   4.004   4.632  1.3389 -0.8665  3.6719
   89SAPC  C311 8492   4.624   4.026   4.521  0.0048 -0.1204 -0.0777
   89SAPC  H11X 8493   4.637   4.123   4.468  0.5985 -1.9049 -3.3271
   89SAPC  H11Y 8494   4.517   4.036   4.551 -0.5691  1.0932 -2.3961
   89SAPC  C312 8495   4.636   3.919   4.416 -0.7583  0.1968 -0.1805
   89SAPC  H12X 8496   4.562   3.934   4.335 -2.1817 -0.5629  0.9719
   89SAPC  H12Y 8497   4.612   3.825   4.469  2.9621  0.7452  2.7119
   89SAPC  C313 8498   4.780   3.909   4.361 -0.4190  0.2048 -0.0112
   89SAPC  H13X 8499   4.789   3.820   4.295  0.1131  1.6143 -1.9121
   89SAPC  H13Y 8500   4.856   3.885   4.438 -2.2695 -3.2030  0.8409
   89SAPC  C314 8501   4.821   4.027   4.266  0.4822 -0.2093  0.2024
   89SAPC  H14X 8502   4.795   4.124   4.314  2.1622 -0.4183  1.5780
   89SAPC  H14Y 8503   4.750   4.019   4.181 -0.9128 -1.1994  1.4299
   89SAPC  C315 8504   4.969   4.028   4.226 -0.0721 -0.0936  0.1660
   89SAPC  H15X 8505   5.032   3.978   4.304  0.4862 -1.4679 -1.1255
   89SAPC  H15Y 8506   5.006   4.132   4.232 -1.0170  0.1586  2.1951
   89SAPC  C316 8507   5.007   3.978   4.087 -0.1920  0.4039 -0.3241
   89SAPC  H16X 8508   4.974   3.873   4.076 -1.6007  0.4818  2.6427
   89SAPC  H16Y 8509   5.118   3.968   4.089 -0.3949 -2.1366 -0.8498
   89SAPC  C317 8510   4.946   4.070   3.977  0.0074 -0.7735  0.6203
   89SAPC  H17X 8511   4.966   4.178   3.998  0.1591 -0.5496 -0.6340
   89SAPC  H17Y 8512   4.836   4.058   3.976  0.0146 -0.8240  0.0374
   89SAPC  C318 8513   5.001   4.037   3.838 -0.0033 -0.7790 -0.2394
   89SAPC  H18X 8514   4.949   3.945   3.804 -1.3058 -0.2237  0.2631
   89SAPC  H18Y 8515   5.109   4.014   3.850  0.0036 -0.7383 -0.2181
   89SAPC  H18Z 8516   4.986   4.131   3.780 -1.1276 -0.0780  1.1781
   90SAPC     N 8517   0.746   0.718   6.054 -0.6266 -0.2159  0.7596
   90SAPC   C12 8518   0.716   0.745   5.905 -0.0371 -0.1273 -0.1570
   90SAPC  H12A 8519   0.623   0.697   5.878  0.0496 -0.6704  0.4949
   90SAPC  H12B 8520   0.792   0.694   5.848 -0.5773  0.4269 -1.3933
   90SAPC   C13 8521   0.874   0.782   6.098 -0.0664 -0.3078  0.2858
   90SAPC  H13A 8522   0.905   0.735   6.190 -2.9953  0.7040  1.8616
   90SAPC  H13B 8523   0.955   0.785   6.027  1.1712 -0.6730  1.6377
   90SAPC  H13C 8524   0.856   0.884   6.129  2.0198 -0.2638  1.4809
   90SAPC   C14 8525   0.637   0.782   6.126  0.2517 -0.7512  0.1012
   90SAPC  H14A 8526   0.549   0.721   6.108  0.5159 -1.6833  1.8746
   90SAPC  H14B 8527   0.640   0.773   6.233  1.7202 -1.4447  0.0008
   90SAPC  H14C 8528   0.619   0.884   6.094 -0.5883 -1.1191 -0.6500
   90SAPC   C15 8529   0.727   0.571   6.078  0.4047  0.2756 -0.5513
   90SAPC  H15A 8530   0.628   0.533   6.059  0.9649 -1.6729  0.3008
   90SAPC  H15B 8531   0.803   0.511   6.030 -1.0216 -2.9109  1.0086
   90SAPC  H15C 8532   0.749   0.545   6.181 -0.5701  0.0630 -0.3939
   90SAPC   C11 8533   0.701   0.890   5.860  0.0064 -0.3338  0.6494
   90SAPC  H11A 8534   0.622   0.948   5.912 -1.1894 -0.1596 -1.3104
   90SAPC  H11B 8535   0.666   0.900   5.755  0.0802  0.4499  0.6960
   90SAPC     P 8536   0.952   0.940   5.787  0.0601 -0.0625  0.0515
   90SAPC   O13 8537   1.046   1.047   5.831  1.0081 -0.3780 -0.2157
   90SAPC   O14 8538   1.003   0.808   5.803  0.4869  0.3698 -0.1989
   90SAPC   O12 8539   0.820   0.956   5.870  0.0013  0.4344  0.1909
   90SAPC   O11 8540   0.913   0.963   5.642 -0.4307 -0.1267 -0.1501
   90SAPC    C1 8541   0.839   1.071   5.588  0.9367  0.3426 -0.0296
   90SAPC    HA 8542   0.797   1.050   5.488  0.9682 -2.2826  0.4876
   90SAPC    HB 8543   0.764   1.101   5.665 -0.0966  2.2255 -1.7334
   90SAPC    C2 8544   0.935   1.191   5.547  0.3009 -0.4431 -1.1596
   90SAPC    HS 8545   0.993   1.213   5.639 -0.4761 -0.8330 -0.5764
   90SAPC   O21 8546   0.853   1.312   5.526  0.7228  0.3670 -0.0724
   90SAPC   C21 8547   0.925   1.425   5.545  0.4986 -0.6731 -0.1473
   90SAPC   O22 8548   1.039   1.426   5.585  0.0569  0.7977 -0.0573
   90SAPC   C22 8549   0.836   1.544   5.516  0.3081  0.2730  0.5157
   90SAPC   H2R 8550   0.742   1.535   5.574 -0.5974  1.4037 -0.7420
   90SAPC   H2S 8551   0.890   1.637   5.544  1.7951  0.4737 -2.7454
   90SAPC    C3 8552   1.036   1.158   5.437 -0.6714 -0.9318 -0.2115
   90SAPC    HX 8553   1.100   1.073   5.470 -1.0141 -0.8537  0.6757
   90SAPC    HY 8554   1.098   1.248   5.415  0.1303 -1.1936  0.9359
   90SAPC   O31 8555   0.970   1.135   5.312 -0.1683 -0.0812 -0.2077
   90SAPC   C31 8556   1.052   1.085   5.224 -0.3718  0.8407  0.2613
   90SAPC   O32 8557   1.172   1.078   5.225  0.0984  0.0716  0.0442
   90SAPC   C32 8558   0.961   1.041   5.106 -0.2566  0.3726  0.0070
   90SAPC   H2X 8559   0.856   1.067   5.131 -1.4980 -0.3524 -4.1772
   90SAPC   H2Y 8560   0.975   0.932   5.090 -0.9744  0.6039 -2.2581
   90SAPC   C23 8561   0.798   1.537   5.364 -0.1054 -0.6730  0.6909
   90SAPC   H3R 8562   0.737   1.620   5.323  1.6613 -0.0291 -0.6801
   90SAPC   H3S 8563   0.749   1.438   5.350 -0.1275 -0.6429  0.5511
   90SAPC   C24 8564   0.924   1.540   5.272 -0.0047  0.4182 -0.0917
   90SAPC   H4R 8565   0.888   1.561   5.169 -0.6618 -1.8279 -0.3598
   90SAPC   H4S 8566   0.983   1.447   5.258  0.5184  0.1806  3.2500
   90SAPC   C25 8567   1.027   1.650   5.303 -0.5059 -0.3600 -0.2395
   90SAPC   H5R 8568   0.978   1.744   5.333 -0.8991 -0.7390  0.3185
   90SAPC   C26 8569   1.160   1.653   5.304 -0.2129 -0.1283  0.0215
   90SAPC   H6R 8570   1.213   1.746   5.330 -0.8040 -0.2398  1.7267
   90SAPC   C27 8571   1.250   1.541   5.266  0.8317 -0.5507  0.1864
   90SAPC   H7R 8572   1.282   1.528   5.160 -0.8248 -0.5920 -0.3114
   90SAPC   H7S 8573   1.199   1.446   5.294  0.9854 -1.0274 -1.0656
   90SAPC   C28 8574   1.383   1.547   5.341  0.1131  0.6389 -0.8473
   90SAPC   H8R 8575   1.413   1.648   5.372 -0.2676  0.3849  0.3853
   90SAPC   C29 8576   1.470   1.446   5.359 -0.3616  0.8392  0.1261
   90SAPC   H9R 8577   1.567   1.460   5.410  0.2064  0.4545 -0.8429
   90SAPC  C210 8578   1.445   1.307   5.312 -0.2382  0.0393 -0.4075
   90SAPC  H10R 8579   1.350   1.291   5.258 -0.8598  2.0713  0.0222
   90SAPC  H10S 8580   1.430   1.243   5.402  0.1896  1.3318  0.5914
   90SAPC  C211 8581   1.568   1.252   5.235  0.2494  0.0587 -0.2413
   90SAPC  H11R 8582   1.646   1.206   5.296  1.1431  0.7627 -0.8440
   90SAPC  C212 8583   1.593   1.262   5.102 -0.5095 -0.1947 -0.0167
   90SAPC  H12R 8584   1.677   1.207   5.058  0.0632 -0.0253  0.8515
   90SAPC  C213 8585   1.499   1.331   5.003  0.5565  0.3269  0.1204
   90SAPC  H13R 8586   1.391   1.322   5.025  0.0424  3.4481 -0.8632
   90SAPC  H13S 8587   1.517   1.281   4.905  0.2799 -0.2662  0.3753
   90SAPC  C214 8588   1.532   1.474   4.985 -0.6811 -0.0088  0.2980
   90SAPC  H14R 8589   1.539   1.528   5.081 -0.5781 -1.6787  1.2423
   90SAPC  C215 8590   1.559   1.543   4.873 -0.5255  0.0194 -0.6106
   90SAPC  H15R 8591   1.594   1.648   4.869  0.5833 -0.2876  0.8682
   90SAPC  C216 8592   1.556   1.484   4.736 -0.1089  0.3832  0.6693
   90SAPC  H16R 8593   1.458   1.436   4.714 -0.2221  1.0564 -0.3373
   90SAPC  H16S 8594   1.634   1.408   4.716  0.9093  1.7944 -0.8395
   90SAPC  C217 8595   1.564   1.581   4.622  0.6371 -0.4174  0.1756
   90SAPC  H17R 8596   1.655   1.641   4.645 -0.3494  1.9657 -1.9400
   90SAPC  H17S 8597   1.484   1.658   4.622  1.4717  0.4614  0.1584
   90SAPC  C218 8598   1.565   1.516   4.484 -0.5933  0.4593 -0.0986
   90SAPC  H18R 8599   1.463   1.477   4.467 -0.3013 -1.1284  1.6815
   90SAPC  H18S 8600   1.640   1.434   4.489 -0.5393  0.5976  1.4478
   90SAPC  C219 8601   1.586   1.628   4.375 -0.4512 -0.1264  0.1788
   90SAPC  H19R 8602   1.686   1.668   4.400 -0.5429  0.2985 -0.1258
   90SAPC  H19S 8603   1.514   1.710   4.399 -0.2213  0.5571 -1.4103
   90SAPC  C220 8604   1.581   1.572   4.233 -0.0542  1.2996 -0.1646
   90SAPC  H20R 8605   1.488   1.513   4.221  0.3677  0.4834  0.5756
   90SAPC  H20S 8606   1.664   1.499   4.221  0.6990  1.9889  0.8550
   90SAPC  H20T 8607   1.580   1.645   4.149  2.8593  1.5374 -0.0445
   90SAPC   C33 8608   0.999   1.122   4.973  0.3349 -0.5947 -0.3682
   90SAPC   H3X 8609   0.916   1.100   4.903 -0.6342  1.0627  0.2290
   90SAPC   H3Y 8610   1.094   1.088   4.926 -1.7712 -2.4782 -3.4416
   90SAPC   C34 8611   1.019   1.273   4.992 -0.1498 -0.1163 -0.4479
   90SAPC   H4X 8612   1.075   1.302   5.084 -0.0347 -2.7188  0.3542
   90SAPC   H4Y 8613   0.914   1.310   4.996 -0.1957 -0.3806  1.5410
   90SAPC   C35 8614   1.103   1.325   4.880 -0.4983 -0.1127 -0.1743
   90SAPC   H5X 8615   1.072   1.285   4.781 -1.2408 -0.4439  0.1930
   90SAPC   H5Y 8616   1.204   1.279   4.891 -0.2221  0.1215 -1.6318
   90SAPC   C36 8617   1.126   1.475   4.868  0.7007  0.5756  0.1158
   90SAPC   H6X 8618   1.200   1.487   4.786 -0.7771  0.6378 -1.2462
   90SAPC   H6Y 8619   1.177   1.518   4.957  1.2896 -0.9626  0.5354
   90SAPC   C37 8620   0.998   1.546   4.821 -0.2895  0.4255 -0.5867
   90SAPC   H7X 8621   0.921   1.534   4.900  0.3280 -0.3405 -0.0897
   90SAPC   H7Y 8622   0.965   1.490   4.731 -1.6013  2.3037 -1.3020
   90SAPC   C38 8623   1.018   1.692   4.792 -0.0279  0.4318 -0.5232
   90SAPC   H8X 8624   1.044   1.746   4.885 -1.6043 -0.3887  0.4169
   90SAPC   H8Y 8625   0.918   1.724   4.756 -0.4917  0.6431  0.9523
   90SAPC   C39 8626   1.129   1.725   4.683  0.9719 -0.1346 -0.5194
   90SAPC   H9X 8627   1.104   1.653   4.603  1.5524 -1.0557  0.1116
   90SAPC   H9Y 8628   1.235   1.707   4.711  1.6869  1.6311 -2.0103
   90SAPC  C310 8629   1.111   1.873   4.633 -0.3018 -0.7078  0.4264
   90SAPC  H10X 8630   1.124   1.942   4.719  3.0154 -1.2265  0.4278
   90SAPC  H10Y 8631   1.005   1.895   4.610  0.0438  1.6641  0.9981
   90SAPC  C311 8632   1.214   1.908   4.523 -0.7528 -0.0576 -0.4365
   90SAPC  H11X 8633   1.316   1.912   4.567 -0.1992  0.1954 -1.7053
   90SAPC  H11Y 8634   1.182   2.004   4.476  3.5989  0.0068 -3.6018
   90SAPC  C312 8635   1.235   1.799   4.422 -0.0182 -0.1064 -0.5061
   90SAPC  H12X 8636   1.144   1.756   4.375  0.2003 -0.5559 -0.5192
   90SAPC  H12Y 8637   1.300   1.714   4.450 -1.6411 -0.6008  1.9131
   90SAPC  C313 8638   1.309   1.864   4.298  0.2602 -0.4809 -0.3481
   90SAPC  H13X 8639   1.330   1.784   4.224  0.0869  0.9742 -1.9814
   90SAPC  H13Y 8640   1.408   1.908   4.323 -0.4595  0.9345  0.0498
   90SAPC  C314 8641   1.234   1.972   4.225 -0.2046 -0.2836 -1.0956
   90SAPC  H14X 8642   1.299   2.025   4.152  1.7691  1.5113  1.8548
   90SAPC  H14Y 8643   1.217   2.057   4.294 -1.2765 -1.4642  0.1399
   90SAPC  C315 8644   1.100   1.924   4.169  0.6966  0.3815  0.0229
   90SAPC  H15X 8645   1.032   1.904   4.254 -0.5717  2.3519 -0.4783
   90SAPC  H15Y 8646   1.108   1.822   4.127 -0.9381  0.3309 -0.1882
   90SAPC  C316 8647   1.048   2.032   4.071 -0.4108 -0.3885 -0.4761
   90SAPC  H16X 8648   1.120   2.040   3.987 -0.2415  2.9435 -0.0702
   90SAPC  H16Y 8649   1.053   2.128   4.125  4.0290 -1.2793  0.8733
   90SAPC  C317 8650   0.895   2.005   4.037 -1.6348  0.5643  0.0474
   90SAPC  H17X 8651   0.894   1.896   4.016  0.2223  0.3921  0.8212
   90SAPC  H17Y 8652   0.880   2.067   3.945  3.3313 -0.7576 -1.7906
   90SAPC  C318 8653   0.798   2.050   4.144  0.1979  0.0431  0.6131
   90SAPC  H18X 8654   0.837   2.041   4.248  0.7199 -0.5853  0.3619
   90SAPC  H18Y 8655   0.710   1.982   4.144 -0.1497  0.4849  0.1168
   90SAPC  H18Z 8656   0.771   2.157   4.129  1.7880  0.3651  0.0167
   91SAPC     N 8657   4.537   6.769   6.139  0.3614  0.2609 -0.0611
   91SAPC   C12 8658   4.661   6.685   6.118 -0.6826  0.8183  0.0594
   91SAPC  H12A 8659   4.661   6.591   6.170 -1.5155 -0.7306 -2.6003
   91SAPC  H12B 8660   4.753   6.736   6.144 -0.2551  0.5001 -0.7994
   91SAPC   C13 8661   4.526   6.783   6.286  1.1601  0.0837 -0.6108
   91SAPC  H13A 8662   4.623   6.805   6.328  1.4266 -0.7320 -0.7974
   91SAPC  H13B 8663   4.452   6.857   6.311  2.1743  0.7672  0.4460
   91SAPC  H13C 8664   4.498   6.693   6.339 -0.0257  0.6018 -0.3558
   91SAPC   C14 8665   4.542   6.912   6.088  0.4772  0.0419 -0.3467
   91SAPC  H14A 8666   4.609   6.982   6.136  0.5067  0.7449 -1.3908
   91SAPC  H14B 8667   4.572   6.915   5.984  1.1679  0.4092 -0.1407
   91SAPC  H14C 8668   4.444   6.958   6.093  0.3008  0.0341 -2.8611
   91SAPC   C15 8669   4.417   6.695   6.092  0.0357  0.5200  0.5197
   91SAPC  H15A 8670   4.413   6.687   5.984 -2.1795 -1.5305  0.7247
   91SAPC  H15B 8671   4.419   6.592   6.124  0.2974  0.5526  0.6121
   91SAPC  H15C 8672   4.325   6.745   6.117  0.0398  0.6946  0.2028
   91SAPC   C11 8673   4.692   6.644   5.970 -0.0078 -0.5424 -0.5058
   91SAPC  H11A 8674   4.684   6.730   5.900 -0.6291 -1.2010 -1.2471
   91SAPC  H11B 8675   4.620   6.565   5.942  1.3133 -1.4309 -1.4388
   91SAPC     P 8676   4.952   6.673   5.969  0.4797  0.1733  0.4410
   91SAPC   O13 8677   4.925   6.807   6.019  0.4072  0.4197  0.5191
   91SAPC   O14 8678   5.042   6.594   6.059 -0.1265 -0.0465 -0.1395
   91SAPC   O12 8679   4.822   6.593   5.964 -0.0052  0.4785  0.2759
   91SAPC   O11 8680   5.002   6.672   5.815 -0.6059 -0.5179 -0.3780
   91SAPC    C1 8681   5.089   6.568   5.761  0.7333  0.0766 -0.1511
   91SAPC    HA 8682   5.076   6.477   5.823 -0.4441 -1.1518 -2.1811
   91SAPC    HB 8683   5.063   6.549   5.655 -0.3659 -0.0287  0.1392
   91SAPC    C2 8684   5.245   6.592   5.775  0.4428 -0.1674 -0.1011
   91SAPC    HS 8685   5.273   6.640   5.871 -0.6247 -2.5358  1.4501
   91SAPC   O21 8686   5.281   6.665   5.655 -0.0913 -0.1020  0.6259
   91SAPC   C21 8687   5.264   6.802   5.672  0.3700 -0.2495  0.7922
   91SAPC   O22 8688   5.255   6.851   5.781  0.0606 -0.1922 -0.3474
   91SAPC   C22 8689   5.240   6.867   5.540 -0.1899 -0.0417 -0.2787
   91SAPC   H2R 8690   5.230   6.780   5.472 -0.6566 -0.8237  0.7761
   91SAPC   H2S 8691   5.147   6.928   5.544  0.0466  0.2686  0.6021
   91SAPC    C3 8692   5.320   6.459   5.770  0.2334  0.4142  0.1090
   91SAPC    HX 8693   5.288   6.395   5.854  0.1032  0.9816  0.4931
   91SAPC    HY 8694   5.429   6.473   5.789  0.1001  0.6873  0.6723
   91SAPC   O31 8695   5.275   6.375   5.659 -0.3217 -0.2479 -0.4343
   91SAPC   C31 8696   5.364   6.381   5.557 -0.2725  0.0512 -0.5597
   91SAPC   O32 8697   5.469   6.447   5.559 -0.1149  0.3421  0.4174
   91SAPC   C32 8698   5.307   6.304   5.436  1.0327 -0.9046 -0.6993
   91SAPC   H2X 8699   5.323   6.196   5.457  2.4944 -0.4687  0.5480
   91SAPC   H2Y 8700   5.371   6.313   5.346  3.0164 -0.4407  0.7353
   91SAPC   C23 8701   5.363   6.955   5.489  0.5313  0.8377  0.5792
   91SAPC   H3R 8702   5.387   7.042   5.553  2.4836  1.3417 -0.7673
   91SAPC   H3S 8703   5.330   6.994   5.390  0.1961  0.5586  0.5836
   91SAPC   C24 8704   5.495   6.869   5.467 -0.0902  0.6773 -0.4310
   91SAPC   H4R 8705   5.469   6.787   5.397 -1.6833  0.3222  0.5474
   91SAPC   H4S 8706   5.536   6.823   5.558  0.7369 -1.5963 -1.9200
   91SAPC   C25 8707   5.596   6.963   5.406  0.0797  0.3392  0.1032
   91SAPC   H5R 8708   5.667   7.008   5.477  0.7085  0.7188 -0.7566
   91SAPC   C26 8709   5.607   6.991   5.277  0.3165  0.0069 -0.1104
   91SAPC   H6R 8710   5.671   7.075   5.245 -0.3336  1.2264  1.6945
   91SAPC   C27 8711   5.511   6.935   5.172  0.7755  0.2728  0.2190
   91SAPC   H7R 8712   5.471   7.017   5.109  1.0078  1.2093  1.2627
   91SAPC   H7S 8713   5.417   6.894   5.214  0.6564  1.1323  0.7923
   91SAPC   C28 8714   5.590   6.835   5.086  0.1080  0.0005 -0.2610
   91SAPC   H8R 8715   5.651   6.765   5.145  3.2004  0.6690 -2.5467
   91SAPC   C29 8716   5.592   6.825   4.949  0.4133 -0.1223 -0.2523
   91SAPC   H9R 8717   5.652   6.745   4.903  1.8189 -0.0432  1.4149
   91SAPC  C210 8718   5.526   6.910   4.849  0.2934 -0.0821 -0.0258
   91SAPC  H10R 8719   5.429   6.941   4.894  1.0917  1.5327  0.6095
   91SAPC  H10S 8720   5.496   6.846   4.763 -0.2051 -2.5111  1.8962
   91SAPC  C211 8721   5.609   7.037   4.827  0.1083  0.1550 -0.2242
   91SAPC  H11R 8722   5.630   7.101   4.914  0.8266 -0.5379  0.1121
   91SAPC  C212 8723   5.666   7.077   4.710  0.1937 -0.6501  0.3829
   91SAPC  H12R 8724   5.711   7.177   4.704  0.6881 -0.8540  0.7175
   91SAPC  C213 8725   5.650   7.015   4.577 -0.4172  0.4541  0.1818
   91SAPC  H13R 8726   5.604   6.915   4.571  1.4026 -0.3970  0.1898
   91SAPC  H13S 8727   5.750   6.990   4.536 -0.3467  1.0354 -0.0094
   91SAPC  C214 8728   5.572   7.111   4.483  0.6614 -0.9209 -0.5531
   91SAPC  H14R 8729   5.478   7.148   4.526  1.2732 -0.4101  0.3610
   91SAPC  C215 8730   5.617   7.167   4.370  0.5716  1.1166  0.4861
   91SAPC  H15R 8731   5.570   7.254   4.321 -0.4433  0.2029 -0.1886
   91SAPC  C216 8732   5.739   7.139   4.302 -0.0641 -0.9601  0.0100
   91SAPC  H16R 8733   5.763   7.031   4.313  1.0639 -0.6372  0.8790
   91SAPC  H16S 8734   5.823   7.207   4.331 -0.0417 -0.8569 -0.2931
   91SAPC  C217 8735   5.733   7.154   4.151 -0.3080  0.3502 -0.3274
   91SAPC  H17R 8736   5.837   7.175   4.116 -0.2548 -1.0564 -1.0338
   91SAPC  H17S 8737   5.681   7.248   4.123  0.3341  0.1155 -2.4470
   91SAPC  C218 8738   5.668   7.036   4.084 -0.9688  0.7787  0.7263
   91SAPC  H18R 8739   5.567   7.030   4.130 -2.4601 -0.8819 -2.6062
   91SAPC  H18S 8740   5.725   6.941   4.094  1.8673  2.3389 -0.0635
   91SAPC  C219 8741   5.654   7.056   3.934 -0.5865  0.1319 -0.6281
   91SAPC  H19R 8742   5.581   7.139   3.920  0.5819  0.7183 -3.4983
   91SAPC  H19S 8743   5.623   6.959   3.890  0.5414  0.4057 -2.0376
   91SAPC  C220 8744   5.783   7.084   3.854 -0.3972  0.0119 -0.2672
   91SAPC  H20R 8745   5.767   7.078   3.744  0.3971 -1.2151 -0.3167
   91SAPC  H20S 8746   5.864   7.014   3.885 -0.4475  0.4934  0.9659
   91SAPC  H20T 8747   5.823   7.186   3.875 -0.8214  0.7985 -3.0742
   91SAPC   C33 8748   5.156   6.324   5.405 -0.8241  0.5233  0.2628
   91SAPC   H3X 8749   5.091   6.296   5.491  0.9140 -0.0557  1.4199
   91SAPC   H3Y 8750   5.122   6.262   5.318 -0.7300 -0.1476  0.6982
   91SAPC   C34 8751   5.123   6.471   5.363 -0.7622  0.0223  0.3143
   91SAPC   H4X 8752   5.175   6.546   5.425 -0.7006  0.0796  0.1928
   91SAPC   H4Y 8753   5.013   6.489   5.365 -1.1153 -1.9465  4.2464
   91SAPC   C35 8754   5.169   6.492   5.216 -0.0725  0.7845  0.3749
   91SAPC   H5X 8755   5.088   6.455   5.149  0.8064  1.2445 -0.9761
   91SAPC   H5Y 8756   5.252   6.422   5.193 -0.8041  0.9420 -3.0105
   91SAPC   C36 8757   5.216   6.638   5.182 -0.0772  0.0354  0.2367
   91SAPC   H6X 8758   5.303   6.664   5.246 -0.5399  3.0624 -0.2988
   91SAPC   H6Y 8759   5.147   6.720   5.210  0.4058  0.2600  0.7783
   91SAPC   C37 8760   5.261   6.645   5.036 -0.3522  0.1409 -0.2355
   91SAPC   H7X 8761   5.342   6.568   5.030  0.2564  0.7083  0.5584
   91SAPC   H7Y 8762   5.310   6.744   5.023 -0.0759  0.0215 -0.1162
   91SAPC   C38 8763   5.157   6.637   4.928 -0.2103 -0.2976  0.1170
   91SAPC   H8X 8764   5.092   6.725   4.949  0.3323  0.2016 -0.2904
   91SAPC   H8Y 8765   5.094   6.545   4.935  1.9403 -1.8654 -0.6977
   91SAPC   C39 8766   5.223   6.653   4.784 -0.1894  0.3926 -0.6859
   91SAPC   H9X 8767   5.280   6.747   4.793 -1.0461  0.9836 -1.3359
   91SAPC   H9Y 8768   5.142   6.677   4.712 -0.1185  2.7941  0.0188
   91SAPC  C310 8769   5.276   6.520   4.738  0.3444  0.8070  0.6558
   91SAPC  H10X 8770   5.197   6.444   4.755  0.7272  0.4982  1.0635
   91SAPC  H10Y 8771   5.354   6.477   4.804  1.2483  1.4040 -0.0070
   91SAPC  C311 8772   5.311   6.519   4.587  0.6674  0.3565 -0.1798
   91SAPC  H11X 8773   5.357   6.419   4.570 -0.3445 -0.2757  0.7857
   91SAPC  H11Y 8774   5.390   6.595   4.569 -0.6052  1.9132  0.6820
   91SAPC  C312 8775   5.185   6.548   4.504  0.2027 -0.2712 -0.3583
   91SAPC  H12X 8776   5.152   6.653   4.521 -0.8634 -0.7513  0.5139
   91SAPC  H12Y 8777   5.102   6.482   4.535 -2.3642  3.5394  1.2685
   91SAPC  C313 8778   5.207   6.518   4.353 -0.0718  0.3716 -0.0085
   91SAPC  H13X 8779   5.232   6.410   4.354  0.4633  0.4546 -1.8500
   91SAPC  H13Y 8780   5.296   6.575   4.320 -0.5352 -0.3826 -2.7175
   91SAPC  C314 8781   5.077   6.540   4.271 -0.5930 -0.2589 -0.3754
   91SAPC  H14X 8782   5.047   6.646   4.256 -1.6122 -0.3140  1.1303
   91SAPC  H14Y 8783   4.990   6.495   4.323 -0.0219 -0.0021  0.8026
   91SAPC  C315 8784   5.087   6.474   4.132  0.3020  0.0517 -0.1795
   91SAPC  H15X 8785   4.998   6.497   4.070 -0.7042 -1.1657  0.7990
   91SAPC  H15Y 8786   5.087   6.364   4.146 -0.7403  0.3412  2.2586
   91SAPC  C316 8787   5.198   6.524   4.039 -0.8198 -0.4774  0.3024
   91SAPC  H16X 8788   5.300   6.519   4.082 -2.0929 -2.0858  3.3278
   91SAPC  H16Y 8789   5.189   6.632   4.013  3.0906  0.3183  1.8302
   91SAPC  C317 8790   5.190   6.454   3.902  0.0685 -0.7404 -0.5868
   91SAPC  H17X 8791   5.085   6.464   3.865  0.1702  0.5218 -0.5487
   91SAPC  H17Y 8792   5.211   6.345   3.910  0.5184 -0.7210 -1.4565
   91SAPC  C318 8793   5.293   6.492   3.800  0.2626  0.5871 -0.2713
   91SAPC  H18X 8794   5.267   6.447   3.702  0.9027 -0.9352  0.2240
   91SAPC  H18Y 8795   5.394   6.456   3.831  0.7986  1.1459 -1.3597
   91SAPC  H18Z 8796   5.292   6.602   3.787 -0.3029  0.6178  0.0008
   92SAPC     N 8797   6.637   5.566   6.140  0.8336 -0.0102  0.0830
   92SAPC   C12 8798   6.637   5.497   6.001 -0.5766  0.4039 -0.2151
   92SAPC  H12A 8799   6.552   5.431   6.001 -1.5172  1.5713  1.4926
   92SAPC  H12B 8800   6.721   5.431   5.989 -1.7454 -1.0301 -0.5168
   92SAPC   C13 8801   6.509   5.632   6.156 -0.5614 -0.4981 -0.0126
   92SAPC  H13A 8802   6.428   5.562   6.142 -1.4060  0.1664  1.3991
   92SAPC  H13B 8803   6.494   5.655   6.261  1.7643 -0.8284  0.4140
   92SAPC  H13C 8804   6.511   5.716   6.088 -1.0490  0.1746  0.7833
   92SAPC   C14 8805   6.636   5.462   6.252 -0.0771 -0.1198  0.0617
   92SAPC  H14A 8806   6.726   5.402   6.259 -0.8158 -1.5366 -2.0735
   92SAPC  H14B 8807   6.628   5.500   6.353 -0.3225 -2.4405  0.9276
   92SAPC  H14C 8808   6.554   5.395   6.233 -1.5452  1.3903  0.8834
   92SAPC   C15 8809   6.748   5.660   6.151 -0.3142  0.6920  0.7825
   92SAPC  H15A 8810   6.842   5.610   6.131 -1.6769 -2.1770  1.2757
   92SAPC  H15B 8811   6.744   5.730   6.069  1.2882 -0.5925 -0.4196
   92SAPC  H15C 8812   6.741   5.723   6.238  1.4406  1.8369  0.1226
   92SAPC   C11 8813   6.641   5.592   5.878 -0.0207 -0.1616  0.0424
   92SAPC  H11A 8814   6.549   5.652   5.895  1.4955  1.3256  3.2744
   92SAPC  H11B 8815   6.624   5.533   5.786 -0.2521  1.3223 -0.8739
   92SAPC     P 8816   6.886   5.615   5.835 -0.0449  0.3070 -0.4552
   92SAPC   O13 8817   6.976   5.659   5.942 -0.4300  0.3127  0.1561
   92SAPC   O14 8818   6.863   5.470   5.831 -0.3512  0.3821 -0.4072
   92SAPC   O12 8819   6.753   5.680   5.873  0.1025  0.4397  0.0651
   92SAPC   O11 8820   6.943   5.664   5.699  0.4481 -0.3190 -0.1049
   92SAPC    C1 8821   7.044   5.589   5.630  0.1938  0.1825  0.0590
   92SAPC    HA 8822   7.092   5.505   5.683  0.7023 -0.0130 -0.6940
   92SAPC    HB 8823   6.987   5.546   5.544  1.0802 -0.2419 -0.3199
   92SAPC    C2 8824   7.156   5.685   5.568  0.1507  0.5355  0.2610
   92SAPC    HS 8825   7.200   5.727   5.661 -0.2061 -0.7853  1.0444
   92SAPC   O21 8826   7.091   5.777   5.483  0.2123  0.3349 -0.3619
   92SAPC   C21 8827   7.059   5.888   5.537  0.1980 -0.0363  0.4797
   92SAPC   O22 8828   7.062   5.919   5.653  0.2625  0.3604  0.0766
   92SAPC   C22 8829   7.023   5.982   5.430  0.6678  0.0295  0.1517
   92SAPC   H2R 8830   7.046   6.086   5.463 -1.4976  0.1518  1.4429
   92SAPC   H2S 8831   7.082   5.964   5.338 -0.4089  1.6491 -0.9004
   92SAPC    C3 8832   7.270   5.616   5.487 -0.4179  0.3811  0.0254
   92SAPC    HX 8833   7.321   5.557   5.567  1.6474  1.3376 -0.5522
   92SAPC    HY 8834   7.343   5.684   5.440  0.5190 -1.8926 -1.8760
   92SAPC   O31 8835   7.216   5.520   5.391 -0.6331 -0.2560 -0.0568
   92SAPC   C31 8836   7.203   5.561   5.265 -0.2378 -0.4105 -0.3911
   92SAPC   O32 8837   7.233   5.671   5.221 -0.3824  0.1294  0.3960
   92SAPC   C32 8838   7.138   5.446   5.191 -0.1758 -0.4854  0.9078
   92SAPC   H2X 8839   7.031   5.446   5.223  0.5642  2.4328  3.6747
   92SAPC   H2Y 8840   7.177   5.352   5.233 -1.8630 -0.6939  2.0898
   92SAPC   C23 8841   6.867   5.990   5.408 -0.1610 -0.1735  0.8529
   92SAPC   H3R 8842   6.855   6.071   5.332  0.1260 -0.7336  0.2027
   92SAPC   H3S 8843   6.822   6.020   5.505 -2.2530 -0.0004 -0.1413
   92SAPC   C24 8844   6.812   5.851   5.366  0.8412  0.3560  0.3943
   92SAPC   H4R 8845   6.703   5.868   5.351  0.5398  1.6183  3.6150
   92SAPC   H4S 8846   6.834   5.777   5.446 -0.2416  0.3418  0.7010
   92SAPC   C25 8847   6.875   5.810   5.235  0.2111  0.0282 -0.3827
   92SAPC   H5R 8848   6.971   5.759   5.252  0.5300  0.1217 -1.8815
   92SAPC   C26 8849   6.841   5.840   5.107 -0.3085 -0.2943  0.3917
   92SAPC   H6R 8850   6.902   5.799   5.025 -1.9176  1.9256 -1.9652
   92SAPC   C27 8851   6.717   5.927   5.074  0.1645  0.1246 -0.4537
   92SAPC   H7R 8852   6.651   5.936   5.163  2.6122  1.3487  1.2809
   92SAPC   H7S 8853   6.662   5.868   4.997 -3.6890 -0.4531  2.6173
   92SAPC   C28 8854   6.749   6.069   5.026 -0.1161 -0.6462 -0.1955
   92SAPC   H8R 8855   6.812   6.121   5.099 -2.1242  0.6438  0.6372
   92SAPC   C29 8856   6.730   6.119   4.904 -0.1441 -0.0191  0.7193
   92SAPC   H9R 8857   6.757   6.224   4.884 -1.1040  0.4137  1.6813
   92SAPC  C210 8858   6.665   6.055   4.783 -0.6170  0.4427  0.6782
   92SAPC  H10R 8859   6.675   5.944   4.791 -0.2632  0.3761 -0.5491
   92SAPC  H10S 8860   6.730   6.081   4.697 -2.3871  1.5863 -0.3385
   92SAPC  C211 8861   6.520   6.095   4.754  0.0643  0.0770 -0.2589
   92SAPC  H11R 8862   6.479   6.177   4.816 -1.5846 -1.3814  0.6141
   92SAPC  C212 8863   6.437   6.030   4.675 -0.1587 -0.6770  0.0995
   92SAPC  H12R 8864   6.335   6.070   4.667 -1.2625 -2.9736  1.7604
   92SAPC  C213 8865   6.474   5.911   4.588  0.1853 -0.5786 -0.0038
   92SAPC  H13R 8866   6.584   5.893   4.588  0.2942  0.0728  0.0617
   92SAPC  H13S 8867   6.450   5.939   4.483 -3.8510 -1.3999  0.6308
   92SAPC  C214 8868   6.406   5.780   4.622 -0.3481  0.0238 -0.0158
   92SAPC  H14R 8869   6.324   5.797   4.692 -0.3744 -0.5158  0.0876
   92SAPC  C215 8870   6.425   5.660   4.572  0.1044 -0.4528  0.3708
   92SAPC  H15R 8871   6.370   5.571   4.608 -1.0725 -0.0365 -0.3480
   92SAPC  C216 8872   6.521   5.625   4.458 -0.7336  0.5352  0.1841
   92SAPC  H16R 8873   6.581   5.712   4.423 -0.0397  0.6602  1.6441
   92SAPC  H16S 8874   6.450   5.583   4.384  0.6672 -0.5895 -0.5390
   92SAPC  C217 8875   6.615   5.507   4.499 -0.2062 -0.0001 -0.0783
   92SAPC  H17R 8876   6.543   5.435   4.543  0.1668  0.2105  0.8916
   92SAPC  H17S 8877   6.680   5.540   4.583 -0.2325 -1.6805  0.6161
   92SAPC  C218 8878   6.698   5.461   4.378  0.3205  0.3872 -0.5160
   92SAPC  H18R 8879   6.646   5.488   4.283  0.2829  4.3448  0.5278
   92SAPC  H18S 8880   6.684   5.351   4.377  1.2201  0.2643 -0.1782
   92SAPC  C219 8881   6.847   5.489   4.386  0.0764  0.3386  0.2959
   92SAPC  H19R 8882   6.894   5.454   4.480  0.6985  0.7831  0.1544
   92SAPC  H19S 8883   6.863   5.599   4.387 -1.3559  0.5499  2.0363
   92SAPC  C220 8884   6.929   5.422   4.280 -0.1587  0.1059 -0.0634
   92SAPC  H20R 8885   6.900   5.468   4.183 -0.9499 -2.8887 -1.3319
   92SAPC  H20S 8886   6.920   5.311   4.278 -0.0073  0.0674  1.2622
   92SAPC  H20T 8887   7.033   5.459   4.293  0.2463 -0.5316 -1.3668
   92SAPC   C33 8888   7.161   5.464   5.039  0.4696 -0.3178  0.0020
   92SAPC   H3X 8889   7.136   5.370   4.984 -1.4869  0.4884 -0.5638
   92SAPC   H3Y 8890   7.265   5.493   5.013  0.1810 -1.0019 -2.0742
   92SAPC   C34 8891   7.078   5.571   4.975 -0.5560  0.3612  0.6393
   92SAPC   H4X 8892   7.102   5.667   5.025  1.9424  0.0639  0.0644
   92SAPC   H4Y 8893   6.970   5.549   4.991 -0.0141 -3.6686 -0.6921
   92SAPC   C35 8894   7.092   5.591   4.817 -0.5601 -0.7433  0.3191
   92SAPC   H5X 8895   7.071   5.496   4.763 -0.8892 -0.6416  0.2733
   92SAPC   H5Y 8896   7.195   5.617   4.784 -0.1063 -3.1592 -0.2809
   92SAPC   C36 8897   6.984   5.692   4.775  0.2644  0.1166 -0.3960
   92SAPC   H6X 8898   6.987   5.788   4.830 -1.3664 -0.5518  0.8760
   92SAPC   H6Y 8899   6.883   5.646   4.770  0.1429  0.1774  1.3760
   92SAPC   C37 8900   7.011   5.721   4.628  0.8742 -0.4463 -0.3867
   92SAPC   H7X 8901   7.001   5.626   4.571 -2.5719  0.1177 -0.8682
   92SAPC   H7Y 8902   7.116   5.755   4.622 -0.1854  2.8296 -0.9498
   92SAPC   C38 8903   6.910   5.818   4.573  0.4784 -0.5486  0.9002
   92SAPC   H8X 8904   6.891   5.894   4.651 -4.4883  1.3534 -1.9637
   92SAPC   H8Y 8905   6.818   5.756   4.563 -0.3688  0.8796 -0.3332
   92SAPC   C39 8906   6.957   5.876   4.430  1.1935  0.5789  0.2526
   92SAPC   H9X 8907   6.883   5.942   4.380  1.0734  0.9912  0.9705
   92SAPC   H9Y 8908   6.988   5.794   4.361 -1.3702  1.7270 -2.3584
   92SAPC  C310 8909   7.093   5.952   4.441  0.3142 -0.2458  0.3276
   92SAPC  H10X 8910   7.180   5.883   4.445  1.8131  1.6479  0.4221
   92SAPC  H10Y 8911   7.098   5.998   4.542  0.5821  1.0672 -0.2868
   92SAPC  C311 8912   7.118   6.064   4.342  0.6495  0.5929  0.1584
   92SAPC  H11X 8913   7.038   6.140   4.350  0.5785  0.4012  1.2366
   92SAPC  H11Y 8914   7.120   6.025   4.238  0.2932 -1.6925  0.9928
   92SAPC  C312 8915   7.249   6.138   4.372 -0.2010  0.3770  0.6492
   92SAPC  H12X 8916   7.227   6.197   4.463  0.6104  2.1695 -0.2940
   92SAPC  H12Y 8917   7.278   6.210   4.292  0.4774  0.8504  1.3084
   92SAPC  C313 8918   7.376   6.046   4.397  0.1646  0.0030 -0.3095
   92SAPC  H13X 8919   7.375   5.938   4.370  0.9955 -0.5240  1.6140
   92SAPC  H13Y 8920   7.387   6.051   4.508 -2.9430 -1.9966  0.1664
   92SAPC  C314 8921   7.510   6.102   4.351  0.2146 -0.1156  0.0362
   92SAPC  H14X 8922   7.500   6.120   4.242 -1.5098  1.2131  0.3942
   92SAPC  H14Y 8923   7.598   6.035   4.362 -0.1312 -0.9003 -1.7477
   92SAPC  C315 8924   7.546   6.227   4.432 -0.6252 -0.1776 -0.0325
   92SAPC  H15X 8925   7.523   6.197   4.537 -3.2144 -0.7530 -0.7261
   92SAPC  H15Y 8926   7.464   6.297   4.407 -0.3245  0.5639  1.0059
   92SAPC  C316 8927   7.681   6.292   4.399  0.8254 -1.0313  0.4439
   92SAPC  H16X 8928   7.680   6.332   4.296 -0.9383 -0.1861  0.7737
   92SAPC  H16Y 8929   7.767   6.221   4.408  2.1948  0.8972  3.2657
   92SAPC  C317 8930   7.708   6.414   4.498  0.7057 -0.3578  0.1920
   92SAPC  H17X 8931   7.730   6.376   4.600 -1.9954 -0.0941  0.9240
   92SAPC  H17Y 8932   7.618   6.479   4.502  0.9484 -0.1315  2.4646
   92SAPC  C318 8933   7.833   6.499   4.450 -0.5247  0.2947 -0.4135
   92SAPC  H18X 8934   7.865   6.573   4.525 -0.8790 -0.4853  0.5220
   92SAPC  H18Y 8935   7.810   6.552   4.355 -0.9200 -1.6710 -1.4525
   92SAPC  H18Z 8936   7.921   6.432   4.452 -1.0341 -0.3494  1.7815
   93SAPC     N 8937   6.453   7.059   6.410  0.6700 -0.2261 -0.1471
   93SAPC   C12 8938   6.522   7.101   6.279  0.5664  0.2416 -0.4849
   93SAPC  H12A 8939   6.565   7.015   6.230  0.6523  0.2542 -0.4302
   93SAPC  H12B 8940   6.601   7.170   6.306  1.0573 -0.3567 -0.3693
   93SAPC   C13 8941   6.325   6.972   6.385  0.2227 -0.3465 -0.2902
   93SAPC  H13A 8942   6.253   7.031   6.330  1.0136 -2.4171 -3.6771
   93SAPC  H13B 8943   6.351   6.882   6.331  0.8510 -0.3130 -0.0418
   93SAPC  H13C 8944   6.289   6.938   6.481  2.3099  0.6787  0.8917
   93SAPC   C14 8945   6.541   6.970   6.488 -0.1299  0.1138 -0.3496
   93SAPC  H14A 8946   6.554   6.869   6.452  2.3736 -0.4182  1.9007
   93SAPC  H14B 8947   6.637   7.019   6.487  0.6696 -1.3882  0.7689
   93SAPC  H14C 8948   6.505   6.970   6.590 -2.9876 -2.1235 -1.2668
   93SAPC   C15 8949   6.436   7.185   6.496 -0.2980 -0.1108  0.4887
   93SAPC  H15A 8950   6.524   7.248   6.493 -0.3675  0.0228  1.2187
   93SAPC  H15B 8951   6.362   7.247   6.449  0.0551 -1.0433 -1.3677
   93SAPC  H15C 8952   6.402   7.159   6.595  0.2436  0.0638  0.7216
   93SAPC   C11 8953   6.441   7.191   6.179 -0.2425  0.6800  0.5732
   93SAPC  H11A 8954   6.513   7.253   6.121  0.1596 -0.9036 -0.6362
   93SAPC  H11B 8955   6.380   7.260   6.242  0.5885 -0.1138  2.2717
   93SAPC     P 8956   6.336   7.169   5.957  0.0545 -0.2886 -0.2542
   93SAPC   O13 8957   6.211   7.110   5.906  0.4428  0.0324 -0.2420
   93SAPC   O14 8958   6.341   7.318   5.954 -0.3806 -0.3336 -0.6211
   93SAPC   O12 8959   6.349   7.121   6.105 -0.7583 -0.0640  0.7858
   93SAPC   O11 8960   6.462   7.101   5.884 -0.1860 -0.4674  0.1384
   93SAPC    C1 8961   6.515   7.155   5.766 -0.4019  0.4359  0.3580
   93SAPC    HA 8962   6.457   7.136   5.673 -0.4979 -0.4990  0.6010
   93SAPC    HB 8963   6.548   7.260   5.780 -2.9362  1.1470  1.3780
   93SAPC    C2 8964   6.648   7.077   5.732  0.2851 -0.8085  0.1818
   93SAPC    HS 8965   6.709   7.074   5.824  3.9606 -2.3192 -2.1763
   93SAPC   O21 8966   6.716   7.151   5.628 -0.1718  0.4352  0.1485
   93SAPC   C21 8967   6.843   7.112   5.605  0.1456  0.4273 -0.2665
   93SAPC   O22 8968   6.906   7.028   5.670  0.2323  0.3328  0.7052
   93SAPC   C22 8969   6.892   7.176   5.476 -0.3181  0.0686  0.3951
   93SAPC   H2R 8970   6.820   7.162   5.393  0.5693 -1.0760 -0.2031
   93SAPC   H2S 8971   6.908   7.285   5.484  1.4424 -0.1336 -0.0867
   93SAPC    C3 8972   6.622   6.924   5.694  0.3681  0.5849  0.4438
   93SAPC    HX 8973   6.558   6.869   5.766  0.6773  1.4433  1.3911
   93SAPC    HY 8974   6.719   6.870   5.705  0.5724  0.9675  0.5608
   93SAPC   O31 8975   6.556   6.911   5.566 -0.3812  0.0866  0.1571
   93SAPC   C31 8976   6.640   6.878   5.464 -0.4369  0.2308 -0.7675
   93SAPC   O32 8977   6.761   6.871   5.475 -0.1654  0.1868 -0.1486
   93SAPC   C32 8978   6.555   6.844   5.348  0.6218  0.3797 -0.5527
   93SAPC   H2X 8979   6.446   6.848   5.367  0.5388 -0.5847 -0.7982
   93SAPC   H2Y 8980   6.587   6.741   5.320 -2.6907 -1.1786  1.1910
   93SAPC   C23 8981   7.030   7.110   5.431 -0.5875  0.0291  0.0284
   93SAPC   H3R 8982   7.007   7.001   5.431  1.6004 -0.4657  0.6124
   93SAPC   H3S 8983   7.095   7.155   5.509 -1.8154  2.2279 -0.1760
   93SAPC   C24 8984   7.063   7.152   5.285 -0.0901 -0.1484  0.6055
   93SAPC   H4R 8985   7.160   7.108   5.254 -0.0238  0.0714  0.5057
   93SAPC   H4S 8986   7.067   7.263   5.285 -2.0558 -0.0440  0.7508
   93SAPC   C25 8987   6.961   7.124   5.178 -0.2785  0.0404  0.7494
   93SAPC   H5R 8988   6.907   7.213   5.143  0.5349 -0.5169 -2.0956
   93SAPC   C26 8989   6.943   6.997   5.124 -0.5426 -0.1181 -0.5918
   93SAPC   H6R 8990   6.871   6.979   5.043 -0.8651  1.2532 -0.6165
   93SAPC   C27 8991   7.020   6.877   5.158  0.7969  0.4400 -0.3304
   93SAPC   H7R 8992   7.086   6.880   5.247 -0.5351 -1.0520  0.7226
   93SAPC   H7S 8993   7.097   6.863   5.079  0.1212  1.0540 -1.1130
   93SAPC   C28 8994   6.929   6.759   5.172 -0.3232  0.1887 -0.3898
   93SAPC   H8R 8995   6.900   6.736   5.275  0.8261 -0.0949 -0.1262
   93SAPC   C29 8996   6.878   6.679   5.084  0.5343  0.3531 -0.1939
   93SAPC   H9R 8997   6.820   6.593   5.121 -0.3726  0.2085 -1.8756
   93SAPC  C210 8998   6.886   6.679   4.933  0.7157 -0.6096  0.4719
   93SAPC  H10R 8999   6.886   6.572   4.905  1.7995 -0.4667 -0.1089
   93SAPC  H10S 9000   6.982   6.726   4.900  0.6960 -0.9231 -0.0322
   93SAPC  C211 9001   6.775   6.757   4.872 -0.1759  0.3989 -0.5019
   93SAPC  H11R 9002   6.790   6.866   4.867  2.8062 -0.0157 -2.2340
   93SAPC  C212 9003   6.664   6.708   4.817 -0.1321  0.6480  0.1459
   93SAPC  H12R 9004   6.589   6.773   4.769 -0.7728 -0.1350  0.0809
   93SAPC  C213 9005   6.625   6.565   4.815 -0.7189  0.1072 -0.3590
   93SAPC  H13R 9006   6.672   6.513   4.901 -2.2807  1.5473  1.4029
   93SAPC  H13S 9007   6.669   6.520   4.723 -1.4157 -0.8074 -0.2575
   93SAPC  C214 9008   6.478   6.530   4.822 -0.2647 -0.3646  0.6358
   93SAPC  H14R 9009   6.432   6.499   4.727 -0.1240 -2.6317  1.2597
   93SAPC  C215 9010   6.397   6.525   4.927  0.4441 -0.9070 -0.1532
   93SAPC  H15R 9011   6.296   6.484   4.912  0.1837 -0.6909  0.9632
   93SAPC  C216 9012   6.426   6.550   5.073  0.3259  0.2997 -0.3500
   93SAPC  H16R 9013   6.345   6.619   5.106  0.4044  0.9429 -1.4663
   93SAPC  H16S 9014   6.514   6.616   5.089 -1.0643  1.7089  1.7702
   93SAPC  C217 9015   6.439   6.426   5.161  0.4582 -0.2482 -0.1475
   93SAPC  H17R 9016   6.388   6.343   5.108  0.2724  0.4371 -1.0537
   93SAPC  H17S 9017   6.384   6.448   5.255 -0.3349 -1.9270 -0.1947
   93SAPC  C218 9018   6.587   6.386   5.191 -0.0402  0.6685 -0.1995
   93SAPC  H18R 9019   6.649   6.478   5.194  1.8493 -0.6194  1.0651
   93SAPC  H18S 9020   6.631   6.318   5.115 -0.1004 -1.6294  1.7630
   93SAPC  C219 9021   6.611   6.303   5.320 -0.0715  0.2419  0.0339
   93SAPC  H19R 9022   6.588   6.360   5.413 -0.4697 -1.1794  0.8177
   93SAPC  H19S 9023   6.718   6.273   5.321 -0.6563 -2.1127 -2.1308
   93SAPC  C220 9024   6.527   6.173   5.316 -0.5909 -1.0139  0.1781
   93SAPC  H20R 9025   6.594   6.100   5.367 -2.3930 -1.5762  1.8020
   93SAPC  H20S 9026   6.527   6.154   5.207 -1.8253 -0.4535  0.0688
   93SAPC  H20T 9027   6.423   6.184   5.352 -1.2871  0.8757 -2.3218
   93SAPC   C33 9028   6.599   6.929   5.231  0.0480  0.0299  0.2149
   93SAPC   H3X 9029   6.546   6.887   5.143  0.3487  0.5923 -0.2356
   93SAPC   H3Y 9030   6.708   6.921   5.214 -0.1412 -0.8266 -0.6218
   93SAPC   C34 9031   6.566   7.077   5.238 -0.3244 -0.2428  0.0719
   93SAPC   H4X 9032   6.647   7.131   5.293 -0.6013  0.3820 -0.1265
   93SAPC   H4Y 9033   6.474   7.098   5.296  1.1661  0.0203  2.4094
   93SAPC   C35 9034   6.554   7.130   5.094 -0.0045  0.0387 -0.4201
   93SAPC   H5X 9035   6.461   7.087   5.050  0.9654  1.0495 -3.6096
   93SAPC   H5Y 9036   6.635   7.093   5.027  0.5415  1.8650 -0.7913
   93SAPC   C36 9037   6.557   7.287   5.085 -0.6474  0.5492 -0.4039
   93SAPC   H6X 9038   6.645   7.336   5.131  0.5655 -1.3871 -0.5808
   93SAPC   H6Y 9039   6.475   7.319   5.152 -0.2040  0.5958  0.1242
   93SAPC   C37 9040   6.512   7.353   4.953 -0.0703 -0.2021  0.1461
   93SAPC   H7X 9041   6.477   7.457   4.972 -1.2356 -0.2126 -1.8011
   93SAPC   H7Y 9042   6.428   7.294   4.910 -0.0511 -0.3124  0.2602
   93SAPC   C38 9043   6.623   7.364   4.847  0.2587 -0.3174  0.4754
   93SAPC   H8X 9044   6.642   7.258   4.819  0.2058 -0.3229  0.4597
   93SAPC   H8Y 9045   6.705   7.422   4.894 -0.6324  2.3197 -1.1568
   93SAPC   C39 9046   6.574   7.445   4.720 -0.3835 -0.5167  0.6991
   93SAPC   H9X 9047   6.664   7.442   4.655 -2.1581  0.9672 -1.9293
   93SAPC   H9Y 9048   6.565   7.554   4.742 -1.8010 -0.3498 -0.6182
   93SAPC  C310 9049   6.456   7.395   4.644 -0.5954  0.6208 -0.4024
   93SAPC  H10X 9050   6.427   7.462   4.560  0.8411 -0.0986 -1.4748
   93SAPC  H10Y 9051   6.367   7.398   4.710  0.9192  1.0363  1.6429
   93SAPC  C311 9052   6.471   7.254   4.591  0.0328  0.5194  0.7715
   93SAPC  H11X 9053   6.377   7.200   4.567 -0.4312  0.7859  1.9701
   93SAPC  H11Y 9054   6.503   7.197   4.680  0.1851  0.2788  0.5610
   93SAPC  C312 9055   6.570   7.247   4.467  0.0199  0.7104  0.2551
   93SAPC  H12X 9056   6.607   7.143   4.462 -1.7276  0.0499  0.8925
   93SAPC  H12Y 9057   6.658   7.314   4.485  2.5816 -2.2052 -0.9942
   93SAPC  C313 9058   6.498   7.271   4.334  0.2466 -0.4460  1.2647
   93SAPC  H13X 9059   6.469   7.378   4.340 -0.3288 -0.5114 -0.2858
   93SAPC  H13Y 9060   6.403   7.214   4.331 -1.2757  1.8702  3.1094
   93SAPC  C314 9061   6.587   7.244   4.211 -0.0223 -0.5568 -0.8074
   93SAPC  H14X 9062   6.614   7.137   4.215  1.6035 -0.1804 -1.4609
   93SAPC  H14Y 9063   6.680   7.305   4.211 -0.5844  0.3216 -1.4875
   93SAPC  C315 9064   6.515   7.266   4.075 -0.4751 -0.3298 -0.7974
   93SAPC  H15X 9065   6.486   7.373   4.081 -0.9252 -0.5263  0.8292
   93SAPC  H15Y 9066   6.427   7.198   4.079 -0.9331  0.1659 -2.0202
   93SAPC  C316 9067   6.606   7.235   3.960 -0.2614 -0.0715  0.0821
   93SAPC  H16X 9068   6.545   7.204   3.873  0.7087  1.3675 -1.1247
   93SAPC  H16Y 9069   6.679   7.155   3.983 -2.7471 -2.4113  0.1257
   93SAPC  C317 9070   6.671   7.354   3.898 -0.3488 -1.3123  0.6201
   93SAPC  H17X 9071   6.752   7.373   3.971  0.7557 -0.4125 -0.8024
   93SAPC  H17Y 9072   6.603   7.443   3.900  1.4474  0.1186 -0.2235
   93SAPC  C318 9073   6.735   7.340   3.756 -0.2998  0.0541 -0.0056
   93SAPC  H18X 9074   6.653   7.309   3.689  0.4132 -1.1745 -0.3379
   93SAPC  H18Y 9075   6.817   7.265   3.755 -0.6029 -0.2942  1.0449
   93SAPC  H18Z 9076   6.781   7.438   3.732  2.0436 -1.5961 -2.5848
   94SAPC     N 9077   0.041   6.471   6.253  0.3551  0.2031  0.0949
   94SAPC   C12 9078  -0.071   6.570   6.270  0.2991 -0.0145  0.6451
   94SAPC  H12A 9079  -0.108   6.576   6.371 -1.3825  1.3868 -0.0118
   94SAPC  H12B 9080  -0.160   6.527   6.224 -0.0159  0.4284  0.8339
   94SAPC   C13 9081  -0.004   6.339   6.308 -0.2134  0.1547 -0.1791
   94SAPC  H13A 9082  -0.030   6.356   6.412 -0.5138  1.1871 -0.4157
   94SAPC  H13B 9083  -0.099   6.319   6.260 -0.3213 -1.2577  0.5860
   94SAPC  H13C 9084   0.067   6.261   6.284  0.3789  0.7465 -0.3443
   94SAPC   C14 9085   0.075   6.457   6.109 -0.1291 -0.3381 -0.0696
   94SAPC  H14A 9086  -0.016   6.433   6.057 -3.1786  0.0334  4.7837
   94SAPC  H14B 9087   0.126   6.543   6.069  2.0825 -0.3379  2.5401
   94SAPC  H14C 9088   0.138   6.369   6.104  1.9625  1.1724 -0.6144
   94SAPC   C15 9089   0.162   6.515   6.329  0.1029 -0.3331  0.1033
   94SAPC  H15A 9090   0.199   6.601   6.276  2.5920 -1.1167  0.5162
   94SAPC  H15B 9091   0.130   6.547   6.426  0.7771  1.5709 -0.2871
   94SAPC  H15C 9092   0.242   6.442   6.333 -0.4692 -0.9398  0.7434
   94SAPC   C11 9093  -0.045   6.715   6.228  0.0916 -0.2706  0.4268
   94SAPC  H11A 9094   0.021   6.769   6.300 -1.6637  2.7280 -0.1097
   94SAPC  H11B 9095  -0.134   6.777   6.255  0.9621  1.2681 -0.1854
   94SAPC     P 9096   0.141   6.792   6.053  0.3924  0.1624 -0.6747
   94SAPC   O13 9097   0.134   6.930   6.100 -0.1554 -0.3704  0.5953
   94SAPC   O14 9098   0.251   6.711   6.099  0.4600  0.1023  0.3507
   94SAPC   O12 9099  -0.001   6.730   6.087 -0.0359 -0.0024  0.1411
   94SAPC   O11 9100   0.143   6.801   5.898  0.7824  0.0894 -0.5951
   94SAPC    C1 9101   0.087   6.692   5.815  0.0218  0.0837  0.2068
   94SAPC    HA 9102   0.017   6.626   5.871  0.3550  1.3521  2.2112
   94SAPC    HB 9103   0.047   6.738   5.723 -0.2996  2.0414  1.2931
   94SAPC    C2 9104   0.200   6.595   5.758 -0.2411 -0.7135 -0.4920
   94SAPC    HS 9105   0.256   6.562   5.848 -2.1827  0.4105  1.1581
   94SAPC   O21 9106   0.280   6.653   5.659  0.7445 -0.5952 -0.2990
   94SAPC   C21 9107   0.381   6.726   5.693  0.3416  0.6044 -0.0067
   94SAPC   O22 9108   0.424   6.747   5.806  0.5318  0.1201  0.3691
   94SAPC   C22 9109   0.440   6.785   5.566 -0.9418 -0.1344  0.5201
   94SAPC   H2R 9110   0.498   6.705   5.515  0.0296  1.6722 -1.2596
   94SAPC   H2S 9111   0.358   6.807   5.495  1.5822  1.4249 -2.0226
   94SAPC    C3 9112   0.144   6.465   5.697  0.5979  0.8881  0.4458
   94SAPC    HX 9113   0.093   6.419   5.785 -0.1510  0.8390 -0.0145
   94SAPC    HY 9114   0.225   6.397   5.663 -0.5685  0.0036 -0.6115
   94SAPC   O31 9115   0.060   6.495   5.589 -0.0964 -0.5432  0.1885
   94SAPC   C31 9116   0.081   6.434   5.475 -0.4512 -0.0300 -0.1864
   94SAPC   O32 9117   0.152   6.337   5.457  0.7376  0.0002 -0.5246
   94SAPC   C32 9118   0.003   6.511   5.372 -0.2830  0.6894 -0.5598
   94SAPC   H2X 9119   0.035   6.617   5.378  0.0836  0.7134 -2.5680
   94SAPC   H2Y 9120  -0.106   6.507   5.395 -0.2983  2.8579 -0.1894
   94SAPC   C23 9121   0.523   6.913   5.577 -0.1176  0.6143  0.2055
   94SAPC   H3R 9122   0.626   6.888   5.610 -0.2757  1.7655  1.5916
   94SAPC   H3S 9123   0.477   6.978   5.655 -0.9249  2.2166 -1.5636
   94SAPC   C24 9124   0.524   7.002   5.450 -0.7803  0.0184  0.2942
   94SAPC   H4R 9125   0.601   7.079   5.469  1.2656 -1.0511 -3.1506
   94SAPC   H4S 9126   0.428   7.056   5.466  0.9105  2.3315  3.1653
   94SAPC   C25 9127   0.520   6.918   5.325  0.3412  1.0597 -0.2374
   94SAPC   H5R 9128   0.606   6.850   5.324 -0.7297 -0.3880  1.9625
   94SAPC   C26 9129   0.418   6.918   5.233 -0.3466 -0.1014 -0.2390
   94SAPC   H6R 9130   0.439   6.847   5.152  1.4534  0.5820 -0.3774
   94SAPC   C27 9131   0.290   7.000   5.233 -0.1620 -0.4309 -0.1829
   94SAPC   H7R 9132   0.256   7.033   5.333 -0.7653  1.2457 -0.9151
   94SAPC   H7S 9133   0.210   6.933   5.195  0.9841 -0.0582 -3.4114
   94SAPC   C28 9134   0.317   7.123   5.148  0.0619 -0.3235  0.7983
   94SAPC   H8R 9135   0.394   7.193   5.182 -1.5972  1.1302  1.6300
   94SAPC   C29 9136   0.271   7.148   5.024  0.0611 -0.1436 -0.1939
   94SAPC   H9R 9137   0.312   7.234   4.969  4.1095 -2.9999 -1.8624
   94SAPC  C210 9138   0.177   7.057   4.943 -0.1973  0.2346 -0.8273
   94SAPC  H10R 9139   0.078   7.074   4.990 -0.2037 -0.1605 -0.6961
   94SAPC  H10S 9140   0.208   6.951   4.958 -0.1283  0.0709 -2.0155
   94SAPC  C211 9141   0.172   7.072   4.795 -0.1677  0.1241  0.0220
   94SAPC  H11R 9142   0.262   7.108   4.744 -0.3095 -0.4893 -0.6787
   94SAPC  C212 9143   0.080   7.021   4.711  0.3471  0.2049  0.5123
   94SAPC  H12R 9144   0.091   7.040   4.604 -2.0003  2.9149  0.6910
   94SAPC  C213 9145  -0.050   6.948   4.749  0.5203 -0.2647  0.0061
   94SAPC  H13R 9146  -0.068   6.938   4.858 -1.0304 -1.0172 -0.3067
   94SAPC  H13S 9147  -0.043   6.846   4.706 -0.6677  0.0807 -1.0592
   94SAPC  C214 9148  -0.167   7.031   4.698  0.4182 -0.8142 -0.0712
   94SAPC  H14R 9149  -0.212   7.092   4.778  2.6002  0.2685  0.3569
   94SAPC  C215 9150  -0.212   7.040   4.571 -0.5349  0.5752 -0.6823
   94SAPC  H15R 9151  -0.297   7.104   4.539 -0.6794 -0.4050 -2.3029
   94SAPC  C216 9152  -0.156   6.953   4.456  0.8728 -0.0124 -0.4261
   94SAPC  H16R 9153  -0.082   6.878   4.491  1.0148  0.4925  0.3595
   94SAPC  H16S 9154  -0.089   7.004   4.383 -0.9109  2.1846 -0.5859
   94SAPC  C217 9155  -0.271   6.890   4.373  0.0934 -0.2769  0.4613
   94SAPC  H17R 9156  -0.227   6.823   4.297  1.6373  0.6867  0.4930
   94SAPC  H17S 9157  -0.330   6.971   4.325 -3.6171 -1.3471  2.9513
   94SAPC  C218 9158  -0.372   6.809   4.459  0.4750  0.0328  0.4333
   94SAPC  H18R 9159  -0.417   6.871   4.539  1.4544  0.5583  0.5928
   94SAPC  H18S 9160  -0.325   6.721   4.507  0.3139 -0.0653  0.4117
   94SAPC  C219 9161  -0.483   6.758   4.375  0.2117 -0.1141  0.0580
   94SAPC  H19R 9162  -0.454   6.676   4.306  0.0602 -0.5122  0.4640
   94SAPC  H19S 9163  -0.527   6.838   4.312 -1.6552 -0.4838  0.8318
   94SAPC  C220 9164  -0.604   6.712   4.462  0.5731 -0.7230  0.9046
   94SAPC  H20R 9165  -0.604   6.766   4.559 -0.4029  0.6378  0.1632
   94SAPC  H20S 9166  -0.589   6.605   4.487 -1.0016 -0.4064  3.3799
   94SAPC  H20T 9167  -0.699   6.723   4.404  1.4303 -1.0678 -0.5833
   94SAPC   C33 9168   0.023   6.450   5.231  0.0447  0.1705  0.1749
   94SAPC   H3X 9169   0.123   6.404   5.215  0.9799  0.8449  3.7251
   94SAPC   H3Y 9170   0.005   6.526   5.152  1.3662 -1.5890 -1.9034
   94SAPC   C34 9171  -0.075   6.337   5.189  0.2809 -0.1315  0.3547
   94SAPC   H4X 9172  -0.179   6.370   5.172  0.2435  0.1758  1.1770
   94SAPC   H4Y 9173  -0.072   6.259   5.269 -1.1861  0.2853  0.8420
   94SAPC   C35 9174  -0.034   6.271   5.056 -0.3310 -0.0777  0.1061
   94SAPC   H5X 9175  -0.100   6.184   5.038 -0.3318  0.2826 -1.7020
   94SAPC   H5Y 9176   0.070   6.238   5.076  0.1984  2.6894  2.3368
   94SAPC   C36 9177  -0.034   6.364   4.934  0.4269 -0.2659 -0.2551
   94SAPC   H6X 9178   0.046   6.441   4.944 -1.2360  1.5708 -0.8806
   94SAPC   H6Y 9179  -0.135   6.406   4.913  0.4165 -0.8203 -1.3574
   94SAPC   C37 9180  -0.025   6.280   4.798 -0.1319  0.0970 -0.3153
   94SAPC   H7X 9181  -0.111   6.210   4.792  0.5572 -0.8591  0.5529
   94SAPC   H7Y 9182   0.064   6.213   4.791 -0.1182  0.2278 -1.4360
   94SAPC   C38 9183  -0.032   6.369   4.674 -0.2446  0.2408  0.3148
   94SAPC   H8X 9184   0.005   6.314   4.584  1.2344  0.1129  0.9933
   94SAPC   H8Y 9185   0.045   6.448   4.684  1.1238 -1.1429  0.7671
   94SAPC   C39 9186  -0.166   6.429   4.637 -0.3920  0.1781 -0.2302
   94SAPC   H9X 9187  -0.155   6.522   4.577 -1.8888  1.0695  0.8568
   94SAPC   H9Y 9188  -0.228   6.454   4.726 -0.3131  1.2382 -0.4608
   94SAPC  C310 9189  -0.237   6.333   4.543 -0.2996 -0.7864 -0.7473
   94SAPC  H10X 9190  -0.236   6.231   4.587  1.7043 -2.0321 -3.5538
   94SAPC  H10Y 9191  -0.174   6.325   4.452  1.3451 -0.0683  0.2923
   94SAPC  C311 9192  -0.367   6.376   4.486  0.2924  0.4546 -0.0082
   94SAPC  H11X 9193  -0.367   6.481   4.448  1.5053  0.4065 -0.1756
   94SAPC  H11Y 9194  -0.441   6.360   4.567  0.1486 -0.8751 -0.3956
   94SAPC  C312 9195  -0.418   6.285   4.375 -0.4766  0.3061  0.4357
   94SAPC  H12X 9196  -0.390   6.179   4.394 -0.5731  0.6160  2.4662
   94SAPC  H12Y 9197  -0.372   6.301   4.275 -1.6512 -1.8315 -0.4769
   94SAPC  C313 9198  -0.573   6.295   4.367  0.2097 -0.4721 -0.0797
   94SAPC  H13X 9199  -0.612   6.301   4.471 -0.9304  0.0992 -0.5390
   94SAPC  H13Y 9200  -0.614   6.200   4.327 -0.3933 -0.0127 -0.5530
   94SAPC  C314 9201  -0.633   6.402   4.272  0.1112 -0.2249  0.5206
   94SAPC  H14X 9202  -0.611   6.367   4.169  0.2082 -1.2027  0.8678
   94SAPC  H14Y 9203  -0.578   6.498   4.278 -0.2092  0.1772 -2.3215
   94SAPC  C315 9204  -0.786   6.417   4.297 -0.4552  0.1509 -0.0584
   94SAPC  H15X 9205  -0.820   6.471   4.206 -0.8297  1.1100  0.6439
   94SAPC  H15Y 9206  -0.809   6.460   4.397  3.7573  2.1663  0.1564
   94SAPC  C316 9207  -0.865   6.289   4.269  0.8721  0.1856  0.6964
   94SAPC  H16X 9208  -0.832   6.202   4.330 -1.9843 -1.4970 -0.0280
   94SAPC  H16Y 9209  -0.851   6.249   4.166  0.0373  1.9657 -0.1370
   94SAPC  C317 9210  -1.017   6.298   4.277  0.6892  1.1245 -0.2808
   94SAPC  H17X 9211  -1.045   6.371   4.198 -0.8000  0.0775 -0.7215
   94SAPC  H17Y 9212  -1.059   6.333   4.375 -0.7839  4.2751 -1.9582
   94SAPC  C318 9213  -1.074   6.168   4.245  0.2050 -0.4288  0.4876
   94SAPC  H18X 9214  -1.029   6.089   4.310  1.6783 -1.3284 -1.5511
   94SAPC  H18Y 9215  -1.056   6.133   4.141  1.0037  2.5179 -0.4000
   94SAPC  H18Z 9216  -1.183   6.155   4.263 -0.2321  0.4764 -1.4083
   95SAPC     N 9217   4.801   2.580   1.991  0.0772 -0.1154 -0.1506
   95SAPC   C12 9218   4.762   2.681   1.878  0.4716 -0.1818  0.2912
   95SAPC  H12A 9219   4.676   2.633   1.833 -1.1225 -0.5779  3.6162
   95SAPC  H12B 9220   4.836   2.673   1.800 -1.7346 -0.8209 -1.7995
   95SAPC   C13 9221   4.932   2.625   2.048 -0.4367  0.5095  0.8171
   95SAPC  H13A 9222   4.917   2.693   2.130 -0.5168  1.7663 -0.2239
   95SAPC  H13B 9223   4.979   2.542   2.098 -0.2422  0.9892  1.4399
   95SAPC  H13C 9224   5.005   2.669   1.982 -0.3523  0.0644  0.6100
   95SAPC   C14 9225   4.694   2.573   2.098  0.4968  0.3717  0.0870
   95SAPC  H14A 9226   4.668   2.667   2.146 -0.9955  0.5778 -1.0914
   95SAPC  H14B 9227   4.600   2.554   2.048  1.1338  1.3705 -1.5346
   95SAPC  H14C 9228   4.723   2.499   2.172 -1.0763 -0.1756  0.1892
   95SAPC   C15 9229   4.813   2.449   1.926 -0.3623  0.8905 -0.8696
   95SAPC  H15A 9230   4.902   2.449   1.864  0.0031 -0.8299 -0.3628
   95SAPC  H15B 9231   4.818   2.370   1.999  0.4275 -0.0175 -1.8873
   95SAPC  H15C 9232   4.725   2.435   1.864 -1.5949 -0.1116  1.0830
   95SAPC   C11 9233   4.728   2.830   1.912  0.9224  0.3145  1.0645
   95SAPC  H11A 9234   4.643   2.834   1.983 -2.3538 -1.1339 -2.5338
   95SAPC  H11B 9235   4.698   2.893   1.826 -1.6406  1.0555  2.4642
   95SAPC     P 9236   4.830   3.030   2.036  0.1124  0.2346 -0.3175
   95SAPC   O13 9237   4.859   3.136   1.931 -0.3395  0.1161 -0.3136
   95SAPC   O14 9238   4.710   3.045   2.120  0.3969  0.1495  0.3801
   95SAPC   O12 9239   4.840   2.889   1.963  0.0349 -0.3057 -0.6136
   95SAPC   O11 9240   4.954   3.023   2.127  0.4637  0.5482 -0.1476
   95SAPC    C1 9241   4.956   2.941   2.245  0.0501 -0.0451  0.1519
   95SAPC    HA 9242   4.969   3.020   2.323  1.5092 -0.1164 -0.0013
   95SAPC    HB 9243   4.863   2.884   2.265 -0.7890  0.8607 -1.0751
   95SAPC    C2 9244   5.094   2.865   2.256  0.4074 -0.6577  0.1415
   95SAPC    HS 9245   5.083   2.785   2.179  0.6718  0.2752 -0.8705
   95SAPC   O21 9246   5.117   2.810   2.391 -0.7841 -0.3180  0.9173
   95SAPC   C21 9247   5.045   2.708   2.426 -0.5092 -0.9593  0.0731
   95SAPC   O22 9248   4.972   2.642   2.350 -0.1410 -0.2237 -0.2313
   95SAPC   C22 9249   5.069   2.699   2.582  0.1237 -0.1181 -0.2508
   95SAPC   H2R 9250   5.173   2.661   2.586 -0.0062 -0.6482 -1.8269
   95SAPC   H2S 9251   5.051   2.798   2.629  0.5580 -0.3410  0.3945
   95SAPC    C3 9252   5.223   2.942   2.205  0.0813  0.1455 -0.0091
   95SAPC    HX 9253   5.184   2.982   2.109 -1.0573  1.7234  1.0888
   95SAPC    HY 9254   5.291   2.854   2.204 -1.9751 -1.5413  1.4951
   95SAPC   O31 9255   5.267   3.037   2.301  0.3702 -0.0472  0.5826
   95SAPC   C31 9256   5.226   3.165   2.271 -0.4703 -0.1746  0.4406
   95SAPC   O32 9257   5.189   3.205   2.162 -0.2151  0.1300 -0.4749
   95SAPC   C32 9258   5.261   3.258   2.384  0.0720 -0.0496  0.4363
   95SAPC   H2X 9259   5.223   3.358   2.354  3.0066  0.2394 -2.5615
   95SAPC   H2Y 9260   5.372   3.264   2.391  0.2275 -2.2947  0.3466
   95SAPC   C23 9261   4.977   2.595   2.654 -0.0410 -0.3293 -0.1558
   95SAPC   H3R 9262   4.998   2.492   2.618 -0.2972 -0.0078 -1.2369
   95SAPC   H3S 9263   4.873   2.623   2.629  0.2134  1.7945  0.9767
   95SAPC   C24 9264   4.996   2.595   2.807 -0.1475  0.4768  0.6597
   95SAPC   H4R 9265   4.953   2.691   2.845 -0.8209  0.1967  0.6061
   95SAPC   H4S 9266   5.102   2.586   2.842  0.2262 -1.6555 -0.9349
   95SAPC   C25 9267   4.916   2.474   2.857 -0.8790 -0.6646 -0.5387
   95SAPC   H5R 9268   4.836   2.454   2.785 -2.3325 -0.4345  0.9833
   95SAPC   C26 9269   4.917   2.418   2.979 -0.1648  0.1374 -0.4902
   95SAPC   H6R 9270   4.842   2.342   3.008  0.9958 -0.3544  1.3369
   95SAPC   C27 9271   5.006   2.464   3.093 -0.4337 -0.2424 -0.3266
   95SAPC   H7R 9272   4.953   2.549   3.141  1.2260  1.9416 -2.2321
   95SAPC   H7S 9273   5.101   2.498   3.046 -0.7777 -2.2178 -2.5285
   95SAPC   C28 9274   5.042   2.364   3.196 -0.5634  0.3873  0.1530
   95SAPC   H8R 9275   5.118   2.290   3.165 -2.0222 -0.6435 -1.0761
   95SAPC   C29 9276   4.994   2.346   3.321  0.5926 -0.3093  0.5323
   95SAPC   H9R 9277   5.020   2.254   3.376  0.2363 -0.2482  0.8048
   95SAPC  C210 9278   4.882   2.431   3.384  0.1747 -0.1705 -0.1535
   95SAPC  H10R 9279   4.819   2.490   3.313  1.6595 -1.6591 -2.7776
   95SAPC  H10S 9280   4.929   2.505   3.452  0.0326 -1.8210  1.7987
   95SAPC  C211 9281   4.789   2.356   3.473 -0.0605  0.1159  0.2926
   95SAPC  H11R 9282   4.694   2.324   3.427  0.1217  1.0149 -0.7095
   95SAPC  C212 9283   4.816   2.301   3.594 -0.0211  0.1578  1.1335
   95SAPC  H12R 9284   4.741   2.239   3.644  0.8307 -1.5061  0.3997
   95SAPC  C213 9285   4.949   2.307   3.658 -0.4051  0.6406 -1.1673
   95SAPC  H13R 9286   5.037   2.342   3.599  0.1412  2.5723  0.7420
   95SAPC  H13S 9287   4.978   2.203   3.685 -2.4875  0.2944 -0.1732
   95SAPC  C214 9288   4.941   2.380   3.788  0.0982  0.4242  0.2603
   95SAPC  H14R 9289   4.882   2.473   3.782  0.3842  0.8077  2.7338
   95SAPC  C215 9290   5.006   2.346   3.903 -0.3495 -0.0339  0.0856
   95SAPC  H15R 9291   4.994   2.421   3.983  4.8477 -1.4905  2.4257
   95SAPC  C216 9292   5.098   2.234   3.932 -0.2911  0.6129 -0.5700
   95SAPC  H16R 9293   5.198   2.276   3.958 -0.4142  0.9378 -0.6242
   95SAPC  H16S 9294   5.104   2.172   3.839 -0.8003  1.2683 -1.0447
   95SAPC  C217 9295   5.058   2.135   4.043 -0.4595  0.6695 -0.2438
   95SAPC  H17R 9296   5.012   2.173   4.137 -2.3648  0.5048 -1.1063
   95SAPC  H17S 9297   5.144   2.070   4.072 -2.9516 -2.6113  0.0831
   95SAPC  C218 9298   4.931   2.047   4.011  0.6623  0.1644 -0.3559
   95SAPC  H18R 9299   4.909   2.042   3.903 -2.4625 -0.0859  0.2664
   95SAPC  H18S 9300   4.842   2.105   4.042  1.5951  1.7977 -0.6867
   95SAPC  C219 9301   4.945   1.907   4.069  0.2673  0.4016 -0.1878
   95SAPC  H19R 9302   4.979   1.913   4.175  0.9631 -0.0507 -0.3778
   95SAPC  H19S 9303   5.023   1.855   4.010 -3.1000 -0.8410 -3.7379
   95SAPC  C220 9304   4.824   1.813   4.058 -0.0439 -0.1218 -0.6016
   95SAPC  H20R 9305   4.777   1.817   3.957  2.4442 -0.8518 -1.8131
   95SAPC  H20S 9306   4.751   1.844   4.136 -1.5183  0.0633 -2.0121
   95SAPC  H20T 9307   4.851   1.710   4.089 -0.0848  0.6686  2.1607
   95SAPC   C33 9308   5.188   3.223   2.519 -0.7502  0.3857  0.7462
   95SAPC   H3X 9309   5.102   3.159   2.491  0.8883 -1.3893 -0.3833
   95SAPC   H3Y 9310   5.163   3.319   2.569  0.9225  0.0709  2.2435
   95SAPC   C34 9311   5.280   3.136   2.613 -0.4569  0.4208 -0.3805
   95SAPC   H4X 9312   5.365   3.203   2.637 -0.9603  1.1033 -0.4865
   95SAPC   H4Y 9313   5.318   3.046   2.561  0.0904  0.9372 -0.8803
   95SAPC   C35 9314   5.203   3.107   2.744 -0.2730 -0.2573 -0.1885
   95SAPC   H5X 9315   5.113   3.046   2.723 -0.3992 -0.2427  0.2852
   95SAPC   H5Y 9316   5.175   3.199   2.800  0.4721 -1.7613  2.7806
   95SAPC   C36 9317   5.287   3.022   2.840 -0.3985 -0.6048  0.1350
   95SAPC   H6X 9318   5.366   3.090   2.879 -0.2975 -1.1602  0.8961
   95SAPC   H6Y 9319   5.322   2.938   2.776 -1.4650 -0.4585 -0.6465
   95SAPC   C37 9320   5.210   2.971   2.960 -0.3730 -0.3458  0.1931
   95SAPC   H7X 9321   5.114   2.923   2.931  0.2932 -0.3799 -2.0814
   95SAPC   H7Y 9322   5.193   3.053   3.033  0.2045  0.9756 -1.1314
   95SAPC   C38 9323   5.284   2.856   3.032 -0.0420  0.0415 -0.6636
   95SAPC   H8X 9324   5.389   2.885   3.052  0.9791 -4.1946  0.4836
   95SAPC   H8Y 9325   5.282   2.763   2.970  0.1811 -0.1574 -0.3709
   95SAPC   C39 9326   5.229   2.808   3.160  0.0736 -0.4461  0.3429
   95SAPC   H9X 9327   5.298   2.738   3.211  0.1026 -1.3053 -0.8686
   95SAPC   H9Y 9328   5.141   2.742   3.141  0.0305  0.6567 -3.6603
   95SAPC  C310 9329   5.181   2.910   3.257 -0.2323 -0.1039 -0.1948
   95SAPC  H10X 9330   5.109   2.975   3.203 -1.4932  1.4757  3.2174
   95SAPC  H10Y 9331   5.265   2.975   3.288  0.0894 -0.4070 -0.4233
   95SAPC  C311 9332   5.116   2.850   3.382  0.2985  0.1358 -0.5490
   95SAPC  H11X 9333   5.046   2.767   3.357  0.0596  0.1670  0.0178
   95SAPC  H11Y 9334   5.048   2.921   3.434 -0.3201 -0.4908 -0.5020
   95SAPC  C312 9335   5.213   2.791   3.477 -0.4162  0.4864  0.3705
   95SAPC  H12X 9336   5.310   2.845   3.480 -0.0818 -0.1274  0.5136
   95SAPC  H12Y 9337   5.230   2.691   3.433  0.0644  1.3276 -1.4191
   95SAPC  C313 9338   5.161   2.786   3.627 -0.0257 -0.0587  0.3427
   95SAPC  H13X 9339   5.065   2.729   3.631 -0.4837  0.7999  2.9024
   95SAPC  H13Y 9340   5.155   2.890   3.667 -1.4563 -0.0560  0.1458
   95SAPC  C314 9341   5.260   2.716   3.727 -0.5231  0.0236 -0.0462
   95SAPC  H14X 9342   5.243   2.744   3.833  3.4757 -0.2224  0.7458
   95SAPC  H14Y 9343   5.357   2.751   3.687  0.7529 -1.9949  1.1906
   95SAPC  C315 9344   5.259   2.557   3.708 -0.2377 -0.2692  0.3015
   95SAPC  H15X 9345   5.253   2.527   3.602  0.6303 -0.1537  0.2210
   95SAPC  H15Y 9346   5.169   2.514   3.758 -0.2722 -1.6300 -0.8936
   95SAPC  C316 9347   5.378   2.474   3.765  0.3184  0.0977  0.1906
   95SAPC  H16X 9348   5.453   2.498   3.687  0.4797 -0.3705  0.1988
   95SAPC  H16Y 9349   5.346   2.368   3.753 -0.7275  0.6044 -1.5407
   95SAPC  C317 9350   5.420   2.503   3.907  0.4276 -0.1022 -0.2961
   95SAPC  H17X 9351   5.332   2.486   3.972  0.4971 -0.3352 -0.2628
   95SAPC  H17Y 9352   5.449   2.609   3.920  1.6780 -0.5472  0.6691
   95SAPC  C318 9353   5.533   2.413   3.943 -0.6215  0.7213  0.4693
   95SAPC  H18X 9354   5.571   2.432   4.045 -0.8680 -0.5596  0.8104
   95SAPC  H18Y 9355   5.613   2.431   3.868 -0.1381  1.0572  1.0626
   95SAPC  H18Z 9356   5.504   2.306   3.940 -0.3175  0.6690 -1.4649
   96SAPC     N 9357   4.252   2.040   1.865 -0.2570 -0.2790 -0.5905
   96SAPC   C12 9358   4.388   2.036   1.804 -0.3023  0.0788 -0.3060
   96SAPC  H12A 9359   4.390   1.965   1.723 -0.6718 -0.1148 -0.1458
   96SAPC  H12B 9360   4.453   2.004   1.885 -0.7318 -0.2016 -0.0709
   96SAPC   C13 9361   4.164   2.137   1.794 -0.3633 -0.1863 -0.5329
   96SAPC  H13A 9362   4.067   2.139   1.841 -1.0943 -1.0520 -1.9867
   96SAPC  H13B 9363   4.210   2.233   1.808 -1.1415 -0.0640  1.3097
   96SAPC  H13C 9364   4.163   2.117   1.688  1.2399 -0.0729 -0.5745
   96SAPC   C14 9365   4.180   1.909   1.874  0.1584  0.0524  0.1545
   96SAPC  H14A 9366   4.087   1.913   1.929 -0.3697  0.9535 -0.8011
   96SAPC  H14B 9367   4.153   1.888   1.772  3.7177  0.2601 -0.8994
   96SAPC  H14C 9368   4.244   1.825   1.897  3.0963  1.7697 -1.4548
   96SAPC   C15 9369   4.276   2.075   2.009  0.1160  0.6906  0.8035
   96SAPC  H15A 9370   4.322   2.170   2.032  0.8609  0.0835  1.9011
   96SAPC  H15B 9371   4.184   2.075   2.066  1.1382  1.1304  2.5178
   96SAPC  H15C 9372   4.333   1.993   2.051 -1.0284 -0.8124 -0.5382
   96SAPC   C11 9373   4.437   2.173   1.753  0.3189  0.3709  0.2471
   96SAPC  H11A 9374   4.367   2.216   1.679  2.1964  0.4566 -1.5210
   96SAPC  H11B 9375   4.539   2.154   1.713 -0.4986 -1.4233 -1.0887
   96SAPC     P 9376   4.426   2.429   1.819 -0.1473  0.0518  0.3030
   96SAPC   O13 9377   4.533   2.474   1.726 -0.0362 -0.1938  0.6500
   96SAPC   O14 9378   4.288   2.446   1.758 -0.0061  1.0159 -0.8239
   96SAPC   O12 9379   4.453   2.273   1.856  0.3433 -0.4465 -0.2485
   96SAPC   O11 9380   4.430   2.503   1.955  0.2508  0.4659 -0.0107
   96SAPC    C1 9381   4.336   2.457   2.049  0.3528 -0.6249 -0.2499
   96SAPC    HA 9382   4.301   2.351   2.044 -2.0468  0.1361  0.0568
   96SAPC    HB 9383   4.373   2.464   2.154 -0.3646  1.4095 -0.1196
   96SAPC    C2 9384   4.203   2.542   2.041  0.3723 -0.1672  0.4726
   96SAPC    HS 9385   4.195   2.590   1.942 -1.4349 -1.2312  0.0842
   96SAPC   O21 9386   4.204   2.649   2.134  0.3317  0.7237  0.3827
   96SAPC   C21 9387   4.273   2.756   2.104 -0.6403  0.0404 -0.2454
   96SAPC   O22 9388   4.322   2.772   1.996 -0.4541  0.4974  0.2138
   96SAPC   C22 9389   4.269   2.850   2.225  0.0718  0.7677 -0.8373
   96SAPC   H2R 9390   4.335   2.934   2.193  2.3459  0.8991  3.8333
   96SAPC   H2S 9391   4.162   2.878   2.234 -0.4226 -1.7751  1.8037
   96SAPC    C3 9392   4.067   2.463   2.068 -0.6347  0.0608 -0.3064
   96SAPC    HX 9393   4.032   2.411   1.976 -1.3758  1.0114 -0.5763
   96SAPC    HY 9394   3.993   2.534   2.111 -0.4227  1.1428 -1.6945
   96SAPC   O31 9395   4.102   2.361   2.169 -0.4603  0.0983  0.1901
   96SAPC   C31 9396   4.015   2.335   2.266 -0.1107 -0.5006 -0.1459
   96SAPC   O32 9397   3.897   2.374   2.264  0.1483 -0.2598  0.1623
   96SAPC   C32 9398   4.085   2.263   2.383 -0.1448  0.0185 -1.1687
   96SAPC   H2X 9399   4.134   2.174   2.340 -4.1367 -2.0259 -1.7035
   96SAPC   H2Y 9400   4.004   2.218   2.445  0.9638  0.3941  0.6068
   96SAPC   C23 9401   4.296   2.779   2.359  0.1310 -0.0425  0.0761
   96SAPC   H3R 9402   4.250   2.678   2.365  1.5721 -0.7624 -0.5081
   96SAPC   H3S 9403   4.253   2.834   2.444 -2.0776 -0.1409 -0.9435
   96SAPC   C24 9404   4.446   2.739   2.387  0.1581 -0.4077 -0.1829
   96SAPC   H4R 9405   4.469   2.656   2.317  0.6163  0.6247 -1.2734
   96SAPC   H4S 9406   4.447   2.701   2.491  1.0124  4.4210  1.7271
   96SAPC   C25 9407   4.545   2.843   2.349 -0.5768 -0.5518  0.5329
   96SAPC   H5R 9408   4.528   2.875   2.245 -1.4140 -2.0550  0.1941
   96SAPC   C26 9409   4.628   2.910   2.432 -0.7702  0.5683  0.0208
   96SAPC   H6R 9410   4.701   2.977   2.385  1.6872 -2.1634 -0.1397
   96SAPC   C27 9411   4.649   2.884   2.583  0.9524  0.0480 -0.1784
   96SAPC   H7R 9412   4.645   2.777   2.612  1.3690 -0.5360 -2.2024
   96SAPC   H7S 9413   4.574   2.948   2.634 -0.1774 -1.1557 -0.2925
   96SAPC   C28 9414   4.776   2.930   2.653  0.4643 -0.2599  0.0211
   96SAPC   H8R 9415   4.846   2.989   2.592  1.2074 -2.6722 -1.5435
   96SAPC   C29 9416   4.805   2.916   2.783 -0.1017  0.4273  0.0752
   96SAPC   H9R 9417   4.897   2.962   2.823  0.4993  2.8609 -3.8571
   96SAPC  C210 9418   4.721   2.851   2.888 -0.4473  0.5804  0.4386
   96SAPC  H10R 9419   4.715   2.743   2.864  2.6000  0.2911  0.8075
   96SAPC  H10S 9420   4.626   2.899   2.920 -0.3135 -1.1796  3.6873
   96SAPC  C211 9421   4.793   2.852   3.021  0.0966 -0.6353 -0.9470
   96SAPC  H11R 9422   4.881   2.917   3.033 -0.1895 -0.2459 -0.9387
   96SAPC  C212 9423   4.754   2.805   3.141 -0.9360  0.8103 -0.0872
   96SAPC  H12R 9424   4.824   2.813   3.225 -1.8731  0.0565  0.7871
   96SAPC  C213 9425   4.626   2.732   3.163  0.6002  0.2252  0.2687
   96SAPC  H13R 9426   4.638   2.625   3.190  0.9907  0.3556  0.6199
   96SAPC  H13S 9427   4.565   2.721   3.071 -0.5357 -0.2252  1.0736
   96SAPC  C214 9428   4.541   2.804   3.259 -0.7426 -1.0971  0.0956
   96SAPC  H14R 9429   4.468   2.877   3.220  1.3064  0.9996  0.0324
   96SAPC  C215 9430   4.540   2.788   3.387 -0.9778  0.2479  0.6256
   96SAPC  H15R 9431   4.466   2.843   3.447 -0.8132  0.9725  0.1554
   96SAPC  C216 9432   4.628   2.692   3.460 -0.4391  0.5557  0.3498
   96SAPC  H16R 9433   4.718   2.737   3.506 -0.6298 -0.6784  1.9863
   96SAPC  H16S 9434   4.661   2.607   3.397 -1.6069  0.5202 -0.2297
   96SAPC  C217 9435   4.552   2.630   3.578  0.1029 -0.4253 -0.4052
   96SAPC  H17R 9436   4.504   2.709   3.641  0.7138 -1.5385  1.4792
   96SAPC  H17S 9437   4.614   2.582   3.657 -1.5186  0.5108  1.4889
   96SAPC  C218 9438   4.441   2.531   3.527  0.6942 -0.1514 -0.1691
   96SAPC  H18R 9439   4.492   2.440   3.490 -0.7372 -0.4145 -1.5484
   96SAPC  H18S 9440   4.393   2.592   3.447 -1.0911 -0.6167  0.5243
   96SAPC  C219 9441   4.346   2.484   3.635 -0.0641  0.2098  0.0016
   96SAPC  H19R 9442   4.298   2.571   3.683 -2.1825  0.6925 -2.8669
   96SAPC  H19S 9443   4.395   2.420   3.711  0.9834  0.0824 -0.7647
   96SAPC  C220 9444   4.242   2.387   3.575  0.6855 -0.4296  0.3081
   96SAPC  H20R 9445   4.173   2.429   3.499 -0.0279 -0.6281  0.8534
   96SAPC  H20S 9446   4.170   2.368   3.657  0.9318  0.5614  0.7587
   96SAPC  H20T 9447   4.285   2.289   3.544 -1.9571 -1.1873 -1.1430
   96SAPC   C33 9448   4.170   2.358   2.468  0.4592 -0.0406  0.3360
   96SAPC   H3X 9449   4.107   2.441   2.506 -2.6721 -2.5040  0.7140
   96SAPC   H3Y 9450   4.245   2.407   2.401 -0.6258  2.0052  0.5686
   96SAPC   C34 9451   4.233   2.301   2.595  0.1420 -0.6506  0.4996
   96SAPC   H4X 9452   4.305   2.220   2.574  0.3990 -0.3448  0.1829
   96SAPC   H4Y 9453   4.148   2.264   2.656 -0.0604 -0.4889  0.3166
   96SAPC   C35 9454   4.315   2.406   2.673 -0.5607 -0.0886  0.1215
   96SAPC   H5X 9455   4.262   2.503   2.676 -1.2664 -0.3302 -3.0789
   96SAPC   H5Y 9456   4.410   2.416   2.617  0.1190 -1.0322  1.0818
   96SAPC   C36 9457   4.342   2.355   2.814  0.0370 -0.0174  0.7135
   96SAPC   H6X 9458   4.425   2.280   2.816 -1.7651 -2.2779 -2.9684
   96SAPC   H6Y 9459   4.259   2.303   2.866  0.3530 -0.2342  0.9996
   96SAPC   C37 9460   4.399   2.459   2.910  0.6469 -0.0722 -0.0320
   96SAPC   H7X 9461   4.346   2.557   2.904 -1.8216 -1.3047  0.9741
   96SAPC   H7Y 9462   4.507   2.467   2.887  1.1329 -3.0360  1.0122
   96SAPC   C38 9463   4.393   2.411   3.051  0.2709 -0.7561  0.7367
   96SAPC   H8X 9464   4.299   2.356   3.066  1.2116 -2.0356  2.0293
   96SAPC   H8Y 9465   4.398   2.499   3.119  0.0852  1.6031 -2.2083
   96SAPC   C39 9466   4.505   2.312   3.093  0.4288  0.7628 -0.0004
   96SAPC   H9X 9467   4.602   2.365   3.098  1.2733 -0.6927 -0.6669
   96SAPC   H9Y 9468   4.514   2.227   3.023 -1.7930 -2.1792  3.1316
   96SAPC  C310 9469   4.457   2.277   3.234  0.4205  0.2631 -0.2877
   96SAPC  H10X 9470   4.350   2.248   3.235 -0.0556  2.0010  1.8267
   96SAPC  H10Y 9471   4.476   2.359   3.306  0.9618  0.0251 -0.1570
   96SAPC  C311 9472   4.531   2.152   3.288  0.1964 -0.8684 -0.0766
   96SAPC  H11X 9473   4.641   2.169   3.284  0.2131 -1.1738 -1.0487
   96SAPC  H11Y 9474   4.509   2.066   3.221 -0.1592  1.0018 -2.4274
   96SAPC  C312 9475   4.497   2.118   3.431 -0.0671 -0.6530 -0.0600
   96SAPC  H12X 9476   4.386   2.115   3.436 -0.2075 -0.7178 -2.4062
   96SAPC  H12Y 9477   4.542   2.192   3.500 -0.4725  0.6765 -1.2080
   96SAPC  C313 9478   4.546   1.981   3.475  0.2155  0.0809  0.4413
   96SAPC  H13X 9479   4.655   1.973   3.495 -0.0033 -0.0626  1.5788
   96SAPC  H13Y 9480   4.512   1.907   3.399 -0.2720  2.1761 -1.4270
   96SAPC  C314 9481   4.494   1.946   3.612  0.5609 -0.0002 -0.8830
   96SAPC  H14X 9482   4.386   1.921   3.615  0.0748  2.0424 -0.2370
   96SAPC  H14Y 9483   4.513   2.038   3.672  0.0716  0.5903 -1.6149
   96SAPC  C315 9484   4.559   1.817   3.674  0.5084  0.2094  0.0761
   96SAPC  H15X 9485   4.664   1.852   3.666  0.1414  1.5891  1.0318
   96SAPC  H15Y 9486   4.560   1.726   3.611  2.0747 -0.5272  1.1274
   96SAPC  C316 9487   4.511   1.786   3.814  1.1988  0.4662 -0.2771
   96SAPC  H16X 9488   4.551   1.858   3.888  0.0644 -1.7612  2.6239
   96SAPC  H16Y 9489   4.548   1.686   3.844 -1.8513 -1.1430 -1.6436
   96SAPC  C317 9490   4.359   1.767   3.829  0.2372 -0.2349  0.2611
   96SAPC  H17X 9491   4.312   1.864   3.801  1.8460  0.8383  1.2232
   96SAPC  H17Y 9492   4.356   1.754   3.939 -0.2385 -1.4215  0.1232
   96SAPC  C318 9493   4.291   1.651   3.753  0.0915  0.5739  0.2227
   96SAPC  H18X 9494   4.189   1.626   3.788  0.4042 -0.9929  0.0415
   96SAPC  H18Y 9495   4.348   1.555   3.762  0.1700  0.6472  0.5444
   96SAPC  H18Z 9496   4.277   1.673   3.645  2.6102 -2.2658 -0.7742
   97SAPC     N 9497   2.446   1.980   2.264  0.0599  0.7780 -0.3705
   97SAPC   C12 9498   2.294   1.941   2.276  0.3485  0.0926  0.0177
   97SAPC  H12A 9499   2.250   1.921   2.179 -1.5778 -0.6660  1.0137
   97SAPC  H12B 9500   2.245   2.030   2.314  1.3409  0.1167  1.2808
   97SAPC   C13 9501   2.457   2.091   2.165  0.9312 -0.0630  0.1559
   97SAPC  H13A 9502   2.390   2.168   2.200  0.0945 -0.7092 -0.0342
   97SAPC  H13B 9503   2.560   2.122   2.156  0.2514  2.3548  0.4800
   97SAPC  H13C 9504   2.414   2.067   2.069 -0.5564  1.0340  0.5375
   97SAPC   C14 9505   2.512   2.015   2.394  0.6871  0.3136 -0.3590
   97SAPC  H14A 9506   2.443   2.078   2.448 -1.7760 -2.1411 -0.5463
   97SAPC  H14B 9507   2.530   1.924   2.450  1.2451 -0.1322 -1.2454
   97SAPC  H14C 9508   2.607   2.066   2.381  1.1893 -0.3646  0.5942
   97SAPC   C15 9509   2.526   1.859   2.220  0.5516  0.2492 -0.1836
   97SAPC  H15A 9510   2.464   1.771   2.226  0.9224 -0.0016  0.0275
   97SAPC  H15B 9511   2.545   1.871   2.114 -0.0957 -1.4523 -0.5038
   97SAPC  H15C 9512   2.609   1.851   2.289  0.3847  3.0663  0.4026
   97SAPC   C11 9513   2.250   1.825   2.367  0.4363 -0.9771  0.6108
   97SAPC  H11A 9514   2.140   1.836   2.374  0.5403  0.3775  0.3272
   97SAPC  H11B 9515   2.293   1.831   2.469  0.4623 -0.6810  0.5836
   97SAPC     P 9516   2.232   1.641   2.172  0.2437  0.2195  0.0914
   97SAPC   O13 9517   2.151   1.748   2.102  0.4305 -0.1044 -0.2394
   97SAPC   O14 9518   2.340   1.575   2.092  0.1903 -0.1573 -0.1030
   97SAPC   O12 9519   2.297   1.704   2.301  0.4038 -0.2040 -0.5855
   97SAPC   O11 9520   2.129   1.537   2.226  0.0005 -0.2670  0.1377
   97SAPC    C1 9521   2.163   1.413   2.303 -0.3647  0.3778  0.4668
   97SAPC    HA 9522   2.148   1.324   2.238 -1.8094 -2.3306  4.3223
   97SAPC    HB 9523   2.269   1.418   2.335 -0.5197  1.3017  0.8285
   97SAPC    C2 9524   2.058   1.403   2.419 -0.2116 -0.7353  0.5924
   97SAPC    HS 9525   1.962   1.431   2.371 -0.3635 -1.4487  0.4722
   97SAPC   O21 9526   2.097   1.510   2.511  0.3167 -0.5021 -1.0622
   97SAPC   C21 9527   2.006   1.544   2.589 -0.1455 -0.0892  0.4658
   97SAPC   O22 9528   1.886   1.509   2.589  0.5819 -0.4325  0.2594
   97SAPC   C22 9529   2.060   1.653   2.691 -0.2923 -0.3137 -0.2739
   97SAPC   H2R 9530   2.061   1.616   2.796 -0.9655 -0.1926 -0.2248
   97SAPC   H2S 9531   2.169   1.666   2.670  0.3044 -4.9209 -0.6887
   97SAPC    C3 9532   2.039   1.268   2.490 -0.0127 -0.1267  0.2578
   97SAPC    HX 9533   2.023   1.191   2.412 -2.5484  1.9954 -1.3851
   97SAPC    HY 9534   1.949   1.257   2.553  0.0506 -1.0910  0.1791
   97SAPC   O31 9535   2.151   1.244   2.577 -0.1408 -0.2059  0.2632
   97SAPC   C31 9536   2.245   1.172   2.520 -0.4996 -0.5866 -0.6596
   97SAPC   O32 9537   2.234   1.116   2.406 -0.4713 -0.1913 -0.1260
   97SAPC   C32 9538   2.372   1.165   2.612 -0.2046 -0.6024  0.0850
   97SAPC   H2X 9539   2.330   1.153   2.714  1.2097 -2.0069  0.5234
   97SAPC   H2Y 9540   2.420   1.266   2.610 -1.6485  0.1624  2.6627
   97SAPC   C23 9541   1.983   1.787   2.682 -0.2236  0.1915 -0.3126
   97SAPC   H3R 9542   1.878   1.761   2.710 -0.7479  1.3912 -1.1558
   97SAPC   H3S 9543   1.987   1.834   2.582 -1.5124 -0.1731 -0.5478
   97SAPC   C24 9544   2.047   1.900   2.772  0.2584  0.0741  0.5035
   97SAPC   H4R 9545   2.050   1.842   2.867  0.3354 -0.1986  0.3362
   97SAPC   H4S 9546   1.964   1.973   2.776 -1.3016 -1.6031 -0.7822
   97SAPC   C25 9547   2.175   1.972   2.741  0.3709 -0.1671  0.1472
   97SAPC   H5R 9548   2.183   1.991   2.633  0.7354  1.1499  0.3971
   97SAPC   C26 9549   2.278   2.014   2.822 -0.6189  0.6277 -0.3967
   97SAPC   H6R 9550   2.368   2.061   2.780  0.4331 -1.3510 -0.3778
   97SAPC   C27 9551   2.281   2.007   2.973  0.7427  0.3459  0.3170
   97SAPC   H7R 9552   2.383   2.040   3.002  1.1897  0.6525 -1.5553
   97SAPC   H7S 9553   2.288   1.911   3.030 -0.1223  0.0124 -0.1421
   97SAPC   C28 9554   2.175   2.085   3.050 -0.0344 -0.5359 -0.4669
   97SAPC   H8R 9555   2.069   2.063   3.030 -0.7536  1.9161  0.4783
   97SAPC   C29 9556   2.197   2.201   3.121  0.1631 -0.4767  0.3089
   97SAPC   H9R 9557   2.116   2.237   3.187 -1.6641 -1.6012 -1.2489
   97SAPC  C210 9558   2.329   2.261   3.137 -0.7361 -0.3261 -1.2345
   97SAPC  H10R 9559   2.326   2.369   3.108  2.3408  0.3681  0.8000
   97SAPC  H10S 9560   2.409   2.232   3.066  1.2180 -0.8649  1.1704
   97SAPC  C211 9561   2.373   2.245   3.279 -0.1562  0.5683  0.2471
   97SAPC  H11R 9562   2.372   2.140   3.312 -2.3093  0.4353 -0.1433
   97SAPC  C212 9563   2.390   2.342   3.371  0.4155 -0.0668  1.2350
   97SAPC  H12R 9564   2.391   2.311   3.477 -0.3503 -0.8158  1.0288
   97SAPC  C213 9565   2.386   2.492   3.365  0.3306  0.7905  0.0349
   97SAPC  H13R 9566   2.279   2.520   3.376 -0.0774  1.1040 -3.9506
   97SAPC  H13S 9567   2.418   2.522   3.263 -1.8173 -0.3037 -0.9954
   97SAPC  C214 9568   2.458   2.560   3.473 -0.2410 -0.0803 -0.5542
   97SAPC  H14R 9569   2.560   2.590   3.443 -1.3002  1.1906 -3.0440
   97SAPC  C215 9570   2.416   2.586   3.600  0.0962  1.1122  0.4196
   97SAPC  H15R 9571   2.483   2.634   3.673  1.1512  0.4032 -0.0652
   97SAPC  C216 9572   2.277   2.554   3.647  0.0527  0.4449  0.0231
   97SAPC  H16R 9573   2.198   2.567   3.571 -0.9599  0.0207  0.9933
   97SAPC  H16S 9574   2.251   2.633   3.720  3.9058  0.4317  1.5624
   97SAPC  C217 9575   2.263   2.412   3.699  0.2549 -0.4580  0.5488
   97SAPC  H17R 9576   2.281   2.334   3.622  1.0564 -1.1016  1.3795
   97SAPC  H17S 9577   2.158   2.413   3.733  0.4509  1.1686  1.1439
   97SAPC  C218 9578   2.341   2.392   3.826 -0.4297 -1.1783  0.4549
   97SAPC  H18R 9579   2.358   2.490   3.873 -0.9962 -0.2186 -1.2822
   97SAPC  H18S 9580   2.440   2.352   3.792  0.4635  1.2938  0.0619
   97SAPC  C219 9581   2.281   2.295   3.934 -0.0894  0.0299 -0.5618
   97SAPC  H19R 9582   2.275   2.197   3.883  1.4631  1.3532 -3.3931
   97SAPC  H19S 9583   2.183   2.334   3.969  0.2562 -0.8066  1.3964
   97SAPC  C220 9584   2.386   2.304   4.051  0.1417  0.3484  0.4077
   97SAPC  H20R 9585   2.340   2.258   4.141 -3.8418 -0.2636 -1.8327
   97SAPC  H20S 9586   2.417   2.409   4.067 -0.6422  0.8400 -1.2579
   97SAPC  H20T 9587   2.475   2.241   4.030  0.3251  1.4577 -2.4604
   97SAPC   C33 9588   2.455   1.036   2.573  0.0775  0.4408 -0.2962
   97SAPC   H3X 9589   2.500   1.031   2.472 -0.5651 -1.4357 -0.5120
   97SAPC   H3Y 9590   2.391   0.945   2.578 -1.0372  1.0032 -3.0914
   97SAPC   C34 9591   2.573   1.017   2.666  0.4310 -0.4963 -0.3037
   97SAPC   H4X 9592   2.657   1.086   2.645 -1.5792  1.1110 -3.3638
   97SAPC   H4Y 9593   2.627   0.920   2.662 -0.8488 -1.2088 -0.5636
   97SAPC   C35 9594   2.528   1.025   2.811  0.3831 -0.4235  0.0506
   97SAPC   H5X 9595   2.441   0.960   2.834  0.9866 -1.2647 -0.0533
   97SAPC   H5Y 9596   2.507   1.133   2.827  2.2691 -0.2119  1.2294
   97SAPC   C36 9597   2.651   0.999   2.909 -0.0955  0.1087 -0.3578
   97SAPC   H6X 9598   2.720   1.084   2.890 -0.7263  0.8960  0.8313
   97SAPC   H6Y 9599   2.707   0.906   2.883  0.4606  1.4047 -4.0593
   97SAPC   C37 9600   2.607   0.988   3.055 -0.6610 -0.1718 -0.4747
   97SAPC   H7X 9601   2.547   0.895   3.065  0.1309 -0.5098  1.3690
   97SAPC   H7Y 9602   2.548   1.078   3.084  0.3023 -0.2678  1.9484
   97SAPC   C38 9603   2.720   0.987   3.155  0.0063  0.2731  0.3433
   97SAPC   H8X 9604   2.790   0.900   3.149  0.7543  0.8109  1.1203
   97SAPC   H8Y 9605   2.668   0.971   3.252 -0.0731 -2.0693 -0.0456
   97SAPC   C39 9606   2.807   1.106   3.166  0.3323  0.1847  0.0608
   97SAPC   H9X 9607   2.754   1.191   3.119  0.2952  0.1807  0.0961
   97SAPC   H9Y 9608   2.893   1.081   3.100  1.3219 -0.9352  1.7120
   97SAPC  C310 9609   2.846   1.141   3.309  0.4696 -0.5256  0.1809
   97SAPC  H10X 9610   2.901   1.056   3.355  1.7775  0.3469  0.2492
   97SAPC  H10Y 9611   2.747   1.152   3.359  1.6781  2.3826  2.0141
   97SAPC  C311 9612   2.930   1.267   3.319 -0.1777 -0.8061 -0.4696
   97SAPC  H11X 9613   2.888   1.354   3.263  1.3751  0.5484  0.4284
   97SAPC  H11Y 9614   3.032   1.246   3.280 -0.0458 -0.9290 -0.0562
   97SAPC  C312 9615   2.928   1.319   3.465  0.5956  0.0241  0.3065
   97SAPC  H12X 9616   2.947   1.228   3.526 -0.0795 -0.7708 -0.6612
   97SAPC  H12Y 9617   2.829   1.364   3.487  1.4033  2.6344 -1.1419
   97SAPC  C313 9618   3.034   1.421   3.498 -0.4422  0.1901 -0.1485
   97SAPC  H13X 9619   3.002   1.518   3.454 -0.8974  0.1763  0.1453
   97SAPC  H13Y 9620   3.136   1.394   3.464 -0.1532 -0.9588  1.5404
   97SAPC  C314 9621   3.054   1.437   3.652  0.0224 -0.1178  0.2375
   97SAPC  H14X 9622   3.087   1.334   3.676 -0.0174  0.2248  1.8372
   97SAPC  H14Y 9623   2.948   1.446   3.683 -0.1322 -0.7432 -0.1039
   97SAPC  C315 9624   3.162   1.542   3.700  0.5004  0.2048 -0.6390
   97SAPC  H15X 9625   3.250   1.541   3.632  1.5948 -0.4993  0.7690
   97SAPC  H15Y 9626   3.188   1.538   3.808  1.4749  1.2612 -0.8284
   97SAPC  C316 9627   3.099   1.684   3.680 -0.2232 -0.2782 -0.3162
   97SAPC  H16X 9628   3.021   1.701   3.757  0.4499 -2.3218  0.8564
   97SAPC  H16Y 9629   3.066   1.692   3.574  1.6580  0.4765 -0.8682
   97SAPC  C317 9630   3.203   1.796   3.693 -1.1543  0.4576 -0.3500
   97SAPC  H17X 9631   3.270   1.774   3.607 -0.0092 -1.8751  1.1017
   97SAPC  H17Y 9632   3.270   1.786   3.781 -1.3542 -0.2479 -0.2755
   97SAPC  C318 9633   3.145   1.935   3.690 -0.0329 -0.0118  0.4040
   97SAPC  H18X 9634   3.224   2.013   3.690 -1.8679  1.9009  0.4887
   97SAPC  H18Y 9635   3.089   1.948   3.785  2.0234  2.2765  1.3622
   97SAPC  H18Z 9636   3.059   1.961   3.624 -1.2778  0.6777  2.2544
   98SAPC     N 9637   0.537   2.800   1.709  0.0311  0.0485  0.1608
   98SAPC   C12 9638   0.492   2.833   1.845 -0.1836 -0.0044  0.1856
   98SAPC  H12A 9639   0.384   2.836   1.846 -0.1662  0.5818  2.1122
   98SAPC  H12B 9640   0.524   2.931   1.875 -1.4444  0.6622 -0.6120
   98SAPC   C13 9641   0.489   2.658   1.667 -0.0435  0.0668 -0.4195
   98SAPC  H13A 9642   0.570   2.622   1.605 -0.4630 -0.5275 -0.6301
   98SAPC  H13B 9643   0.477   2.594   1.753  0.6275 -0.3002 -0.5942
   98SAPC  H13C 9644   0.394   2.665   1.615 -0.7923 -3.3844  0.3692
   98SAPC   C14 9645   0.476   2.893   1.615  0.4046 -0.4039 -0.7539
   98SAPC  H14A 9646   0.482   2.852   1.515 -0.9425 -2.0795 -0.1697
   98SAPC  H14B 9647   0.370   2.894   1.634  0.1076 -0.0444 -2.3690
   98SAPC  H14C 9648   0.517   2.993   1.605  0.6287 -0.1706  2.0752
   98SAPC   C15 9649   0.684   2.804   1.688 -0.0312 -0.1727 -0.1776
   98SAPC  H15A 9650   0.715   2.782   1.587  0.3349  1.3749 -0.4209
   98SAPC  H15B 9651   0.724   2.899   1.720 -0.2019 -0.5117  1.0814
   98SAPC  H15C 9652   0.723   2.731   1.757  0.7004  0.5769  0.2144
   98SAPC   C11 9653   0.554   2.742   1.957 -0.2512  0.6117 -0.1971
   98SAPC  H11A 9654   0.564   2.635   1.929 -1.0039 -0.2487  2.6894
   98SAPC  H11B 9655   0.494   2.752   2.050 -1.7710  1.3792 -1.2329
   98SAPC     P 9656   0.724   2.899   2.083  0.0311  0.1612  0.1736
   98SAPC   O13 9657   0.867   2.892   2.108 -0.1943 -0.6003  0.1487
   98SAPC   O14 9658   0.673   3.029   2.024 -0.0717 -0.1236 -0.1934
   98SAPC   O12 9659   0.686   2.784   1.980  0.3118  0.0812 -0.7457
   98SAPC   O11 9660   0.650   2.857   2.217  0.0796 -0.5264 -0.6672
   98SAPC    C1 9661   0.701   2.761   2.313  0.4408 -0.3067  0.2546
   98SAPC    HA 9662   0.776   2.692   2.269  1.8477 -0.2137  2.3961
   98SAPC    HB 9663   0.742   2.820   2.398 -0.3722  2.1072 -0.9705
   98SAPC    C2 9664   0.589   2.660   2.354 -0.4803  0.3036 -0.2246
   98SAPC    HS 9665   0.543   2.621   2.261  2.4075 -1.6409 -0.8807
   98SAPC   O21 9666   0.503   2.731   2.447 -0.3675  0.1569 -0.8146
   98SAPC   C21 9667   0.392   2.674   2.478  0.0227  0.3211  0.7883
   98SAPC   O22 9668   0.362   2.569   2.424  0.1812  0.1217 -1.0676
   98SAPC   C22 9669   0.310   2.755   2.575 -0.3577  0.2543 -0.5237
   98SAPC   H2R 9670   0.281   2.849   2.522 -1.4079 -0.4938 -1.2994
   98SAPC   H2S 9671   0.214   2.701   2.593  0.1775  0.3288  2.8896
   98SAPC    C3 9672   0.648   2.533   2.424 -0.0099 -0.6438  0.3046
   98SAPC    HX 9673   0.730   2.503   2.356 -0.7989 -0.6322 -0.6649
   98SAPC    HY 9674   0.575   2.450   2.413  1.2788 -1.8958  1.1348
   98SAPC   O31 9675   0.678   2.565   2.561  0.1352 -0.2475 -0.3164
   98SAPC   C31 9676   0.813   2.578   2.589 -0.8418 -0.7060  0.4218
   98SAPC   O32 9677   0.897   2.576   2.502  0.0732  0.3674  0.0335
   98SAPC   C32 9678   0.825   2.601   2.741  0.0493 -0.1051  0.0054
   98SAPC   H2X 9679   0.770   2.524   2.799  0.8223 -0.3084  0.4821
   98SAPC   H2Y 9680   0.796   2.703   2.773  1.6864  0.3196  0.2191
   98SAPC   C23 9681   0.370   2.790   2.716 -0.1037  0.6678 -0.7695
   98SAPC   H3R 9682   0.293   2.846   2.773  0.0358  1.5743 -1.4385
   98SAPC   H3S 9683   0.471   2.837   2.707 -1.2821  3.2324 -1.1973
   98SAPC   C24 9684   0.405   2.656   2.790 -0.2069  0.2718  0.6237
   98SAPC   H4R 9685   0.451   2.673   2.889  3.3203 -1.4389 -0.6369
   98SAPC   H4S 9686   0.489   2.612   2.733  0.7052 -0.7268  2.7183
   98SAPC   C25 9687   0.290   2.563   2.801  0.2714 -0.6440 -0.2621
   98SAPC   H5R 9688   0.259   2.520   2.704 -2.8322 -2.4298  1.4443
   98SAPC   C26 9689   0.218   2.542   2.908 -0.5918  0.2295  0.5962
   98SAPC   H6R 9690   0.139   2.465   2.905  0.6372 -1.0302 -1.9532
   98SAPC   C27 9691   0.249   2.595   3.042  0.4984 -0.0112 -0.3123
   98SAPC   H7R 9692   0.266   2.705   3.040  1.1961 -0.1220 -0.8961
   98SAPC   H7S 9693   0.343   2.546   3.075 -0.6857 -0.7839  1.9623
   98SAPC   C28 9694   0.146   2.560   3.142  1.0778  0.9313 -0.1799
   98SAPC   H8R 9695   0.051   2.609   3.113  1.2891 -1.2053 -4.9336
   98SAPC   C29 9696   0.157   2.475   3.241 -0.0079  0.9170  0.2754
   98SAPC   H9R 9697   0.067   2.449   3.298  0.3130  0.1625  0.4428
   98SAPC  C210 9698   0.270   2.385   3.279  0.4428 -0.8617  0.2575
   98SAPC  H10R 9699   0.262   2.363   3.388 -0.5756 -1.3767  0.0919
   98SAPC  H10S 9700   0.368   2.432   3.258  1.3684 -2.6851  0.4049
   98SAPC  C211 9701   0.274   2.256   3.204 -0.2548 -0.1778  0.1542
   98SAPC  H11R 9702   0.204   2.248   3.119  1.9788 -2.4508 -1.5578
   98SAPC  C212 9703   0.348   2.150   3.229  0.5061 -0.3336  0.0594
   98SAPC  H12R 9704   0.339   2.066   3.159  1.6093 -1.5277  1.3164
   98SAPC  C213 9705   0.451   2.153   3.341 -0.9085 -0.0353  0.5780
   98SAPC  H13R 9706   0.405   2.118   3.436 -0.2148  1.1708  1.3703
   98SAPC  H13S 9707   0.493   2.255   3.350  2.8639 -1.6004  1.6773
   98SAPC  C214 9708   0.562   2.052   3.323 -0.5156  0.0770 -0.6104
   98SAPC  H14R 9709   0.546   1.981   3.241 -1.5652 -0.2702 -0.1171
   98SAPC  C215 9710   0.665   2.036   3.410 -0.2887  0.2147 -0.2326
   98SAPC  H15R 9711   0.746   1.964   3.391 -1.3777 -1.0726 -0.0534
   98SAPC  C216 9712   0.690   2.117   3.530  0.7354  0.2830  0.7592
   98SAPC  H16R 9713   0.622   2.205   3.530  0.9089  0.4312 -0.8512
   98SAPC  H16S 9714   0.790   2.167   3.526  0.6316  0.4265 -0.3165
   98SAPC  C217 9715   0.695   2.046   3.665 -0.5841 -0.0781  0.2552
   98SAPC  H17R 9716   0.589   2.024   3.691 -0.0244 -2.2152  0.8147
   98SAPC  H17S 9717   0.721   2.131   3.732  0.2768  1.3368 -1.8260
   98SAPC  C218 9718   0.782   1.923   3.668 -0.0953  0.6664  0.2919
   98SAPC  H18R 9719   0.742   1.849   3.596 -0.1461  2.7879 -1.9238
   98SAPC  H18S 9720   0.774   1.883   3.771  1.8104  1.0784  0.6220
   98SAPC  C219 9721   0.940   1.942   3.643 -0.1453 -0.1366  0.1338
   98SAPC  H19R 9722   0.954   2.042   3.691  1.3405 -0.8587  1.2329
   98SAPC  H19S 9723   0.969   1.970   3.539 -0.1851  0.3147  0.2418
   98SAPC  C220 9724   1.026   1.845   3.712  0.1140  0.1289  0.3480
   98SAPC  H20R 9725   1.133   1.862   3.687 -0.1845 -1.4158 -2.1725
   98SAPC  H20S 9726   0.991   1.745   3.680 -2.3052  0.8833  0.5443
   98SAPC  H20T 9727   1.010   1.855   3.821 -1.5981 -1.3551  0.2411
   98SAPC   C33 9728   0.976   2.585   2.782  0.1987 -0.1596  1.0181
   98SAPC   H3X 9729   1.038   2.673   2.756  0.1926 -0.6662 -0.7909
   98SAPC   H3Y 9730   1.027   2.498   2.735 -0.9476 -0.5423  0.4434
   98SAPC   C34 9731   0.988   2.572   2.935 -0.4766  0.0057 -0.2790
   98SAPC   H4X 9732   1.069   2.499   2.958 -0.0694  0.6946  0.4655
   98SAPC   H4Y 9733   0.893   2.529   2.974 -1.0563 -0.0221 -1.6699
   98SAPC   C35 9734   1.027   2.704   3.009 -0.3518 -0.6424 -0.0716
   98SAPC   H5X 9735   1.118   2.739   2.956 -0.3186 -3.1289 -1.7621
   98SAPC   H5Y 9736   1.042   2.677   3.116  1.7209 -1.9266 -0.6455
   98SAPC   C36 9737   0.919   2.815   3.006 -0.3143 -0.2013 -0.2090
   98SAPC   H6X 9738   0.891   2.851   2.905 -0.4427  1.9407  0.5485
   98SAPC   H6Y 9739   0.951   2.899   3.072 -0.5902 -0.7376  0.6096
   98SAPC   C37 9740   0.780   2.768   3.046 -0.1974  0.4474 -0.3837
   98SAPC   H7X 9741   0.749   2.678   2.988  0.5907 -0.6765  0.9017
   98SAPC   H7Y 9742   0.705   2.850   3.044  1.7039  2.2955  1.7288
   98SAPC   C38 9743   0.764   2.727   3.193 -0.4425 -0.0415 -0.3614
   98SAPC   H8X 9744   0.788   2.823   3.244  0.7438 -0.7674  0.4797
   98SAPC   H8Y 9745   0.843   2.653   3.216  1.0160  1.7748  0.6433
   98SAPC   C39 9746   0.620   2.701   3.242 -0.1636 -0.2958  0.2809
   98SAPC   H9X 9747   0.574   2.629   3.171 -2.8160  1.1123  0.5105
   98SAPC   H9Y 9748   0.563   2.795   3.231  0.6047  0.1655  0.2214
   98SAPC  C310 9749   0.610   2.646   3.386 -0.0321  0.0070 -0.2878
   98SAPC  H10X 9750   0.670   2.715   3.448 -1.1187 -1.1903  2.1575
   98SAPC  H10Y 9751   0.665   2.550   3.397 -0.5584 -0.3420 -0.6993
   98SAPC  C311 9752   0.471   2.657   3.445  0.0536  0.2180  0.0542
   98SAPC  H11X 9753   0.399   2.610   3.375  1.7902 -1.5425 -0.6082
   98SAPC  H11Y 9754   0.440   2.764   3.447  2.0405  0.8465 -0.5781
   98SAPC  C312 9755   0.473   2.597   3.582  0.2170 -0.2000 -0.9500
   98SAPC  H12X 9756   0.569   2.624   3.630 -0.1490  1.1576 -0.9726
   98SAPC  H12Y 9757   0.481   2.486   3.580  2.0808 -0.1286  1.0304
   98SAPC  C313 9758   0.353   2.619   3.672 -0.4038 -0.2190 -1.2996
   98SAPC  H13X 9759   0.341   2.529   3.735 -1.9093 -0.0305 -1.3000
   98SAPC  H13Y 9760   0.269   2.644   3.603 -1.2576 -0.4077 -0.3350
   98SAPC  C314 9761   0.372   2.736   3.771 -0.5245  0.3695 -0.2156
   98SAPC  H14X 9762   0.399   2.832   3.723  1.4473  0.3862  0.8523
   98SAPC  H14Y 9763   0.455   2.704   3.839  1.0746  1.1994 -1.7257
   98SAPC  C315 9764   0.244   2.769   3.856 -0.5443 -0.1811 -0.2227
   98SAPC  H15X 9765   0.225   2.673   3.909  0.4401  0.0391  0.5664
   98SAPC  H15Y 9766   0.149   2.806   3.812 -1.0608  0.8871  1.6942
   98SAPC  C316 9767   0.284   2.873   3.967  0.8709  0.4283  0.4776
   98SAPC  H16X 9768   0.312   2.974   3.928 -0.8890  1.1251  0.9902
   98SAPC  H16Y 9769   0.373   2.835   4.022  1.1583  1.8460  1.0046
   98SAPC  C317 9770   0.172   2.872   4.070 -0.4030  0.1963  0.1953
   98SAPC  H17X 9771   0.213   2.934   4.153 -1.4024 -0.4129  1.1490
   98SAPC  H17Y 9772   0.159   2.768   4.106 -0.0837  0.7141  1.8280
   98SAPC  C318 9773   0.035   2.928   4.019  0.5862  0.5630 -0.4980
   98SAPC  H18X 9774  -0.038   2.894   4.095 -0.1152  0.1101 -1.3635
   98SAPC  H18Y 9775   0.005   2.885   3.921  0.4141  1.1741 -0.7203
   98SAPC  H18Z 9776   0.039   3.038   4.006  0.0562  0.4789 -1.4434
   99SAPC     N 9777   1.747   7.040   1.789 -0.2332 -0.2187 -0.0250
   99SAPC   C12 9778   1.741   7.103   1.929  0.1206  0.2322 -0.1227
   99SAPC  H12A 9779   1.703   7.204   1.924  2.1279  0.9839 -0.6975
   99SAPC  H12B 9780   1.841   7.114   1.968  0.5960  2.8057 -1.8992
   99SAPC   C13 9781   1.613   6.993   1.738 -0.4118 -0.1764  0.1489
   99SAPC  H13A 9782   1.582   6.909   1.797  0.7408 -0.8834 -0.2271
   99SAPC  H13B 9783   1.539   7.071   1.749 -1.5890 -1.3439  0.6560
   99SAPC  H13C 9784   1.626   6.958   1.636  0.8857  1.5512 -0.3172
   99SAPC   C14 9785   1.805   7.143   1.694  0.0862  0.4286 -0.7178
   99SAPC  H14A 9786   1.760   7.241   1.699  1.4005  0.9117  2.2580
   99SAPC  H14B 9787   1.907   7.166   1.721  0.4181 -0.7118 -0.9715
   99SAPC  H14C 9788   1.807   7.101   1.594 -2.8978  0.1389 -0.6937
   99SAPC   C15 9789   1.840   6.924   1.797  0.6006 -0.2697  0.0882
   99SAPC  H15A 9790   1.823   6.856   1.715  0.7183 -2.3163  1.7383
   99SAPC  H15B 9791   1.944   6.952   1.808  0.7904 -1.0048  0.1576
   99SAPC  H15C 9792   1.811   6.865   1.882 -2.0851 -0.2570 -0.7939
   99SAPC   C11 9793   1.651   7.038   2.036  0.1618 -0.6015  0.1836
   99SAPC  H11A 9794   1.547   7.063   2.006 -0.6118 -3.7558  0.1158
   99SAPC  H11B 9795   1.669   7.097   2.129  0.0815 -1.9428  1.0660
   99SAPC     P 9796   1.580   6.794   2.105 -0.0208  0.3734 -0.3387
   99SAPC   O13 9797   1.465   6.777   2.015  0.3150  0.1666  0.2239
   99SAPC   O14 9798   1.660   6.672   2.125 -0.1513 -0.1439  0.3598
   99SAPC   O12 9799   1.682   6.901   2.051  0.0287 -0.4822 -0.2292
   99SAPC   O11 9800   1.537   6.852   2.242 -0.4654 -0.0750 -0.2021
   99SAPC    C1 9801   1.642   6.906   2.328 -0.0628  0.0100  0.2154
   99SAPC    HA 9802   1.728   6.947   2.270  1.6756 -1.1434  1.9305
   99SAPC    HB 9803   1.595   7.002   2.356  0.2292 -0.2108  1.4599
   99SAPC    C2 9804   1.682   6.825   2.451  0.5979  0.5271 -0.8326
   99SAPC    HS 9805   1.746   6.876   2.526  0.9405 -2.2976  0.8820
   99SAPC   O21 9806   1.741   6.695   2.411 -0.1780  0.2044 -0.0225
   99SAPC   C21 9807   1.861   6.708   2.353  0.7955  1.2549 -0.1641
   99SAPC   O22 9808   1.921   6.812   2.341  0.0334 -0.4263  0.3555
   99SAPC   C22 9809   1.910   6.574   2.293  0.1907 -0.2814  0.9043
   99SAPC   H2R 9810   1.824   6.520   2.248  1.0149 -2.5373  1.9334
   99SAPC   H2S 9811   1.969   6.601   2.203  1.5022 -2.3426  1.1158
   99SAPC    C3 9812   1.556   6.787   2.530  0.0799 -0.3042  0.0280
   99SAPC    HX 9813   1.511   6.702   2.474  0.2426  0.0477 -0.6394
   99SAPC    HY 9814   1.487   6.874   2.541 -1.6550 -1.5203 -0.8888
   99SAPC   O31 9815   1.600   6.740   2.663 -0.2711  0.2387  0.4589
   99SAPC   C31 9816   1.520   6.643   2.719 -0.4413  0.3923 -0.6521
   99SAPC   O32 9817   1.426   6.598   2.660  0.6604  0.0649  0.4567
   99SAPC   C32 9818   1.579   6.605   2.855  0.5189  0.0881 -0.9376
   99SAPC   H2X 9819   1.585   6.700   2.912 -2.4897 -0.9482  1.2162
   99SAPC   H2Y 9820   1.682   6.566   2.837 -0.2674 -1.6139 -1.8993
   99SAPC   C23 9821   1.989   6.486   2.395 -0.4012  0.3970  0.0109
   99SAPC   H3R 9822   2.007   6.381   2.363 -1.8416  0.1118  0.1044
   99SAPC   H3S 9823   1.922   6.470   2.482  1.3804  0.8101  1.4730
   99SAPC   C24 9824   2.122   6.547   2.434  0.3234 -0.0257  0.0415
   99SAPC   H4R 9825   2.118   6.652   2.472  4.7428  0.5834 -0.9340
   99SAPC   H4S 9826   2.189   6.550   2.346  1.0466 -1.1986  0.5476
   99SAPC   C25 9827   2.192   6.453   2.527 -0.1677 -0.2239 -0.9884
   99SAPC   H5R 9828   2.286   6.411   2.489  1.5024  1.6095  1.0154
   99SAPC   C26 9829   2.168   6.452   2.656  0.6545  0.1001  0.8230
   99SAPC   H6R 9830   2.234   6.384   2.712 -0.6605 -1.1333  0.8938
   99SAPC   C27 9831   2.077   6.540   2.738  0.2941  0.2923 -0.0617
   99SAPC   H7R 9832   2.014   6.610   2.679 -0.5055 -1.0774 -0.8613
   99SAPC   H7S 9833   2.128   6.608   2.809  0.4550  1.7087 -1.5228
   99SAPC   C28 9834   1.985   6.449   2.818  0.5654  0.0201  0.4590
   99SAPC   H8R 9835   1.934   6.380   2.749  0.3958 -0.4916  1.0894
   99SAPC   C29 9836   1.967   6.435   2.949  0.9027 -0.1282  0.7767
   99SAPC   H9R 9837   1.881   6.373   2.977 -0.1805  1.9157  2.0894
   99SAPC  C210 9838   2.030   6.506   3.064  0.3360 -0.2432  0.2770
   99SAPC  H10R 9839   2.141   6.513   3.063  0.3188 -0.1786 -1.6204
   99SAPC  H10S 9840   2.014   6.451   3.159  1.0660  0.9523  1.1193
   99SAPC  C211 9841   1.970   6.645   3.077  0.7110 -0.0511  0.4582
   99SAPC  H11R 9842   1.920   6.691   2.991  3.7113 -1.4788 -2.1224
   99SAPC  C212 9843   1.967   6.721   3.193 -0.5835  0.3822  1.1490
   99SAPC  H12R 9844   1.915   6.818   3.194  0.5605  1.0051  0.6695
   99SAPC  C213 9845   2.026   6.676   3.322  0.2079 -0.6884  0.0992
   99SAPC  H13R 9846   2.071   6.761   3.377  0.5955  0.7314 -2.3769
   99SAPC  H13S 9847   2.113   6.615   3.289  0.6526 -0.9192  1.6746
   99SAPC  C214 9848   1.943   6.594   3.417  0.1182  0.1510 -0.4434
   99SAPC  H14R 9849   1.904   6.509   3.358  0.0544 -0.1002 -0.0418
   99SAPC  C215 9850   1.911   6.610   3.548  0.0052  0.4882  0.0601
   99SAPC  H15R 9851   1.828   6.558   3.598  0.3878 -1.9961 -1.7518
   99SAPC  C216 9852   1.959   6.724   3.632  0.2215  0.3721  0.4674
   99SAPC  H16R 9853   1.905   6.817   3.604  1.8730  1.0000 -0.6840
   99SAPC  H16S 9854   2.067   6.743   3.614  0.7501 -2.4555  0.5437
   99SAPC  C217 9855   1.947   6.701   3.781  0.7217 -0.2959  0.1324
   99SAPC  H17R 9856   1.996   6.786   3.835 -1.7167  1.7568 -0.7785
   99SAPC  H17S 9857   2.001   6.605   3.797  1.0410 -0.3360 -1.1701
   99SAPC  C218 9858   1.805   6.690   3.831 -0.5077 -0.2169 -0.3654
   99SAPC  H18R 9859   1.750   6.610   3.778 -2.0743 -0.6874  1.9200
   99SAPC  H18S 9860   1.752   6.784   3.807  0.9836  0.5672 -0.6874
   99SAPC  C219 9861   1.795   6.681   3.988 -0.8340  0.6302 -0.0832
   99SAPC  H19R 9862   1.889   6.636   4.028 -0.2215 -0.0277 -2.1698
   99SAPC  H19S 9863   1.700   6.628   4.012 -0.8533  1.2490  1.2390
   99SAPC  C220 9864   1.805   6.816   4.060  0.3586 -0.1472 -0.8215
   99SAPC  H20R 9865   1.787   6.806   4.169 -0.6699  0.6016 -0.9130
   99SAPC  H20S 9866   1.724   6.886   4.031 -1.9600 -1.6425  1.7519
   99SAPC  H20T 9867   1.897   6.873   4.036  2.9966 -3.9671 -0.3217
   99SAPC   C33 9868   1.504   6.503   2.940 -0.1304 -0.1100 -0.6878
   99SAPC   H3X 9869   1.503   6.402   2.894  2.8824 -1.2022  1.4184
   99SAPC   H3Y 9870   1.400   6.535   2.962 -0.5387 -0.0870 -2.6128
   99SAPC   C34 9871   1.565   6.493   3.080  0.1861 -0.2839  0.3802
   99SAPC   H4X 9872   1.541   6.580   3.145 -0.8909 -2.1146  2.4921
   99SAPC   H4Y 9873   1.676   6.499   3.083  0.2018  0.6086 -1.1960
   99SAPC   C35 9874   1.523   6.361   3.163 -0.3765 -0.4168  0.6445
   99SAPC   H5X 9875   1.590   6.354   3.252 -1.8465  2.0260  1.9858
   99SAPC   H5Y 9876   1.546   6.270   3.103  1.3304 -0.8025  1.8115
   99SAPC   C36 9877   1.373   6.352   3.205  0.2384  0.2913  0.4693
   99SAPC   H6X 9878   1.353   6.251   3.247 -0.4286 -0.3396 -1.3197
   99SAPC   H6Y 9879   1.316   6.362   3.110  1.8995  0.5727 -0.5367
   99SAPC   C37 9880   1.337   6.473   3.297 -0.1404  0.0495 -0.9633
   99SAPC   H7X 9881   1.351   6.566   3.237 -0.4983  1.4878  1.1355
   99SAPC   H7Y 9882   1.401   6.485   3.387 -1.3406 -1.4672  0.1131
   99SAPC   C38 9883   1.197   6.458   3.342  0.9346  0.1465 -0.4110
   99SAPC   H8X 9884   1.184   6.375   3.414  0.7937 -1.0496 -1.7885
   99SAPC   H8Y 9885   1.129   6.447   3.254 -0.1829  0.4495  0.4032
   99SAPC   C39 9886   1.145   6.590   3.421  1.0357 -0.0544  0.5545
   99SAPC   H9X 9887   1.176   6.677   3.360 -2.2621  0.8826  0.0899
   99SAPC   H9Y 9888   1.201   6.584   3.517  1.7947  2.0782  0.2685
   99SAPC  C310 9889   0.994   6.601   3.438  0.3754 -0.1051 -0.0287
   99SAPC  H10X 9890   0.936   6.582   3.345 -0.7706  1.8162  0.2656
   99SAPC  H10Y 9891   0.967   6.704   3.468  1.6735  0.3764 -0.4864
   99SAPC  C311 9892   0.938   6.524   3.558  0.6254  0.1213 -0.0216
   99SAPC  H11X 9893   0.984   6.561   3.652  1.2940 -1.2610  0.2144
   99SAPC  H11Y 9894   0.966   6.416   3.549 -0.7871 -0.1470 -1.2369
   99SAPC  C312 9895   0.786   6.534   3.565 -0.2530  0.6660  0.6253
   99SAPC  H12X 9896   0.761   6.501   3.462  1.5563 -0.1764  0.4186
   99SAPC  H12Y 9897   0.747   6.634   3.590  1.3971  0.7476  3.0841
   99SAPC  C313 9898   0.723   6.428   3.662  0.5286  0.3731  0.5851
   99SAPC  H13X 9899   0.766   6.326   3.663  2.0120  0.9896  0.1305
   99SAPC  H13Y 9900   0.617   6.410   3.632  0.5975 -2.1730  1.7168
   99SAPC  C314 9901   0.704   6.490   3.807 -0.0694  0.5549  0.0069
   99SAPC  H14X 9902   0.644   6.582   3.790  1.0286  0.8257 -2.7875
   99SAPC  H14Y 9903   0.809   6.522   3.825 -0.1492  0.2104  1.1423
   99SAPC  C315 9904   0.642   6.398   3.912  0.2583 -0.7026  0.3932
   99SAPC  H15X 9905   0.632   6.458   4.006 -1.2668 -0.8029  0.3075
   99SAPC  H15Y 9906   0.717   6.319   3.933 -0.5316 -1.8466 -0.9980
   99SAPC  C316 9907   0.507   6.328   3.873 -0.2808  0.4252 -0.3138
   99SAPC  H16X 9908   0.518   6.261   3.785  0.2804  0.1042  0.0005
   99SAPC  H16Y 9909   0.437   6.411   3.850 -1.1838 -0.6445 -1.5428
   99SAPC  C317 9910   0.443   6.264   3.991  0.4285  0.3050  0.5325
   99SAPC  H17X 9911   0.438   6.344   4.068  0.5947  0.7856  0.0467
   99SAPC  H17Y 9912   0.499   6.171   4.014 -0.9849 -1.5693 -3.1424
   99SAPC  C318 9913   0.296   6.239   3.971  0.1375  0.2668 -0.2364
   99SAPC  H18X 9914   0.277   6.197   3.870  2.4244 -1.2668 -0.0590
   99SAPC  H18Y 9915   0.236   6.333   3.968  0.1441  0.3435  1.4538
   99SAPC  H18Z 9916   0.254   6.168   4.046  0.7402  0.5042  0.3341
  100SAPC     N 9917   7.077   0.011   1.804 -0.2205  0.3547  0.1067
  100SAPC   C12 9918   7.139  -0.076   1.909 -0.7910  0.0297 -0.1210
  100SAPC  H12A 9919   7.234  -0.118   1.878 -0.6323 -0.0798  0.4976
  100SAPC  H12B 9920   7.066  -0.154   1.925 -0.6655 -0.2998 -1.1500
  100SAPC   C13 9921   6.965   0.095   1.850 -0.4344  0.1525  0.1693
  100SAPC  H13A 9922   7.001   0.175   1.914  1.2849  1.2374 -2.0657
  100SAPC  H13B 9923   6.925   0.138   1.759 -0.9792 -1.0518 -0.1745
  100SAPC  H13C 9924   6.884   0.037   1.892  0.0078  0.8094  2.0016
  100SAPC   C14 9925   7.181   0.096   1.734 -0.2242 -0.0679 -0.0977
  100SAPC  H14A 9926   7.253   0.032   1.685  0.3712 -0.6700  1.5246
  100SAPC  H14B 9927   7.132   0.161   1.662  1.0863  1.0150 -0.0143
  100SAPC  H14C 9928   7.235   0.161   1.801  1.8775 -1.3875 -0.4663
  100SAPC   C15 9929   7.025  -0.079   1.700 -0.5945  0.0978  0.0588
  100SAPC  H15A 9930   7.002  -0.023   1.611 -0.3088 -0.7499 -0.5472
  100SAPC  H15B 9931   7.089  -0.159   1.667 -1.0022 -0.1545 -0.1254
  100SAPC  H15C 9932   6.933  -0.124   1.736  0.3159 -1.2631  0.7062
  100SAPC   C11 9933   7.164  -0.009   2.047 -0.0215  0.1428 -0.1983
  100SAPC  H11A 9934   7.192  -0.077   2.131 -0.0078 -1.6010 -1.5957
  100SAPC  H11B 9935   7.065   0.032   2.077 -1.0821 -1.9134 -0.7939
  100SAPC     P 9936   7.409   0.066   2.029  0.5244 -0.2614 -0.0822
  100SAPC   O13 9937   7.416  -0.075   2.013 -0.8453 -0.0427 -0.5475
  100SAPC   O14 9938   7.464   0.153   1.920  0.4254 -0.6660 -0.3211
  100SAPC   O12 9939   7.257   0.101   2.035  0.0775 -0.6653 -0.1860
  100SAPC   O11 9940   7.476   0.106   2.170  0.3995  0.2444 -0.0155
  100SAPC    C1 9941   7.391   0.160   2.270 -0.2233 -0.0316  0.3881
  100SAPC    HA 9942   7.283   0.133   2.268  0.1778 -1.6321 -0.0512
  100SAPC    HB 9943   7.432   0.128   2.368  2.0225  2.0842  0.1863
  100SAPC    C2 9944   7.402   0.316   2.278  0.0700 -0.3154 -0.0975
  100SAPC    HS 9945   7.368   0.363   2.184 -0.3231 -0.3834  0.0078
  100SAPC   O21 9946   7.540   0.353   2.311 -0.1218 -0.0104  0.4729
  100SAPC   C21 9947   7.559   0.485   2.306  0.6497  0.1743 -0.6956
  100SAPC   O22 9948   7.471   0.571   2.267 -0.1534 -0.0231  0.2620
  100SAPC   C22 9949   7.701   0.518   2.350 -0.2165 -0.1218 -0.1801
  100SAPC   H2R 9950   7.757   0.424   2.369 -2.2123 -0.9564  1.8469
  100SAPC   H2S 9951   7.722   0.579   2.260 -0.2627  3.6552  2.2383
  100SAPC    C3 9952   7.311   0.372   2.387 -0.0814 -0.0293  0.0360
  100SAPC    HX 9953   7.208   0.357   2.349 -1.1611 -2.7426  3.7148
  100SAPC    HY 9954   7.318   0.482   2.397  0.2062 -0.0422 -0.0128
  100SAPC   O31 9955   7.319   0.317   2.522 -0.0269  0.7470 -0.1166
  100SAPC   C31 9956   7.235   0.222   2.551  0.4797  0.1154 -0.1317
  100SAPC   O32 9957   7.151   0.171   2.476  0.9960  0.1311  0.4565
  100SAPC   C32 9958   7.260   0.183   2.697 -1.0669 -0.7382  0.0731
  100SAPC   H2X 9959   7.219   0.080   2.707  0.1537 -1.0982  1.3902
  100SAPC   H2Y 9960   7.197   0.257   2.751  1.1640  1.8352 -0.7324
  100SAPC   C23 9961   7.727   0.627   2.447  0.2366  0.8015  0.1786
  100SAPC   H3R 9962   7.676   0.720   2.412 -1.4333  0.1929  0.9351
  100SAPC   H3S 9963   7.835   0.652   2.454  0.9074 -2.4924  2.6770
  100SAPC   C24 9964   7.647   0.617   2.577 -0.2545  0.2139 -0.1820
  100SAPC   H4R 9965   7.544   0.583   2.552 -0.3303  0.9236 -0.8162
  100SAPC   H4S 9966   7.636   0.716   2.625 -0.4078 -0.5281  1.3689
  100SAPC   C25 9967   7.710   0.517   2.674  0.1134  0.1499 -0.2829
  100SAPC   H5R 9968   7.726   0.421   2.621 -0.3252 -0.4211  0.6049
  100SAPC   C26 9969   7.735   0.540   2.805  0.3272 -0.1040 -0.7761
  100SAPC   H6R 9970   7.791   0.466   2.865 -0.2544 -0.0016 -0.1071
  100SAPC   C27 9971   7.713   0.674   2.878 -0.0715 -0.3461 -0.4512
  100SAPC   H7R 9972   7.680   0.650   2.981  0.7546  1.5826  0.2766
  100SAPC   H7S 9973   7.630   0.730   2.828  0.7485  0.1728 -1.2478
  100SAPC   C28 9974   7.836   0.763   2.870  0.5039 -1.2299  0.5366
  100SAPC   H8R 9975   7.908   0.742   2.789  0.4728  2.0736 -0.4153
  100SAPC   C29 9976   7.874   0.857   2.966 -0.2784 -0.1284 -0.0681
  100SAPC   H9R 9977   7.961   0.923   2.954  0.5508 -1.4177 -1.2670
  100SAPC  C210 9978   7.788   0.889   3.087  0.6660 -0.3258 -0.0802
  100SAPC  H10R 9979   7.859   0.858   3.167  0.3460  0.3627  0.4716
  100SAPC  H10S 9980   7.693   0.835   3.106  1.1548 -0.6413  1.5946
  100SAPC  C211 9981   7.753   1.032   3.106  0.2622 -0.5409 -0.4364
  100SAPC  H11R 9982   7.725   1.087   3.015 -0.5970  1.6017  1.0792
  100SAPC  C212 9983   7.767   1.105   3.219 -0.4437  0.3631  0.1415
  100SAPC  H12R 9984   7.735   1.210   3.225 -0.8296  0.2524  0.0582
  100SAPC  C213 9985   7.809   1.055   3.352 -1.0329 -0.2885 -0.0295
  100SAPC  H13R 9986   7.819   1.142   3.421 -1.6708 -1.8755  2.1228
  100SAPC  H13S 9987   7.915   1.024   3.339 -1.4767 -2.4318  1.2848
  100SAPC  C214 9988   7.731   0.939   3.424 -0.4667 -0.9026  0.9506
  100SAPC  H14R 9989   7.635   0.900   3.387 -1.6830 -1.0523  4.0947
  100SAPC  C215 9990   7.762   0.881   3.539 -0.2046 -0.0456  0.4991
  100SAPC  H15R 9991   7.693   0.805   3.578 -0.6106 -0.1439 -0.3883
  100SAPC  C216 9992   7.880   0.909   3.631  0.0534 -0.1758 -0.4690
  100SAPC  H16R 9993   7.965   0.972   3.598 -0.5193  0.0412 -1.5288
  100SAPC  H16S 9994   7.937   0.817   3.655  1.2650 -0.0110 -2.6160
  100SAPC  C217 9995   7.834   0.972   3.763 -0.2255 -0.2284  0.5425
  100SAPC  H17R 9996   7.794   0.893   3.830  2.0157 -1.8599  0.0281
  100SAPC  H17S 9997   7.755   1.044   3.731  2.3865  2.4480 -0.1688
  100SAPC  C218 9998   7.952   1.023   3.840 -0.3796 -0.3789  0.1152
  100SAPC  H18R 9999   7.976   1.120   3.790 -3.1009  0.9988  1.3305
  100SAPC  H18S10000   8.034   0.949   3.840 -0.0330 -0.0120  1.2758
  100SAPC  C21910001   7.928   1.060   3.992 -0.2031 -0.5064 -0.0988
  100SAPC  H19R10002   8.028   1.094   4.029  0.1594  0.1166 -1.6299
  100SAPC  H19S10003   7.906   0.981   4.067 -0.3415 -0.8013 -0.4545
  100SAPC  C22010004   7.830   1.175   4.005 -0.3492  0.4245 -0.6082
  100SAPC  H20R10005   7.833   1.206   4.112  1.6981 -0.2736 -0.4444
  100SAPC  H20S10006   7.724   1.151   3.986 -0.4562 -0.2697  0.7848
  100SAPC  H20T10007   7.856   1.265   3.946 -0.4625  0.7866 -0.1084
  100SAPC   C3310008   7.405   0.193   2.758  0.7382 -0.2622 -0.3057
  100SAPC   H3X10009   7.422   0.301   2.741 -0.2053 -0.2623 -1.2963
  100SAPC   H3Y10010   7.481   0.129   2.707  0.4663 -1.0670  0.2880
  100SAPC   C3410011   7.401   0.171   2.914 -0.2793  0.8855  0.4620
  100SAPC   H4X10012   7.505   0.165   2.955 -0.2075 -1.8869  0.0068
  100SAPC   H4Y10013   7.348   0.075   2.935 -0.2041  0.5650 -0.7716
  100SAPC   C3510014   7.334   0.274   3.008 -0.7554 -0.0753  0.0372
  100SAPC   H5X10015   7.230   0.244   3.035  0.0607  0.4242  3.9961
  100SAPC   H5Y10016   7.322   0.362   2.942  2.3990  0.0114 -0.4778
  100SAPC   C3610017   7.428   0.331   3.110  0.2505  0.2880  0.5809
  100SAPC   H6X10018   7.379   0.429   3.132 -3.2824 -1.5122  1.0615
  100SAPC   H6Y10019   7.528   0.345   3.064 -0.9973  2.3028 -1.6782
  100SAPC   C3710020   7.450   0.248   3.238  0.0704 -0.4101  0.3005
  100SAPC   H7X10021   7.519   0.169   3.201  0.8933  0.5273 -0.2275
  100SAPC   H7Y10022   7.355   0.199   3.266 -1.4588  0.5798 -2.8521
  100SAPC   C3810023   7.516   0.334   3.346  0.1721 -0.5280 -0.6116
  100SAPC   H8X10024   7.452   0.420   3.377  0.1138 -0.4109 -1.0532
  100SAPC   H8Y10025   7.617   0.373   3.321  0.1465 -0.4447 -0.5864
  100SAPC   C3910026   7.513   0.253   3.479  0.6527 -0.1323 -0.0825
  100SAPC   H9X10027   7.542   0.147   3.465  1.8483 -0.1079  2.1228
  100SAPC   H9Y10028   7.413   0.259   3.527  2.2980 -0.6500  3.4984
  100SAPC  C31010029   7.607   0.312   3.579 -0.2208 -0.9845 -0.6516
  100SAPC  H10X10030   7.579   0.415   3.609  0.7896 -0.4379 -1.5365
  100SAPC  H10Y10031   7.710   0.310   3.535 -0.7919  1.9177 -2.2113
  100SAPC  C31110032   7.611   0.234   3.713  0.0611 -0.3320  0.5373
  100SAPC  H11X10033   7.694   0.273   3.777  1.0998 -2.2581  0.4036
  100SAPC  H11Y10034   7.621   0.127   3.685 -0.6720  0.7351 -4.2545
  100SAPC  C31210035   7.478   0.257   3.786  0.3097 -0.3171 -0.4661
  100SAPC  H12X10036   7.391   0.231   3.722 -2.0932  3.0202  1.3118
  100SAPC  H12Y10037   7.475   0.363   3.819  2.5814 -0.1432 -0.7194
  100SAPC  C31310038   7.462   0.194   3.930  0.3102  0.2491  0.1141
  100SAPC  H13X10039   7.480   0.085   3.912  2.0991  0.6970 -0.9457
  100SAPC  H13Y10040   7.359   0.222   3.961  0.1699  0.2435 -0.3364
  100SAPC  C31410041   7.564   0.237   4.035 -0.5460 -0.3475  0.0376
  100SAPC  H14X10042   7.559   0.347   4.044 -0.7361 -0.1342 -2.5451
  100SAPC  H14Y10043   7.667   0.208   4.007  0.3528  2.5284  0.2818
  100SAPC  C31510044   7.526   0.163   4.170  0.5040  0.4390 -0.1318
  100SAPC  H15X10045   7.505   0.055   4.154  1.3159  0.3230 -0.4490
  100SAPC  H15Y10046   7.430   0.206   4.204  0.5769  0.2507  0.3182
  100SAPC  C31610047   7.636   0.160   4.269 -0.6654  0.1968 -0.9939
  100SAPC  H16X10048   7.660   0.266   4.289  0.6598 -0.4900  1.2956
  100SAPC  H16Y10049   7.725   0.108   4.228 -2.7467 -3.5264 -1.1136
  100SAPC  C31710050   7.589   0.104   4.408 -0.1315  0.1852  0.3570
  100SAPC  H17X10051   7.676   0.086   4.474  1.3143 -0.4048 -1.6657
  100SAPC  H17Y10052   7.544   0.004   4.388  1.5329 -1.0097  2.3822
  100SAPC  C31810053   7.483   0.184   4.476 -0.1245  0.2937 -0.2842
  100SAPC  H18X10054   7.438   0.140   4.567  0.9571 -2.2916 -0.9291
  100SAPC  H18Y10055   7.398   0.198   4.406 -1.1745  1.8067  1.2760
  100SAPC  H18Z10056   7.512   0.287   4.505 -1.1287  0.1400  1.3369
  101OSM      N10057   3.889   3.056   5.777 -0.3146  0.4030 -0.2044
  101OSM    C1510058   3.761   2.988   5.747 -0.6122 -0.4565  0.7415
  101OSM   H15A10059   3.771   2.921   5.664 -0.3322  0.2904  0.1640
  101OSM   H15B10060   3.693   3.068   5.723  0.2397  0.0862  0.0918
  101OSM   H15C10061   3.727   2.945   5.840  2.9945  1.1634  2.9436
  101OSM    C1410062   3.955   3.094   5.644 -0.4725  0.2144 -0.7753
  101OSM   H14A10063   4.000   3.012   5.592 -0.1393 -0.2091  0.1622
  101OSM   H14B10064   4.038   3.160   5.665  1.5342 -2.0760 -1.3699
  101OSM   H14C10065   3.884   3.149   5.585 -0.1040 -1.4671 -2.8171
  101OSM    C1310066   3.858   3.189   5.847 -0.5993 -0.4977  0.4153
  101OSM   H13A10067   3.805   3.262   5.788 -1.3962 -1.3554  0.0461
  101OSM   H13B10068   3.943   3.235   5.895 -0.2325  0.1460 -0.8382
  101OSM   H13C10069   3.791   3.162   5.927 -0.9903 -0.4074  0.1194
  101OSM    C1210070   3.983   2.969   5.859 -0.2701 -1.1542 -0.1202
  101OSM   H12A10071   4.070   3.029   5.880 -2.6211  2.6837 -0.8443
  101OSM   H12B10072   4.014   2.880   5.806  1.8226 -0.6213  0.1832
  101OSM    C1110073   3.923   2.921   5.993  0.2227 -0.1083  0.4268
  101OSM   H11A10074   3.864   2.993   6.052  0.6865  0.7197 -0.1018
  101OSM   H11B10075   4.010   2.898   6.058  1.1243 -1.3359 -1.1634
  101OSM      P10076   3.869   2.661   5.944 -0.1021  0.0716 -0.3037
  101OSM    O1310077   3.965   2.665   5.828 -0.5027 -0.6176 -0.6773
  101OSM    O1410078   3.912   2.599   6.066 -0.3775 -0.2930  0.1462
  101OSM    O1110079   3.736   2.588   5.895  0.3213 -0.4500 -0.4248
  101OSM    O1210080   3.830   2.813   5.975  0.1733 -0.7733  0.7919
  101OSM    C1S10081   3.620   2.659   5.863 -0.8079  0.3531 -0.4273
  101OSM    H1S10082   3.635   2.761   5.820 -2.0084  0.3452 -0.8972
  101OSM    H1T10083   3.557   2.667   5.954  0.4955 -0.5162  0.5672
  101OSM     NF10084   3.456   2.674   5.671  0.3979 -0.0626 -0.0571
  101OSM    HNF10085   3.366   2.692   5.711  0.7789 -0.1931  0.8817
  101OSM    C2S10086   3.543   2.582   5.745  0.6160 -0.1775  0.2400
  101OSM    H2S10087   3.620   2.551   5.671 -0.4404  0.6156 -1.2167
  101OSM    C3S10088   3.467   2.457   5.818 -0.0236 -0.3688 -0.4551
  101OSM    H3S10089   3.403   2.507   5.894  0.1810 -0.1052 -0.4565
  101OSM     O310090   3.553   2.355   5.874  0.1792 -0.1421 -0.6957
  101OSM    HO310091   3.640   2.396   5.884 -0.8246  1.7267  0.8234
  101OSM    C4S10092   3.377   2.400   5.709  0.0148  0.8519 -0.1135
  101OSM    H4S10093   3.424   2.400   5.610 -0.7859  0.9327 -0.4972
  101OSM    C5S10094   3.246   2.379   5.702  0.4919 -0.1041  0.6019
  101OSM    H5S10095   3.184   2.426   5.780  1.4675  1.3906  0.4863
  101OSM    C6S10096   3.175   2.327   5.580 -0.5919  0.1751  0.2481
  101OSM    H6S10097   3.079   2.379   5.564 -0.4095  0.2828 -0.4778
  101OSM    H6T10098   3.137   2.224   5.598  0.4610 -0.2768 -0.0453
  101OSM    C7S10099   3.249   2.337   5.448 -0.3972 -0.4926 -0.2290
  101OSM    H7S10100   3.352   2.295   5.458  0.0012  0.6627  0.5698
  101OSM    H7T10101   3.263   2.445   5.428 -2.0220 -0.4618 -1.3105
  101OSM    C8S10102   3.166   2.270   5.340 -0.3772 -0.2826  0.3129
  101OSM    H8S10103   3.063   2.312   5.331 -0.8000 -1.2986  0.4115
  101OSM    H8T10104   3.134   2.168   5.368  0.4939 -0.4042  0.8822
  101OSM    C9S10105   3.229   2.265   5.203 -0.5516 -0.1369  0.4507
  101OSM    H9S10106   3.323   2.210   5.223  1.0629  1.2314 -3.0117
  101OSM    H9T10107   3.255   2.369   5.175 -0.5377 -0.3161 -0.1981
  101OSM   C10S10108   3.145   2.197   5.098  0.2443 -0.1976 -0.5005
  101OSM   H10S10109   3.044   2.243   5.085 -0.0263 -0.7252 -0.3168
  101OSM   H10T10110   3.139   2.090   5.128 -0.4654  0.1292  0.5379
  101OSM   C11S10111   3.212   2.212   4.956  0.2271 -0.4248 -0.3696
  101OSM   H11S10112   3.283   2.127   4.951 -2.0952 -2.4971  1.1013
  101OSM   H11T10113   3.264   2.308   4.936 -0.0102  0.0079  1.0213
  101OSM   C12S10114   3.098   2.192   4.854 -0.6629  0.6220 -0.4887
  101OSM   H12S10115   3.031   2.280   4.865  0.6824  1.7091 -0.8522
  101OSM   H12T10116   3.038   2.107   4.894 -2.0530  3.0946  2.8679
  101OSM   C13S10117   3.146   2.173   4.708 -0.7031 -0.4670 -0.2777
  101OSM   H13S10118   3.060   2.141   4.646 -2.6100  3.6123  0.1028
  101OSM   H13T10119   3.224   2.094   4.714 -1.6102 -1.3034  0.9854
  101OSM   C14S10120   3.187   2.309   4.646  1.0522 -0.4816  0.0779
  101OSM   H14S10121   3.291   2.337   4.673  2.0787 -1.0764 -3.0553
  101OSM   H14T10122   3.113   2.382   4.685  2.0578  1.1414 -1.0131
  101OSM   C15S10123   3.175   2.296   4.496  0.4159  0.3392 -0.1596
  101OSM   H15S10124   3.175   2.399   4.453  2.3654 -0.0495 -1.1636
  101OSM   H15T10125   3.078   2.249   4.471 -0.5329  0.9628  2.1809
  101OSM   C16S10126   3.280   2.204   4.427 -0.1489 -0.0035  0.4355
  101OSM   H16S10127   3.274   2.100   4.466  0.8202  0.0519  0.7612
  101OSM   H16T10128   3.376   2.245   4.465 -0.6034  1.3525  0.1581
  101OSM   C17S10129   3.302   2.218   4.275  0.2483 -0.0314  0.5127
  101OSM   H17S10130   3.356   2.131   4.232 -0.1013  0.9060 -1.9167
  101OSM   H17T10131   3.368   2.306   4.260 -1.2434  1.1737  0.9561
  101OSM   C18S10132   3.173   2.231   4.183 -0.2088 -0.9018 -0.1330
  101OSM   H18S10133   3.161   2.334   4.142  5.3752 -0.6287 -1.5935
  101OSM   H18T10134   3.080   2.207   4.239 -0.1339 -0.7992  0.0371
  101OSM   H18U10135   3.178   2.163   4.095  0.4436  1.1390 -1.7242
  101OSM    C1F10136   3.514   2.763   5.589 -0.1104  0.6967  0.6797
  101OSM     OF10137   3.626   2.744   5.557 -0.0077 -0.2580  0.2553
  101OSM    C2F10138   3.438   2.880   5.542 -0.2918 -0.0870 -0.3042
  101OSM    H2F10139   3.483   2.959   5.605 -0.5114 -0.7756  0.7371
  101OSM    H2G10140   3.331   2.863   5.567  0.1763  0.4848  2.2537
  101OSM    C3F10141   3.446   2.889   5.387  0.5254  0.1461  0.4240
  101OSM    H3F10142   3.424   2.791   5.340 -0.4501 -0.1924  1.5442
  101OSM    H3G10143   3.551   2.908   5.357 -0.2803  3.3859 -0.6487
  101OSM    C4F10144   3.364   3.007   5.328  0.6792  0.0344 -0.0021
  101OSM    H4F10145   3.388   3.100   5.384  1.1665 -0.1939  0.1730
  101OSM    H4G10146   3.259   2.994   5.360  1.0284  1.8919  2.0716
  101OSM    C5F10147   3.365   3.003   5.176 -0.2168 -0.5673  0.1627
  101OSM    H5F10148   3.298   3.084   5.140  0.0243 -0.8538 -0.9383
  101OSM    H5G10149   3.328   2.906   5.138 -1.0464 -0.7957  1.5189
  101OSM    C6F10150   3.499   3.037   5.115 -0.4792  0.0324 -0.8065
  101OSM    H6F10151   3.580   2.999   5.180 -0.2417 -0.0157 -1.1309
  101OSM    H6G10152   3.512   3.147   5.118 -2.3184  0.2292  1.6080
  101OSM    C7F10153   3.504   2.985   4.968 -0.3661  0.5198  0.4088
  101OSM    H7F10154   3.427   3.038   4.908 -0.2160 -1.1275 -1.3036
  101OSM    H7G10155   3.480   2.876   4.975  0.7824  0.1429 -1.0932
  101OSM    C8F10156   3.648   3.012   4.908 -0.0398  0.2652 -0.2079
  101OSM    H8F10157   3.663   3.122   4.910 -0.3496  0.2837  2.0117
  101OSM    H8G10158   3.652   2.987   4.800 -1.4863  0.3123 -0.2774
  101OSM    C9F10159   3.762   2.939   4.979 -0.0719 -0.3737  0.1806
  101OSM    H9F10160   3.793   2.984   5.074  1.1251 -0.3405 -0.2244
  101OSM   C10F10161   3.853   2.862   4.923  0.1687  0.4524 -0.4296
  101OSM   H10F10162   3.923   2.811   4.990 -0.7202  0.5518  0.5868
  101OSM   C11F10163   3.865   2.832   4.775 -1.1872 -0.1589 -0.2425
  101OSM   H11F10164   3.765   2.792   4.747 -1.6394  1.2598 -0.6745
  101OSM   H11G10165   3.940   2.751   4.763 -0.4917  0.4721 -0.1943
  101OSM   C12F10166   3.905   2.951   4.681 -0.2799  0.4649 -0.0109
  101OSM   H12F10167   3.970   3.031   4.721 -2.2366  1.9424  0.2885
  101OSM   H12G10168   3.808   2.999   4.656  1.0240  0.7598 -5.1728
  101OSM   C13F10169   3.951   2.907   4.543 -0.1276  0.5832 -0.0782
  101OSM   H13F10170   3.864   2.854   4.499  0.0165 -0.5702  0.9803
  101OSM   H13G10171   4.029   2.829   4.554 -0.8731 -0.1794 -0.1387
  101OSM   C14F10172   4.019   3.024   4.467 -0.2364 -0.0538  0.7031
  101OSM   H14F10173   4.121   3.046   4.507 -0.4724  0.2932  1.1063
  101OSM   H14G10174   3.966   3.120   4.484 -0.3967  0.3916 -1.9894
  101OSM   C15F10175   4.020   2.996   4.316  0.4302  0.0939 -0.2944
  101OSM   H15F10176   3.922   2.963   4.277 -0.5786  3.2717 -0.6077
  101OSM   H15G10177   4.092   2.913   4.299  0.7163  0.6059 -1.7165
  101OSM   C16F10178   4.057   3.120   4.226 -0.1808 -0.2656 -0.3678
  101OSM   H16F10179   3.991   3.207   4.249  2.3896  1.2256  1.7466
  101OSM   H16G10180   4.033   3.080   4.126  0.1857  0.6059 -0.8107
  101OSM   C17F10181   4.200   3.172   4.241  0.3868  0.7265  0.3634
  101OSM   H17F10182   4.269   3.085   4.239 -1.4675 -0.7876  0.4860
  101OSM   H17G10183   4.190   3.224   4.339  0.3324  0.3136  0.5809
  101OSM   C18F10184   4.216   3.269   4.120  0.5110 -0.1068  0.1111
  101OSM   H18F10185   4.118   3.320   4.107 -0.3179 -1.5481  0.6027
  101OSM   H18G10186   4.245   3.231   4.020 -0.1888  1.5787 -0.7589
  101OSM   H18H10187   4.281   3.358   4.135 -1.4686  1.9224 -2.8089
  102OSM      N10188   4.651   2.973   6.264 -1.1888  0.3192  0.0007
  102OSM    C1510189   4.691   2.998   6.125 -0.0224  0.1851  0.1078
  102OSM   H15A10190   4.724   2.910   6.072 -2.5578 -1.3396  0.9978
  102OSM   H15B10191   4.772   3.069   6.113  0.4769 -0.4919 -0.6380
  102OSM   H15C10192   4.606   3.038   6.073  0.0965  0.3399  0.0313
  102OSM    C1410193   4.540   2.871   6.259 -0.1393 -0.4258 -1.2334
  102OSM   H14A10194   4.446   2.909   6.224 -1.0210 -1.8638 -0.4743
  102OSM   H14B10195   4.521   2.836   6.360  2.1591 -0.3785 -0.7581
  102OSM   H14C10196   4.555   2.783   6.199 -2.6486  0.0397 -2.5853
  102OSM    C1310197   4.768   2.932   6.343 -0.1987 -0.2711  1.1395
  102OSM   H13A10198   4.846   3.006   6.353  0.1250 -0.0203 -2.5567
  102OSM   H13B10199   4.816   2.845   6.300  0.3730  0.1492  0.9221
  102OSM   H13C10200   4.733   2.916   6.444  0.0937 -1.7120  1.0289
  102OSM    C1210201   4.601   3.103   6.312 -0.4603  0.0020 -0.1953
  102OSM   H12A10202   4.660   3.179   6.263  0.1304 -0.5908 -0.4140
  102OSM   H12B10203   4.610   3.105   6.420  0.6896  0.6057 -0.2997
  102OSM    C1110204   4.450   3.131   6.290  0.4203  0.1774 -0.9984
  102OSM   H11A10205   4.437   3.232   6.335 -1.5778 -0.4250 -0.1804
  102OSM   H11B10206   4.400   3.057   6.356  1.1451  2.0293  1.6915
  102OSM      P10207   4.271   3.138   6.103 -0.1243  0.1089  0.0953
  102OSM    O1310208   4.208   3.012   6.152 -0.2420 -0.3373  0.1121
  102OSM    O1410209   4.222   3.261   6.156  0.1032 -0.1591  0.0995
  102OSM    O1110210   4.274   3.133   5.949 -0.1195 -0.3148  0.0753
  102OSM    O1210211   4.415   3.129   6.154 -0.5369  0.3574 -0.1445
  102OSM    C1S10212   4.395   3.084   5.884 -0.0701  0.0539 -0.6384
  102OSM    H1S10213   4.427   2.988   5.931  0.7865  1.5010  1.8745
  102OSM    H1T10214   4.476   3.158   5.899  0.4702 -0.3783 -1.3714
  102OSM     NF10215   4.471   2.967   5.682  0.0090 -0.7513 -0.2843
  102OSM    HNF10216   4.562   3.005   5.664  0.2336 -2.2984 -2.7113
  102OSM    C2S10217   4.373   3.065   5.733  0.0220  0.3468  0.7245
  102OSM    H2S10218   4.276   3.012   5.725  0.0202  0.4277  0.1791
  102OSM    C3S10219   4.370   3.197   5.664  0.9253 -0.9993 -0.7105
  102OSM    H3S10220   4.454   3.260   5.701 -0.4868  1.0869 -0.9555
  102OSM     O310221   4.253   3.268   5.695  0.5408 -0.2042  0.1785
  102OSM    HO310222   4.249   3.278   5.790  0.8540 -0.5138  0.2221
  102OSM    C4S10223   4.376   3.183   5.516  0.6061  0.2478  0.6181
  102OSM    H4S10224   4.274   3.169   5.479  0.3408  0.7378  1.1550
  102OSM    C5S10225   4.485   3.207   5.436  0.4221  0.7035 -0.0208
  102OSM    H5S10226   4.579   3.242   5.480  0.0902  2.6291 -0.7957
  102OSM    C6S10227   4.469   3.204   5.288  0.0696 -0.1961 -0.4842
  102OSM    H6S10228   4.371   3.169   5.248 -0.8481 -0.6847  2.0897
  102OSM    H6T10229   4.542   3.133   5.244  1.0568 -0.8569  2.1031
  102OSM    C7S10230   4.512   3.348   5.241 -0.1944 -0.5622 -0.2019
  102OSM    H7S10231   4.617   3.360   5.274  0.8475 -1.3714 -3.0382
  102OSM    H7T10232   4.455   3.432   5.285 -0.2547  0.0507 -1.4406
  102OSM    C8S10233   4.503   3.353   5.090 -0.4899 -0.2349  0.1663
  102OSM    H8S10234   4.400   3.365   5.049  0.3718  1.1090 -1.6932
  102OSM    H8T10235   4.552   3.263   5.048  1.5483  0.7543  0.3769
  102OSM    C9S10236   4.586   3.477   5.039  0.2302 -0.9653 -0.7350
  102OSM    H9S10237   4.683   3.485   5.092 -0.6806 -0.2020  0.8583
  102OSM    H9T10238   4.529   3.560   5.086  3.0617  0.8366 -0.3621
  102OSM   C10S10239   4.607   3.483   4.885  0.5606 -0.1735 -1.2073
  102OSM   H10S10240   4.640   3.588   4.867 -0.2803  0.3683  0.3109
  102OSM   H10T10241   4.518   3.462   4.822 -0.9541  0.7248  0.5904
  102OSM   C11S10242   4.718   3.384   4.835  0.5418 -0.0454  0.1731
  102OSM   H11S10243   4.707   3.287   4.888 -1.2194  0.8334  1.4496
  102OSM   H11T10244   4.807   3.429   4.884  0.3761 -2.1029  2.4428
  102OSM   C12S10245   4.748   3.384   4.685  0.4965 -0.3045 -0.8562
  102OSM   H12S10246   4.672   3.320   4.635 -0.0456  1.0304 -1.7785
  102OSM   H12T10247   4.848   3.336   4.682 -0.0436 -1.7643  2.5002
  102OSM   C13S10248   4.761   3.525   4.624  0.4280  0.8081 -0.4972
  102OSM   H13S10249   4.810   3.588   4.700  0.7610 -0.9315  0.7690
  102OSM   H13T10250   4.659   3.570   4.618 -0.6939 -1.2515  2.2605
  102OSM   C14S10251   4.838   3.528   4.495 -0.2205  0.4599  0.1416
  102OSM   H14S10252   4.924   3.458   4.501 -0.0678  0.7065  0.9570
  102OSM   H14T10253   4.876   3.630   4.475 -1.5910  0.9665  0.1034
  102OSM   C15S10254   4.757   3.500   4.372 -0.0449  0.3642 -0.4636
  102OSM   H15S10255   4.705   3.592   4.336 -1.5014 -0.6498 -1.0281
  102OSM   H15T10256   4.670   3.433   4.389  2.7432 -3.2893  0.0330
  102OSM   C16S10257   4.839   3.459   4.249 -0.0351  0.0083  0.4849
  102OSM   H16S10258   4.882   3.357   4.262 -0.9489 -0.3921  0.3732
  102OSM   H16T10259   4.918   3.537   4.242  0.8539 -1.0027 -0.7772
  102OSM   C17S10260   4.748   3.456   4.117 -0.0701  0.7124 -0.0761
  102OSM   H17S10261   4.805   3.411   4.033  2.8255  0.0227  2.1700
  102OSM   H17T10262   4.740   3.561   4.080  3.2283  1.0579  0.0022
  102OSM   C18S10263   4.602   3.395   4.133  0.6907 -0.4081  0.6409
  102OSM   H18S10264   4.620   3.308   4.199 -0.1514  0.5414  2.1431
  102OSM   H18T10265   4.575   3.361   4.031  0.3321 -2.1735  1.3154
  102OSM   H18U10266   4.531   3.473   4.167 -1.4842 -2.7706  1.6343
  102OSM    C1F10267   4.469   2.832   5.709 -0.0440 -0.1163 -0.2685
  102OSM     OF10268   4.361   2.773   5.723  0.8433  0.0369  0.8797
  102OSM    C2F10269   4.603   2.775   5.715  0.6882 -0.0176  0.2295
  102OSM    H2F10270   4.613   2.736   5.819  0.6675 -1.3456 -0.2585
  102OSM    H2G10271   4.682   2.851   5.700  0.7173  0.1930  1.4376
  102OSM    C3F10272   4.635   2.666   5.608  0.3192  0.7243 -0.4571
  102OSM    H3F10273   4.557   2.588   5.620  0.7893  0.3647  0.3625
  102OSM    H3G10274   4.737   2.622   5.609 -0.7944 -2.0494 -2.5686
  102OSM    C4F10275   4.632   2.728   5.469 -0.4343 -0.7191  0.0791
  102OSM    H4F10276   4.732   2.743   5.423 -0.7683 -2.1130 -1.1475
  102OSM    H4G10277   4.584   2.827   5.484 -0.5988 -1.1313  2.4429
  102OSM    C5F10278   4.562   2.632   5.373 -0.0529 -0.2153  0.4832
  102OSM    H5F10279   4.458   2.608   5.403  0.0678 -0.9420  0.3382
  102OSM    H5G10280   4.619   2.537   5.360  0.6202  0.0142  1.7246
  102OSM    C6F10281   4.548   2.704   5.237  0.5613  0.3999 -0.0254
  102OSM    H6F10282   4.493   2.625   5.182  0.2725  0.7293 -0.2102
  102OSM    H6G10283   4.646   2.706   5.184 -0.5097 -2.2114 -2.2296
  102OSM    C7F10284   4.485   2.847   5.234  0.3066 -0.2914 -0.2307
  102OSM    H7F10285   4.467   2.865   5.125 -2.1673  0.5972  0.2887
  102OSM    H7G10286   4.571   2.904   5.275  0.3425 -0.7778  0.3776
  102OSM    C8F10287   4.354   2.864   5.311 -1.1612  0.4822 -0.0148
  102OSM    H8F10288   4.340   2.970   5.339 -0.6449  0.7078 -0.5871
  102OSM    H8G10289   4.365   2.818   5.412  2.6107 -0.5898 -0.8180
  102OSM    C9F10290   4.230   2.806   5.249 -0.3978  0.0200 -0.2271
  102OSM    H9F10291   4.238   2.706   5.204 -0.9165 -1.0971  2.0759
  102OSM   C10F10292   4.113   2.875   5.234 -0.8500  0.3520  0.5921
  102OSM   H10F10293   4.032   2.820   5.184 -1.5596  1.0282  0.9750
  102OSM   C11F10294   4.078   3.016   5.270  0.1282 -0.3642 -0.1446
  102OSM   H11F10295   4.146   3.054   5.349  2.6168 -1.0694 -1.8992
  102OSM   H11G10296   3.977   3.013   5.317 -0.3853 -1.3262 -1.2794
  102OSM   C12F10297   4.078   3.135   5.165  0.4920  0.8379 -0.3783
  102OSM   H12F10298   4.023   3.094   5.077  1.0520 -1.4155  0.2869
  102OSM   H12G10299   4.174   3.158   5.115  0.9764 -0.0010  0.1623
  102OSM   C13F10300   4.010   3.263   5.214 -0.4324  0.2331  1.0361
  102OSM   H13F10301   4.045   3.277   5.318  1.2461  1.1127  0.3832
  102OSM   H13G10302   3.903   3.241   5.232 -0.2117 -2.2491 -0.3574
  102OSM   C14F10303   4.031   3.390   5.124 -0.6843 -0.1538 -0.4473
  102OSM   H14F10304   4.132   3.425   5.151 -0.7848  1.1789 -1.7472
  102OSM   H14G10305   3.962   3.472   5.153  1.4634  1.3953  0.4076
  102OSM   C15F10306   4.002   3.364   4.978  0.3912 -0.6633  0.4135
  102OSM   H15F10307   3.909   3.304   4.969  0.7896 -1.3391  0.7699
  102OSM   H15G10308   4.078   3.300   4.929  0.5919  0.0379 -0.1982
  102OSM   C16F10309   3.987   3.507   4.907 -0.4094 -0.5206  0.4161
  102OSM   H16F10310   4.060   3.577   4.953 -1.7380  0.6683  0.7279
  102OSM   H16G10311   3.894   3.542   4.956 -1.2705 -2.3960  0.1573
  102OSM   C17F10312   3.999   3.507   4.759 -0.7610  0.3758  0.0458
  102OSM   H17F10313   4.089   3.455   4.719 -1.4847 -1.6030  0.8959
  102OSM   H17G10314   4.010   3.610   4.721 -0.3286 -0.0244 -0.9426
  102OSM   C18F10315   3.863   3.464   4.692 -0.4651 -0.1062  0.3873
  102OSM   H18F10316   3.839   3.361   4.726 -0.6301 -0.9423 -2.1447
  102OSM   H18G10317   3.878   3.460   4.582  3.5740 -0.9719  0.8804
  102OSM   H18H10318   3.769   3.514   4.724  0.4201  1.6720  0.3057
  103OSM      N10319   4.420   4.354   6.223  0.2464 -0.1527  0.1277
  103OSM    C1510320   4.559   4.407   6.243 -0.8715 -0.3928  0.4913
  103OSM   H15A10321   4.598   4.388   6.342  0.6376  0.0954  0.0013
  103OSM   H15B10322   4.554   4.514   6.225  0.9139 -0.4976 -0.7639
  103OSM   H15C10323   4.630   4.377   6.168  1.2614  0.9807  1.9044
  103OSM    C1410324   4.383   4.378   6.074  0.1709 -0.6392  0.3084
  103OSM   H14A10325   4.442   4.321   6.004  2.6772  0.3984  1.5232
  103OSM   H14B10326   4.391   4.481   6.045 -3.5854 -1.0059 -2.4462
  103OSM   H14C10327   4.277   4.357   6.065 -0.1971  0.6801  1.3458
  103OSM    C1310328   4.422   4.207   6.244  0.1072  0.4285 -0.2204
  103OSM   H13A10329   4.416   4.183   6.349 -0.1042 -0.5708 -0.4507
  103OSM   H13B10330   4.504   4.155   6.196  0.0653 -0.1795  0.3514
  103OSM   H13C10331   4.327   4.172   6.208  0.2801  0.4931 -0.7508
  103OSM    C1210332   4.325   4.424   6.317  0.1945 -0.0218 -0.1601
  103OSM   H12A10333   4.295   4.517   6.271 -0.0563  0.1635  0.3805
  103OSM   H12B10334   4.376   4.435   6.412 -2.2635  0.1369  1.1747
  103OSM    C1110335   4.188   4.349   6.339 -0.5489 -0.3233  0.6292
  103OSM   H11A10336   4.122   4.404   6.410  0.8039 -1.5695  2.8948
  103OSM   H11B10337   4.204   4.252   6.390  0.3761 -0.8556 -0.6528
  103OSM      P10338   3.995   4.402   6.177 -0.3509  0.3066  0.0392
  103OSM    O1310339   3.884   4.332   6.248 -0.0253 -0.4214 -0.5293
  103OSM    O1410340   3.999   4.548   6.192 -0.7137  0.2139  0.6509
  103OSM    O1110341   3.984   4.363   6.028 -0.8901 -0.1804  0.0055
  103OSM    O1210342   4.135   4.327   6.210  0.0758 -0.1295 -0.1946
  103OSM    C1S10343   4.039   4.435   5.915 -0.2021 -0.1772  0.1227
  103OSM    H1S10344   4.150   4.435   5.912 -0.1964  0.7952  0.1071
  103OSM    H1T10345   4.022   4.545   5.925 -0.0963 -0.2988  1.8138
  103OSM     NF10346   4.036   4.502   5.679  0.1316 -0.0575  0.0995
  103OSM    HNF10347   3.986   4.584   5.651  0.4105  0.4226  0.9791
  103OSM    C2S10348   3.980   4.411   5.774 -0.2853  0.0091  1.0993
  103OSM    H2S10349   4.011   4.306   5.754 -0.2845  0.2853 -0.3970
  103OSM    C3S10350   3.826   4.412   5.767  0.8027 -0.1446  0.2051
  103OSM    H3S10351   3.781   4.511   5.791 -0.2198 -0.6815  0.5510
  103OSM     O310352   3.772   4.320   5.866  0.3210  0.3160  0.4876
  103OSM    HO310353   3.839   4.322   5.934 -0.7652 -2.3878  1.6895
  103OSM    C4S10354   3.781   4.383   5.626 -0.0327 -0.7573  0.5752
  103OSM    H4S10355   3.806   4.287   5.579 -1.9573 -1.6723  1.3456
  103OSM    C5S10356   3.701   4.463   5.556  0.2709 -0.6413 -0.1611
  103OSM    H5S10357   3.656   4.549   5.609  2.3315  0.4645 -0.1585
  103OSM    C6S10358   3.667   4.428   5.417 -0.7889  0.0132 -0.0677
  103OSM    H6S10359   3.581   4.486   5.376  0.0373  1.5395  0.3117
  103OSM    H6T10360   3.639   4.321   5.410  1.8301 -0.8230  1.4701
  103OSM    C7S10361   3.785   4.445   5.318 -0.1270 -0.1832  0.1718
  103OSM    H7S10362   3.866   4.391   5.372  0.4490  0.5621  0.0555
  103OSM    H7T10363   3.821   4.549   5.305  2.2985 -1.1778 -1.3300
  103OSM    C8S10364   3.741   4.377   5.184  0.4943  0.0424  0.2948
  103OSM    H8S10365   3.664   4.450   5.150 -0.1042 -1.1069 -0.8364
  103OSM    H8T10366   3.699   4.278   5.209  2.2155 -0.4533  1.3292
  103OSM    C9S10367   3.854   4.356   5.086 -0.0159 -0.5898  0.7383
  103OSM    H9S10368   3.922   4.443   5.104 -2.0485  1.3295 -0.6636
  103OSM    H9T10369   3.815   4.363   4.982 -1.9003 -2.5307  1.3013
  103OSM   C10S10370   3.917   4.216   5.091 -0.7686 -0.0159 -0.0809
  103OSM   H10S10371   3.843   4.139   5.123 -0.7360  0.4149  1.0418
  103OSM   H10T10372   3.992   4.203   5.172 -0.3750  1.3740 -0.2115
  103OSM   C11S10373   3.980   4.173   4.959  0.1347  0.6919 -0.4431
  103OSM   H11S10374   3.907   4.167   4.875  0.5503  2.0269 -0.9188
  103OSM   H11T10375   4.022   4.073   4.982  0.7261  0.9803 -0.2719
  103OSM   C12S10376   4.095   4.262   4.927 -0.1461  0.2773 -0.2754
  103OSM   H12S10377   4.142   4.267   5.027 -2.1121 -0.8047  0.7286
  103OSM   H12T10378   4.053   4.360   4.894  2.5834  2.1056  1.5294
  103OSM   C13S10379   4.182   4.220   4.814  0.0872  0.1712  0.2345
  103OSM   H13S10380   4.229   4.121   4.836 -0.4616 -0.0801  0.2946
  103OSM   H13T10381   4.265   4.293   4.799 -0.4671  1.0258  1.2707
  103OSM   C14S10382   4.109   4.209   4.679 -0.2114 -0.0043  0.9982
  103OSM   H14S10383   4.085   4.313   4.647  3.0627  0.6245  0.4018
  103OSM   H14T10384   4.018   4.146   4.684 -0.2555  0.0256  0.6008
  103OSM   C15S10385   4.198   4.146   4.569 -0.0507  0.1904  0.2505
  103OSM   H15S10386   4.231   4.043   4.594  2.0801  0.7604 -0.0908
  103OSM   H15T10387   4.287   4.209   4.550  0.3286 -0.5169 -0.3777
  103OSM   C16S10388   4.118   4.144   4.440  0.0116 -0.2150 -0.0982
  103OSM   H16S10389   4.074   4.244   4.423 -0.3559  0.5949  5.0116
  103OSM   H16T10390   4.038   4.067   4.438 -1.1833  0.9678  1.2068
  103OSM   C17S10391   4.212   4.118   4.319  0.1358 -0.0083  0.1928
  103OSM   H17S10392   4.283   4.038   4.350  0.4184  0.2420  0.1966
  103OSM   H17T10393   4.266   4.214   4.308  0.4465 -0.3749 -1.6623
  103OSM   C18S10394   4.135   4.082   4.198  0.4890 -0.4361  0.8244
  103OSM   H18S10395   4.067   4.162   4.161  1.6788 -0.7814 -2.2493
  103OSM   H18T10396   4.073   3.992   4.211 -1.1387  0.5587  0.0827
  103OSM   H18U10397   4.211   4.068   4.118  1.0491  2.3850  0.7884
  103OSM    C1F10398   4.163   4.499   5.642 -0.0170  0.1986  0.6760
  103OSM     OF10399   4.243   4.413   5.679 -0.3311 -0.2160 -0.2526
  103OSM    C2F10400   4.199   4.608   5.549  0.2595 -0.1871  0.2044
  103OSM    H2F10401   4.303   4.639   5.573  0.0741  0.3423  0.3279
  103OSM    H2G10402   4.138   4.699   5.567 -0.2410 -0.2257 -1.2548
  103OSM    C3F10403   4.185   4.562   5.407  0.0604  0.0975  0.0143
  103OSM    H3F10404   4.088   4.509   5.395  0.0412  0.5100 -1.8255
  103OSM    H3G10405   4.255   4.481   5.377 -0.1106 -0.5052  1.2246
  103OSM    C4F10406   4.202   4.676   5.306 -0.0972 -0.9002  0.1633
  103OSM    H4F10407   4.304   4.721   5.310 -0.0274 -1.0926  0.4801
  103OSM    H4G10408   4.138   4.759   5.344  1.3339  0.4496 -0.3048
  103OSM    C5F10409   4.143   4.643   5.167  0.1144  0.3961  0.0808
  103OSM    H5F10410   4.032   4.632   5.169 -0.0729  2.1965  0.4800
  103OSM    H5G10411   4.187   4.551   5.124  2.6564  0.5836  2.1669
  103OSM    C6F10412   4.166   4.761   5.076  0.1731  0.2843 -0.1180
  103OSM    H6F10413   4.277   4.774   5.074  0.3427 -0.0012  3.5703
  103OSM    H6G10414   4.121   4.851   5.124 -0.9227 -2.0954  3.4707
  103OSM    C7F10415   4.116   4.749   4.934  0.4012 -0.6441 -0.0027
  103OSM    H7F10416   4.006   4.736   4.925  0.2931 -0.4791  1.0697
  103OSM    H7G10417   4.153   4.650   4.900 -3.3143 -2.0583 -0.1576
  103OSM    C8F10418   4.155   4.863   4.836  0.0191  0.3634  0.7206
  103OSM    H8F10419   4.261   4.885   4.859  0.4519  0.0535 -0.8903
  103OSM    H8G10420   4.098   4.957   4.857  0.0874  0.4878  0.3560
  103OSM    C9F10421   4.137   4.829   4.688 -0.0020 -0.1698 -0.6171
  103OSM    H9F10422   4.177   4.731   4.657 -1.1233 -0.7587 -0.2522
  103OSM   C10F10423   4.089   4.904   4.583 -0.3622 -0.4978  0.2915
  103OSM   H10F10424   4.094   4.867   4.479 -4.4425  0.3179 -0.3107
  103OSM   C11F10425   4.030   5.041   4.588  0.5310 -0.8695  0.9187
  103OSM   H11F10426   4.106   5.122   4.590 -0.9938  0.6089  0.6444
  103OSM   H11G10427   3.968   5.056   4.679  1.6877 -0.2209  1.6030
  103OSM   C12F10428   3.928   5.074   4.471  0.0395 -0.5409 -0.4146
  103OSM   H12F10429   3.981   5.044   4.378 -0.1039  1.2357 -1.0846
  103OSM   H12G10430   3.916   5.184   4.475 -1.5171 -0.7139  0.2924
  103OSM   C13F10431   3.788   5.013   4.496 -0.1796 -0.2468  0.7252
  103OSM   H13F10432   3.748   5.072   4.581 -0.0313  0.8656  0.0335
  103OSM   H13G10433   3.801   4.904   4.511  0.7416 -0.2634 -0.1587
  103OSM   C14F10434   3.688   5.040   4.382  0.2523 -0.1246 -0.9258
  103OSM   H14F10435   3.750   5.052   4.292  2.5302  0.1307  0.6457
  103OSM   H14G10436   3.650   5.144   4.382  1.3257  0.2628 -0.2820
  103OSM   C15F10437   3.594   4.926   4.347 -0.1499  0.3955 -0.2964
  103OSM   H15F10438   3.532   4.905   4.437 -1.7272  0.7571 -1.2848
  103OSM   H15G10439   3.649   4.832   4.327  0.7299  0.1385  2.9412
  103OSM   C16F10440   3.495   4.967   4.227 -0.1556  0.4370 -0.2251
  103OSM   H16F10441   3.436   5.057   4.254 -0.0487  0.6109 -0.5710
  103OSM   H16G10442   3.419   4.887   4.219 -0.6668  0.7924  0.9533
  103OSM   C17F10443   3.572   5.009   4.102  0.7353  0.4567  0.7101
  103OSM   H17F10444   3.638   4.924   4.076 -2.8927 -2.8444  1.9278
  103OSM   H17G10445   3.630   5.102   4.119 -0.1406  1.2158 -0.3484
  103OSM   C18F10446   3.481   5.053   3.982  0.1383 -0.1480 -0.1698
  103OSM   H18F10447   3.437   5.146   4.023 -0.1512 -1.1708  1.8782
  103OSM   H18G10448   3.390   4.992   3.965 -1.8501  2.4691  0.7927
  103OSM   H18H10449   3.539   5.064   3.888  0.1368  2.1329  0.0855
  104OSM      N10450   4.636   3.602   6.081 -0.1184 -0.2266 -0.4518
  104OSM    C1510451   4.498   3.599   6.025 -0.0223  0.5383 -0.2703
  104OSM   H15A10452   4.496   3.647   5.929  0.1930  0.8047 -0.1410
  104OSM   H15B10453   4.425   3.659   6.078  0.3166 -1.5053  2.6770
  104OSM   H15C10454   4.464   3.496   6.028  0.8247  0.2874  1.7249
  104OSM    C1410455   4.704   3.737   6.056  0.2732 -0.1277  0.6536
  104OSM   H14A10456   4.808   3.742   6.087  0.6577  2.0279 -0.8223
  104OSM   H14B10457   4.659   3.822   6.105  0.7670  1.2607 -1.2468
  104OSM   H14C10458   4.691   3.753   5.950 -0.6037 -2.4739  0.3964
  104OSM    C1310459   4.630   3.574   6.224 -0.0128  0.3991 -0.4311
  104OSM   H13A10460   4.708   3.623   6.280 -1.3946 -1.1896  3.0324
  104OSM   H13B10461   4.653   3.470   6.246  1.2523  0.7003 -0.2848
  104OSM   H13C10462   4.540   3.609   6.272 -0.2789  0.0908 -0.7034
  104OSM    C1210463   4.717   3.500   6.014  0.3123 -0.0930  0.1831
  104OSM   H12A10464   4.823   3.519   6.029  0.2134 -0.8530  1.9255
  104OSM   H12B10465   4.704   3.511   5.907 -1.2026  1.9234  0.5359
  104OSM    C1110466   4.689   3.353   6.049 -0.2758 -0.1284  0.0612
  104OSM   H11A10467   4.724   3.280   5.973  0.0797  0.8504 -0.7333
  104OSM   H11B10468   4.582   3.331   6.068 -1.1123  2.2246 -1.7192
  104OSM      P10469   4.909   3.289   6.193  0.4926 -0.0671  0.1571
  104OSM    O1310470   4.990   3.410   6.173 -0.7937 -0.5988  0.3015
  104OSM    O1410471   4.918   3.218   6.325 -0.2317 -0.0887 -0.4580
  104OSM    O1110472   4.937   3.170   6.077  0.0852  0.3052  0.3048
  104OSM    O1210473   4.755   3.319   6.175  0.4648  0.4853  0.8607
  104OSM    C1S10474   5.008   3.211   5.960 -0.1927  0.4613  0.0971
  104OSM    H1S10475   5.111   3.240   5.989  0.2084  1.2426 -2.0757
  104OSM    H1T10476   4.952   3.294   5.913 -2.1143 -0.1422  1.2340
  104OSM     NF10477   5.131   3.147   5.754  0.2072 -0.3563 -1.1053
  104OSM    HNF10478   5.110   3.189   5.666  1.1773  1.8448 -0.3420
  104OSM    C2S10479   5.017   3.110   5.836  0.1767  0.9212 -0.7879
  104OSM    H2S10480   5.037   3.004   5.862 -0.6491  0.7326 -0.8929
  104OSM    C3S10481   4.890   3.109   5.761 -0.4444 -0.1169  0.0556
  104OSM    H3S10482   4.850   3.212   5.748  2.6227  1.0240 -0.6722
  104OSM     O310483   4.780   3.046   5.831  0.0539 -0.4227  0.4811
  104OSM    HO310484   4.820   3.009   5.910 -1.0204 -0.8792  0.8199
  104OSM    C4S10485   4.901   3.033   5.630 -0.3068  0.3922  0.5157
  104OSM    H4S10486   4.890   2.924   5.643 -0.0100  0.4654  1.3710
  104OSM    C5S10487   4.922   3.091   5.511  0.2354  0.3995 -0.0852
  104OSM    H5S10488   4.936   3.200   5.500 -0.1235  0.3352 -1.2048
  104OSM    C6S10489   4.938   3.012   5.383 -0.3848  0.2337  0.0442
  104OSM    H6S10490   4.914   2.906   5.406  1.1630 -0.0356  0.4913
  104OSM    H6T10491   5.040   3.026   5.343 -0.1590  0.0369  0.5393
  104OSM    C7S10492   4.845   3.052   5.260  0.2363 -0.9317  0.3462
  104OSM    H7S10493   4.852   3.161   5.243  0.3416 -0.7374  1.5444
  104OSM    H7T10494   4.741   3.023   5.287 -0.4398  0.8776 -0.2781
  104OSM    C8S10495   4.878   2.987   5.127 -0.0917 -0.0048 -0.0172
  104OSM    H8S10496   4.857   2.878   5.135  0.5332 -0.0649  0.8653
  104OSM    H8T10497   4.985   3.008   5.106  0.2215 -0.1730  1.3593
  104OSM    C9S10498   4.802   3.056   5.009 -0.7795 -0.1476 -0.4802
  104OSM    H9S10499   4.793   3.164   5.033  1.7123  0.4923 -2.2154
  104OSM    H9T10500   4.702   3.009   5.009 -0.1640 -1.4862 -0.3945
  104OSM   C10S10501   4.870   3.048   4.872  0.0499 -0.2825 -0.5492
  104OSM   H10S10502   4.976   3.079   4.881  0.2830 -0.4889 -2.3048
  104OSM   H10T10503   4.820   3.129   4.814 -1.0885 -0.9161 -0.4552
  104OSM   C11S10504   4.876   2.910   4.817 -0.2768 -0.0844  0.2645
  104OSM   H11S10505   4.782   2.879   4.768 -0.0596  0.3097 -0.4147
  104OSM   H11T10506   4.891   2.840   4.902  1.4211 -0.7284 -0.5553
  104OSM   C12S10507   4.999   2.890   4.729 -0.1093 -0.6336  0.6666
  104OSM   H12S10508   5.096   2.875   4.782  0.3485  2.8497  0.9158
  104OSM   H12T10509   5.014   2.983   4.670  2.2462 -1.7403 -0.5795
  104OSM   C13S10510   4.984   2.778   4.626  0.0992  0.2311  0.3077
  104OSM   H13S10511   4.884   2.787   4.578 -0.3213  1.6656  1.4185
  104OSM   H13T10512   4.985   2.681   4.681  0.8048  0.1994  0.2361
  104OSM   C14S10513   5.098   2.778   4.525  0.1938 -0.0877 -1.2671
  104OSM   H14S10514   5.195   2.749   4.571 -1.3638 -2.9052  0.3521
  104OSM   H14T10515   5.112   2.871   4.465  2.2026 -0.9621 -2.1726
  104OSM   C15S10516   5.072   2.673   4.411  0.4947  0.4701 -0.2065
  104OSM   H15S10517   5.171   2.665   4.361  2.1676 -1.1229  3.1620
  104OSM   H15T10518   4.996   2.702   4.336 -0.5915  2.8803  1.7474
  104OSM   C16S10519   5.034   2.536   4.473 -0.5072 -0.3140 -0.0828
  104OSM   H16S10520   4.951   2.543   4.546 -0.8508  1.9039 -0.6680
  104OSM   H16T10521   5.125   2.503   4.528 -0.3181  1.6063  0.7705
  104OSM   C17S10522   4.997   2.419   4.382  0.6088  0.2677  0.1064
  104OSM   H17S10523   5.011   2.321   4.433 -0.8985 -1.0417 -1.9359
  104OSM   H17T10524   5.066   2.441   4.298  3.1936 -2.3923  1.4211
  104OSM   C18S10525   4.846   2.417   4.332 -0.0999 -0.1824  0.1080
  104OSM   H18S10526   4.774   2.406   4.416 -2.4163  2.3173 -1.5158
  104OSM   H18T10527   4.822   2.333   4.263  0.0993 -0.1890  0.0445
  104OSM   H18U10528   4.827   2.516   4.286  1.3091  0.7308  1.4377
  104OSM    C1F10529   5.253   3.137   5.806  0.1552  0.3174  0.4240
  104OSM     OF10530   5.289   3.062   5.896  0.7913  0.4934  0.1965
  104OSM    C2F10531   5.342   3.237   5.735 -0.4043 -1.2287  0.2850
  104OSM    H2F10532   5.395   3.309   5.800  0.1645 -1.1362 -0.2776
  104OSM    H2G10533   5.279   3.290   5.660  0.8120 -1.9326 -1.2526
  104OSM    C3F10534   5.440   3.156   5.647 -0.3181 -0.0668 -0.3775
  104OSM    H3F10535   5.386   3.097   5.570  0.8065 -0.8770 -0.5651
  104OSM    H3G10536   5.494   3.088   5.716 -0.1402 -0.5184 -0.9509
  104OSM    C4F10537   5.550   3.233   5.566 -0.1737  0.5347 -0.0061
  104OSM    H4F10538   5.615   3.157   5.518  1.1952  0.4098  1.9838
  104OSM    H4G10539   5.604   3.293   5.642  2.8739 -0.1178 -1.5640
  104OSM    C5F10540   5.490   3.323   5.458  0.4225 -0.1664 -0.6522
  104OSM    H5F10541   5.559   3.403   5.424 -2.5368  1.2741 -3.6874
  104OSM    H5G10542   5.401   3.369   5.507  1.9391  1.1388  0.9324
  104OSM    C6F10543   5.426   3.266   5.329 -0.2332 -0.0112  0.5509
  104OSM    H6F10544   5.327   3.216   5.328  0.3291 -1.1404 -0.5361
  104OSM    H6G10545   5.499   3.205   5.272  1.1910  1.2979  0.9367
  104OSM    C7F10546   5.390   3.390   5.242 -0.0179 -0.2828 -0.0849
  104OSM    H7F10547   5.379   3.346   5.141  0.8565 -2.1436  0.6037
  104OSM    H7G10548   5.474   3.463   5.242 -0.9706  0.8556  1.8910
  104OSM    C8F10549   5.268   3.471   5.302 -0.5972 -0.1030 -0.5458
  104OSM    H8F10550   5.276   3.567   5.248 -3.0636 -0.3225 -1.3394
  104OSM    H8G10551   5.276   3.490   5.412  2.5900 -0.3275 -0.7015
  104OSM    C9F10552   5.139   3.397   5.264 -0.3941 -0.0411  0.1457
  104OSM    H9F10553   5.095   3.337   5.346  0.3759  1.8512  2.0082
  104OSM   C10F10554   5.078   3.402   5.147 -0.2102 -0.3421 -0.1227
  104OSM   H10F10555   4.981   3.355   5.129 -0.0496 -0.6663 -0.1405
  104OSM   C11F10556   5.116   3.493   5.028 -0.3392  0.4626  0.6764
  104OSM   H11F10557   5.204   3.557   5.050  1.6814 -1.9216 -0.3051
  104OSM   H11G10558   5.039   3.558   4.981  0.6197 -0.3077 -2.0443
  104OSM   C12F10559   5.150   3.410   4.894  0.2580  0.6887 -0.3695
  104OSM   H12F10560   5.202   3.477   4.822 -0.1199  1.5457  0.1496
  104OSM   H12G10561   5.062   3.378   4.836 -1.0482  1.3861  1.1873
  104OSM   C13F10562   5.243   3.299   4.912  0.0769  0.1831  0.3900
  104OSM   H13F10563   5.204   3.232   4.991 -1.9727  1.2467  0.2994
  104OSM   H13G10564   5.336   3.343   4.954 -0.8819 -0.0025  2.7550
  104OSM   C14F10565   5.280   3.222   4.779 -0.4816 -0.0335  0.7381
  104OSM   H14F10566   5.345   3.278   4.709  1.5268 -2.1014  0.8902
  104OSM   H14G10567   5.185   3.182   4.738 -0.7145  0.2255  1.0245
  104OSM   C15F10568   5.355   3.091   4.802 -0.0093  0.2438 -0.4283
  104OSM   H15F10569   5.300   3.022   4.869  0.0720  0.0136 -0.5991
  104OSM   H15G10570   5.447   3.119   4.858  0.6335 -0.0422 -1.3233
  104OSM   C16F10571   5.385   3.018   4.668 -1.1550 -0.2771  0.0112
  104OSM   H16F10572   5.467   3.077   4.622 -0.3081  0.2057  2.0786
  104OSM   H16G10573   5.288   3.019   4.614 -2.1460  0.7571  1.7635
  104OSM   C17F10574   5.432   2.870   4.684 -0.2974 -0.3775  0.6469
  104OSM   H17F10575   5.423   2.816   4.586  2.2957 -2.9136  1.7371
  104OSM   H17G10576   5.360   2.814   4.747  0.4981 -0.8958  1.1064
  104OSM   C18F10577   5.567   2.834   4.747  0.6879  0.4274 -0.2092
  104OSM   H18F10578   5.642   2.868   4.672 -0.3845  2.3999 -0.4222
  104OSM   H18G10579   5.576   2.726   4.770 -0.2780  0.3218 -0.3137
  104OSM   H18H10580   5.585   2.897   4.837 -0.7940  0.4128  0.1011
  105OSM      N10581   5.085   4.397   6.418 -0.1797  0.2865  0.3733
  105OSM    C1510582   5.044   4.392   6.561 -0.4311 -0.1514  0.1073
  105OSM   H15A10583   5.009   4.493   6.576  0.0772  0.4848 -2.7964
  105OSM   H15B10584   5.112   4.362   6.639 -0.2135  0.4204  0.1403
  105OSM   H15C10585   4.959   4.327   6.576 -2.1584  1.7177 -1.3134
  105OSM    C1410586   5.189   4.492   6.397 -0.1947 -0.1422  0.4318
  105OSM   H14A10587   5.144   4.589   6.406 -3.4385 -1.4322 -0.9395
  105OSM   H14B10588   5.233   4.483   6.299  0.1008 -2.1845  0.7267
  105OSM   H14C10589   5.261   4.474   6.476  0.1341 -0.3442  0.0857
  105OSM    C1310590   5.159   4.268   6.397  0.8098 -0.1848  0.6380
  105OSM   H13A10591   5.238   4.252   6.468  1.2384 -0.4976  0.0988
  105OSM   H13B10592   5.199   4.270   6.296  0.5231 -0.3392  0.5199
  105OSM   H13C10593   5.094   4.182   6.396 -0.1155  0.5016  1.2702
  105OSM    C1210594   4.953   4.405   6.328 -0.0600 -0.7755  0.0103
  105OSM   H12A10595   4.904   4.499   6.350 -0.0262  0.1326 -3.4757
  105OSM   H12B10596   4.881   4.331   6.358 -1.1207  0.4685  0.5426
  105OSM    C1110597   4.981   4.390   6.182  0.4026 -0.9661  1.0920
  105OSM   H11A10598   5.072   4.442   6.144 -1.1761  0.2712 -1.1372
  105OSM   H11B10599   4.897   4.454   6.147  1.5091  1.9710  3.6071
  105OSM      P10600   4.863   4.174   6.101  0.4318 -0.1527  0.0474
  105OSM    O1310601   4.906   4.038   6.055  0.5641 -0.1407 -0.0953
  105OSM    O1410602   4.762   4.179   6.214 -0.4864  0.3606 -0.0114
  105OSM    O1110603   4.809   4.266   5.979  0.9277  0.1698  0.2846
  105OSM    O1210604   4.993   4.251   6.147 -0.3405  0.0117 -0.5317
  105OSM    C1S10605   4.893   4.286   5.868 -0.9250  0.6760 -0.4217
  105OSM    H1S10606   4.950   4.192   5.849  1.0939  1.3370  2.0733
  105OSM    H1T10607   4.956   4.375   5.886 -0.1642 -0.3089  2.0997
  105OSM     NF10608   4.891   4.306   5.623 -0.0153 -0.1163 -0.2669
  105OSM    HNF10609   4.904   4.395   5.580  2.6997 -1.1343 -1.6652
  105OSM    C2S10610   4.808   4.312   5.737 -0.6761  0.2774 -0.2295
  105OSM    H2S10611   4.731   4.233   5.726  1.4052 -1.9765  1.0684
  105OSM    C3S10612   4.728   4.444   5.754  0.1494 -0.4456 -0.1141
  105OSM    H3S10613   4.794   4.533   5.759 -2.3565  1.5733 -1.5015
  105OSM     O310614   4.662   4.452   5.882 -0.8844 -0.7099  0.0073
  105OSM    HO310615   4.703   4.385   5.938 -0.7420 -0.3382  0.3467
  105OSM    C4S10616   4.623   4.463   5.644 -0.4675 -0.4347 -0.0005
  105OSM    H4S10617   4.527   4.410   5.657 -0.1748 -0.6815  1.2338
  105OSM    C5S10618   4.642   4.531   5.527 -0.3962  0.5059 -0.1994
  105OSM    H5S10619   4.746   4.564   5.516 -0.0715 -0.0463  1.1075
  105OSM    C6S10620   4.554   4.538   5.407  0.7642 -0.8760  0.6939
  105OSM    H6S10621   4.523   4.642   5.387  3.5517  0.0443  0.9597
  105OSM    H6T10622   4.454   4.491   5.422 -0.8321  2.1495 -0.1674
  105OSM    C7S10623   4.610   4.477   5.277  0.2958  0.0113  0.2427
  105OSM    H7S10624   4.603   4.366   5.287  1.2270  0.0064  0.9166
  105OSM    H7T10625   4.718   4.504   5.280  0.0482  0.8525  2.6615
  105OSM    C8S10626   4.531   4.517   5.153  0.4535  0.8033 -0.4572
  105OSM    H8S10627   4.524   4.626   5.137 -0.4579  0.7724 -0.3028
  105OSM    H8T10628   4.428   4.484   5.179  0.3803  0.2909 -1.3766
  105OSM    C9S10629   4.570   4.450   5.024  0.7382 -0.4199 -0.1353
  105OSM    H9S10630   4.572   4.340   5.043 -1.0175 -0.9412 -2.6666
  105OSM    H9T10631   4.679   4.463   5.006  0.5456 -0.0316 -1.0639
  105OSM   C10S10632   4.490   4.497   4.906  0.1845  0.5842 -0.1388
  105OSM   H10S10633   4.485   4.608   4.914  0.8008  0.6499 -0.5718
  105OSM   H10T10634   4.387   4.456   4.911  0.1165  0.8435  0.5545
  105OSM   C11S10635   4.558   4.484   4.766 -0.0045 -0.6465  0.6286
  105OSM   H11S10636   4.594   4.380   4.757 -3.5874 -2.0092  1.0575
  105OSM   H11T10637   4.649   4.546   4.748  1.6873 -3.7062 -1.7731
  105OSM   C12S10638   4.462   4.519   4.652  0.0195  0.3612  0.5497
  105OSM   H12S10639   4.444   4.628   4.654 -0.2242  0.3722 -1.0845
  105OSM   H12T10640   4.363   4.478   4.679  0.9086 -1.3524  1.3251
  105OSM   C13S10641   4.516   4.475   4.518  0.4021 -0.0083  1.1846
  105OSM   H13S10642   4.564   4.375   4.518 -2.3985 -1.3847  0.1118
  105OSM   H13T10643   4.598   4.542   4.483 -1.1273  1.7765  0.9445
  105OSM   C14S10644   4.410   4.489   4.414  0.8071  0.3424  0.7401
  105OSM   H14S10645   4.351   4.582   4.429 -4.6059 -2.7851 -0.0548
  105OSM   H14T10646   4.329   4.419   4.443  1.1245 -0.6706 -0.7241
  105OSM   C15S10647   4.467   4.485   4.265 -0.0273 -0.4271 -0.5823
  105OSM   H15S10648   4.524   4.573   4.229  1.1057 -1.3545 -1.0908
  105OSM   H15T10649   4.376   4.493   4.202 -1.3768 -0.2961  1.3369
  105OSM   C16S10650   4.535   4.354   4.230  0.1341 -0.1046  0.7043
  105OSM   H16S10651   4.477   4.267   4.266 -3.7941  1.7850 -0.7577
  105OSM   H16T10652   4.631   4.348   4.286  0.7286 -0.0392 -0.2921
  105OSM   C17S10653   4.565   4.330   4.073  0.2608 -0.8533  0.2209
  105OSM   H17S10654   4.480   4.369   4.014  2.0600  1.5337 -0.8798
  105OSM   H17T10655   4.561   4.219   4.063 -0.4245 -0.7636 -0.5115
  105OSM   C18S10656   4.691   4.392   4.032 -0.1473  0.9314 -0.4497
  105OSM   H18S10657   4.701   4.498   4.063  2.5419  0.2082  1.2805
  105OSM   H18T10658   4.716   4.375   3.925 -1.5053  1.2042 -0.8235
  105OSM   H18U10659   4.768   4.333   4.086 -0.0773  0.6654 -0.8390
  105OSM    C1F10660   4.934   4.196   5.572 -0.5971 -0.8810  0.3357
  105OSM     OF10661   4.912   4.086   5.622 -0.7233  0.0573 -0.6098
  105OSM    C2F10662   5.015   4.211   5.444 -0.0488  0.2105  0.4266
  105OSM    H2F10663   5.097   4.286   5.452 -0.0740  0.2488  0.3062
  105OSM    H2G10664   4.946   4.238   5.362  1.9796 -0.4611 -1.5496
  105OSM    C3F10665   5.084   4.079   5.410 -0.2482 -0.3501  0.9676
  105OSM    H3F10666   5.004   4.005   5.392 -0.4203 -0.2725  1.3916
  105OSM    H3G10667   5.147   4.043   5.494  0.3698  0.7508  0.9896
  105OSM    C4F10668   5.145   4.075   5.270  0.0755  0.4233 -0.0647
  105OSM    H4F10669   5.231   4.145   5.262 -0.7310  1.2279 -1.9300
  105OSM    H4G10670   5.069   4.106   5.196  0.4533  1.1122 -0.1658
  105OSM    C5F10671   5.196   3.936   5.245 -0.7299  0.5026  1.3931
  105OSM    H5F10672   5.129   3.849   5.258 -0.1099 -0.0656  0.7875
  105OSM    H5G10673   5.270   3.918   5.327  0.7686  1.7031  0.3476
  105OSM    C6F10674   5.261   3.914   5.107  0.1663  0.0814 -0.2385
  105OSM    H6F10675   5.293   3.808   5.092  2.3621  1.0909 -3.0776
  105OSM    H6G10676   5.349   3.980   5.100  1.2414 -0.9224  2.9443
  105OSM    C7F10677   5.168   3.949   4.986 -0.2455  0.2921 -0.6855
  105OSM    H7F10678   5.168   4.060   4.972 -0.3910  0.4544  0.5670
  105OSM    H7G10679   5.066   3.919   5.016  0.9694 -0.7914  2.5390
  105OSM    C8F10680   5.228   3.906   4.853  0.7327  0.1495 -0.0467
  105OSM    H8F10681   5.330   3.867   4.869  0.1116 -1.3912  0.2037
  105OSM    H8G10682   5.240   4.000   4.795  2.1344  0.2275  0.3488
  105OSM    C9F10683   5.145   3.804   4.771  0.1367  0.2640  0.8820
  105OSM    H9F10684   5.102   3.717   4.824 -0.2242 -0.2524 -0.2551
  105OSM   C10F10685   5.132   3.817   4.638 -0.2488 -0.0899 -0.3924
  105OSM   H10F10686   5.054   3.759   4.586 -2.6858  2.3921  0.3237
  105OSM   C11F10687   5.187   3.926   4.551  0.2814  0.8775 -0.5148
  105OSM   H11F10688   5.218   4.010   4.617 -0.3644  1.0926 -0.4806
  105OSM   H11G10689   5.103   3.970   4.493  0.1137  1.3566  0.0847
  105OSM   C12F10690   5.292   3.873   4.460 -0.0945 -0.6045  1.3126
  105OSM   H12F10691   5.382   3.828   4.507  1.3912  0.3518 -0.5676
  105OSM   H12G10692   5.332   3.959   4.403  0.1727 -1.0568  0.8186
  105OSM   C13F10693   5.247   3.771   4.349 -1.5719 -0.7744  0.1084
  105OSM   H13F10694   5.162   3.809   4.288 -1.7134 -1.4563 -0.1300
  105OSM   H13G10695   5.209   3.676   4.393 -1.6545 -0.5567  0.5068
  105OSM   C14F10696   5.371   3.747   4.255  0.5004 -0.0632  0.4125
  105OSM   H14F10697   5.464   3.721   4.311  1.5658  1.1577 -0.7550
  105OSM   H14G10698   5.402   3.841   4.205 -1.0611  1.2880  1.9522
  105OSM   C15F10699   5.334   3.646   4.143 -0.5876 -0.1089 -0.4514
  105OSM   H15F10700   5.299   3.557   4.201 -1.8033  0.1966 -0.6997
  105OSM   H15G10701   5.432   3.621   4.097  0.8702  1.8316  1.5144
  105OSM   C16F10702   5.237   3.695   4.036 -0.5132  0.0146  0.2714
  105OSM   H16F10703   5.292   3.773   3.979  2.7702 -3.2045 -1.1696
  105OSM   H16G10704   5.139   3.732   4.072 -0.3834 -0.3014  0.9496
  105OSM   C17F10705   5.212   3.589   3.928  0.4164 -0.4763  0.2645
  105OSM   H17F10706   5.307   3.566   3.876  0.2510  2.1778 -1.2744
  105OSM   H17G10707   5.157   3.639   3.846 -1.1237  0.6784  1.9643
  105OSM   C18F10708   5.142   3.462   3.985 -0.2094 -0.4082  0.6339
  105OSM   H18F10709   5.191   3.432   4.080 -4.2463 -0.5466  2.7787
  105OSM   H18G10710   5.137   3.383   3.907 -1.4986  2.3288 -2.1611
  105OSM   H18H10711   5.040   3.491   4.017  0.4228  1.5148  0.9899
  106OSM      N10712   3.644   0.951   6.231 -0.2518 -0.3250  0.0605
  106OSM    C1510713   3.564   0.874   6.126  0.3753 -0.2786 -0.1806
  106OSM   H15A10714   3.544   0.933   6.038  0.7034  1.0169  0.6027
  106OSM   H15B10715   3.473   0.835   6.170 -0.5176 -0.8797 -2.5003
  106OSM   H15C10716   3.615   0.784   6.095  3.7068  1.5373 -0.1521
  106OSM    C1410717   3.566   1.067   6.277 -0.6503  0.0076 -0.8170
  106OSM   H14A10718   3.483   1.041   6.341 -0.7966 -2.2040 -1.8543
  106OSM   H14B10719   3.532   1.126   6.194 -1.6223 -0.5416 -0.8215
  106OSM   H14C10720   3.617   1.134   6.345  1.7894 -0.4419 -2.1329
  106OSM    C1310721   3.650   0.855   6.346  0.6760  0.1940 -0.0423
  106OSM   H13A10722   3.696   0.885   6.439  0.8660  0.0400 -0.0879
  106OSM   H13B10723   3.690   0.761   6.311 -0.7561 -0.6239  0.5145
  106OSM   H13C10724   3.549   0.832   6.375  0.9533  2.0540  2.6045
  106OSM    C1210725   3.780   0.978   6.170 -0.3284  1.0768  0.0194
  106OSM   H12A10726   3.842   1.039   6.234  0.0040 -0.2586  1.0107
  106OSM   H12B10727   3.776   1.051   6.091  0.0552  2.6173  1.3989
  106OSM    C1110728   3.866   0.858   6.123  0.1879  0.1144 -0.2413
  106OSM   H11A10729   3.825   0.792   6.043 -1.9088 -2.3030  2.7464
  106OSM   H11B10730   3.868   0.781   6.203 -0.9253 -0.6722 -0.9513
  106OSM      P10731   4.046   0.927   5.944  0.4098  0.2985 -0.5071
  106OSM    O1310732   4.066   1.071   5.936  0.4077  0.3774 -0.3307
  106OSM    O1410733   4.155   0.832   5.911 -0.3902 -0.1673  0.1865
  106OSM    O1110734   3.920   0.891   5.857 -0.1603  0.2427  0.1794
  106OSM    O1210735   4.003   0.896   6.090  0.5904 -0.8052  0.1323
  106OSM    C1S10736   3.922   0.935   5.714  0.1065  0.5506  0.0130
  106OSM    H1S10737   4.011   0.889   5.666  1.9053  3.1061  0.7432
  106OSM    H1T10738   3.936   1.045   5.704 -1.2650  0.9302  1.9710
  106OSM     NF10739   3.816   0.892   5.505  0.1994 -0.0837  0.3136
  106OSM    HNF10740   3.795   0.974   5.452 -1.0107 -0.6754 -0.1392
  106OSM    C2S10741   3.791   0.895   5.645  0.6073  0.1029 -0.1023
  106OSM    H2S10742   3.758   0.798   5.688 -3.1392  0.5160 -1.8472
  106OSM    C3S10743   3.679   0.995   5.691  0.7498 -0.9196 -0.0662
  106OSM    H3S10744   3.710   1.099   5.665  1.2634 -0.3737  2.5815
  106OSM     O310745   3.658   0.993   5.831 -1.2661 -0.1387 -0.0868
  106OSM    HO310746   3.749   0.977   5.860 -0.3076  2.3831 -1.5450
  106OSM    C4S10747   3.554   0.966   5.614 -0.0948  0.2474  0.1039
  106OSM    H4S10748   3.497   0.875   5.636 -3.6088  2.5324  0.7287
  106OSM    C5S10749   3.505   1.041   5.512  0.4573 -0.3955 -0.2328
  106OSM    H5S10750   3.561   1.130   5.481  1.4495 -0.8510  0.2409
  106OSM    C6S10751   3.378   1.010   5.434 -0.6793  0.4848  0.2170
  106OSM    H6S10752   3.321   1.103   5.414 -1.6114 -0.0711  0.2175
  106OSM    H6T10753   3.325   0.931   5.492  1.6773 -0.2983  1.3880
  106OSM    C7S10754   3.416   0.953   5.293 -0.0229 -0.0852 -0.4066
  106OSM    H7S10755   3.490   0.872   5.309  0.0964  0.0049 -0.5001
  106OSM    H7T10756   3.464   1.031   5.231  0.1659 -0.9829 -1.4085
  106OSM    C8S10757   3.299   0.904   5.210  0.1950  0.3706  0.2960
  106OSM    H8S10758   3.221   0.982   5.197  0.0772  0.1553 -0.3291
  106OSM    H8T10759   3.236   0.832   5.267 -1.0184  1.1033 -0.0867
  106OSM    C9S10760   3.353   0.850   5.077  0.0866  0.1958  0.5065
  106OSM    H9S10761   3.403   0.753   5.095  0.2407  0.5119  1.8237
  106OSM    H9T10762   3.428   0.919   5.032  0.3579 -0.2363  0.2961
  106OSM   C10S10763   3.241   0.827   4.977 -0.3971 -0.2330 -0.0723
  106OSM   H10S10764   3.203   0.930   4.963 -1.7247 -0.6152  0.5837
  106OSM   H10T10765   3.159   0.762   5.015 -0.5434 -1.0193 -1.6575
  106OSM   C11S10766   3.289   0.778   4.847 -0.5097 -0.3287 -0.7368
  106OSM   H11S10767   3.345   0.685   4.873 -0.8944 -0.9092 -1.9117
  106OSM   H11T10768   3.361   0.844   4.794 -1.0980  0.7973 -0.1527
  106OSM   C12S10769   3.173   0.751   4.747 -0.1178  0.0005  0.9002
  106OSM   H12S10770   3.103   0.674   4.785 -1.9105  0.4947 -1.2955
  106OSM   H12T10771   3.218   0.701   4.659 -0.7369 -0.8081  1.0348
  106OSM   C13S10772   3.080   0.867   4.710 -0.0491 -0.4441  0.0664
  106OSM   H13S10773   3.147   0.952   4.685  1.0167 -1.6368 -1.1899
  106OSM   H13T10774   3.007   0.888   4.792 -1.2394 -1.2488 -0.7704
  106OSM   C14S10775   2.998   0.840   4.579 -0.8094  0.0000 -0.3866
  106OSM   H14S10776   2.924   0.759   4.593  0.2669 -0.6046  2.1305
  106OSM   H14T10777   3.078   0.813   4.506  0.6049  1.6558  0.5030
  106OSM   C15S10778   2.933   0.964   4.518  0.5252  0.4601 -0.5988
  106OSM   H15S10779   2.993   1.053   4.548  0.5348 -0.0094  0.7976
  106OSM   H15T10780   2.836   0.984   4.567  1.1934 -0.0248  0.9470
  106OSM   C16S10781   2.890   0.947   4.370  0.5232  0.0304 -0.1244
  106OSM   H16S10782   2.827   1.027   4.326  1.0720  0.9874  0.7949
  106OSM   H16T10783   2.829   0.854   4.369  0.7208 -0.0986 -0.2245
  106OSM   C17S10784   3.010   0.942   4.274 -0.0406 -0.0471 -0.1025
  106OSM   H17S10785   3.067   0.850   4.299  0.0443 -0.2541 -1.0117
  106OSM   H17T10786   3.078   1.025   4.300 -2.0895  1.1419  1.6866
  106OSM   C18S10787   2.989   0.955   4.118 -0.7212 -0.0650 -0.5361
  106OSM   H18S10788   2.939   1.052   4.097 -0.2230 -0.0485 -1.7353
  106OSM   H18T10789   2.919   0.877   4.080 -1.3066 -1.0380  2.4517
  106OSM   H18U10790   3.087   0.956   4.066  0.8857  0.0384  2.4073
  106OSM    C1F10791   3.874   0.788   5.444 -0.1219  0.4695  0.1887
  106OSM     OF10792   3.914   0.696   5.512  0.2931  0.6986 -0.1953
  106OSM    C2F10793   3.892   0.781   5.295 -0.2299 -0.0828  0.6793
  106OSM    H2F10794   4.000   0.784   5.272 -0.0764  0.1637  1.4200
  106OSM    H2G10795   3.856   0.871   5.241  2.5947  0.8540  0.2765
  106OSM    C3F10796   3.818   0.656   5.227 -0.0308  0.7595  0.4187
  106OSM    H3F10797   3.710   0.654   5.254  0.5924 -0.1283  3.0326
  106OSM    H3G10798   3.856   0.561   5.271 -1.3412  0.6404  1.3178
  106OSM    C4F10799   3.817   0.668   5.072 -0.4065  0.0057  0.4129
  106OSM    H4F10800   3.871   0.579   5.032 -1.2583 -1.3479  2.2320
  106OSM    H4G10801   3.878   0.755   5.039  0.9371 -0.2995  1.9828
  106OSM    C5F10802   3.675   0.673   5.015  0.2575  0.8203  0.2964
  106OSM    H5F10803   3.614   0.760   5.050 -2.1720  0.5750 -3.1364
  106OSM    H5G10804   3.628   0.587   5.067 -0.2029  1.1894  0.4977
  106OSM    C6F10805   3.667   0.655   4.861  0.7983 -0.2806  0.2865
  106OSM    H6F10806   3.572   0.697   4.822  0.8310  0.3656  0.8744
  106OSM    H6G10807   3.676   0.550   4.828  2.2944  0.0081 -0.2879
  106OSM    C7F10808   3.770   0.745   4.791 -0.5351 -0.9552 -1.1837
  106OSM    H7F10809   3.870   0.700   4.805 -0.0742  0.5103  0.5180
  106OSM    H7G10810   3.765   0.850   4.829 -0.0504 -0.7176 -1.7637
  106OSM    C8F10811   3.764   0.748   4.636  0.1064 -0.2147 -0.3109
  106OSM    H8F10812   3.785   0.642   4.608  0.8016 -0.3634  0.7259
  106OSM    H8G10813   3.854   0.795   4.590 -0.9549  2.3074  0.1009
  106OSM    C9F10814   3.627   0.793   4.577 -0.7739 -0.4242 -0.4003
  106OSM    H9F10815   3.544   0.785   4.649  0.8808 -0.0509  1.5677
  106OSM   C10F10816   3.612   0.880   4.469  0.4243 -0.1023  0.3199
  106OSM   H10F10817   3.515   0.890   4.419  1.3448  0.3662 -1.4086
  106OSM   C11F10818   3.719   0.924   4.376 -0.0496  0.7903 -0.0329
  106OSM   H11F10819   3.679   0.954   4.277 -3.0206 -1.8252  0.3227
  106OSM   H11G10820   3.789   0.838   4.366  0.4575  1.3162 -1.1498
  106OSM   C12F10821   3.807   1.047   4.429  0.5204 -0.0846 -0.2465
  106OSM   H12F10822   3.880   1.065   4.346  2.8507 -0.9311  1.5577
  106OSM   H12G10823   3.863   1.015   4.520  0.8710  0.9503 -0.0871
  106OSM   C13F10824   3.725   1.176   4.434  0.4151  0.4901 -0.7194
  106OSM   H13F10825   3.683   1.182   4.537 -1.3509 -1.8189 -1.2588
  106OSM   H13G10826   3.648   1.178   4.353  1.1877  2.4273 -1.4274
  106OSM   C14F10827   3.814   1.295   4.399 -0.4513 -0.0956  0.1072
  106OSM   H14F10828   3.840   1.292   4.291 -3.3279  1.7129 -0.7158
  106OSM   H14G10829   3.906   1.299   4.461 -0.3420 -0.2420 -0.0460
  106OSM   C15F10830   3.744   1.433   4.414  0.3926  0.8254 -0.9287
  106OSM   H15F10831   3.659   1.449   4.344  0.8627  2.7249 -1.0740
  106OSM   H15G10832   3.819   1.512   4.393  1.9712  0.1942  2.0289
  106OSM   C16F10833   3.693   1.458   4.562 -0.1759  0.2850  0.4729
  106OSM   H16F10834   3.734   1.376   4.626 -0.3709  0.0589  0.3094
  106OSM   H16G10835   3.583   1.443   4.552 -0.1182  0.9049 -1.2507
  106OSM   C17F10836   3.713   1.603   4.614 -0.1319 -0.9124 -0.1157
  106OSM   H17F10837   3.662   1.676   4.547  1.7033  0.8264  0.3218
  106OSM   H17G10838   3.821   1.629   4.618 -0.0181 -1.3654 -0.2176
  106OSM   C18F10839   3.654   1.621   4.755  0.2364 -0.0277 -0.1353
  106OSM   H18F10840   3.704   1.561   4.833 -2.6315 -0.9806  1.0499
  106OSM   H18G10841   3.547   1.592   4.762  0.3246 -0.2566  0.2242
  106OSM   H18H10842   3.643   1.728   4.781 -1.1752  0.1266 -1.2542
  107OSM      N10843   4.197   5.944   6.376 -0.4317 -0.3013 -0.6050
  107OSM    C1510844   4.289   6.033   6.440 -0.2913 -0.2147 -0.0044
  107OSM   H15A10845   4.247   6.130   6.457 -0.6876 -0.6286  1.4670
  107OSM   H15B10846   4.375   6.051   6.377  0.3322  0.0856  0.9105
  107OSM   H15C10847   4.314   5.998   6.540  2.1645 -0.1203 -0.5597
  107OSM    C1410848   4.168   5.988   6.240 -0.2345 -0.5826 -0.3866
  107OSM   H14A10849   4.259   6.024   6.195  0.2659 -1.1585  0.1763
  107OSM   H14B10850   4.095   6.068   6.233  0.9076  0.4579 -0.5608
  107OSM   H14C10851   4.133   5.901   6.186  3.7492 -0.6427 -3.0488
  107OSM    C1310852   4.255   5.801   6.373  0.6553 -0.3142  0.2814
  107OSM   H13A10853   4.340   5.795   6.306 -0.7543 -2.2112 -1.4037
  107OSM   H13B10854   4.188   5.723   6.340  0.1412  0.5476 -0.7421
  107OSM   H13C10855   4.296   5.773   6.469 -1.2171  3.3515  2.2540
  107OSM    C1210856   4.064   5.940   6.447 -0.6555 -0.0945  0.9090
  107OSM   H12A10857   4.086   5.911   6.549  0.1629  0.1269  0.8004
  107OSM   H12B10858   4.000   5.867   6.400 -2.8237  1.1408  1.8713
  107OSM    C1110859   3.966   6.066   6.452  0.0242 -0.0283  0.1109
  107OSM   H11A10860   4.022   6.142   6.510 -0.7027 -0.1174  0.9490
  107OSM   H11B10861   3.871   6.040   6.505 -0.0050  0.2391  0.1921
  107OSM      P10862   3.802   6.043   6.258 -0.3815  0.2064  0.5211
  107OSM    O1310863   3.764   5.904   6.306 -0.1094  0.5397 -0.3151
  107OSM    O1410864   3.694   6.148   6.283  0.1885  0.7099 -0.4763
  107OSM    O1110865   3.841   6.031   6.105  0.3927  0.0437 -0.2569
  107OSM    O1210866   3.930   6.110   6.324  0.6556  0.0521  0.3182
  107OSM    C1S10867   3.892   6.146   6.035 -0.6207  0.4320 -0.7398
  107OSM    H1S10868   3.989   6.183   6.076 -1.4166  0.0050  1.6260
  107OSM    H1T10869   3.830   6.236   6.056  1.1208  0.9941  2.3190
  107OSM     NF10870   3.967   6.211   5.812  0.4654  0.1986 -0.0790
  107OSM    HNF10871   3.908   6.266   5.754 -0.1808 -1.0166 -0.5824
  107OSM    C2S10872   3.899   6.108   5.883 -0.4707 -0.3514  0.1838
  107OSM    H2S10873   3.960   6.016   5.864 -1.2001 -0.5933 -1.0705
  107OSM    C3S10874   3.762   6.071   5.818 -0.3223  0.4208 -0.4774
  107OSM    H3S10875   3.708   6.164   5.792  0.0489  0.7753  0.0313
  107OSM     O310876   3.666   6.005   5.902  0.0520 -0.2096  0.3535
  107OSM    HO310877   3.725   5.980   5.974  0.7707 -1.7733 -0.7403
  107OSM    C4S10878   3.792   5.988   5.693  0.5493 -0.2830  0.3306
  107OSM    H4S10879   3.831   5.887   5.713  1.2575  0.1649  1.2471
  107OSM    C5S10880   3.774   6.033   5.570  0.4482  0.2382 -0.0370
  107OSM    H5S10881   3.729   6.133   5.556 -0.3682  0.0634  1.3205
  107OSM    C6S10882   3.802   5.947   5.449  0.4993 -0.4115 -0.5346
  107OSM    H6S10883   3.735   5.859   5.442 -0.5504  0.3641 -0.4810
  107OSM    H6T10884   3.908   5.916   5.460  1.0408  2.0064  1.7241
  107OSM    C7S10885   3.789   6.035   5.318 -0.5372  0.0162 -0.6817
  107OSM    H7S10886   3.819   5.973   5.231 -1.4712  1.1273 -1.8278
  107OSM    H7T10887   3.856   6.123   5.320  0.8108 -1.0186  0.4844
  107OSM    C8S10888   3.641   6.073   5.282  0.2831 -0.3781 -0.1137
  107OSM    H8S10889   3.601   6.129   5.369 -0.9044 -1.5596  0.1173
  107OSM    H8T10890   3.568   5.994   5.253 -1.3601  1.2765 -0.5977
  107OSM    C9S10891   3.622   6.178   5.173 -0.6543  0.1228 -0.5188
  107OSM    H9S10892   3.670   6.275   5.197  2.1832 -1.1551 -0.9135
  107OSM    H9T10893   3.513   6.201   5.175 -0.3435  1.5525  1.6040
  107OSM   C10S10894   3.674   6.140   5.033 -0.0283  0.2881  0.3966
  107OSM   H10S10895   3.634   6.040   5.009  4.0127 -1.9604  2.5803
  107OSM   H10T10896   3.785   6.135   5.025  0.0248  1.1073  0.4805
  107OSM   C11S10897   3.618   6.231   4.921  0.6114 -0.0874 -0.4586
  107OSM   H11S10898   3.630   6.339   4.945 -0.7040 -0.3435  1.3935
  107OSM   H11T10899   3.508   6.226   4.933  1.0096 -1.1958  3.0584
  107OSM   C12S10900   3.673   6.189   4.782  0.3690  0.1139  0.3825
  107OSM   H12S10901   3.647   6.082   4.767 -1.2248  0.5952 -0.3973
  107OSM   H12T10902   3.783   6.201   4.781  0.1793  1.9188 -0.9755
  107OSM   C13S10903   3.614   6.272   4.667 -0.1800 -0.1908  0.4715
  107OSM   H13S10904   3.635   6.376   4.700  1.2036 -0.0338 -0.8331
  107OSM   H13T10905   3.503   6.277   4.662 -0.2043 -0.8386  0.3449
  107OSM   C14S10906   3.693   6.245   4.539  0.3018  0.2237  0.1723
  107OSM   H14S10907   3.648   6.154   4.494  1.0922 -0.5903  1.0414
  107OSM   H14T10908   3.799   6.235   4.570  0.3043 -1.5250 -0.3352
  107OSM   C15S10909   3.672   6.356   4.428 -0.9007  0.2451  0.8377
  107OSM   H15S10910   3.564   6.357   4.406 -0.2815 -0.1476 -2.3676
  107OSM   H15T10911   3.727   6.315   4.341 -1.5397  0.3635  0.3819
  107OSM   C16S10912   3.718   6.495   4.459 -0.3642 -0.7581 -0.1337
  107OSM   H16S10913   3.669   6.524   4.554  0.5464  0.4608 -0.0182
  107OSM   H16T10914   3.675   6.557   4.378 -0.1992  0.6200  0.8139
  107OSM   C17S10915   3.865   6.507   4.469 -0.3277 -0.4777  0.8591
  107OSM   H17S10916   3.902   6.465   4.373 -2.4058 -0.8515  0.1824
  107OSM   H17T10917   3.904   6.440   4.549  1.6048 -0.7183 -0.2594
  107OSM   C18S10918   3.913   6.650   4.493 -0.2232 -0.0769  0.5122
  107OSM   H18S10919   3.854   6.681   4.582 -2.3738  1.2247 -1.3124
  107OSM   H18T10920   3.878   6.714   4.410  0.3347 -1.7929 -1.0685
  107OSM   H18U10921   4.021   6.668   4.514 -0.3052  0.3203  0.5939
  107OSM    C1F10922   4.099   6.218   5.811  0.2211  0.2842 -0.5759
  107OSM     OF10923   4.163   6.148   5.888 -0.2334 -0.2552  0.3728
  107OSM    C2F10924   4.154   6.315   5.704 -0.0175  0.1008 -0.2868
  107OSM    H2F10925   4.219   6.385   5.760  0.1017 -0.7111  0.6194
  107OSM    H2G10926   4.067   6.370   5.661 -0.2964  1.5953  2.0889
  107OSM    C3F10927   4.227   6.229   5.597 -0.0187 -0.5695 -0.0535
  107OSM    H3F10928   4.312   6.171   5.637  2.7757  1.0182 -3.3198
  107OSM    H3G10929   4.261   6.294   5.513  0.8960 -2.1978 -0.9461
  107OSM    C4F10930   4.123   6.139   5.520  0.9044  0.5359  0.4183
  107OSM    H4F10931   4.039   6.210   5.511 -1.3625 -2.3292 -2.1231
  107OSM    H4G10932   4.089   6.063   5.594 -0.2329  0.6848  0.0542
  107OSM    C5F10933   4.189   6.079   5.394 -0.2422 -0.0040 -0.2377
  107OSM    H5F10934   4.116   6.008   5.349 -1.2414  1.1360 -0.4645
  107OSM    H5G10935   4.277   6.030   5.441 -0.9626  0.0020  1.1612
  107OSM    C6F10936   4.217   6.174   5.280  0.0836 -0.4866  0.1404
  107OSM    H6F10937   4.260   6.127   5.189  0.8202  3.9715 -1.9635
  107OSM    H6G10938   4.295   6.248   5.307 -2.3259  2.1802  0.0164
  107OSM    C7F10939   4.097   6.260   5.242 -0.1337 -1.0366  0.6378
  107OSM    H7F10940   4.035   6.307   5.321 -0.9296 -0.1915 -0.4616
  107OSM    H7G10941   4.026   6.188   5.196 -0.4835 -2.8915  3.9134
  107OSM    C8F10942   4.128   6.377   5.150 -0.1803 -0.1116  0.2554
  107OSM    H8F10943   4.226   6.356   5.102  1.4776  1.7111  2.7820
  107OSM    H8G10944   4.147   6.468   5.210  0.8785 -1.3231  1.7859
  107OSM    C9F10945   4.023   6.394   5.041  0.3784 -0.1763  0.5821
  107OSM    H9F10946   3.924   6.412   5.085  1.9551  1.1172  3.7489
  107OSM   C10F10947   4.039   6.415   4.905 -0.5444  0.1533 -0.1566
  107OSM   H10F10948   3.950   6.444   4.847  0.4497  1.9348 -0.8128
  107OSM   C11F10949   4.176   6.433   4.841 -0.1477 -0.0730 -0.2271
  107OSM   H11F10950   4.266   6.407   4.901 -1.8464 -2.9097  1.1802
  107OSM   H11G10951   4.184   6.538   4.807 -0.9897  0.3538  0.8544
  107OSM   C12F10952   4.177   6.342   4.710  0.9204 -0.1782 -0.4404
  107OSM   H12F10953   4.083   6.366   4.655  1.8874 -0.2236 -2.1395
  107OSM   H12G10954   4.175   6.235   4.739 -0.2357 -0.3191 -1.0351
  107OSM   C13F10955   4.304   6.360   4.619  0.2217 -0.0979  0.7979
  107OSM   H13F10956   4.337   6.260   4.583  1.5790  1.1080 -1.3669
  107OSM   H13G10957   4.384   6.406   4.680  1.9290  0.8295 -2.0608
  107OSM   C14F10958   4.275   6.456   4.503 -0.0096 -0.7325 -0.0283
  107OSM   H14F10959   4.222   6.545   4.543  3.6605  1.5131 -0.0139
  107OSM   H14G10960   4.215   6.406   4.424  1.2123 -2.2726 -0.0129
  107OSM   C15F10961   4.403   6.519   4.436  0.0236  0.3337  0.4965
  107OSM   H15F10962   4.463   6.436   4.391  0.9843  1.9937 -1.3680
  107OSM   H15G10963   4.452   6.555   4.529 -0.5681 -1.7028  1.6373
  107OSM   C16F10964   4.371   6.612   4.313  0.6646  0.5352  0.9125
  107OSM   H16F10965   4.467   6.641   4.266  0.2436 -1.7465 -1.4068
  107OSM   H16G10966   4.321   6.706   4.346 -2.2020 -1.7551  3.4304
  107OSM   C17F10967   4.296   6.549   4.197  0.5443 -0.2938  0.0829
  107OSM   H17F10968   4.193   6.521   4.226  1.5169 -0.0384  4.0449
  107OSM   H17G10969   4.346   6.452   4.177 -1.3992 -0.9603 -1.6480
  107OSM   C18F10970   4.297   6.634   4.067 -0.1900 -0.3621  0.5198
  107OSM   H18F10971   4.403   6.654   4.041 -1.0869  1.0259 -2.2937
  107OSM   H18G10972   4.244   6.729   4.090 -0.3268 -1.0479  3.1894
  107OSM   H18H10973   4.237   6.586   3.986 -0.8599 -2.9035  2.4962
  108OSM      N10974   5.109   1.902   6.161 -0.2173  0.6167  1.0128
  108OSM    C1510975   5.082   1.958   6.026  0.2547 -0.1685  0.8461
  108OSM   H15A10976   5.173   1.986   5.975  0.0025 -0.5838  0.1691
  108OSM   H15B10977   5.009   2.038   6.031  1.5581  1.0014  1.3849
  108OSM   H15C10978   5.040   1.887   5.957  1.9773 -0.6905  0.3272
  108OSM    C1410979   4.980   1.852   6.222 -0.1118 -0.5612 -0.3927
  108OSM   H14A10980   4.933   1.782   6.154 -1.2219 -0.3618  0.1599
  108OSM   H14B10981   4.909   1.931   6.238  0.1430  0.0391 -2.0813
  108OSM   H14C10982   5.006   1.802   6.314  1.3602  0.4891 -0.2106
  108OSM    C1310983   5.200   1.777   6.149  0.0255 -0.5464 -0.1879
  108OSM   H13A10984   5.201   1.720   6.241  0.8458  0.2497  0.3127
  108OSM   H13B10985   5.300   1.810   6.124 -0.2204 -0.7611 -1.5049
  108OSM   H13C10986   5.168   1.714   6.067  0.5774 -0.8663 -0.1615
  108OSM    C1210987   5.170   2.004   6.251 -0.0219 -0.3119 -0.0825
  108OSM   H12A10988   5.254   2.054   6.205 -0.4156 -0.3974 -0.9072
  108OSM   H12B10989   5.214   1.966   6.342  1.3933 -1.1233 -1.0985
  108OSM    C1110990   5.075   2.121   6.291 -0.0676 -0.4055  0.2230
  108OSM   H11A10991   5.022   2.080   6.380  0.1829 -0.0175  0.5519
  108OSM   H11B10992   5.007   2.151   6.209 -0.3804 -0.6888  0.3790
  108OSM      P10993   5.153   2.371   6.263 -0.2654 -0.1916 -0.7374
  108OSM    O1310994   5.010   2.408   6.242 -1.0723 -0.6574 -0.3514
  108OSM    O1410995   5.240   2.472   6.321  0.1604  0.4003 -0.3172
  108OSM    O1110996   5.212   2.333   6.123  0.9042  0.0555  0.4898
  108OSM    O1210997   5.160   2.228   6.335  0.1355 -0.1448 -0.8729
  108OSM    C1S10998   5.352   2.284   6.106 -0.1746  0.0165 -0.1724
  108OSM    H1S10999   5.371   2.205   6.182 -1.4766  1.2255  1.4431
  108OSM    H1T11000   5.425   2.364   6.130  2.2186 -1.7912 -1.3301
  108OSM     NF11001   5.499   2.161   5.955 -0.3654 -0.0182 -0.2230
  108OSM    HNF11002   5.578   2.206   5.914 -1.8936  3.9056  0.8566
  108OSM    C2S11003   5.378   2.243   5.957 -0.0318  0.2624  0.1618
  108OSM    H2S11004   5.291   2.180   5.929  1.0652 -1.7006  1.1154
  108OSM    C3S11005   5.380   2.373   5.874 -0.7881 -0.5269 -0.4479
  108OSM    H3S11006   5.470   2.438   5.889 -0.8308 -0.9039  1.6329
  108OSM     O311007   5.268   2.453   5.911  0.0536  0.1497  0.1360
  108OSM    HO311008   5.230   2.409   5.988 -0.5626 -0.9108 -0.7686
  108OSM    C4S11009   5.376   2.334   5.727  0.2048 -0.1496 -0.0912
  108OSM    H4S11010   5.273   2.316   5.693  0.4390 -0.3644 -0.7117
  108OSM    C5S11011   5.480   2.329   5.645 -0.3755  0.7592 -0.2909
  108OSM    H5S11012   5.572   2.370   5.688  0.4146 -1.3313  0.0894
  108OSM    C6S11013   5.490   2.295   5.503 -0.4394  0.1357  0.0836
  108OSM    H6S11014   5.574   2.227   5.476 -0.0636  0.6570 -0.0796
  108OSM    H6T11015   5.503   2.395   5.456  1.1343 -0.6981 -1.3234
  108OSM    C7S11016   5.363   2.227   5.449  0.0432 -0.1781 -0.2915
  108OSM    H7S11017   5.274   2.290   5.472  0.4813  0.0384  0.8377
  108OSM    H7T11018   5.351   2.128   5.498  0.4739  0.0997  0.3765
  108OSM    C8S11019   5.373   2.212   5.289 -0.5414 -0.4825 -0.2105
  108OSM    H8S11020   5.370   2.316   5.250 -0.5353 -0.5303 -0.3387
  108OSM    H8T11021   5.278   2.168   5.253 -1.5452  2.0499 -0.7501
  108OSM    C9S11022   5.495   2.131   5.241 -0.2334  0.8710 -0.3484
  108OSM    H9S11023   5.492   2.030   5.288 -1.0452  1.4397  0.8286
  108OSM    H9T11024   5.592   2.173   5.278  0.5006 -0.8295 -0.2911
  108OSM   C10S11025   5.498   2.120   5.090  0.5225  0.3963  0.1759
  108OSM   H10S11026   5.539   2.213   5.046  0.6444  0.1533 -0.2261
  108OSM   H10T11027   5.400   2.095   5.045  0.7648 -0.8137  0.2823
  108OSM   C11S11028   5.598   2.010   5.045  0.3464 -0.4773 -0.0005
  108OSM   H11S11029   5.652   1.968   5.134  0.7939 -1.3175 -0.6550
  108OSM   H11T11030   5.676   2.058   4.983  0.1434  2.6748  2.0998
  108OSM   C12S11031   5.545   1.886   4.970 -0.0505 -0.1401 -0.0006
  108OSM   H12S11032   5.461   1.846   5.030  1.5851 -2.6398  0.7463
  108OSM   H12T11033   5.620   1.803   4.975  0.1955  0.1215  0.7769
  108OSM   C13S11034   5.508   1.935   4.828  0.0965  0.2154 -0.5556
  108OSM   H13S11035   5.587   1.998   4.783  0.3516  1.6475  1.8441
  108OSM   H13T11036   5.413   1.991   4.833  0.2020  0.2439  1.6138
  108OSM   C14S11037   5.488   1.823   4.735 -0.1231  0.4814  0.0813
  108OSM   H14S11038   5.449   1.734   4.788 -1.8775  1.6155  0.7343
  108OSM   H14T11039   5.585   1.787   4.695  0.5534  0.0746  2.0227
  108OSM   C15S11040   5.406   1.862   4.614  0.0827  0.1164 -0.6628
  108OSM   H15S11041   5.322   1.931   4.637  1.4717  1.4591  0.5575
  108OSM   H15T11042   5.352   1.772   4.577  1.6471  0.1327 -3.0445
  108OSM   C16S11043   5.493   1.933   4.507 -0.2236 -0.1134  0.5019
  108OSM   H16S11044   5.596   1.935   4.549 -0.5610  0.2450  1.3411
  108OSM   H16T11045   5.454   2.037   4.498 -0.4099 -0.2082  0.2287
  108OSM   C17S11046   5.499   1.862   4.372 -0.1902 -0.4047  0.0384
  108OSM   H17S11047   5.398   1.836   4.332  0.5256 -2.1735 -0.6489
  108OSM   H17T11048   5.535   1.759   4.388 -0.3100 -0.1400  2.0773
  108OSM   C18S11049   5.571   1.930   4.262  0.2673 -0.5753 -0.2452
  108OSM   H18S11050   5.673   1.964   4.293 -0.9443  2.6215  0.3904
  108OSM   H18T11051   5.518   2.023   4.232 -0.0853 -0.5041  0.5826
  108OSM   H18U11052   5.583   1.869   4.170  0.7537 -0.9459  0.0615
  108OSM    C1F11053   5.512   2.037   6.006 -0.3269 -0.0437 -0.1691
  108OSM     OF11054   5.428   1.994   6.085 -0.3786 -0.4365  0.9298
  108OSM    C2F11055   5.647   1.960   5.981 -0.9824  0.5914 -0.5271
  108OSM    H2F11056   5.730   2.012   6.033 -0.2883  0.8028 -1.8227
  108OSM    H2G11057   5.669   1.977   5.873 -1.1099  0.4443 -0.5776
  108OSM    C3F11058   5.650   1.813   6.023  0.1614  0.2637  0.5197
  108OSM    H3F11059   5.571   1.755   5.970  0.2155 -0.9153  1.6823
  108OSM    H3G11060   5.626   1.802   6.131  0.2871 -1.0182  0.4283
  108OSM    C4F11061   5.783   1.746   6.010  0.5095  0.8695 -0.1872
  108OSM    H4F11062   5.779   1.650   6.065  1.6481 -0.8950 -3.1077
  108OSM    H4G11063   5.869   1.809   6.042  0.2182  1.6490 -0.9146
  108OSM    C5F11064   5.813   1.702   5.860  0.6543  0.3053  0.1598
  108OSM    H5F11065   5.825   1.794   5.799  0.8104 -0.9280 -1.6991
  108OSM    H5G11066   5.732   1.639   5.817  1.5778 -0.3241 -0.6811
  108OSM    C6F11067   5.946   1.613   5.855 -0.1571 -0.4472 -0.0389
  108OSM    H6F11068   5.910   1.509   5.870 -0.6251 -0.3070 -0.2030
  108OSM    H6G11069   6.013   1.654   5.934 -2.1285 -1.6733  2.3505
  108OSM    C7F11070   6.009   1.600   5.726  0.2849  1.2427  0.6936
  108OSM    H7F11071   6.084   1.519   5.737  0.6662  1.5744  0.5548
  108OSM    H7G11072   6.070   1.693   5.718  2.6712 -0.2126  1.3726
  108OSM    C8F11073   5.925   1.573   5.597  0.5787  1.1711  0.2204
  108OSM    H8F11074   6.009   1.570   5.523 -1.8335  0.3020 -2.5709
  108OSM    H8G11075   5.869   1.663   5.563  0.9796  0.4315 -2.5763
  108OSM    C9F11076   5.856   1.445   5.568  0.8977  0.0802  0.1825
  108OSM    H9F11077   5.880   1.360   5.633 -1.3207 -0.7214 -0.0041
  108OSM   C10F11078   5.771   1.434   5.462  0.0934  0.4948  0.0850
  108OSM   H10F11079   5.712   1.341   5.463 -1.3404  1.3764  3.1349
  108OSM   C11F11080   5.732   1.532   5.359  0.1513  0.2515 -0.0762
  108OSM   H11F11081   5.762   1.637   5.382 -0.0791  0.1150  0.8665
  108OSM   H11G11082   5.622   1.532   5.344  0.0590 -1.8465  0.4913
  108OSM   C12F11083   5.790   1.490   5.218  0.4874  0.0070 -0.5988
  108OSM   H12F11084   5.769   1.383   5.198 -1.4186 -0.2919  2.6294
  108OSM   H12G11085   5.901   1.500   5.224  0.5062  0.1221 -1.1406
  108OSM   C13F11086   5.742   1.583   5.102 -0.0203 -0.1475 -0.0051
  108OSM   H13F11087   5.770   1.685   5.133  0.1868 -0.0099 -0.6454
  108OSM   H13G11088   5.631   1.576   5.098 -0.1523  2.5527 -1.7863
  108OSM   C14F11089   5.796   1.541   4.960  0.3421 -0.2688 -0.6006
  108OSM   H14F11090   5.905   1.519   4.956  0.5779  1.1455 -2.4882
  108OSM   H14G11091   5.778   1.623   4.888 -3.5936 -1.8369 -1.5117
  108OSM   C15F11092   5.712   1.416   4.917  0.0821  0.2362  0.0751
  108OSM   H15F11093   5.602   1.427   4.929  0.2682  2.9288 -0.3883
  108OSM   H15G11094   5.736   1.327   4.979  0.9408  0.1720 -0.3328
  108OSM   C16F11095   5.732   1.384   4.766 -0.5951  0.6912  0.0228
  108OSM   H16F11096   5.727   1.476   4.703  0.5974 -0.2074 -1.4157
  108OSM   H16G11097   5.658   1.314   4.724 -0.2880  0.5957 -0.3643
  108OSM   C17F11098   5.872   1.313   4.742 -0.0287  0.8341 -0.4365
  108OSM   H17F11099   5.869   1.222   4.807  2.0971  1.0187 -0.0607
  108OSM   H17G11100   5.952   1.384   4.771  0.9917  0.0108 -1.2051
  108OSM   C18F11101   5.903   1.254   4.602  0.2529  0.2318  0.0271
  108OSM   H18F11102   6.012   1.242   4.588 -0.0281 -0.1223 -1.9163
  108OSM   H18G11103   5.858   1.323   4.528  0.3068  0.4640  0.2086
  108OSM   H18H11104   5.855   1.156   4.581  0.0480  0.6537 -1.5362
  109OSM      N11105   1.973   1.480   6.208  1.1645 -0.1292 -0.3369
  109OSM    C1511106   2.062   1.592   6.256 -0.8463 -0.1536 -0.1023
  109OSM   H15A11107   2.049   1.675   6.188 -1.5728  0.1753  0.4276
  109OSM   H15B11108   2.166   1.564   6.261 -0.6191  0.7269  0.3041
  109OSM   H15C11109   2.036   1.606   6.360  0.2985 -1.4948  0.3875
  109OSM    C1411110   2.016   1.376   6.306 -0.7335  0.0017 -0.3550
  109OSM   H14A11111   1.965   1.282   6.289  1.1198 -1.2490  0.7322
  109OSM   H14B11112   2.002   1.411   6.407  1.4994 -1.0549  0.3596
  109OSM   H14C11113   2.122   1.355   6.310 -0.6015  0.4973 -1.1480
  109OSM    C1311114   1.825   1.500   6.215  0.2410 -0.2266  0.8852
  109OSM   H13A11115   1.798   1.534   6.314  0.2918  2.1352  0.1166
  109OSM   H13B11116   1.767   1.412   6.189 -0.7742  0.8044 -0.4684
  109OSM   H13C11117   1.795   1.576   6.144  1.1204  0.6692  1.4620
  109OSM    C1211118   2.015   1.446   6.068  0.7997 -0.1788 -0.2130
  109OSM   H12A11119   2.123   1.445   6.066  0.7915  0.1335 -1.0624
  109OSM   H12B11120   1.984   1.529   6.007 -1.3117 -0.5046  0.3720
  109OSM    C1111121   1.966   1.313   6.000  0.0794  0.1158 -0.6325
  109OSM   H11A11122   1.988   1.322   5.892  1.1993  0.4702 -0.3799
  109OSM   H11B11123   1.855   1.310   6.007  0.0371  1.1968 -0.6471
  109OSM      P11124   2.170   1.144   6.044  0.2899  0.1738 -0.3361
  109OSM    O1311125   2.267   1.245   6.088 -0.5597 -0.0701 -0.0961
  109OSM    O1411126   2.184   1.008   6.101 -0.2391  0.0754 -0.0785
  109OSM    O1111127   2.174   1.132   5.884  0.3284  0.1024  0.2129
  109OSM    O1211128   2.020   1.194   6.061  0.0575  0.2751 -0.2997
  109OSM    C1S11129   2.285   1.184   5.812 -0.0558  0.6591 -0.1027
  109OSM    H1S11130   2.377   1.138   5.854  0.6791  0.7364 -1.5527
  109OSM    H1T11131   2.301   1.294   5.821  0.9157  0.6078 -0.9913
  109OSM     NF11132   2.420   1.139   5.603  0.0760  0.3464 -0.0392
  109OSM    HNF11133   2.419   1.221   5.548  0.7650 -0.9851 -2.0786
  109OSM    C2S11134   2.285   1.123   5.663 -0.4111 -0.4328 -0.3446
  109OSM    H2S11135   2.265   1.014   5.673  0.1400 -0.3046  2.9224
  109OSM    C3S11136   2.176   1.198   5.589 -0.0209  0.0263  0.0758
  109OSM    H3S11137   2.213   1.302   5.578 -0.2316  0.3757  2.4795
  109OSM     O311138   2.055   1.200   5.656  0.0015  0.3391  0.2094
  109OSM    HO311139   2.085   1.185   5.746 -0.1925 -2.7526 -0.1896
  109OSM    C4S11140   2.165   1.137   5.442  0.2029  0.1804  0.0848
  109OSM    H4S11141   2.233   1.172   5.363  2.5206 -5.7715 -0.8248
  109OSM    C5S11142   2.063   1.058   5.401 -0.9891 -0.0948 -0.7882
  109OSM    H5S11143   1.982   1.030   5.470 -1.0009  4.0480  0.9760
  109OSM    C6S11144   2.050   1.006   5.255 -0.2549  0.2400  0.4951
  109OSM    H6S11145   1.949   1.023   5.213 -0.7506  1.3863  2.1059
  109OSM    H6T11146   2.059   0.895   5.260 -0.3289  0.1985 -0.3336
  109OSM    C7S11147   2.161   1.047   5.153 -0.0898 -0.4608 -0.1815
  109OSM    H7S11148   2.266   1.023   5.181  0.0800  1.2071  0.6344
  109OSM    H7T11149   2.153   1.157   5.148  1.9398 -0.3267 -1.3824
  109OSM    C8S11150   2.155   0.988   5.008 -0.4163  0.6546  0.9504
  109OSM    H8S11151   2.192   0.884   5.002 -0.7161  0.6285 -0.6667
  109OSM    H8T11152   2.232   1.050   4.958 -1.2689 -1.1533 -2.7450
  109OSM    C9S11153   2.015   1.006   4.948  0.1085 -0.0457  0.0124
  109OSM    H9S11154   1.969   1.104   4.976  0.2982  0.6412 -1.9297
  109OSM    H9T11155   1.949   0.925   4.985 -0.7922  0.0825 -1.2636
  109OSM   C10S11156   2.015   0.996   4.792 -0.5498  0.2535  0.0110
  109OSM   H10S11157   2.058   0.895   4.773  0.3790  0.2947  1.8135
  109OSM   H10T11158   2.087   1.071   4.752  2.0486 -0.9332  2.2528
  109OSM   C11S11159   1.877   1.030   4.732  0.3778 -0.1196 -0.3926
  109OSM   H11S11160   1.863   1.138   4.756 -0.4185 -0.0763 -1.0209
  109OSM   H11T11161   1.805   0.968   4.790  0.7306 -1.6584 -1.5784
  109OSM   C12S11162   1.868   1.002   4.578 -0.1588 -0.0270 -0.3530
  109OSM   H12S11163   1.889   0.893   4.567  0.8341  0.1539 -0.3475
  109OSM   H12T11164   1.946   1.068   4.534  0.9024  1.4176  3.5031
  109OSM   C13S11165   1.730   1.027   4.515  0.3516  0.3256 -0.5881
  109OSM   H13S11166   1.711   1.137   4.519 -1.1034  0.1684 -2.8594
  109OSM   H13T11167   1.644   0.982   4.567 -0.1172 -0.5595 -2.1196
  109OSM   C14S11168   1.724   1.002   4.364  0.1374  0.4680 -0.5509
  109OSM   H14S11169   1.690   0.897   4.357  1.1281  0.2134 -2.0055
  109OSM   H14T11170   1.826   1.004   4.320  1.1657 -0.3718  1.7295
  109OSM   C15S11171   1.627   1.099   4.291 -0.2797  0.6851  0.5696
  109OSM   H15S11172   1.661   1.204   4.303  0.7739  0.3944  0.2123
  109OSM   H15T11173   1.521   1.083   4.323  0.0811 -1.3248  0.8450
  109OSM   C16S11174   1.626   1.070   4.139 -0.0799 -0.1973  0.4138
  109OSM   H16S11175   1.559   0.982   4.132 -0.1125 -0.0351 -1.5372
  109OSM   H16T11176   1.731   1.045   4.115 -0.1300  0.4848 -0.5516
  109OSM   C17S11177   1.595   1.193   4.050  0.2729  0.3889 -0.0843
  109OSM   H17S11178   1.668   1.276   4.056  0.5256  0.0919  1.0110
  109OSM   H17T11179   1.504   1.237   4.095 -0.0126  0.8965 -1.1547
  109OSM   C18S11180   1.553   1.162   3.904  0.3402  0.0056  0.0891
  109OSM   H18S11181   1.628   1.095   3.857  0.1873 -0.5142  0.5848
  109OSM   H18T11182   1.538   1.250   3.839  1.3589  0.0273 -0.1364
  109OSM   H18U11183   1.452   1.118   3.903 -0.5370  1.7172  3.6423
  109OSM    C1F11184   2.528   1.073   5.630  0.0540  0.6869  0.5230
  109OSM     OF11185   2.519   0.973   5.705  0.3300 -0.4211  0.2540
  109OSM    C2F11186   2.655   1.123   5.565  0.1145 -0.0174 -0.1967
  109OSM    H2F11187   2.724   1.038   5.585  0.8336  0.8266  1.0132
  109OSM    H2G11188   2.700   1.209   5.619 -0.2115 -0.3907  0.6660
  109OSM    C3F11189   2.645   1.144   5.415 -0.4458 -0.1730 -0.2853
  109OSM    H3F11190   2.575   1.227   5.390 -2.4236 -1.1830  1.7577
  109OSM    H3G11191   2.599   1.061   5.357 -5.4958  2.4604 -0.3538
  109OSM    C4F11192   2.780   1.183   5.356  0.0178 -0.7610 -0.1589
  109OSM    H4F11193   2.845   1.092   5.360 -0.6176 -1.4196 -3.4882
  109OSM    H4G11194   2.825   1.267   5.413 -0.6984 -0.0682 -0.6071
  109OSM    C5F11195   2.781   1.220   5.205 -0.3283  0.0238  0.0267
  109OSM    H5F11196   2.722   1.314   5.194 -0.6549 -0.2586 -0.6628
  109OSM    H5G11197   2.719   1.139   5.162  0.4566 -0.1852 -0.7338
  109OSM    C6F11198   2.923   1.226   5.143  0.2821 -0.0464 -0.1896
  109OSM    H6F11199   2.911   1.239   5.033  0.7247 -0.7661 -0.3233
  109OSM    H6G11200   2.984   1.134   5.157  0.1138 -0.5938 -2.8475
  109OSM    C7F11201   3.002   1.340   5.206  0.7112  0.6328  0.7322
  109OSM    H7F11202   3.025   1.324   5.313  0.8214 -1.3493  0.4395
  109OSM    H7G11203   2.949   1.436   5.191  1.0968  0.8054  0.4515
  109OSM    C8F11204   3.143   1.370   5.153  0.1764 -0.5282  0.4251
  109OSM    H8F11205   3.196   1.274   5.171  0.7973  0.0507  1.7104
  109OSM    H8G11206   3.191   1.453   5.210 -1.5849  0.8500 -0.0776
  109OSM    C9F11207   3.160   1.403   5.009 -0.3529 -0.1752  0.8538
  109OSM    H9F11208   3.089   1.343   4.951 -2.7640  1.1054  2.4095
  109OSM   C10F11209   3.242   1.500   4.952  1.0238 -0.1244  0.7086
  109OSM   H10F11210   3.266   1.503   4.845 -0.1151  0.8903  0.4696
  109OSM   C11F11211   3.328   1.602   5.026 -0.2913 -0.3371  0.2416
  109OSM   H11F11212   3.431   1.598   4.985 -1.2055 -1.7103 -2.0605
  109OSM   H11G11213   3.334   1.596   5.136  1.2197  1.0446  0.2494
  109OSM   C12F11214   3.265   1.741   5.000 -0.4256  0.6575 -0.1852
  109OSM   H12F11215   3.247   1.755   4.891 -0.0941  0.7436 -0.2295
  109OSM   H12G11216   3.344   1.817   5.019 -0.7372  1.3329 -1.5098
  109OSM   C13F11217   3.139   1.777   5.079 -0.3008 -0.4967  0.3042
  109OSM   H13F11218   3.068   1.696   5.053  0.1830 -0.1916 -2.0662
  109OSM   H13G11219   3.090   1.868   5.040 -1.1537 -0.3115  1.7699
  109OSM   C14F11220   3.162   1.786   5.235 -0.0228  0.2145 -0.0525
  109OSM   H14F11221   3.182   1.682   5.269  0.9167 -0.1586 -1.6918
  109OSM   H14G11222   3.068   1.816   5.286  1.8306  1.3771  2.7816
  109OSM   C15F11223   3.277   1.871   5.274 -0.1472 -0.4346 -0.8479
  109OSM   H15F11224   3.275   1.962   5.211  3.2067  0.5625  0.3579
  109OSM   H15G11225   3.369   1.813   5.251  0.4776  0.4695 -0.6466
  109OSM   C16F11226   3.266   1.905   5.423  0.2094  0.5734  0.1113
  109OSM   H16F11227   3.265   1.807   5.475 -0.9604  0.5477  0.0521
  109OSM   H16G11228   3.175   1.958   5.457 -2.0336 -1.7394 -2.1513
  109OSM   C17F11229   3.395   1.987   5.475 -0.4519 -0.0993  0.3265
  109OSM   H17F11230   3.392   2.082   5.416 -1.8225  0.1760  0.8242
  109OSM   H17G11231   3.491   1.938   5.448  0.3868  0.3045  2.4827
  109OSM   C18F11232   3.392   2.021   5.624  0.1706 -0.8964 -0.0117
  109OSM   H18F11233   3.311   2.089   5.659  0.6473 -0.4263  0.1815
  109OSM   H18G11234   3.479   2.091   5.628 -2.3339  2.3016  0.3574
  109OSM   H18H11235   3.406   1.935   5.692 -0.4417 -0.0042  1.2645
  110OSM      N11236   5.335   5.000   6.334 -0.4803 -0.6325 -0.1068
  110OSM    C1511237   5.280   5.105   6.237 -0.2449  0.1187 -0.2906
  110OSM   H15A11238   5.181   5.134   6.271 -0.5771 -0.8967 -0.3592
  110OSM   H15B11239   5.264   5.063   6.139 -0.2201 -0.2370 -0.1429
  110OSM   H15C11240   5.338   5.196   6.242  0.1188 -0.1244 -0.0389
  110OSM    C1411241   5.467   4.959   6.275  0.4738 -0.3479 -0.5352
  110OSM   H14A11242   5.542   5.037   6.283 -0.2497  0.3129 -0.0785
  110OSM   H14B11243   5.457   4.929   6.172  1.1672  0.8377 -0.9598
  110OSM   H14C11244   5.514   4.877   6.328 -0.4434 -2.3400 -2.7171
  110OSM    C1311245   5.353   5.062   6.469 -0.3046  0.3089 -0.5916
  110OSM   H13A11246   5.430   5.137   6.479 -0.5348  0.3552  1.1675
  110OSM   H13B11247   5.391   4.987   6.537  2.5010  0.9290 -1.4152
  110OSM   H13C11248   5.261   5.105   6.508 -2.1714 -1.0442 -3.3855
  110OSM    C1211249   5.233   4.885   6.335 -0.7899  0.3046  0.6650
  110OSM   H12A11250   5.138   4.912   6.379 -1.0273  1.8246 -0.7189
  110OSM   H12B11251   5.275   4.812   6.403  1.6553 -0.0688 -1.1729
  110OSM    C1111252   5.208   4.808   6.202 -0.3644 -0.0853 -0.0555
  110OSM   H11A11253   5.177   4.877   6.121 -0.5259 -1.5598 -1.2775
  110OSM   H11B11254   5.118   4.743   6.210 -1.6999  1.3867 -2.5509
  110OSM      P11255   5.352   4.647   6.053  0.0297  0.1078  0.7533
  110OSM    O1311256   5.458   4.545   6.073  0.3810 -0.0893 -0.9701
  110OSM    O1411257   5.227   4.592   6.008 -0.5087 -0.0512  0.9039
  110OSM    O1111258   5.390   4.761   5.955 -0.3106 -0.4052 -0.0230
  110OSM    O1211259   5.328   4.727   6.187  0.4581 -0.5480 -0.7489
  110OSM    C1S11260   5.437   4.748   5.819  0.2392 -0.0998  0.4029
  110OSM    H1S11261   5.427   4.647   5.774  1.7640  0.5774 -1.5686
  110OSM    H1T11262   5.548   4.760   5.817 -0.0002  1.9756 -1.3729
  110OSM     NF11263   5.401   4.837   5.599  0.4014 -0.1003 -0.3436
  110OSM    HNF11264   5.466   4.904   5.563 -0.5880  0.8822 -0.3185
  110OSM    C2S11265   5.363   4.858   5.737  0.1450  0.5321 -0.9293
  110OSM    H2S11266   5.256   4.829   5.728 -0.2986  2.2479 -1.2334
  110OSM    C3S11267   5.367   5.003   5.791  0.3664 -0.4808 -0.4920
  110OSM    H3S11268   5.468   5.051   5.791 -0.3132  0.9948 -2.7629
  110OSM     O311269   5.331   5.016   5.929 -0.3160  0.2473  0.1015
  110OSM    HO311270   5.361   4.930   5.960  0.7592  0.9223  1.0026
  110OSM    C4S11271   5.271   5.090   5.712 -0.5670 -0.5889 -0.0437
  110OSM    H4S11272   5.171   5.045   5.720  0.1429 -2.0150  1.1910
  110OSM    C5S11273   5.292   5.199   5.632 -0.2827  0.9480  0.0579
  110OSM    H5S11274   5.388   5.246   5.608 -0.3991  0.6172 -1.0818
  110OSM    C6S11275   5.184   5.279   5.574 -0.2618  0.3968 -0.4516
  110OSM    H6S11276   5.203   5.383   5.606  2.3188 -0.5893  1.3739
  110OSM    H6T11277   5.084   5.258   5.618 -0.1794  2.1668  0.6448
  110OSM    C7S11278   5.156   5.263   5.423 -0.4682  0.5696  0.1896
  110OSM    H7S11279   5.065   5.323   5.403 -1.2605  0.5264  3.3973
  110OSM    H7T11280   5.126   5.156   5.413  0.9542 -0.1453  3.0215
  110OSM    C8S11281   5.268   5.288   5.325 -0.8113 -0.0611  0.1440
  110OSM    H8S11282   5.363   5.235   5.347 -0.8454  0.2825  1.1223
  110OSM    H8T11283   5.293   5.395   5.334  0.5776 -0.1494 -2.2347
  110OSM    C9S11284   5.232   5.255   5.178 -0.1211 -0.9999  0.3185
  110OSM    H9S11285   5.290   5.323   5.112  1.5880 -4.3227 -1.7336
  110OSM    H9T11286   5.125   5.282   5.165  0.4988  1.7974  0.5921
  110OSM   C10S11287   5.255   5.110   5.143 -0.1509  0.0592  0.2319
  110OSM   H10S11288   5.218   5.046   5.227  0.3451  1.0313  1.1888
  110OSM   H10T11289   5.364   5.090   5.132 -0.5671 -2.0244 -0.3406
  110OSM   C11S11290   5.182   5.079   5.010  0.2286 -0.1513  0.4546
  110OSM   H11S11291   5.071   5.074   5.015  0.2897  0.5613  3.0217
  110OSM   H11T11292   5.212   4.978   4.976  0.8831  0.9129 -2.3015
  110OSM   C12S11293   5.230   5.164   4.892  0.2043 -0.3789 -0.0184
  110OSM   H12S11294   5.340   5.148   4.884  0.2741  0.4403 -0.6803
  110OSM   H12T11295   5.206   5.271   4.905 -3.1967 -1.2777  1.6572
  110OSM   C13S11296   5.175   5.113   4.761 -0.1271 -0.5159 -0.3710
  110OSM   H13S11297   5.064   5.104   4.760 -0.0627 -1.3217 -1.5714
  110OSM   H13T11298   5.212   5.010   4.744 -2.1927 -1.4519  0.7060
  110OSM   C14S11299   5.219   5.198   4.643 -0.6663  0.2642 -0.0525
  110OSM   H14S11300   5.328   5.181   4.634 -0.3480  1.5904  1.0880
  110OSM   H14T11301   5.213   5.305   4.674 -1.8083  0.4902 -1.0295
  110OSM   C15S11302   5.138   5.188   4.508 -0.6818  0.2309  0.0372
  110OSM   H15S11303   5.031   5.208   4.527 -0.4384  0.7623  0.8624
  110OSM   H15T11304   5.140   5.081   4.478 -1.3682  0.4423 -0.7721
  110OSM   C16S11305   5.192   5.282   4.392  0.0254  0.1017 -0.0581
  110OSM   H16S11306   5.291   5.245   4.357 -0.3534 -0.0105 -1.0401
  110OSM   H16T11307   5.185   5.384   4.435  0.7520 -0.3124  1.0490
  110OSM   C17S11308   5.089   5.278   4.276 -0.2800  0.2994 -0.4100
  110OSM   H17S11309   4.992   5.321   4.307 -0.1842  0.8126 -0.8233
  110OSM   H17T11310   5.073   5.175   4.238  1.0944  0.0220 -0.2891
  110OSM   C18S11311   5.141   5.348   4.157  0.3921 -0.5433  0.3197
  110OSM   H18S11312   5.169   5.453   4.180 -0.3473  0.4098 -2.9137
  110OSM   H18T11313   5.057   5.358   4.085  0.9014  1.3987 -0.0287
  110OSM   H18U11314   5.225   5.300   4.102 -0.4847 -0.3052 -1.2658
  110OSM    C1F11315   5.370   4.736   5.526 -0.0242  0.8149  0.5904
  110OSM     OF11316   5.285   4.654   5.562 -0.6395  0.0412  0.7045
  110OSM    C2F11317   5.434   4.730   5.391  0.3943  0.2887  0.7993
  110OSM    H2F11318   5.543   4.736   5.413 -0.0168  1.8115  2.4828
  110OSM    H2G11319   5.394   4.813   5.329 -1.6676 -0.1845  1.4685
  110OSM    C3F11320   5.400   4.603   5.309 -0.5204 -0.1436  0.7524
  110OSM    H3F11321   5.292   4.605   5.284 -0.0789 -1.7638 -1.4143
  110OSM    H3G11322   5.416   4.511   5.370  0.4338 -0.4449  0.0578
  110OSM    C4F11323   5.480   4.582   5.176 -0.1834 -0.0724  1.1745
  110OSM    H4F11324   5.432   4.502   5.116 -0.6010  0.3502  0.9430
  110OSM    H4G11325   5.586   4.560   5.202  0.3382  2.3162  1.1615
  110OSM    C5F11326   5.471   4.703   5.084 -0.1246 -0.3571  0.8641
  110OSM    H5F11327   5.541   4.787   5.107 -1.1484  1.8504 -3.5395
  110OSM    H5G11328   5.365   4.731   5.099 -0.1931 -0.4230  0.5063
  110OSM    C6F11329   5.485   4.665   4.939 -0.0446  0.0294 -0.2819
  110OSM    H6F11330   5.405   4.594   4.907 -0.1649  1.3106 -2.8981
  110OSM    H6G11331   5.583   4.613   4.935  1.5459  2.5561  3.3406
  110OSM    C7F11332   5.490   4.779   4.840  0.1739 -0.1692  0.2886
  110OSM    H7F11333   5.578   4.834   4.881  0.3028  1.0812 -1.6186
  110OSM    H7G11334   5.398   4.841   4.851 -0.1427 -0.6481  0.3531
  110OSM    C8F11335   5.519   4.726   4.694  0.9370 -0.4053  0.4706
  110OSM    H8F11336   5.610   4.664   4.696 -0.3802 -2.4569 -1.6762
  110OSM    H8G11337   5.548   4.813   4.631 -2.5202  0.5037 -0.0016
  110OSM    C9F11338   5.406   4.647   4.633  0.5529 -0.4312 -0.1206
  110OSM    H9F11339   5.414   4.538   4.634 -1.1002 -0.5993 -2.4360
  110OSM   C10F11340   5.308   4.694   4.552 -0.2169  0.2846 -0.1473
  110OSM   H10F11341   5.220   4.639   4.517  0.3613 -1.0842  0.4937
  110OSM   C11F11342   5.281   4.838   4.514  0.9494  0.1314  0.3171
  110OSM   H11F11343   5.343   4.909   4.573 -1.2194  0.7369  1.9382
  110OSM   H11G11344   5.177   4.871   4.531  1.4745  2.2454 -0.3789
  110OSM   C12F11345   5.305   4.855   4.364  0.0602 -0.0691 -0.0200
  110OSM   H12F11346   5.265   4.955   4.336 -1.1825 -0.6658 -0.4121
  110OSM   H12G11347   5.245   4.781   4.307 -0.1109  1.1148 -1.3974
  110OSM   C13F11348   5.447   4.835   4.324 -0.3274  0.3206 -0.4393
  110OSM   H13F11349   5.496   4.738   4.345 -1.2927  0.1674  1.1171
  110OSM   H13G11350   5.501   4.908   4.388 -0.2624 -0.4416  0.3873
  110OSM   C14F11351   5.459   4.871   4.174 -0.0241  0.0732 -0.1168
  110OSM   H14F11352   5.371   4.847   4.111 -0.8345 -0.2232  1.1164
  110OSM   H14G11353   5.541   4.807   4.136  1.3826  0.6663  1.7869
  110OSM   C15F11354   5.499   5.017   4.155  0.2428 -0.0923 -0.1556
  110OSM   H15F11355   5.591   5.042   4.211 -0.8237  1.9518  0.7458
  110OSM   H15G11356   5.415   5.071   4.204 -0.5264 -2.5210  1.2513
  110OSM   C16F11357   5.523   5.027   4.004  0.3006  0.1247 -0.7988
  110OSM   H16F11358   5.443   4.967   3.956 -1.2306  0.8344  0.7843
  110OSM   H16G11359   5.624   4.985   3.984  1.1496  1.2035  1.0507
  110OSM   C17F11360   5.521   5.172   3.968 -0.2553  1.0601 -0.6907
  110OSM   H17F11361   5.593   5.219   4.038 -0.7220  1.6862 -0.6213
  110OSM   H17G11362   5.420   5.209   3.997  0.5479  2.5653  0.2619
  110OSM   C18F11363   5.545   5.200   3.821  0.0451 -0.2123 -0.5426
  110OSM   H18F11364   5.547   5.307   3.793  1.0911 -0.2173 -0.5205
  110OSM   H18G11365   5.463   5.149   3.766  0.0694 -0.5024 -0.3140
  110OSM   H18H11366   5.641   5.148   3.801 -1.0538 -2.3568 -0.4080
  111OSM      N11367   1.013   3.857   6.458  0.9970 -0.0167 -0.1631
  111OSM    C1511368   0.914   3.911   6.554  0.0138 -0.3451 -0.2596
  111OSM   H15A11369   0.922   4.018   6.567 -0.5062 -0.3619  0.2523
  111OSM   H15B11370   0.932   3.878   6.655  1.5643 -0.1598 -0.4777
  111OSM   H15C11371   0.809   3.891   6.534 -0.7708  0.3466  2.8479
  111OSM    C1411372   1.149   3.886   6.501 -0.3299  0.3010 -0.0367
  111OSM   H14A11373   1.226   3.825   6.455 -0.4134 -1.2709  1.8768
  111OSM   H14B11374   1.163   3.843   6.598 -0.8253 -1.7731 -0.8619
  111OSM   H14C11375   1.176   3.990   6.512  0.6990  0.1394 -0.9172
  111OSM    C1311376   0.996   3.710   6.441 -0.1910  0.0180  0.5022
  111OSM   H13A11377   1.017   3.664   6.536 -2.0693 -2.1546 -0.0909
  111OSM   H13B11378   1.063   3.671   6.366  1.1981 -1.4403  2.4821
  111OSM   H13C11379   0.893   3.688   6.415  0.3640 -1.1597 -0.7231
  111OSM    C1211380   0.990   3.914   6.325 -0.2353 -0.3436  0.3391
  111OSM   H12A11381   0.898   3.876   6.284  1.3539 -3.0386 -0.8620
  111OSM   H12B11382   1.072   3.871   6.269 -0.7795 -0.2081 -0.5645
  111OSM    C1111383   1.008   4.061   6.304  0.5444 -0.3119 -0.2840
  111OSM   H11A11384   0.937   4.123   6.363  0.6552 -0.0313 -0.4440
  111OSM   H11B11385   0.980   4.090   6.200 -0.3944 -1.0722 -0.2516
  111OSM      P11386   1.258   4.119   6.233 -0.4960 -0.0223 -0.4491
  111OSM    O1311387   1.370   4.189   6.303  0.1185  0.4701 -0.2749
  111OSM    O1411388   1.283   3.993   6.166  0.3238  0.6759 -0.5162
  111OSM    O1111389   1.197   4.217   6.123  0.6640  0.2941  0.1077
  111OSM    O1211390   1.142   4.105   6.336  0.1062 -0.0994  0.4162
  111OSM    C1S11391   1.164   4.343   6.176 -0.0065  0.1190  0.0376
  111OSM    H1S11392   1.252   4.392   6.222  1.5175 -0.4231 -2.2564
  111OSM    H1T11393   1.085   4.340   6.254 -0.0522  0.7120  0.0114
  111OSM     NF11394   1.073   4.573   6.127 -0.2676 -0.2591  0.6566
  111OSM    HNF11395   0.977   4.593   6.141  0.1759  1.6929  1.0869
  111OSM    C2S11396   1.108   4.447   6.067 -0.3204 -0.2404  0.2185
  111OSM    H2S11397   1.191   4.465   5.995 -0.2034 -0.2563  0.3501
  111OSM    C3S11398   0.992   4.372   5.991 -0.5581  0.4672  0.4040
  111OSM    H3S11399   0.912   4.337   6.060  0.0846  2.3478  2.1532
  111OSM     O311400   1.030   4.251   5.927  0.3772 -0.2781  0.1778
  111OSM    HO311401   1.098   4.220   5.987  2.4620  1.4407 -1.1874
  111OSM    C4S11402   0.916   4.466   5.896  0.3544  0.7702 -0.2683
  111OSM    H4S11403   0.847   4.521   5.961  1.6527  0.9632  0.9819
  111OSM    C5S11404   0.917   4.478   5.763  0.0302 -0.3772  0.0702
  111OSM    H5S11405   0.971   4.406   5.701  1.9151 -0.5276  1.8206
  111OSM    C6S11406   0.841   4.581   5.697  1.2023 -0.2865  0.0009
  111OSM    H6S11407   0.892   4.680   5.692  0.3700  0.1075 -0.7767
  111OSM    H6T11408   0.750   4.596   5.758  1.8882  1.8193  0.5592
  111OSM    C7S11409   0.784   4.545   5.553 -0.8703  0.1979  0.5297
  111OSM    H7S11410   0.728   4.451   5.568 -4.2257  2.2131  1.0385
  111OSM    H7T11411   0.868   4.520   5.484 -1.5703  2.5204 -1.2262
  111OSM    C8S11412   0.700   4.665   5.489  0.8354  0.4655 -0.1352
  111OSM    H8S11413   0.764   4.753   5.508  1.3383 -0.1275  1.0043
  111OSM    H8T11414   0.611   4.686   5.552  0.0822  0.0352 -1.0462
  111OSM    C9S11415   0.661   4.637   5.350 -0.6294  0.0119  0.1244
  111OSM    H9S11416   0.566   4.579   5.341 -0.1029 -0.6191 -1.5871
  111OSM    H9T11417   0.722   4.564   5.294 -0.3538  1.5217 -1.6050
  111OSM   C10S11418   0.658   4.754   5.252 -0.4354 -0.0474 -0.2439
  111OSM   H10S11419   0.762   4.789   5.238 -0.6510 -0.1612 -2.3110
  111OSM   H10T11420   0.595   4.836   5.295  1.8097  1.4589  0.2501
  111OSM   C11S11421   0.596   4.713   5.115 -0.1225  0.5502 -0.6989
  111OSM   H11S11422   0.518   4.636   5.129 -2.0707  2.6128  0.0722
  111OSM   H11T11423   0.675   4.663   5.054 -1.0902 -0.1661 -1.3735
  111OSM   C12S11424   0.538   4.830   5.031  0.6650  0.5805  0.2237
  111OSM   H12S11425   0.612   4.912   5.019 -0.3650  1.4013 -0.6871
  111OSM   H12T11426   0.458   4.878   5.092  0.9339  2.6064 -0.9594
  111OSM   C13S11427   0.480   4.787   4.894 -0.7415 -0.5008 -0.6250
  111OSM   H13S11428   0.371   4.782   4.915 -0.9506  2.4104 -0.8314
  111OSM   H13T11429   0.531   4.695   4.858  2.3354  2.4989 -4.4573
  111OSM   C14S11430   0.506   4.893   4.785 -0.7736 -0.2647  0.5419
  111OSM   H14S11431   0.478   4.997   4.814 -0.7225  0.1568 -0.8442
  111OSM   H14T11432   0.440   4.861   4.701  2.2718 -3.3509 -0.7809
  111OSM   C15S11433   0.650   4.906   4.725  0.1242  0.0974  0.1281
  111OSM   H15S11434   0.688   4.811   4.682  1.2875  0.4368  0.3748
  111OSM   H15T11435   0.724   4.940   4.800  0.8524 -0.2548 -0.4274
  111OSM   C16S11436   0.648   5.007   4.612  0.0297 -0.7861  0.0164
  111OSM   H16S11437   0.612   5.106   4.647  0.4602 -0.6470  0.0700
  111OSM   H16T11438   0.588   4.963   4.530  2.0515 -3.1789 -0.2293
  111OSM   C17S11439   0.786   5.023   4.545 -0.0036 -0.1767 -0.0191
  111OSM   H17S11440   0.787   5.097   4.462  0.8706  1.0389  1.0715
  111OSM   H17T11441   0.823   4.927   4.503  1.8420  0.0789  1.0053
  111OSM   C18S11442   0.890   5.077   4.647 -0.5981 -0.3555 -0.2885
  111OSM   H18S11443   0.908   4.997   4.722 -3.4670 -0.7642 -0.0112
  111OSM   H18T11444   0.842   5.162   4.699 -1.7248 -1.1223 -0.0738
  111OSM   H18U11445   0.992   5.103   4.609  0.6877  0.4111  3.5013
  111OSM    C1F11446   1.172   4.657   6.168 -0.1263  0.3558  0.0618
  111OSM     OF11447   1.295   4.633   6.158  0.4865  0.2299 -0.1984
  111OSM    C2F11448   1.119   4.782   6.230  0.1747  0.5852  1.1229
  111OSM    H2F11449   1.089   4.758   6.334  1.7636 -0.8020  1.2857
  111OSM    H2G11450   1.027   4.813   6.176 -0.0112 -2.0388 -0.1220
  111OSM    C3F11451   1.213   4.909   6.218 -0.5616  0.2433  0.2371
  111OSM    H3F11452   1.313   4.886   6.260 -0.5188  0.9102  0.5043
  111OSM    H3G11453   1.176   4.994   6.279 -0.0435  0.9900 -0.4833
  111OSM    C4F11454   1.233   4.946   6.071  0.1376  0.4134  0.2955
  111OSM    H4F11455   1.264   4.853   6.019  0.1966 -0.0527  1.1494
  111OSM    H4G11456   1.319   5.016   6.083 -0.2545  0.7942  0.9665
  111OSM    C5F11457   1.120   5.030   6.006 -0.0474 -0.3036 -0.0907
  111OSM    H5F11458   1.110   5.127   6.059  0.2731  0.2619 -1.0497
  111OSM    H5G11459   1.022   4.978   6.011 -0.2240  0.1268  1.2041
  111OSM    C6F11460   1.140   5.046   5.848 -0.3941  0.5145  0.3008
  111OSM    H6F11461   1.246   5.061   5.821 -0.3303 -2.4888 -1.3615
  111OSM    H6G11462   1.085   5.138   5.818  0.0968  0.4909 -0.6878
  111OSM    C7F11463   1.078   4.926   5.767 -0.4605 -0.1320 -0.2836
  111OSM    H7F11464   0.979   4.896   5.807 -0.9216  0.3965 -1.0260
  111OSM    H7G11465   1.137   4.835   5.794  1.9733  0.6454 -2.7330
  111OSM    C8F11466   1.110   4.940   5.620  0.3316 -0.1652  0.4045
  111OSM    H8F11467   1.219   4.956   5.609  0.1181  1.1698  0.1413
  111OSM    H8G11468   1.066   5.031   5.573 -0.0080 -1.3685 -1.6985
  111OSM    C9F11469   1.067   4.820   5.533  0.2753 -0.0595  0.5726
  111OSM    H9F11470   1.071   4.726   5.589  0.7851 -0.7955 -0.6775
  111OSM   C10F11471   1.024   4.816   5.403  0.5769 -0.4139 -0.4050
  111OSM   H10F11472   1.009   4.718   5.353 -1.4642 -0.1080 -0.4031
  111OSM   C11F11473   1.026   4.938   5.311  0.1956  0.1141 -0.4699
  111OSM   H11F11474   1.091   5.024   5.340 -0.8934  1.1435 -1.0158
  111OSM   H11G11475   0.921   4.972   5.303 -0.5349 -2.3300 -1.5056
  111OSM   C12F11476   1.089   4.901   5.177  0.0355  0.7928 -0.1138
  111OSM   H12F11477   1.189   4.860   5.201 -0.5339 -1.8002 -1.9277
  111OSM   H12G11478   1.110   4.995   5.122 -1.8591  1.1606 -0.2403
  111OSM   C13F11479   0.999   4.811   5.083 -0.9255 -0.1970 -0.5746
  111OSM   H13F11480   0.892   4.839   5.076 -1.0307 -0.0557  1.3007
  111OSM   H13G11481   0.999   4.705   5.115 -1.0076  0.2263  0.8619
  111OSM   C14F11482   1.061   4.820   4.938 -0.7608  0.0126 -0.3419
  111OSM   H14F11483   1.170   4.804   4.928 -1.0151 -3.0528  1.2561
  111OSM   H14G11484   1.048   4.921   4.893 -1.2469 -0.6006 -1.6328
  111OSM   C15F11485   1.009   4.714   4.841  0.5114 -0.1329  0.2881
  111OSM   H15F11486   0.939   4.765   4.771  1.2975  0.8290  0.1854
  111OSM   H15G11487   0.963   4.630   4.897 -0.5109  1.2799  1.6202
  111OSM   C16F11488   1.117   4.645   4.751 -0.5559  0.2682  0.2310
  111OSM   H16F11489   1.194   4.596   4.814 -0.3188  0.0066 -0.2616
  111OSM   H16G11490   1.167   4.724   4.690 -1.5422  1.9147  1.4963
  111OSM   C17F11491   1.056   4.539   4.653 -0.2975  0.3679  0.4396
  111OSM   H17F11492   1.008   4.463   4.717 -3.0932  0.4272 -1.4737
  111OSM   H17G11493   1.137   4.489   4.595 -1.0214 -0.3729  0.0677
  111OSM   C18F11494   0.960   4.600   4.551  0.4030  0.4818 -0.1367
  111OSM   H18F11495   0.905   4.526   4.489  1.2232 -1.8637  1.8192
  111OSM   H18G11496   1.019   4.665   4.483 -0.0301  0.4771 -0.5105
  111OSM   H18H11497   0.883   4.662   4.601  0.0656  0.3350 -0.4797
  112OSM      N11498   4.341   1.083   6.203  0.2065  0.1248  0.2427
  112OSM    C1511499   4.453   1.091   6.303  0.5540 -0.0587 -1.1031
  112OSM   H15A11500   4.424   1.100   6.407  2.1128 -1.0668 -0.5622
  112OSM   H15B11501   4.514   1.178   6.286  0.6702 -0.7497 -4.5044
  112OSM   H15C11502   4.517   1.005   6.292  1.1869 -0.2189  2.9564
  112OSM    C1411503   4.279   0.946   6.221  0.2096 -0.5684  1.2439
  112OSM   H14A11504   4.350   0.865   6.213 -0.3648 -1.0395  0.8255
  112OSM   H14B11505   4.200   0.922   6.151  1.6811 -2.5186  0.1901
  112OSM   H14C11506   4.244   0.944   6.323  1.2186  2.1751  1.6758
  112OSM    C1311507   4.240   1.190   6.236  0.0398 -0.8122 -0.0900
  112OSM   H13A11508   4.277   1.291   6.245  1.3334 -0.9391 -3.2652
  112OSM   H13B11509   4.212   1.167   6.338 -1.1031 -1.7352 -0.6050
  112OSM   H13C11510   4.159   1.190   6.164 -1.2145 -0.8346  1.3052
  112OSM    C1211511   4.382   1.094   6.057 -0.6705  0.4480  0.5538
  112OSM   H12A11512   4.412   1.194   6.029 -1.1413 -0.1317 -2.1586
  112OSM   H12B11513   4.301   1.079   5.986 -0.0736  1.3629 -0.3298
  112OSM    C1111514   4.491   1.001   6.001  0.2142  0.3651 -0.3180
  112OSM   H11A11515   4.499   1.011   5.891 -0.3610 -0.3233 -0.4293
  112OSM   H11B11516   4.453   0.898   6.020  0.0083  0.1304 -1.9213
  112OSM      P11517   4.743   0.937   6.021  0.1536  0.2613 -0.2325
  112OSM    O1311518   4.868   1.007   6.060 -0.1340  0.0673  0.3940
  112OSM    O1411519   4.719   0.807   6.085 -0.3405 -0.3677  0.4200
  112OSM    O1111520   4.725   0.922   5.868  0.3978 -0.7476 -0.3270
  112OSM    O1211521   4.618   1.020   6.063 -0.2842  0.6614 -0.3192
  112OSM    C1S11522   4.840   0.913   5.780  0.0851  0.0085  0.3351
  112OSM    H1S11523   4.887   0.815   5.803  0.9412  0.8299  2.1369
  112OSM    H1T11524   4.922   0.987   5.795 -0.0763  0.4104 -0.7031
  112OSM     NF11525   4.906   0.877   5.539 -0.1959 -0.2588 -0.5406
  112OSM    HNF11526   4.950   0.954   5.493 -0.7303  0.2159 -0.2647
  112OSM    C2S11527   4.799   0.907   5.629 -0.2205  0.0379 -0.9664
  112OSM    H2S11528   4.717   0.836   5.607 -1.5804  1.8949 -2.0928
  112OSM    C3S11529   4.746   1.047   5.588 -0.6501 -0.4209 -0.2532
  112OSM    H3S11530   4.829   1.118   5.611  0.8476 -1.8765 -1.0804
  112OSM     O311531   4.639   1.088   5.673 -0.2191 -0.4504 -0.5145
  112OSM    HO311532   4.650   1.029   5.748  4.3479 -0.2470 -0.8693
  112OSM    C4S11533   4.713   1.042   5.443  0.6021  0.1043 -0.5524
  112OSM    H4S11534   4.799   1.028   5.375  1.6123 -0.5758  0.8510
  112OSM    C5S11535   4.588   1.033   5.392 -0.3346  0.1644 -0.2242
  112OSM    H5S11536   4.498   1.024   5.454 -1.5675 -2.0589 -2.2735
  112OSM    C6S11537   4.567   1.036   5.248 -0.1640 -0.0252  0.1669
  112OSM    H6S11538   4.569   1.141   5.213 -1.8044 -0.2308 -0.6258
  112OSM    H6T11539   4.464   0.998   5.227 -1.0906  1.2207  2.3300
  112OSM    C7S11540   4.668   0.963   5.156 -0.4786  0.7124 -0.1682
  112OSM    H7S11541   4.670   0.854   5.173 -1.6275  0.7694  0.3827
  112OSM    H7T11542   4.773   0.998   5.169  0.6851 -2.7552  0.2486
  112OSM    C8S11543   4.627   0.985   5.014 -0.7023 -0.1299  0.7585
  112OSM    H8S11544   4.630   1.094   4.992 -1.8945 -0.2425 -0.0320
  112OSM    H8T11545   4.522   0.952   4.998  0.5987 -3.3189 -1.9522
  112OSM    C9S11546   4.724   0.915   4.912  0.2673 -0.0523 -0.2629
  112OSM    H9S11547   4.731   0.809   4.945  0.3283  0.0218 -0.0394
  112OSM    H9T11548   4.824   0.950   4.944  0.1652 -0.1081  0.1220
  112OSM   C10S11549   4.700   0.934   4.763  0.5789  0.6444 -0.5609
  112OSM   H10S11550   4.604   0.897   4.723  0.8013  0.2320 -0.7096
  112OSM   H10T11551   4.778   0.874   4.711 -0.2440  0.1402 -1.2148
  112OSM   C11S11552   4.726   1.078   4.720 -0.4602 -1.0978 -0.1257
  112OSM   H11S11553   4.817   1.102   4.779  0.1893  1.0917 -1.9731
  112OSM   H11T11554   4.650   1.153   4.750  1.7175  1.0977  0.1163
  112OSM   C12S11555   4.749   1.107   4.572 -0.7323  0.6150  0.0828
  112OSM   H12S11556   4.829   1.039   4.536  0.1175  1.8337 -0.3599
  112OSM   H12T11557   4.773   1.211   4.539 -0.1889  0.7369  0.8385
  112OSM   C13S11558   4.622   1.081   4.497  0.1077 -0.4311  0.3439
  112OSM   H13S11559   4.538   1.148   4.526 -0.2237 -0.0096 -1.4902
  112OSM   H13T11560   4.585   0.979   4.520 -0.6517  0.1768  1.8858
  112OSM   C14S11561   4.649   1.099   4.342  0.2914 -0.4200 -0.0315
  112OSM   H14S11562   4.566   1.047   4.291 -0.8331  2.1269 -0.8816
  112OSM   H14T11563   4.737   1.041   4.305  2.0631  3.5923 -2.5395
  112OSM   C15S11564   4.651   1.239   4.292  0.6755  0.0367  0.1511
  112OSM   H15S11565   4.722   1.293   4.359 -0.9791  3.9604 -1.1403
  112OSM   H15T11566   4.548   1.280   4.298 -0.1882 -1.3899 -3.5655
  112OSM   C16S11567   4.707   1.251   4.152 -0.3759 -0.1725  1.0514
  112OSM   H16S11568   4.638   1.202   4.080 -1.7278  3.1552  0.0120
  112OSM   H16T11569   4.807   1.205   4.135  0.9464  2.3841  1.6289
  112OSM   C17S11570   4.722   1.402   4.110  0.1643 -0.8165 -0.1357
  112OSM   H17S11571   4.783   1.460   4.182 -1.1419  1.7355 -1.0253
  112OSM   H17T11572   4.622   1.450   4.115 -0.3199 -1.7215 -1.0038
  112OSM   C18S11573   4.774   1.417   3.971  0.4689  0.2245 -0.2211
  112OSM   H18S11574   4.761   1.523   3.939 -0.8443  0.1355 -0.0148
  112OSM   H18T11575   4.730   1.345   3.899 -1.3505  0.5559  0.5378
  112OSM   H18U11576   4.881   1.387   3.977  0.3551 -0.3667 -0.9780
  112OSM    C1F11577   4.951   0.750   5.531 -0.5298 -0.2619 -0.6965
  112OSM     OF11578   4.951   0.669   5.623  0.4761 -0.4398 -0.6684
  112OSM    C2F11579   5.007   0.717   5.402 -0.3267 -0.1748 -0.5534
  112OSM    H2F11580   5.083   0.636   5.414  2.0411  1.8169 -1.7691
  112OSM    H2G11581   5.032   0.805   5.340  0.2769 -0.2273 -0.3918
  112OSM    C3F11582   4.889   0.649   5.321 -0.7703  0.1675  0.0759
  112OSM    H3F11583   4.807   0.721   5.302 -0.6439  0.4645  0.6366
  112OSM    H3G11584   4.857   0.561   5.380 -1.6178  0.5153  0.1420
  112OSM    C4F11585   4.927   0.595   5.182 -0.0550 -0.3964 -0.0724
  112OSM    H4F11586   5.010   0.525   5.205 -0.8951 -0.8998  1.4738
  112OSM    H4G11587   4.977   0.671   5.117  0.0744  0.3924  0.9334
  112OSM    C5F11588   4.816   0.519   5.117  0.5615 -0.4660  0.3694
  112OSM    H5F11589   4.736   0.587   5.082  2.8068  0.9342 -2.2280
  112OSM    H5G11590   4.764   0.466   5.200 -0.1942  0.8045  0.7263
  112OSM    C6F11591   4.862   0.423   5.010 -0.4057  0.6130 -0.1671
  112OSM    H6F11592   4.776   0.363   4.974  1.0595 -0.4856 -1.9263
  112OSM    H6G11593   4.938   0.359   5.060  0.7047  1.1988 -1.0745
  112OSM    C7F11594   4.934   0.485   4.886  0.4074 -0.7290 -0.4823
  112OSM    H7F11595   5.026   0.532   4.927 -1.8768  2.4871  1.1646
  112OSM    H7G11596   4.868   0.565   4.848  2.5043  2.0380  1.5131
  112OSM    C8F11597   4.955   0.375   4.782  0.4920 -0.5324 -0.3822
  112OSM    H8F11598   4.865   0.314   4.758 -1.6138  2.0958  0.5991
  112OSM    H8G11599   5.025   0.304   4.830  0.6268  2.0767  3.5538
  112OSM    C9F11600   5.021   0.431   4.661  0.2441 -0.1790  0.2232
  112OSM    H9F11601   5.096   0.508   4.684  0.3865  0.1827 -1.4266
  112OSM   C10F11602   4.992   0.410   4.534  0.5028  0.3908 -0.2289
  112OSM   H10F11603   5.037   0.490   4.472  2.5532 -0.2114  0.4261
  112OSM   C11F11604   4.883   0.322   4.473  0.3505 -0.4416 -0.0790
  112OSM   H11F11605   4.785   0.328   4.526  1.5862 -2.5297  2.5989
  112OSM   H11G11606   4.913   0.215   4.483  0.5580 -0.4624 -0.8752
  112OSM   C12F11607   4.870   0.361   4.333  0.2107  0.5129  0.2826
  112OSM   H12F11608   4.954   0.325   4.269 -1.3187 -2.6858 -0.0364
  112OSM   H12G11609   4.837   0.466   4.319  1.6771  1.4574  3.5776
  112OSM   C13F11610   4.758   0.286   4.257 -0.1889  0.1753 -0.6489
  112OSM   H13F11611   4.670   0.281   4.325  0.3788 -0.1523  0.0689
  112OSM   H13G11612   4.792   0.182   4.236  0.0272  0.5240 -2.0371
  112OSM   C14F11613   4.711   0.341   4.115 -0.1292  0.2746 -0.3792
  112OSM   H14F11614   4.795   0.322   4.044 -1.5505 -0.2021 -1.9460
  112OSM   H14G11615   4.696   0.450   4.126  0.5487  0.4092 -0.7400
  112OSM   C15F11616   4.581   0.268   4.068  0.7054  0.3253  0.2632
  112OSM   H15F11617   4.596   0.158   4.067 -0.3748  0.1592  1.1272
  112OSM   H15G11618   4.565   0.292   3.961 -2.1763  1.6584  0.9248
  112OSM   C16F11619   4.459   0.307   4.154 -0.1939  0.4484 -0.2472
  112OSM   H16F11620   4.455   0.416   4.178  0.8840  0.2474  0.9239
  112OSM   H16G11621   4.470   0.250   4.249  0.8625  1.8741  0.5133
  112OSM   C17F11622   4.326   0.277   4.089 -0.3480  0.2450 -0.3440
  112OSM   H17F11623   4.297   0.358   4.019 -1.7178 -1.9696 -2.4292
  112OSM   H17G11624   4.243   0.284   4.162 -1.0001  4.4979 -1.3799
  112OSM   C18F11625   4.307   0.144   4.025  0.0532  0.4222 -0.1303
  112OSM   H18F11626   4.384   0.127   3.946 -0.7413 -0.9201 -0.6269
  112OSM   H18G11627   4.209   0.140   3.973  0.3589  0.1306 -0.6957
  112OSM   H18H11628   4.327   0.060   4.094  2.6071  2.1595  1.3400
  113OSM      N11629   0.320   2.980   6.334 -0.6640  0.2628 -1.1089
  113OSM    C1511630   0.374   2.849   6.387  0.2150 -0.1851 -0.2491
  113OSM   H15A11631   0.381   2.862   6.494 -0.7172  0.5298 -0.2772
  113OSM   H15B11632   0.473   2.829   6.346 -0.0275  1.0354 -1.4609
  113OSM   H15C11633   0.314   2.762   6.363  2.4278 -1.3337 -1.9255
  113OSM    C1411634   0.342   2.970   6.192 -0.0651  0.5409  0.2395
  113OSM   H14A11635   0.449   2.963   6.179 -0.2371  1.1539 -1.6275
  113OSM   H14B11636   0.298   3.061   6.154 -1.4326 -0.1307  0.1858
  113OSM   H14C11637   0.297   2.884   6.147  0.9460  1.5608 -2.8357
  113OSM    C1311638   0.179   2.997   6.376  0.2373 -0.3646  0.4451
  113OSM   H13A11639   0.128   2.917   6.325 -0.2935 -0.3996  1.0319
  113OSM   H13B11640   0.135   3.090   6.342 -0.2865 -1.2574 -1.3443
  113OSM   H13C11641   0.170   2.975   6.482  3.2033  1.0864  1.0663
  113OSM    C1211642   0.404   3.099   6.384  0.0333 -0.6337 -0.1238
  113OSM   H12A11643   0.509   3.079   6.366  0.7338  1.9937  0.7955
  113OSM   H12B11644   0.398   3.100   6.492 -2.4117  2.1787 -0.2307
  113OSM    C1111645   0.359   3.240   6.339 -0.0601  0.1516  0.1614
  113OSM   H11A11646   0.421   3.312   6.396 -0.4019  1.7412 -1.4220
  113OSM   H11B11647   0.256   3.254   6.379 -0.6721 -0.4532 -1.1688
  113OSM      P11648   0.242   3.342   6.132 -0.2299 -0.2354  0.1576
  113OSM    O1311649   0.115   3.273   6.168  0.7511 -0.4939  0.6700
  113OSM    O1411650   0.263   3.487   6.168  0.0919  0.3447  0.2828
  113OSM    O1111651   0.255   3.327   5.974 -0.2447  0.6541 -0.3461
  113OSM    O1211652   0.364   3.268   6.194 -0.1709 -0.3441 -0.0595
  113OSM    C1S11653   0.319   3.210   5.925 -0.4255 -0.6119  0.6328
  113OSM    H1S11654   0.242   3.129   5.919  0.4561 -1.6032  2.1406
  113OSM    H1T11655   0.395   3.167   5.994  2.0586  1.4959 -0.7468
  113OSM     NF11656   0.445   3.121   5.748  0.1709 -0.2639 -0.4608
  113OSM    HNF11657   0.541   3.102   5.769  0.9269 -0.5282 -3.8811
  113OSM    C2S11658   0.397   3.243   5.798 -0.0779  0.5876  0.6488
  113OSM    H2S11659   0.334   3.278   5.714  0.4839  1.2504  0.5028
  113OSM    C3S11660   0.504   3.347   5.822 -0.1107  0.3900  0.3487
  113OSM    H3S11661   0.580   3.307   5.892 -0.0687  1.2218  0.7912
  113OSM     O311662   0.460   3.472   5.879 -0.1324 -0.4679 -0.1086
  113OSM    HO311663   0.375   3.460   5.923 -0.2688 -1.5908 -0.6612
  113OSM    C4S11664   0.562   3.375   5.692  0.5721  0.2974 -0.5250
  113OSM    H4S11665   0.493   3.391   5.608  0.4215 -1.7005 -0.8101
  113OSM    C5S11666   0.695   3.369   5.678 -0.2543  0.9639 -0.4915
  113OSM    H5S11667   0.755   3.345   5.767 -1.0044  1.6465  0.2049
  113OSM    C6S11668   0.769   3.396   5.553 -0.2183  0.1634 -0.1684
  113OSM    H6S11669   0.861   3.334   5.555 -1.5587 -1.9475 -1.2108
  113OSM    H6T11670   0.799   3.502   5.561  2.4397 -0.6731  2.0867
  113OSM    C7S11671   0.712   3.359   5.414  0.0870 -0.4949  0.0467
  113OSM    H7S11672   0.780   3.405   5.340  0.2736 -2.0844 -0.7977
  113OSM    H7T11673   0.618   3.417   5.400  0.9808  1.0705  0.4947
  113OSM    C8S11674   0.678   3.214   5.382 -0.4624 -0.3199 -0.7063
  113OSM    H8S11675   0.594   3.179   5.446  0.0476 -3.4412 -1.6483
  113OSM    H8T11676   0.765   3.149   5.406  0.7056  1.5682  0.3216
  113OSM    C9S11677   0.651   3.185   5.236  0.0378 -0.6476  0.7275
  113OSM    H9S11678   0.546   3.221   5.230  0.4916  1.0173  2.3792
  113OSM    H9T11679   0.647   3.075   5.218  2.6057 -0.8449  1.2428
  113OSM   C10S11680   0.735   3.261   5.129  0.0762  0.1434 -0.5864
  113OSM   H10S11681   0.839   3.229   5.151 -1.0843 -3.3331  0.2096
  113OSM   H10T11682   0.742   3.372   5.133  4.1162 -0.0595  0.4575
  113OSM   C11S11683   0.681   3.211   4.994  0.0253 -0.8239  0.3397
  113OSM   H11S11684   0.573   3.236   4.985  0.0045 -0.3528  1.7507
  113OSM   H11T11685   0.701   3.102   4.984  1.2344 -0.4351 -1.7381
  113OSM   C12S11686   0.758   3.281   4.879 -0.3045 -0.1254 -0.3384
  113OSM   H12S11687   0.869   3.283   4.880 -0.3138  0.4719 -0.3405
  113OSM   H12T11688   0.725   3.386   4.890  0.5156  0.0863  0.1532
  113OSM   C13S11689   0.695   3.217   4.749 -0.2102  0.2727  0.2401
  113OSM   H13S11690   0.587   3.230   4.772 -0.3553  0.5580 -0.5857
  113OSM   H13T11691   0.723   3.110   4.744 -0.3298  0.1873  1.3402
  113OSM   C14S11692   0.734   3.276   4.609 -0.1739 -0.4005 -0.0260
  113OSM   H14S11693   0.699   3.381   4.615 -1.0611 -0.6287 -1.1215
  113OSM   H14T11694   0.677   3.214   4.537  0.1589 -2.0881  1.1350
  113OSM   C15S11695   0.882   3.276   4.575  0.5000  0.5684 -0.6547
  113OSM   H15S11696   0.935   3.328   4.658 -1.2986 -1.6909  2.0028
  113OSM   H15T11697   0.906   3.343   4.490  3.5844  1.9279  1.1983
  113OSM   C16S11698   0.959   3.141   4.546 -0.3201  0.6035 -0.7435
  113OSM   H16S11699   0.945   3.085   4.641  0.4745  2.2134  0.3364
  113OSM   H16T11700   1.066   3.154   4.519  0.1487 -0.4688  0.5316
  113OSM   C17S11701   0.893   3.057   4.440  0.4760 -0.3977  0.2265
  113OSM   H17S11702   0.878   3.124   4.352 -1.0620 -1.5765 -0.4278
  113OSM   H17T11703   0.793   3.030   4.480 -0.3510 -0.2779 -1.7136
  113OSM   C18S11704   0.955   2.928   4.382  0.3234 -0.2751 -0.2090
  113OSM   H18S11705   0.939   2.849   4.459 -1.7617 -0.5165 -0.8407
  113OSM   H18T11706   1.065   2.939   4.371  0.7322 -2.6282  1.2804
  113OSM   H18U11707   0.906   2.891   4.290 -2.9418 -2.6215  2.3385
  113OSM    C1F11708   0.363   3.027   5.693 -0.1094  0.7450 -0.3061
  113OSM     OF11709   0.250   3.051   5.655 -0.0486  0.0581  0.1912
  113OSM    C2F11710   0.420   2.890   5.682  0.1645  0.3440 -0.0886
  113OSM    H2F11711   0.345   2.811   5.699 -0.6255  0.3196 -3.3260
  113OSM    H2G11712   0.497   2.876   5.761 -0.1439  0.8328  0.3062
  113OSM    C3F11713   0.472   2.865   5.542 -0.1463 -0.3721 -0.1831
  113OSM    H3F11714   0.525   2.767   5.535 -0.2117 -0.4111 -0.1340
  113OSM    H3G11715   0.535   2.947   5.502 -0.5274 -0.4906 -1.0341
  113OSM    C4F11716   0.356   2.839   5.436 -0.2246 -0.5648 -0.8046
  113OSM    H4F11717   0.306   2.938   5.425  2.2461  0.9555  1.2943
  113OSM    H4G11718   0.283   2.763   5.474 -1.6945  0.9538 -0.5485
  113OSM    C5F11719   0.407   2.800   5.296 -0.9341 -0.2318 -0.6046
  113OSM    H5F11720   0.452   2.702   5.322 -0.9896  0.6919  3.2907
  113OSM    H5G11721   0.485   2.869   5.258 -0.3545 -0.6092 -0.1128
  113OSM    C6F11722   0.290   2.785   5.198 -0.5833 -0.3056 -0.7082
  113OSM    H6F11723   0.231   2.876   5.219  2.3227  1.1931  1.2747
  113OSM    H6G11724   0.238   2.691   5.227 -2.2485  0.1897 -1.9702
  113OSM    C7F11725   0.341   2.780   5.056  0.2736 -0.2779 -0.8725
  113OSM    H7F11726   0.410   2.695   5.037  1.0349  0.5397 -1.8015
  113OSM    H7G11727   0.391   2.879   5.055  0.2490 -0.2337  1.0093
  113OSM    C8F11728   0.233   2.765   4.943  0.4046 -0.9040  0.2618
  113OSM    H8F11729   0.157   2.843   4.964  0.9216 -0.6835  1.3246
  113OSM    H8G11730   0.183   2.670   4.973  1.3895 -0.8470  2.1951
  113OSM    C9F11731   0.287   2.761   4.801  0.3872  0.3274 -0.0021
  113OSM    H9F11732   0.281   2.660   4.757 -2.5225  0.1222  0.7601
  113OSM   C10F11733   0.349   2.854   4.735 -0.4702 -0.3103 -0.1572
  113OSM   H10F11734   0.371   2.846   4.628 -0.8719  1.8100 -0.4171
  113OSM   C11F11735   0.378   2.997   4.778  0.2007 -0.2877  1.3911
  113OSM   H11F11736   0.488   3.006   4.793  0.5119 -1.1616 -0.2401
  113OSM   H11G11737   0.324   3.016   4.873 -0.9198  2.7698  0.1926
  113OSM   C12F11738   0.327   3.096   4.674  0.3281  0.0147 -0.7643
  113OSM   H12F11739   0.334   3.201   4.711 -0.6187  0.8911 -2.9995
  113OSM   H12G11740   0.222   3.071   4.647 -0.0262  1.9336 -1.2464
  113OSM   C13F11741   0.401   3.098   4.545 -0.0535  0.6168  0.3515
  113OSM   H13F11742   0.425   2.992   4.524 -0.0055  0.6258  0.3613
  113OSM   H13G11743   0.499   3.151   4.547  1.1139 -1.5092  1.8968
  113OSM   C14F11744   0.327   3.155   4.428 -0.4412  0.8244  0.0652
  113OSM   H14F11745   0.227   3.108   4.439  0.6003 -1.6914 -0.8489
  113OSM   H14G11746   0.372   3.115   4.335 -0.2985 -1.1081  0.9539
  113OSM   C15F11747   0.327   3.307   4.424  0.7216 -0.4015  0.3834
  113OSM   H15F11748   0.429   3.351   4.414  0.3535  0.8343  1.8769
  113OSM   H15G11749   0.290   3.349   4.520 -1.0432  0.0159 -0.4587
  113OSM   C16F11750   0.251   3.382   4.311  0.0346  0.2526  0.6818
  113OSM   H16F11751   0.262   3.493   4.312  0.6453  0.2414 -1.9052
  113OSM   H16G11752   0.148   3.374   4.353  0.2466  1.5406  1.5039
  113OSM   C17F11753   0.275   3.345   4.168 -0.0842  0.6353 -0.0053
  113OSM   H17F11754   0.249   3.238   4.159 -0.9185  0.8364 -0.0951
  113OSM   H17G11755   0.382   3.356   4.140 -0.3454 -0.4132 -1.4620
  113OSM   C18F11756   0.185   3.424   4.071  0.5753  0.4655 -0.0413
  113OSM   H18F11757   0.179   3.533   4.093 -1.9018  0.1510  0.9631
  113OSM   H18G11758   0.086   3.380   4.093  0.5206 -0.3249 -1.7361
  113OSM   H18H11759   0.220   3.405   3.967  1.0485 -3.6174  0.7802
  114OSM      N11760   6.077   2.411   6.416 -0.0504 -0.2354 -0.1509
  114OSM    C1511761   6.046   2.363   6.284 -0.4676 -0.4206  0.6212
  114OSM   H15A11762   5.970   2.416   6.229 -0.8525 -0.8052  0.7793
  114OSM   H15B11763   6.027   2.257   6.284  0.7330 -0.6448 -1.0558
  114OSM   H15C11764   6.133   2.361   6.221 -1.2676 -1.6315 -0.4773
  114OSM    C1411765   6.105   2.556   6.411  0.1289  0.0510 -0.3405
  114OSM   H14A11766   6.189   2.587   6.351  0.8809  2.5371  1.8781
  114OSM   H14B11767   6.108   2.597   6.512 -0.0581 -2.0225  0.5293
  114OSM   H14C11768   6.027   2.614   6.363  0.2576  0.9529  0.4973
  114OSM    C1311769   5.961   2.385   6.503 -0.7950 -0.1868 -0.2059
  114OSM   H13A11770   5.926   2.283   6.499  1.5049 -1.0342  0.4593
  114OSM   H13B11771   5.878   2.451   6.482 -3.2689 -2.3601  2.3621
  114OSM   H13C11772   5.985   2.403   6.607  1.5184 -2.4977 -0.2853
  114OSM    C1211773   6.203   2.342   6.471  0.3062 -0.8074 -0.6611
  114OSM   H12A11774   6.189   2.235   6.476  0.5226 -0.8334 -0.5847
  114OSM   H12B11775   6.220   2.370   6.574  2.0940 -1.0744 -0.8657
  114OSM    C1111776   6.339   2.368   6.388 -0.1426  0.3966  0.6074
  114OSM   H11A11777   6.404   2.301   6.447  0.1011  0.4454  0.3949
  114OSM   H11B11778   6.356   2.475   6.414 -0.0116  0.3207  0.8317
  114OSM      P11779   6.449   2.390   6.147  0.0270 -0.0465  0.5333
  114OSM    O1311780   6.481   2.527   6.182  0.4559  0.1788  0.4161
  114OSM    O1411781   6.558   2.293   6.149 -0.0759 -0.0637  0.2942
  114OSM    O1111782   6.380   2.391   6.007 -0.2762 -0.7114  0.1256
  114OSM    O1211783   6.333   2.342   6.246  0.0336 -0.2963 -0.3456
  114OSM    C1S11784   6.322   2.273   5.958 -0.3509  0.9288  0.1542
  114OSM    H1S11785   6.227   2.240   6.003 -0.8386  1.5710 -0.3848
  114OSM    H1T11786   6.391   2.186   5.963 -1.8172 -0.2635 -0.1726
  114OSM     NF11787   6.209   2.163   5.776 -0.0299  0.5225  0.1145
  114OSM    HNF11788   6.264   2.091   5.733 -0.3836  1.2722 -1.6265
  114OSM    C2S11789   6.287   2.279   5.804 -0.0329 -0.3652  0.3901
  114OSM    H2S11790   6.230   2.374   5.795  0.4673 -0.1809 -0.8851
  114OSM    C3S11791   6.427   2.285   5.735 -0.5758 -1.2573 -0.3300
  114OSM    H3S11792   6.489   2.206   5.784  0.9360 -0.3044 -0.6680
  114OSM     O311793   6.502   2.399   5.773  0.1740 -0.1900 -0.6146
  114OSM    HO311794   6.452   2.450   5.838 -1.2469 -1.6173 -0.5665
  114OSM    C4S11795   6.401   2.276   5.584 -0.4203  0.0684 -0.4603
  114OSM    H4S11796   6.326   2.343   5.540 -0.7639 -0.3155 -0.4686
  114OSM    C5S11797   6.464   2.194   5.506 -0.5111  0.2580  0.2665
  114OSM    H5S11798   6.539   2.129   5.555  0.1738  0.2131 -0.8370
  114OSM    C6S11799   6.449   2.183   5.363  0.2873  0.6473  0.5965
  114OSM    H6S11800   6.385   2.099   5.328 -0.1055  1.9875 -1.9680
  114OSM    H6T11801   6.551   2.168   5.323 -0.7231 -1.1545 -1.4485
  114OSM    C7S11802   6.390   2.309   5.294  0.1503  0.6079  0.0654
  114OSM    H7S11803   6.463   2.392   5.307  1.4654 -0.7506  1.6005
  114OSM    H7T11804   6.289   2.335   5.333 -0.3841 -0.6857 -0.4206
  114OSM    C8S11805   6.373   2.276   5.147  0.1562 -0.5771  0.3078
  114OSM    H8S11806   6.294   2.200   5.129  3.3173 -3.6104 -1.1230
  114OSM    H8T11807   6.465   2.236   5.101  1.0672  0.4297  1.2041
  114OSM    C9S11808   6.327   2.410   5.082  0.3287 -0.2993 -0.2294
  114OSM    H9S11809   6.417   2.473   5.066 -0.4834  1.1639  0.7923
  114OSM    H9T11810   6.269   2.464   5.160 -0.8904 -1.2438 -0.4653
  114OSM   C10S11811   6.249   2.391   4.951 -0.5468 -0.2969 -0.4499
  114OSM   H10S11812   6.147   2.367   4.986  0.0931 -0.6938  1.1698
  114OSM   H10T11813   6.299   2.305   4.900  0.0779  0.7893 -1.7039
  114OSM   C11S11814   6.242   2.506   4.854  0.0096 -0.4338  0.6324
  114OSM   H11S11815   6.341   2.532   4.810  0.1153 -0.1256  1.0429
  114OSM   H11T11816   6.188   2.592   4.900 -1.9687 -1.2466 -0.1365
  114OSM   C12S11817   6.159   2.470   4.732 -0.5916  0.8889 -0.1550
  114OSM   H12S11818   6.063   2.452   4.784 -0.4689  0.0400 -0.2197
  114OSM   H12T11819   6.197   2.370   4.702 -0.1965  0.0643  2.9688
  114OSM   C13S11820   6.173   2.586   4.640 -0.3984 -0.8744 -0.1943
  114OSM   H13S11821   6.273   2.575   4.593  0.5039  1.4924  1.1103
  114OSM   H13T11822   6.161   2.688   4.681 -1.8516 -1.0012 -0.2586
  114OSM   C14S11823   6.065   2.588   4.531 -0.0591 -0.4759 -0.5481
  114OSM   H14S11824   6.065   2.487   4.484  0.7093 -2.0231  2.6722
  114OSM   H14T11825   6.095   2.666   4.456  1.7557 -0.8447 -0.2288
  114OSM   C15S11826   5.923   2.630   4.573 -0.0628  0.0051 -0.5054
  114OSM   H15S11827   5.941   2.693   4.662  1.4533  0.3073 -1.0129
  114OSM   H15T11828   5.874   2.540   4.615  0.5801 -0.0614  0.1019
  114OSM   C16S11829   5.837   2.706   4.469 -0.2400  0.3645 -0.4053
  114OSM   H16S11830   5.737   2.712   4.518 -0.3615  0.4810 -0.6657
  114OSM   H16T11831   5.817   2.643   4.379  1.5421  0.8219 -1.1388
  114OSM   C17S11832   5.896   2.838   4.420  0.0241  0.1911  0.9077
  114OSM   H17S11833   5.969   2.819   4.338 -1.3679 -1.5189  0.0308
  114OSM   H17T11834   5.954   2.894   4.497  0.9907  2.2247 -1.1996
  114OSM   C18S11835   5.784   2.941   4.374 -0.6326  1.0464 -0.0052
  114OSM   H18S11836   5.709   2.961   4.454 -0.0379 -2.1839  1.4412
  114OSM   H18T11837   5.721   2.886   4.301  1.1007 -1.1403  0.1088
  114OSM   H18U11838   5.813   3.032   4.316 -0.3970  0.3450 -1.0034
  114OSM    C1F11839   6.079   2.140   5.803  0.3271 -0.5386  0.4462
  114OSM     OF11840   6.014   2.222   5.867 -0.1709 -0.1808 -0.1527
  114OSM    C2F11841   6.027   2.005   5.766 -0.3463  0.2996  0.9010
  114OSM    H2F11842   5.959   1.972   5.847 -2.0009  1.2945 -0.0556
  114OSM    H2G11843   6.113   1.935   5.760  0.2239  1.1203 -0.9190
  114OSM    C3F11844   5.948   2.012   5.630 -0.1542  0.3199 -0.9161
  114OSM    H3F11845   5.878   2.099   5.635 -0.0047  0.3472  1.0915
  114OSM    H3G11846   5.903   1.911   5.621  0.6080 -0.1005 -0.1131
  114OSM    C4F11847   6.030   2.048   5.506 -0.0841 -0.3193  0.0254
  114OSM    H4F11848   6.134   2.009   5.505  0.3688  0.6563  2.8906
  114OSM    H4G11849   6.040   2.158   5.508 -1.3785 -0.1160 -2.8136
  114OSM    C5F11850   5.955   2.018   5.379  0.4806 -0.5109 -0.0981
  114OSM    H5F11851   5.858   2.072   5.380  1.6785  1.8235 -2.1861
  114OSM    H5G11852   5.940   1.908   5.382  0.0877 -0.5030 -1.3664
  114OSM    C6F11853   6.027   2.026   5.246 -0.5852  0.1194 -0.5247
  114OSM    H6F11854   6.130   1.990   5.225 -0.2935  0.2810  0.5837
  114OSM    H6G11855   6.032   2.131   5.209 -2.7752 -0.2586 -1.9789
  114OSM    C7F11856   5.942   1.964   5.133 -0.1019  0.2239  0.7837
  114OSM    H7F11857   5.849   2.023   5.121  1.2685  1.8839 -2.3510
  114OSM    H7G11858   5.928   1.859   5.164  1.6396 -0.2334  0.0733
  114OSM    C8F11859   6.016   1.950   5.000  0.2937  0.0326  0.3463
  114OSM    H8F11860   5.936   1.898   4.943  0.3433 -0.4293  0.6938
  114OSM    H8G11861   6.110   1.891   4.996  0.7247  0.7816 -0.5793
  114OSM    C9F11862   6.044   2.089   4.942 -0.0130 -0.2956 -0.0105
  114OSM    H9F11863   6.122   2.144   4.997 -1.0836  2.0828 -0.8162
  114OSM   C10F11864   5.987   2.137   4.831 -0.3362 -0.4453 -0.1630
  114OSM   H10F11865   6.011   2.237   4.791 -1.6193 -0.8157 -1.9165
  114OSM   C11F11866   5.885   2.066   4.749  0.3946  0.3428  0.0066
  114OSM   H11F11867   5.785   2.113   4.747  1.0160  1.6775 -1.6516
  114OSM   H11G11868   5.864   1.962   4.779  2.1850 -0.3620 -1.0876
  114OSM   C12F11869   5.917   2.045   4.600 -0.5331  0.1227  0.3045
  114OSM   H12F11870   5.829   1.998   4.551  0.2699 -1.5709  0.4544
  114OSM   H12G11871   6.000   1.971   4.593  0.0653  0.7269  0.9157
  114OSM   C13F11872   5.950   2.179   4.530  0.9843  0.5311  0.8348
  114OSM   H13F11873   6.049   2.217   4.564  1.0353  0.5806  0.6361
  114OSM   H13G11874   5.875   2.251   4.569  0.8847  1.7974 -1.5626
  114OSM   C14F11875   5.937   2.170   4.381 -0.2317 -0.2719  0.1144
  114OSM   H14F11876   5.839   2.131   4.346  0.7591 -1.7685 -1.0194
  114OSM   H14G11877   6.021   2.123   4.325 -1.2969  0.1919 -1.9242
  114OSM   C15F11878   5.939   2.315   4.314  0.0350 -0.6327  0.0078
  114OSM   H15F11879   6.039   2.362   4.322  0.5192 -1.6467 -0.0523
  114OSM   H15G11880   5.868   2.380   4.369 -0.2752  1.6148 -2.8896
  114OSM   C16F11881   5.906   2.308   4.168 -0.2723  0.1211  0.0915
  114OSM   H16F11882   5.812   2.251   4.149 -0.2855 -0.3952  1.6316
  114OSM   H16G11883   5.994   2.256   4.125  0.9123  1.1186  1.2628
  114OSM   C17F11884   5.888   2.438   4.094  0.0546  0.0904  0.4045
  114OSM   H17F11885   5.787   2.477   4.116  0.1208  0.4129  0.1334
  114OSM   H17G11886   5.902   2.417   3.986  0.4291 -0.5021  0.5638
  114OSM   C18F11887   5.995   2.536   4.131 -0.5387 -0.5516 -0.6488
  114OSM   H18F11888   5.979   2.569   4.235 -0.9298 -0.3812 -0.7617
  114OSM   H18G11889   5.996   2.626   4.066  0.7296 -1.1492 -1.4960
  114OSM   H18H11890   6.097   2.490   4.127 -1.0845 -1.7341 -1.3300
  115OSM      N11891   6.190   4.925   6.326 -0.3362  0.7330 -0.7988
  115OSM    C1511892   6.223   5.034   6.422  0.6012  0.5813  0.4275
  115OSM   H15A11893   6.149   5.111   6.438 -0.0727  0.3675 -1.4971
  115OSM   H15B11894   6.316   5.086   6.402  0.6633 -0.2460 -1.4805
  115OSM   H15C11895   6.235   4.997   6.523 -2.8276 -1.9141 -0.0104
  115OSM    C1411896   6.293   4.811   6.341 -0.7085  0.9024  1.3915
  115OSM   H14A11897   6.291   4.767   6.440  1.4230  2.5093  2.1961
  115OSM   H14B11898   6.394   4.850   6.334 -0.8625  0.9299 -0.8816
  115OSM   H14C11899   6.291   4.729   6.271 -0.4119  1.2633  0.9559
  115OSM    C1311900   6.054   4.872   6.358 -0.0468  0.0143 -0.0536
  115OSM   H13A11901   5.978   4.946   6.375 -0.3108 -0.4440  0.7928
  115OSM   H13B11902   6.059   4.820   6.453 -0.5078  1.7885  0.9622
  115OSM   H13C11903   6.041   4.807   6.273 -0.8656 -1.1513  0.9521
  115OSM    C1211904   6.193   4.990   6.186 -0.8780 -0.5873 -0.5773
  115OSM   H12A11905   6.282   5.049   6.173  0.8331 -2.9609 -0.0925
  115OSM   H12B11906   6.110   5.059   6.189  0.8263  1.4802 -0.2026
  115OSM    C1111907   6.186   4.902   6.060 -0.4423  0.4390  0.2163
  115OSM   H11A11908   6.276   4.836   6.057 -1.1499 -0.4900 -1.5456
  115OSM   H11B11909   6.188   4.969   5.971 -2.3425 -0.2328 -0.3625
  115OSM      P11910   5.934   4.882   6.005  0.0778 -0.0160  0.0445
  115OSM    O1311911   5.826   4.777   6.023 -0.0702 -0.4956 -0.1410
  115OSM    O1411912   5.913   5.011   6.078 -0.2439  0.5131 -0.2394
  115OSM    O1111913   5.960   4.915   5.850 -0.1990  0.1068 -0.9430
  115OSM    O1211914   6.071   4.818   6.051  0.0852  0.5859  0.0280
  115OSM    C1S11915   5.968   4.819   5.747 -0.1368  0.4000  0.5258
  115OSM    H1S11916   5.885   4.746   5.741 -0.1731  0.3829  1.1821
  115OSM    H1T11917   6.060   4.761   5.771  0.1440  0.1812 -1.0648
  115OSM     NF11918   5.960   4.801   5.510 -0.1198  0.3957  0.5987
  115OSM    HNF11919   6.037   4.751   5.471  1.1561  1.8170  1.2736
  115OSM    C2S11920   5.992   4.895   5.614 -0.2285  0.7572 -0.0608
  115OSM    H2S11921   5.918   4.978   5.618 -3.1383 -1.8686  4.2390
  115OSM    C3S11922   6.127   4.961   5.593 -0.0029 -0.4017  1.2745
  115OSM    H3S11923   6.214   4.894   5.607  2.5694  2.5042 -0.2548
  115OSM     O311924   6.150   5.065   5.686 -0.4720 -0.3327  0.5718
  115OSM    HO311925   6.076   5.072   5.747 -3.0786 -3.3469 -2.0779
  115OSM    C4S11926   6.134   5.013   5.448 -0.2911  0.1165 -0.1553
  115OSM    H4S11927   6.038   5.054   5.413  0.0873  0.4329 -0.8330
  115OSM    C5S11928   6.246   5.005   5.373 -0.4556 -0.2585  0.4216
  115OSM    H5S11929   6.334   4.951   5.411 -0.7435 -1.3511 -0.4557
  115OSM    C6S11930   6.259   5.065   5.234 -0.0288  0.3983  0.6655
  115OSM    H6S11931   6.323   5.156   5.222 -0.9605  1.1984  1.6103
  115OSM    H6T11932   6.164   5.105   5.192 -0.0991 -1.1714 -0.6764
  115OSM    C7S11933   6.313   4.959   5.136  0.4893 -0.4142 -0.6708
  115OSM    H7S11934   6.327   5.012   5.039  1.7342  1.3945  0.4687
  115OSM    H7T11935   6.236   4.880   5.133 -0.6510  0.7367 -2.3058
  115OSM    C8S11936   6.446   4.898   5.174 -0.6288  0.1051  0.2672
  115OSM    H8S11937   6.430   4.856   5.276 -1.8335 -2.5708 -0.9690
  115OSM    H8T11938   6.518   4.982   5.183  0.2127 -0.3993 -1.5696
  115OSM    C9S11939   6.496   4.781   5.089 -0.7266  0.1026  0.8379
  115OSM    H9S11940   6.414   4.708   5.079  0.1714 -1.0253  1.5853
  115OSM    H9T11941   6.585   4.733   5.135  0.5534  0.6225 -1.0046
  115OSM   C10S11942   6.540   4.817   4.948  0.1821  0.5550  0.2333
  115OSM   H10S11943   6.629   4.883   4.954  2.1379 -1.6746 -2.3475
  115OSM   H10T11944   6.463   4.872   4.891 -0.5964 -2.0742 -1.3648
  115OSM   C11S11945   6.583   4.691   4.868 -0.1456  0.1453 -0.1647
  115OSM   H11S11946   6.507   4.611   4.880 -0.7031  0.8077  0.7827
  115OSM   H11T11947   6.676   4.649   4.913  0.2858  0.2113 -0.9958
  115OSM   C12S11948   6.626   4.737   4.725  0.5363  0.5863 -0.1735
  115OSM   H12S11949   6.732   4.707   4.712  0.9739  0.6517  2.8802
  115OSM   H12T11950   6.620   4.848   4.717  2.5238  0.7958  0.8187
  115OSM   C13S11951   6.550   4.677   4.608  0.6107 -0.7777 -0.1625
  115OSM   H13S11952   6.547   4.566   4.614 -0.5987 -0.7142  0.3717
  115OSM   H13T11953   6.592   4.714   4.512  1.7749  0.5415  0.8288
  115OSM   C14S11954   6.407   4.728   4.607 -0.0094  0.9422 -0.4654
  115OSM   H14S11955   6.395   4.836   4.629 -0.4186  0.8335 -0.1333
  115OSM   H14T11956   6.349   4.662   4.675  1.2270 -0.9291 -1.1944
  115OSM   C15S11957   6.344   4.725   4.469  0.0935  0.6684  0.6722
  115OSM   H15S11958   6.396   4.799   4.405 -1.1460  3.0888  2.3893
  115OSM   H15T11959   6.242   4.760   4.496 -0.1476 -0.6744  1.5294
  115OSM   C16S11960   6.333   4.581   4.413 -0.2607  0.2754  0.2349
  115OSM   H16S11961   6.272   4.519   4.484 -0.0165  0.9889  1.0717
  115OSM   H16T11962   6.432   4.532   4.416 -0.1770  0.2311 -2.3026
  115OSM   C17S11963   6.276   4.574   4.274  0.2759  1.1368  0.0361
  115OSM   H17S11964   6.308   4.661   4.211  0.3233  0.1069 -1.3861
  115OSM   H17T11965   6.166   4.580   4.288 -0.1928  2.1948 -3.4679
  115OSM   C18S11966   6.319   4.449   4.201  0.7384 -0.1867 -0.3349
  115OSM   H18S11967   6.326   4.366   4.275  0.1438 -0.6185 -0.7523
  115OSM   H18T11968   6.420   4.451   4.154  1.6298 -0.5365  1.5192
  115OSM   H18U11969   6.247   4.410   4.125  0.6468  1.4854 -1.1278
  115OSM    C1F11970   5.838   4.757   5.478 -0.3437  0.4753 -0.1724
  115OSM     OF11971   5.746   4.784   5.549  0.1553  0.0887  0.0475
  115OSM    C2F11972   5.834   4.675   5.357  0.3418 -0.2133 -0.1957
  115OSM    H2F11973   5.726   4.665   5.335  0.7601 -1.2006 -1.8661
  115OSM    H2G11974   5.860   4.572   5.392  0.9786  0.1598  0.4360
  115OSM    C3F11975   5.918   4.725   5.244 -0.1429  0.7627  0.3515
  115OSM    H3F11976   6.027   4.735   5.263  0.1471 -0.4245 -0.6255
  115OSM    H3G11977   5.885   4.831   5.240 -0.5004  0.7089  1.5972
  115OSM    C4F11978   5.888   4.678   5.105  0.0934 -0.2756  0.5771
  115OSM    H4F11979   5.782   4.710   5.093 -0.5266 -2.5179 -0.0782
  115OSM    H4G11980   5.893   4.568   5.093 -0.4030 -0.1787 -0.5599
  115OSM    C5F11981   5.970   4.756   4.997 -0.5064  0.0994  0.5881
  115OSM    H5F11982   6.072   4.716   5.015 -1.5546 -2.6386  0.8014
  115OSM    H5G11983   5.983   4.864   5.018  1.2690  0.3408 -1.4828
  115OSM    C6F11984   5.911   4.740   4.856  0.2921  0.3869  0.3657
  115OSM    H6F11985   5.848   4.831   4.844  0.8286  0.7453  0.2357
  115OSM    H6G11986   5.849   4.648   4.852 -0.4779  0.8223  2.0596
  115OSM    C7F11987   6.013   4.756   4.735  0.9386  0.3972 -0.8029
  115OSM    H7F11988   6.075   4.664   4.736 -0.9640 -0.8927  0.2370
  115OSM    H7G11989   6.083   4.840   4.757  1.1493  0.2597 -0.9395
  115OSM    C8F11990   5.944   4.771   4.600  0.5118 -0.5120  0.0690
  115OSM    H8F11991   5.885   4.679   4.578  0.3612 -0.4680  0.2847
  115OSM    H8G11992   6.031   4.772   4.531  0.7702 -2.5682  0.3336
  115OSM    C9F11993   5.853   4.893   4.595 -0.4704 -0.3610  0.7121
  115OSM    H9F11994   5.794   4.913   4.686  0.5849  0.5882  1.1950
  115OSM   C10F11995   5.817   4.953   4.481 -0.0133  0.3762 -0.6391
  115OSM   H10F11996   5.759   5.046   4.489 -1.3113 -0.4525 -0.2193
  115OSM   C11F11997   5.856   4.915   4.342  0.2629  0.0615  1.2512
  115OSM   H11F11998   5.772   4.859   4.296 -0.4834  1.3378  1.0089
  115OSM   H11G11999   5.948   4.854   4.333  0.3935  0.3211  0.8148
  115OSM   C12F12000   5.868   5.044   4.254  0.3267  0.5658  0.7656
  115OSM   H12F12001   5.940   5.114   4.302 -0.1966  1.0380  0.8619
  115OSM   H12G12002   5.774   5.103   4.248  0.9918  1.5863  0.2959
  115OSM   C13F12003   5.920   5.019   4.105  0.2049 -0.3587 -0.6885
  115OSM   H13F12004   5.846   4.954   4.053 -1.1187  0.1217  0.5532
  115OSM   H13G12005   6.007   4.951   4.113 -1.0085 -1.9971 -1.0461
  115OSM   C14F12006   5.923   5.145   4.019 -1.1023 -0.3870  0.3158
  115OSM   H14F12007   5.998   5.217   4.058  0.0381 -0.6534 -1.3218
  115OSM   H14G12008   5.827   5.202   4.017 -1.0295 -0.2764 -2.3038
  115OSM   C15F12009   5.945   5.102   3.871 -0.3805 -0.8056  0.7659
  115OSM   H15F12010   5.854   5.058   3.824  0.1749 -0.4000 -0.7203
  115OSM   H15G12011   6.026   5.029   3.853 -1.9483 -2.3402 -0.2455
  115OSM   C16F12012   5.968   5.226   3.780  0.2833  0.0100  0.2372
  115OSM   H16F12013   6.057   5.280   3.820 -0.6478  2.1125 -0.4798
  115OSM   H16G12014   5.885   5.297   3.799  1.6413  1.3252  1.3905
  115OSM   C17F12015   5.999   5.193   3.626  0.1659 -0.2677 -0.2061
  115OSM   H17F12016   6.068   5.106   3.625  0.2973 -0.1789  0.6950
  115OSM   H17G12017   6.049   5.277   3.573  1.5199 -1.8597 -1.4936
  115OSM   C18F12018   5.872   5.146   3.551  0.8513 -0.1708 -0.7082
  115OSM   H18F12019   5.895   5.159   3.443  0.1843  1.3875 -0.6738
  115OSM   H18G12020   5.789   5.211   3.587  1.7180  0.9871 -0.7601
  115OSM   H18H12021   5.842   5.042   3.577 -2.1848  0.6675 -0.5572
  116OSM      N12022   6.230   1.698   6.453 -0.1499 -0.2336  0.2781
  116OSM    C1512023   6.372   1.698   6.434 -0.6527  0.3091 -0.1254
  116OSM   H15A12024   6.404   1.801   6.427  0.1157  0.0573 -0.4028
  116OSM   H15B12025   6.394   1.657   6.336  0.8478 -0.8932  0.7009
  116OSM   H15C12026   6.427   1.653   6.515  1.0716  2.9010  0.2330
  116OSM    C1412027   6.174   1.556   6.456  0.0229 -0.0905  0.1599
  116OSM   H14A12028   6.070   1.561   6.485  0.4697  0.2501  1.7334
  116OSM   H14B12029   6.223   1.507   6.539 -0.2050  0.5124  0.6521
  116OSM   H14C12030   6.193   1.497   6.367 -1.9116 -0.6203  0.0821
  116OSM    C1312031   6.197   1.752   6.587 -1.0587 -0.0308 -0.8257
  116OSM   H13A12032   6.095   1.732   6.616 -0.0270 -3.0658  0.9644
  116OSM   H13B12033   6.215   1.859   6.595 -0.7013 -0.0534 -1.2837
  116OSM   H13C12034   6.264   1.709   6.661  1.1468  1.5043 -1.8663
  116OSM    C1212035   6.156   1.781   6.352  0.7428 -0.1999 -0.9941
  116OSM   H12A12036   6.184   1.886   6.358  1.3246 -0.1595 -3.8166
  116OSM   H12B12037   6.053   1.785   6.385  1.2993  0.2360  0.7611
  116OSM    C1112038   6.138   1.728   6.207  0.5310  0.1548 -1.2040
  116OSM   H11A12039   6.055   1.786   6.161 -0.2791  1.7269  2.1120
  116OSM   H11B12040   6.094   1.626   6.210  2.1986 -0.5532  1.7385
  116OSM      P12041   6.306   1.857   6.058  0.0822 -0.0507 -0.0791
  116OSM    O1312042   6.196   1.956   6.084  0.2024  0.4690 -0.6029
  116OSM    O1412043   6.444   1.888   6.097  0.2149 -0.7122  0.0479
  116OSM    O1112044   6.311   1.804   5.907  0.6293 -0.3950 -0.7202
  116OSM    O1212045   6.262   1.725   6.133 -0.1055 -0.5260  0.9506
  116OSM    C1S12046   6.408   1.698   5.873  0.5861 -0.1422 -0.5272
  116OSM    H1S12047   6.368   1.598   5.902  0.3110 -0.4815 -2.0316
  116OSM    H1T12048   6.506   1.714   5.922  1.3828 -1.2737 -1.7166
  116OSM     NF12049   6.520   1.572   5.690  0.8439 -0.4460  0.8734
  116OSM    HNF12050   6.614   1.592   5.716  1.0920 -1.0314  0.4249
  116OSM    C2S12051   6.439   1.692   5.718  0.3119 -0.1183 -0.1786
  116OSM    H2S12052   6.348   1.665   5.661  0.3651  2.1776 -1.4179
  116OSM    C3S12053   6.486   1.826   5.664 -0.3712 -0.2503  0.3259
  116OSM    H3S12054   6.572   1.852   5.729 -0.3251  0.6555 -0.0906
  116OSM     O312055   6.390   1.929   5.675  0.0595 -0.2703 -0.4414
  116OSM    HO312056   6.332   1.890   5.740 -1.8700  1.8163 -0.8149
  116OSM    C4S12057   6.535   1.807   5.519  0.0451  0.1256  0.1219
  116OSM    H4S12058   6.496   1.716   5.471 -0.8626 -0.0874  1.2207
  116OSM    C5S12059   6.628   1.885   5.460  0.2133 -0.6866 -0.3065
  116OSM    H5S12060   6.661   1.970   5.522 -0.8749  1.0591 -2.0428
  116OSM    C6S12061   6.675   1.867   5.316 -0.1033  0.0361 -0.7069
  116OSM    H6S12062   6.774   1.818   5.316  1.6913  3.5228  0.1329
  116OSM    H6T12063   6.686   1.972   5.280  3.5735 -0.0777 -0.1021
  116OSM    C7S12064   6.594   1.790   5.216 -0.6343  0.7340 -0.6681
  116OSM    H7S12065   6.587   1.681   5.241 -1.0465 -0.1572 -4.3590
  116OSM    H7T12066   6.650   1.804   5.121 -0.2824  2.1320 -0.2524
  116OSM    C8S12067   6.448   1.834   5.195 -0.7698 -0.2133  0.2572
  116OSM    H8S12068   6.448   1.933   5.145  0.3598 -0.1868  0.2953
  116OSM    H8T12069   6.399   1.850   5.293 -0.8865  1.4698 -0.0562
  116OSM    C9S12070   6.343   1.736   5.126 -0.6899  0.3185 -0.0354
  116OSM    H9S12071   6.239   1.769   5.145 -1.5096 -1.2338 -1.6402
  116OSM    H9T12072   6.367   1.635   5.165 -2.3195  0.3234  0.9917
  116OSM   C10S12073   6.362   1.723   4.978 -0.1658  0.2028  0.3678
  116OSM   H10S12074   6.471   1.720   4.959 -0.3249 -0.2830 -0.4817
  116OSM   H10T12075   6.313   1.807   4.925  1.1113 -0.3338 -1.7353
  116OSM   C11S12076   6.299   1.598   4.925  0.3213  0.2458  0.0134
  116OSM   H11S12077   6.209   1.578   4.987  0.3973  0.5479  0.2256
  116OSM   H11T12078   6.366   1.511   4.944 -0.8598 -0.4645  0.9974
  116OSM   C12S12079   6.261   1.616   4.782 -0.2786  0.4804  0.1195
  116OSM   H12S12080   6.250   1.516   4.734 -2.5256  1.0410 -0.6120
  116OSM   H12T12081   6.340   1.673   4.729  1.6012 -0.1461  2.1798
  116OSM   C13S12082   6.123   1.680   4.752 -0.5662 -0.0817 -0.1885
  116OSM   H13S12083   6.139   1.782   4.792  2.7798 -1.2925  1.7747
  116OSM   H13T12084   6.050   1.618   4.807 -0.2121  1.4743  2.1091
  116OSM   C14S12085   6.084   1.672   4.603 -0.6189  0.0138 -0.5340
  116OSM   H14S12086   6.124   1.578   4.558  0.2860  1.1973 -2.2434
  116OSM   H14T12087   6.115   1.764   4.550 -1.4328  1.6751  1.7848
  116OSM   C15S12088   5.931   1.659   4.585 -0.2198 -0.7121  0.2109
  116OSM   H15S12089   5.874   1.736   4.640  0.6415  0.2330 -0.2013
  116OSM   H15T12090   5.893   1.563   4.626  0.2240 -1.7154 -1.6277
  116OSM   C16S12091   5.891   1.668   4.435  0.1151 -0.6527 -0.0036
  116OSM   H16S12092   5.926   1.765   4.393  2.5461 -0.6075  1.9477
  116OSM   H16T12093   5.780   1.662   4.439 -0.1527  2.1235 -1.9518
  116OSM   C17S12094   5.951   1.559   4.357  0.1997  0.0511  0.2117
  116OSM   H17S12095   5.970   1.482   4.434 -2.2461  1.5281  2.3764
  116OSM   H17T12096   6.047   1.589   4.310  0.0208 -0.9189 -0.8002
  116OSM   C18S12097   5.853   1.499   4.253 -0.0213  0.7505  0.2909
  116OSM   H18S12098   5.890   1.403   4.213  0.6089 -0.5113  3.6801
  116OSM   H18T12099   5.846   1.578   4.175 -0.7966 -0.0954 -0.5049
  116OSM   H18U12100   5.757   1.469   4.301  0.2259 -1.1517 -0.3677
  116OSM    C1F12101   6.466   1.446   5.706 -0.5489 -0.5711 -0.2209
  116OSM     OF12102   6.341   1.432   5.711 -0.3732 -0.2757  0.6559
  116OSM    C2F12103   6.572   1.329   5.721 -0.1863 -0.5371  0.0174
  116OSM    H2F12104   6.516   1.239   5.754  0.8948 -1.8283 -1.5897
  116OSM    H2G12105   6.642   1.367   5.798 -0.3081 -1.9123  0.8222
  116OSM    C3F12106   6.656   1.299   5.590 -0.3522 -0.6276 -0.1398
  116OSM    H3F12107   6.745   1.242   5.624 -0.6641 -0.6014  0.7219
  116OSM    H3G12108   6.689   1.400   5.558 -2.0463 -0.1574 -0.4059
  116OSM    C4F12109   6.585   1.230   5.471  0.4943 -0.4209 -0.2029
  116OSM    H4F12110   6.485   1.278   5.470  1.1151  1.0303  2.7416
  116OSM    H4G12111   6.564   1.124   5.499  1.6926 -0.4958  0.4613
  116OSM    C5F12112   6.658   1.236   5.338  0.3046  0.5004 -0.3971
  116OSM    H5F12113   6.597   1.187   5.259  1.1765 -0.3416 -0.5493
  116OSM    H5G12114   6.759   1.191   5.345  0.3063  0.5619  0.0002
  116OSM    C6F12115   6.657   1.383   5.282  0.4499  0.1490 -0.4366
  116OSM    H6F12116   6.711   1.441   5.360 -1.7433  0.2851  1.0280
  116OSM    H6G12117   6.552   1.417   5.281  0.7380  1.0338 -1.5270
  116OSM    C7F12118   6.731   1.378   5.153 -0.8219  0.7642  0.9054
  116OSM    H7F12119   6.683   1.296   5.095 -0.2672 -0.1804  1.7603
  116OSM    H7G12120   6.835   1.341   5.170 -0.7900  1.3268  1.9798
  116OSM    C8F12121   6.734   1.508   5.066  0.1252  0.9116 -0.0943
  116OSM    H8F12122   6.770   1.572   5.150 -2.6368  1.7092  0.5355
  116OSM    H8G12123   6.625   1.518   5.047 -0.5740 -1.9849  1.9138
  116OSM    C9F12124   6.827   1.486   4.950  0.0527  0.2059  0.3097
  116OSM    H9F12125   6.913   1.422   4.978  1.5887  0.8411 -2.7288
  116OSM   C10F12126   6.821   1.538   4.828  0.1312  0.0461  0.1109
  116OSM   H10F12127   6.895   1.503   4.755  0.9544  0.0730  0.9316
  116OSM   C11F12128   6.709   1.630   4.781 -0.1742  0.4941 -0.5757
  116OSM   H11F12129   6.763   1.707   4.723  1.5718 -2.0525 -2.4616
  116OSM   H11G12130   6.661   1.681   4.867  0.1580 -1.6833  0.9547
  116OSM   C12F12131   6.623   1.552   4.679 -0.1104  0.0925 -0.7692
  116OSM   H12F12132   6.558   1.623   4.623  0.6116  0.4341 -1.1807
  116OSM   H12G12133   6.558   1.488   4.741  2.3836 -0.9764  0.8034
  116OSM   C13F12134   6.694   1.456   4.577 -0.1927  0.0840  0.2740
  116OSM   H13F12135   6.738   1.369   4.630 -0.1597 -0.4177 -0.5717
  116OSM   H13G12136   6.785   1.500   4.532  0.0431 -0.7256 -0.0596
  116OSM   C14F12137   6.588   1.399   4.479 -0.4318 -0.2415 -0.6809
  116OSM   H14F12138   6.649   1.351   4.400 -1.0539 -3.3490  0.6327
  116OSM   H14G12139   6.536   1.491   4.446  1.0704  1.6403  1.9396
  116OSM   C15F12140   6.489   1.290   4.541  0.1080  0.4597 -0.6502
  116OSM   H15F12141   6.418   1.344   4.607  0.0373  1.1544 -1.2964
  116OSM   H15G12142   6.551   1.228   4.610  0.2046  0.7782 -0.4513
  116OSM   C16F12143   6.419   1.209   4.440 -0.1290 -0.5389  0.6601
  116OSM   H16F12144   6.386   1.112   4.484  1.7049 -1.2284  0.5858
  116OSM   H16G12145   6.488   1.173   4.361  0.3313 -0.2930  0.9480
  116OSM   C17F12146   6.293   1.270   4.374 -0.3714 -0.2833  0.0061
  116OSM   H17F12147   6.315   1.369   4.330 -2.6769  0.4790  0.4677
  116OSM   H17G12148   6.219   1.295   4.453 -2.2522 -1.7441 -1.2326
  116OSM   C18F12149   6.207   1.189   4.275 -0.4819  0.3848 -0.5465
  116OSM   H18F12150   6.253   1.180   4.174  1.0024 -1.0080  0.2471
  116OSM   H18G12151   6.113   1.246   4.256 -0.1118  1.8094  1.7698
  116OSM   H18H12152   6.189   1.085   4.308 -1.7994  0.5802 -0.6003
  117OSM      N12153   0.721   5.177   6.533  0.4522  0.3342  0.6038
  117OSM    C1512154   0.745   5.235   6.667 -0.6669  0.3197  0.6981
  117OSM   H15A12155   0.672   5.308   6.698 -1.0145 -0.6311  2.2055
  117OSM   H15B12156   0.833   5.296   6.666  0.5102 -1.3343  1.7633
  117OSM   H15C12157   0.762   5.152   6.735  0.8868 -0.8076 -1.0312
  117OSM    C1412158   0.603   5.083   6.546  0.4684  0.1548 -0.5575
  117OSM   H14A12159   0.610   5.027   6.639 -0.0913 -0.8838 -1.1316
  117OSM   H14B12160   0.582   5.024   6.459  1.8140  0.0758 -0.8377
  117OSM   H14C12161   0.515   5.144   6.556  0.3033 -0.0485 -0.7718
  117OSM    C1312162   0.694   5.278   6.432  0.0162 -0.7341  0.4626
  117OSM   H13A12163   0.649   5.234   6.345 -1.4928 -0.1343  0.9068
  117OSM   H13B12164   0.780   5.336   6.400 -1.1159  0.7381  0.0342
  117OSM   H13C12165   0.621   5.354   6.458  0.3116  0.3310 -1.7289
  117OSM    C1212166   0.846   5.099   6.492  0.2927 -0.0239 -0.1909
  117OSM   H12A12167   0.851   5.007   6.549 -1.4312 -0.7417 -1.1818
  117OSM   H12B12168   0.929   5.166   6.511  0.4858 -0.0367 -0.9964
  117OSM    C1112169   0.853   5.039   6.343  0.5296 -0.4729  0.6566
  117OSM   H11A12170   0.957   5.006   6.323  0.6315  0.5056 -0.5173
  117OSM   H11B12171   0.840   5.117   6.265 -2.4928 -1.6179 -0.0169
  117OSM      P12172   0.659   4.941   6.191  0.0858 -0.1973  0.1418
  117OSM    O1312173   0.650   4.811   6.129  0.3662 -0.2828  0.1119
  117OSM    O1412174   0.538   5.005   6.250 -0.1177  0.1130 -0.1666
  117OSM    O1112175   0.736   5.048   6.097 -0.4528 -0.8451 -0.4568
  117OSM    O1212176   0.762   4.931   6.308 -0.5208  0.2075 -1.0823
  117OSM    C1S12177   0.740   5.038   5.954 -0.7937 -0.1882  0.3334
  117OSM    H1S12178   0.690   4.949   5.907  0.2053 -0.7108  0.2493
  117OSM    H1T12179   0.846   5.027   5.924  0.0848  1.7058  2.5975
  117OSM     NF12180   0.676   5.142   5.735  0.1097  0.5716 -0.6332
  117OSM    HNF12181   0.757   5.176   5.688  2.4819 -1.6027  1.7129
  117OSM    C2S12182   0.678   5.161   5.881  0.3495  0.5219  0.1255
  117OSM    H2S12183   0.574   5.166   5.919  0.8737 -1.3994  1.9558
  117OSM    C3S12184   0.755   5.283   5.914  0.3938  0.6043  0.2471
  117OSM    H3S12185   0.854   5.273   5.866 -0.1189 -1.0198 -0.5100
  117OSM     O312186   0.770   5.313   6.058 -0.0252  0.0358  1.0928
  117OSM    HO312187   0.761   5.226   6.096 -1.4483 -1.0014 -1.4524
  117OSM    C4S12188   0.693   5.399   5.839 -0.0887 -0.1293  0.6901
  117OSM    H4S12189   0.773   5.425   5.769  1.7133 -1.3001  2.2315
  117OSM    C5S12190   0.571   5.463   5.843  0.5506  0.2856  0.0667
  117OSM    H5S12191   0.499   5.433   5.920  1.8094  1.1059  1.6116
  117OSM    C6S12192   0.529   5.575   5.744 -0.5253 -0.0068 -0.4998
  117OSM    H6S12193   0.530   5.667   5.805  1.3960 -0.3212 -0.0102
  117OSM    H6T12194   0.420   5.568   5.720 -1.1518  0.2961  2.1483
  117OSM    C7S12195   0.619   5.604   5.627  0.0862 -0.1280  0.2474
  117OSM    H7S12196   0.634   5.515   5.562  0.3638  0.2524 -0.2129
  117OSM    H7T12197   0.723   5.639   5.647 -0.9860  2.6154  1.2294
  117OSM    C8S12198   0.567   5.716   5.532  0.5270 -0.1924 -0.8507
  117OSM    H8S12199   0.556   5.810   5.590  0.6877  0.2127 -1.4766
  117OSM    H8T12200   0.463   5.694   5.499 -0.5319  0.6006  1.8467
  117OSM    C9S12201   0.673   5.727   5.419  0.8751 -0.7602  0.2393
  117OSM    H9S12202   0.665   5.636   5.357 -1.5449 -1.6182  1.7564
  117OSM    H9T12203   0.772   5.736   5.469  0.7963 -1.0158  0.4380
  117OSM   C10S12204   0.660   5.852   5.326  0.0880 -0.1313  0.1001
  117OSM   H10S12205   0.699   5.939   5.382 -1.4143  0.7856 -0.2610
  117OSM   H10T12206   0.554   5.874   5.299 -0.4809 -2.7997 -0.0641
  117OSM   C11S12207   0.750   5.846   5.200  0.2665  0.2435  0.3781
  117OSM   H11S12208   0.855   5.850   5.233  0.3849  1.0404 -0.0721
  117OSM   H11T12209   0.735   5.942   5.146 -1.4161 -0.6659 -0.8393
  117OSM   C12S12210   0.724   5.740   5.100 -0.2503  0.4221  0.2583
  117OSM   H12S12211   0.614   5.746   5.095 -0.2211 -0.2201 -1.2027
  117OSM   H12T12212   0.758   5.643   5.144  0.2257  0.3192 -0.3320
  117OSM   C13S12213   0.789   5.754   4.967 -0.4832 -0.4256 -0.1901
  117OSM   H13S12214   0.899   5.742   4.964 -0.4643 -0.0278 -1.2157
  117OSM   H13T12215   0.776   5.853   4.917  1.4877  0.0155  0.1308
  117OSM   C14S12216   0.747   5.644   4.869 -0.3501  0.4228 -0.2678
  117OSM   H14S12217   0.660   5.692   4.819  0.0616  0.9527 -0.4743
  117OSM   H14T12218   0.710   5.558   4.929  0.1969  1.1012  1.0640
  117OSM   C15S12219   0.859   5.606   4.770  0.3162  1.0398 -0.6875
  117OSM   H15S12220   0.928   5.539   4.824 -1.4726 -0.0713  0.2560
  117OSM   H15T12221   0.906   5.693   4.719 -1.1359  1.8412 -0.6836
  117OSM   C16S12222   0.798   5.541   4.641  0.8943  0.1098 -0.6437
  117OSM   H16S12223   0.734   5.616   4.588 -0.9430 -1.7427 -1.1066
  117OSM   H16T12224   0.730   5.458   4.669  2.4790 -0.4356  1.6960
  117OSM   C17S12225   0.912   5.500   4.548  0.3393  0.1799  0.0148
  117OSM   H17S12226   0.980   5.432   4.604  1.3802  0.5920 -0.7290
  117OSM   H17T12227   0.973   5.587   4.514 -1.2384  0.6009 -1.7866
  117OSM   C18S12228   0.863   5.434   4.419 -0.2044 -0.0470  0.6632
  117OSM   H18S12229   0.953   5.408   4.360 -1.8187 -1.1935 -1.3651
  117OSM   H18T12230   0.807   5.511   4.363  0.6004  0.0914  0.0434
  117OSM   H18U12231   0.801   5.343   4.437 -0.1603  0.0447  1.3069
  117OSM    C1F12232   0.591   5.073   5.657  0.0898 -0.1903  0.4163
  117OSM     OF12233   0.496   5.010   5.703 -0.0155  0.3681  0.0115
  117OSM    C2F12234   0.627   5.076   5.512 -0.1411 -0.0200 -0.8016
  117OSM    H2F12235   0.587   4.980   5.472 -0.1051 -0.6330  0.6214
  117OSM    H2G12236   0.735   5.090   5.490  0.5484 -1.5233  1.5030
  117OSM    C3F12237   0.553   5.185   5.429  0.2670 -0.2883  0.3859
  117OSM    H3F12238   0.589   5.186   5.324 -0.1508  1.8554  0.2493
  117OSM    H3G12239   0.580   5.286   5.467  1.2250 -0.9882  1.6560
  117OSM    C4F12240   0.403   5.199   5.436  0.2206 -0.0724 -0.9906
  117OSM    H4F12241   0.364   5.202   5.540  0.2467  0.2912 -0.9914
  117OSM    H4G12242   0.358   5.113   5.382  1.6282 -1.0250 -0.6727
  117OSM    C5F12243   0.345   5.330   5.372 -0.0982 -0.1762  0.0694
  117OSM    H5F12244   0.350   5.397   5.460  0.4434  0.8795 -0.7478
  117OSM    H5G12245   0.238   5.308   5.351  0.4575 -0.3627 -2.8618
  117OSM    C6F12246   0.413   5.399   5.255  0.6694 -0.2090  0.0898
  117OSM    H6F12247   0.517   5.419   5.288  0.3666  4.2976 -1.3141
  117OSM    H6G12248   0.358   5.494   5.234  2.8122  0.8034 -1.1276
  117OSM    C7F12249   0.419   5.310   5.128 -0.2797 -0.5681  0.5244
  117OSM    H7F12250   0.325   5.251   5.117 -1.0488  0.4251  1.6933
  117OSM    H7G12251   0.511   5.247   5.131 -0.0356 -0.2921 -0.6990
  117OSM    C8F12252   0.440   5.402   5.004 -0.8587  0.1132 -0.2367
  117OSM    H8F12253   0.522   5.473   5.028  1.0059 -1.7331 -0.9907
  117OSM    H8G12254   0.348   5.462   4.989 -0.6930  0.0108 -1.7600
  117OSM    C9F12255   0.469   5.325   4.878  0.1092 -0.5128  0.5428
  117OSM    H9F12256   0.561   5.265   4.873 -0.6564 -1.6156 -0.6350
  117OSM   C10F12257   0.405   5.334   4.759 -0.3203  0.6348  0.1389
  117OSM   H10F12258   0.458   5.282   4.678 -1.9583  1.1843 -1.3089
  117OSM   C11F12259   0.297   5.426   4.726  0.0277 -0.5407  0.5836
  117OSM   H11F12260   0.328   5.516   4.668 -2.3363 -1.3664 -2.0638
  117OSM   H11G12261   0.252   5.471   4.817  2.0431  0.1350  1.2921
  117OSM   C12F12262   0.179   5.356   4.660  0.7708 -0.5292  0.3458
  117OSM   H12F12263   0.104   5.436   4.640  0.5578 -0.7649  0.1977
  117OSM   H12G12264   0.137   5.285   4.735 -0.5377 -0.7524 -0.5815
  117OSM   C13F12265   0.217   5.278   4.532 -0.9349  0.6135  0.4298
  117OSM   H13F12266   0.124   5.238   4.486  0.1027 -0.5715 -0.6487
  117OSM   H13G12267   0.274   5.184   4.547  1.3317  1.5465 -1.9901
  117OSM   C14F12268   0.279   5.374   4.426  0.5182 -0.4326  1.0715
  117OSM   H14F12269   0.378   5.411   4.462  0.6389  0.7483 -0.4525
  117OSM   H14G12270   0.212   5.461   4.415  0.9896 -0.3404 -1.4123
  117OSM   C15F12271   0.290   5.319   4.281  0.4287 -0.6918  0.9992
  117OSM   H15F12272   0.336   5.401   4.222 -0.3391  1.2686  3.0956
  117OSM   H15G12273   0.191   5.294   4.236  0.8037 -0.3996 -0.0098
  117OSM   C16F12274   0.382   5.193   4.262  0.2125 -0.3179  0.5842
  117OSM   H16F12275   0.345   5.134   4.176 -1.1148  0.4098  0.6402
  117OSM   H16G12276   0.385   5.135   4.356  1.4158 -0.7705  0.2765
  117OSM   C17F12277   0.523   5.228   4.213 -0.7009 -0.2394  0.6489
  117OSM   H17F12278   0.567   5.288   4.296  0.7939 -1.2304  0.5982
  117OSM   H17G12279   0.520   5.290   4.121 -2.1776  1.3014  1.7070
  117OSM   C18F12280   0.620   5.112   4.182  0.2302 -0.3480  0.0521
  117OSM   H18F12281   0.588   5.059   4.089 -1.2996  0.9756 -0.2076
  117OSM   H18G12282   0.620   5.031   4.258  2.0968 -1.5408 -1.2006
  117OSM   H18H12283   0.725   5.141   4.160  0.4985 -1.3290  0.0194
  118OSM      N12284   0.102   3.768   6.422 -0.5296 -0.3683 -0.2966
  118OSM    C1512285   0.225   3.847   6.387  0.5564  0.2770 -0.0002
  118OSM   H15A12286   0.225   3.853   6.279 -2.7324  0.0355 -0.0861
  118OSM   H15B12287   0.316   3.805   6.426  0.4599 -1.1605 -1.2495
  118OSM   H15C12288   0.219   3.952   6.414 -0.5790  1.2221 -3.6062
  118OSM    C1412289   0.101   3.744   6.565 -0.5688  0.1099 -0.1285
  118OSM   H14A12290   0.109   3.837   6.620  0.7635 -0.4916  0.7005
  118OSM   H14B12291   0.180   3.682   6.602 -0.7230 -1.0622 -1.7097
  118OSM   H14C12292   0.011   3.692   6.595  0.3758 -0.2698  2.0959
  118OSM    C1312293  -0.014   3.850   6.388  0.5878 -0.1313  0.2533
  118OSM   H13A12294  -0.013   3.942   6.445 -0.8968 -1.0049  1.7133
  118OSM   H13B12295  -0.105   3.796   6.406  1.5686 -1.0431  2.5553
  118OSM   H13C12296  -0.022   3.881   6.284  0.5303  1.4274  0.7020
  118OSM    C1212297   0.098   3.635   6.346  0.6359 -0.3539  0.1231
  118OSM   H12A12298   0.192   3.584   6.359  1.5277  1.1770 -0.1947
  118OSM   H12B12299   0.110   3.652   6.240 -1.5558  0.0068 -0.0835
  118OSM    C1112300  -0.019   3.532   6.356 -0.1384 -0.2364 -0.2299
  118OSM   H11A12301  -0.012   3.484   6.456  1.6134  2.7211  1.1235
  118OSM   H11B12302   0.004   3.452   6.282  1.4138  0.9887 -1.0979
  118OSM      P12303  -0.213   3.596   6.204 -0.0521 -0.0126  0.1852
  118OSM    O1312304  -0.230   3.456   6.168  0.1239  0.5623 -0.4109
  118OSM    O1412305  -0.341   3.668   6.228  0.8200  0.2899 -0.2784
  118OSM    O1112306  -0.120   3.667   6.100 -0.0794  0.7656 -0.1818
  118OSM    O1212307  -0.139   3.597   6.347 -0.3594  0.0521 -0.2464
  118OSM    C1S12308  -0.183   3.710   5.976 -0.0142  0.3504  0.4759
  118OSM    H1S12309  -0.243   3.802   5.992 -1.4724 -0.6741  1.0381
  118OSM    H1T12310  -0.248   3.632   5.931  2.0825  0.1818 -2.4711
  118OSM     NF12311  -0.127   3.816   5.743 -0.0211  0.1742 -0.3565
  118OSM    HNF12312  -0.158   3.758   5.668 -1.6534 -1.0615  1.2259
  118OSM    C2S12313  -0.077   3.747   5.864  0.9465 -0.0491 -0.3399
  118OSM    H2S12314  -0.005   3.814   5.916  2.6747 -1.5685 -0.7298
  118OSM    C3S12315   0.002   3.620   5.836 -0.5683 -0.3589  0.6108
  118OSM    H3S12316  -0.067   3.549   5.787  1.9214 -1.6552 -1.1139
  118OSM     O312317   0.061   3.564   5.952 -0.4945  0.2590 -0.1983
  118OSM    HO312318   0.020   3.619   6.018 -0.2907 -0.6079  0.6661
  118OSM    C4S12319   0.105   3.637   5.725  0.5610  0.0851 -0.5226
  118OSM    H4S12320   0.076   3.582   5.635  2.4483 -2.7793  0.5252
  118OSM    C5S12321   0.220   3.706   5.735 -0.7092 -0.0389  0.2160
  118OSM    H5S12322   0.253   3.769   5.819 -0.6642  0.4345 -0.1500
  118OSM    C6S12323   0.321   3.713   5.627 -0.4015 -0.4248  0.2843
  118OSM    H6S12324   0.422   3.686   5.666  0.0632  2.7806  1.4408
  118OSM    H6T12325   0.341   3.820   5.604  0.6254 -0.4653  0.9518
  118OSM    C7S12326   0.290   3.631   5.505 -0.3116 -0.1875 -0.3967
  118OSM    H7S12327   0.186   3.632   5.466 -0.5529 -1.9977  0.1652
  118OSM    H7T12328   0.319   3.526   5.523  1.9479  0.5843  0.6724
  118OSM    C8S12329   0.381   3.695   5.397 -0.1330 -0.0936 -0.4781
  118OSM    H8S12330   0.489   3.697   5.426 -0.3663  1.1709  0.3448
  118OSM    H8T12331   0.362   3.803   5.384  3.6704  0.6429 -0.6924
  118OSM    C9S12332   0.360   3.624   5.263 -0.3068  0.2386  0.0524
  118OSM    H9S12333   0.250   3.629   5.245 -0.3358 -0.8749 -0.1091
  118OSM    H9T12334   0.399   3.522   5.282 -0.2895  0.3031  0.3708
  118OSM   C10S12335   0.443   3.694   5.153 -0.1203  0.6748 -0.7547
  118OSM   H10S12336   0.552   3.690   5.173  0.2781  3.2311 -2.2063
  118OSM   H10T12337   0.412   3.801   5.147  0.4424  0.8130 -1.1657
  118OSM   C11S12338   0.418   3.624   5.016  0.4208  0.0671  0.7435
  118OSM   H11S12339   0.311   3.594   5.013 -0.0405  1.7081  0.7995
  118OSM   H11T12340   0.481   3.532   5.010  0.1290 -0.0781 -0.1854
  118OSM   C12S12341   0.435   3.705   4.889  0.3776 -0.0651  0.0725
  118OSM   H12S12342   0.542   3.733   4.886  0.1682  0.6208 -1.3816
  118OSM   H12T12343   0.368   3.793   4.890  2.7610  1.7901  0.1484
  118OSM   C13S12344   0.380   3.632   4.768 -0.1048  0.4319  0.0374
  118OSM   H13S12345   0.270   3.623   4.780 -0.4627  2.3336 -1.6138
  118OSM   H13T12346   0.415   3.528   4.753 -1.5670  0.1301 -1.4172
  118OSM   C14S12347   0.411   3.720   4.648 -0.1432 -0.2687  0.2376
  118OSM   H14S12348   0.515   3.758   4.637 -0.2913 -0.0755 -0.5360
  118OSM   H14T12349   0.364   3.819   4.669  2.1153  0.7512  0.6152
  118OSM   C15S12350   0.359   3.686   4.510  0.6959  0.6703 -0.0447
  118OSM   H15S12351   0.249   3.678   4.509  0.8060 -0.9922 -1.3618
  118OSM   H15T12352   0.403   3.585   4.493 -0.2714  0.0553  0.9888
  118OSM   C16S12353   0.412   3.780   4.406 -0.0289  0.4615 -0.0663
  118OSM   H16S12354   0.523   3.776   4.410 -0.0001 -0.0811 -1.2012
  118OSM   H16T12355   0.376   3.882   4.428 -0.9452  0.0700  0.2619
  118OSM   C17S12356   0.384   3.734   4.264  0.1118  0.3385  0.1080
  118OSM   H17S12357   0.273   3.735   4.269  0.0702 -1.1815 -0.3324
  118OSM   H17T12358   0.406   3.627   4.245  0.3320  0.3623  0.2269
  118OSM   C18S12359   0.443   3.824   4.160 -0.0936 -0.3569 -0.3016
  118OSM   H18S12360   0.398   3.795   4.063 -0.6597 -2.0224  0.4365
  118OSM   H18T12361   0.551   3.798   4.150  0.7536  1.6452  2.9543
  118OSM   H18U12362   0.439   3.931   4.189 -0.0176 -0.9639  2.1081
  118OSM    C1F12363  -0.168   3.944   5.737 -0.0170  1.2155 -0.6241
  118OSM     OF12364  -0.161   4.012   5.841 -0.6746 -0.2349 -0.0668
  118OSM    C2F12365  -0.216   3.993   5.609  0.4693  0.8858 -0.9885
  118OSM    H2F12366  -0.326   3.995   5.621  0.4309 -2.9360  0.0545
  118OSM    H2G12367  -0.191   3.927   5.522  1.8456 -1.6914  1.2759
  118OSM    C3F12368  -0.165   4.128   5.576  0.3978 -0.4193 -1.0897
  118OSM    H3F12369  -0.189   4.203   5.654  0.6961  0.7379 -2.0858
  118OSM    H3G12370  -0.223   4.159   5.486 -2.9099 -1.9401  0.4081
  118OSM    C4F12371  -0.009   4.140   5.561 -0.1647  0.0252  0.3300
  118OSM    H4F12372   0.032   4.127   5.663 -4.4553 -0.7400  2.0782
  118OSM    H4G12373   0.016   4.243   5.529 -0.4942  0.7036  2.2121
  118OSM    C5F12374   0.057   4.042   5.464 -0.5875  0.7289  0.1132
  118OSM    H5F12375   0.038   3.942   5.507  1.2888 -1.1261 -3.1729
  118OSM    H5G12376   0.167   4.060   5.459 -0.7391  1.3556 -1.1799
  118OSM    C6F12377  -0.001   4.038   5.324 -0.5337 -0.3137  0.3300
  118OSM    H6F12378  -0.001   4.141   5.284  1.3371  0.7204  2.8553
  118OSM    H6G12379  -0.108   4.007   5.322 -0.6085 -0.1387  1.1939
  118OSM    C7F12380   0.085   3.961   5.225 -0.2818  0.0776 -0.0503
  118OSM    H7F12381   0.121   3.862   5.260  2.7438  0.3686 -2.1118
  118OSM    H7G12382   0.182   4.010   5.203 -0.5822  0.6917 -0.0171
  118OSM    C8F12383   0.000   3.933   5.101 -0.4545 -0.2036 -0.7424
  118OSM    H8F12384  -0.040   4.025   5.054 -1.4494 -0.6243 -0.7256
  118OSM    H8G12385  -0.085   3.880   5.149  0.1873 -0.0020  0.6557
  118OSM    C9F12386   0.081   3.838   5.016  0.3437  1.3319  0.1928
  118OSM    H9F12387   0.149   3.774   5.075 -1.1177 -0.7123 -0.3339
  118OSM   C10F12388   0.059   3.831   4.881  0.0890  0.8143 -0.3600
  118OSM   H10F12389   0.116   3.763   4.816  1.8450  1.3507  0.5800
  118OSM   C11F12390  -0.046   3.923   4.809 -0.1422 -0.0051 -0.0186
  118OSM   H11F12391  -0.030   4.031   4.827  0.6284 -0.3136  1.2239
  118OSM   H11G12392  -0.152   3.903   4.835 -0.4444  1.9698  0.3275
  118OSM   C12F12393  -0.027   3.904   4.654 -0.0531  0.8422  0.9742
  118OSM   H12F12394  -0.038   3.799   4.619 -0.0891  0.9067  0.7900
  118OSM   H12G12395   0.075   3.942   4.634 -0.2390  0.5778 -0.5091
  118OSM   C13F12396  -0.122   3.992   4.564  0.7759  0.1480 -0.2296
  118OSM   H13F12397  -0.104   4.093   4.605  0.2966  0.4579 -0.7806
  118OSM   H13G12398  -0.229   3.963   4.571  1.1930 -0.9723  2.4302
  118OSM   C14F12399  -0.100   3.989   4.413  0.5643  0.0322  0.0797
  118OSM   H14F12400  -0.002   4.033   4.387  1.5088 -1.4728  1.0301
  118OSM   H14G12401  -0.163   4.064   4.360  0.3159 -1.0991 -1.2577
  118OSM   C15F12402  -0.106   3.854   4.346  0.4976  0.3929  0.3069
  118OSM   H15F12403  -0.197   3.798   4.374  0.7189 -0.4388 -0.6192
  118OSM   H15G12404  -0.014   3.800   4.379 -0.5854 -0.8880  1.2907
  118OSM   C16F12405  -0.102   3.853   4.194 -0.0214 -0.2633  0.6115
  118OSM   H16F12406  -0.197   3.901   4.163 -0.3892 -1.0530  0.4976
  118OSM   H16G12407  -0.119   3.748   4.164 -3.2440 -0.2933  2.3319
  118OSM   C17F12408   0.019   3.925   4.131 -0.1504  0.3203  0.5104
  118OSM   H17F12409   0.107   3.912   4.198 -0.1979 -1.1766  0.2908
  118OSM   H17G12410  -0.006   4.033   4.132  1.7582  0.8225 -1.1487
  118OSM   C18F12411   0.055   3.873   3.990  0.2374  0.3218 -0.0793
  118OSM   H18F12412   0.050   3.762   3.995 -1.0892  0.3818 -0.0385
  118OSM   H18G12413   0.154   3.910   3.955 -0.7089  2.2901 -0.7465
  118OSM   H18H12414  -0.015   3.912   3.913 -0.4820 -1.5898 -0.4171
  119OSM      N12415   3.595   0.031   6.271  0.5405  0.3609 -0.3893
  119OSM    C1512416   3.646  -0.100   6.223 -1.0266 -0.1788 -0.1867
  119OSM   H15A12417   3.753  -0.097   6.231 -0.9795  0.1222 -0.9419
  119OSM   H15B12418   3.616  -0.116   6.121 -2.5657  3.6383 -0.4164
  119OSM   H15C12419   3.609  -0.188   6.273  2.3911 -2.1990 -1.0628
  119OSM    C1412420   3.444   0.031   6.258 -0.9668 -0.2889 -0.2480
  119OSM   H14A12421   3.399   0.121   6.297  0.0388 -0.1375  0.5821
  119OSM   H14B12422   3.398  -0.053   6.308  0.2427 -0.1573  1.1510
  119OSM   H14C12423   3.407   0.015   6.158  0.8976 -5.3245 -0.2860
  119OSM    C1312424   3.636   0.046   6.418  0.0790  0.2073  0.8807
  119OSM   H13A12425   3.590   0.139   6.448  0.9793  0.5075  1.3730
  119OSM   H13B12426   3.742   0.066   6.422 -0.1850  1.4592  1.9163
  119OSM   H13C12427   3.601  -0.031   6.486  0.1135 -1.0717 -0.5376
  119OSM    C1212428   3.662   0.136   6.182  0.3845 -0.0758  0.4021
  119OSM   H12A12429   3.661   0.098   6.081  1.1805  1.2612 -0.1270
  119OSM   H12B12430   3.767   0.151   6.202  0.1163  0.5400  1.3758
  119OSM    C1112431   3.608   0.281   6.184 -0.2909  0.1341 -0.0684
  119OSM   H11A12432   3.582   0.319   6.285 -4.7666 -0.3060 -0.9482
  119OSM   H11B12433   3.509   0.279   6.133  0.4056  1.6685 -1.5403
  119OSM      P12434   3.640   0.476   6.008 -0.0049 -0.0825  0.0004
  119OSM    O1312435   3.573   0.573   6.099 -0.3051  0.5940 -0.5928
  119OSM    O1412436   3.754   0.524   5.928  0.4585  0.2030 -0.2186
  119OSM    O1112437   3.532   0.393   5.928  0.3047  0.0294  0.4075
  119OSM    O1212438   3.702   0.363   6.105  0.2256  0.0372 -0.5156
  119OSM    C1S12439   3.568   0.326   5.805 -0.0575 -0.0713  0.2809
  119OSM    H1S12440   3.594   0.222   5.834  1.2683 -0.6007 -2.6382
  119OSM    H1T12441   3.664   0.353   5.758 -0.1438  1.0381  0.7281
  119OSM     NF12442   3.502   0.237   5.587 -0.0115  0.2013  0.3498
  119OSM    HNF12443   3.564   0.271   5.517 -0.3239 -0.1601 -0.1036
  119OSM    C2S12444   3.465   0.335   5.691 -0.6144  0.3941  0.8437
  119OSM    H2S12445   3.362   0.310   5.726 -0.2289 -1.1319  0.9068
  119OSM    C3S12446   3.458   0.480   5.628  0.2022  0.4533 -0.4759
  119OSM    H3S12447   3.560   0.501   5.589  0.5627 -0.4197 -0.0244
  119OSM     O312448   3.424   0.578   5.727  0.2497  0.1632  0.2099
  119OSM    HO312449   3.439   0.544   5.815  1.3131  1.8839  0.7184
  119OSM    C4S12450   3.359   0.494   5.516  0.0047 -0.3068 -0.0432
  119OSM    H4S12451   3.253   0.478   5.539 -0.9650  1.1455 -3.2000
  119OSM    C5S12452   3.394   0.516   5.389  0.6600  0.1543  0.2534
  119OSM    H5S12453   3.501   0.525   5.367  0.5401 -0.7459 -0.7764
  119OSM    C6S12454   3.306   0.506   5.275 -0.1940  0.4284 -0.1876
  119OSM    H6S12455   3.280   0.602   5.225 -1.4645 -0.1125 -0.5877
  119OSM    H6T12456   3.204   0.468   5.295 -0.6531  1.5202 -0.4052
  119OSM    C7S12457   3.354   0.426   5.156 -1.2922 -0.7113 -0.0803
  119OSM    H7S12458   3.428   0.346   5.181 -0.8000  0.6320  2.9938
  119OSM    H7T12459   3.399   0.501   5.088  1.2309 -2.1845 -0.1374
  119OSM    C8S12460   3.242   0.359   5.084 -0.1634  0.2259  0.2958
  119OSM    H8S12461   3.155   0.423   5.060  1.6766  1.7926 -2.4600
  119OSM    H8T12462   3.196   0.277   5.144  3.1688 -0.9640  1.3550
  119OSM    C9S12463   3.279   0.293   4.948  0.1729 -0.1492 -0.7281
  119OSM    H9S12464   3.198   0.227   4.910  1.1151 -1.6969 -0.0984
  119OSM    H9T12465   3.357   0.214   4.954 -0.6091 -0.8769 -0.0803
  119OSM   C10S12466   3.304   0.394   4.832  0.3882 -0.2248 -0.1696
  119OSM   H10S12467   3.400   0.447   4.847 -0.2363  0.7170  0.6439
  119OSM   H10T12468   3.220   0.468   4.833  1.2371  0.7490 -0.2746
  119OSM   C11S12469   3.301   0.332   4.693  0.0032  0.6351 -0.3822
  119OSM   H11S12470   3.208   0.283   4.657 -0.3717 -2.1071  3.8651
  119OSM   H11T12471   3.370   0.245   4.694 -2.1373 -1.1353 -1.6775
  119OSM   C12S12472   3.331   0.439   4.588 -0.7918  0.7433 -0.3089
  119OSM   H12S12473   3.419   0.501   4.612 -0.4639  0.8507 -1.7329
  119OSM   H12T12474   3.247   0.511   4.600  0.7810  2.6224 -0.4147
  119OSM   C13S12475   3.342   0.384   4.443 -0.2153 -0.7373  1.3878
  119OSM   H13S12476   3.262   0.312   4.416 -0.2634  0.3073 -1.3542
  119OSM   H13T12477   3.434   0.325   4.425  0.2022  0.4924 -0.6818
  119OSM   C14S12478   3.353   0.498   4.337 -0.0498  0.7724 -0.4590
  119OSM   H14S12479   3.446   0.552   4.364  0.3357 -0.2904  0.3667
  119OSM   H14T12480   3.267   0.567   4.356 -0.9454 -0.3261 -0.4817
  119OSM   C15S12481   3.340   0.445   4.196 -0.5731 -0.1731  0.1121
  119OSM   H15S12482   3.243   0.392   4.186 -0.5570  0.3455 -3.2659
  119OSM   H15T12483   3.408   0.363   4.164 -0.3007  0.0764  0.0451
  119OSM   C16S12484   3.359   0.562   4.094 -0.4375  0.3163  1.4250
  119OSM   H16S12485   3.400   0.512   4.004  0.9803  0.9735  1.6865
  119OSM   H16T12486   3.437   0.632   4.131 -1.2951  0.3220  3.2869
  119OSM   C17S12487   3.240   0.654   4.066 -0.3690 -0.3146 -0.9448
  119OSM   H17S12488   3.287   0.732   4.002 -0.6969 -0.1014 -0.9240
  119OSM   H17T12489   3.198   0.701   4.157 -1.2334 -0.7657 -1.1076
  119OSM   C18S12490   3.131   0.584   3.986  1.0598  0.0095  0.3141
  119OSM   H18S12491   3.170   0.531   3.896 -2.6669 -0.6368 -1.0596
  119OSM   H18T12492   3.045   0.644   3.950  0.7463 -0.7379 -0.2115
  119OSM   H18U12493   3.085   0.509   4.054  0.1821  0.6318  0.4129
  119OSM    C1F12494   3.489   0.103   5.593 -0.1468 -0.2410 -0.9166
  119OSM     OF12495   3.417   0.061   5.685  0.1065  0.1133 -0.1071
  119OSM    C2F12496   3.569   0.004   5.505 -0.0858 -0.0339 -0.4818
  119OSM    H2F12497   3.646  -0.039   5.572 -1.6247 -0.8390  0.8175
  119OSM    H2G12498   3.625   0.061   5.428  0.5267  0.1608  0.1040
  119OSM    C3F12499   3.484  -0.104   5.436 -0.2815  0.0191  0.2976
  119OSM    H3F12500   3.407  -0.148   5.504  1.7714 -0.0481  2.6732
  119OSM    H3G12501   3.560  -0.185   5.425 -1.0903 -1.5857  5.1340
  119OSM    C4F12502   3.437  -0.047   5.300 -0.1497 -0.7148  0.1318
  119OSM    H4F12503   3.525  -0.024   5.236 -1.8081  3.0711 -0.9047
  119OSM    H4G12504   3.384   0.048   5.321  2.1210  0.3788  1.0658
  119OSM    C5F12505   3.331  -0.136   5.235  0.0629  0.2546 -0.6125
  119OSM    H5F12506   3.248  -0.161   5.305  1.3832 -1.5412  0.3659
  119OSM    H5G12507   3.376  -0.233   5.205  0.6338  0.0568  0.8470
  119OSM    C6F12508   3.269  -0.059   5.121 -0.6789  0.0570  0.3814
  119OSM    H6F12509   3.355  -0.018   5.064 -0.6802 -3.3216 -2.2712
  119OSM    H6G12510   3.202   0.023   5.155  0.5152  1.3982 -0.4522
  119OSM    C7F12511   3.191  -0.150   5.030  0.3654  0.3015  0.4184
  119OSM    H7F12512   3.099  -0.190   5.079  0.3190 -0.6214 -0.4167
  119OSM    H7G12513   3.260  -0.235   5.012  0.0910 -0.7645  4.0298
  119OSM    C8F12514   3.150  -0.081   4.892 -0.5209  0.1913 -0.3224
  119OSM    H8F12515   3.242  -0.030   4.855 -0.4705 -0.1653 -0.6881
  119OSM    H8G12516   3.076   0.001   4.901 -0.9993 -0.2399 -0.3080
  119OSM    C9F12517   3.095  -0.174   4.787  0.4013  0.2955 -0.4446
  119OSM    H9F12518   3.080  -0.274   4.830  1.3220  1.6121  3.0994
  119OSM   C10F12519   3.062  -0.140   4.660 -0.3638 -0.0243  0.7742
  119OSM   H10F12520   3.040  -0.215   4.583  1.3147 -0.9644  1.1840
  119OSM   C11F12521   3.064  -0.004   4.591 -0.4545  0.2434 -0.5210
  119OSM   H11F12522   3.053   0.069   4.674  2.3143  0.7309 -0.5306
  119OSM   H11G12523   2.978   0.009   4.521 -1.0854  2.2324  0.5813
  119OSM   C12F12524   3.200   0.036   4.521 -0.1701  0.6214 -0.1843
  119OSM   H12F12525   3.278   0.032   4.600 -0.3911 -0.2444  0.0023
  119OSM   H12G12526   3.193   0.138   4.479  0.8172 -0.6590 -3.5752
  119OSM   C13F12527   3.241  -0.052   4.400  0.3498 -0.3638  0.3988
  119OSM   H13F12528   3.170  -0.036   4.316  2.7752 -1.9880 -2.0300
  119OSM   H13G12529   3.221  -0.158   4.424  0.5685 -1.3507 -3.4838
  119OSM   C14F12530   3.387  -0.038   4.365  0.4385 -0.1574 -0.0749
  119OSM   H14F12531   3.453  -0.066   4.450  2.0639  0.1517 -1.2104
  119OSM   H14G12532   3.406   0.067   4.333  1.8300  0.6242  3.1339
  119OSM   C15F12533   3.415  -0.136   4.249 -0.4971 -0.6509 -0.3773
  119OSM   H15F12534   3.348  -0.127   4.161  0.7550  1.5810 -1.1463
  119OSM   H15G12535   3.418  -0.239   4.291  0.8360  0.0504  1.3311
  119OSM   C16F12536   3.558  -0.101   4.198  0.5150 -0.3512  0.2560
  119OSM   H16F12537   3.627  -0.101   4.285  1.3834  0.1704 -0.4263
  119OSM   H16G12538   3.563   0.005   4.167 -0.1454 -0.3049  0.3134
  119OSM   C17F12539   3.601  -0.192   4.087  0.3744  0.2610  0.0985
  119OSM   H17F12540   3.693  -0.164   4.031 -0.4322  0.0952 -1.3388
  119OSM   H17G12541   3.518  -0.193   4.012  0.2661  5.0585 -0.0415
  119OSM   C18F12542   3.623  -0.335   4.128  1.1145 -0.3071 -0.5217
  119OSM   H18F12543   3.653  -0.392   4.037 -0.9187 -1.0672 -0.7392
  119OSM   H18G12544   3.535  -0.386   4.172  0.6044  1.2834  0.3406
  119OSM   H18H12545   3.713  -0.342   4.192  2.3480 -1.2016 -2.3214
  120OSM      N12546   5.923   5.630   5.893  0.8463  0.2609  0.3894
  120OSM    C1512547   5.912   5.747   5.991 -0.2050  0.4675 -0.4163
  120OSM   H15A12548   5.976   5.832   5.971 -1.6645  1.4630 -0.9420
  120OSM   H15B12549   5.938   5.714   6.090  2.2930 -0.6210 -1.3962
  120OSM   H15C12550   5.818   5.799   5.992  0.5171  1.7932  0.0181
  120OSM    C1412551   5.822   5.515   5.921 -0.3155 -0.1435 -0.4459
  120OSM   H14A12552   5.725   5.558   5.942 -0.1045 -0.9449  2.4728
  120OSM   H14B12553   5.857   5.452   6.002  1.1710 -1.4949 -2.1091
  120OSM   H14C12554   5.820   5.451   5.835  2.5408 -0.2482 -0.4852
  120OSM    C1312555   5.883   5.683   5.761 -0.8799  0.2174 -0.3831
  120OSM   H13A12556   5.919   5.610   5.690 -1.3714 -1.0255  0.6261
  120OSM   H13B12557   5.919   5.784   5.749 -0.6423  0.0514 -1.0725
  120OSM   H13C12558   5.776   5.692   5.758 -0.8714  0.6198  0.4479
  120OSM    C1212559   6.071   5.577   5.894 -0.2761  0.0600  0.2325
  120OSM   H12A12560   6.136   5.652   5.854  0.6864 -0.6555  0.4362
  120OSM   H12B12561   6.080   5.493   5.827 -1.2873  1.7048 -2.0149
  120OSM    C1112562   6.127   5.541   6.037  0.1815  0.4358  0.0272
  120OSM   H11A12563   6.051   5.484   6.093  1.7262  0.2758  2.0261
  120OSM   H11B12564   6.135   5.638   6.090 -1.9091  0.7227 -0.1368
  120OSM      P12565   6.275   5.323   5.997  0.4687  0.2352 -0.3877
  120OSM    O1312566   6.413   5.275   6.033 -0.4009  0.1374  0.9035
  120OSM    O1412567   6.160   5.244   6.058  0.3278 -0.5000 -0.4015
  120OSM    O1112568   6.250   5.327   5.841 -0.2910  0.2841 -0.0179
  120OSM    O1212569   6.258   5.480   6.028  0.6083  0.2567 -0.1508
  120OSM    C1S12570   6.354   5.372   5.755 -0.3879 -0.9275  0.9232
  120OSM    H1S12571   6.450   5.316   5.764 -0.4893 -1.1974  0.3506
  120OSM    H1T12572   6.371   5.481   5.771 -1.9834 -0.5412  0.0365
  120OSM     NF12573   6.440   5.427   5.530  0.8824 -0.2478  0.0269
  120OSM    HNF12574   6.430   5.522   5.501  0.6638  0.2632  1.7181
  120OSM    C2S12575   6.330   5.365   5.603  0.6766 -0.1411  0.5967
  120OSM    H2S12576   6.328   5.255   5.587  2.4257 -0.1149  0.0786
  120OSM    C3S12577   6.181   5.422   5.572 -1.0874  0.7510  0.2940
  120OSM    H3S12578   6.190   5.527   5.606 -0.8386  0.4465  1.1757
  120OSM     O312579   6.083   5.364   5.656 -0.4497  0.1756 -0.0605
  120OSM    HO312580   6.139   5.304   5.707 -0.1874  0.1394 -0.3897
  120OSM    C4S12581   6.148   5.402   5.434  0.0770  0.0604 -0.0875
  120OSM    H4S12582   6.103   5.306   5.405  1.8319 -1.4548  2.0223
  120OSM    C5S12583   6.152   5.494   5.335  0.6251  0.0046 -0.5296
  120OSM    H5S12584   6.174   5.597   5.364  0.7968  0.4121 -2.0363
  120OSM    C6S12585   6.105   5.472   5.194 -1.3243 -0.0650  0.3293
  120OSM    H6S12586   6.079   5.573   5.157  0.8720  0.7795  1.0152
  120OSM    H6T12587   6.025   5.394   5.190 -0.1658 -1.2146 -1.3164
  120OSM    C7S12588   6.217   5.416   5.100  0.4324  0.2409  0.0184
  120OSM    H7S12589   6.243   5.319   5.147  0.9260  0.0169 -0.7237
  120OSM    H7T12590   6.308   5.480   5.105 -0.1747  1.2381 -1.2542
  120OSM    C8S12591   6.166   5.408   4.954 -0.3205  1.0720  0.0049
  120OSM    H8S12592   6.091   5.326   4.955 -0.8266  1.4897 -1.6682
  120OSM    H8T12593   6.247   5.376   4.885 -0.3112  1.5124 -0.1840
  120OSM    C9S12594   6.106   5.539   4.893 -0.5062 -0.0057  0.6416
  120OSM    H9S12595   6.126   5.544   4.784  1.1133 -0.1879  0.9250
  120OSM    H9T12596   6.150   5.628   4.943 -1.3343  0.2647  0.8991
  120OSM   C10S12597   5.953   5.564   4.901  0.7094 -0.2977  0.4566
  120OSM   H10S12598   5.919   5.548   5.005 -1.9344  0.2312 -0.3039
  120OSM   H10T12599   5.908   5.494   4.827  3.0041 -3.3052  1.8267
  120OSM   C11S12600   5.914   5.702   4.855  0.0434  0.0328  0.7411
  120OSM   H11S12601   5.956   5.776   4.927 -1.2005  1.7320 -0.2477
  120OSM   H11T12602   5.805   5.716   4.867 -0.4601 -0.1221 -3.1784
  120OSM   C12S12603   5.962   5.754   4.710  0.2445 -0.3047  0.2067
  120OSM   H12S12604   6.071   5.744   4.694  0.8733  2.1679  2.6829
  120OSM   H12T12605   5.943   5.863   4.704  0.0624 -0.3091  0.6918
  120OSM   C13S12606   5.871   5.700   4.594  0.3681 -0.6823 -0.8860
  120OSM   H13S12607   5.768   5.685   4.632  0.2070  1.4735 -0.4183
  120OSM   H13T12608   5.906   5.599   4.561  0.2305 -0.2853 -2.3110
  120OSM   C14S12609   5.863   5.786   4.469  0.3409 -0.2768 -0.2772
  120OSM   H14S12610   5.792   5.750   4.392 -0.2757  2.7400 -1.1608
  120OSM   H14T12611   5.966   5.778   4.428  1.0432  1.7691  0.9960
  120OSM   C15S12612   5.833   5.933   4.473  0.0429  0.2670  0.2065
  120OSM   H15S12613   5.835   5.967   4.368 -1.5429 -1.4841 -0.4357
  120OSM   H15T12614   5.906   5.992   4.533  0.8507  0.1438 -0.6531
  120OSM   C16S12615   5.696   5.959   4.549 -0.5248  0.1782 -0.6796
  120OSM   H16S12616   5.713   5.950   4.658 -3.4352  0.0629 -0.2083
  120OSM   H16T12617   5.619   5.889   4.511 -1.1089  0.9259 -0.8857
  120OSM   C17S12618   5.636   6.098   4.531  0.3180  0.4191 -0.0679
  120OSM   H17S12619   5.581   6.088   4.434 -2.6097  0.9603  1.4644
  120OSM   H17T12620   5.712   6.175   4.506 -0.5948  1.1405 -0.6876
  120OSM   C18S12621   5.561   6.147   4.662  0.0784 -0.1692  0.9701
  120OSM   H18S12622   5.484   6.070   4.684 -0.6296  0.0949 -0.5136
  120OSM   H18T12623   5.517   6.248   4.648 -1.9595 -1.1314  0.2356
  120OSM   H18U12624   5.633   6.168   4.744  0.9327 -1.1514  0.4794
  120OSM    C1F12625   6.561   5.375   5.525 -0.2032  0.5992 -0.1982
  120OSM     OF12626   6.578   5.253   5.545  0.0124 -0.7854 -0.2737
  120OSM    C2F12627   6.675   5.473   5.501 -0.2345 -0.3644 -0.5952
  120OSM    H2F12628   6.755   5.425   5.562 -0.3389 -1.4148 -1.2710
  120OSM    H2G12629   6.659   5.579   5.528  1.2417 -0.5043  0.8802
  120OSM    C3F12630   6.718   5.480   5.354  0.1574  0.0435  0.4637
  120OSM    H3F12631   6.766   5.387   5.318 -0.9427  0.2264 -1.5377
  120OSM    H3G12632   6.796   5.559   5.356 -0.3431  0.5786 -0.9198
  120OSM    C4F12633   6.621   5.524   5.255  0.2901 -0.1161  0.7819
  120OSM    H4F12634   6.596   5.631   5.268  1.6140  0.1021  1.5793
  120OSM    H4G12635   6.531   5.460   5.271  1.6052 -2.3118 -0.2989
  120OSM    C5F12636   6.667   5.484   5.105 -0.7291  0.1944 -0.2540
  120OSM    H5F12637   6.771   5.520   5.091 -0.1126 -0.2502  2.8742
  120OSM    H5G12638   6.601   5.555   5.050  1.4707  1.7460 -0.9999
  120OSM    C6F12639   6.627   5.342   5.055  0.0402  0.2757  0.5037
  120OSM    H6F12640   6.533   5.306   5.101 -0.6794  1.3553 -0.1066
  120OSM    H6G12641   6.706   5.264   5.066 -1.5001 -1.4211 -0.1581
  120OSM    C7F12642   6.591   5.342   4.897 -0.5048 -0.3022 -0.1868
  120OSM    H7F12643   6.688   5.362   4.847 -0.0494 -0.6363  0.5516
  120OSM    H7G12644   6.523   5.424   4.867  0.1448 -0.0413 -0.9703
  120OSM    C8F12645   6.545   5.206   4.847 -0.5384 -0.4039  0.5287
  120OSM    H8F12646   6.435   5.203   4.866 -0.7879 -1.5299 -1.0123
  120OSM    H8G12647   6.598   5.127   4.905  0.3632 -0.2167 -0.0324
  120OSM    C9F12648   6.578   5.190   4.705  0.5530 -0.5415 -0.0018
  120OSM    H9F12649   6.686   5.202   4.687  0.3463 -1.2761 -1.8470
  120OSM   C10F12650   6.493   5.170   4.605  0.2289  0.1350  0.2643
  120OSM   H10F12651   6.532   5.157   4.503 -0.9377  0.6310 -0.2521
  120OSM   C11F12652   6.338   5.159   4.618  0.0848  0.1431 -0.8622
  120OSM   H11F12653   6.290   5.150   4.718 -0.5090  0.1343 -1.1436
  120OSM   H11G12654   6.305   5.062   4.574 -2.3846  1.3839 -1.8353
  120OSM   C12F12655   6.262   5.281   4.563  0.0987 -0.0378  0.1713
  120OSM   H12F12656   6.311   5.359   4.624 -0.3241 -1.7181  2.7538
  120OSM   H12G12657   6.154   5.266   4.588 -0.5156  1.0189 -1.7096
  120OSM   C13F12658   6.269   5.304   4.406 -0.0333  0.9926 -0.0150
  120OSM   H13F12659   6.212   5.223   4.354 -0.0420  1.0227 -0.0529
  120OSM   H13G12660   6.378   5.309   4.385  0.3817  1.7984  2.2089
  120OSM   C14F12661   6.192   5.428   4.358 -0.1717 -0.0411 -0.8332
  120OSM   H14F12662   6.232   5.518   4.408  0.8124 -0.3893 -0.9982
  120OSM   H14G12663   6.089   5.430   4.400 -1.1138  0.5609 -3.0922
  120OSM   C15F12664   6.205   5.445   4.211  0.6181 -0.2008  0.0357
  120OSM   H15F12665   6.160   5.353   4.168  1.0160 -0.4143  0.0729
  120OSM   H15G12666   6.310   5.450   4.174  0.7779 -2.9250  0.0468
  120OSM   C16F12667   6.150   5.576   4.166  0.5140 -0.0735 -0.6679
  120OSM   H16F12668   6.205   5.607   4.075 -0.4435  2.2276 -0.5018
  120OSM   H16G12669   6.180   5.645   4.248 -0.8323 -0.8171  0.4897
  120OSM   C17F12670   5.998   5.580   4.140 -0.7647  0.5612  0.4683
  120OSM   H17F12671   5.936   5.542   4.224 -0.9510 -2.2440 -0.8897
  120OSM   H17G12672   5.975   5.522   4.048  0.1582 -2.8557  2.3050
  120OSM   C18F12673   5.950   5.720   4.119  0.1098 -0.4978 -0.2647
  120OSM   H18F12674   5.961   5.765   4.018  1.6601 -0.3273 -0.0393
  120OSM   H18G12675   5.989   5.786   4.199 -0.9862 -1.4463  1.0860
  120OSM   H18H12676   5.842   5.724   4.143  0.3951  1.6016  0.8009
  121OSM      N12677   5.707   6.854   5.998  0.0222  0.5293 -0.1360
  121OSM    C1512678   5.733   6.947   6.108 -0.2587 -0.5445  0.2474
  121OSM   H15A12679   5.646   6.953   6.172 -0.6120  0.5997 -0.3152
  121OSM   H15B12680   5.751   7.047   6.070 -1.9834 -0.2919  0.0738
  121OSM   H15C12681   5.823   6.929   6.165  0.2772 -0.4644 -0.5686
  121OSM    C1412682   5.811   6.857   5.894  0.5199  0.5114  0.1318
  121OSM   H14A12683   5.826   6.950   5.841 -0.6317  0.1824 -0.8026
  121OSM   H14B12684   5.785   6.781   5.821 -0.5179  1.8959 -0.9707
  121OSM   H14C12685   5.907   6.841   5.940  0.9545  0.5399 -0.7531
  121OSM    C1312686   5.684   6.717   6.051  0.5413  0.8255  0.2587
  121OSM   H13A12687   5.611   6.716   6.131  1.2766 -0.1069  0.9362
  121OSM   H13B12688   5.777   6.677   6.088  0.6863  0.6383 -0.2957
  121OSM   H13C12689   5.658   6.642   5.977 -0.2838 -0.7384  2.0818
  121OSM    C1212690   5.570   6.895   5.931 -0.6088 -1.4628 -0.3374
  121OSM   H12A12691   5.497   6.914   6.009  0.8409 -0.5235  0.8274
  121OSM   H12B12692   5.535   6.806   5.882  1.3478 -1.3953 -1.9122
  121OSM    C1112693   5.574   7.010   5.827  0.2966  0.1271 -0.6208
  121OSM   H11A12694   5.469   7.031   5.799 -0.3065  0.2285  1.5622
  121OSM   H11B12695   5.625   6.981   5.733 -0.5264  2.8378 -1.9545
  121OSM      P12696   5.571   7.232   5.945 -0.7950  0.2977  0.1453
  121OSM    O1312697   5.462   7.157   6.016  0.2680 -0.0850  0.0447
  121OSM    O1412698   5.673   7.286   6.032  0.0460  0.0008 -0.2747
  121OSM    O1112699   5.514   7.338   5.854  0.6838 -0.0305 -0.0765
  121OSM    O1212700   5.648   7.128   5.857 -0.4048  0.3302  0.4596
  121OSM    C1S12701   5.604   7.447   5.808  0.3088 -0.0795 -0.3484
  121OSM    H1S12702   5.690   7.465   5.876 -2.5390  0.9170  3.0978
  121OSM    H1T12703   5.547   7.542   5.815  1.7231  0.6377  2.3524
  121OSM     NF12704   5.707   7.551   5.618 -0.2841  0.1743  0.1144
  121OSM    HNF12705   5.652   7.622   5.574 -1.7467 -0.0861  1.5053
  121OSM    C2S12706   5.648   7.428   5.663 -0.3174 -0.9736 -0.0057
  121OSM    H2S12707   5.730   7.353   5.662  0.5877 -0.0468  2.0304
  121OSM    C3S12708   5.535   7.397   5.558  1.0204  0.0237  0.1207
  121OSM    H3S12709   5.477   7.492   5.547  0.2903 -0.0509  2.9876
  121OSM     O312710   5.437   7.300   5.597  0.2237 -0.1217 -0.3193
  121OSM    HO312711   5.419   7.301   5.691  0.1157  1.0894 -0.3418
  121OSM    C4S12712   5.589   7.365   5.421  0.2488  0.0431 -0.4807
  121OSM    H4S12713   5.647   7.272   5.428 -0.7648 -0.4616  1.7152
  121OSM    C5S12714   5.561   7.422   5.303 -0.3653 -0.0521  0.2478
  121OSM    H5S12715   5.493   7.508   5.302 -0.5711 -0.2101  0.7052
  121OSM    C6S12716   5.611   7.385   5.169 -0.3411 -0.5027 -0.1784
  121OSM    H6S12717   5.522   7.350   5.113 -0.7734  1.2914 -0.6209
  121OSM    H6T12718   5.693   7.310   5.166  1.4874  1.3613  1.4748
  121OSM    C7S12719   5.648   7.500   5.065 -0.5853 -0.0480  0.6595
  121OSM    H7S12720   5.749   7.542   5.086  0.1647 -1.7823  0.5356
  121OSM    H7T12721   5.582   7.590   5.069 -2.4974 -1.3725 -0.7154
  121OSM    C8S12722   5.645   7.457   4.915 -0.3515 -0.2402  0.7113
  121OSM    H8S12723   5.636   7.347   4.900 -1.0211  0.3508 -3.8640
  121OSM    H8T12724   5.738   7.482   4.859 -1.2247  2.0640  0.2542
  121OSM    C9S12725   5.532   7.523   4.837 -0.0535  0.5720 -0.0282
  121OSM    H9S12726   5.548   7.632   4.828  0.4864  0.5714  0.8801
  121OSM    H9T12727   5.437   7.520   4.895  0.6100  1.0917  1.1035
  121OSM   C10S12728   5.503   7.472   4.701  0.5711 -0.3864 -0.3655
  121OSM   H10S12729   5.436   7.383   4.706  0.8510 -0.7045 -2.0995
  121OSM   H10T12730   5.597   7.446   4.648  0.7516  2.3430 -1.4678
  121OSM   C11S12731   5.446   7.581   4.618 -0.9983  0.1847 -0.1692
  121OSM   H11S12732   5.523   7.655   4.587 -1.9190  1.2150 -0.0282
  121OSM   H11T12733   5.369   7.632   4.680 -1.9799 -0.8785 -0.5103
  121OSM   C12S12734   5.379   7.532   4.496 -0.1488  0.0608 -0.8256
  121OSM   H12S12735   5.302   7.454   4.517 -0.1699  0.3326  0.1544
  121OSM   H12T12736   5.452   7.480   4.430 -0.7722 -0.4645 -1.1029
  121OSM   C13S12737   5.328   7.651   4.412  0.2566 -0.0671 -0.0508
  121OSM   H13S12738   5.404   7.730   4.395  2.2126 -1.7474  0.6817
  121OSM   H13T12739   5.242   7.693   4.468 -0.2490 -0.0207 -0.8447
  121OSM   C14S12740   5.261   7.619   4.274 -0.4935  0.5370 -0.0543
  121OSM   H14S12741   5.189   7.534   4.281 -1.3796  1.1966 -0.9182
  121OSM   H14T12742   5.346   7.590   4.209 -0.5573  1.8678 -0.7559
  121OSM   C15S12743   5.181   7.732   4.212  0.1575 -0.4383 -0.4764
  121OSM   H15S12744   5.243   7.819   4.180  1.1630 -0.2384  1.9014
  121OSM   H15T12745   5.103   7.750   4.289 -1.0439 -0.5639 -1.6452
  121OSM   C16S12746   5.102   7.681   4.093  1.2198 -0.5073 -0.1786
  121OSM   H16S12747   5.077   7.577   4.123  0.1562  0.2699  1.6925
  121OSM   H16T12748   5.169   7.666   4.005 -0.8138 -0.0357 -1.8578
  121OSM   C17S12749   4.977   7.764   4.053  0.8402 -0.1035 -0.0078
  121OSM   H17S12750   5.009   7.869   4.038  1.1290 -0.0298  1.0645
  121OSM   H17T12751   4.905   7.761   4.138 -0.2335 -0.7500 -0.9286
  121OSM   C18S12752   4.900   7.711   3.930 -0.3715  0.4607 -1.0960
  121OSM   H18S12753   4.972   7.698   3.846  1.7897 -0.6132  0.8524
  121OSM   H18T12754   4.817   7.771   3.889 -0.3347 -0.0604 -1.9345
  121OSM   H18U12755   4.855   7.610   3.944  1.2884 -0.2458 -0.7036
  121OSM    C1F12756   5.814   7.597   5.682 -0.1470  0.3029 -0.6652
  121OSM     OF12757   5.882   7.537   5.763  0.0058 -0.1310  0.3148
  121OSM    C2F12758   5.826   7.747   5.672  0.0649 -0.6186  0.4422
  121OSM    H2F12759   5.813   7.784   5.776 -1.7631 -2.3920  0.8592
  121OSM    H2G12760   5.756   7.785   5.595 -0.3528 -1.1601  0.5543
  121OSM    C3F12761   5.969   7.787   5.631 -0.4056 -0.1835 -0.3862
  121OSM    H3F12762   6.039   7.741   5.705  0.6085  2.8074  0.5995
  121OSM    H3G12763   5.967   7.897   5.640 -0.9746 -0.1481 -0.9306
  121OSM    C4F12764   6.022   7.740   5.493  0.6408 -0.0917  0.4882
  121OSM    H4F12765   6.032   7.631   5.471  0.0336  0.0220 -0.3771
  121OSM    H4G12766   6.124   7.782   5.482  0.5720 -0.1308 -0.2851
  121OSM    C5F12767   5.931   7.787   5.373  0.0504  0.7323  0.3321
  121OSM    H5F12768   5.825   7.756   5.385 -0.1253  1.6000  1.0093
  121OSM    H5G12769   5.963   7.738   5.278 -0.0572  2.6012 -0.6997
  121OSM    C6F12770   5.944   7.936   5.349  0.7368 -0.3297  0.0332
  121OSM    H6F12771   6.047   7.970   5.327  0.4704 -0.6697 -1.8243
  121OSM    H6G12772   5.929   7.975   5.452 -1.1091  0.0393 -0.3519
  121OSM    C7F12773   5.842   7.995   5.250  0.8109 -0.2177  0.4701
  121OSM    H7F12774   5.816   8.098   5.280 -0.2933  0.0839 -1.4604
  121OSM    H7G12775   5.752   7.931   5.250  0.5652  0.1105 -1.8915
  121OSM    C8F12776   5.907   8.010   5.107 -0.4369  0.4067  0.3688
  121OSM    H8F12777   5.902   7.907   5.067 -2.6449  0.0771  1.4410
  121OSM    H8G12778   6.014   8.040   5.120 -0.8267  1.7835  0.4732
  121OSM    C9F12779   5.830   8.113   5.029 -0.1800  0.0553 -0.0171
  121OSM    H9F12780   5.873   8.213   5.044  0.2607 -0.2563  0.8601
  121OSM   C10F12781   5.727   8.105   4.947 -0.6255  0.0193 -0.3678
  121OSM   H10F12782   5.666   8.194   4.924 -0.8331  0.2458  0.9866
  121OSM   C11F12783   5.658   7.973   4.918 -0.1014 -0.1902  0.2234
  121OSM   H11F12784   5.560   7.987   4.867 -0.0618 -0.0191  0.1934
  121OSM   H11G12785   5.653   7.917   5.014 -4.6239  0.4759  0.4684
  121OSM   C12F12786   5.747   7.896   4.810 -0.0036 -0.1485 -0.5932
  121OSM   H12F12787   5.696   7.798   4.792  1.0387 -0.7117 -0.5312
  121OSM   H12G12788   5.852   7.878   4.841 -0.1368  0.4842  0.2291
  121OSM   C13F12789   5.756   7.969   4.676 -0.2834  0.1955 -0.0110
  121OSM   H13F12790   5.811   7.896   4.613  1.0889  1.2391 -0.0347
  121OSM   H13G12791   5.817   8.062   4.676 -2.1701  1.4862  1.9599
  121OSM   C14F12792   5.622   8.008   4.621  0.3941  0.5275 -0.1842
  121OSM   H14F12793   5.600   8.112   4.653 -1.3115 -0.1678  0.9971
  121OSM   H14G12794   5.545   7.939   4.662  0.9366  0.1153  0.1349
  121OSM   C15F12795   5.610   8.013   4.467  0.0582 -0.1366  0.3681
  121OSM   H15F12796   5.507   8.038   4.432  0.2476  1.6170  0.9684
  121OSM   H15G12797   5.631   7.912   4.427  0.3959 -0.3014  0.9596
  121OSM   C16F12798   5.712   8.106   4.398  0.1443  0.1677 -0.7058
  121OSM   H16F12799   5.805   8.112   4.458 -2.7539  1.0136  4.0433
  121OSM   H16G12800   5.662   8.205   4.388  0.3638  0.1462 -2.1212
  121OSM   C17F12801   5.747   8.069   4.255  0.1646 -0.3343  0.0947
  121OSM   H17F12802   5.793   7.968   4.256  4.5685  1.5002 -2.5463
  121OSM   H17G12803   5.808   8.152   4.214  0.5499 -2.0518 -2.9565
  121OSM   C18F12804   5.624   8.061   4.158 -0.1572  0.3196  0.0205
  121OSM   H18F12805   5.556   8.145   4.184 -1.3260 -1.1967  2.0575
  121OSM   H18G12806   5.561   7.972   4.181 -0.0428  0.0708 -0.6464
  121OSM   H18H12807   5.665   8.043   4.057  0.9194 -1.5842  0.7709
  122OSM      N12808   0.874   5.958   6.078  0.2706 -0.2284  0.4216
  122OSM    C1512809   0.766   5.897   6.161 -0.1366 -0.0574  0.8583
  122OSM   H15A12810   0.775   5.925   6.265  1.3933 -2.3499  1.3948
  122OSM   H15B12811   0.772   5.789   6.159  1.2939  0.0305 -0.4283
  122OSM   H15C12812   0.669   5.929   6.126 -0.6821 -1.1623  1.3270
  122OSM    C1412813   0.838   6.106   6.068  0.1687  0.0049  0.5730
  122OSM   H14A12814   0.739   6.131   6.032  0.3529 -0.9461 -0.6363
  122OSM   H14B12815   0.906   6.151   5.996  0.7707 -1.3431  0.2866
  122OSM   H14C12816   0.851   6.158   6.162  1.3167  1.2623 -0.2569
  122OSM    C1312817   1.007   5.951   6.148 -0.3953  0.1704  0.3039
  122OSM   H13A12818   1.014   6.012   6.237 -1.4546  1.7604 -0.6734
  122OSM   H13B12819   1.084   5.979   6.077  0.9712 -1.5866  1.0723
  122OSM   H13C12820   1.035   5.852   6.181 -0.0711  1.0099  2.6254
  122OSM    C1212821   0.879   5.884   5.952  0.0669 -0.5925 -0.2245
  122OSM   H12A12822   0.866   5.779   5.974  0.2698 -0.3671  0.9978
  122OSM   H12B12823   0.974   5.899   5.903  1.0804 -0.9422  1.5787
  122OSM    C1112824   0.761   5.925   5.855 -0.6525 -0.4359 -0.0408
  122OSM   H11A12825   0.770   5.868   5.760 -2.2899  0.1704 -0.5755
  122OSM   H11B12826   0.759   6.031   5.821 -3.4031 -0.5595 -0.3084
  122OSM      P12827   0.513   5.997   5.921 -0.1211 -0.6646 -0.2837
  122OSM    O1312828   0.415   5.940   6.018  0.0032 -0.1108 -0.0942
  122OSM    O1412829   0.566   6.137   5.952  0.7003 -0.3622 -0.5329
  122OSM    O1112830   0.459   6.007   5.777 -1.0164  0.5554  0.3985
  122OSM    O1212831   0.634   5.891   5.913 -0.2758  0.2914 -0.0299
  122OSM    C1S12832   0.448   6.128   5.704  0.0701 -0.2174 -0.4162
  122OSM    H1S12833   0.541   6.188   5.715  1.2449 -2.0440 -0.1768
  122OSM    H1T12834   0.363   6.187   5.744  0.4716  0.4015 -0.4725
  122OSM     NF12835   0.415   6.231   5.480 -0.1030 -0.0760 -0.0982
  122OSM    HNF12836   0.321   6.262   5.466  0.4581  1.9213  0.3785
  122OSM    C2S12837   0.417   6.108   5.552  0.0693 -0.0851 -0.0226
  122OSM    H2S12838   0.501   6.047   5.512  1.1737  0.4983  1.3452
  122OSM    C3S12839   0.286   6.028   5.537  0.1922 -0.4811  1.1269
  122OSM    H3S12840   0.196   6.092   5.554  1.3582  1.8711 -1.1988
  122OSM     O312841   0.270   5.914   5.624  1.1753 -0.4916  0.1342
  122OSM    HO312842   0.341   5.920   5.688  1.0679  0.7108  0.1671
  122OSM    C4S12843   0.276   5.962   5.395  0.0055  0.7713  0.9464
  122OSM    H4S12844   0.316   5.861   5.375  0.5176  1.0828  0.3622
  122OSM    C5S12845   0.212   6.018   5.288 -0.0969 -0.5086  0.4616
  122OSM    H5S12846   0.164   6.116   5.303  1.0753  0.6528 -2.9425
  122OSM    C6S12847   0.200   5.969   5.144 -0.1949 -0.6280  0.0736
  122OSM    H6S12848   0.099   5.996   5.109 -0.0517  0.0186  0.1506
  122OSM    H6T12849   0.199   5.859   5.132  1.2733 -0.5126 -1.2869
  122OSM    C7S12850   0.314   6.023   5.058 -0.6993  0.5303  0.1248
  122OSM    H7S12851   0.405   5.969   5.091 -1.2687 -0.6974 -0.3043
  122OSM    H7T12852   0.328   6.132   5.074  0.2104  0.1916  1.7896
  122OSM    C8S12853   0.298   6.001   4.907 -0.0121  0.4442 -0.3677
  122OSM    H8S12854   0.201   6.051   4.884 -0.6119 -0.0049  1.0925
  122OSM    H8T12855   0.292   5.892   4.890 -0.6723  0.5346 -0.7478
  122OSM    C9S12856   0.405   6.071   4.823  0.4028  0.2151  0.2860
  122OSM    H9S12857   0.413   6.180   4.846 -0.8971  0.2695  0.5266
  122OSM    H9T12858   0.371   6.059   4.718 -0.8627 -2.3900  0.9691
  122OSM   C10S12859   0.536   6.001   4.824 -0.0326 -0.0211  0.3475
  122OSM   H10S12860   0.533   5.891   4.809 -0.5405  0.2426 -1.6115
  122OSM   H10T12861   0.591   6.036   4.915  2.8431  1.2743 -1.8135
  122OSM   C11S12862   0.601   6.046   4.695  0.4648  1.1550  0.9453
  122OSM   H11S12863   0.585   6.156   4.692 -2.3057  0.7588 -1.6661
  122OSM   H11T12864   0.546   6.010   4.605  0.4792  1.8580  0.6453
  122OSM   C12S12865   0.749   6.013   4.682  0.0657 -0.8664  0.8799
  122OSM   H12S12866   0.781   5.913   4.717  1.1683 -1.0722 -0.6649
  122OSM   H12T12867   0.781   6.070   4.772  0.4203 -0.4896  0.5161
  122OSM   C13S12868   0.822   6.051   4.554 -0.4759 -0.4904 -0.1309
  122OSM   H13S12869   0.817   6.161   4.537  1.8943 -0.3497 -0.0989
  122OSM   H13T12870   0.767   6.006   4.468  1.5859 -0.4823 -1.4925
  122OSM   C14S12871   0.973   6.007   4.554 -0.1444  0.1988  0.3643
  122OSM   H14S12872   0.978   5.902   4.517  2.5060 -0.0027  1.2160
  122OSM   H14T12873   1.023   6.023   4.651 -1.1563  1.4838  0.6876
  122OSM   C15S12874   1.050   6.079   4.441  0.1248  0.3112 -0.2654
  122OSM   H15S12875   1.159   6.088   4.463  0.4158 -1.1098 -1.0511
  122OSM   H15T12876   1.012   6.183   4.438  2.1610  1.0663 -0.8918
  122OSM   C16S12877   1.036   6.011   4.301 -0.2616  0.2390 -0.3478
  122OSM   H16S12878   0.963   5.927   4.311  1.0436 -0.9176 -0.4046
  122OSM   H16T12879   1.132   5.980   4.255 -0.1532 -0.0223  0.0507
  122OSM   C17S12880   0.973   6.109   4.205  0.3710  0.2227 -0.5149
  122OSM   H17S12881   1.054   6.177   4.171  3.7718 -2.9221  0.8932
  122OSM   H17T12882   0.891   6.172   4.244  0.6376 -0.1986  0.7519
  122OSM   C18S12883   0.931   6.041   4.068 -0.7277 -0.0847  0.4030
  122OSM   H18S12884   0.840   5.980   4.087 -0.4057 -0.7479 -0.1628
  122OSM   H18T12885   1.008   5.973   4.026 -0.7014  1.1560 -1.6683
  122OSM   H18U12886   0.905   6.118   3.991 -1.8280 -0.3885  0.4585
  122OSM    C1F12887   0.521   6.304   5.457 -0.4601 -0.6451  0.1555
  122OSM     OF12888   0.634   6.268   5.489  0.0987  0.7818 -0.0550
  122OSM    C2F12889   0.493   6.432   5.383 -0.1530  0.3766 -0.5768
  122OSM    H2F12890   0.567   6.507   5.419 -0.6722 -0.2570  1.9317
  122OSM    H2G12891   0.390   6.466   5.407  0.1566 -0.6269  2.4538
  122OSM    C3F12892   0.504   6.425   5.229  0.8657  1.5657 -0.3515
  122OSM    H3F12893   0.460   6.332   5.186  2.6334  0.6638 -0.2649
  122OSM    H3G12894   0.608   6.418   5.192  0.9330 -0.1739  0.1161
  122OSM    C4F12895   0.429   6.544   5.166 -0.4922  0.0261 -0.5732
  122OSM    H4F12896   0.466   6.643   5.198  0.5070 -1.0852  1.8708
  122OSM    H4G12897   0.320   6.543   5.189 -1.1625 -2.3474 -3.5058
  122OSM    C5F12898   0.438   6.528   5.019 -0.2886  0.5408  0.3058
  122OSM    H5F12899   0.389   6.434   4.986  2.2598 -0.7587  0.1045
  122OSM    H5G12900   0.543   6.524   4.982  0.4294  2.0921  2.0945
  122OSM    C6F12901   0.372   6.635   4.933  0.0401  0.4861 -0.2331
  122OSM    H6F12902   0.414   6.736   4.948  1.5722  0.2654 -2.5971
  122OSM    H6G12903   0.266   6.640   4.963  0.7388 -1.1841  2.6501
  122OSM    C7F12904   0.379   6.608   4.784 -1.0511  0.6576  0.5237
  122OSM    H7F12905   0.369   6.498   4.789 -0.4619  0.5476 -0.4870
  122OSM    H7G12906   0.478   6.633   4.740 -1.6029  0.9979 -0.5621
  122OSM    C8F12907   0.265   6.672   4.699 -0.7139 -0.4560  0.1508
  122OSM    H8F12908   0.307   6.773   4.681 -0.4658 -0.6463 -0.3767
  122OSM    H8G12909   0.172   6.677   4.759 -0.5030 -0.6437  0.4938
  122OSM    C9F12910   0.252   6.599   4.566 -0.1486  0.3869 -0.0374
  122OSM    H9F12911   0.212   6.496   4.559 -0.1035  0.4642 -1.6014
  122OSM   C10F12912   0.305   6.655   4.451  0.4410  0.3921  0.3352
  122OSM   H10F12913   0.290   6.597   4.359  0.2865  0.9025  0.0344
  122OSM   C11F12914   0.392   6.773   4.438 -0.5149  0.6124 -0.6260
  122OSM   H11F12915   0.490   6.771   4.490 -0.8167 -0.3723 -0.0779
  122OSM   H11G12916   0.344   6.861   4.486  1.0862  0.6899  0.8772
  122OSM   C12F12917   0.420   6.808   4.286  0.2476 -0.0286 -0.1045
  122OSM   H12F12918   0.478   6.722   4.246  1.0755 -1.1568  3.3246
  122OSM   H12G12919   0.475   6.905   4.286  1.2470 -0.3971  5.8282
  122OSM   C13F12920   0.292   6.823   4.192 -0.2911  0.3167  0.2035
  122OSM   H13F12921   0.223   6.897   4.237 -0.3512 -0.9000  2.1445
  122OSM   H13G12922   0.246   6.723   4.179  1.5665 -0.5852  0.3933
  122OSM   C14F12923   0.324   6.871   4.052  0.4169 -0.3047 -0.2091
  122OSM   H14F12924   0.396   6.955   4.059  1.3357 -0.8637 -2.5167
  122OSM   H14G12925   0.229   6.921   4.024  1.3228  0.1525 -2.6136
  122OSM   C15F12926   0.346   6.775   3.943 -0.1171 -0.5788 -0.3308
  122OSM   H15F12927   0.255   6.714   3.931  1.1195 -2.3975 -0.6588
  122OSM   H15G12928   0.431   6.705   3.955  0.5455  0.2954  0.2091
  122OSM   C16F12929   0.369   6.849   3.812 -0.0031 -0.1574 -0.9004
  122OSM   H16F12930   0.461   6.910   3.827  0.0278  0.2971 -2.8369
  122OSM   H16G12931   0.290   6.921   3.784 -0.1454 -0.1813 -0.5567
  122OSM   C17F12932   0.381   6.744   3.695 -0.5907 -0.3379  0.8855
  122OSM   H17F12933   0.282   6.709   3.658 -0.5362 -2.0818  2.3461
  122OSM   H17G12934   0.432   6.654   3.734  1.6383  0.6213  0.2699
  122OSM   C18F12935   0.463   6.801   3.579 -0.3930 -0.7362  0.2892
  122OSM   H18F12936   0.427   6.900   3.545  0.6773 -0.0901  1.0323
  122OSM   H18G12937   0.437   6.733   3.494 -0.2690  2.0723 -2.0676
  122OSM   H18H12938   0.573   6.803   3.591 -0.0753 -4.7719 -0.9247
  123OSM      N12939   2.859   4.040   1.700 -0.2430 -0.2959  0.6952
  123OSM    C1512940   2.817   4.184   1.684 -0.9302 -0.1964 -0.5675
  123OSM   H15A12941   2.725   4.204   1.738 -1.0022  0.5252 -0.9441
  123OSM   H15B12942   2.808   4.199   1.578 -0.3871 -1.0598 -0.7409
  123OSM   H15C12943   2.902   4.241   1.720 -0.1391 -0.9687 -1.1985
  123OSM    C1412944   2.766   3.957   1.618 -0.3279  0.2165 -0.5520
  123OSM   H14A12945   2.661   3.979   1.626 -0.8006 -1.2161 -2.4628
  123OSM   H14B12946   2.787   3.851   1.628 -0.0944  0.0448 -2.5277
  123OSM   H14C12947   2.784   3.975   1.513  3.0277 -2.3939 -0.5190
  123OSM    C1312948   2.996   4.029   1.651  0.4093  0.4372  0.1144
  123OSM   H13A12949   3.050   3.937   1.670 -0.0254  0.0139 -0.6458
  123OSM   H13B12950   3.051   4.104   1.705 -0.8023 -0.1905  2.2629
  123OSM   H13C12951   3.002   4.051   1.545  0.7163  0.3548  0.1147
  123OSM    C1212952   2.858   3.984   1.837  0.1264 -0.7868  0.8491
  123OSM   H12A12953   2.823   3.882   1.838  1.2878 -1.1909  0.9723
  123OSM   H12B12954   2.779   4.040   1.883 -2.4531 -1.6708 -2.3050
  123OSM    C1112955   2.980   3.986   1.930 -0.1353  0.1313 -0.2894
  123OSM   H11A12956   3.050   3.904   1.903  0.4256  0.4523  0.1702
  123OSM   H11B12957   2.940   3.977   2.033 -0.5978  0.5268 -0.4330
  123OSM      P12958   3.190   4.128   1.974 -0.2182  0.5995  0.3540
  123OSM    O1312959   3.289   4.107   1.866  1.0863  0.2581  0.0254
  123OSM    O1412960   3.204   4.253   2.047  0.7289 -0.0919  0.1761
  123OSM    O1112961   3.195   4.010   2.081 -0.4369  0.0540  0.3483
  123OSM    O1212962   3.044   4.108   1.918 -0.0796 -0.0686  0.0174
  123OSM    C1S12963   3.301   4.011   2.177 -0.2202  0.5111 -0.7639
  123OSM    H1S12964   3.376   4.089   2.156  0.5748 -0.2382 -0.7484
  123OSM    H1T12965   3.357   3.916   2.162 -2.2484 -0.6089 -1.5020
  123OSM     NF12966   3.369   4.012   2.412  0.0208 -0.1480  0.1918
  123OSM    HNF12967   3.394   3.929   2.461  0.6975  1.7427  3.1981
  123OSM    C2S12968   3.251   4.013   2.322 -0.3113  0.1452 -0.1084
  123OSM    H2S12969   3.208   4.115   2.331  2.1691  1.2086  0.2004
  123OSM    C3S12970   3.145   3.902   2.364  0.3962  0.3369  0.4080
  123OSM    H3S12971   3.199   3.804   2.359 -0.4143 -0.0934 -0.0289
  123OSM     O312972   3.034   3.891   2.267 -0.1629 -0.0192 -0.2993
  123OSM    HO312973   3.069   3.942   2.194  2.4901 -1.8808 -0.3786
  123OSM    C4S12974   3.098   3.930   2.498  0.4911  0.1968  0.2171
  123OSM    H4S12975   3.026   4.011   2.515 -2.0163 -2.2267  1.5016
  123OSM    C5S12976   3.147   3.864   2.607 -0.0851 -0.5324  0.3667
  123OSM    H5S12977   3.237   3.802   2.595  0.0316 -0.5532  1.3197
  123OSM    C6S12978   3.107   3.895   2.751  0.5360 -0.6801  0.7990
  123OSM    H6S12979   3.202   3.931   2.796 -0.0002  1.0096  0.6163
  123OSM    H6T12980   3.060   3.804   2.794  0.9210 -0.5345  1.5437
  123OSM    C7S12981   3.010   4.021   2.776  0.7744  0.1894  0.4080
  123OSM    H7S12982   2.927   4.025   2.702  2.8817 -0.5814 -2.0765
  123OSM    H7T12983   3.066   4.114   2.752 -0.3917  0.8783  0.2845
  123OSM    C8S12984   2.963   4.026   2.920 -0.8573 -0.9316  0.4255
  123OSM    H8S12985   2.900   3.940   2.952 -1.2464 -0.7883  0.0493
  123OSM    H8T12986   2.918   4.126   2.944  1.4320  0.2049  0.0817
  123OSM    C9S12987   3.086   4.015   3.013  0.5617 -0.0447 -0.0782
  123OSM    H9S12988   3.179   4.058   2.970 -0.3000  1.0570 -0.8643
  123OSM    H9T12989   3.090   3.908   3.042 -0.2031 -0.0388  0.0639
  123OSM   C10S12990   3.057   4.087   3.150 -0.3413 -0.2204 -0.2866
  123OSM   H10S12991   2.952   4.073   3.182  0.2276  1.5688  2.5666
  123OSM   H10T12992   3.075   4.193   3.119 -1.1558 -0.8045 -2.8924
  123OSM   C11S12993   3.154   4.048   3.265 -0.2227  0.5310  0.3703
  123OSM   H11S12994   3.115   4.097   3.356 -0.9890  2.0722 -0.7654
  123OSM   H11T12995   3.253   4.095   3.244 -0.5983  1.3740  0.4773
  123OSM   C12S12996   3.176   3.897   3.285 -0.4462  0.1157  0.2228
  123OSM   H12S12997   3.229   3.854   3.196 -0.5511 -0.0223  0.2270
  123OSM   H12T12998   3.071   3.860   3.277 -0.1196 -0.5835 -1.0340
  123OSM   C13S12999   3.238   3.858   3.418 -0.6603  0.0703 -0.2680
  123OSM   H13S13000   3.176   3.891   3.504 -0.2869 -2.0376  0.8539
  123OSM   H13T13001   3.340   3.902   3.421 -0.7822  0.3848 -0.7787
  123OSM   C14S13002   3.260   3.710   3.429 -0.0377 -0.4536 -0.2938
  123OSM   H14S13003   3.323   3.667   3.348 -3.5977 -0.5763 -3.1275
  123OSM   H14T13004   3.160   3.661   3.430 -0.4710  0.4293  0.1417
  123OSM   C15S13005   3.310   3.665   3.574 -0.4336  0.0382 -0.3643
  123OSM   H15S13006   3.252   3.728   3.645 -1.1830 -0.6372 -0.3794
  123OSM   H15T13007   3.415   3.700   3.582  0.0237 -1.5159  0.7764
  123OSM   C16S13008   3.303   3.517   3.616  0.6683 -0.5033 -0.8535
  123OSM   H16S13009   3.380   3.458   3.562 -1.1189 -1.8342 -2.0169
  123OSM   H16T13010   3.208   3.484   3.569 -0.7862 -0.4350  1.9390
  123OSM   C17S13011   3.302   3.480   3.761  0.0476 -0.2522 -0.0324
  123OSM   H17S13012   3.232   3.545   3.818  1.7133 -0.3424  2.1689
  123OSM   H17T13013   3.402   3.497   3.808 -0.3034  1.4539  0.1401
  123OSM   C18S13014   3.249   3.335   3.775  0.4903 -0.1749 -0.3264
  123OSM   H18S13015   3.303   3.254   3.722 -0.5138 -1.2027  0.2100
  123OSM   H18T13016   3.145   3.324   3.737  0.9297  0.6850 -1.8498
  123OSM   H18U13017   3.236   3.313   3.883 -0.2821  1.6622 -0.0126
  123OSM    C1F13018   3.464   4.100   2.433  0.2643  0.7692  0.2713
  123OSM     OF13019   3.479   4.204   2.369  0.3952 -0.2826  0.0120
  123OSM    C2F13020   3.566   4.046   2.531  0.1614 -0.1311 -0.1389
  123OSM    H2F13021   3.652   4.116   2.541 -0.1470  0.6132 -2.5552
  123OSM    H2G13022   3.604   3.947   2.498  0.0465 -0.4215  0.5841
  123OSM    C3F13023   3.498   4.029   2.675 -0.1413 -0.0562  0.3270
  123OSM    H3F13024   3.415   3.955   2.677 -0.6436  0.4946 -0.3891
  123OSM    H3G13025   3.466   4.130   2.709  0.3378  0.3845 -0.5236
  123OSM    C4F13026   3.595   3.974   2.779  0.0656 -0.2667  0.2705
  123OSM    H4F13027   3.673   4.054   2.781 -1.2370  1.0393 -0.3015
  123OSM    H4G13028   3.643   3.877   2.755  2.0185  1.1310 -1.6147
  123OSM    C5F13029   3.526   3.969   2.918  0.1829  0.1352 -0.2873
  123OSM    H5F13030   3.449   3.888   2.915 -2.3259  2.4368 -0.6361
  123OSM    H5G13031   3.479   4.069   2.930  4.1196  1.8769  1.5047
  123OSM    C6F13032   3.626   3.946   3.034 -0.0787 -0.6776 -0.1434
  123OSM    H6F13033   3.688   4.037   3.026 -2.6521  1.2712  1.2883
  123OSM    H6G13034   3.682   3.852   3.011 -0.7665 -0.9280 -0.8100
  123OSM    C7F13035   3.558   3.948   3.179 -0.3417  0.7756  0.3018
  123OSM    H7F13036   3.494   3.858   3.195 -1.2205  1.2276 -0.6175
  123OSM    H7G13037   3.490   4.035   3.179 -1.2235  0.1010  1.1013
  123OSM    C8F13038   3.656   3.979   3.290  0.7430 -0.0757  0.3032
  123OSM    H8F13039   3.598   4.023   3.374  0.8386 -1.0827  0.9060
  123OSM    H8G13040   3.727   4.062   3.268 -1.1947  1.6258  0.3684
  123OSM    C9F13041   3.740   3.866   3.350  0.2529  0.3603 -0.3516
  123OSM    H9F13042   3.821   3.832   3.285  0.9550  1.3882 -0.0270
  123OSM   C10F13043   3.739   3.818   3.474  1.0435  0.0757 -0.3778
  123OSM   H10F13044   3.794   3.728   3.505 -0.3851 -0.1771  1.5355
  123OSM   C11F13045   3.639   3.865   3.586  0.2434  0.1002 -0.7573
  123OSM   H11F13046   3.600   3.781   3.646  1.2629 -0.8454 -1.4006
  123OSM   H11G13047   3.553   3.919   3.541 -1.6941 -1.9831  0.3959
  123OSM   C12F13048   3.699   3.958   3.693  0.2898 -0.0943 -0.2562
  123OSM   H12F13049   3.610   4.001   3.744  0.1511 -0.9501  0.2307
  123OSM   H12G13050   3.751   4.048   3.653  0.3066  1.2749  2.7432
  123OSM   C13F13051   3.779   3.877   3.789  0.1627 -0.4102 -0.1019
  123OSM   H13F13052   3.863   3.831   3.732  0.5441 -1.0970  1.0037
  123OSM   H13G13053   3.719   3.794   3.833 -3.7921  2.8074  0.8172
  123OSM   C14F13054   3.821   3.963   3.905 -0.3548 -0.0214 -0.5545
  123OSM   H14F13055   3.868   4.051   3.855  0.5629  1.3165  2.5579
  123OSM   H14G13056   3.897   3.908   3.963 -0.1928  0.0291 -0.7163
  123OSM   C15F13057   3.704   4.008   3.994  0.1474 -0.0154  0.3279
  123OSM   H15F13058   3.641   3.920   4.019  1.3091 -0.8794  0.2964
  123OSM   H15G13059   3.630   4.072   3.942 -1.1985  1.3216  3.7017
  123OSM   C16F13060   3.761   4.078   4.117 -0.5514 -0.2097  0.9089
  123OSM   H16F13061   3.804   4.173   4.077 -2.5143  1.2663  2.1966
  123OSM   H16G13062   3.831   4.008   4.166 -2.8831 -2.6474  0.8384
  123OSM   C17F13063   3.651   4.106   4.217  0.2327 -0.4111  0.4911
  123OSM   H17F13064   3.622   4.013   4.270  0.4408 -0.3864  0.6492
  123OSM   H17G13065   3.562   4.157   4.175  0.0738 -0.8188  0.3304
  123OSM   C18F13066   3.716   4.196   4.331 -0.5985 -0.4647 -0.1303
  123OSM   H18F13067   3.662   4.182   4.426 -0.1983  2.1270  0.5231
  123OSM   H18G13068   3.707   4.302   4.297 -1.1933 -0.8714 -1.2842
  123OSM   H18H13069   3.824   4.172   4.342 -0.5512 -0.3526 -0.3312
  124OSM      N13070   2.356   4.697   1.935  0.8819 -0.9849  0.0566
  124OSM    C1513071   2.208   4.722   1.890  0.1673 -0.2098 -0.3490
  124OSM   H15A13072   2.182   4.653   1.811  1.8526 -0.1079 -1.0153
  124OSM   H15B13073   2.209   4.825   1.858  0.7240  0.0459  0.4967
  124OSM   H15C13074   2.139   4.700   1.970  1.7892  1.0699  1.4333
  124OSM    C1413075   2.345   4.562   1.996  0.5239  0.3372 -0.5322
  124OSM   H14A13076   2.315   4.487   1.925  1.0373 -1.3325  0.9888
  124OSM   H14B13077   2.274   4.566   2.078 -0.7913  1.3257 -1.6805
  124OSM   H14C13078   2.438   4.533   2.042  1.2297  0.2142 -2.0144
  124OSM    C1313079   2.440   4.685   1.810 -0.5975 -0.1025  0.4445
  124OSM   H13A13080   2.383   4.646   1.727 -1.1797  0.5301  0.5477
  124OSM   H13B13081   2.530   4.629   1.830 -0.1209  1.0040  1.4588
  124OSM   H13C13082   2.480   4.781   1.783 -2.1239  0.6186  0.7063
  124OSM    C1213083   2.411   4.792   2.043  0.3395  0.2696  0.1531
  124OSM   H12A13084   2.509   4.756   2.070  0.5981  0.8998  0.0728
  124OSM   H12B13085   2.351   4.775   2.130 -1.4383 -2.0141 -1.4795
  124OSM    C1113086   2.396   4.945   2.020 -0.2019 -0.1403  1.0076
  124OSM   H11A13087   2.428   4.997   2.113 -1.0989  0.3954  1.0264
  124OSM   H11B13088   2.289   4.966   1.999 -0.3702 -0.2559  1.7296
  124OSM      P13089   2.628   4.986   1.903  0.2201 -0.0079  0.0814
  124OSM    O1313090   2.666   4.850   1.859 -0.0012 -0.3777  0.5689
  124OSM    O1413091   2.684   5.106   1.835 -0.1865  0.0478  0.3493
  124OSM    O1113092   2.666   5.009   2.049  0.0109  0.1729  0.1548
  124OSM    O1213093   2.468   4.987   1.904  0.0846 -0.3103  0.2322
  124OSM    C1S13094   2.787   5.077   2.097  0.4067  0.7533 -0.2929
  124OSM    H1S13095   2.769   5.187   2.106  3.8194  1.5260 -2.0325
  124OSM    H1T13096   2.869   5.085   2.022  0.5895  1.7458 -0.0020
  124OSM     NF13097   2.964   5.115   2.263 -0.2600 -0.4667 -0.0177
  124OSM    HNF13098   3.054   5.076   2.246  0.0566  0.3005 -0.0716
  124OSM    C2S13099   2.833   5.035   2.238 -0.6566 -0.6923  0.5819
  124OSM    H2S13100   2.752   5.059   2.310  0.7789  1.9403  1.3558
  124OSM    C3S13101   2.852   4.881   2.248  0.3532 -0.1016 -0.2486
  124OSM    H3S13102   2.918   4.856   2.162 -0.3350 -1.7527 -0.3158
  124OSM     O313103   2.733   4.802   2.228  0.2288  0.4238 -0.0580
  124OSM    HO313104   2.672   4.863   2.187  0.3819  0.1337 -0.7243
  124OSM    C4S13105   2.918   4.839   2.381  0.0631  0.4325 -0.4965
  124OSM    H4S13106   2.881   4.885   2.474  0.6401 -0.6697  0.2810
  124OSM    C5S13107   3.032   4.762   2.391 -0.0878  0.5605 -0.0010
  124OSM    H5S13108   3.075   4.724   2.297 -1.8031  0.1519 -0.6293
  124OSM    C6S13109   3.111   4.749   2.521  0.2856  0.0418  0.6251
  124OSM    H6S13110   3.143   4.643   2.530 -0.1349  0.0028  1.7841
  124OSM    H6T13111   3.047   4.765   2.611  0.0310 -0.5517  0.5521
  124OSM    C7S13112   3.229   4.844   2.546 -0.1557 -0.1324  0.1931
  124OSM    H7S13113   3.198   4.950   2.545  3.7455  1.1069 -0.7974
  124OSM    H7T13114   3.296   4.828   2.459 -0.2986 -2.2420  0.4549
  124OSM    C8S13115   3.313   4.813   2.670 -0.0638  0.8299  0.1062
  124OSM    H8S13116   3.340   4.705   2.668 -1.3193  0.5202 -3.3133
  124OSM    H8T13117   3.263   4.837   2.765 -0.1394 -1.3307  0.6363
  124OSM    C9S13118   3.443   4.893   2.670 -0.0154 -0.4041  0.2872
  124OSM    H9S13119   3.421   5.000   2.688 -0.1318 -0.3394 -0.2367
  124OSM    H9T13120   3.492   4.880   2.571 -1.2977 -0.4908 -0.3368
  124OSM   C10S13121   3.555   4.852   2.777  0.5372 -0.3132  0.5856
  124OSM   H10S13122   3.631   4.933   2.770 -0.1891  0.2086 -1.6678
  124OSM   H10T13123   3.612   4.764   2.741 -1.0222  0.0428 -3.0052
  124OSM   C11S13124   3.500   4.817   2.912  0.0037 -0.3522 -0.4772
  124OSM   H11S13125   3.433   4.729   2.926  0.3444 -0.4523  0.6284
  124OSM   H11T13126   3.437   4.906   2.933 -1.5246 -1.5573  0.1973
  124OSM   C12S13127   3.603   4.813   3.022 -0.4077 -0.0885 -0.2219
  124OSM   H12S13128   3.656   4.911   3.024 -0.4704 -0.0753  0.5543
  124OSM   H12T13129   3.681   4.741   2.988  1.3925  1.3684  0.6932
  124OSM   C13S13130   3.536   4.781   3.158 -0.0343  0.1503  0.1355
  124OSM   H13S13131   3.489   4.681   3.153  3.4508 -1.4675 -2.1460
  124OSM   H13T13132   3.453   4.853   3.175  0.2100  0.3846  0.3457
  124OSM   C14S13133   3.638   4.773   3.281  0.3429  0.4603  0.8452
  124OSM   H14S13134   3.690   4.867   3.310 -0.2642  0.3773  2.2216
  124OSM   H14T13135   3.716   4.706   3.238  0.0038 -0.0181  0.9724
  124OSM   C15S13136   3.573   4.726   3.414 -0.1397  0.9110  0.5260
  124OSM   H15S13137   3.647   4.689   3.489 -1.5291 -2.3422  0.3936
  124OSM   H15T13138   3.506   4.642   3.384  0.6491  0.1424  0.8738
  124OSM   C16S13139   3.477   4.825   3.483  0.6231 -0.8740 -0.2692
  124OSM   H16S13140   3.398   4.852   3.410  0.5423  1.4468  0.6527
  124OSM   H16T13141   3.525   4.922   3.507 -1.0622  0.0947 -0.6951
  124OSM   C17S13142   3.403   4.778   3.607  0.5333  0.3037  0.1368
  124OSM   H17S13143   3.354   4.679   3.600  1.4150 -0.1465  0.3025
  124OSM   H17T13144   3.325   4.853   3.632 -0.3782 -0.7179  0.4094
  124OSM   C18S13145   3.503   4.787   3.730  0.1348  0.0246  0.3513
  124OSM   H18S13146   3.443   4.804   3.822 -0.9707  0.1499 -0.3830
  124OSM   H18T13147   3.578   4.867   3.711  1.7551 -1.5087  0.1963
  124OSM   H18U13148   3.558   4.692   3.742 -0.4425 -0.6944 -2.3726
  124OSM    C1F13149   2.962   5.250   2.283 -0.1997  0.4975  0.4361
  124OSM     OF13150   2.853   5.311   2.276 -0.1150  0.3798 -0.0829
  124OSM    C2F13151   3.088   5.319   2.313 -0.4298  0.2049 -0.9906
  124OSM    H2F13152   3.092   5.407   2.245  0.9623  0.5114 -0.5177
  124OSM    H2G13153   3.170   5.245   2.299  0.2996  0.6036  0.9744
  124OSM    C3F13154   3.091   5.369   2.457 -0.2205  0.0060  0.0577
  124OSM    H3F13155   3.004   5.433   2.483  0.0071  0.4775 -0.3398
  124OSM    H3G13156   3.184   5.429   2.467 -0.8798  0.7113  2.2392
  124OSM    C4F13157   3.117   5.253   2.559 -0.2910  0.6409 -0.4031
  124OSM    H4F13158   3.215   5.209   2.531  1.1289  2.2153  1.9031
  124OSM    H4G13159   3.036   5.178   2.543 -0.1234  0.6913 -1.5124
  124OSM    C5F13160   3.105   5.294   2.703  0.1617 -0.4043 -0.1133
  124OSM    H5F13161   3.007   5.346   2.711  1.4331  2.0121  0.5345
  124OSM    H5G13162   3.188   5.365   2.723 -0.4861  0.3902 -0.1872
  124OSM    C6F13163   3.106   5.170   2.796 -0.0978 -0.2746 -0.2366
  124OSM    H6F13164   3.207   5.128   2.812  2.0759  3.4617 -3.2555
  124OSM    H6G13165   3.051   5.085   2.750 -1.5883 -0.6695  2.1667
  124OSM    C7F13166   3.046   5.194   2.940 -0.5531 -0.3352 -0.0787
  124OSM    H7F13167   2.935   5.195   2.944 -0.6085 -0.8832 -1.2235
  124OSM    H7G13168   3.083   5.294   2.971 -0.3187  0.2143 -2.0611
  124OSM    C8F13169   3.081   5.087   3.048 -0.0456 -0.0503  0.4649
  124OSM    H8F13170   3.062   4.986   3.006  2.0294 -0.4043  0.3137
  124OSM    H8G13171   3.003   5.097   3.126 -0.9672  0.0541 -0.4539
  124OSM    C9F13172   3.219   5.102   3.104  0.0572  0.1717 -0.5848
  124OSM    H9F13173   3.300   5.051   3.049 -0.6346  0.2056 -1.6399
  124OSM   C10F13174   3.247   5.165   3.217  0.2812  0.4497 -0.4223
  124OSM   H10F13175   3.355   5.182   3.233 -0.2923  1.3962  2.9871
  124OSM   C11F13176   3.159   5.241   3.316 -0.6302 -0.1213  0.1714
  124OSM   H11F13177   3.192   5.221   3.420  1.1660 -0.8591 -0.5290
  124OSM   H11G13178   3.053   5.210   3.313 -0.3685 -0.9252 -0.7809
  124OSM   C12F13179   3.167   5.396   3.299  0.4539 -0.2805  0.4528
  124OSM   H12F13180   3.119   5.418   3.201 -0.0584  1.5594  1.1007
  124OSM   H12G13181   3.272   5.430   3.289  1.0431 -1.9310  0.8572
  124OSM   C13F13182   3.106   5.473   3.419  0.5395  0.5383  0.8334
  124OSM   H13F13183   3.109   5.580   3.388 -0.6127 -0.1883 -1.8796
  124OSM   H13G13184   3.163   5.459   3.514 -2.0689 -0.2998  2.3387
  124OSM   C14F13185   2.959   5.433   3.456  0.0856 -0.5794  0.1228
  124OSM   H14F13186   2.960   5.324   3.480 -2.6702 -0.1492  2.4342
  124OSM   H14G13187   2.878   5.458   3.384 -0.3995 -0.0185  0.8634
  124OSM   C15F13188   2.925   5.499   3.591 -0.2936 -0.0927 -0.5889
  124OSM   H15F13189   2.890   5.603   3.577 -1.6469 -0.0436  2.8200
  124OSM   H15G13190   3.006   5.505   3.666  1.6416  0.2550 -2.6282
  124OSM   C16F13191   2.814   5.415   3.654 -0.0100 -0.2873  0.1104
  124OSM   H16F13192   2.829   5.307   3.634 -2.8006 -0.9754  1.5128
  124OSM   H16G13193   2.727   5.431   3.586  0.4757  0.3891 -0.3600
  124OSM   C17F13194   2.786   5.461   3.798 -0.1414 -0.2412 -0.8376
  124OSM   H17F13195   2.876   5.455   3.862 -0.1648  0.3090 -0.7504
  124OSM   H17G13196   2.724   5.386   3.851 -0.7426  0.7214 -0.1765
  124OSM   C18F13197   2.713   5.597   3.804  0.3999  0.4180  0.3956
  124OSM   H18F13198   2.794   5.670   3.784 -0.2680  0.6197 -1.6136
  124OSM   H18G13199   2.671   5.607   3.907 -3.0176 -2.5562 -0.6135
  124OSM   H18H13200   2.627   5.603   3.734 -0.1018 -0.0231  0.9649
  125OSM      N13201   3.765   3.130   1.825 -0.2321 -0.6266 -0.1788
  125OSM    C1513202   3.658   3.220   1.774  1.1219 -0.5993  0.2082
  125OSM   H15A13203   3.562   3.177   1.799 -0.2618  2.2040 -0.1536
  125OSM   H15B13204   3.648   3.223   1.666 -2.8773  0.3699  0.5388
  125OSM   H15C13205   3.667   3.321   1.809 -5.0012  0.8730 -1.8501
  125OSM    C1413206   3.736   3.003   1.747 -0.8929  0.0961 -0.1794
  125OSM   H14A13207   3.633   2.974   1.762 -0.6154 -0.4498  0.7073
  125OSM   H14B13208   3.794   2.921   1.785 -0.2307  0.4987 -0.3076
  125OSM   H14C13209   3.757   3.010   1.641 -0.5914  0.0119 -0.1256
  125OSM    C1313210   3.888   3.203   1.769 -0.7016 -0.1069 -0.0747
  125OSM   H13A13211   3.896   3.302   1.813  0.7235 -1.3086  2.5031
  125OSM   H13B13212   3.888   3.224   1.664 -1.3736  1.4896  0.2346
  125OSM   H13C13213   3.979   3.149   1.793 -1.3950 -0.7824  1.0863
  125OSM    C1213214   3.758   3.110   1.973 -0.2650  0.4992 -0.3602
  125OSM   H12A13215   3.667   3.056   1.993 -0.6003  0.8069 -1.0712
  125OSM   H12B13216   3.751   3.207   2.019  2.1998 -0.4020  2.0682
  125OSM    C1113217   3.871   3.029   2.041  0.0410 -0.7080 -0.7280
  125OSM   H11A13218   3.871   3.048   2.150  1.6620 -2.3073 -0.4323
  125OSM   H11B13219   3.965   3.071   2.001  0.0245 -2.5963 -2.8502
  125OSM      P13220   3.760   2.804   2.077  0.5769  0.0913  0.7366
  125OSM    O1313221   3.626   2.861   2.054  0.1401  0.2213 -0.0063
  125OSM    O1413222   3.784   2.666   2.026 -0.1933  0.9620  0.1596
  125OSM    O1113223   3.791   2.806   2.229  0.2456  0.1266  0.1011
  125OSM    O1213224   3.870   2.895   2.013 -0.3046  0.3328 -0.7811
  125OSM    C1S13225   3.688   2.782   2.325  0.8259 -0.0239 -0.2983
  125OSM    H1S13226   3.589   2.762   2.279  0.3967  1.9659 -0.2564
  125OSM    H1T13227   3.691   2.882   2.373 -0.9047  1.0114 -2.2732
  125OSM     NF13228   3.596   2.639   2.494 -0.2341 -0.8269  1.4642
  125OSM    HNF13229   3.578   2.682   2.582  1.7375  1.2993  0.8644
  125OSM    C2S13230   3.721   2.673   2.432  1.1300 -1.0317 -0.1312
  125OSM    H2S13231   3.761   2.583   2.382  1.2046 -1.5878  0.9252
  125OSM    C3S13232   3.825   2.718   2.533 -0.0740  0.4311 -0.1279
  125OSM    H3S13233   3.804   2.820   2.572 -0.4406 -0.1570  1.2539
  125OSM     O313234   3.948   2.745   2.471  0.2486  0.2056  0.1478
  125OSM    HO313235   3.936   2.753   2.376  0.1597  0.2613  0.1640
  125OSM    C4S13236   3.848   2.620   2.643 -0.1398  0.0020  0.0883
  125OSM    H4S13237   3.911   2.536   2.612  0.4377  0.6287 -0.4432
  125OSM    C5S13238   3.804   2.638   2.769  0.2183  0.4349  0.2339
  125OSM    H5S13239   3.774   2.733   2.816 -1.3678  1.1364 -2.0920
  125OSM    C6S13240   3.812   2.524   2.869  0.0548 -0.6225 -0.0554
  125OSM    H6S13241   3.733   2.450   2.843  0.7898 -1.2556 -0.5292
  125OSM    H6T13242   3.790   2.556   2.973 -0.1105  0.1360 -0.3232
  125OSM    C7S13243   3.943   2.443   2.878 -0.3130 -0.0568 -0.1905
  125OSM    H7S13244   4.013   2.513   2.927 -1.3734  0.5025  0.5426
  125OSM    H7T13245   3.982   2.410   2.779 -0.6964 -0.1410 -0.3135
  125OSM    C8S13246   3.939   2.305   2.954 -0.1564  0.3911  0.0984
  125OSM    H8S13247   4.044   2.285   2.983 -0.1604  1.4301  0.8131
  125OSM    H8T13248   3.897   2.222   2.892 -1.3248 -1.1788  2.8675
  125OSM    C9S13249   3.851   2.306   3.082  0.0747 -0.2986  0.9196
  125OSM    H9S13250   3.858   2.203   3.123 -0.6954 -0.0438  1.7084
  125OSM    H9T13251   3.750   2.352   3.072  0.8407  1.3367  0.4726
  125OSM   C10S13252   3.914   2.395   3.193  0.0165  0.5134  0.3591
  125OSM   H10S13253   3.903   2.502   3.165  3.0064  0.1213 -2.5576
  125OSM   H10T13254   4.022   2.375   3.206 -0.0696 -0.4065 -0.2928
  125OSM   C11S13255   3.838   2.365   3.321  0.0368 -0.6097  0.3093
  125OSM   H11S13256   3.880   2.272   3.365 -1.8120 -0.7944  1.7597
  125OSM   H11T13257   3.731   2.355   3.292 -0.1498  0.3195  0.6601
  125OSM   C12S13258   3.843   2.481   3.421  0.1993 -0.3351  0.1101
  125OSM   H12S13259   3.802   2.578   3.387  0.1908  0.7893  3.1059
  125OSM   H12T13260   3.951   2.507   3.432  0.3588  0.5314 -3.1772
  125OSM   C13S13261   3.767   2.459   3.549  0.3510  0.1719  0.8172
  125OSM   H13S13262   3.801   2.361   3.588  1.7052  0.1058 -0.5041
  125OSM   H13T13263   3.657   2.446   3.539  0.7705 -2.1062 -1.4174
  125OSM   C14S13264   3.778   2.579   3.652  0.0453  0.0446 -0.1454
  125OSM   H14S13265   3.762   2.672   3.593  2.7394 -0.2918 -1.4792
  125OSM   H14T13266   3.881   2.594   3.688 -0.1738 -0.5837  0.7508
  125OSM   C15S13267   3.680   2.559   3.763  0.9701 -0.5624  0.1562
  125OSM   H15S13268   3.574   2.564   3.730  1.0010 -1.5155 -0.0852
  125OSM   H15T13269   3.692   2.649   3.827 -0.3278  0.3629 -0.8521
  125OSM   C16S13270   3.698   2.429   3.839 -1.2330 -0.3509 -0.0498
  125OSM   H16S13271   3.795   2.432   3.894 -0.4566 -2.3688 -1.2599
  125OSM   H16T13272   3.710   2.343   3.770 -1.5270  0.0197 -0.5596
  125OSM   C17S13273   3.593   2.408   3.941 -0.0017 -0.1633  0.1039
  125OSM   H17S13274   3.603   2.316   4.002  0.3109 -1.2528 -1.5415
  125OSM   H17T13275   3.509   2.368   3.880  1.2847 -3.1693  0.2196
  125OSM   C18S13276   3.576   2.532   4.031  0.3519 -0.0837  0.0176
  125OSM   H18S13277   3.679   2.540   4.071 -0.5261  1.1989  2.1395
  125OSM   H18T13278   3.509   2.517   4.119  1.4624 -1.7391  0.6038
  125OSM   H18U13279   3.559   2.628   3.979  0.9894 -0.3065 -0.6040
  125OSM    C1F13280   3.498   2.575   2.426 -0.0227  0.3579  0.5072
  125OSM     OF13281   3.535   2.513   2.322 -0.0666 -0.4310 -0.6079
  125OSM    C2F13282   3.354   2.572   2.470 -0.0893 -0.3269  0.6331
  125OSM    H2F13283   3.330   2.464   2.478 -0.3191 -0.2518  0.9558
  125OSM    H2G13284   3.299   2.609   2.381  1.2728  1.7400  0.6033
  125OSM    C3F13285   3.307   2.655   2.591  0.3573  0.1108 -0.1864
  125OSM    H3F13286   3.199   2.681   2.591  0.8587  2.6197  4.3757
  125OSM    H3G13287   3.365   2.748   2.575 -0.3868  0.8048  1.0631
  125OSM    C4F13288   3.343   2.598   2.728  0.6437 -0.2336 -0.3073
  125OSM    H4F13289   3.444   2.552   2.718  0.2629 -0.8712 -1.3658
  125OSM    H4G13290   3.277   2.511   2.752  1.3571 -0.0546  2.4748
  125OSM    C5F13291   3.346   2.711   2.831  0.0183 -0.2637 -0.3205
  125OSM    H5F13292   3.257   2.773   2.856 -1.5061 -2.1147 -0.9921
  125OSM    H5G13293   3.430   2.775   2.797  1.6472 -1.8780  0.5411
  125OSM    C6F13294   3.375   2.657   2.976  0.6431  0.1061  0.0748
  125OSM    H6F13295   3.329   2.556   2.983  0.6839  0.1491  1.0281
  125OSM    H6G13296   3.332   2.722   3.056  2.0246 -0.9776  1.7398
  125OSM    C7F13297   3.522   2.632   2.998  0.2462 -0.0283 -1.0146
  125OSM    H7F13298   3.578   2.715   2.951  1.1863  1.8840  3.2380
  125OSM    H7G13299   3.540   2.537   2.943  0.0266 -0.5285 -0.2339
  125OSM    C8F13300   3.567   2.618   3.149  0.2337 -0.0218  0.2588
  125OSM    H8F13301   3.560   2.722   3.189 -4.1882 -0.1329 -0.0512
  125OSM    H8G13302   3.673   2.585   3.142  0.9622  1.8452  1.9072
  125OSM    C9F13303   3.479   2.518   3.227 -0.0388  0.4305  0.1311
  125OSM    H9F13304   3.499   2.413   3.204  0.8568 -0.0691  3.0233
  125OSM   C10F13305   3.406   2.539   3.339  0.5834  0.0119  0.0205
  125OSM   H10F13306   3.369   2.448   3.387  0.0203 -0.4081 -1.1855
  125OSM   C11F13307   3.377   2.674   3.394 -0.5645  0.2048  0.4804
  125OSM   H11F13308   3.438   2.755   3.348 -1.1644  0.6203  0.4159
  125OSM   H11G13309   3.411   2.688   3.499 -0.7497 -0.1011  0.5827
  125OSM   C12F13310   3.224   2.712   3.406  0.3048 -0.5396  0.1347
  125OSM   H12F13311   3.195   2.709   3.299 -0.4592  1.1098  0.2748
  125OSM   H12G13312   3.210   2.819   3.432 -0.7094 -0.5111 -0.5131
  125OSM   C13F13313   3.147   2.624   3.504 -0.2039 -0.2121  0.3534
  125OSM   H13F13314   3.172   2.521   3.468 -2.6838 -0.6556 -0.2021
  125OSM   H13G13315   3.039   2.638   3.486 -0.7488 -1.9925  2.0044
  125OSM   C14F13316   3.182   2.648   3.656  0.9918 -0.2210 -0.5259
  125OSM   H14F13317   3.285   2.620   3.685 -0.3306 -0.8690  3.9785
  125OSM   H14G13318   3.121   2.571   3.708  3.4635 -0.5427  2.0454
  125OSM   C15F13319   3.158   2.789   3.705 -0.7154 -0.0718  0.2765
  125OSM   H15F13320   3.057   2.833   3.687 -0.4363  0.4120 -0.1474
  125OSM   H15G13321   3.230   2.849   3.644 -0.8715 -2.2682 -2.1394
  125OSM   C16F13322   3.201   2.795   3.849  0.5077 -0.3243  0.4416
  125OSM   H16F13323   3.198   2.903   3.873 -0.7308 -0.3407  0.4135
  125OSM   H16G13324   3.302   2.754   3.867  0.9865  0.7873  0.3187
  125OSM   C17F13325   3.117   2.712   3.949 -0.1141 -0.0615  0.2118
  125OSM   H17F13326   3.128   2.605   3.922 -0.4146 -0.1973  0.6160
  125OSM   H17G13327   3.016   2.749   3.922 -0.1166 -0.2167  0.0138
  125OSM   C18F13328   3.146   2.748   4.099  0.2388  0.1025 -0.5950
  125OSM   H18F13329   3.252   2.739   4.131 -0.0694 -0.4362  0.3111
  125OSM   H18G13330   3.088   2.687   4.172 -3.1723  2.5033 -1.1707
  125OSM   H18H13331   3.114   2.851   4.125 -2.3399 -1.3571  2.3669
  126OSM      N13332   2.077   2.798   1.916  0.2843 -0.2751 -0.1546
  126OSM    C1513333   2.110   2.888   2.037  0.2541  0.1125 -0.3637
  126OSM   H15A13334   2.166   2.974   2.003  0.7426 -0.3938 -0.8575
  126OSM   H15B13335   2.175   2.832   2.103  0.6663  0.2225 -0.6714
  126OSM   H15C13336   2.022   2.925   2.086 -0.6500 -1.4609 -0.7525
  126OSM    C1413337   1.987   2.875   1.824 -0.3711  0.4017  0.1897
  126OSM   H14A13338   1.907   2.816   1.781 -0.1649 -0.5378  1.0790
  126OSM   H14B13339   2.041   2.920   1.742  0.4748 -3.3843 -1.4670
  126OSM   H14C13340   1.948   2.960   1.876 -2.4937 -1.4863  1.7848
  126OSM    C1313341   2.202   2.759   1.849 -0.0536  0.0276 -0.4642
  126OSM   H13A13342   2.238   2.836   1.782 -2.5028  0.0689 -1.7804
  126OSM   H13B13343   2.182   2.677   1.782 -1.1417 -1.4798  1.6453
  126OSM   H13C13344   2.277   2.718   1.916 -0.8481  1.2098  1.1772
  126OSM    C1213345   1.995   2.684   1.979  0.1677  0.3293  0.2625
  126OSM   H12A13346   1.918   2.718   2.046 -0.7353  1.5822 -1.3770
  126OSM   H12B13347   2.054   2.631   2.052  1.4594  0.0094 -0.9842
  126OSM    C1113348   1.944   2.580   1.874 -0.1720  0.8030 -0.3493
  126OSM   H11A13349   1.909   2.631   1.782  0.8176  1.0069 -0.6218
  126OSM   H11B13350   1.857   2.527   1.918  0.2465 -1.5355 -2.2488
  126OSM      P13351   2.091   2.376   1.940 -0.2561 -0.0457  0.3281
  126OSM    O1313352   1.977   2.276   1.948  0.4099 -0.2655 -0.5165
  126OSM    O1413353   2.217   2.324   1.889  0.2006  0.0682 -0.4942
  126OSM    O1113354   2.112   2.443   2.081 -0.1052 -0.0218  0.0749
  126OSM    O1213355   2.058   2.493   1.845 -0.0384 -0.3886 -0.3324
  126OSM    C1S13356   2.237   2.492   2.127 -0.4170  0.3958 -0.0767
  126OSM    H1S13357   2.248   2.595   2.087  1.3081  1.0079  1.9002
  126OSM    H1T13358   2.327   2.441   2.087 -0.7067 -0.6733  0.6137
  126OSM     NF13359   2.366   2.569   2.316 -0.1206  0.7231 -0.9695
  126OSM    HNF13360   2.452   2.519   2.326 -0.4314  0.3501 -0.1089
  126OSM    C2S13361   2.247   2.494   2.283 -1.1667 -0.0435 -0.0865
  126OSM    H2S13362   2.157   2.545   2.324 -0.0194  1.0038  1.1412
  126OSM    C3S13363   2.244   2.342   2.333  0.3692 -0.2915  0.4062
  126OSM    H3S13364   2.342   2.305   2.295 -0.0807 -0.1315 -0.9499
  126OSM     O313365   2.142   2.266   2.270 -0.1169  0.3181 -0.4209
  126OSM    HO313366   2.093   2.328   2.216  0.4963  0.2704 -1.0351
  126OSM    C4S13367   2.231   2.331   2.482 -0.3520  0.4187 -1.0103
  126OSM    H4S13368   2.326   2.330   2.537 -0.5294 -2.6194 -0.6423
  126OSM    C5S13369   2.120   2.322   2.557  0.5592  0.1223 -0.1164
  126OSM    H5S13370   2.018   2.328   2.515  0.3269  1.0793  0.5442
  126OSM    C6S13371   2.110   2.315   2.706  0.2449 -0.2921 -0.7649
  126OSM    H6S13372   2.208   2.301   2.757 -0.1046  1.9617  0.5946
  126OSM    H6T13373   2.050   2.227   2.737 -1.0097 -0.5135 -3.6107
  126OSM    C7S13374   2.038   2.444   2.756  0.3747 -0.5654  1.3405
  126OSM    H7S13375   1.938   2.457   2.710  0.5038  1.1259  1.5171
  126OSM    H7T13376   2.094   2.536   2.728 -1.4327  0.4173  0.9335
  126OSM    C8S13377   2.036   2.429   2.909 -0.2628  0.6876 -0.3961
  126OSM    H8S13378   2.136   2.450   2.952 -1.1135  1.8035  1.1072
  126OSM    H8T13379   2.002   2.327   2.935  0.5927  0.2483 -0.9884
  126OSM    C9S13380   1.954   2.541   2.976 -0.1017 -0.1472 -0.2389
  126OSM    H9S13381   1.845   2.516   2.981 -1.2576  4.0203 -1.8571
  126OSM    H9T13382   1.956   2.642   2.929 -0.9824 -0.5601 -1.1797
  126OSM   C10S13383   1.998   2.572   3.122 -0.0637  0.2232  0.2391
  126OSM   H10S13384   2.108   2.580   3.121  0.1326 -2.0377 -1.2693
  126OSM   H10T13385   1.967   2.484   3.182 -0.6122  1.2888  1.5277
  126OSM   C11S13386   1.933   2.700   3.188 -0.2582  0.7083  0.0275
  126OSM   H11S13387   1.827   2.704   3.156 -0.0533 -0.6027 -0.8630
  126OSM   H11T13388   1.969   2.797   3.148  0.5920  1.0553  1.6091
  126OSM   C12S13389   1.955   2.716   3.337  0.3367  0.0994  0.0674
  126OSM   H12S13390   1.959   2.825   3.355  1.7758  0.3877 -1.8455
  126OSM   H12T13391   2.057   2.682   3.364  0.0639  2.8196  5.0122
  126OSM   C13S13392   1.861   2.636   3.431 -0.2146  0.0897 -0.2630
  126OSM   H13S13393   1.890   2.530   3.421 -0.5421  0.1881 -2.4332
  126OSM   H13T13394   1.753   2.644   3.404 -0.5006  2.3057  1.3381
  126OSM   C14S13395   1.885   2.681   3.576  0.1079  0.8218  0.2296
  126OSM   H14S13396   1.892   2.789   3.597 -3.9867  1.3846 -0.8443
  126OSM   H14T13397   1.985   2.636   3.598  0.1561 -0.6566 -2.7356
  126OSM   C15S13398   1.792   2.621   3.685 -0.1575 -0.2017 -0.2115
  126OSM   H15S13399   1.792   2.510   3.678  2.2389 -0.2454 -0.0337
  126OSM   H15T13400   1.688   2.658   3.673 -0.2827  0.5505  2.7532
  126OSM   C16S13401   1.843   2.658   3.821  0.1152  0.0127 -0.3946
  126OSM   H16S13402   1.880   2.763   3.823 -0.9521  0.4039 -0.8153
  126OSM   H16T13403   1.930   2.599   3.856 -0.3593 -1.6081 -1.9249
  126OSM   C17S13404   1.732   2.639   3.931  0.2991 -0.0211  0.5096
  126OSM   H17S13405   1.690   2.536   3.928  2.0468 -0.8108  2.1758
  126OSM   H17T13406   1.647   2.703   3.901  0.5372  0.8829  1.7449
  126OSM   C18S13407   1.788   2.664   4.066 -0.5227  0.2955 -0.2606
  126OSM   H18S13408   1.869   2.592   4.091  1.4452  1.2747 -3.4206
  126OSM   H18T13409   1.709   2.651   4.142 -0.4874 -0.3635 -0.3336
  126OSM   H18U13410   1.820   2.770   4.073  2.0742 -0.5615  1.5836
  126OSM    C1F13411   2.355   2.700   2.312  0.5295 -0.5975 -0.0115
  126OSM     OF13412   2.244   2.755   2.306  0.1646 -0.1044  0.4306
  126OSM    C2F13413   2.483   2.778   2.307  1.0974  0.5962  0.9447
  126OSM    H2F13414   2.487   2.871   2.247  1.5569 -0.8344 -1.3038
  126OSM    H2G13415   2.556   2.710   2.257  0.2702  1.2896 -1.2591
  126OSM    C3F13416   2.540   2.816   2.442  0.5583 -0.2326 -0.5455
  126OSM    H3F13417   2.647   2.840   2.430  0.2275  0.7352 -1.5678
  126OSM    H3G13418   2.519   2.731   2.511 -1.5890 -0.5864 -1.5725
  126OSM    C4F13419   2.485   2.944   2.514  0.4530 -0.8841  0.1830
  126OSM    H4F13420   2.389   2.918   2.564  0.5938 -0.6964  0.5528
  126OSM    H4G13421   2.461   3.027   2.444  0.3864  0.2693  1.5443
  126OSM    C5F13422   2.581   3.002   2.621  0.3496 -0.3550  0.1157
  126OSM    H5F13423   2.676   3.026   2.568  1.5129 -0.1934  2.2488
  126OSM    H5G13424   2.580   2.929   2.705 -1.4643  0.1027  0.5320
  126OSM    C6F13425   2.519   3.128   2.685 -0.6773  1.2245  0.3454
  126OSM    H6F13426   2.415   3.107   2.717 -1.1127  0.0316 -1.7055
  126OSM    H6G13427   2.517   3.216   2.618  0.6173  1.5195  0.6888
  126OSM    C7F13428   2.591   3.189   2.809 -0.0661  0.2377  0.2687
  126OSM    H7F13429   2.689   3.221   2.766 -2.2914  3.3737 -2.7893
  126OSM    H7G13430   2.609   3.108   2.882 -3.0831  0.0227  0.8122
  126OSM    C8F13431   2.518   3.307   2.876 -0.2493  0.0317  0.4974
  126OSM    H8F13432   2.513   3.392   2.804  1.1861 -2.3276 -2.4762
  126OSM    H8G13433   2.589   3.334   2.956  2.9900 -1.4396 -1.7768
  126OSM    C9F13434   2.373   3.291   2.924 -0.4125 -0.0795 -0.1191
  126OSM    H9F13435   2.311   3.213   2.877 -1.7536  0.4420  0.7385
  126OSM   C10F13436   2.321   3.348   3.027  0.7983  0.6381 -0.5034
  126OSM   H10F13437   2.218   3.321   3.057  1.1069  3.4637  3.3671
  126OSM   C11F13438   2.390   3.440   3.120 -1.2142 -0.1120  0.3475
  126OSM   H11F13439   2.421   3.537   3.074 -3.3816  0.6352  0.3858
  126OSM   H11G13440   2.487   3.411   3.164  0.2084  2.4247 -0.9555
  126OSM   C12F13441   2.296   3.471   3.236 -0.0185  0.1517 -0.1070
  126OSM   H12F13442   2.294   3.382   3.303 -0.8433  0.9563  0.9613
  126OSM   H12G13443   2.193   3.507   3.214  0.5131  2.3961  0.9371
  126OSM   C13F13444   2.362   3.588   3.311  0.3823  0.2354  0.2509
  126OSM   H13F13445   2.362   3.681   3.250  2.4017 -0.4832 -0.9011
  126OSM   H13G13446   2.462   3.551   3.344 -0.3908 -2.2078 -0.1155
  126OSM   C14F13447   2.283   3.616   3.437 -0.4700 -0.6087 -0.4012
  126OSM   H14F13448   2.326   3.707   3.484 -2.5807  0.9128 -1.3728
  126OSM   H14G13449   2.294   3.525   3.499 -0.1160 -0.2062  0.1294
  126OSM   C15F13450   2.130   3.632   3.435 -0.0560 -0.0425  0.4655
  126OSM   H15F13451   2.081   3.532   3.425  1.3581 -0.7922  0.8590
  126OSM   H15G13452   2.102   3.685   3.342 -1.6123  0.4417  1.1957
  126OSM   C16F13453   2.078   3.692   3.565  0.1389  0.1236  0.6196
  126OSM   H16F13454   2.117   3.794   3.584  3.5491 -1.2184  1.2136
  126OSM   H16G13455   2.123   3.637   3.651 -3.0940  2.0042  3.6783
  126OSM   C17F13456   1.926   3.680   3.590  0.2227  0.5851 -0.0685
  126OSM   H17F13457   1.904   3.720   3.691 -0.4091  0.0965 -0.0043
  126OSM   H17G13458   1.899   3.572   3.589  1.0812  0.3604 -1.0539
  126OSM   C18F13459   1.847   3.752   3.481  0.2379  0.7927  0.1406
  126OSM   H18F13460   1.881   3.857   3.473 -0.7006  1.1298  0.4189
  126OSM   H18G13461   1.737   3.751   3.499  0.3831 -0.0863  1.0500
  126OSM   H18H13462   1.868   3.701   3.384 -1.1435 -3.4270  1.9122
  127OSM      N13463   1.652   5.284   2.024  0.6998 -0.1674 -0.2131
  127OSM    C1513464   1.512   5.273   1.979  0.1154  0.7830  1.2646
  127OSM   H15A13465   1.484   5.362   1.924  0.7850 -0.4913 -1.2280
  127OSM   H15B13466   1.445   5.265   2.063  0.0066 -2.0379  0.9819
  127OSM   H15C13467   1.503   5.191   1.909 -0.2031 -0.3923  2.6629
  127OSM    C1413468   1.735   5.288   1.899  0.1227  0.0716  0.2214
  127OSM   H14A13469   1.732   5.195   1.844  0.6869 -0.9360  1.8389
  127OSM   H14B13470   1.841   5.303   1.906  0.3929 -0.8594 -1.5585
  127OSM   H14C13471   1.707   5.372   1.837  1.4333  0.3769  0.0429
  127OSM    C1313472   1.683   5.410   2.106 -0.6452 -0.6878 -0.7009
  127OSM   H13A13473   1.630   5.401   2.199  0.8240  0.7142  0.3035
  127OSM   H13B13474   1.654   5.501   2.055 -1.3531 -1.1299 -1.0943
  127OSM   H13C13475   1.790   5.422   2.117 -0.5581  0.6213 -2.5281
  127OSM    C1213476   1.688   5.171   2.119 -0.4646  0.0822 -0.5021
  127OSM   H12A13477   1.637   5.173   2.214  1.1269 -2.8719  0.4468
  127OSM   H12B13478   1.793   5.183   2.142 -0.4301 -0.7498 -0.2216
  127OSM    C1113479   1.677   5.029   2.073  0.2196  0.3778  0.1971
  127OSM   H11A13480   1.577   5.003   2.032 -0.5175  0.8613  1.6403
  127OSM   H11B13481   1.690   4.969   2.166 -0.0852 -2.8117 -1.7753
  127OSM      P13482   1.899   4.922   1.997  0.0784 -0.0366  0.3534
  127OSM    O1313483   1.874   4.772   2.007 -0.0325  0.1182 -0.2319
  127OSM    O1413484   1.997   4.962   1.898 -0.2340  0.1561 -0.0138
  127OSM    O1113485   1.945   4.973   2.139 -0.5863  0.2648  0.2260
  127OSM    O1213486   1.775   5.005   1.972  0.1082  0.0517 -0.0916
  127OSM    C1S13487   2.074   4.959   2.191  0.3089  0.5779 -0.3287
  127OSM    H1S13488   2.134   5.040   2.144  2.5532 -0.9557 -0.1583
  127OSM    H1T13489   2.126   4.866   2.161 -1.0583 -0.2087 -0.3081
  127OSM     NF13490   2.225   4.954   2.370  0.6832  0.3045  0.0876
  127OSM    HNF13491   2.238   4.855   2.368  0.1037  0.1826  1.9154
  127OSM    C2S13492   2.089   4.992   2.338 -0.0772  0.5730 -0.1378
  127OSM    H2S13493   2.084   5.102   2.356 -3.7223  0.3988  0.2325
  127OSM    C3S13494   1.976   4.926   2.422 -0.2332  0.2727  0.5142
  127OSM    H3S13495   1.983   4.816   2.409  0.6508  0.1529  1.8828
  127OSM     O313496   1.841   4.968   2.381 -0.0081  0.1288  0.1297
  127OSM    HO313497   1.850   5.014   2.298 -1.8763 -0.0986 -0.2215
  127OSM    C4S13498   1.988   4.959   2.568 -0.4671 -0.0570 -0.0801
  127OSM    H4S13499   1.975   4.866   2.625  2.4412 -0.2230  0.3899
  127OSM    C5S13500   2.002   5.076   2.631  0.3850 -0.1117 -0.2487
  127OSM    H5S13501   2.008   5.170   2.575 -1.2402  0.8978  1.2448
  127OSM    C6S13502   1.999   5.107   2.782 -0.8287  0.3855  0.7249
  127OSM    H6S13503   1.951   5.021   2.833  1.0348 -2.3082 -1.8376
  127OSM    H6T13504   1.943   5.199   2.810  2.3211  2.7127 -0.3424
  127OSM    C7S13505   2.142   5.123   2.834 -0.4199 -0.1086  0.1906
  127OSM    H7S13506   2.198   5.028   2.823  1.6984  1.2210 -0.9967
  127OSM    H7T13507   2.139   5.153   2.941 -0.5637  0.8625 -0.0809
  127OSM    C8S13508   2.209   5.234   2.751 -0.3330 -0.4497 -0.6383
  127OSM    H8S13509   2.136   5.297   2.697  0.0831 -0.2712 -0.9930
  127OSM    H8T13510   2.282   5.185   2.682  1.9753  1.4599  0.3880
  127OSM    C9S13511   2.298   5.321   2.850 -0.1894 -0.0823  1.1759
  127OSM    H9S13512   2.245   5.381   2.926 -0.3010  1.8344 -0.3963
  127OSM    H9T13513   2.339   5.394   2.777 -1.8468 -2.4414 -2.2585
  127OSM   C10S13514   2.415   5.236   2.915 -0.7034  0.5451  0.8487
  127OSM   H10S13515   2.498   5.220   2.842  1.1133 -2.7490  3.4710
  127OSM   H10T13516   2.384   5.131   2.930  1.0594  0.0270  1.0194
  127OSM   C11S13517   2.475   5.310   3.035  0.2910  0.2872  0.1518
  127OSM   H11S13518   2.559   5.246   3.071  0.3039  1.5034  2.4044
  127OSM   H11T13519   2.390   5.312   3.107  1.5924 -2.1890  1.8391
  127OSM   C12S13520   2.535   5.447   2.994  0.0668  0.3147  0.6258
  127OSM   H12S13521   2.528   5.463   2.885 -1.9819 -0.1847  0.6715
  127OSM   H12T13522   2.642   5.437   3.025 -1.6939 -1.7139  6.8235
  127OSM   C13S13523   2.469   5.560   3.072 -0.4947  0.5487  0.1958
  127OSM   H13S13524   2.363   5.565   3.040 -0.2888 -0.4229 -0.6452
  127OSM   H13T13525   2.516   5.654   3.037 -0.3253  0.3679 -0.0636
  127OSM   C14S13526   2.485   5.546   3.227 -0.1781  0.5331  0.1526
  127OSM   H14S13527   2.593   5.537   3.250 -0.1454  1.0690  0.2271
  127OSM   H14T13528   2.422   5.461   3.262 -2.1946  1.2718 -1.6152
  127OSM   C15S13529   2.426   5.667   3.308 -0.7648  0.3382  0.2305
  127OSM   H15S13530   2.321   5.681   3.276 -0.5554 -0.8965 -1.0099
  127OSM   H15T13531   2.480   5.763   3.291  1.2471 -1.3199 -3.1517
  127OSM   C16S13532   2.420   5.636   3.464 -0.2888 -0.2285  0.1733
  127OSM   H16S13533   2.526   5.651   3.495  0.1426  0.4678 -1.5854
  127OSM   H16T13534   2.406   5.527   3.479 -0.5048 -0.2446 -0.1469
  127OSM   C17S13535   2.315   5.700   3.548  0.0617 -0.7594 -0.2276
  127OSM   H17S13536   2.219   5.661   3.508 -1.0776  2.4326 -0.7304
  127OSM   H17T13537   2.321   5.808   3.525 -2.6926 -0.9003 -1.8272
  127OSM   C18S13538   2.334   5.673   3.701  0.2965  0.0545 -0.0764
  127OSM   H18S13539   2.261   5.730   3.762  1.2238  2.5459 -1.2406
  127OSM   H18T13540   2.433   5.722   3.715 -0.8569  2.3726  0.2641
  127OSM   H18U13541   2.328   5.566   3.731 -1.7924  0.5899  1.5211
  127OSM    C1F13542   2.335   5.028   2.350 -0.1688  0.6941 -0.2798
  127OSM     OF13543   2.333   5.139   2.300 -0.1124 -0.6683  0.1908
  127OSM    C2F13544   2.463   4.967   2.385 -0.2945  0.0407 -0.4484
  127OSM    H2F13545   2.532   5.002   2.304  1.2387 -0.7324  0.4963
  127OSM    H2G13546   2.461   4.856   2.387 -0.2841  0.0361 -0.6824
  127OSM    C3F13547   2.518   5.032   2.516 -0.2734 -0.3678 -0.6671
  127OSM    H3F13548   2.441   5.021   2.596  2.3408 -1.7749  1.7288
  127OSM    H3G13549   2.539   5.141   2.518  1.1601 -0.6672  1.8137
  127OSM    C4F13550   2.651   4.979   2.572 -0.3237  0.1897 -0.6995
  127OSM    H4F13551   2.740   5.044   2.553  1.3431 -1.2048  2.0389
  127OSM    H4G13552   2.666   4.885   2.515 -0.2019  0.7333 -1.5838
  127OSM    C5F13553   2.641   4.961   2.716 -0.0527  0.7473 -0.3220
  127OSM    H5F13554   2.565   4.881   2.732 -0.1475  0.9084  0.0453
  127OSM    H5G13555   2.600   5.057   2.755 -0.0198  0.2475  0.9556
  127OSM    C6F13556   2.774   4.927   2.785  0.9510  0.8040  0.0758
  127OSM    H6F13557   2.848   5.010   2.792 -0.1084  1.6876  0.9281
  127OSM    H6G13558   2.826   4.851   2.722  2.6153  2.6027 -0.7702
  127OSM    C7F13559   2.753   4.859   2.923  0.3001 -0.5365 -0.2211
  127OSM    H7F13560   2.844   4.813   2.966 -1.1457 -1.5750  1.8226
  127OSM    H7G13561   2.674   4.782   2.915 -0.9942  0.8894 -1.3636
  127OSM    C8F13562   2.695   4.959   3.024  0.8189  0.0413  0.3919
  127OSM    H8F13563   2.597   4.994   2.984  1.1263  0.1876 -0.2472
  127OSM    H8G13564   2.757   5.051   3.019  1.5720 -0.2622  3.5742
  127OSM    C9F13565   2.686   4.890   3.160  0.1742 -0.0611  0.1383
  127OSM    H9F13566   2.636   4.792   3.152 -1.2800  0.7582 -1.1302
  127OSM   C10F13567   2.714   4.949   3.273  0.0625  0.1854 -0.2496
  127OSM   H10F13568   2.710   4.903   3.373  0.0061  2.8226  0.9923
  127OSM   C11F13569   2.756   5.091   3.287  0.1986 -0.1375 -0.2033
  127OSM   H11F13570   2.739   5.150   3.194 -1.6858  0.3653  0.4430
  127OSM   H11G13571   2.866   5.102   3.300 -0.2887  1.9201  2.3779
  127OSM   C12F13572   2.675   5.165   3.392 -1.0769  0.0337 -0.5896
  127OSM   H12F13573   2.689   5.274   3.382 -0.3129 -0.1378 -1.5405
  127OSM   H12G13574   2.712   5.148   3.495 -1.0183  0.9666 -0.4536
  127OSM   C13F13575   2.529   5.147   3.371  1.3677 -1.2243  0.7888
  127OSM   H13F13576   2.495   5.046   3.402 -5.5722  0.6668  0.3005
  127OSM   H13G13577   2.507   5.184   3.269  0.8340  3.1681  2.3693
  127OSM   C14F13578   2.437   5.233   3.460 -0.2627 -0.7405  0.2525
  127OSM   H14F13579   2.332   5.236   3.423  0.0125  1.6323 -0.3949
  127OSM   H14G13580   2.479   5.334   3.443 -0.3377 -0.7338  0.1031
  127OSM   C15F13581   2.448   5.192   3.611 -0.4394 -0.0690  0.2930
  127OSM   H15F13582   2.555   5.189   3.643 -0.0284 -0.9312 -1.0939
  127OSM   H15G13583   2.422   5.084   3.612 -0.3226 -0.1131 -0.5658
  127OSM   C16F13584   2.378   5.273   3.712  0.1843 -0.9900 -0.0183
  127OSM   H16F13585   2.281   5.303   3.667  1.3272  0.9387 -1.3135
  127OSM   H16G13586   2.429   5.371   3.711 -1.0304 -0.3444 -1.4120
  127OSM   C17F13587   2.355   5.214   3.846  0.4019  0.1633  0.0727
  127OSM   H17F13588   2.452   5.175   3.884  0.8868  1.3729  0.0749
  127OSM   H17G13589   2.285   5.127   3.841 -0.3780  0.7942 -0.2105
  127OSM   C18F13590   2.283   5.309   3.943  0.4450 -0.1364 -0.0848
  127OSM   H18F13591   2.273   5.273   4.047  0.9049  2.3087  0.8322
  127OSM   H18G13592   2.185   5.339   3.899  0.7642 -1.0909 -1.4817
  127OSM   H18H13593   2.349   5.396   3.960 -0.0368  0.6219 -1.9704
  128OSM      N13594   1.489   3.826   1.863 -0.1359 -0.6691  0.1413
  128OSM    C1513595   1.599   3.723   1.880 -0.2597  0.0805 -0.0966
  128OSM   H15A13596   1.595   3.685   1.981  0.2086  1.8813  0.6181
  128OSM   H15B13597   1.697   3.767   1.864  0.1610 -0.8381 -0.0465
  128OSM   H15C13598   1.592   3.638   1.814  0.7531 -0.8955  1.0565
  128OSM    C1413599   1.500   3.904   1.739 -0.0520  0.5454 -0.1072
  128OSM   H14A13600   1.420   3.976   1.727 -2.1855 -2.0417 -2.1886
  128OSM   H14B13601   1.496   3.833   1.657 -2.3878 -1.1240  1.3776
  128OSM   H14C13602   1.593   3.958   1.738  0.9717 -1.1177  2.3027
  128OSM    C1313603   1.358   3.746   1.856  0.7845  0.5203 -0.0477
  128OSM   H13A13604   1.339   3.684   1.942 -2.2399  2.2241  0.6131
  128OSM   H13B13605   1.338   3.684   1.770  3.4237 -0.0794 -0.2650
  128OSM   H13C13606   1.272   3.812   1.850 -0.4101 -0.6927  2.7189
  128OSM    C1213607   1.483   3.911   1.989  0.2978  0.2987 -0.4775
  128OSM   H12A13608   1.447   3.846   2.067 -1.2650  1.4235 -0.2259
  128OSM   H12B13609   1.405   3.985   1.977  1.5821  1.5010 -1.5614
  128OSM    C1113610   1.614   3.977   2.041 -0.1133 -0.2131 -0.1558
  128OSM   H11A13611   1.662   3.885   2.079 -1.1251 -0.5216  0.3891
  128OSM   H11B13612   1.598   4.047   2.126  0.0886 -1.0461  0.5732
  128OSM      P13613   1.838   4.090   1.973  0.2542  0.2555  0.1949
  128OSM    O1313614   1.919   3.967   1.979  0.0244  0.5121  0.1423
  128OSM    O1413615   1.873   4.196   1.876  0.4322  1.1725  0.0414
  128OSM    O1113616   1.816   4.153   2.118  0.0194 -0.4516 -0.4980
  128OSM    O1213617   1.688   4.047   1.939  0.7205 -0.2031 -0.0435
  128OSM    C1S13618   1.771   4.286   2.144  0.3162  0.2989  0.2563
  128OSM    H1S13619   1.660   4.281   2.155  0.3270  1.2470  0.9119
  128OSM    H1T13620   1.801   4.356   2.064 -0.0433  0.1507 -0.0071
  128OSM     NF13621   1.790   4.482   2.298 -0.8595  0.3659 -0.4305
  128OSM    HNF13622   1.853   4.555   2.274 -0.2270  0.2533  0.8474
  128OSM    C2S13623   1.825   4.341   2.275  0.2636 -0.2067  0.8327
  128OSM    H2S13624   1.782   4.285   2.361  1.3821 -0.5717  1.1606
  128OSM    C3S13625   1.983   4.310   2.288 -0.3277  0.6172 -0.2897
  128OSM    H3S13626   2.039   4.343   2.197 -3.4515  0.0754 -2.4971
  128OSM     O313627   2.015   4.172   2.285  0.0445 -0.0472  0.0920
  128OSM    HO313628   1.940   4.136   2.236 -0.5986 -0.7272  1.5212
  128OSM    C4S13629   2.034   4.372   2.417 -0.1290 -0.0735  0.3429
  128OSM    H4S13630   2.068   4.473   2.390  2.4539 -0.8498  0.5277
  128OSM    C5S13631   2.030   4.333   2.544 -0.1188  0.2413 -0.0539
  128OSM    H5S13632   1.994   4.233   2.571 -1.7630  1.4456  2.3951
  128OSM    C6S13633   2.076   4.422   2.653 -0.3879  0.2171  0.4358
  128OSM    H6S13634   2.144   4.359   2.715 -1.0942  0.8857  1.9186
  128OSM    H6T13635   2.001   4.444   2.732 -0.9768 -2.9399  0.8019
  128OSM    C7S13636   2.144   4.557   2.630 -0.3452 -1.3442 -0.2791
  128OSM    H7S13637   2.075   4.627   2.578  1.0139  0.0997 -0.1995
  128OSM    H7T13638   2.236   4.553   2.567 -0.0910  0.7957 -0.0900
  128OSM    C8S13639   2.190   4.625   2.757 -0.5971  0.4438 -0.3328
  128OSM    H8S13640   2.112   4.616   2.835 -0.9070 -0.8626 -0.7795
  128OSM    H8T13641   2.208   4.733   2.738  1.5181  0.4727  1.7604
  128OSM    C9S13642   2.316   4.559   2.807 -0.1171 -0.3280 -0.1938
  128OSM    H9S13643   2.379   4.540   2.718  0.6282 -0.7703  0.4180
  128OSM    H9T13644   2.297   4.458   2.851 -0.4550  1.3763  3.7610
  128OSM   C10S13645   2.405   4.643   2.893 -0.8617  0.4830 -0.1614
  128OSM   H10S13646   2.416   4.737   2.835 -2.6453 -0.3084 -1.8366
  128OSM   H10T13647   2.503   4.594   2.905 -0.3171  1.3732 -0.8628
  128OSM   C11S13648   2.353   4.677   3.037  0.4458 -0.2931  0.3627
  128OSM   H11S13649   2.269   4.748   3.022  0.6445  0.1124  1.1366
  128OSM   H11T13650   2.437   4.721   3.094  1.4795 -1.3695 -0.3132
  128OSM   C12S13651   2.307   4.550   3.126  0.1696  0.2150 -0.4335
  128OSM   H12S13652   2.396   4.484   3.134 -1.1880 -1.5406  0.6924
  128OSM   H12T13653   2.229   4.497   3.067  0.7831 -2.5414  1.1212
  128OSM   C13S13654   2.249   4.595   3.261  0.7390  0.1926 -0.4176
  128OSM   H13S13655   2.199   4.518   3.324 -0.7774  1.6521  0.2048
  128OSM   H13T13656   2.159   4.659   3.247  0.3321 -0.0034  1.1540
  128OSM   C14S13657   2.348   4.670   3.356  0.2565  0.6137 -0.1752
  128OSM   H14S13658   2.426   4.726   3.301  1.0376 -0.6773 -0.4090
  128OSM   H14T13659   2.406   4.586   3.399  0.8956  0.6262 -1.0140
  128OSM   C15S13660   2.277   4.754   3.458 -0.5696  0.7108  0.5337
  128OSM   H15S13661   2.196   4.698   3.510 -2.4018  2.3201 -0.4796
  128OSM   H15T13662   2.213   4.829   3.406  0.1178  0.2269 -1.0521
  128OSM   C16S13663   2.367   4.820   3.571  0.3701  0.4428  0.5458
  128OSM   H16S13664   2.311   4.879   3.646 -1.0261 -1.8600  1.3777
  128OSM   H16T13665   2.439   4.885   3.517  0.0413  0.6091  0.3102
  128OSM   C17S13666   2.459   4.727   3.651  0.0079  0.0708 -0.0323
  128OSM   H17S13667   2.515   4.675   3.570 -0.7383  0.6064 -0.9068
  128OSM   H17T13668   2.404   4.642   3.698 -0.7727  0.7788  0.3402
  128OSM   C18S13669   2.558   4.793   3.751  0.2327  0.4969 -0.1831
  128OSM   H18S13670   2.500   4.848   3.829  0.8387  2.2774 -0.9462
  128OSM   H18T13671   2.618   4.877   3.710 -0.7715  0.8448 -0.9420
  128OSM   H18U13672   2.632   4.725   3.797  1.3930  1.4024 -0.6856
  128OSM    C1F13673   1.666   4.517   2.335 -0.5393  0.2857 -0.0993
  128OSM     OF13674   1.585   4.429   2.360  0.1354  0.2460 -0.1511
  128OSM    C2F13675   1.628   4.667   2.351 -0.5178 -1.3909  0.1677
  128OSM    H2F13676   1.534   4.679   2.294  0.2785  0.8974 -0.7499
  128OSM    H2G13677   1.702   4.735   2.304 -1.9673 -1.6723 -2.5709
  128OSM    C3F13678   1.591   4.701   2.496 -0.3768 -0.0031  0.1432
  128OSM    H3F13679   1.508   4.639   2.535  1.0875 -1.1467  1.4796
  128OSM    H3G13680   1.551   4.804   2.511  1.6181  1.0806 -1.6893
  128OSM    C4F13681   1.698   4.678   2.602  0.9169 -0.1667  0.7999
  128OSM    H4F13682   1.784   4.744   2.578  0.5291 -0.4719 -1.5696
  128OSM    H4G13683   1.734   4.573   2.597 -1.7841 -1.1901  1.6985
  128OSM    C5F13684   1.654   4.702   2.743 -0.3741  0.1038 -0.2713
  128OSM    H5F13685   1.560   4.662   2.788  0.9263  0.8717  3.3685
  128OSM    H5G13686   1.635   4.810   2.762  1.3778  0.7138 -1.8688
  128OSM    C6F13687   1.770   4.643   2.833 -0.3701  0.7189 -0.1212
  128OSM    H6F13688   1.865   4.695   2.809  1.1467 -1.7757  0.3146
  128OSM    H6G13689   1.775   4.533   2.819 -0.0272  0.7548 -0.2867
  128OSM    C7F13690   1.731   4.671   2.979  0.5589  0.0920 -0.1131
  128OSM    H7F13691   1.644   4.605   3.000 -0.4059  1.3682 -0.0622
  128OSM    H7G13692   1.698   4.777   2.983  0.9381  0.2482 -0.9094
  128OSM    C8F13693   1.841   4.644   3.090  0.3439 -0.6239 -0.3359
  128OSM    H8F13694   1.807   4.677   3.190  0.6971 -0.3183 -0.3153
  128OSM    H8G13695   1.919   4.712   3.052  0.2318 -0.6292 -0.5788
  128OSM    C9F13696   1.898   4.511   3.070  0.3097 -0.5642  1.1546
  128OSM    H9F13697   1.973   4.498   2.991 -1.4934  0.0975 -0.6987
  128OSM   C10F13698   1.870   4.408   3.152 -0.5449  0.2372 -0.3108
  128OSM   H10F13699   1.931   4.316   3.145  0.5759  1.1149 -2.6654
  128OSM   C11F13700   1.772   4.415   3.264 -0.2037  0.5835 -1.0330
  128OSM   H11F13701   1.686   4.347   3.252 -0.6890  0.9307  0.4074
  128OSM   H11G13702   1.718   4.512   3.266  2.1971  1.9412  1.3081
  128OSM   C12F13703   1.831   4.398   3.405 -0.2426 -0.7884 -1.1531
  128OSM   H12F13704   1.756   4.426   3.483  0.0094  0.2370 -1.2654
  128OSM   H12G13705   1.918   4.466   3.418  0.7370 -2.1380 -0.4932
  128OSM   C13F13706   1.889   4.256   3.434  0.3240  1.2265 -0.8833
  128OSM   H13F13707   1.976   4.240   3.368 -1.5641 -1.5523 -2.8436
  128OSM   H13G13708   1.816   4.178   3.403 -1.4449  3.3162 -2.1182
  128OSM   C14F13709   1.908   4.232   3.583 -0.6387 -0.4675  0.1202
  128OSM   H14F13710   1.939   4.325   3.635  0.9668 -0.2368 -1.2006
  128OSM   H14G13711   1.986   4.153   3.590 -1.2751 -1.1249 -0.1378
  128OSM   C15F13712   1.778   4.202   3.659 -0.1697  0.3695 -0.2848
  128OSM   H15F13713   1.706   4.267   3.605  0.3994 -0.2775 -1.8422
  128OSM   H15G13714   1.785   4.235   3.765  0.4081  1.3599 -0.6262
  128OSM   C16F13715   1.732   4.053   3.665  0.3953  0.6487 -0.1314
  128OSM   H16F13716   1.795   4.002   3.740  0.9795  0.7896 -0.5209
  128OSM   H16G13717   1.738   4.019   3.559 -1.5329  1.3010 -0.4752
  128OSM   C17F13718   1.580   4.058   3.703 -0.2611 -0.1144  0.6796
  128OSM   H17F13719   1.537   4.139   3.639  0.6973 -0.3274 -0.2524
  128OSM   H17G13720   1.569   4.091   3.808 -1.9103  0.3201  0.3860
  128OSM   C18F13721   1.512   3.923   3.674 -0.5969 -1.3856  0.2733
  128OSM   H18F13722   1.592   3.850   3.699 -0.6450 -2.4672 -2.5161
  128OSM   H18G13723   1.494   3.918   3.565 -1.9609  0.7789  0.3611
  128OSM   H18H13724   1.412   3.910   3.720 -0.9055 -1.2899 -0.3644
  129OSM      N13725   4.205   1.481   1.830  0.3956 -0.5442  0.0172
  129OSM    C1513726   4.104   1.400   1.744 -0.0238 -0.0873  0.4875
  129OSM   H15A13727   4.083   1.448   1.650  2.4240 -2.6502 -1.4901
  129OSM   H15B13728   4.013   1.382   1.798 -0.7365  1.8968 -0.0268
  129OSM   H15C13729   4.145   1.302   1.722 -0.6763 -0.1244 -0.6206
  129OSM    C1413730   4.136   1.580   1.925  0.1193  0.4136  0.5423
  129OSM   H14A13731   4.078   1.647   1.864  1.0408 -1.2381 -2.2624
  129OSM   H14B13732   4.205   1.636   1.986  1.5258  0.0980 -0.7151
  129OSM   H14C13733   4.076   1.527   1.998  1.4326 -0.0166  1.3194
  129OSM    C1313734   4.277   1.384   1.924 -0.0629 -0.8497 -0.8975
  129OSM   H13A13735   4.376   1.424   1.939 -1.4381  1.8153  1.6804
  129OSM   H13B13736   4.285   1.281   1.894  2.3194 -1.9351  3.2042
  129OSM   H13C13737   4.235   1.392   2.023  1.2036 -1.2698 -0.3219
  129OSM    C1213738   4.307   1.552   1.747 -0.2409  0.3720  0.0468
  129OSM   H12A13739   4.239   1.616   1.691  2.1401  1.3947 -1.7535
  129OSM   H12B13740   4.349   1.488   1.671  0.9980  1.2409 -0.0143
  129OSM    C1113741   4.421   1.622   1.825  0.4508  0.3983  0.6390
  129OSM   H11A13742   4.467   1.699   1.758 -0.8765  0.1058 -0.6537
  129OSM   H11B13743   4.505   1.554   1.846  0.7341  0.9575  1.3146
  129OSM      P13744   4.486   1.739   2.053 -0.1197  0.1409  0.4962
  129OSM    O1313745   4.545   1.619   2.124 -0.3367 -0.0081  0.1523
  129OSM    O1413746   4.589   1.832   2.008 -0.0670  0.3585 -0.2851
  129OSM    O1113747   4.390   1.822   2.153 -0.3436 -0.1348  0.1780
  129OSM    O1213748   4.383   1.701   1.937  0.3149  0.3382  0.5031
  129OSM    C1S13749   4.290   1.763   2.232  0.1214 -0.2020  0.3967
  129OSM    H1S13750   4.280   1.653   2.222 -2.1021  0.1319 -1.5894
  129OSM    H1T13751   4.190   1.806   2.210  1.3202  2.1523 -0.7383
  129OSM     NF13752   4.219   1.707   2.466  0.1946 -0.4708  0.7311
  129OSM    HNF13753   4.151   1.762   2.514  2.2134  0.2492  2.8710
  129OSM    C2S13754   4.320   1.773   2.386 -0.0787 -0.2078 -0.2251
  129OSM    H2S13755   4.417   1.719   2.399  0.6329  1.4516  1.6377
  129OSM    C3S13756   4.350   1.924   2.429  0.1805 -0.4379  0.3848
  129OSM    H3S13757   4.262   1.989   2.409  1.3219  0.3603 -2.1542
  129OSM     O313758   4.460   1.982   2.363  0.4295  0.5709 -0.3614
  129OSM    HO313759   4.467   1.930   2.282 -2.4559 -1.3089  0.5452
  129OSM    C4S13760   4.370   1.921   2.576  0.2859 -0.1917  0.4961
  129OSM    H4S13761   4.272   1.929   2.625  0.5466 -0.1941  1.0207
  129OSM    C5S13762   4.476   1.900   2.660 -0.5655  0.0523  0.1950
  129OSM    H5S13763   4.575   1.891   2.612 -1.0210 -0.2876 -0.7022
  129OSM    C6S13764   4.464   1.894   2.812 -0.6324 -0.3730 -0.1275
  129OSM    H6S13765   4.506   1.990   2.850 -0.8979 -0.0608 -0.6286
  129OSM    H6T13766   4.533   1.819   2.856 -2.0104 -0.0648  2.6873
  129OSM    C7S13767   4.326   1.869   2.882 -0.2801 -0.0114  0.5298
  129OSM    H7S13768   4.285   1.774   2.840  2.4189 -2.0489  2.3925
  129OSM    H7T13769   4.251   1.950   2.867 -1.4807 -1.3845 -1.0878
  129OSM    C8S13770   4.349   1.850   3.031 -0.4707 -0.3159 -0.9466
  129OSM    H8S13771   4.428   1.909   3.082  0.8769 -0.9534 -2.2495
  129OSM    H8T13772   4.375   1.744   3.052 -1.4201 -0.3674  0.0593
  129OSM    C9S13773   4.225   1.893   3.109 -0.3026 -0.1023 -0.2122
  129OSM    H9S13774   4.132   1.835   3.089  0.1279 -1.1497  0.8181
  129OSM    H9T13775   4.198   1.998   3.084 -0.9275  0.0232  0.9590
  129OSM   C10S13776   4.239   1.889   3.261 -0.2732  0.6366 -0.1097
  129OSM   H10S13777   4.321   1.962   3.278 -0.5124  0.2839  2.7405
  129OSM   H10T13778   4.281   1.788   3.280  0.4374  0.7169 -1.1881
  129OSM   C11S13779   4.108   1.911   3.345 -0.1945 -0.0860  0.2371
  129OSM   H11S13780   4.059   1.811   3.349 -0.0159 -0.1113  2.0149
  129OSM   H11T13781   4.050   1.995   3.301 -0.4751  1.1499  2.8721
  129OSM   C12S13782   4.137   1.937   3.492  0.0935  0.2090  0.5444
  129OSM   H12S13783   4.193   2.033   3.504  2.9930 -1.1570 -1.3610
  129OSM   H12T13784   4.192   1.850   3.532 -0.4809 -1.0285 -1.2903
  129OSM   C13S13785   4.013   1.938   3.576  0.4179 -0.4582 -0.1216
  129OSM   H13S13786   3.967   1.837   3.564  1.5745 -1.1926  1.5139
  129OSM   H13T13787   3.942   2.009   3.530  1.1469  0.6560  0.4592
  129OSM   C14S13788   4.040   1.967   3.727 -0.3476 -0.0889 -0.6130
  129OSM   H14S13789   4.115   1.903   3.779  1.0945  1.3412 -0.8929
  129OSM   H14T13790   3.944   1.941   3.775  0.6813  0.4702  1.8103
  129OSM   C15S13791   4.072   2.115   3.744  0.1879  0.2065  0.5861
  129OSM   H15S13792   4.004   2.180   3.685 -0.7858 -1.0759  0.2544
  129OSM   H15T13793   4.174   2.130   3.702  0.6581  2.2452  2.4112
  129OSM   C16S13794   4.065   2.166   3.892 -0.0666  0.0906  0.5458
  129OSM   H16S13795   3.964   2.147   3.935 -2.2382  1.2609 -3.7339
  129OSM   H16T13796   4.068   2.277   3.884  0.5167  0.2175  2.3092
  129OSM   C17S13797   4.168   2.125   3.990  0.4505  0.3402  0.2028
  129OSM   H17S13798   4.177   2.014   3.990 -2.8645  0.0098  1.6184
  129OSM   H17T13799   4.142   2.139   4.098 -0.8124  1.3417 -0.2222
  129OSM   C18S13800   4.301   2.195   3.960  1.2369 -0.4511  0.0595
  129OSM   H18S13801   4.333   2.150   3.863 -1.0421 -0.7271 -0.5869
  129OSM   H18T13802   4.382   2.164   4.029  2.4822  3.9431  0.6741
  129OSM   H18U13803   4.285   2.305   3.957 -0.5360 -0.6834  0.4155
  129OSM    C1F13804   4.189   1.576   2.457  0.1600 -0.5768 -0.2957
  129OSM     OF13805   4.277   1.498   2.428 -0.3634  0.1678  1.0141
  129OSM    C2F13806   4.044   1.521   2.486  0.2592 -0.5456  0.1468
  129OSM    H2F13807   4.016   1.456   2.401  1.0927  0.3423 -0.8325
  129OSM    H2G13808   3.975   1.608   2.479  2.4551  1.0738 -2.4386
  129OSM    C3F13809   4.035   1.445   2.622 -0.3250  0.3246 -0.3810
  129OSM    H3F13810   4.069   1.342   2.602 -0.0268  0.5718 -1.1670
  129OSM    H3G13811   3.925   1.433   2.638 -0.4914  1.7480 -0.3331
  129OSM    C4F13812   4.096   1.508   2.742  0.1102  0.9968 -0.2869
  129OSM    H4F13813   4.037   1.599   2.764 -1.0692  0.1981 -0.0808
  129OSM    H4G13814   4.202   1.536   2.725  0.3892 -0.7384 -1.6421
  129OSM    C5F13815   4.099   1.425   2.868  0.0231  0.5261  0.4306
  129OSM    H5F13816   4.149   1.327   2.854 -0.6723  0.0445  1.2418
  129OSM    H5G13817   3.997   1.383   2.881 -0.2294  1.6842  2.3137
  129OSM    C6F13818   4.140   1.506   2.988  0.3756  0.4110 -0.4492
  129OSM    H6F13819   4.068   1.590   3.000  0.6006  0.4161  0.9594
  129OSM    H6G13820   4.236   1.552   2.954 -0.3075  0.9926 -1.6066
  129OSM    C7F13821   4.147   1.426   3.114  0.3523 -0.8708  0.1835
  129OSM    H7F13822   4.209   1.337   3.093 -1.3965 -1.9234 -0.6621
  129OSM    H7G13823   4.046   1.380   3.122  0.1044 -0.3477  0.1344
  129OSM    C8F13824   4.173   1.501   3.242  0.4922  0.1694  0.0924
  129OSM    H8F13825   4.120   1.456   3.329  2.1656  0.2531  1.1813
  129OSM    H8G13826   4.141   1.606   3.223 -1.8355 -0.6361 -0.6061
  129OSM    C9F13827   4.318   1.499   3.270 -0.2387 -0.2937 -0.6975
  129OSM    H9F13828   4.378   1.576   3.218  3.0566 -0.4988  2.6666
  129OSM   C10F13829   4.383   1.419   3.354  0.4768 -0.2731  0.2369
  129OSM   H10F13830   4.491   1.436   3.368  0.2157  1.4669  0.2006
  129OSM   C11F13831   4.323   1.308   3.435  0.6437 -0.5059  0.3078
  129OSM   H11F13832   4.379   1.214   3.414  0.4831 -0.5868  0.2431
  129OSM   H11G13833   4.221   1.287   3.398  0.8837 -0.1527 -0.5714
  129OSM   C12F13834   4.317   1.325   3.590  0.0661  0.8252 -0.5221
  129OSM   H12F13835   4.241   1.255   3.629 -0.3596  0.8622 -1.2768
  129OSM   H12G13836   4.272   1.422   3.621  0.2892  1.1558 -1.2090
  129OSM   C13F13837   4.450   1.296   3.667  0.4857  0.4829  0.1985
  129OSM   H13F13838   4.426   1.344   3.764 -1.5362  0.1682 -0.1237
  129OSM   H13G13839   4.533   1.344   3.612  2.2317 -3.0803 -0.4687
  129OSM   C14F13840   4.485   1.149   3.678 -0.1582 -0.0853 -0.1981
  129OSM   H14F13841   4.494   1.100   3.579  0.2872 -1.2885  0.4279
  129OSM   H14G13842   4.403   1.092   3.726  2.0733 -3.7083 -0.4965
  129OSM   C15F13843   4.619   1.134   3.753  0.4225  0.5546  0.8032
  129OSM   H15F13844   4.598   1.181   3.852 -0.1923  1.1416  0.3905
  129OSM   H15G13845   4.699   1.181   3.693  0.0265  1.2736  0.8391
  129OSM   C16F13846   4.652   0.986   3.783 -0.2942  0.3770 -0.4228
  129OSM   H16F13847   4.661   0.931   3.687  3.0236 -2.6698  1.5148
  129OSM   H16G13848   4.564   0.950   3.842  0.2377  0.7513  0.6074
  129OSM   C17F13849   4.771   0.956   3.871  0.4682  0.4974  0.3924
  129OSM   H17F13850   4.782   0.853   3.909 -0.0706  0.7904  1.3709
  129OSM   H17G13851   4.752   1.017   3.962 -2.0673  1.0784 -0.4716
  129OSM   C18F13852   4.905   1.006   3.814  0.2925 -0.2172 -0.3384
  129OSM   H18F13853   4.885   1.114   3.795 -0.6529 -0.3894 -0.3401
  129OSM   H18G13854   4.946   0.965   3.720  1.9919 -0.5434  0.5340
  129OSM   H18H13855   4.977   0.996   3.898 -2.1717 -0.3762  1.8258
  130OSM      N13856   4.217   5.723   1.721 -0.0788  0.0997  0.3443
  130OSM    C1513857   4.363   5.716   1.753 -1.4053  0.4941  0.6137
  130OSM   H15A13858   4.390   5.742   1.854  0.6791 -0.4234  0.3312
  130OSM   H15B13859   4.425   5.789   1.702 -0.7005  0.8051  1.9046
  130OSM   H15C13860   4.419   5.625   1.739 -2.0983 -0.0012  1.0540
  130OSM    C1413861   4.199   5.674   1.582  0.2006  0.3877  0.1662
  130OSM   H14A13862   4.269   5.724   1.517  1.6340 -0.4371  1.0348
  130OSM   H14B13863   4.099   5.695   1.548 -0.7041 -0.6989  2.0641
  130OSM   H14C13864   4.212   5.568   1.565 -4.2240  0.0600 -1.9513
  130OSM    C1313865   4.148   5.626   1.812 -1.3757 -0.1859 -1.1297
  130OSM   H13A13866   4.146   5.653   1.917  2.4095  0.3018 -1.0896
  130OSM   H13B13867   4.197   5.531   1.798  1.2299  1.2173 -1.8538
  130OSM   H13C13868   4.042   5.616   1.795 -1.6576 -1.9627  1.4313
  130OSM    C1213869   4.159   5.862   1.743 -0.9189  0.6312  0.0798
  130OSM   H12A13870   4.053   5.856   1.761 -0.6257  0.9372  1.9899
  130OSM   H12B13871   4.164   5.908   1.645 -1.8559  1.1332  0.2661
  130OSM    C1113872   4.210   5.946   1.859 -0.3813  0.2524  0.8147
  130OSM   H11A13873   4.313   5.974   1.828 -0.8110 -3.1078 -4.2424
  130OSM   H11B13874   4.219   5.892   1.955  0.1023 -1.6530 -0.2782
  130OSM      P13875   4.152   6.201   1.920 -0.0391 -0.4869 -0.4006
  130OSM    O1313876   4.295   6.219   1.905  0.0465 -0.2812  0.1245
  130OSM    O1413877   4.063   6.311   1.868  0.2571 -0.4449  0.5319
  130OSM    O1113878   4.122   6.196   2.073 -0.7211  0.1813  0.5575
  130OSM    O1213879   4.113   6.054   1.861  0.4487 -0.8594  0.3453
  130OSM    C1S13880   4.046   6.092   2.131 -0.7498  0.3924 -0.1116
  130OSM    H1S13881   4.100   5.996   2.138  1.8987  1.6797 -1.8703
  130OSM    H1T13882   3.965   6.064   2.060 -1.1923  1.6939 -0.1417
  130OSM     NF13883   3.920   6.022   2.341 -0.3704 -0.1666 -0.3967
  130OSM    HNF13884   3.832   5.981   2.318 -0.3484 -0.2587 -0.3124
  130OSM    C2S13885   3.986   6.134   2.267  0.2388  0.4805  0.0204
  130OSM    H2S13886   4.073   6.172   2.325 -0.7369  1.0216  1.1480
  130OSM    C3S13887   3.889   6.255   2.253  0.6569  0.2001  0.8570
  130OSM    H3S13888   3.800   6.219   2.198  0.7551 -0.5660  1.2006
  130OSM     O313889   3.941   6.365   2.188 -0.0113  0.5780  0.0104
  130OSM    HO313890   4.008   6.335   2.127 -0.3603  0.6931 -0.4344
  130OSM    C4S13891   3.845   6.303   2.383  0.2194 -0.0755 -0.1567
  130OSM    H4S13892   3.915   6.368   2.437  1.7249 -0.5660 -1.4603
  130OSM    C5S13893   3.721   6.274   2.429 -0.0629 -0.0883 -0.1904
  130OSM    H5S13894   3.657   6.215   2.362  0.1812 -0.7924  0.1995
  130OSM    C6S13895   3.675   6.313   2.563  0.1367 -0.2925 -0.3547
  130OSM    H6S13896   3.613   6.229   2.600 -2.8305  1.6532 -0.7631
  130OSM    H6T13897   3.601   6.395   2.551  1.0698  0.9791  2.1408
  130OSM    C7S13898   3.771   6.353   2.675  0.6530 -0.2071  0.2597
  130OSM    H7S13899   3.798   6.460   2.670 -1.1836  0.3078  1.2095
  130OSM    H7T13900   3.871   6.306   2.685 -0.0180 -1.4410  1.4544
  130OSM    C8S13901   3.691   6.330   2.805  0.2898 -0.5283  0.3005
  130OSM    H8S13902   3.659   6.224   2.813 -1.4924 -0.0645 -0.3443
  130OSM    H8T13903   3.603   6.398   2.801  2.3983  2.1494 -2.8490
  130OSM    C9S13904   3.775   6.335   2.937 -0.3608  0.0709 -0.7931
  130OSM    H9S13905   3.824   6.435   2.934  1.1002 -0.5676  1.1415
  130OSM    H9T13906   3.857   6.260   2.929 -1.3205 -0.8181 -2.6972
  130OSM   C10S13907   3.686   6.325   3.065  0.5669  0.6404 -0.2150
  130OSM   H10S13908   3.650   6.220   3.069 -1.9843  1.4880 -0.0341
  130OSM   H10T13909   3.593   6.386   3.056  0.7665  0.9940  0.1132
  130OSM   C11S13910   3.763   6.331   3.199  1.0241 -0.3046  0.5072
  130OSM   H11S13911   3.806   6.433   3.203 -0.1632  0.3169 -1.8240
  130OSM   H11T13912   3.849   6.261   3.193  0.3435 -1.3476  2.4105
  130OSM   C12S13913   3.661   6.309   3.313  0.3811  0.3981 -0.1709
  130OSM   H12S13914   3.613   6.209   3.301  0.8884  0.1507 -0.1384
  130OSM   H12T13915   3.574   6.378   3.307 -0.7528 -1.0523 -0.8952
  130OSM   C13S13916   3.734   6.323   3.446  0.2974  0.0106  0.0492
  130OSM   H13S13917   3.735   6.426   3.487  0.7030  0.1424 -0.2908
  130OSM   H13T13918   3.838   6.288   3.429 -0.2724 -0.2985 -3.0377
  130OSM   C14S13919   3.663   6.238   3.551  1.0576  0.1487 -0.5428
  130OSM   H14S13920   3.718   6.250   3.647  0.4196  0.2292 -0.1793
  130OSM   H14T13921   3.667   6.129   3.533 -1.2146 -0.0462 -0.0216
  130OSM   C15S13922   3.510   6.274   3.567  0.1383 -0.1228  0.3317
  130OSM   H15S13923   3.456   6.195   3.624 -0.7232 -1.4870 -2.3202
  130OSM   H15T13924   3.463   6.288   3.468  1.8858 -2.8758 -0.9331
  130OSM   C16S13925   3.501   6.412   3.638 -0.2613 -0.3758 -0.5426
  130OSM   H16S13926   3.393   6.437   3.645 -0.1109  0.2642 -0.5374
  130OSM   H16T13927   3.555   6.490   3.580 -2.1154  0.1511 -1.6294
  130OSM   C17S13928   3.546   6.421   3.785 -0.1447  0.5970 -0.1754
  130OSM   H17S13929   3.542   6.523   3.827  0.9451  0.4627  0.2810
  130OSM   H17T13930   3.649   6.381   3.799 -0.3140  0.5965  1.1689
  130OSM   C18S13931   3.453   6.344   3.884  0.0730  0.0339 -0.3845
  130OSM   H18S13932   3.482   6.351   3.991  0.1201 -1.6899 -0.2766
  130OSM   H18T13933   3.442   6.241   3.846  0.8721  0.2413 -1.2082
  130OSM   H18U13934   3.353   6.391   3.897  0.4323  0.8977 -0.6752
  130OSM    C1F13935   4.002   5.937   2.402 -0.3856 -0.6444 -0.6593
  130OSM     OF13936   4.113   5.969   2.436  0.0727  0.9237 -0.3868
  130OSM    C2F13937   3.943   5.802   2.433 -0.1138  0.0331 -0.6456
  130OSM    H2F13938   3.965   5.730   2.351  1.7044  0.6651 -0.7390
  130OSM    H2G13939   3.832   5.812   2.437 -0.2010 -0.9715 -0.4427
  130OSM    C3F13940   3.985   5.743   2.568  0.5096 -0.9624  0.1156
  130OSM    H3F13941   4.095   5.726   2.571  0.8182  0.3269 -2.2274
  130OSM    H3G13942   3.940   5.644   2.592 -0.7932 -1.3293 -3.5368
  130OSM    C4F13943   3.928   5.824   2.687  0.0889  0.0411 -0.5814
  130OSM    H4F13944   3.817   5.814   2.690  0.0484  0.4174 -0.8301
  130OSM    H4G13945   3.952   5.930   2.667  0.0176 -0.0068 -0.9335
  130OSM    C5F13946   3.968   5.766   2.825  0.6136  0.5328 -0.1094
  130OSM    H5F13947   4.071   5.726   2.819  0.3672 -0.1911  0.4307
  130OSM    H5G13948   3.902   5.679   2.844 -2.7616  2.6799 -1.6029
  130OSM    C6F13949   3.972   5.870   2.939 -0.5565  0.4955  0.4859
  130OSM    H6F13950   3.879   5.930   2.949  1.5961  3.9485  0.5841
  130OSM    H6G13951   4.043   5.947   2.902  0.1532 -0.4829 -0.2205
  130OSM    C7F13952   4.029   5.815   3.068  0.6049  0.6568 -0.5539
  130OSM    H7F13953   4.102   5.882   3.119 -0.4820  1.7836 -0.4539
  130OSM    H7G13954   4.089   5.728   3.036 -0.4698 -0.4013  0.2684
  130OSM    C8F13955   3.931   5.773   3.178  0.3041 -0.3196 -0.3340
  130OSM    H8F13956   3.987   5.728   3.263 -0.6791 -0.5731  0.1852
  130OSM    H8G13957   3.849   5.703   3.153  0.5958 -0.4684 -0.9038
  130OSM    C9F13958   3.855   5.896   3.233 -0.1259 -0.0768  0.4645
  130OSM    H9F13959   3.779   5.934   3.164 -0.5793 -1.5299  0.1558
  130OSM   C10F13960   3.861   5.952   3.354 -0.1252 -0.1142  0.3938
  130OSM   H10F13961   3.793   6.036   3.372  0.8950  1.0848 -1.1317
  130OSM   C11F13962   3.953   5.929   3.463 -0.2571  0.0658 -0.6722
  130OSM   H11F13963   4.020   6.016   3.450 -0.9942  0.8271  0.4747
  130OSM   H11G13964   4.011   5.836   3.450  0.3610  0.3506  0.0354
  130OSM   C12F13965   3.903   5.934   3.611 -0.4281  0.2713  0.2426
  130OSM   H12F13966   3.827   6.014   3.623 -0.1184  0.5191  0.5200
  130OSM   H12G13967   3.986   5.966   3.677  0.2814 -1.7718  0.3812
  130OSM   C13F13968   3.858   5.801   3.668 -0.2626  0.0924 -0.5549
  130OSM   H13F13969   3.922   5.729   3.612 -1.3962 -0.4418 -1.1864
  130OSM   H13G13970   3.754   5.779   3.636  0.6515 -2.0838 -2.1966
  130OSM   C14F13971   3.867   5.785   3.822 -0.7823  0.1103  0.1722
  130OSM   H14F13972   3.972   5.806   3.852 -0.3847 -0.3981 -0.8374
  130OSM   H14G13973   3.857   5.677   3.846 -0.8319  0.2473  0.7782
  130OSM   C15F13974   3.763   5.878   3.901  0.2974 -1.1092 -0.3425
  130OSM   H15F13975   3.662   5.837   3.880 -0.7745  2.2925 -2.2864
  130OSM   H15G13976   3.766   5.983   3.863 -3.1033 -0.5793  0.6793
  130OSM   C16F13977   3.776   5.867   4.057 -1.2435  0.1527 -0.0093
  130OSM   H16F13978   3.846   5.948   4.088 -2.0436  1.1539 -0.7507
  130OSM   H16G13979   3.821   5.772   4.091 -0.8014  0.8175  1.3050
  130OSM   C17F13980   3.645   5.887   4.140 -0.4713 -0.8682  1.0220
  130OSM   H17F13981   3.576   5.808   4.104  0.5509 -1.3077  0.0283
  130OSM   H17G13982   3.606   5.988   4.113  1.4297 -0.0004  1.4692
  130OSM   C18F13983   3.666   5.885   4.298  0.2959  0.2303  0.1163
  130OSM   H18F13984   3.571   5.919   4.343 -1.2762  2.1355 -4.3307
  130OSM   H18G13985   3.753   5.944   4.333 -0.0456 -0.0161  1.4078
  130OSM   H18H13986   3.681   5.778   4.325 -2.6982  0.2256  1.9163
  131OSM      N13987   1.374   2.492   2.158  0.2442 -0.0704  0.0791
  131OSM    C1513988   1.458   2.519   2.279 -0.1856 -0.1277 -0.3101
  131OSM   H15A13989   1.490   2.621   2.290 -0.1190 -0.2413  0.5751
  131OSM   H15B13990   1.539   2.447   2.276 -0.7452 -0.7094 -1.6672
  131OSM   H15C13991   1.400   2.491   2.366  0.5941 -1.3378 -0.1643
  131OSM    C1413992   1.455   2.458   2.037  0.9279  0.0299 -0.0247
  131OSM   H14A13993   1.529   2.535   2.028  1.3473 -0.2758  0.7850
  131OSM   H14B13994   1.395   2.457   1.947 -0.1620 -0.0658  0.6879
  131OSM   H14C13995   1.502   2.362   2.053  0.8349  0.0248  0.2207
  131OSM    C1313996   1.291   2.371   2.185  0.1049  0.1247 -0.2530
  131OSM   H13A13997   1.233   2.376   2.276  1.1552 -0.0534  0.4347
  131OSM   H13B13998   1.347   2.279   2.177 -1.8678 -1.3545  2.2011
  131OSM   H13C13999   1.207   2.368   2.117 -0.3036 -1.1410  0.2765
  131OSM    C1214000   1.287   2.609   2.140  0.1665 -0.2180  0.0125
  131OSM   H12A14001   1.228   2.611   2.230  0.1644  0.8666 -0.0038
  131OSM   H12B14002   1.225   2.607   2.051 -0.8127 -0.4170  0.6912
  131OSM    C1114003   1.357   2.750   2.133  0.3065 -0.7737  0.1657
  131OSM   H11A14004   1.414   2.777   2.224 -3.2303  3.9158  1.1749
  131OSM   H11B14005   1.275   2.824   2.142  2.6134  1.7044  1.3322
  131OSM      P14006   1.587   2.798   1.990 -0.3604  0.0256  0.4361
  131OSM    O1314007   1.659   2.690   1.918  0.7522 -0.2850 -0.1911
  131OSM    O1414008   1.579   2.927   1.923  0.4832 -0.6087  0.4674
  131OSM    O1114009   1.656   2.828   2.125  0.9281 -0.2785  0.2700
  131OSM    O1214010   1.432   2.754   2.013  0.3269  0.0259  0.1316
  131OSM    C1S14011   1.625   2.944   2.199 -0.1671 -0.4255  0.9480
  131OSM    H1S14012   1.517   2.970   2.203 -0.2958 -0.9228  0.8628
  131OSM    H1T14013   1.670   3.038   2.163  1.3934 -0.1975  3.3885
  131OSM     NF14014   1.648   3.062   2.414 -0.2568  0.3260 -0.0709
  131OSM    HNF14015   1.726   3.124   2.416  0.9361 -1.1535  3.1235
  131OSM    C2S14016   1.685   2.938   2.344 -0.2948  0.0477 -0.3217
  131OSM    H2S14017   1.622   2.864   2.398 -0.1671  1.0881  1.2766
  131OSM    C3S14018   1.834   2.899   2.352  0.8854 -0.8057  0.4218
  131OSM    H3S14019   1.900   2.969   2.296 -0.4926  0.7795  0.7312
  131OSM     O314020   1.873   2.765   2.314  0.1823  0.2535  0.4550
  131OSM    HO314021   1.788   2.727   2.290  0.5019 -1.2475  1.6343
  131OSM    C4S14022   1.879   2.915   2.499  0.2351 -0.0202 -0.0072
  131OSM    H4S14023   1.849   2.824   2.554  0.5085 -1.0797 -1.5720
  131OSM    C5S14024   1.943   3.013   2.566 -0.3688 -0.5616  0.0009
  131OSM    H5S14025   1.970   3.104   2.510 -0.4916  0.4045  1.4951
  131OSM    C6S14026   1.972   3.008   2.713  0.1674  0.2880 -0.4189
  131OSM    H6S14027   2.080   3.007   2.739  0.0192 -1.5806  0.2609
  131OSM    H6T14028   1.937   2.919   2.770  1.6879  0.1064  0.2528
  131OSM    C7S14029   1.931   3.144   2.765 -0.3403  0.7031  0.0642
  131OSM    H7S14030   1.822   3.160   2.749 -0.3454 -1.2059 -2.0148
  131OSM    H7T14031   1.984   3.230   2.719 -1.0266  1.0427 -0.0929
  131OSM    C8S14032   1.949   3.149   2.922  0.2143  1.0954 -0.5289
  131OSM    H8S14033   2.051   3.123   2.959 -0.9972  0.3751  2.4880
  131OSM    H8T14034   1.883   3.068   2.962 -1.3937  3.5678  2.0138
  131OSM    C9S14035   1.903   3.289   2.968  0.5933 -0.4588  0.3102
  131OSM    H9S14036   1.799   3.311   2.936  1.1211  0.0352 -1.0908
  131OSM    H9T14037   1.960   3.366   2.912  0.5951 -2.4129 -2.4243
  131OSM   C10S14038   1.914   3.309   3.118  0.4894 -0.1194  0.2206
  131OSM   H10S14039   1.870   3.411   3.130  2.5684  0.8910 -0.4363
  131OSM   H10T14040   2.022   3.311   3.146  0.3372  0.1431  0.8086
  131OSM   C11S14041   1.854   3.195   3.209 -0.0132 -0.0594  0.1383
  131OSM   H11S14042   1.865   3.215   3.318  0.6510 -0.9196  0.2349
  131OSM   H11T14043   1.901   3.096   3.196 -1.1460 -0.5925  0.0523
  131OSM   C12S14044   1.707   3.187   3.189  0.8816 -0.4231  0.1476
  131OSM   H12S14045   1.699   3.168   3.080  2.8783 -2.3749  0.2949
  131OSM   H12T14046   1.659   3.285   3.210  0.8402 -0.8039  1.9764
  131OSM   C13S14047   1.637   3.067   3.256  0.6607  0.2740  0.2813
  131OSM   H13S14048   1.700   2.977   3.240  0.1462 -0.3044  1.4817
  131OSM   H13T14049   1.530   3.041   3.238  0.4235  0.3310  1.5989
  131OSM   C14S14050   1.623   3.095   3.406 -0.7808  0.3799 -0.0195
  131OSM   H14S14051   1.557   3.184   3.417 -1.3447  0.0447 -0.7162
  131OSM   H14T14052   1.720   3.127   3.452 -1.2566  0.9641  0.5966
  131OSM   C15S14053   1.573   2.981   3.488  1.0028 -0.6115 -0.3958
  131OSM   H15S14054   1.640   2.893   3.499  0.7154 -1.1013 -2.3369
  131OSM   H15T14055   1.485   2.939   3.436  0.1116  0.8210 -0.0842
  131OSM   C16S14056   1.513   3.028   3.627 -0.1031  0.2094 -0.1748
  131OSM   H16S14057   1.422   3.086   3.597 -0.9907 -1.8165 -1.4997
  131OSM   H16T14058   1.576   3.094   3.689  1.0912 -0.9365 -0.1628
  131OSM   C17S14059   1.460   2.902   3.708 -0.1377 -0.3393 -0.4125
  131OSM   H17S14060   1.557   2.849   3.713 -0.0016 -0.1695 -1.1591
  131OSM   H17T14061   1.389   2.851   3.640  1.0351  0.7480 -2.5061
  131OSM   C18S14062   1.387   2.936   3.836 -0.5410 -0.7208  0.4535
  131OSM   H18S14063   1.449   3.001   3.902  1.1937 -2.0794  0.2104
  131OSM   H18T14064   1.339   2.847   3.883 -0.5579 -1.6383 -1.2487
  131OSM   H18U14065   1.300   3.001   3.812  0.2371  1.0669  2.3473
  131OSM    C1F14066   1.528   3.098   2.462 -0.0054 -0.6788 -0.0080
  131OSM     OF14067   1.440   3.018   2.458  0.2224 -0.4062 -0.0372
  131OSM    C2F14068   1.512   3.242   2.511  0.8063 -0.6348 -0.1413
  131OSM    H2F14069   1.463   3.293   2.425  0.7049 -1.5867 -0.6590
  131OSM    H2G14070   1.607   3.296   2.532  0.0818  0.3590  0.5944
  131OSM    C3F14071   1.420   3.271   2.630 -0.1774  0.5507  0.2341
  131OSM    H3F14072   1.315   3.239   2.617  0.7413 -1.8193 -1.8739
  131OSM    H3G14073   1.421   3.382   2.627  2.2100  0.5747  0.4672
  131OSM    C4F14074   1.475   3.205   2.756 -0.6899  0.2235  0.0523
  131OSM    H4F14075   1.436   3.267   2.839 -0.7134 -0.1633  0.3329
  131OSM    H4G14076   1.585   3.217   2.769 -0.3576  0.0048 -2.2639
  131OSM    C5F14077   1.423   3.064   2.777 -0.1189  0.4739  0.2328
  131OSM    H5F14078   1.474   3.003   2.699 -2.1637 -0.2338 -0.6008
  131OSM    H5G14079   1.313   3.063   2.764 -0.4224  0.8766  2.5426
  131OSM    C6F14080   1.458   3.010   2.916 -0.1217  0.4902 -0.3984
  131OSM    H6F14081   1.397   3.056   2.996  1.1841  2.3501 -0.4346
  131OSM    H6G14082   1.567   3.030   2.931 -0.4214  1.1007  1.0341
  131OSM    C7F14083   1.434   2.863   2.933  0.1868  0.4397 -0.1589
  131OSM    H7F14084   1.501   2.809   2.863  0.3013 -0.5846  0.7084
  131OSM    H7G14085   1.329   2.839   2.904  0.8064 -1.1448 -1.1569
  131OSM    C8F14086   1.463   2.814   3.078  0.1299 -0.4404  0.1591
  131OSM    H8F14087   1.435   2.899   3.144  0.6009  1.2663 -1.8071
  131OSM    H8G14088   1.571   2.792   3.092 -0.0655 -1.4659  0.1350
  131OSM    C9F14089   1.393   2.682   3.101 -0.2223  0.3420 -0.2185
  131OSM    H9F14090   1.401   2.611   3.017 -0.7024  1.0334 -0.8582
  131OSM   C10F14091   1.346   2.636   3.221 -0.1537 -0.2209 -0.1295
  131OSM   H10F14092   1.285   2.545   3.221  1.1614 -1.1324 -1.4477
  131OSM   C11F14093   1.350   2.709   3.344  0.2894  0.0569  0.1607
  131OSM   H11F14094   1.403   2.806   3.338 -1.2704  1.1878  3.5059
  131OSM   H11G14095   1.407   2.649   3.419  1.5007  0.2532 -0.5898
  131OSM   C12F14096   1.199   2.742   3.379 -0.3538  0.4399 -0.7043
  131OSM   H12F14097   1.136   2.733   3.288  0.9406 -1.9985 -1.4175
  131OSM   H12G14098   1.203   2.841   3.429  0.0718 -0.7664  1.6958
  131OSM   C13F14099   1.148   2.646   3.487  0.6175  0.2117 -0.1190
  131OSM   H13F14100   1.205   2.671   3.579  2.0538 -2.0695 -0.3644
  131OSM   H13G14101   1.178   2.543   3.460  3.1594  1.0771 -0.7647
  131OSM   C14F14102   1.003   2.647   3.507 -1.2284 -0.6304 -0.4736
  131OSM   H14F14103   0.963   2.565   3.444 -1.0431 -1.3367  0.3047
  131OSM   H14G14104   0.949   2.742   3.490 -1.1169 -0.4181  0.3098
  131OSM   C15F14105   0.963   2.602   3.646 -0.0079 -0.2353  0.1418
  131OSM   H15F14106   0.929   2.697   3.693  2.0486 -0.2072  1.6668
  131OSM   H15G14107   1.056   2.568   3.697  0.0820 -0.1555  0.0329
  131OSM   C16F14108   0.863   2.487   3.644 -0.1958  0.6489 -0.5253
  131OSM   H16F14109   0.898   2.390   3.603 -1.7281 -0.4723  0.7769
  131OSM   H16G14110   0.771   2.518   3.590  0.8220  1.8742 -1.5968
  131OSM   C17F14111   0.814   2.446   3.789 -0.4417 -0.2094 -0.2521
  131OSM   H17F14112   0.722   2.384   3.779 -0.9598  0.3314  1.0383
  131OSM   H17G14113   0.792   2.540   3.844 -0.0446 -0.7820  0.9065
  131OSM   C18F14114   0.908   2.358   3.867 -0.3159  0.4288  0.3785
  131OSM   H18F14115   0.883   2.252   3.846  1.3618  0.2214 -0.7070
  131OSM   H18G14116   0.898   2.366   3.977  0.0211  0.9582  0.3756
  131OSM   H18H14117   1.015   2.377   3.841 -0.0601 -1.9398 -0.3980
  132OSM      N14118   1.170   3.144   2.110  0.3681 -0.4848  0.0327
  132OSM    C1514119   1.236   3.092   2.234 -0.6716  0.3154  0.6534
  132OSM   H15A14120   1.343   3.106   2.226 -0.5119 -1.9292 -2.0186
  132OSM   H15B14121   1.214   2.986   2.239 -1.8093  0.5007 -0.2382
  132OSM   H15C14122   1.207   3.134   2.329 -0.1872  0.7954  0.5885
  132OSM    C1414123   1.203   3.053   1.995 -0.0899 -0.1785  0.2617
  132OSM   H14A14124   1.143   3.087   1.911  2.0098  0.5451 -0.9819
  132OSM   H14B14125   1.174   2.952   2.016 -2.8957  0.4480 -0.4123
  132OSM   H14C14126   1.308   3.063   1.973 -0.4096 -0.3712 -1.3788
  132OSM    C1314127   1.021   3.156   2.140  0.5346  0.2531 -0.2974
  132OSM   H13A14128   0.980   3.232   2.075 -3.4335 -1.1126  0.4409
  132OSM   H13B14129   1.002   3.198   2.238 -2.2936 -1.6911  0.0602
  132OSM   H13C14130   0.964   3.065   2.127 -0.5370  0.8527  0.0922
  132OSM    C1214131   1.218   3.279   2.063 -0.3663 -0.2544  0.0493
  132OSM   H12A14132   1.315   3.269   2.018  0.4467 -0.3573  1.7847
  132OSM   H12B14133   1.241   3.347   2.144  0.5852 -0.8926  0.3235
  132OSM    C1114134   1.136   3.352   1.953 -0.2248  0.0475 -0.2857
  132OSM   H11A14135   1.091   3.286   1.876  0.3285  0.1139 -0.6678
  132OSM   H11B14136   1.208   3.406   1.889  1.9352  0.1191  2.1261
  132OSM      P14137   1.055   3.576   2.053  0.1284 -0.0632 -0.2181
  132OSM    O1314138   1.183   3.567   2.140  0.4782  0.1248  0.2346
  132OSM    O1414139   1.064   3.681   1.956  0.6292  0.4571 -0.0347
  132OSM    O1114140   0.931   3.597   2.157  0.3705  0.7239 -0.8466
  132OSM    O1214141   1.027   3.433   1.993  0.6170  0.0523 -0.5004
  132OSM    C1S14142   0.883   3.488   2.243  0.0146 -0.6944 -0.5927
  132OSM    H1S14143   0.934   3.392   2.220  0.2726 -0.4945 -0.8495
  132OSM    H1T14144   0.780   3.460   2.213 -0.2918  0.5475 -0.6927
  132OSM     NF14145   0.871   3.387   2.468  0.4519 -0.0374 -0.2905
  132OSM    HNF14146   0.782   3.372   2.509  0.7569  1.2137  0.8565
  132OSM    C2S14147   0.905   3.513   2.395 -0.1267  0.0851 -0.4951
  132OSM    H2S14148   1.010   3.537   2.422  0.0252  0.7866 -1.6265
  132OSM    C3S14149   0.804   3.627   2.430 -0.1105 -0.0281 -0.1650
  132OSM    H3S14150   0.701   3.585   2.438  0.4440 -1.4748 -0.5978
  132OSM     O314151   0.798   3.741   2.347 -0.0260  0.5752 -1.2197
  132OSM    HO314152   0.845   3.706   2.271 -0.7028 -0.7711 -1.0504
  132OSM    C4S14153   0.827   3.683   2.569  0.5994  0.3712 -0.0748
  132OSM    H4S14154   0.907   3.758   2.567  0.3920  0.6331  1.0544
  132OSM    C5S14155   0.764   3.655   2.685 -0.4799  0.6968  0.3397
  132OSM    H5S14156   0.681   3.584   2.679  0.2140 -0.0686 -0.5307
  132OSM    C6S14157   0.783   3.734   2.807 -0.8150  0.2493 -0.8459
  132OSM    H6S14158   0.708   3.814   2.827  0.7545  1.4910  0.2691
  132OSM    H6T14159   0.884   3.782   2.811 -0.7950  0.1013  1.1875
  132OSM    C7S14160   0.796   3.627   2.921  0.1383  0.0037 -0.7180
  132OSM    H7S14161   0.824   3.688   3.009  1.1249  1.3671 -1.9396
  132OSM    H7T14162   0.870   3.546   2.901 -1.7556 -1.9511  0.0927
  132OSM    C8S14163   0.666   3.562   2.971 -0.2121 -0.0139  0.6392
  132OSM    H8S14164   0.626   3.492   2.895  1.8592 -0.8096  0.2222
  132OSM    H8T14165   0.588   3.639   2.985  0.3246  0.6754 -0.1184
  132OSM    C9S14166   0.680   3.471   3.096 -0.4401  0.0748  0.9590
  132OSM    H9S14167   0.745   3.385   3.069 -0.7387  0.3521 -0.7005
  132OSM    H9T14168   0.574   3.446   3.118 -0.4090 -1.2892 -0.3979
  132OSM   C10S14169   0.745   3.539   3.215 -0.2114 -0.7239  0.0945
  132OSM   H10S14170   0.688   3.493   3.298  0.6502  0.3249  1.2765
  132OSM   H10T14171   0.710   3.645   3.218 -0.4631 -0.7352 -1.7291
  132OSM   C11S14172   0.892   3.520   3.223 -0.3406 -0.1227  0.8061
  132OSM   H11S14173   0.943   3.541   3.126  1.0023  0.6296  1.6754
  132OSM   H11T14174   0.905   3.411   3.239  0.0657 -0.7078 -2.8733
  132OSM   C12S14175   0.957   3.594   3.340  0.3254 -0.4486  0.2677
  132OSM   H12S14176   1.037   3.529   3.382 -0.0695  0.5076  2.5611
  132OSM   H12T14177   0.882   3.612   3.420 -0.8211 -0.0767 -0.8637
  132OSM   C13S14178   1.011   3.731   3.304  0.1520  0.1040  0.1529
  132OSM   H13S14179   0.927   3.800   3.282 -0.5409 -1.0119 -0.8164
  132OSM   H13T14180   1.084   3.728   3.221 -1.3542  1.2371 -1.2331
  132OSM   C14S14181   1.099   3.777   3.420 -0.0546  0.5978  0.0903
  132OSM   H14S14182   1.194   3.720   3.414  0.0083  0.2759  3.4744
  132OSM   H14T14183   1.039   3.753   3.510  0.9292 -1.7810  0.1460
  132OSM   C15S14184   1.119   3.922   3.403  0.4528 -0.5292 -0.0336
  132OSM   H15S14185   1.100   3.965   3.504 -1.6279  1.0062 -1.0675
  132OSM   H15T14186   1.046   3.973   3.337  1.5709  1.1727 -0.0072
  132OSM   C16S14187   1.252   3.969   3.352 -0.7879 -0.4750  0.2291
  132OSM   H16S14188   1.253   3.978   3.241  1.2902 -1.4159  0.1576
  132OSM   H16T14189   1.334   3.899   3.378 -0.2544 -0.0515 -0.2917
  132OSM   C17S14190   1.280   4.111   3.406  0.1711 -0.3974  0.0543
  132OSM   H17S14191   1.302   4.119   3.514 -0.0322 -1.2543  0.1618
  132OSM   H17T14192   1.187   4.172   3.402  0.0273 -0.6550 -0.5780
  132OSM   C18S14193   1.392   4.187   3.333 -0.3958 -0.4015 -0.0512
  132OSM   H18S14194   1.476   4.118   3.310 -0.2370  0.4594 -2.1829
  132OSM   H18T14195   1.437   4.269   3.394 -1.6020 -0.0597  0.4037
  132OSM   H18U14196   1.359   4.230   3.236 -1.6918 -0.5038  0.3306
  132OSM    C1F14197   0.966   3.287   2.477 -0.4270 -0.5940  0.0562
  132OSM     OF14198   1.075   3.301   2.428 -0.0641 -0.3386  0.3290
  132OSM    C2F14199   0.923   3.166   2.552  0.1745  0.0884  0.7890
  132OSM    H2F14200   0.932   3.083   2.478 -0.3528  0.4430  0.3162
  132OSM    H2G14201   0.813   3.165   2.571 -0.5074 -3.0277 -2.6412
  132OSM    C3F14202   1.003   3.134   2.678  0.3511  0.1384  0.1347
  132OSM    H3F14203   1.107   3.119   2.643  0.4633  0.5665  0.2829
  132OSM    H3G14204   0.976   3.031   2.710 -0.7272 -0.3269 -2.1616
  132OSM    C4F14205   0.994   3.226   2.790 -0.6306  0.2728  0.1517
  132OSM    H4F14206   0.890   3.221   2.828 -0.2021 -0.0243  1.2959
  132OSM    H4G14207   1.005   3.335   2.770 -2.6304  0.5410  0.3895
  132OSM    C5F14208   1.091   3.188   2.907 -0.0060  0.4240  0.3136
  132OSM    H5F14209   1.179   3.255   2.903 -0.2006  0.6370 -0.4918
  132OSM    H5G14210   1.131   3.085   2.890 -0.3353  0.7407 -2.6587
  132OSM    C6F14211   1.031   3.202   3.048  0.4546  0.3319 -0.0304
  132OSM    H6F14212   0.930   3.156   3.043  1.5259 -2.0887  0.0523
  132OSM    H6G14213   1.023   3.312   3.063  0.9450  0.3630  0.0235
  132OSM    C7F14214   1.124   3.146   3.156  0.0580 -0.1451  0.2627
  132OSM    H7F14215   1.229   3.180   3.147  0.3455 -0.4281  2.3147
  132OSM    H7G14216   1.125   3.035   3.147  3.2601 -0.0655 -0.9594
  132OSM    C8F14217   1.091   3.171   3.305 -0.1817  0.0792  0.3005
  132OSM    H8F14218   1.113   3.278   3.326 -0.5347  0.2247 -0.0675
  132OSM    H8G14219   1.164   3.113   3.365 -1.2101  0.5130  2.0250
  132OSM    C9F14220   0.943   3.133   3.336 -0.2932 -0.2358 -0.1918
  132OSM    H9F14221   0.881   3.106   3.249 -2.5518  2.0172  0.6584
  132OSM   C10F14222   0.891   3.138   3.454 -0.5757  0.4696  0.5505
  132OSM   H10F14223   0.794   3.101   3.490 -0.6062  1.4800  1.5523
  132OSM   C11F14224   0.968   3.190   3.576 -0.3132 -0.8960  0.1789
  132OSM   H11F14225   0.911   3.279   3.610  1.6668 -0.3970  2.3206
  132OSM   H11G14226   1.069   3.230   3.551 -1.3189  0.6326 -1.5520
  132OSM   C12F14227   0.976   3.087   3.683  0.1313 -0.5185  0.3013
  132OSM   H12F14228   1.022   3.141   3.769 -0.5293  1.8608 -0.7803
  132OSM   H12G14229   1.042   3.004   3.650 -0.5103 -1.1397  0.5691
  132OSM   C13F14230   0.853   3.014   3.725 -0.2328  1.0429  0.7275
  132OSM   H13F14231   0.840   2.930   3.653 -0.1986  1.6984 -0.0564
  132OSM   H13G14232   0.763   3.080   3.722 -1.1099 -0.1040  1.6528
  132OSM   C14F14233   0.873   2.961   3.872  0.2264 -0.2940 -0.0434
  132OSM   H14F14234   0.882   3.036   3.954 -1.3103 -1.0921  0.8619
  132OSM   H14G14235   0.973   2.915   3.858  0.2133 -0.9475  1.8929
  132OSM   C15F14236   0.793   2.846   3.922  0.1156 -0.3232 -0.1430
  132OSM   H15F14237   0.834   2.821   4.022 -2.7040 -1.9140  0.6423
  132OSM   H15G14238   0.815   2.761   3.854  0.6349 -0.9132  0.7386
  132OSM   C16F14239   0.645   2.876   3.936  0.1510  0.4695  0.3836
  132OSM   H16F14240   0.603   2.790   3.992  0.3691 -0.0383 -0.2363
  132OSM   H16G14241   0.592   2.875   3.838 -0.0236 -0.1129  0.4835
  132OSM   C17F14242   0.610   3.011   4.001  0.3154  0.5825 -0.0541
  132OSM   H17F14243   0.500   3.027   4.000 -0.2127 -2.1578  3.4764
  132OSM   H17G14244   0.655   3.095   3.943 -0.7628  1.4822  0.3825
  132OSM   C18F14245   0.659   3.026   4.149  0.2382 -0.1221 -0.4807
  132OSM   H18F14246   0.620   2.942   4.211 -2.6319  0.8360 -0.9309
  132OSM   H18G14247   0.623   3.123   4.189 -0.6751 -0.4721 -0.4341
  132OSM   H18H14248   0.770   3.031   4.156  0.2989  0.4174 -1.6977
  133OSM      N14249   6.398   3.027   1.604  0.1346  0.3894  0.2372
  133OSM    C1514250   6.308   3.104   1.514 -0.0899  0.8377 -0.7364
  133OSM   H15A14251   6.276   3.195   1.562  0.0001  0.2158  0.5078
  133OSM   H15B14252   6.220   3.046   1.490  0.9623 -0.4664 -1.5532
  133OSM   H15C14253   6.360   3.124   1.421 -0.4690  2.0423 -0.6999
  133OSM    C1414254   6.429   2.882   1.558  0.5792 -0.6863  0.1744
  133OSM   H14A14255   6.478   2.822   1.634  0.5955 -2.9510 -1.5812
  133OSM   H14B14256   6.490   2.884   1.469  2.2143 -0.5357  1.2622
  133OSM   H14C14257   6.336   2.830   1.542 -0.5512 -0.3731  4.8238
  133OSM    C1314258   6.532   3.094   1.606  0.1920 -0.6387  0.8452
  133OSM   H13A14259   6.512   3.196   1.633  1.0654 -0.8603  2.4026
  133OSM   H13B14260   6.566   3.094   1.504  1.0487 -0.8160  1.1233
  133OSM   H13C14261   6.605   3.059   1.678 -0.4781 -1.4369  1.1508
  133OSM    C1214262   6.335   3.031   1.738 -0.2556  0.4456 -0.7195
  133OSM   H12A14263   6.241   2.977   1.737 -0.6336  0.9880  2.0909
  133OSM   H12B14264   6.318   3.136   1.756  0.8096  0.5309 -0.2041
  133OSM    C1114265   6.422   2.970   1.854  0.1541 -0.2507 -0.2218
  133OSM   H11A14266   6.384   3.012   1.949  1.1307 -0.5680  0.3125
  133OSM   H11B14267   6.525   3.008   1.842 -0.0379  0.3034 -0.1443
  133OSM      P14268   6.316   2.736   1.927 -0.3233  0.6821 -0.0548
  133OSM    O1314269   6.234   2.669   1.820  0.4608 -0.1161  0.3111
  133OSM    O1414270   6.386   2.643   2.022 -0.3095  0.1769 -0.0997
  133OSM    O1114271   6.233   2.844   2.008  0.6027  0.4067 -0.6884
  133OSM    O1214272   6.420   2.830   1.859 -0.1868  0.0357 -0.0996
  133OSM    C1S14273   6.188   2.819   2.142  0.2954  0.3455 -0.1787
  133OSM    H1S14274   6.251   2.741   2.189  0.7483 -0.7942 -2.6147
  133OSM    H1T14275   6.084   2.782   2.131  0.2934 -0.0619  1.0259
  133OSM     NF14276   6.178   2.902   2.369 -0.3674 -0.2329 -0.8756
  133OSM    HNF14277   6.087   2.901   2.409  0.5891 -0.1655  1.3924
  133OSM    C2S14278   6.185   2.945   2.235 -0.0280 -0.4885 -0.7070
  133OSM    H2S14279   6.281   2.997   2.213  0.1636 -1.1661 -1.5309
  133OSM    C3S14280   6.069   3.042   2.188  0.4200 -0.1621  0.2046
  133OSM    H3S14281   5.984   2.970   2.181  1.0954 -0.8844 -0.7633
  133OSM     O314282   6.083   3.098   2.059  0.3730  0.4137 -0.1286
  133OSM    HO314283   6.142   3.037   2.015  0.2420 -0.6115  1.0648
  133OSM    C4S14284   6.049   3.149   2.286 -0.0560  0.5368  0.2973
  133OSM    H4S14285   5.993   3.111   2.373 -0.9076  3.0668  0.8952
  133OSM    C5S14286   6.098   3.278   2.288  0.6112  0.2574  0.2186
  133OSM    H5S14287   6.147   3.328   2.204 -0.1152  0.4289 -0.1115
  133OSM    C6S14288   6.088   3.373   2.405  0.0283 -0.5001 -0.5390
  133OSM    H6S14289   6.017   3.348   2.487  0.9267  1.6658  0.9547
  133OSM    H6T14290   6.034   3.460   2.362 -0.6147  0.0863  1.3917
  133OSM    C7S14291   6.215   3.435   2.467 -0.1538  0.9801  0.6555
  133OSM    H7S14292   6.197   3.534   2.514 -1.6949  0.9763  0.1161
  133OSM    H7T14293   6.303   3.440   2.399 -1.2390 -0.0153 -0.8619
  133OSM    C8S14294   6.280   3.348   2.581 -0.6640  0.3516  0.9874
  133OSM    H8S14295   6.373   3.398   2.614  0.7090 -0.1267 -1.9777
  133OSM    H8T14296   6.302   3.252   2.529 -0.3052  0.6073  0.6651
  133OSM    C9S14297   6.189   3.320   2.699  0.4057  0.0033 -0.4346
  133OSM    H9S14298   6.237   3.256   2.776 -1.6537 -0.3114  0.6483
  133OSM    H9T14299   6.109   3.256   2.656  0.3456  0.8104 -1.5475
  133OSM   C10S14300   6.101   3.435   2.761  0.3607  0.4077  0.4012
  133OSM   H10S14301   6.030   3.376   2.823 -0.7836  1.3110 -0.0179
  133OSM   H10T14302   6.036   3.480   2.683  0.7542 -0.4200 -0.4189
  133OSM   C11S14303   6.177   3.542   2.842 -0.5719 -0.1390  0.3537
  133OSM   H11S14304   6.219   3.613   2.768 -0.1382 -0.8908 -0.1356
  133OSM   H11T14305   6.262   3.481   2.878  0.0339 -1.0419 -2.4954
  133OSM   C12S14306   6.106   3.594   2.970 -0.1809  0.0898 -0.1168
  133OSM   H12S14307   6.010   3.634   2.932 -1.6644 -1.4007  1.9429
  133OSM   H12T14308   6.163   3.679   3.015 -0.6256  0.3336 -0.0101
  133OSM   C13S14309   6.092   3.487   3.082 -0.5244 -0.2418  0.0440
  133OSM   H13S14310   6.183   3.484   3.146 -1.1794 -0.8922  0.9586
  133OSM   H13T14311   6.087   3.390   3.029 -0.1818 -0.3857  0.2652
  133OSM   C14S14312   5.967   3.511   3.170  1.3655 -0.1182  0.5205
  133OSM   H14S14313   5.952   3.619   3.193 -0.0259 -0.1819 -0.0405
  133OSM   H14T14314   5.983   3.462   3.268 -2.4721 -1.1443  0.7156
  133OSM   C15S14315   5.837   3.463   3.108  0.5300 -0.1131  0.7880
  133OSM   H15S14316   5.821   3.354   3.117  0.8137 -0.2906 -0.6170
  133OSM   H15T14317   5.831   3.480   2.998 -0.7469 -2.6808  0.4405
  133OSM   C16S14318   5.704   3.519   3.172 -0.0615  0.5705  0.5060
  133OSM   H16S14319   5.615   3.479   3.119  0.3514  2.4653 -1.6768
  133OSM   H16T14320   5.705   3.630   3.166  0.2440  0.4535 -2.6985
  133OSM   C17S14321   5.691   3.494   3.321 -0.6343  0.1335  0.7391
  133OSM   H17S14322   5.710   3.596   3.361 -0.5115 -0.0495  1.1433
  133OSM   H17T14323   5.776   3.427   3.344  1.6528  2.3708 -0.8621
  133OSM   C18S14324   5.562   3.428   3.357  0.3945  0.4687  0.1749
  133OSM   H18S14325   5.562   3.346   3.282  0.7069 -0.9862  1.7500
  133OSM   H18T14326   5.471   3.491   3.357  0.0804  0.0211  1.3269
  133OSM   H18U14327   5.568   3.379   3.456  0.2933 -0.3420 -0.2135
  133OSM    C1F14328   6.284   2.845   2.437  0.2270  0.3300 -0.3216
  133OSM     OF14329   6.386   2.823   2.377  0.9752 -0.1800  0.3452
  133OSM    C2F14330   6.268   2.811   2.582  0.1483  0.1246  0.6567
  133OSM    H2F14331   6.366   2.779   2.622  0.0439  0.1105  0.9071
  133OSM    H2G14332   6.197   2.726   2.588 -0.5140  0.7009  1.1582
  133OSM    C3F14333   6.205   2.923   2.668 -0.3085  0.3831 -0.1271
  133OSM    H3F14334   6.102   2.948   2.637  0.3983  2.1448 -1.1345
  133OSM    H3G14335   6.263   3.017   2.655 -0.3704  0.6278  1.2762
  133OSM    C4F14336   6.228   2.892   2.824  0.3455 -0.1894 -0.4210
  133OSM    H4F14337   6.326   2.841   2.832  1.6680  2.1893 -0.9755
  133OSM    H4G14338   6.160   2.815   2.866 -1.7170  1.8182  0.0220
  133OSM    C5F14339   6.219   3.022   2.906  0.6290  0.0537  0.3936
  133OSM    H5F14340   6.120   3.071   2.893  0.6551 -0.6793 -2.8363
  133OSM    H5G14341   6.307   3.084   2.878  0.0561 -0.1558 -1.9151
  133OSM    C6F14342   6.226   3.017   3.058 -0.1040 -0.2493 -1.6186
  133OSM    H6F14343   6.327   2.978   3.082 -0.0723  1.0684  0.5895
  133OSM    H6G14344   6.162   2.937   3.100  1.6859 -1.6626 -1.5224
  133OSM    C7F14345   6.200   3.151   3.128  0.0365 -0.4688 -0.1658
  133OSM    H7F14346   6.107   3.205   3.100 -0.7538 -0.7125  1.8832
  133OSM    H7G14347   6.282   3.220   3.099  0.1211  0.1862  1.5742
  133OSM    C8F14348   6.203   3.140   3.282  0.1752  0.6089  0.5362
  133OSM    H8F14349   6.199   3.233   3.342 -2.3082 -0.2265  1.7620
  133OSM    H8G14350   6.304   3.100   3.305 -0.0861 -0.4619 -0.1179
  133OSM    C9F14351   6.087   3.056   3.330  0.4809  0.2114 -0.2792
  133OSM    H9F14352   5.990   3.107   3.319 -0.4477 -1.3443  0.5860
  133OSM   C10F14353   6.097   2.928   3.365  0.7600  0.0722  0.0090
  133OSM   H10F14354   6.002   2.882   3.396 -1.4709  3.1206 -2.1028
  133OSM   C11F14355   6.221   2.836   3.376 -0.5903 -0.4550 -0.1891
  133OSM   H11F14356   6.311   2.890   3.338  1.3620 -1.4601  2.8289
  133OSM   H11G14357   6.203   2.747   3.312 -0.6725  0.3120 -1.2671
  133OSM   C12F14358   6.262   2.795   3.516  0.1216  0.3253 -0.3531
  133OSM   H12F14359   6.338   2.714   3.517  0.8498  0.9590 -2.5711
  133OSM   H12G14360   6.168   2.748   3.552 -0.4981 -0.2688 -2.7236
  133OSM   C13F14361   6.297   2.905   3.621 -0.0014  0.7499  0.1289
  133OSM   H13F14362   6.265   3.001   3.574 -0.8284  0.3867 -0.0547
  133OSM   H13G14363   6.408   2.911   3.610  0.1307  0.5232  1.3398
  133OSM   C14F14364   6.244   2.873   3.763  0.2022 -0.1875 -0.3323
  133OSM   H14F14365   6.271   2.766   3.772  2.2130  0.2011 -1.4600
  133OSM   H14G14366   6.134   2.888   3.760  0.1593  0.0152  1.6665
  133OSM   C15F14367   6.306   2.947   3.880 -0.0433 -0.4726  0.0416
  133OSM   H15F14368   6.297   3.057   3.866 -0.8686 -0.9410 -3.5969
  133OSM   H15G14369   6.415   2.929   3.879  0.2464  1.1361 -1.4346
  133OSM   C16F14370   6.255   2.907   4.022 -0.0827  0.3361 -0.2843
  133OSM   H16F14371   6.146   2.888   4.019 -0.4513  1.9474  1.6735
  133OSM   H16G14372   6.263   2.998   4.086  1.7073 -0.0211  0.0442
  133OSM   C17F14373   6.325   2.778   4.077  0.6067 -0.2375  0.0365
  133OSM   H17F14374   6.299   2.700   4.003 -0.6155  0.6892 -0.5453
  133OSM   H17G14375   6.264   2.765   4.169  0.7765 -0.8153  0.0643
  133OSM   C18F14376   6.471   2.783   4.098 -0.1724 -0.5613 -0.0856
  133OSM   H18F14377   6.496   2.885   4.136  0.0233 -1.1496  1.4024
  133OSM   H18G14378   6.528   2.767   4.004  0.0701  0.3289 -0.0957
  133OSM   H18H14379   6.505   2.710   4.174 -0.9286 -0.3465  0.4671
  134OSM      N14380   5.708   5.341   1.860  0.5607  0.0071 -0.1262
  134OSM    C1514381   5.728   5.224   1.773  0.4122 -0.1451  0.5570
  134OSM   H15A14382   5.756   5.260   1.675 -2.0405  0.8813  0.1721
  134OSM   H15B14383   5.639   5.164   1.761 -0.2447  0.7656  0.7959
  134OSM   H15C14384   5.814   5.165   1.800  1.0768  0.2979 -0.5517
  134OSM    C1414385   5.803   5.449   1.816  0.2474 -0.4698 -0.0168
  134OSM   H14A14386   5.901   5.432   1.857 -0.4293 -0.2399  1.7902
  134OSM   H14B14387   5.770   5.542   1.860  0.9058 -0.7739  1.1501
  134OSM   H14C14388   5.814   5.465   1.710 -0.5895 -0.1536 -0.0649
  134OSM    C1314389   5.576   5.405   1.845  0.4635 -0.8916  0.5901
  134OSM   H13A14390   5.561   5.431   1.741 -0.7424  0.0050  0.9770
  134OSM   H13B14391   5.572   5.499   1.897  1.2488 -0.6192  0.1582
  134OSM   H13C14392   5.503   5.336   1.885  0.4915 -1.2559  0.0201
  134OSM    C1214393   5.721   5.291   2.006 -0.2622 -0.9787 -0.4482
  134OSM   H12A14394   5.649   5.210   2.012 -0.9624 -0.4211 -1.2114
  134OSM   H12B14395   5.696   5.375   2.069 -0.2276 -1.2666 -0.0542
  134OSM    C1114396   5.848   5.223   2.058 -0.3607 -0.0659 -0.7044
  134OSM   H11A14397   5.843   5.198   2.166 -2.0199 -3.0256 -1.3914
  134OSM   H11B14398   5.927   5.295   2.030 -1.3346  1.1223 -0.4018
  134OSM      P14399   5.820   4.963   2.011 -0.0931 -0.1037  0.1163
  134OSM    O1314400   5.709   4.949   1.914  0.5045  0.4318  0.3429
  134OSM    O1414401   5.931   4.857   2.011  0.4872 -0.0160  0.5908
  134OSM    O1114402   5.770   4.970   2.154 -0.3150 -0.4791 -0.7194
  134OSM    O1214403   5.889   5.107   1.984 -1.1110 -0.0064  0.2122
  134OSM    C1S14404   5.626   4.988   2.181 -0.0259  0.0741  0.2742
  134OSM    H1S14405   5.577   4.891   2.158  0.5908  0.4428 -2.8404
  134OSM    H1T14406   5.575   5.062   2.116 -1.8355 -0.1295  1.4269
  134OSM     NF14407   5.626   5.144   2.363 -0.0547  0.0740  0.3202
  134OSM    HNF14408   5.712   5.149   2.412  0.1145 -1.8883  0.2693
  134OSM    C2S14409   5.588   5.011   2.328 -0.1622 -0.0829 -0.4185
  134OSM    H2S14410   5.479   5.005   2.346 -0.4699  1.0111 -1.8399
  134OSM    C3S14411   5.657   4.920   2.430 -0.0373 -0.0577 -0.1774
  134OSM    H3S14412   5.767   4.920   2.410 -0.3404 -1.2297 -1.8883
  134OSM     O314413   5.624   4.780   2.400  0.2022 -0.2100  0.2497
  134OSM    HO314414   5.649   4.765   2.309  0.9118 -0.9955  0.5693
  134OSM    C4S14415   5.627   4.940   2.574  0.1632 -0.1101  0.3565
  134OSM    H4S14416   5.533   4.895   2.606 -0.6374  2.1347  1.2872
  134OSM    C5S14417   5.711   4.993   2.660 -0.1572  0.4217  0.3666
  134OSM    H5S14418   5.813   5.020   2.629 -0.4498  2.0385  0.8006
  134OSM    C6S14419   5.682   5.007   2.811 -0.0975 -0.0614  0.0108
  134OSM    H6S14420   5.575   4.985   2.830 -0.4356  0.4662 -1.2336
  134OSM    H6T14421   5.702   5.112   2.841  1.5049 -0.6195  0.9271
  134OSM    C7S14422   5.778   4.910   2.889  0.9374  0.6425 -0.0921
  134OSM    H7S14423   5.887   4.925   2.874  0.7333  2.2141 -0.0030
  134OSM    H7T14424   5.746   4.806   2.866 -2.4901  2.3340 -3.3869
  134OSM    C8S14425   5.755   4.936   3.043 -0.2489  0.2707  0.2019
  134OSM    H8S14426   5.645   4.939   3.055 -0.0926 -0.1621  1.8479
  134OSM    H8T14427   5.783   5.040   3.072  0.8891  0.4297 -1.4084
  134OSM    C9S14428   5.841   4.836   3.123 -0.4202  0.1847 -0.2721
  134OSM    H9S14429   5.947   4.843   3.091  0.4317  0.7207  2.5573
  134OSM    H9T14430   5.817   4.729   3.104 -0.6997 -0.2617  2.3343
  134OSM   C10S14431   5.851   4.857   3.271 -0.4305  0.2131 -0.4304
  134OSM   H10S14432   5.751   4.861   3.319 -0.5000  1.5524 -0.6682
  134OSM   H10T14433   5.885   4.961   3.290 -0.4773  0.1978 -0.2641
  134OSM   C11S14434   5.955   4.769   3.336 -0.5088  0.1650 -0.1563
  134OSM   H11S14435   6.055   4.778   3.288  0.6501  1.8531  2.4725
  134OSM   H11T14436   5.920   4.664   3.331  0.7506 -0.2312 -1.0860
  134OSM   C12S14437   5.962   4.799   3.486 -1.0228  0.6049  0.3700
  134OSM   H12S14438   5.863   4.820   3.532 -0.7046  1.3624  0.7227
  134OSM   H12T14439   6.031   4.885   3.502  2.8937 -2.2636 -0.5362
  134OSM   C13S14440   6.037   4.693   3.566  0.6893  0.1126 -0.2036
  134OSM   H13S14441   6.122   4.654   3.507  1.3630  2.7137 -1.0478
  134OSM   H13T14442   5.966   4.609   3.583 -0.2189  0.4738 -2.0522
  134OSM   C14S14443   6.075   4.746   3.702  0.1813 -0.3032  1.0324
  134OSM   H14S14444   5.983   4.761   3.763  1.4048  1.4646  2.4782
  134OSM   H14T14445   6.124   4.845   3.705 -0.0322 -0.1862  0.6723
  134OSM   C15S14446   6.158   4.647   3.786  0.1096  0.1940  0.2567
  134OSM   H15S14447   6.214   4.724   3.842 -1.2759  0.5090  1.2425
  134OSM   H15T14448   6.225   4.581   3.727 -0.2307  0.6595 -0.6533
  134OSM   C16S14449   6.086   4.557   3.882 -0.6706 -0.4119  1.0263
  134OSM   H16S14450   6.005   4.613   3.934 -2.1062  0.2382 -1.8501
  134OSM   H16T14451   6.166   4.542   3.958  0.6443  0.8925 -0.0795
  134OSM   C17S14452   6.034   4.425   3.817  0.2703  0.4103  0.1364
  134OSM   H17S14453   6.120   4.374   3.771  1.2863  1.2336  1.0914
  134OSM   H17T14454   5.956   4.432   3.738 -0.0929 -3.2596  0.0767
  134OSM   C18S14455   5.987   4.324   3.927  0.3782  0.0298 -0.2800
  134OSM   H18S14456   5.889   4.287   3.888  0.9699 -1.7352 -0.1318
  134OSM   H18T14457   5.963   4.367   4.026 -1.9192  2.2674 -1.7573
  134OSM   H18U14458   6.063   4.244   3.938  0.7501  0.6716  1.9970
  134OSM    C1F14459   5.554   5.254   2.332 -0.0506 -0.3256 -0.1638
  134OSM     OF14460   5.463   5.243   2.252  0.4715  0.0296 -0.0330
  134OSM    C2F14461   5.600   5.389   2.374 -0.2798 -0.1271  0.2762
  134OSM    H2F14462   5.605   5.455   2.285 -3.9963  2.3550  1.7563
  134OSM    H2G14463   5.702   5.385   2.420 -0.7779 -3.1549  1.2199
  134OSM    C3F14464   5.484   5.441   2.462 -0.7411 -0.4068  0.5945
  134OSM    H3F14465   5.395   5.450   2.397  0.4657 -0.4052 -1.0911
  134OSM    H3G14466   5.499   5.545   2.499 -3.1459  1.5596 -3.5762
  134OSM    C4F14467   5.461   5.357   2.592 -0.1175 -0.0922 -0.3766
  134OSM    H4F14468   5.451   5.247   2.580  3.1957 -0.2942 -1.8293
  134OSM    H4G14469   5.369   5.385   2.647 -0.1663 -1.4767  0.2652
  134OSM    C5F14470   5.557   5.384   2.708  0.4391  0.4251 -0.3083
  134OSM    H5F14471   5.582   5.492   2.721 -1.1128  1.0166 -2.0218
  134OSM    H5G14472   5.655   5.339   2.682 -0.4396 -0.9776 -1.2949
  134OSM    C6F14473   5.500   5.323   2.841  0.4888  0.1038  0.0563
  134OSM    H6F14474   5.490   5.213   2.831 -1.4598  0.2492  0.2489
  134OSM    H6G14475   5.399   5.360   2.869  0.0551 -1.9537  1.2975
  134OSM    C7F14476   5.590   5.350   2.961  0.1450 -0.1816 -0.2249
  134OSM    H7F14477   5.566   5.454   2.995 -1.9597 -0.9536  0.7194
  134OSM    H7G14478   5.700   5.350   2.947  0.3518  0.6106  1.2278
  134OSM    C8F14479   5.564   5.267   3.091 -0.0772 -0.0971 -0.8467
  134OSM    H8F14480   5.618   5.170   3.077  3.7080  2.1696 -3.1212
  134OSM    H8G14481   5.462   5.228   3.110  1.0965 -2.0930  1.6117
  134OSM    C9F14482   5.608   5.329   3.222 -0.5943  0.5877 -0.0624
  134OSM    H9F14483   5.664   5.424   3.231  0.4251  0.0488 -0.5844
  134OSM   C10F14484   5.611   5.253   3.335 -0.2274  0.0156 -0.7419
  134OSM   H10F14485   5.630   5.299   3.433 -0.8042 -2.3355  0.4839
  134OSM   C11F14486   5.556   5.111   3.353 -0.2525  0.6434 -0.1701
  134OSM   H11F14487   5.628   5.065   3.424 -1.9443  0.2953  1.3609
  134OSM   H11G14488   5.568   5.052   3.260  0.8356  0.6095 -0.0141
  134OSM   C12F14489   5.412   5.099   3.398 -0.2884 -0.0491  0.5254
  134OSM   H12F14490   5.353   5.104   3.304  0.4495  0.4629  0.0912
  134OSM   H12G14491   5.384   5.173   3.476 -0.9266  0.8617 -0.5503
  134OSM   C13F14492   5.381   4.965   3.465  0.8818 -0.2136  0.0296
  134OSM   H13F14493   5.421   4.969   3.568  2.5579  0.6546 -0.6415
  134OSM   H13G14494   5.433   4.882   3.413 -1.1993 -2.2664  1.1524
  134OSM   C14F14495   5.236   4.918   3.467 -0.2669 -0.2955  0.0352
  134OSM   H14F14496   5.223   4.814   3.503 -0.7950 -0.2433 -0.0072
  134OSM   H14G14497   5.202   4.913   3.361  1.1408 -3.3249 -0.3149
  134OSM   C15F14498   5.150   5.009   3.564  0.7081 -0.1415  0.0953
  134OSM   H15F14499   5.042   4.986   3.549  0.4312  2.1736 -1.8285
  134OSM   H15G14500   5.165   5.119   3.554  1.1944 -0.3855 -2.1564
  134OSM   C16F14501   5.176   4.967   3.709  0.2007 -0.7323 -0.3093
  134OSM   H16F14502   5.278   5.003   3.735 -0.2629 -1.4609  2.7054
  134OSM   H16G14503   5.174   4.856   3.716 -2.9725 -0.6578  0.4332
  134OSM   C17F14504   5.068   5.036   3.797 -0.3999 -0.2456  0.2902
  134OSM   H17F14505   5.073   4.992   3.899 -1.8374 -1.6927 -0.2358
  134OSM   H17G14506   4.967   5.018   3.754 -0.7814 -1.8381  1.7501
  134OSM   C18F14507   5.092   5.184   3.818 -0.3613 -0.8186  0.0876
  134OSM   H18F14508   5.010   5.211   3.889 -1.4518 -2.8379 -0.3831
  134OSM   H18G14509   5.079   5.245   3.726  1.1228 -2.1077 -1.0141
  134OSM   H18H14510   5.195   5.189   3.859 -0.2504 -2.0767 -0.0329
  135OSM      N14511   0.836   4.506   1.746  0.0931 -0.1403 -0.5229
  135OSM    C1514512   0.718   4.493   1.657  0.5143  0.0941  0.1957
  135OSM   H15A14513   0.684   4.588   1.617 -0.2224 -0.2282  0.0471
  135OSM   H15B14514   0.640   4.436   1.706  0.9417  0.1980  0.9992
  135OSM   H15C14515   0.729   4.421   1.577 -0.0454 -0.1206  0.3077
  135OSM    C1414516   0.850   4.378   1.829 -0.4333  0.1348  0.2885
  135OSM   H14A14517   0.892   4.303   1.764 -0.8585  0.9224 -0.9018
  135OSM   H14B14518   0.753   4.335   1.850 -0.4983  0.0792 -0.1160
  135OSM   H14C14519   0.910   4.388   1.918 -0.2125 -0.5467  0.2166
  135OSM    C1314520   0.965   4.533   1.670 -0.2355 -0.8130 -0.2126
  135OSM   H13A14521   1.048   4.539   1.740 -1.6836  1.0989  1.4188
  135OSM   H13B14522   0.967   4.621   1.608  2.6593 -1.7623 -1.5740
  135OSM   H13C14523   0.986   4.451   1.604 -0.2147 -1.1896  0.2580
  135OSM    C1214524   0.811   4.627   1.842 -1.0282  0.0314 -0.3713
  135OSM   H12A14525   0.711   4.626   1.882 -0.7744 -1.2387  0.2518
  135OSM   H12B14526   0.816   4.722   1.790  2.8192 -0.7368 -1.5389
  135OSM    C1114527   0.903   4.632   1.972 -0.2087 -0.1309 -0.7649
  135OSM   H11A14528   0.891   4.540   2.034  0.0817  0.8293  0.7199
  135OSM   H11B14529   0.865   4.728   2.012  0.3131 -0.3620  0.2995
  135OSM      P14530   1.105   4.784   1.896  0.4513  0.4636 -0.1780
  135OSM    O1314531   1.218   4.764   1.806  0.5132 -0.3655  0.9041
  135OSM    O1414532   0.998   4.868   1.840 -0.2185  0.5333 -0.5945
  135OSM    O1114533   1.155   4.844   2.031 -0.1201  0.0577  0.3763
  135OSM    O1214534   1.045   4.649   1.936  0.0312  0.1893  0.1369
  135OSM    C1S14535   1.117   4.829   2.160  0.1739 -0.0196  0.5777
  135OSM    H1S14536   1.108   4.720   2.176  0.6996 -0.0744  0.5141
  135OSM    H1T14537   1.020   4.882   2.171 -0.9454 -1.1909 -2.8640
  135OSM     NF14538   1.188   4.843   2.381 -0.4774 -0.2049  0.0519
  135OSM    HNF14539   1.152   4.919   2.435  0.5083 -0.3169  0.8993
  135OSM    C2S14540   1.223   4.885   2.254 -0.2709  0.2461  0.1372
  135OSM    H2S14541   1.316   4.831   2.227 -1.8269 -1.6703 -1.5442
  135OSM    C3S14542   1.240   5.044   2.232  0.2200  0.4588 -0.0684
  135OSM    H3S14543   1.147   5.097   2.262  2.0269  2.2769  2.4326
  135OSM     O314544   1.263   5.072   2.089  0.1335 -0.4756  0.5529
  135OSM    HO314545   1.239   4.991   2.044  0.5930 -0.3165  0.0188
  135OSM    C4S14546   1.355   5.086   2.310  0.6001  0.4825  0.3935
  135OSM    H4S14547   1.453   5.036   2.305 -0.4336 -1.4006 -1.7446
  135OSM    C5S14548   1.353   5.201   2.376  0.0149  0.3069 -0.1232
  135OSM    H5S14549   1.267   5.269   2.366 -0.0826  0.4086  1.3808
  135OSM    C6S14550   1.469   5.247   2.453 -0.6663  0.4408  0.4345
  135OSM    H6S14551   1.492   5.355   2.456  2.1851  0.0055 -2.5702
  135OSM    H6T14552   1.565   5.209   2.412 -0.8217  2.2685 -1.6884
  135OSM    C7S14553   1.470   5.207   2.598  0.7944 -0.0584  0.3258
  135OSM    H7S14554   1.498   5.099   2.604 -1.8065 -0.8700 -1.2057
  135OSM    H7T14555   1.367   5.220   2.638  1.9018  5.2592  1.7063
  135OSM    C8S14556   1.573   5.290   2.692  0.3813  1.1580 -0.1341
  135OSM    H8S14557   1.535   5.389   2.724  0.7667  0.9859  0.8886
  135OSM    H8T14558   1.649   5.305   2.612 -0.1888  0.3976 -0.8288
  135OSM    C9S14559   1.629   5.211   2.814 -0.1402 -0.4363 -0.2353
  135OSM    H9S14560   1.733   5.238   2.844 -0.4949 -0.5029  1.0842
  135OSM    H9T14561   1.658   5.110   2.776 -2.7210 -0.3795 -2.4570
  135OSM   C10S14562   1.542   5.217   2.937  0.0775 -0.7422 -0.3392
  135OSM   H10S14563   1.439   5.206   2.897 -0.4420  3.3344 -0.3934
  135OSM   H10T14564   1.535   5.322   2.974  0.0331 -1.3679  1.4889
  135OSM   C11S14565   1.575   5.121   3.055  0.5485  0.4038  0.2352
  135OSM   H11S14566   1.686   5.121   3.059  0.6665 -1.8235 -1.4813
  135OSM   H11T14567   1.536   5.020   3.029  0.9145  0.1979  0.4869
  135OSM   C12S14568   1.522   5.172   3.193  0.1792  0.5559  0.2334
  135OSM   H12S14569   1.416   5.205   3.189  0.2938  0.9959  0.7286
  135OSM   H12T14570   1.584   5.261   3.219  0.5497  0.3967 -0.1201
  135OSM   C13S14571   1.537   5.081   3.313 -0.0098 -0.0944 -0.5214
  135OSM   H13S14572   1.463   4.999   3.304  0.6880 -0.7688 -0.2109
  135OSM   H13T14573   1.507   5.141   3.402  1.6207  2.7771 -1.8404
  135OSM   C14S14574   1.683   5.018   3.328 -0.0062  0.2858  0.6107
  135OSM   H14S14575   1.748   5.094   3.281  2.9330 -1.2490  2.1025
  135OSM   H14T14576   1.680   4.927   3.265  2.9557  1.1469 -0.8461
  135OSM   C15S14577   1.710   4.996   3.477 -0.1339 -0.1141  0.1475
  135OSM   H15S14578   1.631   4.942   3.533 -0.4032 -0.4382 -0.5386
  135OSM   H15T14579   1.719   5.095   3.526 -0.4584 -0.7178  1.4707
  135OSM   C16S14580   1.847   4.922   3.498 -0.5407 -0.3163 -0.2983
  135OSM   H16S14581   1.885   4.956   3.597  0.9590 -0.7789 -0.6987
  135OSM   H16T14582   1.924   4.952   3.424 -1.1880 -0.2871 -0.9609
  135OSM   C17S14583   1.824   4.772   3.506 -1.0278 -0.2753 -0.6877
  135OSM   H17S14584   1.918   4.726   3.469  1.0983  0.7604  3.1324
  135OSM   H17T14585   1.745   4.739   3.435 -1.5111 -0.9878  0.1772
  135OSM   C18S14586   1.801   4.725   3.651 -0.8161  0.2680  0.1777
  135OSM   H18S14587   1.695   4.726   3.683 -0.0375  0.5332  2.8423
  135OSM   H18T14588   1.857   4.797   3.714  0.4012 -1.5533  1.2364
  135OSM   H18U14589   1.843   4.623   3.666 -0.6191 -0.0200 -2.1135
  135OSM    C1F14590   1.194   4.723   2.430  0.1523  0.2613  0.5787
  135OSM     OF14591   1.244   4.634   2.358 -0.1989 -0.2414 -0.1462
  135OSM    C2F14592   1.130   4.709   2.564  0.6580  1.2715  0.0231
  135OSM    H2F14593   1.068   4.617   2.569  1.7358  0.6096  1.6316
  135OSM    H2G14594   1.078   4.802   2.597 -2.6880 -0.6906  0.4844
  135OSM    C3F14595   1.240   4.692   2.670 -0.1034  0.3491 -1.1727
  135OSM    H3F14596   1.326   4.759   2.649  0.9029 -1.4666 -3.0934
  135OSM    H3G14597   1.284   4.589   2.671  1.7422  1.1296 -0.3652
  135OSM    C4F14598   1.185   4.716   2.815 -0.0479  0.5212  0.4582
  135OSM    H4F14599   1.120   4.632   2.848 -1.3571  0.9294 -1.0422
  135OSM    H4G14600   1.130   4.812   2.808 -0.5466  0.0626 -2.6690
  135OSM    C5F14601   1.315   4.741   2.900  0.3438 -0.4137  0.5781
  135OSM    H5F14602   1.370   4.831   2.867  2.3384 -1.8200 -0.0333
  135OSM    H5G14603   1.371   4.647   2.880  2.0516  0.2672  2.0372
  135OSM    C6F14604   1.289   4.747   3.050  0.3347 -0.0827  0.1379
  135OSM    H6F14605   1.210   4.670   3.069  2.1418 -2.0519 -0.1515
  135OSM    H6G14606   1.247   4.847   3.075  0.6243  0.2061 -0.5274
  135OSM    C7F14607   1.411   4.709   3.140 -0.9278 -0.0079 -1.1380
  135OSM    H7F14608   1.493   4.778   3.113  1.1769 -1.4792  1.3001
  135OSM    H7G14609   1.435   4.606   3.108  1.9930  0.5209 -0.7179
  135OSM    C8F14610   1.370   4.716   3.291  0.2702 -0.4054  0.1791
  135OSM    H8F14611   1.279   4.656   3.310  1.1863 -1.7501  0.3470
  135OSM    H8G14612   1.349   4.824   3.308  1.3846 -0.1582 -0.0072
  135OSM    C9F14613   1.486   4.681   3.380 -0.3038  0.3090 -0.1136
  135OSM    H9F14614   1.582   4.709   3.333 -0.6484 -1.0485 -1.6875
  135OSM   C10F14615   1.482   4.614   3.496 -0.6110  0.4845 -0.7284
  135OSM   H10F14616   1.578   4.575   3.535  0.4606  3.0419 -0.6958
  135OSM   C11F14617   1.355   4.593   3.575 -0.0181  0.1035  0.9126
  135OSM   H11F14618   1.328   4.486   3.559  2.2802 -0.7141  2.1934
  135OSM   H11G14619   1.267   4.647   3.534  1.0567 -0.2799 -2.0689
  135OSM   C12F14620   1.361   4.642   3.721 -0.4625  0.1704  0.1864
  135OSM   H12F14621   1.256   4.632   3.753  0.5394 -2.0099  2.9478
  135OSM   H12G14622   1.381   4.751   3.728  2.9440 -0.1840 -2.4916
  135OSM   C13F14623   1.445   4.553   3.812 -0.1222 -0.4712  0.6789
  135OSM   H13F14624   1.545   4.546   3.764 -1.3660 -2.3202 -1.7272
  135OSM   H13G14625   1.416   4.447   3.798 -0.9270  0.1161 -2.3746
  135OSM   C14F14626   1.447   4.598   3.961 -0.1702  0.0979  0.5571
  135OSM   H14F14627   1.355   4.654   3.986  1.1164  1.4761  2.4035
  135OSM   H14G14628   1.530   4.670   3.981 -0.5359 -0.0567  2.7324
  135OSM   C15F14629   1.443   4.478   4.056 -0.0437  0.2447  0.2846
  135OSM   H15F14630   1.538   4.423   4.043 -1.4639 -2.1389 -0.2839
  135OSM   H15G14631   1.363   4.406   4.031  0.1324  0.4182 -0.8074
  135OSM   C16F14632   1.429   4.509   4.210 -0.4712 -0.5927 -0.0937
  135OSM   H16F14633   1.328   4.556   4.213 -0.0841  0.2039  0.4177
  135OSM   H16G14634   1.508   4.578   4.245  0.6115 -1.5044 -0.6791
  135OSM   C17F14635   1.436   4.377   4.286 -0.7842 -0.1040  0.6090
  135OSM   H17F14636   1.532   4.332   4.254 -0.1672  1.6079 -0.0055
  135OSM   H17G14637   1.358   4.303   4.259 -0.9037  0.5461 -0.8928
  135OSM   C18F14638   1.436   4.399   4.439 -0.4850  0.3079 -0.0721
  135OSM   H18F14639   1.526   4.460   4.457  1.0304 -2.2283  1.2857
  135OSM   H18G14640   1.452   4.302   4.491  0.2534  1.0188  1.0367
  135OSM   H18H14641   1.348   4.447   4.489 -0.4546 -0.7922  1.0704
  136OSM      N14642   3.421   1.315   1.520 -0.0410  0.6814 -0.9050
  136OSM    C1514643   3.319   1.418   1.537 -0.6621 -0.0954  0.2187
  136OSM   H15A14644   3.220   1.379   1.552 -1.4471  0.1915 -3.7537
  136OSM   H15B14645   3.324   1.483   1.451 -2.2434 -0.7593 -0.3855
  136OSM   H15C14646   3.339   1.487   1.618 -1.6826  0.9532 -0.4203
  136OSM    C1414647   3.363   1.214   1.431  0.2434 -0.0733 -0.2274
  136OSM   H14A14648   3.429   1.137   1.396 -1.1504 -1.1471 -0.5492
  136OSM   H14B14649   3.343   1.266   1.338 -0.0394  1.4063  0.6400
  136OSM   H14C14650   3.266   1.176   1.461  0.8902 -2.1103 -0.6662
  136OSM    C1314651   3.543   1.381   1.463  0.3589  0.1300  0.2750
  136OSM   H13A14652   3.597   1.317   1.395 -1.4489 -1.1678  0.0528
  136OSM   H13B14653   3.599   1.420   1.548 -1.8721  2.1296  0.8768
  136OSM   H13C14654   3.504   1.468   1.413  0.6300  0.8558  1.3041
  136OSM    C1214655   3.456   1.254   1.653 -0.7828 -0.3884  0.2746
  136OSM   H12A14656   3.541   1.193   1.627 -0.8414 -0.4484  0.2233
  136OSM   H12B14657   3.382   1.187   1.695 -1.2767  0.6542  1.1128
  136OSM    C1114658   3.498   1.350   1.768 -0.5578  0.1874 -0.2977
  136OSM   H11A14659   3.501   1.286   1.858 -2.5702  0.6765  0.1398
  136OSM   H11B14660   3.422   1.429   1.790 -0.0052  0.5429  0.3642
  136OSM      P14661   3.672   1.530   1.850  0.3286 -0.0353 -0.1436
  136OSM    O1314662   3.805   1.588   1.807 -0.2965  0.3375  0.4153
  136OSM    O1414663   3.556   1.614   1.868  0.1782 -0.0445 -0.5900
  136OSM    O1114664   3.682   1.446   1.976 -0.6542 -0.1049 -0.0670
  136OSM    O1214665   3.622   1.414   1.746  0.1404 -0.4766  0.2830
  136OSM    C1S14666   3.767   1.338   1.985 -0.2381 -0.4179  0.2277
  136OSM    H1S14667   3.868   1.381   1.969  1.6372 -2.6908  5.0718
  136OSM    H1T14668   3.740   1.261   1.908 -3.1390  3.7422 -3.1603
  136OSM     NF14669   3.885   1.206   2.155 -0.4502  0.4911  0.1246
  136OSM    HNF14670   3.873   1.107   2.158  3.1193 -0.0466 -0.6650
  136OSM    C2S14671   3.761   1.282   2.127  0.4557 -0.2101  0.2350
  136OSM    H2S14672   3.755   1.365   2.200 -2.2339  1.3527 -1.6591
  136OSM    C3S14673   3.623   1.203   2.142 -0.2057  0.1504  0.5744
  136OSM    H3S14674   3.612   1.120   2.069 -1.4067 -0.4289  1.3959
  136OSM     O314675   3.510   1.290   2.121  0.4394 -0.7492  1.0529
  136OSM    HO314676   3.549   1.367   2.079 -1.7490 -0.5677 -0.7563
  136OSM    C4S14677   3.626   1.149   2.282 -0.7119 -0.2348  0.8845
  136OSM    H4S14678   3.648   1.042   2.284  1.5958  0.1569 -0.7094
  136OSM    C5S14679   3.588   1.214   2.392  0.5536 -0.2469 -0.8485
  136OSM    H5S14680   3.541   1.313   2.386  0.4266 -0.0039  2.7504
  136OSM    C6S14681   3.582   1.148   2.525  0.2052 -0.1701 -0.5318
  136OSM    H6S14682   3.667   1.179   2.589 -0.1355 -1.5101  0.5831
  136OSM    H6T14683   3.588   1.037   2.520  0.7764 -0.2529  1.4729
  136OSM    C7S14684   3.454   1.171   2.595  0.7043  0.0525 -0.3264
  136OSM    H7S14685   3.368   1.151   2.526  1.0098  2.9690 -1.6370
  136OSM    H7T14686   3.460   1.273   2.638  0.5405 -0.7446  1.6384
  136OSM    C8S14687   3.430   1.080   2.721 -0.2692 -0.3484  0.0757
  136OSM    H8S14688   3.438   0.974   2.689  2.0369 -0.6639  1.6162
  136OSM    H8T14689   3.328   1.096   2.761 -0.8862 -1.3968 -1.0554
  136OSM    C9S14690   3.523   1.116   2.837 -0.3189  0.7042 -0.2702
  136OSM    H9S14691   3.624   1.112   2.792 -0.7353 -0.9674 -1.1087
  136OSM    H9T14692   3.526   1.033   2.911 -1.2164  0.2483 -0.7364
  136OSM   C10S14693   3.495   1.251   2.910  0.0950 -0.1357  0.0080
  136OSM   H10S14694   3.410   1.255   2.982 -0.8669  2.2250 -1.1853
  136OSM   H10T14695   3.478   1.327   2.830  0.4627 -0.3180 -0.2463
  136OSM   C11S14696   3.629   1.294   2.983 -0.1282 -0.1557  0.1762
  136OSM   H11S14697   3.610   1.400   3.008 -1.3063 -0.5399  0.9643
  136OSM   H11T14698   3.700   1.283   2.898 -2.3876  1.8388 -2.0431
  136OSM   C12S14699   3.672   1.218   3.112  0.1865  0.1376 -0.0046
  136OSM   H12S14700   3.653   1.110   3.093  0.3139  0.0499  0.3687
  136OSM   H12T14701   3.614   1.256   3.199  1.1915  1.2350  0.2070
  136OSM   C13S14702   3.825   1.228   3.134 -0.0717 -0.7622 -0.3746
  136OSM   H13S14703   3.843   1.338   3.130  2.2713 -1.0344  1.3154
  136OSM   H13T14704   3.875   1.188   3.043 -0.7416  0.6676 -1.3869
  136OSM   C14S14705   3.883   1.166   3.260 -0.6385  0.1547  0.1678
  136OSM   H14S14706   3.981   1.218   3.274 -1.4147  1.4874  0.7429
  136OSM   H14T14707   3.902   1.058   3.243 -1.2015 -0.2252  1.9369
  136OSM   C15S14708   3.788   1.185   3.386 -0.4522 -0.0259 -0.3472
  136OSM   H15S14709   3.706   1.113   3.369 -0.8898 -0.1398  2.0324
  136OSM   H15T14710   3.743   1.285   3.405 -0.9408 -0.5518  1.3411
  136OSM   C16S14711   3.869   1.174   3.517  0.4286  0.2401  0.1976
  136OSM   H16S14712   3.924   1.271   3.524 -0.9406  1.0569 -0.2033
  136OSM   H16T14713   3.937   1.086   3.513  0.7590  0.5357 -1.0799
  136OSM   C17S14714   3.778   1.148   3.635 -0.2792 -0.9445 -0.0644
  136OSM   H17S14715   3.712   1.064   3.603 -1.0213  0.3472 -2.0537
  136OSM   H17T14716   3.720   1.235   3.674 -0.9287 -1.2828 -0.2616
  136OSM   C18S14717   3.862   1.098   3.758  0.4378  0.5345 -0.1294
  136OSM   H18S14718   3.930   1.176   3.798  1.2864  0.9834 -2.3886
  136OSM   H18T14719   3.922   1.010   3.723  0.6966  0.7775 -0.2981
  136OSM   H18U14720   3.800   1.059   3.841  0.6605 -0.2431 -0.3142
  136OSM    C1F14721   4.006   1.265   2.167 -0.2084 -0.0915 -0.2132
  136OSM     OF14722   4.017   1.386   2.147  0.3227 -0.4576 -0.1893
  136OSM    C2F14723   4.130   1.182   2.197  0.6154  0.7084  0.2700
  136OSM    H2F14724   4.207   1.247   2.244  0.6789  2.1102 -1.6807
  136OSM    H2G14725   4.157   1.139   2.098 -2.2295  2.2082 -1.2186
  136OSM    C3F14726   4.093   1.063   2.293  0.0287 -0.4140 -0.1000
  136OSM    H3F14727   4.186   1.003   2.304 -0.0490 -0.8855 -1.9093
  136OSM    H3G14728   4.012   0.999   2.250  0.2489  0.0632 -1.2480
  136OSM    C4F14729   4.029   1.098   2.428 -0.2637 -0.8518  0.2545
  136OSM    H4F14730   3.928   1.146   2.426  0.2022  0.1219 -1.6731
  136OSM    H4G14731   4.100   1.170   2.474 -0.7861  0.6139 -1.1843
  136OSM    C5F14732   4.029   0.970   2.508 -0.5719 -0.4823  0.6486
  136OSM    H5F14733   4.134   0.942   2.527  0.2525  2.0985  0.1173
  136OSM    H5G14734   3.992   0.875   2.465 -0.7426 -1.2701  2.4883
  136OSM    C6F14735   3.944   0.977   2.635 -0.5406 -0.4908  0.0567
  136OSM    H6F14736   3.837   1.000   2.617  0.4738  3.1161 -1.7172
  136OSM    H6G14737   3.976   1.064   2.695  3.0015  0.1024 -2.5436
  136OSM    C7F14738   3.962   0.844   2.705  0.7573  0.1776 -0.2767
  136OSM    H7F14739   4.068   0.813   2.712  0.9140 -0.2614 -3.8092
  136OSM    H7G14740   3.907   0.772   2.641 -0.6411 -0.3125  1.4434
  136OSM    C8F14741   3.890   0.843   2.843 -0.3981  0.0171 -0.0388
  136OSM    H8F14742   3.790   0.889   2.830 -0.0381  0.7351 -0.2962
  136OSM    H8G14743   3.943   0.920   2.903 -0.6654  0.5001 -0.4251
  136OSM    C9F14744   3.898   0.724   2.944 -0.1235 -0.0218  0.4641
  136OSM    H9F14745   3.991   0.666   2.946 -0.5192 -0.6697  4.8279
  136OSM   C10F14746   3.795   0.676   3.021  0.3621 -0.1868 -0.3791
  136OSM   H10F14747   3.828   0.602   3.095 -2.5915 -1.5532 -0.3310
  136OSM   C11F14748   3.647   0.714   3.043 -0.1695  0.4217 -0.4495
  136OSM   H11F14749   3.597   0.633   2.986 -1.8358  1.0223  0.1306
  136OSM   H11G14750   3.635   0.812   2.992  1.4526  0.8269 -0.1030
  136OSM   C12F14751   3.614   0.724   3.190  0.2707 -0.2475 -0.6638
  136OSM   H12F14752   3.632   0.626   3.239 -1.5260  0.4027  1.3600
  136OSM   H12G14753   3.508   0.739   3.221  0.4790 -0.1267  0.0069
  136OSM   C13F14754   3.701   0.837   3.260 -0.0311 -0.5402  0.1443
  136OSM   H13F14755   3.655   0.934   3.231 -1.9147 -0.8449  1.9716
  136OSM   H13G14756   3.808   0.829   3.235  0.0578  0.7869  0.0466
  136OSM   C14F14757   3.690   0.816   3.406 -0.2934  0.5467 -0.0258
  136OSM   H14F14758   3.588   0.778   3.430 -0.0063 -1.1805 -1.4581
  136OSM   H14G14759   3.698   0.900   3.478  0.2420 -0.2854  0.9057
  136OSM   C15F14760   3.790   0.719   3.471 -0.2528 -0.7757 -0.2106
  136OSM   H15F14761   3.891   0.761   3.451 -0.8878  0.6954 -0.3786
  136OSM   H15G14762   3.778   0.620   3.421 -0.9640 -1.0025  0.3987
  136OSM   C16F14763   3.771   0.696   3.623 -0.4211 -0.7206  0.4283
  136OSM   H16F14764   3.664   0.674   3.640 -0.4402 -0.3731  0.7700
  136OSM   H16G14765   3.800   0.790   3.676 -0.7183 -1.4098  1.8339
  136OSM   C17F14766   3.842   0.568   3.666  0.8569  0.2044  0.4053
  136OSM   H17F14767   3.953   0.569   3.667  0.8711 -1.9174  2.6565
  136OSM   H17G14768   3.801   0.490   3.599 -1.3215  0.4523  1.4041
  136OSM   C18F14769   3.806   0.523   3.809  0.1223  1.0525  0.0543
  136OSM   H18F14770   3.850   0.424   3.833 -0.5494  0.5965 -0.5585
  136OSM   H18G14771   3.696   0.512   3.824 -0.4352 -0.2137 -4.2693
  136OSM   H18H14772   3.842   0.602   3.877  1.6185 -0.6715  1.3045
  137OSM      N14773   0.615   3.670   1.867 -0.2963  0.1401  0.2795
  137OSM    C1514774   0.683   3.709   1.740  0.1656 -0.4373 -0.6339
  137OSM   H15A14775   0.686   3.817   1.736 -0.5932 -0.3576  0.6437
  137OSM   H15B14776   0.625   3.682   1.654 -2.1344 -1.3458  1.1376
  137OSM   H15C14777   0.782   3.667   1.745  0.5209  0.5954  2.0462
  137OSM    C1414778   0.589   3.522   1.871  0.4287  0.4725 -0.3087
  137OSM   H14A14779   0.682   3.467   1.877  0.8495  1.3137  0.9964
  137OSM   H14B14780   0.533   3.496   1.782 -0.9606  2.7498 -0.1345
  137OSM   H14C14781   0.532   3.492   1.957 -0.4761 -1.2758 -1.4747
  137OSM    C1314782   0.698   3.694   1.985 -0.2477 -0.1410 -0.1875
  137OSM   H13A14783   0.720   3.800   1.992  2.9764 -0.7972  0.5517
  137OSM   H13B14784   0.790   3.639   1.973 -0.9206 -1.0435 -1.2784
  137OSM   H13C14785   0.645   3.684   2.078  0.4967  1.8061  0.4757
  137OSM    C1214786   0.482   3.741   1.889 -0.1572 -0.4801 -0.1090
  137OSM   H12A14787   0.445   3.723   1.989 -1.8545 -0.1875 -0.6643
  137OSM   H12B14788   0.410   3.692   1.825  1.1851 -0.1153 -1.9457
  137OSM    C1114789   0.488   3.894   1.869 -0.6872 -0.1351  0.7864
  137OSM   H11A14790   0.382   3.928   1.879 -1.4519 -1.5466 -1.8144
  137OSM   H11B14791   0.519   3.912   1.764 -2.1320 -3.1292 -0.2231
  137OSM      P14792   0.593   4.112   1.949  0.0374 -0.1300  0.1239
  137OSM    O1314793   0.661   4.138   1.823 -0.4077  0.2249  0.0433
  137OSM    O1414794   0.459   4.180   1.981 -0.0994 -0.0944 -0.3887
  137OSM    O1114795   0.689   4.141   2.067  0.4900 -0.0377  0.3034
  137OSM    O1214796   0.573   3.955   1.968  0.3676  0.1010 -0.0030
  137OSM    C1S14797   0.781   4.045   2.112 -0.2629  0.4700 -0.2956
  137OSM    H1S14798   0.856   4.020   2.035 -0.7871 -0.5283 -0.4864
  137OSM    H1T14799   0.725   3.954   2.143 -1.8287  1.0838 -1.2231
  137OSM     NF14800   0.964   3.980   2.261  0.0937  0.4262 -0.1274
  137OSM    HNF14801   0.955   3.916   2.337  5.2972 -1.7959 -1.1993
  137OSM    C2S14802   0.871   4.091   2.232  0.9661 -0.4547  0.2155
  137OSM    H2S14803   0.918   4.185   2.198 -0.5117  0.7192  1.3242
  137OSM    C3S14804   0.778   4.127   2.351  0.0533  0.8841 -0.1685
  137OSM    H3S14805   0.728   4.033   2.384 -0.1747  1.1307  0.1955
  137OSM     O314806   0.680   4.229   2.308 -0.0748 -0.0528  0.0417
  137OSM    HO314807   0.680   4.213   2.213 -0.5740  1.3951 -0.2121
  137OSM    C4S14808   0.862   4.177   2.467 -0.4032  0.0724 -0.1714
  137OSM    H4S14809   0.922   4.266   2.442  0.5532 -0.6657 -0.5159
  137OSM    C5S14810   0.884   4.125   2.582  0.5505 -0.2741 -0.4537
  137OSM    H5S14811   0.830   4.034   2.611 -1.6569  0.2580 -2.7987
  137OSM    C6S14812   0.988   4.179   2.678 -0.5909 -0.2182 -0.3880
  137OSM    H6S14813   1.047   4.264   2.638 -0.2703  0.6568  1.8841
  137OSM    H6T14814   1.072   4.109   2.698 -0.1087  0.4875  0.0642
  137OSM    C7S14815   0.927   4.222   2.811 -0.7266  0.1067 -0.4514
  137OSM    H7S14816   0.893   4.124   2.853  1.9898 -1.4217 -1.6769
  137OSM    H7T14817   0.833   4.281   2.799 -0.6386 -0.1970 -2.8470
  137OSM    C8S14818   1.029   4.296   2.896  0.6681  0.1379  0.1383
  137OSM    H8S14819   1.018   4.402   2.864  3.3021  0.5229  0.3929
  137OSM    H8T14820   1.133   4.264   2.873  1.1038  2.0376 -0.6835
  137OSM    C9S14821   1.001   4.274   3.042  0.4475  0.8713  0.5539
  137OSM    H9S14822   1.065   4.194   3.087 -1.7423 -2.0712 -1.3489
  137OSM    H9T14823   0.898   4.240   3.065  0.1887  0.2973 -1.3529
  137OSM   C10S14824   1.026   4.398   3.133 -0.1553 -0.3049 -0.0477
  137OSM   H10S14825   0.990   4.493   3.089  1.9199 -0.7411 -2.7801
  137OSM   H10T14826   1.136   4.402   3.125 -0.2043 -3.0304 -3.0511
  137OSM   C11S14827   0.979   4.386   3.280 -0.0750 -0.7105  0.4110
  137OSM   H11S14828   1.050   4.310   3.318  0.5794  1.1138  2.9258
  137OSM   H11T14829   0.873   4.355   3.270  0.1788 -1.0757 -1.5471
  137OSM   C12S14830   0.996   4.526   3.347  0.0536  0.1905 -0.5740
  137OSM   H12S14831   0.952   4.605   3.283 -1.7260 -2.0634 -2.2149
  137OSM   H12T14832   1.106   4.539   3.360  0.3795 -2.1561 -0.8094
  137OSM   C13S14833   0.936   4.526   3.484 -0.2019  0.4773  0.3942
  137OSM   H13S14834   0.826   4.513   3.484 -0.1648  0.0343  1.6272
  137OSM   H13T14835   0.952   4.626   3.530 -0.9653  0.8187 -0.0836
  137OSM   C14S14836   0.993   4.414   3.576 -0.3340 -0.1614  0.0823
  137OSM   H14S14837   1.102   4.437   3.568 -0.3562 -0.1876 -0.3072
  137OSM   H14T14838   0.977   4.312   3.534  0.9690  0.2360 -1.4276
  137OSM   C15S14839   0.938   4.421   3.715  0.2539 -0.0488  0.9205
  137OSM   H15S14840   0.832   4.389   3.712  0.4731 -0.7256 -4.1191
  137OSM   H15T14841   0.948   4.522   3.760 -0.6232  0.5990 -0.3222
  137OSM   C16S14842   1.004   4.330   3.819  0.1577 -0.1196 -0.3799
  137OSM   H16S14843   0.965   4.226   3.818 -0.7144  0.1733  1.7280
  137OSM   H16T14844   0.968   4.366   3.918  0.1259  0.7851 -0.7099
  137OSM   C17S14845   1.154   4.310   3.824 -0.2471  0.0795 -0.1636
  137OSM   H17S14846   1.202   4.410   3.827 -1.5076  0.6700  1.2721
  137OSM   H17T14847   1.191   4.267   3.729  2.6512  0.6737  0.6611
  137OSM   C18S14848   1.195   4.220   3.937 -0.4263  0.4373  0.2332
  137OSM   H18S14849   1.304   4.201   3.929 -0.7736 -1.0327 -1.1071
  137OSM   H18T14850   1.138   4.126   3.924  1.9351 -0.9465 -0.2982
  137OSM   H18U14851   1.167   4.271   4.032 -0.2306  0.3920  0.3157
  137OSM    C1F14852   1.083   3.961   2.194  0.4341 -0.2770 -0.3347
  137OSM     OF14853   1.107   4.033   2.095  0.5699 -0.3330  0.2343
  137OSM    C2F14854   1.179   3.859   2.240 -0.9217  0.0371 -0.2241
  137OSM    H2F14855   1.229   3.826   2.147  0.7030  0.7550  0.3894
  137OSM    H2G14856   1.127   3.770   2.280 -1.8535  0.2295 -0.9764
  137OSM    C3F14857   1.288   3.922   2.328 -0.1207 -0.0328  0.7671
  137OSM    H3F14858   1.305   4.029   2.302 -2.4277  0.4792  1.2897
  137OSM    H3G14859   1.381   3.862   2.319 -1.0135 -1.2789 -0.3512
  137OSM    C4F14860   1.255   3.933   2.476 -0.0087 -0.1681 -0.0969
  137OSM    H4F14861   1.165   3.994   2.496  0.8884  0.9189  0.6995
  137OSM    H4G14862   1.339   3.984   2.527  0.9314 -0.9008 -0.8780
  137OSM    C5F14863   1.244   3.796   2.549  0.0034 -0.4411 -0.4508
  137OSM    H5F14864   1.339   3.738   2.543 -0.1353 -0.7585  0.3925
  137OSM    H5G14865   1.158   3.745   2.500 -0.6256  0.9817 -0.8534
  137OSM    C6F14866   1.200   3.814   2.690 -0.0265 -0.0638 -0.9202
  137OSM    H6F14867   1.100   3.858   2.709 -0.7569 -2.2796  0.5488
  137OSM    H6G14868   1.265   3.883   2.749 -0.1325  0.1745 -1.0793
  137OSM    C7F14869   1.200   3.678   2.767 -0.3836  0.3135  0.2892
  137OSM    H7F14870   1.289   3.623   2.729 -0.2101  0.5898  0.2950
  137OSM    H7G14871   1.117   3.611   2.738  0.9555 -0.1551 -2.7214
  137OSM    C8F14872   1.213   3.687   2.915 -0.0598 -0.0775 -0.7141
  137OSM    H8F14873   1.137   3.757   2.955 -3.2285 -3.3820 -0.6358
  137OSM    H8G14874   1.314   3.723   2.946 -0.3882  0.2426 -0.0021
  137OSM    C9F14875   1.208   3.545   2.967 -0.2009  0.4309 -0.8066
  137OSM    H9F14876   1.108   3.502   2.950 -0.5279  1.3032 -1.1143
  137OSM   C10F14877   1.299   3.472   3.029  0.9844 -0.3069  0.5050
  137OSM   H10F14878   1.271   3.374   3.070  1.0589 -0.5477 -0.0102
  137OSM   C11F14879   1.440   3.516   3.069  0.5090  0.5369 -1.1772
  137OSM   H11F14880   1.463   3.619   3.036  2.3767  1.0750  1.6562
  137OSM   H11G14881   1.520   3.446   3.036  0.5970  0.2420 -0.3582
  137OSM   C12F14882   1.469   3.528   3.224  0.2363  0.6468  0.0920
  137OSM   H12F14883   1.437   3.628   3.262 -2.0727  0.3306 -0.9403
  137OSM   H12G14884   1.579   3.524   3.239  0.3392  0.7088 -0.6615
  137OSM   C13F14885   1.393   3.431   3.311 -0.2526 -0.2828 -0.1945
  137OSM   H13F14886   1.428   3.327   3.290  0.8214  0.3660 -1.6747
  137OSM   H13G14887   1.284   3.433   3.291 -0.0887 -0.6457 -1.1839
  137OSM   C14F14888   1.416   3.465   3.457 -0.2817  0.1841 -0.0816
  137OSM   H14F14889   1.372   3.566   3.468 -0.3595  0.0567  0.8061
  137OSM   H14G14890   1.522   3.473   3.487 -0.2543  0.4901 -0.2507
  137OSM   C15F14891   1.343   3.378   3.556 -0.6137  0.1082  0.9964
  137OSM   H15F14892   1.355   3.271   3.530  0.7905  0.3430  0.6077
  137OSM   H15G14893   1.234   3.390   3.539 -0.1053  2.8301 -0.6537
  137OSM   C16F14894   1.391   3.392   3.705 -0.6770  0.5191 -0.3679
  137OSM   H16F14895   1.493   3.347   3.712 -0.4014  1.3625  1.2909
  137OSM   H16G14896   1.322   3.330   3.766  0.7439  0.6851  1.4691
  137OSM   C17F14897   1.395   3.533   3.763  0.1190  0.5244  0.5839
  137OSM   H17F14898   1.300   3.579   3.729 -0.9521 -2.2843 -0.4203
  137OSM   H17G14899   1.482   3.588   3.721  0.8933 -0.5292  0.7599
  137OSM   C18F14900   1.401   3.532   3.914  0.1345  0.6387  0.5383
  137OSM   H18F14901   1.391   3.634   3.958  1.4899  1.3753 -0.8162
  137OSM   H18G14902   1.500   3.490   3.945  0.1994  2.3120  2.7692
  137OSM   H18H14903   1.321   3.474   3.964 -0.0010  0.2492 -0.1330
  138OSM      N14904   6.607   1.512   1.806  0.0027  0.1078 -0.5385
  138OSM    C1514905   6.590   1.469   1.944  1.5010 -0.2011 -0.7625
  138OSM   H15A14906   6.576   1.362   1.953 -0.4749  0.0995 -0.1209
  138OSM   H15B14907   6.494   1.502   1.980  1.1017  0.4868 -2.4096
  138OSM   H15C14908   6.665   1.511   2.010 -0.5608  3.2350 -0.5037
  138OSM    C1414909   6.591   1.664   1.784 -0.7424  0.1278  0.4013
  138OSM   H14A14910   6.604   1.689   1.680  1.2700  0.0527  0.6058
  138OSM   H14B14911   6.665   1.719   1.840  0.5936 -1.4502  0.2458
  138OSM   H14C14912   6.492   1.693   1.815 -0.1371  2.4811  0.1940
  138OSM    C1314913   6.754   1.475   1.766 -0.0890  0.0839  0.4645
  138OSM   H13A14914   6.768   1.368   1.772 -0.4914  0.0674  1.1736
  138OSM   H13B14915   6.825   1.532   1.824  1.7851 -0.7966 -0.8856
  138OSM   H13C14916   6.771   1.511   1.665 -0.1344  1.6381  0.9974
  138OSM    C1214917   6.512   1.441   1.720 -0.4392 -0.2386 -0.0195
  138OSM   H12A14918   6.541   1.337   1.719 -0.3498 -0.2221  0.7951
  138OSM   H12B14919   6.528   1.477   1.619  2.7474  2.5876  1.3982
  138OSM    C1114920   6.359   1.445   1.748  0.3093 -0.5617 -0.1679
  138OSM   H11A14921   6.368   1.419   1.855  1.0134 -0.6500 -0.2452
  138OSM   H11B14922   6.311   1.358   1.697 -0.6480 -0.3521  0.3753
  138OSM      P14923   6.149   1.589   1.779  0.2269 -0.1944 -0.0901
  138OSM    O1314924   6.066   1.643   1.670  0.5200 -0.3416 -0.0725
  138OSM    O1414925   6.115   1.464   1.849 -0.1466  0.0094  0.5680
  138OSM    O1114926   6.151   1.708   1.883  0.3505  0.0881 -0.1049
  138OSM    O1214927   6.294   1.571   1.722 -0.3916  0.0102  0.2974
  138OSM    C1S14928   6.259   1.719   1.980 -0.1581  0.2714  0.3610
  138OSM    H1S14929   6.307   1.819   1.977  2.9689 -1.1956 -0.3267
  138OSM    H1T14930   6.342   1.648   1.957 -1.1675 -0.7556 -0.1263
  138OSM     NF14931   6.183   1.564   2.150  0.1574 -0.2907 -0.3751
  138OSM    HNF14932   6.092   1.525   2.141 -0.6372  1.0031  1.7145
  138OSM    C2S14933   6.206   1.701   2.127  0.1182 -0.0349  0.5281
  138OSM    H2S14934   6.285   1.736   2.196 -1.5749 -1.0620  3.1151
  138OSM    C3S14935   6.074   1.782   2.152  0.0937 -0.4226 -0.0452
  138OSM    H3S14936   5.990   1.755   2.084  0.1758 -0.5278 -0.1044
  138OSM     O314937   6.097   1.924   2.138  0.2394  0.4481  0.5944
  138OSM    HO314938   6.191   1.927   2.121  0.4983 -0.2518  1.8605
  138OSM    C4S14939   6.021   1.764   2.295  0.0727 -0.6721  0.0844
  138OSM    H4S14940   6.099   1.781   2.371 -0.6150  0.3906  0.5717
  138OSM    C5S14941   5.900   1.726   2.338 -0.4916 -0.2972  0.1751
  138OSM    H5S14942   5.820   1.724   2.262  0.2590  4.0386 -0.8088
  138OSM    C6S14943   5.869   1.713   2.486  0.3068  0.0044  0.0260
  138OSM    H6S14944   5.780   1.649   2.505  0.1622 -0.3499 -1.6966
  138OSM    H6T14945   5.851   1.814   2.527  1.0506  0.4771 -0.8055
  138OSM    C7S14946   5.988   1.645   2.564 -0.2900 -0.6020  0.6988
  138OSM    H7S14947   6.067   1.719   2.592 -0.7977 -0.2498  1.2175
  138OSM    H7T14948   6.040   1.563   2.511  2.0878  1.1662  0.1843
  138OSM    C8S14949   5.931   1.580   2.690 -0.6115  0.6753  0.1267
  138OSM    H8S14950   5.878   1.484   2.672 -0.5753  0.6073  0.3837
  138OSM    H8T14951   5.857   1.655   2.727 -1.4959  0.1444 -0.5474
  138OSM    C9S14952   6.034   1.543   2.794 -0.4039  0.3404 -0.0824
  138OSM    H9S14953   6.114   1.620   2.798  1.3988 -1.5370  1.1579
  138OSM    H9T14954   6.075   1.447   2.755  0.3156  0.5127  0.2414
  138OSM   C10S14955   5.976   1.514   2.935  0.0365  0.7463 -0.8688
  138OSM   H10S14956   5.919   1.600   2.977 -0.9800 -0.2685 -0.1369
  138OSM   H10T14957   6.065   1.501   3.001 -0.0639  0.3452 -0.8147
  138OSM   C11S14958   5.888   1.386   2.940 -0.1435  0.5586 -0.7706
  138OSM   H11S14959   5.952   1.296   2.934 -1.1509 -0.3423  1.5019
  138OSM   H11T14960   5.812   1.387   2.859 -0.2087 -0.5431 -0.7244
  138OSM   C12S14961   5.789   1.378   3.062 -0.2235 -0.0747  0.1488
  138OSM   H12S14962   5.700   1.441   3.042  0.9153  1.4148 -0.3163
  138OSM   H12T14963   5.837   1.429   3.148 -0.8550  2.0737 -0.7243
  138OSM   C13S14964   5.735   1.241   3.089 -0.0266  0.1803  0.1384
  138OSM   H13S14965   5.822   1.172   3.100  2.4701  3.1070 -0.3190
  138OSM   H13T14966   5.682   1.206   2.998  0.7348 -0.5660 -0.0264
  138OSM   C14S14967   5.628   1.231   3.200  0.3889  0.1681  0.0668
  138OSM   H14S14968   5.543   1.300   3.177  2.1934  3.1685  2.0603
  138OSM   H14T14969   5.669   1.268   3.296 -2.4258  0.2160  1.2945
  138OSM   C15S14970   5.563   1.091   3.214  0.5443  0.0545  0.2464
  138OSM   H15S14971   5.644   1.015   3.220 -0.8054 -1.4994 -0.8919
  138OSM   H15T14972   5.510   1.066   3.120 -1.1493 -2.5138  1.8092
  138OSM   C16S14973   5.477   1.094   3.331 -0.7375 -0.1028 -0.6853
  138OSM   H16S14974   5.397   1.171   3.323 -1.7552 -0.6334  3.1901
  138OSM   H16T14975   5.536   1.122   3.421  0.0162 -1.7702 -0.6537
  138OSM   C17S14976   5.408   0.955   3.347 -0.8961 -0.6857 -0.3111
  138OSM   H17S14977   5.495   0.891   3.375 -2.2646 -2.5487 -0.2178
  138OSM   H17T14978   5.358   0.909   3.260  0.1278 -2.8472  0.1895
  138OSM   C18S14979   5.303   0.957   3.460  0.3404 -0.5592  0.1958
  138OSM   H18S14980   5.213   1.020   3.441 -0.7803 -1.6173  1.8821
  138OSM   H18T14981   5.355   0.988   3.553 -1.3517 -1.8706  1.6302
  138OSM   H18U14982   5.271   0.854   3.488  0.9533 -1.4483 -2.2887
  138OSM    C1F14983   6.290   1.484   2.151 -0.0264 -0.4145  0.0702
  138OSM     OF14984   6.407   1.517   2.166  0.7982 -0.1492 -0.2957
  138OSM    C2F14985   6.251   1.340   2.145 -0.1847  1.1989 -0.3805
  138OSM    H2F14986   6.301   1.297   2.055  2.0192 -1.1828  1.8895
  138OSM    H2G14987   6.144   1.321   2.123  0.4488 -3.3291 -0.0196
  138OSM    C3F14988   6.292   1.248   2.266 -0.1408 -0.5581  0.5972
  138OSM    H3F14989   6.403   1.239   2.276  0.3158  3.4742  0.1578
  138OSM    H3G14990   6.263   1.144   2.240 -2.0761  0.4353 -1.3611
  138OSM    C4F14991   6.242   1.291   2.398 -0.7137  0.2506  0.5224
  138OSM    H4F14992   6.135   1.321   2.399 -0.5089  1.4260 -3.1286
  138OSM    H4G14993   6.296   1.383   2.427 -0.9129  1.3811 -2.4751
  138OSM    C5F14994   6.266   1.183   2.510 -0.3513  0.5802 -0.1675
  138OSM    H5F14995   6.366   1.135   2.501 -1.0689 -1.1896  1.0542
  138OSM    H5G14996   6.204   1.096   2.480 -0.0495 -0.1486  1.2912
  138OSM    C6F14997   6.233   1.228   2.648 -0.0291 -0.8697  0.9047
  138OSM    H6F14998   6.128   1.261   2.662  0.0545 -0.2897  0.2029
  138OSM    H6G14999   6.308   1.305   2.677  0.8734 -1.4675  0.1953
  138OSM    C7F15000   6.264   1.104   2.740  0.5970 -0.1084 -0.7610
  138OSM    H7F15001   6.364   1.065   2.714  0.4348 -0.9570 -0.1452
  138OSM    H7G15002   6.184   1.030   2.717 -1.2236  1.6708 -0.3803
  138OSM    C8F15003   6.261   1.127   2.893  0.2944 -0.9705 -0.0977
  138OSM    H8F15004   6.161   1.170   2.916  0.7172 -0.1168  0.1913
  138OSM    H8G15005   6.327   1.207   2.934  0.5728 -0.3600 -1.6977
  138OSM    C9F15006   6.292   1.000   2.970  0.0141  0.2956 -0.1644
  138OSM    H9F15007   6.380   0.941   2.938  0.2280  0.4802  0.0851
  138OSM   C10F15008   6.216   0.942   3.065  0.4071 -0.3451 -0.7740
  138OSM   H10F15009   6.252   0.850   3.113  1.8138  0.3274 -0.4988
  138OSM   C11F15010   6.088   1.005   3.130 -0.3894  0.3171  0.1636
  138OSM   H11F15011   5.992   0.982   3.081 -0.0853 -0.0873 -0.2442
  138OSM   H11G15012   6.098   1.115   3.119  2.3277  0.1175  0.1762
  138OSM   C12F15013   6.071   0.972   3.276 -0.1128  0.2251  0.1449
  138OSM   H12F15014   6.026   1.057   3.333 -0.4244  0.0849  0.1072
  138OSM   H12G15015   6.161   0.935   3.330  0.4252 -0.5364 -1.2722
  138OSM   C13F15016   5.971   0.847   3.293  0.6810 -0.2822  0.3172
  138OSM   H13F15017   6.030   0.767   3.245  0.4256 -0.7386  0.7681
  138OSM   H13G15018   5.887   0.865   3.223  1.1311  0.0331 -0.1481
  138OSM   C14F15019   5.920   0.838   3.438 -0.5545  0.1228 -0.4359
  138OSM   H14F15020   5.845   0.914   3.468 -0.0260  0.6166 -0.3724
  138OSM   H14G15021   6.006   0.850   3.507 -0.5758  0.5381 -0.4810
  138OSM   C15F15022   5.871   0.693   3.470 -0.1048  1.0570  0.0369
  138OSM   H15F15023   5.887   0.670   3.578  0.3844  2.5217  0.2901
  138OSM   H15G15024   5.942   0.623   3.422 -1.0342 -0.4789  0.8699
  138OSM   C16F15025   5.726   0.668   3.433  0.4134 -0.0816 -0.2779
  138OSM   H16F15026   5.660   0.748   3.472  0.5957 -0.1199  0.1086
  138OSM   H16G15027   5.688   0.568   3.465 -2.0050  0.0596 -2.5655
  138OSM   C17F15028   5.699   0.660   3.281 -0.3148  0.4941  0.3430
  138OSM   H17F15029   5.774   0.589   3.239  3.4010  3.6466  1.4009
  138OSM   H17G15030   5.710   0.754   3.225  2.3372 -0.4036 -0.7197
  138OSM   C18F15031   5.560   0.604   3.244 -0.3829  0.8420 -0.0497
  138OSM   H18F15032   5.552   0.506   3.295 -2.6110 -0.5120 -2.8868
  138OSM   H18G15033   5.563   0.588   3.135  0.1740 -0.0787  0.1030
  138OSM   H18H15034   5.477   0.672   3.275 -1.2706 -0.0990 -0.3497
  139OSM      N15035   7.095   3.409   2.005 -0.1548 -0.2003  0.1551
  139OSM    C1515036   6.990   3.299   2.029 -0.1573  0.1147 -0.6015
  139OSM   H15A15037   6.889   3.329   2.053 -0.0749 -2.1769  2.9941
  139OSM   H15B15038   7.026   3.239   2.111  0.1414 -0.2311 -0.9870
  139OSM   H15C15039   6.993   3.227   1.949  2.2537  1.2866 -1.6170
  139OSM    C1415040   7.216   3.364   1.924  0.2110 -0.0781  0.5849
  139OSM   H14A15041   7.269   3.284   1.972  0.8142 -0.4794 -0.7196
  139OSM   H14B15042   7.286   3.444   1.905 -1.2029  0.8743 -0.7363
  139OSM   H14C15043   7.193   3.320   1.828 -1.7659  1.2888  0.4016
  139OSM    C1315044   7.031   3.505   1.919  0.3976 -0.3098  1.1238
  139OSM   H13A15045   6.968   3.449   1.852 -0.7372  0.6394  1.3780
  139OSM   H13B15046   7.094   3.557   1.847 -1.0088 -0.0892  0.0379
  139OSM   H13C15047   6.970   3.572   1.978 -0.2318  1.3703 -1.3244
  139OSM    C1215048   7.132   3.474   2.135 -0.3144  0.8326 -1.0460
  139OSM   H12A15049   7.041   3.500   2.187 -1.0801 -1.7096 -1.0102
  139OSM   H12B15050   7.188   3.560   2.102  0.8373  0.0823 -1.0822
  139OSM    C1115051   7.214   3.402   2.239  0.8236 -0.0193 -0.4528
  139OSM   H11A15052   7.161   3.310   2.272  1.4664 -0.1049  0.3559
  139OSM   H11B15053   7.219   3.471   2.326 -1.6995 -1.4768  0.9046
  139OSM      P15054   7.461   3.464   2.177 -0.2435  0.0023  0.0017
  139OSM    O1315055   7.573   3.381   2.132 -0.4406 -0.0358  0.6989
  139OSM    O1415056   7.417   3.576   2.094 -0.2403  0.1535 -0.0767
  139OSM    O1115057   7.485   3.503   2.327  0.5594 -0.3026 -0.5918
  139OSM    O1215058   7.343   3.363   2.192 -0.7059  0.0958  0.3919
  139OSM    C1S15059   7.537   3.418   2.422 -1.1427  1.0478  0.3222
  139OSM    H1S15060   7.646   3.398   2.417 -1.2670  0.3414  0.4098
  139OSM    H1T15061   7.485   3.320   2.421  2.1622 -0.7428 -0.2664
  139OSM     NF15062   7.517   3.343   2.659  0.3922 -0.6543  0.2559
  139OSM    HNF15063   7.430   3.299   2.676  1.3349 -2.1725  1.2038
  139OSM    C2S15064   7.507   3.461   2.573 -0.8921  0.2627 -0.4278
  139OSM    H2S15065   7.587   3.531   2.603 -1.1481  0.1125  0.6234
  139OSM    C3S15066   7.375   3.544   2.578  0.7195 -0.6435  0.0923
  139OSM    H3S15067   7.297   3.486   2.525  0.3995  0.4629 -0.6615
  139OSM     O315068   7.378   3.662   2.502 -0.0207 -0.0846 -0.5086
  139OSM    HO315069   7.426   3.632   2.425  0.5284  0.1361 -0.2551
  139OSM    C4S15070   7.335   3.597   2.712  0.2970 -0.1602  0.2766
  139OSM    H4S15071   7.226   3.592   2.728 -0.1482 -1.1746 -2.7964
  139OSM    C5S15072   7.409   3.675   2.790  0.1160 -0.0511  0.0786
  139OSM    H5S15073   7.508   3.718   2.766  0.3244 -0.1009  0.8272
  139OSM    C6S15074   7.364   3.743   2.918 -0.3255  0.4838 -0.8125
  139OSM    H6S15075   7.436   3.717   2.999 -2.4221 -2.8808  0.0812
  139OSM    H6T15076   7.274   3.691   2.955  0.0638 -1.9099 -3.0441
  139OSM    C7S15077   7.355   3.898   2.904 -0.2040  0.7555  0.5414
  139OSM    H7S15078   7.308   3.935   2.998 -0.2928 -0.1579  0.8575
  139OSM    H7T15079   7.279   3.908   2.823 -0.7064  2.3876  1.1978
  139OSM    C8S15080   7.483   3.973   2.869  0.4007  0.0671 -0.0912
  139OSM    H8S15081   7.464   4.081   2.882 -3.5914 -0.6513  0.4869
  139OSM    H8T15082   7.515   3.951   2.765  0.4940  2.1348 -0.5093
  139OSM    C9S15083   7.603   3.941   2.955 -0.5221 -0.0226  0.1812
  139OSM    H9S15084   7.699   3.984   2.920  0.5974 -2.9389 -0.4605
  139OSM    H9T15085   7.628   3.833   2.956  0.3777  0.1786 -0.2055
  139OSM   C10S15086   7.587   3.980   3.106 -0.6146 -0.1271 -0.2486
  139OSM   H10S15087   7.518   3.917   3.166 -0.7458  1.6479  1.5197
  139OSM   H10T15088   7.535   4.079   3.109  0.3361  0.4384 -1.6869
  139OSM   C11S15089   7.718   3.987   3.187 -0.3014  0.4340  0.3269
  139OSM   H11S15090   7.791   4.053   3.136 -0.2346  0.5917  0.6247
  139OSM   H11T15091   7.746   3.879   3.189  1.3641  0.8552  0.3921
  139OSM   C12S15092   7.723   4.029   3.333  0.2341  0.0774  0.1579
  139OSM   H12S15093   7.647   3.970   3.387 -1.0400  1.3793 -0.1941
  139OSM   H12T15094   7.687   4.133   3.329 -1.0477 -0.3835 -0.5426
  139OSM   C13S15095   7.856   4.002   3.396 -0.9821  0.1834 -0.0394
  139OSM   H13S15096   7.930   4.045   3.324 -0.9071 -1.5690 -1.0406
  139OSM   H13T15097   7.885   3.898   3.422 -0.9360  0.1411 -0.2529
  139OSM   C14S15098   7.866   4.078   3.533  0.1761 -1.1582 -0.4013
  139OSM   H14S15099   7.828   4.179   3.510  1.4901 -1.0332 -2.1784
  139OSM   H14T15100   7.975   4.072   3.556  0.8687  0.2027 -3.1191
  139OSM   C15S15101   7.780   4.019   3.645  0.4073  1.0367  0.6394
  139OSM   H15S15102   7.776   3.909   3.636 -0.2793  1.2137 -1.5619
  139OSM   H15T15103   7.677   4.061   3.644  0.7145  1.8225  0.9766
  139OSM   C16S15104   7.836   4.067   3.781  0.5950  0.3194 -0.4213
  139OSM   H16S15105   7.826   4.178   3.779  0.4649  0.3851  2.1266
  139OSM   H16T15106   7.940   4.029   3.786 -0.0803 -1.8534 -2.0785
  139OSM   C17S15107   7.763   4.009   3.904 -0.4090  0.4523  0.6995
  139OSM   H17S15108   7.794   3.904   3.923 -0.3665  0.1533 -0.9273
  139OSM   H17T15109   7.652   4.009   3.895 -0.2824 -1.5931 -1.1030
  139OSM   C18S15110   7.812   4.094   4.024  0.4703 -0.9853  0.1589
  139OSM   H18S15111   7.779   4.036   4.112 -0.6127 -0.5061  0.0664
  139OSM   H18T15112   7.775   4.198   4.034  0.9745 -0.8026  0.1796
  139OSM   H18U15113   7.922   4.099   4.041  0.2287  0.8229  1.2721
  139OSM    C1F15114   7.628   3.279   2.679  0.5959  1.0416  0.3821
  139OSM     OF15115   7.738   3.324   2.642  0.0852  0.4089 -0.7122
  139OSM    C2F15116   7.606   3.138   2.735  0.6906  0.4642  0.0657
  139OSM    H2F15117   7.574   3.072   2.652 -1.8638  3.1485 -1.1780
  139OSM    H2G15118   7.517   3.135   2.802 -0.2407 -1.2701 -1.2177
  139OSM    C3F15119   7.726   3.077   2.802  0.0475 -0.0959 -0.3296
  139OSM    H3F15120   7.815   3.097   2.738  0.0292  0.2580 -0.2464
  139OSM    H3G15121   7.705   2.969   2.814 -1.9308  0.2614 -0.4080
  139OSM    C4F15122   7.768   3.117   2.950 -0.1546  0.4454  0.4858
  139OSM    H4F15123   7.782   3.227   2.957 -0.4793  0.6064 -1.1768
  139OSM    H4G15124   7.866   3.077   2.985 -1.0187 -1.3939  0.8938
  139OSM    C5F15125   7.653   3.081   3.042  0.1054  0.7443 -0.0916
  139OSM    H5F15126   7.629   2.974   3.052  3.0642 -0.0561 -0.9698
  139OSM    H5G15127   7.564   3.145   3.024 -0.1358  0.5428  0.3761
  139OSM    C6F15128   7.700   3.114   3.193 -0.4004  0.0632  0.0300
  139OSM    H6F15129   7.769   3.201   3.198 -0.6359  0.3776 -1.7779
  139OSM    H6G15130   7.764   3.028   3.222 -1.5240 -1.1524 -1.0524
  139OSM    C7F15131   7.581   3.136   3.292  0.0191 -0.3415  0.1130
  139OSM    H7F15132   7.495   3.082   3.248 -0.2669  0.6926 -0.6104
  139OSM    H7G15133   7.549   3.242   3.287  0.7695 -0.1722 -1.4542
  139OSM    C8F15134   7.615   3.091   3.435  0.3649 -0.1289 -0.4897
  139OSM    H8F15135   7.704   3.150   3.467 -0.8683 -0.3462  3.6704
  139OSM    H8G15136   7.637   2.983   3.432 -0.9317 -0.4193  0.2145
  139OSM    C9F15137   7.506   3.099   3.539  0.5426  0.8937 -0.3489
  139OSM    H9F15138   7.416   3.047   3.503 -0.0308  0.3780  1.7914
  139OSM   C10F15139   7.515   3.167   3.652 -0.1125  0.4477 -0.6986
  139OSM   H10F15140   7.432   3.159   3.725  0.1542  2.3004 -0.1534
  139OSM   C11F15141   7.629   3.257   3.691  0.2891  0.0839 -0.1165
  139OSM   H11F15142   7.649   3.335   3.614 -0.0839 -0.5452 -0.8618
  139OSM   H11G15143   7.725   3.206   3.710 -0.0364 -0.8764 -1.0093
  139OSM   C12F15144   7.599   3.336   3.826 -0.4317  0.3081  0.0273
  139OSM   H12F15145   7.615   3.263   3.908 -1.9698 -1.2958 -1.0625
  139OSM   H12G15146   7.496   3.378   3.818 -0.2199  0.4040 -2.6304
  139OSM   C13F15147   7.702   3.453   3.848 -0.4765 -1.0258 -0.2748
  139OSM   H13F15148   7.703   3.492   3.952  0.0372 -0.3694 -0.5184
  139OSM   H13G15149   7.674   3.528   3.770 -1.0408  0.1176  1.0088
  139OSM   C14F15150   7.851   3.410   3.833  0.1669  0.0470  0.3536
  139OSM   H14F15151   7.871   3.372   3.730 -0.4401  1.9451 -0.4835
  139OSM   H14G15152   7.880   3.336   3.911  0.4348  0.1036  0.3101
  139OSM   C15F15153   7.949   3.526   3.858 -0.0653  0.0445  0.4531
  139OSM   H15F15154   8.048   3.480   3.882  0.4293  0.2418 -1.0987
  139OSM   H15G15155   7.912   3.585   3.944  1.4883 -0.8093  1.7356
  139OSM   C16F15156   7.968   3.620   3.733 -0.6246 -0.7816  0.0480
  139OSM   H16F15157   7.863   3.633   3.699 -1.4549 -2.4644  1.8011
  139OSM   H16G15158   8.033   3.567   3.660 -0.4162 -1.6797  0.8662
  139OSM   C17F15159   8.026   3.758   3.762 -0.1032  0.2772  0.0104
  139OSM   H17F15160   7.964   3.793   3.847 -0.8076  0.2983 -0.5080
  139OSM   H17G15161   8.015   3.825   3.674  2.3890 -1.2495 -1.5253
  139OSM   C18F15162   8.168   3.756   3.809 -0.2768 -0.2402 -0.6881
  139OSM   H18F15163   8.196   3.862   3.828 -0.2176 -0.1902 -1.0508
  139OSM   H18G15164   8.236   3.710   3.734  0.1705  0.6113 -0.8073
  139OSM   H18H15165   8.182   3.702   3.905 -0.8509  0.6627 -0.0939
  140OSM      N15166   6.921   2.048   1.623  0.0770 -0.1464 -0.0684
  140OSM    C1515167   6.870   1.945   1.531 -0.5227 -0.2710 -0.1074
  140OSM   H15A15168   6.810   1.874   1.586 -0.4624 -1.5255 -1.6358
  140OSM   H15B15169   6.955   1.897   1.486 -0.0840 -1.5380  2.0601
  140OSM   H15C15170   6.798   1.989   1.463 -1.7134  0.3000  1.4799
  140OSM    C1415171   7.014   2.156   1.569  1.0419  0.0771 -0.0011
  140OSM   H14A15172   7.046   2.236   1.634  0.8904 -0.7507  1.0946
  140OSM   H14B15173   6.978   2.202   1.478  0.2900 -0.4329  0.0369
  140OSM   H14C15174   7.105   2.104   1.541  0.9925 -0.4804  0.8811
  140OSM    C1315175   6.792   2.112   1.665  0.2343  0.0636 -0.8789
  140OSM   H13A15176   6.794   2.184   1.746 -2.4059  2.0174 -2.4696
  140OSM   H13B15177   6.713   2.042   1.689 -1.3089  1.6434 -1.2442
  140OSM   H13C15178   6.755   2.182   1.591  0.5656  0.7969 -0.3555
  140OSM    C1215179   6.985   1.982   1.744  0.0483  0.0619 -0.5883
  140OSM   H12A15180   6.986   2.048   1.830  0.6337 -1.5382  0.6662
  140OSM   H12B15181   7.086   1.953   1.717  0.3516  0.0234  0.5283
  140OSM    C1115182   6.912   1.866   1.816  0.0765 -0.4771  0.2373
  140OSM   H11A15183   6.984   1.840   1.896  2.6684  0.2661 -1.7508
  140OSM   H11B15184   6.905   1.775   1.753 -1.7704 -0.4339  0.3556
  140OSM      P15185   6.772   1.994   1.997  0.0378 -0.2809 -0.0987
  140OSM    O1315186   6.885   2.086   2.004  0.2502 -0.1642  0.4606
  140OSM    O1415187   6.635   2.046   1.999  0.0655 -0.0168  0.4023
  140OSM    O1115188   6.789   1.889   2.115  0.0188  0.4700  0.1492
  140OSM    O1215189   6.783   1.906   1.870 -0.0011 -0.1950  0.2530
  140OSM    C1S15190   6.735   1.752   2.113  0.3181  0.3364 -0.3628
  140OSM    H1S15191   6.811   1.686   2.066 -0.0717 -1.1769  1.0597
  140OSM    H1T15192   6.642   1.732   2.056 -1.3627  3.0604  1.3208
  140OSM     NF15193   6.676   1.554   2.251 -0.4697 -0.1883 -0.5804
  140OSM    HNF15194   6.579   1.537   2.234 -0.4463 -0.4073 -0.5008
  140OSM    C2S15195   6.704   1.703   2.251  0.5002 -0.2893 -0.2837
  140OSM    H2S15196   6.802   1.723   2.301 -0.4958  0.7958  1.2658
  140OSM    C3S15197   6.597   1.785   2.317  0.1734 -0.0170 -0.1549
  140OSM    H3S15198   6.503   1.782   2.256 -0.0038  2.5969 -0.0628
  140OSM     O315199   6.629   1.923   2.328  0.0588 -0.0296  0.0933
  140OSM    HO315200   6.711   1.934   2.280  1.1055 -1.9943  1.3512
  140OSM    C4S15201   6.562   1.729   2.453  0.4776 -0.0050  0.0873
  140OSM    H4S15202   6.650   1.730   2.518 -0.5959  0.1576  1.5596
  140OSM    C5S15203   6.443   1.663   2.482  0.0237 -0.0420 -0.5431
  140OSM    H5S15204   6.377   1.657   2.394  1.0761  0.6245 -1.4096
  140OSM    C6S15205   6.397   1.603   2.612 -0.6802 -0.1233 -0.1166
  140OSM    H6S15206   6.345   1.506   2.599  0.8926 -0.9156 -0.7266
  140OSM    H6T15207   6.327   1.668   2.668  1.3766  2.6399 -0.6404
  140OSM    C7S15208   6.525   1.587   2.710 -0.3399  0.4243  0.3387
  140OSM    H7S15209   6.563   1.688   2.734  0.1234 -0.1740  2.2003
  140OSM    H7T15210   6.595   1.517   2.659  0.2584  0.7450  0.7191
  140OSM    C8S15211   6.490   1.535   2.852 -0.3803 -0.0192 -0.2301
  140OSM    H8S15212   6.486   1.424   2.858  1.6900 -0.1557 -0.8193
  140OSM    H8T15213   6.389   1.571   2.881 -0.3715 -0.6390  0.5941
  140OSM    C9S15214   6.599   1.577   2.954  0.2839 -0.0236 -0.6627
  140OSM    H9S15215   6.614   1.686   2.961  0.7889 -0.1899  1.0948
  140OSM    H9T15216   6.697   1.532   2.928  1.3245  1.2834  0.9514
  140OSM   C10S15217   6.562   1.532   3.100  0.2019  0.1112 -0.2727
  140OSM   H10S15218   6.562   1.421   3.109  3.1186  0.1489  0.5831
  140OSM   H10T15219   6.458   1.569   3.111 -0.3719 -1.1688 -1.1599
  140OSM   C11S15220   6.668   1.573   3.196  0.1286  0.4169  0.5054
  140OSM   H11S15221   6.670   1.684   3.201 -1.0621  0.5833 -2.0104
  140OSM   H11T15222   6.765   1.535   3.159  0.6207  1.3097  0.8594
  140OSM   C12S15223   6.638   1.505   3.333  0.0162 -0.6679 -0.3871
  140OSM   H12S15224   6.676   1.401   3.320  3.6381  0.6325 -0.7455
  140OSM   H12T15225   6.533   1.501   3.368  0.2599 -4.5696  0.1530
  140OSM   C13S15226   6.725   1.585   3.433 -0.1434 -0.1277  1.1194
  140OSM   H13S15227   6.669   1.680   3.449  0.5866  0.9966 -2.6884
  140OSM   H13T15228   6.826   1.597   3.389 -1.1929  2.8017 -0.6064
  140OSM   C14S15229   6.743   1.499   3.563 -0.7302 -0.2926 -0.5996
  140OSM   H14S15230   6.767   1.392   3.548 -0.4009 -0.2731 -0.2157
  140OSM   H14T15231   6.654   1.509   3.629 -0.8682  1.3870 -1.0064
  140OSM   C15S15232   6.852   1.563   3.647  0.1977  0.1048 -0.2927
  140OSM   H15S15233   6.846   1.674   3.648 -0.0791  0.0789  1.0516
  140OSM   H15T15234   6.943   1.540   3.587  1.3931  0.2651  1.4378
  140OSM   C16S15235   6.863   1.498   3.781 -0.2981  0.6322 -0.8700
  140OSM   H16S15236   6.863   1.389   3.761 -1.1063  0.1020  1.8164
  140OSM   H16T15237   6.775   1.521   3.845 -0.5081 -1.9357 -0.1851
  140OSM   C17S15238   6.986   1.553   3.868 -0.0633 -0.8034 -0.0997
  140OSM   H17S15239   6.964   1.506   3.967 -0.7747 -0.1762  0.0478
  140OSM   H17T15240   6.977   1.663   3.879 -0.2323 -0.9844  1.8464
  140OSM   C18S15241   7.117   1.503   3.811  0.7011  0.5494  0.4363
  140OSM   H18S15242   7.117   1.393   3.819 -4.0179  0.3708 -0.3295
  140OSM   H18T15243   7.199   1.531   3.880 -1.1702 -1.7567  3.7574
  140OSM   H18U15244   7.148   1.518   3.706  1.2902 -0.1862  0.5074
  140OSM    C1F15245   6.766   1.459   2.234  0.1546  0.2718 -0.3198
  140OSM     OF15246   6.885   1.489   2.223 -0.2462  0.1340 -0.2025
  140OSM    C2F15247   6.724   1.317   2.216  0.5148  0.0717  0.4421
  140OSM    H2F15248   6.777   1.281   2.125 -0.1405  0.4341 -0.0850
  140OSM    H2G15249   6.615   1.312   2.199  1.0631 -2.0871 -2.8791
  140OSM    C3F15250   6.780   1.237   2.337 -0.2030  0.5371 -0.1098
  140OSM    H3F15251   6.890   1.233   2.322 -0.1148 -1.5974  0.9135
  140OSM    H3G15252   6.748   1.132   2.320  0.6603  0.2246  0.1826
  140OSM    C4F15253   6.724   1.282   2.476 -0.2840 -0.5614 -0.3257
  140OSM    H4F15254   6.614   1.270   2.467 -0.6257  2.4822 -0.7487
  140OSM    H4G15255   6.745   1.390   2.491 -0.9456 -0.3153 -1.1422
  140OSM    C5F15256   6.779   1.196   2.595  0.6568 -0.5946  0.1543
  140OSM    H5F15257   6.879   1.232   2.628 -0.3826  0.4010  2.3154
  140OSM    H5G15258   6.789   1.087   2.577  2.2326 -1.2022  4.0631
  140OSM    C6F15259   6.693   1.214   2.717 -0.2581 -0.3622 -0.1826
  140OSM    H6F15260   6.590   1.182   2.690 -0.8627  1.1902  0.2833
  140OSM    H6G15261   6.685   1.321   2.745  0.2472 -0.1483 -0.8255
  140OSM    C7F15262   6.752   1.137   2.837  0.2688 -0.1955 -0.9217
  140OSM    H7F15263   6.859   1.164   2.853  0.8737 -2.5609 -0.8234
  140OSM    H7G15264   6.735   1.028   2.824 -0.7912 -0.3812  1.5726
  140OSM    C8F15265   6.669   1.169   2.969 -0.4624  0.3961 -0.1882
  140OSM    H8F15266   6.562   1.141   2.963 -0.2091 -0.0589 -3.3991
  140OSM    H8G15267   6.677   1.280   2.977 -0.1944  0.4136 -0.6693
  140OSM    C9F15268   6.736   1.093   3.082 -0.0458  0.3780 -0.4936
  140OSM    H9F15269   6.842   1.076   3.057  0.2387  1.1786  0.1333
  140OSM   C10F15270   6.694   1.073   3.209  0.2962  0.3022 -0.4199
  140OSM   H10F15271   6.752   1.008   3.276  0.1975  1.3175  0.6650
  140OSM   C11F15272   6.566   1.127   3.259  0.4562  0.4972  0.7681
  140OSM   H11F15273   6.479   1.063   3.234 -0.6753  2.6134 -0.8683
  140OSM   H11G15274   6.547   1.219   3.200 -0.9567  0.3247  0.9600
  140OSM   C12F15275   6.565   1.141   3.411  0.1998 -0.4023  0.1556
  140OSM   H12F15276   6.648   1.207   3.444  1.6667 -1.0849 -2.0685
  140OSM   H12G15277   6.583   1.047   3.467 -2.2810 -0.2670  1.2350
  140OSM   C13F15278   6.431   1.199   3.458 -0.0307 -0.1415 -0.0167
  140OSM   H13F15279   6.342   1.136   3.439  0.2192 -0.2119 -0.9977
  140OSM   H13G15280   6.416   1.293   3.400 -3.5002  0.3428  1.5259
  140OSM   C14F15281   6.440   1.233   3.604  0.3762  0.1703 -1.1118
  140OSM   H14F15282   6.499   1.328   3.603 -0.0272  0.4283 -0.7646
  140OSM   H14G15283   6.492   1.157   3.666 -1.5383 -0.4686 -0.2721
  140OSM   C15F15284   6.306   1.276   3.669  0.4835 -0.1178  0.2424
  140OSM   H15F15285   6.252   1.195   3.722  1.0912 -0.2632  0.6515
  140OSM   H15G15286   6.238   1.327   3.597  0.1980 -2.5979 -1.2772
  140OSM   C16F15287   6.330   1.371   3.794 -0.1824 -0.1567 -0.0945
  140OSM   H16F15288   6.376   1.462   3.751 -2.0396  0.1037 -1.6514
  140OSM   H16G15289   6.395   1.309   3.858  0.8671  0.7959 -0.2387
  140OSM   C17F15290   6.194   1.413   3.855  0.4626  0.9431  0.3591
  140OSM   H17F15291   6.134   1.325   3.887 -1.6987  1.2949 -2.5753
  140OSM   H17G15292   6.141   1.462   3.771  0.3031 -1.3527 -0.9249
  140OSM   C18F15293   6.211   1.512   3.971 -0.1642 -0.6321 -0.0705
  140OSM   H18F15294   6.280   1.594   3.942  1.0460 -0.0909  4.0443
  140OSM   H18G15295   6.264   1.463   4.056  2.2822  0.2129 -1.0454
  140OSM   H18H15296   6.113   1.544   4.010 -1.6631 -1.3994 -3.0713
  141OSM      N15297   1.447   6.181   1.767 -0.4083  0.6724 -0.0778
  141OSM    C1515298   1.451   6.039   1.719 -0.3733 -0.2072 -0.1992
  141OSM   H15A15299   1.549   5.997   1.702 -0.5800 -0.6338 -0.3489
  141OSM   H15B15300   1.398   6.024   1.626 -0.5163 -1.6140  0.0929
  141OSM   H15C15301   1.393   5.978   1.787 -0.4304 -1.5520 -1.4288
  141OSM    C1415302   1.546   6.197   1.878  0.4420  0.5936  0.2921
  141OSM   H14A15303   1.646   6.221   1.845  0.1105  0.7802 -0.6094
  141OSM   H14B15304   1.556   6.114   1.946  0.1926  1.8442  1.8625
  141OSM   H14C15305   1.504   6.273   1.941 -2.1072 -2.1067  2.0200
  141OSM    C1315306   1.495   6.272   1.657 -0.2404 -0.4917  1.1796
  141OSM   H13A15307   1.479   6.374   1.687  0.1239  0.0730 -0.5298
  141OSM   H13B15308   1.427   6.260   1.574  0.3579 -0.5864  0.7025
  141OSM   H13C15309   1.595   6.250   1.621  0.1773  1.1599  1.3168
  141OSM    C1215310   1.312   6.226   1.824 -0.3218  0.3496  0.0251
  141OSM   H12A15311   1.235   6.209   1.751 -0.6043 -4.6034  1.3131
  141OSM   H12B15312   1.314   6.333   1.839 -0.4581  0.8315 -3.0598
  141OSM    C1115313   1.255   6.157   1.955 -0.2956  0.5423 -1.1624
  141OSM   H11A15314   1.171   6.217   1.996  0.0268 -0.1130  0.5210
  141OSM   H11B15315   1.337   6.149   2.030 -0.9688  0.1515 -0.4608
  141OSM      P15316   1.063   6.010   1.857  0.2361  0.1818 -0.3670
  141OSM    O1315317   1.063   6.069   1.724 -0.0605  0.2537  0.5502
  141OSM    O1415318   1.039   5.870   1.863  0.3557  0.2241  0.3054
  141OSM    O1115319   0.956   6.084   1.950  0.0156  0.1862  0.2557
  141OSM    O1215320   1.205   6.026   1.923 -0.3629 -0.3978  0.2906
  141OSM    C1S15321   0.921   6.027   2.080 -0.7625 -0.4866 -0.1112
  141OSM    H1S15322   1.004   5.970   2.125 -0.5971  0.5435  0.9174
  141OSM    H1T15323   0.832   5.961   2.076 -1.2744  0.2356 -0.9717
  141OSM     NF15324   0.908   6.097   2.324  0.1050  0.1268 -0.5998
  141OSM    HNF15325   0.816   6.076   2.355  0.5304  0.9718  1.3278
  141OSM    C2S15326   0.899   6.141   2.188  0.6220  0.0357  0.3443
  141OSM    H2S15327   0.975   6.221   2.175 -0.6938  1.1361 -0.7198
  141OSM    C3S15328   0.773   6.227   2.153  0.0730  1.1443  0.5882
  141OSM    H3S15329   0.687   6.165   2.187 -0.6346  2.8807  2.1063
  141OSM     O315330   0.754   6.261   2.017  0.0409  0.4216 -0.2199
  141OSM    HO315331   0.818   6.209   1.968  1.1940 -0.3343  2.0357
  141OSM    C4S15332   0.764   6.354   2.230 -0.0347  0.5001  0.0453
  141OSM    H4S15333   0.824   6.439   2.192  1.8085 -0.5402  0.5858
  141OSM    C5S15334   0.684   6.371   2.325  0.6099 -0.7787 -0.4396
  141OSM    H5S15335   0.612   6.290   2.343 -1.1477  0.1107 -3.0734
  141OSM    C6S15336   0.670   6.510   2.391  0.2768  0.9631 -0.6710
  141OSM    H6S15337   0.596   6.571   2.336 -1.6103  2.1184  3.0335
  141OSM    H6T15338   0.760   6.574   2.378  0.8587  0.4043  0.5022
  141OSM    C7S15339   0.630   6.508   2.534  0.1215  0.1375  0.2411
  141OSM    H7S15340   0.634   6.607   2.584 -0.7282  0.4279 -0.2595
  141OSM    H7T15341   0.706   6.446   2.587  1.5185  0.6813 -1.0912
  141OSM    C8S15342   0.493   6.451   2.561 -0.0739  0.2557  0.8044
  141OSM    H8S15343   0.477   6.351   2.516 -1.5184 -0.9161  3.7853
  141OSM    H8T15344   0.413   6.515   2.518  1.3044  0.5898 -1.3452
  141OSM    C9S15345   0.461   6.432   2.712  0.2850  0.2850 -0.9107
  141OSM    H9S15346   0.453   6.537   2.748 -0.7940  1.0938 -3.3890
  141OSM    H9T15347   0.545   6.376   2.759 -0.4356 -0.3835 -0.4248
  141OSM   C10S15348   0.333   6.351   2.728 -0.6882  0.2043  0.5103
  141OSM   H10S15349   0.327   6.287   2.637 -1.1754  0.1317  0.5944
  141OSM   H10T15350   0.244   6.418   2.729  1.9414  3.8887  0.9141
  141OSM   C11S15351   0.343   6.263   2.855 -0.1153  0.4623  0.8205
  141OSM   H11S15352   0.424   6.190   2.838  1.0956  1.5939  1.6138
  141OSM   H11T15353   0.240   6.225   2.872 -0.0076 -0.6475 -0.9189
  141OSM   C12S15354   0.368   6.340   2.981  0.3286  0.1946  0.3561
  141OSM   H12S15355   0.306   6.432   2.976  1.3581  0.9540  1.3548
  141OSM   H12T15356   0.473   6.369   2.999  0.5484 -0.3193 -0.0793
  141OSM   C13S15357   0.328   6.260   3.108 -0.6206  0.1894  0.3666
  141OSM   H13S15358   0.402   6.180   3.132 -1.6118 -0.0539  2.7194
  141OSM   H13T15359   0.240   6.194   3.086 -0.1792 -0.1700 -0.3705
  141OSM   C14S15360   0.277   6.354   3.222 -0.4664  0.0886 -0.4711
  141OSM   H14S15361   0.168   6.370   3.216 -0.1961  1.7481 -1.1639
  141OSM   H14T15362   0.320   6.456   3.223  0.6750 -0.3838  0.5984
  141OSM   C15S15363   0.299   6.303   3.368 -0.1594 -0.7388  1.0976
  141OSM   H15S15364   0.260   6.371   3.446 -2.1228  0.3154 -0.7568
  141OSM   H15T15365   0.405   6.290   3.396  0.2656 -0.4646 -0.3504
  141OSM   C16S15366   0.230   6.170   3.401  0.4914  0.0665 -0.5445
  141OSM   H16S15367   0.262   6.096   3.324  1.4247 -1.9129  1.7179
  141OSM   H16T15368   0.120   6.185   3.392  0.6866  0.9552 -1.6872
  141OSM   C17S15369   0.273   6.129   3.545 -0.0693  0.4883 -0.0586
  141OSM   H17S15370   0.192   6.057   3.570  0.5539  0.1548  1.0405
  141OSM   H17T15371   0.267   6.219   3.610  0.8896  0.0841  0.5986
  141OSM   C18S15372   0.415   6.065   3.556  0.4156  0.2073 -0.4727
  141OSM   H18S15373   0.412   5.965   3.508 -0.9894 -0.1198  0.2726
  141OSM   H18T15374   0.449   6.058   3.661  0.5005  0.9775 -0.4411
  141OSM   H18U15375   0.489   6.121   3.493 -0.8382  1.1280 -1.1600
  141OSM    C1F15376   1.028   6.064   2.380  0.2062 -0.4757  0.4907
  141OSM     OF15377   1.125   6.063   2.312  0.3341  0.2775  0.6676
  141OSM    C2F15378   1.032   6.003   2.517 -0.3933  0.3404 -0.8122
  141OSM    H2F15379   1.085   5.905   2.519  0.4152  0.7798  2.7538
  141OSM    H2G15380   0.926   5.988   2.547 -0.3690 -1.0107 -1.3396
  141OSM    C3F15381   1.107   6.101   2.618  0.3251  0.6419  0.8996
  141OSM    H3F15382   1.208   6.118   2.576  0.3724 -0.9347  0.3168
  141OSM    H3G15383   1.118   6.052   2.717  1.1107  2.0966  1.5361
  141OSM    C4F15384   1.038   6.235   2.633  1.0055 -0.0717 -0.2454
  141OSM    H4F15385   0.936   6.221   2.677  1.5607 -0.8271  0.8316
  141OSM    H4G15386   1.016   6.279   2.534 -1.8897 -0.2043  0.2775
  141OSM    C5F15387   1.125   6.330   2.723 -0.3940 -0.0580  0.1485
  141OSM    H5F15388   1.224   6.349   2.676 -0.2478 -0.3791  0.3179
  141OSM    H5G15389   1.139   6.281   2.822  0.0469  2.7968  1.5437
  141OSM    C6F15390   1.059   6.474   2.754  0.0633 -0.2816  0.0551
  141OSM    H6F15391   1.044   6.524   2.657  2.2182  1.0191  0.3394
  141OSM    H6G15392   1.142   6.525   2.809  1.8386 -1.5888 -1.3708
  141OSM    C7F15393   0.933   6.472   2.839 -0.4447  0.5467 -0.3955
  141OSM    H7F15394   0.854   6.428   2.775  1.9902 -0.4145 -2.8313
  141OSM    H7G15395   0.893   6.574   2.859 -0.1793  0.4686  0.5775
  141OSM    C8F15396   0.963   6.405   2.972 -0.1748  0.3331 -0.2125
  141OSM    H8F15397   1.065   6.434   3.005  0.7625 -0.5325 -2.2713
  141OSM    H8G15398   0.964   6.297   2.945 -1.2128  0.1224  0.5552
  141OSM    C9F15399   0.866   6.457   3.076  0.2766  0.2549  0.1487
  141OSM    H9F15400   0.883   6.564   3.095 -2.1454  0.5996  0.5270
  141OSM   C10F15401   0.776   6.386   3.148 -0.1169 -0.6359  0.0711
  141OSM   H10F15402   0.731   6.433   3.237  0.4771  0.2403 -0.0821
  141OSM   C11F15403   0.754   6.239   3.136  0.2579  0.2116  0.0418
  141OSM   H11F15404   0.806   6.195   3.048  0.4184  2.4163 -0.9728
  141OSM   H11G15405   0.648   6.209   3.123 -0.1115  1.3851  0.3037
  141OSM   C12F15406   0.808   6.165   3.265 -0.4513 -0.0185  0.7822
  141OSM   H12F15407   0.763   6.064   3.250  1.0957 -0.1817 -3.4603
  141OSM   H12G15408   0.764   6.212   3.355  1.6049  0.0139  1.7886
  141OSM   C13F15409   0.963   6.154   3.257  0.1176  0.2475 -0.2621
  141OSM   H13F15410   1.010   6.255   3.266  0.6387  0.0696 -0.9013
  141OSM   H13G15411   0.975   6.122   3.151 -1.0603 -3.5079  0.6742
  141OSM   C14F15412   1.014   6.052   3.354  0.5312 -0.3954  0.5251
  141OSM   H14F15413   1.001   5.948   3.317  1.3803  0.0130 -0.9634
  141OSM   H14G15414   0.969   6.058   3.456 -3.1929 -1.4967 -0.9585
  141OSM   C15F15415   1.172   6.073   3.378  0.0777  1.0694  0.2904
  141OSM   H15F15416   1.193   6.162   3.441  0.2861  1.6128 -0.5507
  141OSM   H15G15417   1.224   6.083   3.281  0.9655  2.5637  0.9128
  141OSM   C16F15418   1.235   5.952   3.440  0.2889  0.0347  0.2309
  141OSM   H16F15419   1.342   5.963   3.411 -0.2929  0.4612 -1.7598
  141OSM   H16G15420   1.196   5.863   3.387  0.3019  0.0447  0.2040
  141OSM   C17F15421   1.216   5.941   3.595 -0.0257 -0.2115 -0.2188
  141OSM   H17F15422   1.111   5.965   3.623  0.4152  0.9820  0.4248
  141OSM   H17G15423   1.277   6.026   3.631  1.9584 -1.5863 -0.2456
  141OSM   C18F15424   1.251   5.807   3.663 -0.5092 -0.4785  0.6251
  141OSM   H18F15425   1.357   5.779   3.644  0.1351  2.4145 -0.3975
  141OSM   H18G15426   1.192   5.723   3.621  0.7634 -0.8084 -0.5688
  141OSM   H18H15427   1.229   5.811   3.772 -0.4143  2.2782  0.5726
  142OSM      N15428   1.185   1.432   1.642 -0.2592 -0.2152 -0.3086
  142OSM    C1515429   1.317   1.413   1.713 -0.2022 -0.4477  0.2773
  142OSM   H15A15430   1.325   1.312   1.752  1.2810 -0.0343  1.0881
  142OSM   H15B15431   1.338   1.487   1.789  0.6782 -0.2459 -0.1564
  142OSM   H15C15432   1.396   1.416   1.639 -0.2593  0.7600  0.2598
  142OSM    C1415433   1.190   1.565   1.578 -0.0361 -0.3839 -0.7151
  142OSM   H14A15434   1.194   1.641   1.654  0.1284 -0.5523 -0.5528
  142OSM   H14B15435   1.100   1.590   1.525  0.6999  1.4878 -1.1105
  142OSM   H14C15436   1.280   1.576   1.519 -0.8885 -2.2502 -2.4395
  142OSM    C1315437   1.168   1.329   1.530 -0.4153  0.4381 -0.2523
  142OSM   H13A15438   1.204   1.233   1.563 -0.5742  0.7371  0.8234
  142OSM   H13B15439   1.226   1.363   1.446  1.0731  0.7318  0.8657
  142OSM   H13C15440   1.070   1.313   1.487  0.4723  1.0579 -2.5413
  142OSM    C1215441   1.075   1.428   1.744  1.0657 -0.6572 -0.2508
  142OSM   H12A15442   0.977   1.444   1.703  0.7134  1.7473  1.4358
  142OSM   H12B15443   1.099   1.506   1.815  2.0175 -1.3844  0.2303
  142OSM    C1115444   1.056   1.295   1.823 -0.7659 -0.3180 -0.0796
  142OSM   H11A15445   1.032   1.218   1.746  1.6874 -3.9118  2.5682
  142OSM   H11B15446   0.971   1.302   1.895 -1.0351 -0.1384 -0.4164
  142OSM      P15447   1.211   1.293   2.040  0.0391 -0.2679  0.1126
  142OSM    O1315448   1.353   1.333   2.044  0.5784 -0.0006  0.2883
  142OSM    O1415449   1.114   1.384   2.104  0.2550 -0.1144 -0.0811
  142OSM    O1115450   1.193   1.154   2.114 -0.2234  0.0084  0.0132
  142OSM    O1215451   1.166   1.251   1.891 -0.6516 -0.9352  0.9550
  142OSM    C1S15452   1.107   1.046   2.081 -0.0419 -0.1835 -0.0435
  142OSM    H1S15453   1.166   0.956   2.051  1.4042 -0.1707  2.6699
  142OSM    H1T15454   1.037   1.068   1.997 -0.5334  2.5481  1.0471
  142OSM     NF15455   1.003   0.857   2.201  0.0238 -0.2012  0.0535
  142OSM    HNF15456   0.919   0.818   2.164  0.4936 -2.8497  1.7220
  142OSM    C2S15457   1.016   1.001   2.196 -0.0435  0.9864  0.5164
  142OSM    H2S15458   1.054   1.027   2.297  1.6941  0.0781  0.1012
  142OSM    C3S15459   0.880   1.095   2.195 -0.3732 -0.0128  0.9452
  142OSM    H3S15460   0.824   1.073   2.102 -1.1177  0.8040  1.1925
  142OSM     O315461   0.890   1.236   2.199  0.1979 -0.2670 -0.0737
  142OSM    HO315462   0.984   1.256   2.203  0.0638  0.6233 -1.1149
  142OSM    C4S15463   0.791   1.043   2.300  0.0314 -0.6380 -0.5623
  142OSM    H4S15464   0.713   0.974   2.264  0.3797 -1.2958 -0.0640
  142OSM    C5S15465   0.791   1.074   2.432  0.6380  1.1556 -0.0312
  142OSM    H5S15466   0.841   1.160   2.479 -1.7850  1.8961  1.3069
  142OSM    C6S15467   0.702   1.013   2.540  0.1702  0.8984  0.0128
  142OSM    H6S15468   0.763   0.988   2.629  0.6581 -2.2343 -1.1659
  142OSM    H6T15469   0.665   0.919   2.496  0.4119  1.6194 -1.7958
  142OSM    C7S15470   0.584   1.100   2.578  0.2935  0.0230  0.4685
  142OSM    H7S15471   0.517   1.048   2.650 -4.0721  0.6689 -2.8598
  142OSM    H7T15472   0.518   1.113   2.489  0.4285 -1.0073  0.2123
  142OSM    C8S15473   0.622   1.236   2.627 -0.4378 -0.1318 -0.9260
  142OSM    H8S15474   0.672   1.302   2.554 -1.0081  2.2389  0.7538
  142OSM    H8T15475   0.692   1.215   2.711 -1.7717  0.5092  0.3797
  142OSM    C9S15476   0.515   1.315   2.687  0.8291  0.2229 -0.1872
  142OSM    H9S15477   0.437   1.256   2.739  1.0574 -0.4063 -0.5521
  142OSM    H9T15478   0.460   1.366   2.605 -0.1709  0.1195  0.4094
  142OSM   C10S15479   0.556   1.427   2.789 -0.5398  0.0922 -0.1326
  142OSM   H10S15480   0.468   1.467   2.843 -1.8661 -1.2270 -1.2721
  142OSM   H10T15481   0.600   1.511   2.733  2.0354 -1.3876 -0.4237
  142OSM   C11S15482   0.654   1.388   2.900  0.3499 -0.1360 -0.6720
  142OSM   H11S15483   0.745   1.339   2.860 -1.5140 -3.1824 -1.3787
  142OSM   H11T15484   0.612   1.304   2.960 -2.0645  1.0615 -0.6304
  142OSM   C12S15485   0.681   1.506   2.988  0.6972 -0.3574  0.7554
  142OSM   H12S15486   0.748   1.582   2.943  1.4809 -1.5713 -0.1531
  142OSM   H12T15487   0.741   1.468   3.073  2.0951  0.5941  0.2111
  142OSM   C13S15488   0.562   1.571   3.065 -0.0455  0.4545  0.1787
  142OSM   H13S15489   0.489   1.494   3.096  1.7120 -1.9387 -1.3475
  142OSM   H13T15490   0.506   1.645   3.004 -2.4608 -0.8213  0.7662
  142OSM   C14S15491   0.605   1.623   3.203  0.0953 -0.1593 -0.6776
  142OSM   H14S15492   0.546   1.711   3.236 -1.2623 -2.3437  3.0384
  142OSM   H14T15493   0.710   1.660   3.201  0.3906 -0.8255  1.6165
  142OSM   C15S15494   0.587   1.527   3.315  0.2208 -0.1899  0.1055
  142OSM   H15S15495   0.632   1.426   3.301 -1.4877 -1.0720  0.7995
  142OSM   H15T15496   0.481   1.502   3.336  0.0603  0.0361 -0.4248
  142OSM   C16S15497   0.635   1.598   3.448 -0.1417  0.8295  0.0450
  142OSM   H16S15498   0.604   1.705   3.454 -0.2271  0.7926  0.2705
  142OSM   H16T15499   0.746   1.600   3.443 -0.1362  0.5067  0.0142
  142OSM   C17S15500   0.598   1.522   3.579 -0.1947 -0.0650 -0.6789
  142OSM   H17S15501   0.491   1.542   3.598 -0.9032  0.0235 -4.2661
  142OSM   H17T15502   0.647   1.575   3.663 -2.4678 -0.5682  1.0198
  142OSM   C18S15503   0.615   1.375   3.581 -0.4884 -0.1588 -0.3530
  142OSM   H18S15504   0.576   1.324   3.490 -0.2394  0.5230 -0.8436
  142OSM   H18T15505   0.565   1.318   3.662  2.6569 -1.2274  0.9220
  142OSM   H18U15506   0.724   1.353   3.579 -0.3544  0.3899  0.7718
  142OSM    C1F15507   1.097   0.763   2.223  0.1067  0.4826 -1.0721
  142OSM     OF15508   1.210   0.803   2.252  0.0199  0.0715  0.1634
  142OSM    C2F15509   1.073   0.615   2.204 -0.7160  0.2948  0.6658
  142OSM    H2F15510   1.153   0.594   2.131  1.0240  2.1292  1.9951
  142OSM    H2G15511   0.975   0.584   2.161 -1.0516  1.2655  0.7139
  142OSM    C3F15512   1.108   0.548   2.340 -0.1125  0.2493 -1.3290
  142OSM    H3F15513   1.216   0.566   2.352  0.2383 -2.6065  0.1604
  142OSM    H3G15514   1.105   0.437   2.331  1.1107  0.1660 -0.7546
  142OSM    C4F15515   1.045   0.600   2.471 -0.3520  0.6337 -0.0249
  142OSM    H4F15516   0.943   0.633   2.444 -0.9139 -1.1268 -0.1425
  142OSM    H4G15517   1.101   0.690   2.504 -0.4627  0.9112 -0.5813
  142OSM    C5F15518   1.055   0.507   2.586 -0.0188  0.1986  0.4055
  142OSM    H5F15519   1.157   0.466   2.603 -0.3428 -0.1412  1.6390
  142OSM    H5G15520   0.989   0.428   2.545  2.1903 -0.3431 -2.2037
  142OSM    C6F15521   1.014   0.578   2.723 -0.1098  0.5077  0.3905
  142OSM    H6F15522   0.903   0.581   2.727 -0.0409  1.4302  2.4569
  142OSM    H6G15523   1.051   0.682   2.739 -0.9768  0.8779  0.0351
  142OSM    C7F15524   1.054   0.487   2.840 -0.0288 -0.5084 -0.4926
  142OSM    H7F15525   1.162   0.464   2.832  0.6666  0.7776  4.2540
  142OSM    H7G15526   1.009   0.387   2.825 -0.3808 -0.4928  0.4337
  142OSM    C8F15527   1.003   0.548   2.971 -0.0637  0.0087 -0.1756
  142OSM    H8F15528   0.893   0.559   2.963 -0.1385 -0.1690  0.6301
  142OSM    H8G15529   1.035   0.652   2.995  2.2766  0.2816 -3.9683
  142OSM    C9F15530   1.040   0.449   3.078  0.3697  0.3080  0.8616
  142OSM    H9F15531   1.079   0.351   3.048 -0.7055 -0.4064  1.7394
  142OSM   C10F15532   1.041   0.481   3.207 -0.4886  0.2664 -0.0071
  142OSM   H10F15533   1.057   0.398   3.277  0.2756  0.1344 -0.3340
  142OSM   C11F15534   1.001   0.604   3.275 -0.7336 -0.4435  0.1040
  142OSM   H11F15535   1.005   0.688   3.203 -0.4981 -0.4146  0.1497
  142OSM   H11G15536   1.079   0.618   3.353  0.5349 -0.8289 -1.0809
  142OSM   C12F15537   0.858   0.605   3.350  0.6602  0.4533  0.9280
  142OSM   H12F15538   0.786   0.550   3.285  2.2441 -0.1653 -0.3465
  142OSM   H12G15539   0.817   0.708   3.348  0.3919  0.3348 -0.9291
  142OSM   C13F15540   0.846   0.552   3.493 -0.8323 -1.5401  0.2393
  142OSM   H13F15541   0.744   0.553   3.537 -1.1308 -1.4948 -0.4465
  142OSM   H13G15542   0.916   0.618   3.549  0.1148 -0.6558 -1.9267
  142OSM   C14F15543   0.902   0.408   3.499  1.0596  0.0883 -0.1065
  142OSM   H14F15544   0.998   0.415   3.442  0.6043 -0.1751 -0.9141
  142OSM   H14G15545   0.839   0.332   3.450  0.6724  0.0212  0.4902
  142OSM   C15F15546   0.952   0.366   3.647 -0.1941 -0.4776  0.4438
  142OSM   H15F15547   0.947   0.258   3.621 -0.8050  0.4434 -3.7404
  142OSM   H15G15548   0.874   0.381   3.724  2.1674 -1.2600  3.0486
  142OSM   C16F15549   1.096   0.404   3.674  0.0234 -0.0346 -0.2053
  142OSM   H16F15550   1.118   0.408   3.783 -2.7419  2.2776  0.3308
  142OSM   H16G15551   1.115   0.502   3.626  1.2799  0.4411  1.2515
  142OSM   C17F15552   1.188   0.300   3.617  0.3995 -0.0195 -0.7045
  142OSM   H17F15553   1.163   0.272   3.512  0.8454 -0.2780 -0.7428
  142OSM   H17G15554   1.178   0.211   3.683 -0.1129 -0.4528 -1.3589
  142OSM   C18F15555   1.341   0.340   3.608  0.1465 -0.1609 -0.4495
  142OSM   H18F15556   1.398   0.275   3.538  1.1569 -0.0087  0.2231
  142OSM   H18G15557   1.390   0.329   3.708  1.3357  1.6170 -0.8180
  142OSM   H18H15558   1.348   0.443   3.568 -3.1432 -0.5411 -2.2194
  143OSM      N15559   0.375   6.338   1.880  0.7207  0.0980  0.6390
  143OSM    C1515560   0.493   6.412   1.917 -0.1251  0.1622  0.2000
  143OSM   H15A15561   0.568   6.410   1.839 -0.5775 -0.8826 -0.2236
  143OSM   H15B15562   0.547   6.360   1.995  1.3658  0.1490 -0.8055
  143OSM   H15C15563   0.466   6.511   1.950 -1.9413  0.4789 -2.1399
  143OSM    C1415564   0.296   6.412   1.773  0.4982  0.2681 -0.2918
  143OSM   H14A15565   0.211   6.358   1.734  1.2366 -0.1515 -1.3207
  143OSM   H14B15566   0.359   6.455   1.697  0.5185 -0.4679 -0.6945
  143OSM   H14C15567   0.257   6.500   1.823  1.0958  0.2251  0.2520
  143OSM    C1315568   0.430   6.208   1.825 -0.2978 -0.2680 -0.1604
  143OSM   H13A15569   0.480   6.156   1.904 -1.4974  0.3496  1.0279
  143OSM   H13B15570   0.505   6.212   1.747 -0.6385 -0.7621 -0.5156
  143OSM   H13C15571   0.351   6.139   1.798 -0.0779 -0.9840  1.0157
  143OSM    C1215572   0.286   6.317   1.995  0.4456 -0.6988 -0.1109
  143OSM   H12A15573   0.210   6.247   1.962 -0.0299  0.9229 -2.6275
  143OSM   H12B15574   0.247   6.408   2.036 -0.8936 -1.1522 -0.3337
  143OSM    C1115575   0.360   6.271   2.125  0.1128  0.1392 -0.4863
  143OSM   H11A15576   0.284   6.260   2.205 -0.1437 -0.2792 -0.7831
  143OSM   H11B15577   0.437   6.342   2.162 -1.2903  1.9841 -0.9983
  143OSM      P15578   0.352   6.008   2.096 -0.0090 -0.1936 -0.1954
  143OSM    O1315579   0.207   6.026   2.097  0.2026 -0.4427  0.1751
  143OSM    O1415580   0.404   5.922   1.987  0.3979  0.3427 -0.4106
  143OSM    O1115581   0.391   5.936   2.226 -0.1694 -0.2465 -0.0439
  143OSM    O1215582   0.420   6.143   2.100 -0.4202 -0.1966 -0.1620
  143OSM    C1S15583   0.330   5.988   2.348  0.6707  0.5872 -0.3131
  143OSM    H1S15584   0.223   5.957   2.347  0.7652  0.2553 -0.1301
  143OSM    H1T15585   0.323   6.099   2.346  0.3985  0.5556 -1.5360
  143OSM     NF15586   0.321   5.979   2.597 -0.3060  0.0429 -0.6881
  143OSM    HNF15587   0.349   6.063   2.641 -0.2794 -0.0688 -0.4943
  143OSM    C2S15588   0.398   5.950   2.472 -0.5330 -0.1869 -0.0778
  143OSM    H2S15589   0.419   5.841   2.470  1.5000  0.1313  1.5407
  143OSM    C3S15590   0.541   6.020   2.464  0.0524  0.0674  0.5765
  143OSM    H3S15591   0.529   6.129   2.445  0.3875  0.3113  1.7283
  143OSM     O315592   0.622   5.969   2.355  0.3529  0.5006 -0.5732
  143OSM    HO315593   0.555   5.938   2.293  0.6603 -0.2465 -0.5366
  143OSM    C4S15594   0.604   5.989   2.589 -0.0416  0.0575 -0.1729
  143OSM    H4S15595   0.616   5.880   2.599  1.6984  0.0333 -2.0111
  143OSM    C5S15596   0.654   6.069   2.680  0.1423 -0.5982 -0.1850
  143OSM    H5S15597   0.642   6.176   2.658 -1.1724 -0.3784  1.4833
  143OSM    C6S15598   0.732   6.034   2.807 -0.4493  0.2553  0.0587
  143OSM    H6S15599   0.686   6.091   2.891 -1.9345 -1.1003  0.1817
  143OSM    H6T15600   0.839   6.064   2.800 -0.5460  0.3545 -1.0904
  143OSM    C7S15601   0.741   5.880   2.831  0.1673  0.6207 -0.2371
  143OSM    H7S15602   0.823   5.866   2.904 -0.3247  0.8320  0.3635
  143OSM    H7T15603   0.771   5.829   2.737 -2.8598 -0.7857 -0.4950
  143OSM    C8S15604   0.618   5.815   2.888  0.0392  0.6851  0.8441
  143OSM    H8S15605   0.632   5.705   2.885 -2.0059  0.4252  0.0060
  143OSM    H8T15606   0.527   5.825   2.825  0.1744  0.7434  0.6568
  143OSM    C9S15607   0.580   5.864   3.023 -0.3669 -0.4072 -0.4232
  143OSM    H9S15608   0.528   5.960   3.004  0.1534  0.1971  1.1293
  143OSM    H9T15609   0.676   5.868   3.079  0.0958  3.2594 -1.3695
  143OSM   C10S15610   0.476   5.779   3.093 -0.3264 -0.2672 -0.0452
  143OSM   H10S15611   0.523   5.686   3.131  0.4932  1.1563  2.5588
  143OSM   H10T15612   0.393   5.749   3.026 -1.4981 -0.0587  1.2921
  143OSM   C11S15613   0.405   5.861   3.207  0.0465  0.5853 -0.1337
  143OSM   H11S15614   0.358   5.951   3.161  0.0973 -0.3215 -2.0055
  143OSM   H11T15615   0.481   5.899   3.279 -1.8845 -0.9194  2.7840
  143OSM   C12S15616   0.305   5.774   3.291  0.7978  0.2229  0.1207
  143OSM   H12S15617   0.239   5.713   3.225 -1.4021  3.0787 -0.4147
  143OSM   H12T15618   0.229   5.830   3.350  1.1102  1.5430 -0.7027
  143OSM   C13S15619   0.367   5.663   3.379 -0.0288 -0.7317 -0.1715
  143OSM   H13S15620   0.423   5.709   3.463 -1.9947 -2.0325  1.9016
  143OSM   H13T15621   0.437   5.613   3.308  1.2753  2.0379 -0.9267
  143OSM   C14S15622   0.267   5.568   3.442 -0.1504  0.4641 -0.0366
  143OSM   H14S15623   0.224   5.528   3.348 -1.5832  1.5069  0.1691
  143OSM   H14T15624   0.193   5.617   3.508 -0.4640 -0.7393  0.5363
  143OSM   C15S15625   0.335   5.459   3.528  0.0783 -0.2888 -0.7316
  143OSM   H15S15626   0.359   5.506   3.626 -1.4641 -0.2512 -0.3637
  143OSM   H15T15627   0.430   5.432   3.476  1.2498  1.2704  0.5575
  143OSM   C16S15628   0.240   5.345   3.556 -0.4526 -0.2142 -0.6150
  143OSM   H16S15629   0.215   5.298   3.458 -1.4818 -0.8325 -0.0647
  143OSM   H16T15630   0.158   5.384   3.619  2.6945  1.2896  2.7387
  143OSM   C17S15631   0.326   5.240   3.626 -0.0022  0.3017 -0.9924
  143OSM   H17S15632   0.364   5.284   3.720 -0.0141 -2.1716  0.2049
  143OSM   H17T15633   0.413   5.205   3.566 -0.8300 -2.1683 -0.8411
  143OSM   C18S15634   0.256   5.111   3.670 -0.0934 -0.1951 -0.2340
  143OSM   H18S15635   0.207   5.053   3.589  0.5732 -0.9075 -0.1311
  143OSM   H18T15636   0.181   5.137   3.748  2.3277  0.8038  1.8083
  143OSM   H18U15637   0.322   5.031   3.711 -1.3829 -1.7647 -1.1400
  143OSM    C1F15638   0.219   5.912   2.631  0.4809 -0.1687  0.6153
  143OSM     OF15639   0.169   5.828   2.558 -0.4550 -0.0754  0.4837
  143OSM    C2F15640   0.165   5.942   2.770  0.1246 -0.2656 -0.0258
  143OSM    H2F15641   0.146   6.050   2.789 -1.0993 -0.3781 -0.5824
  143OSM    H2G15642   0.254   5.930   2.836  0.6823 -0.9901 -0.9014
  143OSM    C3F15643   0.042   5.865   2.814  0.3700  0.7863 -0.1887
  143OSM    H3F15644   0.037   5.760   2.778  1.4362  0.5237  0.4203
  143OSM    H3G15645  -0.039   5.928   2.771  0.9629  1.8383  0.2226
  143OSM    C4F15646   0.027   5.870   2.969 -0.8598  1.0429 -0.4120
  143OSM    H4F15647   0.117   5.832   3.020 -2.0340 -1.2808 -0.0009
  143OSM    H4G15648  -0.048   5.794   3.000  1.0651  0.0684  1.9678
  143OSM    C5F15649  -0.008   6.012   3.012 -0.2500  0.3199  0.2626
  143OSM    H5F15650  -0.089   6.037   2.940  0.8554  2.4778 -0.2580
  143OSM    H5G15651   0.074   6.085   2.996 -1.6396  1.7210 -0.6225
  143OSM    C6F15652  -0.053   6.019   3.160  0.0059 -0.0658 -0.4295
  143OSM    H6F15653   0.047   6.042   3.203  0.4014 -0.5052 -1.1004
  143OSM    H6G15654  -0.089   5.919   3.193  0.6690  0.0696  0.7488
  143OSM    C7F15655  -0.159   6.124   3.204  0.1777  0.9458  0.5626
  143OSM    H7F15656  -0.173   6.117   3.314  0.4652  0.3698  0.5629
  143OSM    H7G15657  -0.262   6.096   3.174  0.6376 -1.6580  1.2954
  143OSM    C8F15658  -0.132   6.273   3.159  0.2951  1.2270  0.6036
  143OSM    H8F15659  -0.146   6.290   3.050  0.1171  1.7479  0.7031
  143OSM    H8G15660  -0.026   6.292   3.188  0.5697  2.5595 -1.1842
  143OSM    C9F15661  -0.227   6.370   3.224 -0.2924  0.5256 -0.5544
  143OSM    H9F15662  -0.326   6.382   3.178 -0.7305 -1.2487 -0.1052
  143OSM   C10F15663  -0.191   6.442   3.326 -0.1199  0.2291  0.1802
  143OSM   H10F15664  -0.265   6.503   3.380 -0.6777 -0.2597 -0.0409
  143OSM   C11F15665  -0.056   6.439   3.395 -1.0605  0.6158  0.0378
  143OSM   H11F15666   0.014   6.504   3.338 -1.0828  2.1220  1.6850
  143OSM   H11G15667  -0.011   6.338   3.407 -0.5025  1.1600  2.8605
  143OSM   C12F15668  -0.048   6.487   3.538 -0.1796 -0.4758 -0.5540
  143OSM   H12F15669   0.053   6.463   3.577 -1.0937  0.3065  2.3815
  143OSM   H12G15670  -0.110   6.421   3.602  2.7561 -2.1011  0.6929
  143OSM   C13F15671  -0.088   6.632   3.560 -0.3095 -0.2781 -0.2777
  143OSM   H13F15672  -0.184   6.658   3.510 -0.9964  0.6097  1.4779
  143OSM   H13G15673  -0.007   6.704   3.534  0.5484 -1.0541  0.2125
  143OSM   C14F15674  -0.128   6.647   3.707 -0.9821 -0.7236  1.0555
  143OSM   H14F15675  -0.032   6.625   3.758  0.2393 -0.4916 -1.0774
  143OSM   H14G15676  -0.197   6.565   3.734 -2.1105 -0.4802 -0.9319
  143OSM   C15F15677  -0.178   6.786   3.749 -1.3775 -0.5247 -0.7463
  143OSM   H15F15678  -0.280   6.811   3.712 -1.3935  1.8972  0.8002
  143OSM   H15G15679  -0.110   6.870   3.722 -1.6142 -0.2719 -0.5645
  143OSM   C16F15680  -0.192   6.790   3.905 -0.2925  0.0666  0.0504
  143OSM   H16F15681  -0.091   6.789   3.952 -0.3153  0.1985  0.1013
  143OSM   H16G15682  -0.250   6.706   3.947  2.6965 -1.1832  1.8805
  143OSM   C17F15683  -0.265   6.920   3.955 -0.3478 -0.2505  0.0621
  143OSM   H17F15684  -0.290   6.916   4.064  1.8816 -0.4211  0.5843
  143OSM   H17G15685  -0.354   6.934   3.891 -1.0530  0.7894  1.2443
  143OSM   C18F15686  -0.182   7.044   3.919  0.1976  0.2110  0.1348
  143OSM   H18F15687  -0.235   7.133   3.958 -2.3792 -0.9191 -0.6342
  143OSM   H18G15688  -0.159   7.049   3.811 -2.9176  1.0537 -0.5428
  143OSM   H18H15689  -0.085   7.030   3.972  0.9426  1.4721 -0.8761
  144OSM      N15690   6.363   6.914   1.543  0.0750 -0.0502 -0.1946
  144OSM    C1515691   6.464   6.821   1.605  0.7835 -0.4955  0.5849
  144OSM   H15A15692   6.431   6.758   1.686 -1.0682  1.2240  1.1884
  144OSM   H15B15693   6.548   6.881   1.638  0.3958  0.8658 -0.8751
  144OSM   H15C15694   6.512   6.775   1.520  1.1897  0.2349  0.4147
  144OSM    C1415695   6.432   7.006   1.448  0.9811  1.2803 -0.0154
  144OSM   H14A15696   6.361   7.072   1.400 -0.1871 -0.6094 -0.9249
  144OSM   H14B15697   6.470   6.948   1.366  2.3538  0.9283  0.8471
  144OSM   H14C15698   6.508   7.061   1.502  2.1968 -0.9314  0.5742
  144OSM    C1315699   6.261   6.829   1.469  0.3838  0.5599 -0.0485
  144OSM   H13A15700   6.184   6.886   1.419  0.7878  1.4749  0.3547
  144OSM   H13B15701   6.204   6.777   1.545  1.4348 -0.8305 -0.2030
  144OSM   H13C15702   6.301   6.745   1.414  2.6522 -0.3479  2.8646
  144OSM    C1215703   6.297   7.004   1.648 -0.0886  0.0326 -0.8260
  144OSM   H12A15704   6.223   6.946   1.701  0.3893  0.7739  0.7104
  144OSM   H12B15705   6.239   7.078   1.595 -3.4605 -1.2508  0.9206
  144OSM    C1115706   6.384   7.082   1.751  0.6741  0.0026 -0.2515
  144OSM   H11A15707   6.429   7.006   1.818  1.4928  1.3981  0.8148
  144OSM   H11B15708   6.313   7.127   1.824  0.9325 -1.3581  0.8450
  144OSM      P15709   6.625   7.164   1.718 -0.1409 -0.3278 -0.0442
  144OSM    O1315710   6.675   7.043   1.645  0.5300 -0.4995  0.1766
  144OSM    O1415711   6.695   7.291   1.683 -0.0718  0.1386 -0.3752
  144OSM    O1115712   6.644   7.133   1.867 -0.2537 -0.1165  0.0892
  144OSM    O1215713   6.468   7.179   1.693 -0.5212 -0.7058  0.3740
  144OSM    C1S15714   6.633   7.221   1.979 -0.2035  0.0391 -0.0637
  144OSM    H1S15715   6.536   7.276   1.980 -1.2057 -1.6416 -1.5217
  144OSM    H1T15716   6.720   7.290   1.979  1.1187 -1.6228  1.9070
  144OSM     NF15717   6.642   7.244   2.232 -0.8507 -0.1866  0.3860
  144OSM    HNF15718   6.728   7.274   2.271 -1.0791  0.8594  0.0943
  144OSM    C2S15719   6.654   7.150   2.116  0.6853 -0.0305 -0.0321
  144OSM    H2S15720   6.579   7.069   2.126  0.5029  0.2314  0.8127
  144OSM    C3S15721   6.801   7.079   2.116  0.1993 -0.3158  0.2136
  144OSM    H3S15722   6.874   7.162   2.115 -1.8248  1.5072 -2.2511
  144OSM     O315723   6.823   6.992   2.010 -0.0631  0.1782 -0.2315
  144OSM    HO315724   6.751   7.005   1.948 -0.2188 -0.6233 -0.2208
  144OSM    C4S15725   6.823   7.001   2.239  0.0916 -0.2841 -0.4211
  144OSM    H4S15726   6.801   6.895   2.220  1.3692 -0.7896  0.8382
  144OSM    C5S15727   6.887   7.033   2.348 -0.8177 -0.2013 -0.4195
  144OSM    H5S15728   6.961   7.114   2.338  0.3262 -1.0218  1.2146
  144OSM    C6S15729   6.906   6.942   2.469  0.0205 -0.2149  0.5324
  144OSM    H6S15730   7.015   6.928   2.485  0.1995 -0.5608 -0.8967
  144OSM    H6T15731   6.851   6.847   2.450 -0.2241 -0.0809  0.5712
  144OSM    C7S15732   6.850   6.990   2.604  0.9927 -0.0800 -0.4419
  144OSM    H7S15733   6.867   6.926   2.693  1.3622  2.4283  1.3691
  144OSM    H7T15734   6.744   7.009   2.579  0.9656  1.4578  0.7660
  144OSM    C8S15735   6.921   7.118   2.645 -0.3570 -0.0140 -0.2180
  144OSM    H8S15736   6.908   7.198   2.568 -1.5064 -1.0618 -1.1195
  144OSM    H8T15737   7.030   7.105   2.662  0.5753  0.5736 -5.0279
  144OSM    C9S15738   6.868   7.161   2.778  0.7341 -0.4054 -0.8525
  144OSM    H9S15739   6.905   7.083   2.849 -1.6618  1.3174  2.4407
  144OSM    H9T15740   6.757   7.163   2.788  0.9391  2.2496  1.3842
  144OSM   C10S15741   6.917   7.301   2.827 -0.1247 -0.8936 -1.6005
  144OSM   H10S15742   6.886   7.377   2.752  0.3349  0.2480 -0.6642
  144OSM   H10T15743   7.028   7.300   2.819  0.0594  0.5071  0.2131
  144OSM   C11S15744   6.870   7.354   2.966  0.7623 -1.0058  1.1767
  144OSM   H11S15745   6.760   7.368   2.971  0.9124  0.6184  0.3825
  144OSM   H11T15746   6.910   7.457   2.964  2.0600 -1.4698 -3.4444
  144OSM   C12S15747   6.914   7.268   3.089  0.7110  0.2675  0.0150
  144OSM   H12S15748   7.023   7.291   3.097  0.5713  0.5226  1.2510
  144OSM   H12T15749   6.886   7.163   3.065 -0.8047  1.0436 -1.7053
  144OSM   C13S15750   6.847   7.316   3.219 -0.1043  0.7498 -0.5867
  144OSM   H13S15751   6.899   7.273   3.307 -1.8894 -0.3130 -0.0318
  144OSM   H13T15752   6.746   7.269   3.223 -0.2871  1.2969  3.2286
  144OSM   C14S15753   6.847   7.474   3.245  0.7498  0.4037 -0.0475
  144OSM   H14S15754   6.799   7.529   3.161 -1.3333  1.2296  1.6196
  144OSM   H14T15755   6.954   7.506   3.251  1.2714 -0.7606 -2.5872
  144OSM   C15S15756   6.775   7.502   3.375  0.3952  0.4282 -0.4215
  144OSM   H15S15757   6.824   7.441   3.454 -0.5102 -0.0326 -0.2149
  144OSM   H15T15758   6.666   7.488   3.363  0.1473  1.4583  0.5019
  144OSM   C16S15759   6.799   7.648   3.433  0.8852  0.1552 -0.5607
  144OSM   H16S15760   6.736   7.653   3.524  1.1169 -1.1277 -0.3227
  144OSM   H16T15761   6.792   7.726   3.354  0.1768  0.0836 -0.5653
  144OSM   C17S15762   6.939   7.659   3.491 -0.1548 -0.3623  0.4822
  144OSM   H17S15763   7.019   7.632   3.418  0.9211 -1.5459  2.0534
  144OSM   H17T15764   6.949   7.590   3.578  1.5254 -0.2576  0.3881
  144OSM   C18S15765   6.984   7.797   3.539  0.0516 -0.2207 -0.5235
  144OSM   H18S15766   7.006   7.864   3.453 -1.3157 -0.9809 -1.4940
  144OSM   H18T15767   7.076   7.780   3.598 -1.6043  0.5795  2.3673
  144OSM   H18U15768   6.908   7.843   3.605 -1.4505  0.2543 -2.5373
  144OSM    C1F15769   6.532   7.299   2.264  0.3011 -0.0573  0.7815
  144OSM     OF15770   6.424   7.262   2.218  0.5636 -0.7801  0.1855
  144OSM    C2F15771   6.531   7.405   2.361 -0.1433  0.0330  0.0459
  144OSM    H2F15772   6.426   7.442   2.365  0.3869  1.5991 -0.2176
  144OSM    H2G15773   6.588   7.489   2.315 -0.2237 -0.6887 -1.3962
  144OSM    C3F15774   6.588   7.367   2.494  0.3314 -0.5175 -0.0071
  144OSM    H3F15775   6.591   7.453   2.563  0.3055 -1.7784  1.5864
  144OSM    H3G15776   6.696   7.345   2.483  0.0048 -2.3008  0.1374
  144OSM    C4F15777   6.515   7.247   2.556 -0.5451 -0.6030 -0.1775
  144OSM    H4F15778   6.569   7.225   2.650 -2.1086 -0.1247  0.8457
  144OSM    H4G15779   6.542   7.158   2.495 -0.1656 -0.1176 -0.7179
  144OSM    C5F15780   6.367   7.263   2.583  0.4613 -0.1663  0.1026
  144OSM    H5F15781   6.338   7.187   2.659  1.8102  0.5495  1.3399
  144OSM    H5G15782   6.314   7.231   2.490  1.9759  1.7565 -1.4635
  144OSM    C6F15783   6.310   7.394   2.628  0.5158  0.6119 -0.0401
  144OSM    H6F15784   6.200   7.392   2.644  0.4476 -4.0054 -0.2733
  144OSM    H6G15785   6.331   7.471   2.552 -0.5938 -0.2625 -1.2483
  144OSM    C7F15786   6.369   7.430   2.764 -0.0914 -0.1575  0.0317
  144OSM    H7F15787   6.327   7.530   2.789  0.4333  0.3818 -1.2071
  144OSM    H7G15788   6.480   7.428   2.752  0.0361 -1.8477  1.2329
  144OSM    C8F15789   6.342   7.333   2.876 -0.2222 -0.9173 -0.1859
  144OSM    H8F15790   6.398   7.238   2.858 -0.8102 -1.0527 -1.3151
  144OSM    H8G15791   6.234   7.312   2.893  0.1192 -2.6981 -0.0763
  144OSM    C9F15792   6.398   7.384   3.004  0.4104 -0.3233 -0.0792
  144OSM    H9F15793   6.444   7.484   2.994  0.3521 -0.2642  0.2322
  144OSM   C10F15794   6.401   7.321   3.125  0.1457 -1.0598  0.9518
  144OSM   H10F15795   6.431   7.386   3.208  4.0110 -1.7709  0.2203
  144OSM   C11F15796   6.346   7.188   3.162  0.2555 -0.0263 -0.2492
  144OSM   H11F15797   6.329   7.124   3.073  2.5247 -1.0448  0.0330
  144OSM   H11G15798   6.239   7.194   3.192  0.2684  0.2189 -0.2469
  144OSM   C12F15799   6.432   7.107   3.263 -0.3114  0.4169 -0.2519
  144OSM   H12F15800   6.522   7.077   3.205 -1.5054 -0.5884 -1.6279
  144OSM   H12G15801   6.367   7.019   3.284  0.2194 -1.1576 -4.5634
  144OSM   C13F15802   6.466   7.176   3.392  0.2464 -0.2435  0.0814
  144OSM   H13F15803   6.386   7.245   3.426 -0.5595 -1.9166  1.7033
  144OSM   H13G15804   6.546   7.252   3.383  1.1689 -1.1185  0.7181
  144OSM   C14F15805   6.492   7.080   3.506  0.0486 -0.3602 -0.9824
  144OSM   H14F15806   6.543   7.138   3.586 -1.0693 -1.3839  0.5121
  144OSM   H14G15807   6.562   7.000   3.474  0.6280  0.2723 -1.3106
  144OSM   C15F15808   6.369   7.004   3.575 -0.9633  0.8439 -0.4132
  144OSM   H15F15809   6.340   6.912   3.520  0.0410  0.4312 -0.2646
  144OSM   H15G15810   6.281   7.069   3.560 -0.3126  1.5224 -1.4150
  144OSM   C16F15811   6.387   6.966   3.718 -0.1444 -0.3577 -0.4908
  144OSM   H16F15812   6.296   6.929   3.769 -0.0342 -1.2239 -0.9230
  144OSM   H16G15813   6.413   7.058   3.775 -0.5452 -0.8984  0.5686
  144OSM   C17F15814   6.502   6.867   3.742  0.3671 -0.4321 -0.2713
  144OSM   H17F15815   6.597   6.909   3.704 -1.0005  0.2267 -3.1289
  144OSM   H17G15816   6.490   6.776   3.678  0.4898 -0.2669 -0.5318
  144OSM   C18F15817   6.516   6.820   3.885 -0.0184 -0.7577  0.4924
  144OSM   H18F15818   6.578   6.727   3.887 -1.2427 -1.6353 -0.9899
  144OSM   H18G15819   6.420   6.790   3.933 -0.0611 -1.3512  0.0458
  144OSM   H18H15820   6.560   6.900   3.947  1.8973 -0.5825 -1.0291
  145SAPE     N15821   2.205   3.082   5.955 -0.3305  0.6768  0.4366
  145SAPE   HN115822   2.309   3.085   5.958 -0.3172  1.0471 -0.3048
  145SAPE   HN215823   2.168   3.019   5.881  0.6042 -0.1082  0.6215
  145SAPE   HN315824   2.175   3.179   5.935 -0.9336  0.0552 -1.7810
  145SAPE   C1215825   2.146   3.055   6.093 -0.0861 -0.7377  0.4420
  145SAPE  H12A15826   2.220   3.061   6.176 -0.4044 -2.2357  0.8409
  145SAPE  H12B15827   2.123   2.947   6.101  0.2731 -0.7605  1.2244
  145SAPE   C1115828   2.027   3.142   6.130  0.5200  0.5970  0.1614
  145SAPE  H11A15829   2.058   3.246   6.106 -0.1967  0.0524 -3.2673
  145SAPE  H11B15830   1.995   3.134   6.236  1.3508  0.5100  0.4103
  145SAPE     P15831   1.798   3.218   6.041 -0.3146  0.1615  0.2246
  145SAPE   O1315832   1.681   3.162   6.112  0.4954  0.2235  0.3513
  145SAPE   O1415833   1.841   3.350   6.089 -0.0836  0.0030 -0.3392
  145SAPE   O1215834   1.920   3.113   6.038 -0.2755  0.5581  0.6569
  145SAPE   O1115835   1.755   3.232   5.895  0.5003  0.0684  0.1023
  145SAPE    C115836   1.844   3.240   5.786 -0.0418  0.2182  0.3236
  145SAPE    HA15837   1.951   3.222   5.809  0.1118  0.6878 -0.0298
  145SAPE    HB15838   1.803   3.163   5.716 -2.6275 -0.5922  2.6247
  145SAPE    C215839   1.846   3.384   5.722  1.0059 -0.2003 -0.5967
  145SAPE    HS15840   1.842   3.462   5.801  0.9284  0.3294 -1.1181
  145SAPE   O2115841   1.733   3.379   5.636 -0.7184  0.0459 -0.7355
  145SAPE   C2115842   1.633   3.470   5.661  0.3609  0.6424  0.1380
  145SAPE   O2215843   1.634   3.551   5.751 -0.2549 -0.2055 -0.1207
  145SAPE   C2215844   1.536   3.469   5.550 -0.1619 -0.5472  0.2459
  145SAPE   H2R15845   1.541   3.577   5.525 -3.9790 -0.6743 -1.4686
  145SAPE   H2S15846   1.575   3.420   5.459  1.1278  3.0827 -1.2358
  145SAPE    C315847   1.961   3.422   5.619  0.2157 -0.4540  0.6530
  145SAPE    HX15848   2.062   3.416   5.666  0.4183  1.8329  0.5503
  145SAPE    HY15849   1.944   3.530   5.600  0.8106 -0.3056  0.9458
  145SAPE   O3115850   1.967   3.347   5.496  0.4621  0.6514 -0.0579
  145SAPE   C3115851   2.021   3.229   5.490  0.2218  0.6525 -0.0366
  145SAPE   O3215852   2.085   3.174   5.580  0.1523 -0.3544  0.3053
  145SAPE   C3215853   1.996   3.167   5.358  0.2057  0.2425 -0.2104
  145SAPE   H2X15854   2.017   3.246   5.282  0.2542  1.1680  0.7450
  145SAPE   H2Y15855   1.888   3.149   5.342  0.2522  0.0652 -0.3281
  145SAPE   C2315856   1.389   3.443   5.593 -0.0794  0.2396  0.3612
  145SAPE   H3R15857   1.334   3.535   5.623  1.4728  0.8744  1.3126
  145SAPE   H3S15858   1.387   3.380   5.684  0.7005  1.5014  1.2621
  145SAPE   C2415859   1.328   3.364   5.477  0.6769  0.4738 -0.0620
  145SAPE   H4R15860   1.304   3.262   5.514  1.7848  0.5203  0.8161
  145SAPE   H4S15861   1.396   3.351   5.391 -1.0753 -1.9370 -1.1590
  145SAPE   C2515862   1.199   3.424   5.436 -0.7507 -0.1256  1.3159
  145SAPE   H5R15863   1.208   3.530   5.407  0.4356 -0.8381 -1.0998
  145SAPE   C2615864   1.086   3.352   5.404  0.2474  0.2661  0.5287
  145SAPE   H6R15865   0.995   3.399   5.364 -0.1411 -0.8293  0.0937
  145SAPE   C2715866   1.070   3.202   5.429 -0.1870  0.1865  0.1603
  145SAPE   H7R15867   0.962   3.185   5.409  0.1701 -0.5269 -1.3013
  145SAPE   H7S15868   1.085   3.172   5.535 -0.1148  2.1292  0.7208
  145SAPE   C2815869   1.161   3.106   5.345 -0.7245  0.6903  0.4107
  145SAPE   H8R15870   1.216   3.036   5.408  0.2254  1.1926  0.1515
  145SAPE   C2915871   1.181   3.093   5.210 -0.1601  0.4778 -0.2025
  145SAPE   H9R15872   1.240   3.006   5.177  1.2702  0.0839  3.1542
  145SAPE  C21015873   1.128   3.195   5.103  0.0495  0.6073 -0.0956
  145SAPE  H10R15874   1.042   3.256   5.141  0.3388  1.0897 -0.2066
  145SAPE  H10S15875   1.062   3.139   5.033 -1.0140  0.2021  1.2022
  145SAPE  C21115876   1.238   3.278   5.034 -0.5917  0.4735 -0.2802
  145SAPE  H11R15877   1.268   3.366   5.094 -1.3545 -0.4966  1.5677
  145SAPE  C21215878   1.290   3.251   4.916 -0.3977 -0.4552 -0.2362
  145SAPE  H12R15879   1.362   3.327   4.883 -0.3101  0.2113  1.4309
  145SAPE  C21315880   1.258   3.150   4.816 -0.5563  0.1287 -0.2698
  145SAPE  H13R15881   1.173   3.179   4.751 -0.9625  1.7097  0.9302
  145SAPE  H13S15882   1.236   3.053   4.865 -1.0397  0.0167 -0.7135
  145SAPE  C21415883   1.366   3.130   4.716 -0.5716  0.3417  0.2077
  145SAPE  H14R15884   1.430   3.043   4.739 -0.7888 -0.1673 -1.0848
  145SAPE  C21515885   1.398   3.220   4.617  0.2380 -0.1665 -0.2194
  145SAPE  H15R15886   1.483   3.199   4.550 -0.4009  1.4014 -1.5527
  145SAPE  C21615887   1.324   3.347   4.588  0.6393  0.1143 -0.3683
  145SAPE  H16R15888   1.394   3.429   4.613 -0.4466  1.1039 -0.4891
  145SAPE  H16S15889   1.244   3.368   4.663 -0.4469 -2.5218 -0.7463
  145SAPE  C21715890   1.258   3.363   4.447 -0.6577 -0.3883 -0.0440
  145SAPE  H17R15891   1.197   3.455   4.436  0.0652 -0.0423 -1.3470
  145SAPE  H17S15892   1.189   3.276   4.436 -0.6093 -0.4216 -0.0876
  145SAPE  C21815893   1.364   3.353   4.336  0.2636 -0.2691 -0.0130
  145SAPE  H18R15894   1.310   3.373   4.241 -0.4147  0.6356  0.5631
  145SAPE  H18S15895   1.411   3.252   4.333  1.8415  0.4603 -0.2861
  145SAPE  C21915896   1.472   3.458   4.349  0.0305 -0.0549 -0.4952
  145SAPE  H19R15897   1.486   3.486   4.456 -1.0022 -0.9812 -0.0985
  145SAPE  H19S15898   1.449   3.556   4.303  1.2296 -0.6554 -2.4290
  145SAPE  C22015899   1.609   3.428   4.290 -0.5910  0.2843 -0.5387
  145SAPE  H20R15900   1.656   3.350   4.354  0.6042  0.9386 -0.6084
  145SAPE  H20S15901   1.674   3.518   4.297  1.3678 -1.2419  2.0082
  145SAPE  H20T15902   1.601   3.390   4.186 -2.0029 -0.7453 -0.0657
  145SAPE   C3315903   2.081   3.033   5.339  0.6452 -0.3111 -0.2879
  145SAPE   H3X15904   2.063   2.968   5.428  0.6488  0.9442  0.6576
  145SAPE   H3Y15905   2.189   3.058   5.343  0.0677  2.2705 -0.0966
  145SAPE   C3415906   2.042   2.946   5.214 -0.0691  0.4045 -0.8695
  145SAPE   H4X15907   1.940   2.903   5.227  0.1609  0.6392  1.9969
  145SAPE   H4Y15908   2.109   2.858   5.215 -1.5433 -0.7295  0.7494
  145SAPE   C3515909   2.041   3.013   5.085  0.4686 -1.1344 -0.7434
  145SAPE   H5X15910   2.126   3.083   5.094  0.8055 -1.6121 -0.1898
  145SAPE   H5Y15911   1.956   3.082   5.067  0.5717 -1.1607 -1.3723
  145SAPE   C3615912   2.081   2.915   4.966 -0.2071  0.3366  0.1407
  145SAPE   H6X15913   1.998   2.841   4.966 -0.0303  0.1147  2.0850
  145SAPE   H6Y15914   2.180   2.875   4.994 -1.4823 -0.8437  3.2234
  145SAPE   C3715915   2.072   2.973   4.827  0.4338 -0.0421  0.2631
  145SAPE   H7X15916   2.104   2.883   4.770 -1.4335 -0.2098 -0.5520
  145SAPE   H7Y15917   2.157   3.044   4.823 -0.2182  1.0404  3.8268
  145SAPE   C3815918   1.932   3.021   4.787  0.1368 -0.3570  0.0818
  145SAPE   H8X15919   1.949   3.113   4.726 -0.8455  0.6428  1.2995
  145SAPE   H8Y15920   1.868   3.042   4.875  1.8254 -3.2143  2.0460
  145SAPE   C3915921   1.858   2.930   4.693  0.7703  0.2230  0.0487
  145SAPE   H9X15922   1.840   2.834   4.746  0.8547  0.4445  0.4794
  145SAPE   H9Y15923   1.924   2.912   4.606  3.1065  1.6990  1.4472
  145SAPE  C31015924   1.729   2.990   4.630  0.6941 -0.6387 -0.0463
  145SAPE  H10X15925   1.761   3.087   4.586  0.0832 -0.5838 -0.3716
  145SAPE  H10Y15926   1.654   3.019   4.707 -0.4701 -1.4231 -0.8801
  145SAPE  C31115927   1.652   2.895   4.534 -0.3050 -0.7027 -0.7518
  145SAPE  H11X15928   1.542   2.912   4.529 -0.4601 -2.1259 -2.6394
  145SAPE  H11Y15929   1.670   2.789   4.561 -0.7344 -0.7877 -0.8021
  145SAPE  C31215930   1.686   2.912   4.390  0.4700 -0.0072 -0.9118
  145SAPE  H12X15931   1.654   2.816   4.345 -1.9048 -0.3911  1.4691
  145SAPE  H12Y15932   1.795   2.924   4.371  0.1485 -1.0424 -3.6005
  145SAPE  C31315933   1.606   3.027   4.340  0.1098 -0.3406 -0.3155
  145SAPE  H13X15934   1.632   3.126   4.384 -0.5256 -1.3662  2.4598
  145SAPE  H13Y15935   1.498   3.011   4.360 -0.1790 -1.6206 -2.7281
  145SAPE  C31415936   1.615   3.029   4.186  0.3781 -0.4697 -0.1428
  145SAPE  H14X15937   1.535   3.100   4.156  1.7952  0.7627 -1.1301
  145SAPE  H14Y15938   1.585   2.932   4.141  1.5976 -0.2640 -1.4374
  145SAPE  C31515939   1.750   3.079   4.121  0.9642  0.3647  0.2028
  145SAPE  H15X15940   1.832   3.018   4.164  1.2017  1.2249  0.9823
  145SAPE  H15Y15941   1.776   3.182   4.154  0.1099  0.3309  0.9971
  145SAPE  C31615942   1.741   3.070   3.960 -0.6297  0.4977 -0.0570
  145SAPE  H16X15943   1.676   3.159   3.942  0.0339  1.1703  0.8472
  145SAPE  H16Y15944   1.712   2.977   3.907  0.1314 -0.1316  0.6202
  145SAPE  C31715945   1.880   3.101   3.899  0.5312  0.0195 -0.0281
  145SAPE  H17X15946   1.948   3.014   3.917  0.0781 -0.1700  0.8275
  145SAPE  H17Y15947   1.925   3.197   3.931 -2.2557  1.0425  0.9809
  145SAPE  C31815948   1.863   3.122   3.750  0.2088 -0.2171  0.5263
  145SAPE  H18X15949   1.767   3.175   3.734 -0.3789 -1.0577  1.1927
  145SAPE  H18Y15950   1.851   3.023   3.699 -1.7885 -0.0371  0.6221
  145SAPE  H18Z15951   1.944   3.185   3.707 -0.8132 -0.0217 -1.1419
  146SAPE     N15952   4.213   2.498   6.093  0.5070  0.2532 -0.1532
  146SAPE   HN115953   4.119   2.535   6.118 -0.3725 -1.5978 -0.6868
  146SAPE   HN215954   4.228   2.397   6.110 -0.0091  0.0224 -1.0241
  146SAPE   HN315955   4.272   2.557   6.154 -3.1423  2.7296  1.1610
  146SAPE   C1215956   4.251   2.547   5.955  0.4360  0.1869  0.5917
  146SAPE  H12A15957   4.242   2.656   5.939 -0.6652 -0.3934 -3.2454
  146SAPE  H12B15958   4.183   2.502   5.880 -0.1396  1.1041  0.5586
  146SAPE   C1115959   4.397   2.505   5.927  0.9818  0.1001 -0.2522
  146SAPE  H11A15960   4.429   2.508   5.821  1.5561 -1.5211 -0.1384
  146SAPE  H11B15961   4.408   2.395   5.941  1.2443  0.2754  0.9785
  146SAPE     P15962   4.599   2.520   6.090  0.1331 -0.0246 -0.1315
  146SAPE   O1315963   4.700   2.631   6.107  0.3368  0.0846 -0.1635
  146SAPE   O1415964   4.549   2.456   6.216 -0.5140 -0.1062  0.2132
  146SAPE   O1215965   4.482   2.585   6.008 -0.0661 -0.1076 -0.0926
  146SAPE   O1115966   4.659   2.406   5.999 -0.0734 -0.2203  0.2388
  146SAPE    C115967   4.730   2.431   5.880  0.1749  0.4098  0.0593
  146SAPE    HA15968   4.709   2.352   5.805  0.4280  0.8654 -0.4960
  146SAPE    HB15969   4.693   2.522   5.828 -2.1120 -0.8220 -0.5801
  146SAPE    C215970   4.877   2.440   5.896  0.0426  0.1746 -0.0891
  146SAPE    HS15971   4.888   2.518   5.974 -0.9712  1.2016 -0.9623
  146SAPE   O2115972   4.931   2.468   5.764 -0.1823 -0.1176  0.7677
  146SAPE   C2115973   4.970   2.595   5.753  0.3000 -0.1104 -0.2272
  146SAPE   O2215974   4.951   2.691   5.826  0.4639  0.2328 -0.1620
  146SAPE   C2215975   5.043   2.604   5.614 -0.0359  0.1782 -0.4637
  146SAPE   H2R15976   5.073   2.500   5.592  0.2481  0.1615  0.0096
  146SAPE   H2S15977   4.971   2.635   5.534 -1.2569  0.7268  0.8207
  146SAPE    C315978   4.927   2.301   5.956 -0.1329 -0.1156  0.1637
  146SAPE    HX15979   4.880   2.286   6.055 -0.9403  0.2650 -0.1559
  146SAPE    HY15980   5.037   2.300   5.969 -0.0118  1.5037 -0.6231
  146SAPE   O3115981   4.900   2.190   5.872  0.1920  0.0081 -0.1818
  146SAPE   C3115982   4.969   2.182   5.764  0.0003 -0.9742  0.7682
  146SAPE   O3215983   5.084   2.218   5.751 -0.0495 -0.1604  0.0783
  146SAPE   C3215984   4.900   2.098   5.671 -0.8575  0.1148  0.0015
  146SAPE   H2X15985   4.791   2.115   5.680 -0.3279  2.7580  2.2173
  146SAPE   H2Y15986   4.936   1.993   5.682  0.1797  0.4625  0.0256
  146SAPE   C2315987   5.180   2.681   5.624 -0.1779 -0.1209  0.1570
  146SAPE   H3R15988   5.229   2.656   5.721 -3.5463 -0.5074  1.8318
  146SAPE   H3S15989   5.165   2.791   5.625  0.6544 -0.0082  0.6805
  146SAPE   C2415990   5.261   2.638   5.501  0.4371 -0.0467 -0.1804
  146SAPE   H4R15991   5.201   2.647   5.409  0.9828 -0.3040 -0.5672
  146SAPE   H4S15992   5.287   2.531   5.516  1.1709  0.2412  0.6829
  146SAPE   C2515993   5.387   2.717   5.487 -0.0617 -0.3278 -0.1973
  146SAPE   H5R15994   5.468   2.682   5.553 -1.0332 -1.6126  0.3230
  146SAPE   C2615995   5.409   2.826   5.414  0.2546 -0.1485  0.0356
  146SAPE   H6R15996   5.513   2.863   5.407  0.2784 -0.2324 -0.0566
  146SAPE   C2715997   5.305   2.898   5.325  0.3177 -0.7945 -0.0154
  146SAPE   H7R15998   5.288   2.994   5.380  1.4237 -0.4601 -0.2467
  146SAPE   H7S15999   5.203   2.853   5.329 -0.3940  0.6162 -1.5101
  146SAPE   C2816000   5.357   2.918   5.187 -0.1874  0.8333 -0.5368
  146SAPE   H8R16001   5.416   3.010   5.175 -0.9803  1.6057  1.3228
  146SAPE   C2916002   5.336   2.841   5.085  0.2293 -0.4045 -0.4340
  146SAPE   H9R16003   5.371   2.876   4.987 -0.9589  0.4749 -0.5683
  146SAPE  C21016004   5.265   2.709   5.070  0.8404 -0.7057  0.0833
  146SAPE  H10R16005   5.315   2.632   5.132 -0.0762 -2.1933 -0.9971
  146SAPE  H10S16006   5.277   2.681   4.963 -0.1428 -1.1473  0.0893
  146SAPE  C21116007   5.115   2.708   5.097 -0.1081 -0.0202 -0.1766
  146SAPE  H11R16008   5.092   2.785   5.173 -1.1940 -1.5344  1.0768
  146SAPE  C21216009   5.023   2.637   5.041 -0.3706 -0.2961  0.3279
  146SAPE  H12R16010   4.918   2.638   5.074 -0.9397  0.0654 -1.4561
  146SAPE  C21316011   5.057   2.542   4.925 -0.3877  0.1302  0.7393
  146SAPE  H13R16012   5.095   2.610   4.845  0.6720  0.0109  1.1257
  146SAPE  H13S16013   4.959   2.510   4.885 -0.3720 -0.2826  1.0358
  146SAPE  C21416014   5.139   2.420   4.971 -0.5652 -0.7338  0.6280
  146SAPE  H14R16015   5.117   2.374   5.068 -0.1099 -0.1388  1.0137
  146SAPE  C21516016   5.242   2.372   4.893  0.7825  0.5505 -0.1680
  146SAPE  H15R16017   5.290   2.278   4.926 -0.3152 -0.0045 -0.1388
  146SAPE  C21616018   5.287   2.418   4.759 -1.1554 -0.0048  0.0218
  146SAPE  H16R16019   5.312   2.526   4.775 -1.6814  0.1508 -0.1975
  146SAPE  H16S16020   5.206   2.413   4.684  0.5281 -1.9101 -1.7360
  146SAPE  C21716021   5.424   2.352   4.726  0.5244  0.3687 -0.1605
  146SAPE  H17R16022   5.401   2.249   4.694  1.5566 -0.0647  0.4641
  146SAPE  H17S16023   5.486   2.360   4.818 -0.1875  0.0620  0.3450
  146SAPE  C21816024   5.512   2.428   4.627  1.1881  0.6277 -0.3615
  146SAPE  H18R16025   5.613   2.389   4.653  0.2613 -1.3216  0.4505
  146SAPE  H18S16026   5.524   2.536   4.649 -1.1872  0.4036  2.4064
  146SAPE  C21916027   5.468   2.403   4.488  0.1374 -0.4407  0.6385
  146SAPE  H19R16028   5.372   2.452   4.464  0.2455 -0.0089  1.0773
  146SAPE  H19S16029   5.462   2.295   4.461  0.1030 -0.5200  0.9524
  146SAPE  C22016030   5.583   2.444   4.394  0.3635 -0.0910 -0.1334
  146SAPE  H20R16031   5.620   2.546   4.414 -1.1420  0.3611  0.4217
  146SAPE  H20S16032   5.558   2.422   4.287 -1.4177  2.3262 -0.2556
  146SAPE  H20T16033   5.668   2.375   4.413  0.7080  0.2092 -0.5868
  146SAPE   C3316034   4.920   2.137   5.524  0.6360  0.0016 -0.2765
  146SAPE   H3X16035   4.888   2.052   5.459  0.6243 -1.9556  2.2185
  146SAPE   H3Y16036   5.028   2.147   5.497  1.0899 -0.0612  1.4558
  146SAPE   C3416037   4.837   2.257   5.485  0.2568 -0.9374 -0.1042
  146SAPE   H4X16038   4.903   2.347   5.482  0.2583 -0.9466 -0.3754
  146SAPE   H4Y16039   4.759   2.275   5.562  1.3794  2.3104  0.3503
  146SAPE   C3516040   4.785   2.252   5.346 -0.2478 -0.7122 -0.3025
  146SAPE   H5X16041   4.745   2.352   5.318  0.9579 -0.6936 -2.0343
  146SAPE   H5Y16042   4.699   2.182   5.345 -0.0869 -0.9153  0.0863
  146SAPE   C3616043   4.888   2.218   5.233 -0.3947  0.6278 -0.2544
  146SAPE   H6X16044   4.941   2.121   5.246 -2.5048 -0.3443  1.3594
  146SAPE   H6Y16045   4.979   2.281   5.242  0.7432 -1.1781  1.2862
  146SAPE   C3716046   4.838   2.204   5.087 -0.0244  0.5267  0.0738
  146SAPE   H7X16047   4.798   2.102   5.068  0.8255  0.1082  0.5213
  146SAPE   H7Y16048   4.913   2.227   5.009 -0.5491 -1.5366 -1.0773
  146SAPE   C3816049   4.732   2.311   5.042 -0.2200 -0.6754  0.4769
  146SAPE   H8X16050   4.777   2.411   5.060  0.1609 -1.0539  1.6922
  146SAPE   H8Y16051   4.641   2.317   5.105 -0.2280  1.2527  0.3150
  146SAPE   C3916052   4.689   2.289   4.895  0.1262 -0.5627  0.1596
  146SAPE   H9X16053   4.624   2.199   4.893 -2.1581  0.9913  1.0450
  146SAPE   H9Y16054   4.775   2.270   4.827 -0.7227  0.5495 -1.2706
  146SAPE  C31016055   4.616   2.424   4.843  0.0579  0.1198 -0.2697
  146SAPE  H10X16056   4.682   2.511   4.866  1.9648 -1.4734  0.4741
  146SAPE  H10Y16057   4.531   2.437   4.913  0.6031 -2.4996  0.9247
  146SAPE  C31116058   4.555   2.424   4.705  0.3459  0.2939 -0.7270
  146SAPE  H11X16059   4.467   2.357   4.702 -0.0484  0.8325 -1.2206
  146SAPE  H11Y16060   4.617   2.384   4.622 -1.1663  0.8022 -2.1286
  146SAPE  C31216061   4.518   2.570   4.661  0.3145  0.7173 -0.8177
  146SAPE  H12X16062   4.473   2.564   4.559 -2.1251  0.3739  0.2549
  146SAPE  H12Y16063   4.620   2.607   4.639  1.3403 -2.7206 -2.0906
  146SAPE  C31316064   4.438   2.655   4.755 -0.4989 -0.9102  0.0330
  146SAPE  H13X16065   4.489   2.662   4.854 -2.7072  0.3874  1.1195
  146SAPE  H13Y16066   4.344   2.602   4.778  0.9742 -2.2060  3.3747
  146SAPE  C31416067   4.407   2.803   4.712 -0.3470  0.5323 -1.9886
  146SAPE  H14X16068   4.350   2.796   4.617  0.3348  1.3327 -2.4711
  146SAPE  H14Y16069   4.512   2.836   4.697  0.4566  0.0985  2.1494
  146SAPE  C31516070   4.323   2.875   4.825  0.0827 -0.6638  0.3731
  146SAPE  H15X16071   4.382   2.874   4.920  0.3878 -1.6138  0.1770
  146SAPE  H15Y16072   4.227   2.820   4.835 -0.9714  1.0942  0.2082
  146SAPE  C31616073   4.283   3.015   4.779 -0.3255 -0.3953 -0.2796
  146SAPE  H16X16074   4.234   3.077   4.857 -1.6904 -2.2335  0.3642
  146SAPE  H16Y16075   4.219   3.020   4.689 -0.3984  0.0657 -0.2053
  146SAPE  C31716076   4.403   3.101   4.744 -0.1665 -0.5537  0.2897
  146SAPE  H17X16077   4.471   3.057   4.667  0.5783  0.0331  0.5992
  146SAPE  H17Y16078   4.471   3.104   4.833  1.4091  1.1746 -0.9299
  146SAPE  C31816079   4.360   3.240   4.689 -0.4317  0.7190  0.5104
  146SAPE  H18X16080   4.454   3.297   4.669  0.1098  0.9375  3.4408
  146SAPE  H18Y16081   4.294   3.301   4.754  1.4881  1.0659  2.1632
  146SAPE  H18Z16082   4.301   3.220   4.597 -0.2527 -0.0523  0.5619
  147SAPE     N16083   3.422   6.111   6.187 -0.2194  0.1774  0.5159
  147SAPE   HN116084   3.514   6.113   6.235 -0.1128 -0.2223  0.3299
  147SAPE   HN216085   3.346   6.094   6.256  1.7692  1.4513  3.1261
  147SAPE   HN316086   3.421   6.032   6.119  3.7264  0.1873  0.3446
  147SAPE   C1216087   3.392   6.243   6.117  0.2352 -0.2406 -0.0822
  147SAPE  H12A16088   3.474   6.257   6.043 -1.1917 -1.3227 -1.8881
  147SAPE  H12B16089   3.385   6.322   6.195 -2.2009 -1.5703  1.1007
  147SAPE   C1116090   3.262   6.219   6.044 -0.2939  0.6773  0.0532
  147SAPE  H11A16091   3.269   6.140   5.966  0.4933  1.3410 -0.5641
  147SAPE  H11B16092   3.241   6.314   5.991  0.7747 -0.1796 -1.9855
  147SAPE     P16093   3.007   6.187   6.080 -0.3828 -0.0684  0.0124
  147SAPE   O1316094   2.920   6.142   6.192 -0.2275 -0.3729 -0.8212
  147SAPE   O1416095   2.965   6.313   6.019 -0.3817 -0.4315 -0.3224
  147SAPE   O1216096   3.152   6.193   6.133 -0.2007 -0.5907 -0.2532
  147SAPE   O1116097   3.020   6.083   5.964 -0.3377  0.3650  0.1707
  147SAPE    C116098   2.987   6.119   5.830  1.0644  0.0353 -0.1126
  147SAPE    HA16099   2.879   6.141   5.819  1.4479  1.3512 -1.5704
  147SAPE    HB16100   3.047   6.207   5.800  0.9390  0.3041  0.4310
  147SAPE    C216101   3.031   6.001   5.735  0.2929  0.6718 -0.4903
  147SAPE    HS16102   3.004   5.901   5.777  0.9198 -0.0758 -1.8396
  147SAPE   O2116103   3.167   6.013   5.711  0.0929  0.1060 -0.6169
  147SAPE   C2116104   3.231   5.900   5.685  0.2519  0.3475  0.4634
  147SAPE   O2216105   3.182   5.789   5.700 -0.0975  0.0955  0.2479
  147SAPE   C2216106   3.369   5.927   5.630  0.1843 -0.4267 -0.1101
  147SAPE   H2R16107   3.359   5.986   5.537  0.5719 -0.3860 -0.1296
  147SAPE   H2S16108   3.417   5.998   5.701 -0.8620  1.5664 -1.3736
  147SAPE    C316109   2.967   6.004   5.596  0.3365  0.5710  0.1863
  147SAPE    HX16110   2.987   6.099   5.541 -0.3890  0.9786  0.6174
  147SAPE    HY16111   2.857   5.999   5.604  0.3876 -3.1354 -0.7128
  147SAPE   O3116112   3.018   5.903   5.504 -0.0991  0.0515 -0.2880
  147SAPE   C3116113   2.965   5.786   5.521 -0.1421  0.3599  0.0208
  147SAPE   O3216114   2.871   5.757   5.594 -0.2090  0.8746 -0.0548
  147SAPE   C3216115   3.030   5.691   5.416  0.2661 -1.1563 -0.5664
  147SAPE   H2X16116   3.009   5.587   5.449  2.7347 -0.9112  2.0391
  147SAPE   H2Y16117   3.141   5.696   5.416  0.3121 -1.1383  2.2521
  147SAPE   C2316118   3.462   5.802   5.615 -0.9227  0.3604 -0.1845
  147SAPE   H3R16119   3.442   5.748   5.711 -1.7605 -0.0776 -0.6021
  147SAPE   H3S16120   3.570   5.828   5.606 -0.6892 -1.2897 -2.3825
  147SAPE   C2416121   3.440   5.705   5.504  0.2033 -1.1935 -0.5907
  147SAPE   H4R16122   3.373   5.743   5.424  2.3557  2.5669 -0.7058
  147SAPE   H4S16123   3.383   5.620   5.547  0.2259 -0.8932  0.0373
  147SAPE   C2516124   3.570   5.654   5.438 -0.3210  0.9168 -0.0027
  147SAPE   H5R16125   3.626   5.588   5.506 -0.2244  0.2571 -0.7216
  147SAPE   C2616126   3.608   5.665   5.311 -0.6238 -0.1874  0.7055
  147SAPE   H6R16127   3.711   5.634   5.286 -1.8366 -2.2130 -2.1535
  147SAPE   C2716128   3.533   5.724   5.193 -0.0145  0.0925 -0.0267
  147SAPE   H7R16129   3.603   5.788   5.134 -0.2578 -0.5064 -0.9837
  147SAPE   H7S16130   3.460   5.797   5.233 -0.5794 -1.4618  1.8523
  147SAPE   C2816131   3.447   5.632   5.108 -0.4469 -0.4122  0.3011
  147SAPE   H8R16132   3.402   5.551   5.168  1.1330 -1.3867  0.1779
  147SAPE   C2916133   3.403   5.646   4.979  0.4522  0.2323 -0.2416
  147SAPE   H9R16134   3.348   5.559   4.942  0.6706  0.0796 -0.2102
  147SAPE  C21016135   3.413   5.764   4.891  0.0220  0.4711  0.0061
  147SAPE  H10R16136   3.462   5.844   4.951 -0.7400  0.3769  0.7675
  147SAPE  H10S16137   3.313   5.809   4.874 -0.3433 -0.2659  0.2127
  147SAPE  C21116138   3.478   5.741   4.759  0.1502  0.2834 -1.0691
  147SAPE  H11R16139   3.531   5.647   4.739 -2.4389 -2.0451  2.3565
  147SAPE  C21216140   3.473   5.822   4.654  0.6051  0.2302  0.4745
  147SAPE  H12R16141   3.538   5.799   4.568  1.2814  2.7391  0.2556
  147SAPE  C21316142   3.402   5.956   4.631 -0.2755  1.1790  0.0945
  147SAPE  H13R16143   3.440   5.994   4.533 -1.3968  0.5694 -0.5839
  147SAPE  H13S16144   3.442   6.032   4.700  2.4947  1.3201 -1.5747
  147SAPE  C21416145   3.255   5.948   4.633  1.0662 -0.2479 -0.2395
  147SAPE  H14R16146   3.218   5.859   4.580 -1.8302  0.7397  0.0719
  147SAPE  C21516147   3.160   6.029   4.693  0.1273  0.5896 -0.3939
  147SAPE  H15R16148   3.056   5.996   4.705  0.3168 -0.1412 -0.7249
  147SAPE  C21616149   3.186   6.157   4.765 -0.2247  0.1980 -0.2714
  147SAPE  H16R16150   3.142   6.248   4.718  2.6717  1.7200 -0.1789
  147SAPE  H16S16151   3.292   6.192   4.775 -0.3138  0.3766  0.0809
  147SAPE  C21716152   3.120   6.151   4.911  0.1107  0.1391 -0.1068
  147SAPE  H17R16153   3.016   6.113   4.911  0.3736 -0.6106  0.7048
  147SAPE  H17S16154   3.121   6.253   4.955  0.3654  0.3599 -0.6188
  147SAPE  C21816155   3.209   6.064   5.003 -0.1756 -0.0723  1.2929
  147SAPE  H18R16156   3.318   6.088   4.999 -0.5748  1.7380  1.0213
  147SAPE  H18S16157   3.206   5.964   4.954  0.4109 -0.2176  1.5508
  147SAPE  C21916158   3.148   6.061   5.144  0.7483 -0.5395 -0.1102
  147SAPE  H19R16159   3.046   6.020   5.127  0.1876  1.3092 -1.3835
  147SAPE  H19S16160   3.129   6.165   5.176  0.1178 -0.9055  0.7080
  147SAPE  C22016161   3.230   5.981   5.251  0.2082  0.2468  0.2146
  147SAPE  H20R16162   3.324   6.035   5.276  0.9027  0.2891 -2.3989
  147SAPE  H20S16163   3.250   5.878   5.215  0.9422 -0.1745  1.7778
  147SAPE  H20T16164   3.171   5.976   5.345 -0.0775 -0.0897  0.0178
  147SAPE   C3316165   2.961   5.731   5.281 -0.0443  0.3389  0.1228
  147SAPE   H3X16166   2.977   5.839   5.260 -0.4206  0.7429  1.8219
  147SAPE   H3Y16167   2.853   5.714   5.297 -0.0456  0.5140  0.3089
  147SAPE   C3416168   3.024   5.646   5.164  0.3183 -0.6440  0.6744
  147SAPE   H4X16169   3.037   5.540   5.193  0.5398 -1.8176 -3.4298
  147SAPE   H4Y16170   3.129   5.677   5.145 -0.2252  1.2612  0.6072
  147SAPE   C3516171   2.942   5.671   5.035  0.0227  0.2038  0.3281
  147SAPE   H5X16172   2.938   5.781   5.016 -0.6085 -0.4337 -3.5483
  147SAPE   H5Y16173   2.837   5.642   5.055 -0.5288  1.1276 -1.1292
  147SAPE   C3616174   3.012   5.608   4.919  0.4497  0.2483 -0.3326
  147SAPE   H6X16175   3.042   5.503   4.938 -1.9736 -0.6581 -1.4486
  147SAPE   H6Y16176   3.109   5.660   4.900  2.6469 -3.1834  1.1125
  147SAPE   C3716177   2.936   5.627   4.784 -0.2561  0.0322  0.2323
  147SAPE   H7X16178   2.943   5.732   4.747  2.4609  0.1070  0.8944
  147SAPE   H7Y16179   2.829   5.601   4.797  0.1622 -2.7666 -1.4829
  147SAPE   C3816180   2.990   5.532   4.672  0.3066 -0.1210 -0.4761
  147SAPE   H8X16181   2.933   5.543   4.577  0.2971  0.5720 -0.3912
  147SAPE   H8Y16182   2.978   5.427   4.707  0.3488 -0.2647 -0.8852
  147SAPE   C3916183   3.140   5.550   4.634  0.6853 -0.0291  0.0701
  147SAPE   H9X16184   3.208   5.516   4.715  0.5909 -3.1896 -1.1098
  147SAPE   H9Y16185   3.145   5.661   4.629  0.1860  0.0013  0.2308
  147SAPE  C31016186   3.183   5.480   4.505 -0.0791 -1.0941 -0.1009
  147SAPE  H10X16187   3.116   5.520   4.425 -0.4426 -0.2224  0.6315
  147SAPE  H10Y16188   3.179   5.370   4.512  0.6736 -1.1611 -0.6457
  147SAPE  C31116189   3.333   5.515   4.480 -0.5795 -0.0080 -0.1328
  147SAPE  H11X16190   3.394   5.470   4.562 -0.3565 -2.1711 -1.4346
  147SAPE  H11Y16191   3.363   5.622   4.475  3.3535 -0.9185  1.9443
  147SAPE  C31216192   3.383   5.448   4.349 -0.0152  0.1096  0.4146
  147SAPE  H12X16193   3.343   5.498   4.258  0.2095 -0.6367 -0.0994
  147SAPE  H12Y16194   3.354   5.341   4.344  0.3803  0.1142 -2.9083
  147SAPE  C31316195   3.535   5.464   4.341 -0.3165 -0.3184 -0.4522
  147SAPE  H13X16196   3.583   5.428   4.434  0.4376  0.7452 -0.4152
  147SAPE  H13Y16197   3.559   5.572   4.332  1.2419 -0.3788  2.4871
  147SAPE  C31416198   3.592   5.375   4.237 -0.0764 -0.5080 -0.0664
  147SAPE  H14X16199   3.576   5.419   4.137  0.2355 -2.1263 -0.8465
  147SAPE  H14Y16200   3.532   5.281   4.235  1.6729 -1.6666  0.6932
  147SAPE  C31516201   3.744   5.347   4.261 -0.0861  0.0643  1.0869
  147SAPE  H15X16202   3.770   5.266   4.189  0.6220  0.4032  0.9578
  147SAPE  H15Y16203   3.758   5.314   4.366 -0.5273  1.6607  1.6672
  147SAPE  C31616204   3.845   5.461   4.238 -0.7463 -0.3366 -0.0326
  147SAPE  H16X16205   3.809   5.541   4.306  1.2692  2.1130 -1.7291
  147SAPE  H16Y16206   3.855   5.486   4.130 -1.7771  0.0621 -0.0376
  147SAPE  C31716207   3.994   5.438   4.277  0.3980 -0.4401 -0.4420
  147SAPE  H17X16208   4.038   5.364   4.206  1.6078 -0.1475 -0.0174
  147SAPE  H17Y16209   3.994   5.401   4.382  2.3848 -0.6842 -0.5010
  147SAPE  C31816210   4.090   5.567   4.273 -0.5031 -0.0267  0.4545
  147SAPE  H18X16211   4.089   5.602   4.167 -0.2668 -0.7086  0.2209
  147SAPE  H18Y16212   4.189   5.554   4.322 -1.6195 -0.1020  2.7045
  147SAPE  H18Z16213   4.039   5.646   4.332 -2.5233 -0.6832 -0.3686
  148SAPE     N16214   2.373   2.493   6.030  0.2191  0.7597  0.6629
  148SAPE   HN116215   2.427   2.527   6.111  1.3723 -1.5072  0.9089
  148SAPE   HN216216   2.436   2.483   5.947 -0.1681  0.5781  0.3854
  148SAPE   HN316217   2.307   2.569   6.007 -0.9573 -0.2687  0.6014
  148SAPE   C1216218   2.285   2.376   6.053 -0.3323 -0.1411 -0.0154
  148SAPE  H12A16219   2.303   2.344   6.158 -2.3096  0.7338  0.6087
  148SAPE  H12B16220   2.311   2.296   5.981 -0.4982  0.3067 -0.5762
  148SAPE   C1116221   2.132   2.410   6.042 -0.7923 -0.0646  0.0862
  148SAPE  H11A16222   2.077   2.314   6.050 -1.4989  0.2003 -1.4904
  148SAPE  H11B16223   2.109   2.449   5.941  3.3940 -0.2357 -1.0407
  148SAPE     P16224   2.067   2.657   6.105  0.0660  0.0980 -0.4415
  148SAPE   O1316225   2.038   2.734   6.227 -0.3232 -0.1639  0.2575
  148SAPE   O1416226   2.191   2.697   6.027  0.2325 -0.7542  0.7454
  148SAPE   O1216227   2.085   2.499   6.145  0.0645 -0.1663 -0.0104
  148SAPE   O1116228   1.942   2.662   6.005 -0.9042 -0.8653 -0.1448
  148SAPE    C116229   1.852   2.774   6.006 -0.8240 -0.1593  0.1490
  148SAPE    HA16230   1.784   2.768   6.094 -1.1127  0.5655 -0.0200
  148SAPE    HB16231   1.897   2.875   6.011  0.7298 -0.8554  0.4153
  148SAPE    C216232   1.756   2.765   5.882 -0.3172 -0.0207 -0.3164
  148SAPE    HS16233   1.662   2.818   5.906 -0.4399  0.1114 -1.0914
  148SAPE   O2116234   1.728   2.625   5.847 -0.0674 -0.1469  0.2460
  148SAPE   C2116235   1.651   2.566   5.935  0.4204 -0.0640 -0.0568
  148SAPE   O2216236   1.591   2.619   6.030 -0.1658 -0.5552  0.0562
  148SAPE   C2216237   1.655   2.418   5.923 -0.5445  0.6169  0.8809
  148SAPE   H2R16238   1.704   2.398   6.021  0.2053 -2.4290 -0.0552
  148SAPE   H2S16239   1.555   2.371   5.914  0.6706 -1.9553  0.1967
  148SAPE    C316240   1.822   2.844   5.763 -0.1925  0.4917 -0.8070
  148SAPE    HX16241   1.846   2.951   5.780 -0.1595  0.7486 -2.4348
  148SAPE    HY16242   1.740   2.834   5.689 -0.5670  0.2104 -0.3619
  148SAPE   O3116243   1.935   2.775   5.694  0.7022  0.0277  0.4104
  148SAPE   C3116244   2.053   2.809   5.735  0.3002 -0.2338 -0.4727
  148SAPE   O3216245   2.073   2.908   5.805 -0.6903 -0.1978 -0.6800
  148SAPE   C3216246   2.155   2.733   5.650 -0.2419 -0.3624 -0.8830
  148SAPE   H2X16247   2.255   2.778   5.667  0.9366 -2.1289 -2.9170
  148SAPE   H2Y16248   2.127   2.746   5.543 -0.5940 -0.3138 -0.7834
  148SAPE   C2316249   1.749   2.355   5.816  0.1720  0.5686  0.2181
  148SAPE   H3R16250   1.759   2.248   5.845 -4.9679 -0.0922  0.0234
  148SAPE   H3S16251   1.846   2.408   5.828 -0.4419  1.4963  1.1281
  148SAPE   C2416252   1.696   2.373   5.675  0.1015 -0.1074 -0.4462
  148SAPE   H4R16253   1.664   2.478   5.663  1.5024  0.4011  0.0963
  148SAPE   H4S16254   1.598   2.321   5.673 -1.6880  3.1360 -0.1127
  148SAPE   C2516255   1.782   2.320   5.569 -0.0969 -0.6579  0.2964
  148SAPE   H5R16256   1.810   2.216   5.589  2.1237 -0.0845  0.2970
  148SAPE   C2616257   1.823   2.370   5.447 -0.3002  0.0988  0.9159
  148SAPE   H6R16258   1.888   2.303   5.389  1.6055  1.3874  1.4942
  148SAPE   C2716259   1.806   2.516   5.406  0.1568  0.4478 -0.9589
  148SAPE   H7R16260   1.874   2.564   5.480 -2.8556  1.0536  1.5182
  148SAPE   H7S16261   1.701   2.552   5.415  0.2271  0.8697 -1.7670
  148SAPE   C2816262   1.858   2.550   5.269  0.2939 -0.1384 -0.5217
  148SAPE   H8R16263   1.953   2.495   5.259  0.4204  0.3798 -2.1901
  148SAPE   C2916264   1.822   2.642   5.190  1.3277  0.7648 -0.1761
  148SAPE   H9R16265   1.888   2.673   5.107 -1.7805 -1.6063 -3.7055
  148SAPE  C21016266   1.712   2.738   5.214  0.1112  0.2862 -1.0170
  148SAPE  H10R16267   1.755   2.809   5.288  0.1351 -1.7002  0.9229
  148SAPE  H10S16268   1.623   2.691   5.260 -0.2224  2.4142  0.6391
  148SAPE  C21116269   1.674   2.809   5.088 -0.6949 -0.3331  0.0506
  148SAPE  H11R16270   1.706   2.767   4.992 -0.7230 -0.2721  0.0144
  148SAPE  C21216271   1.610   2.926   5.091 -0.1679 -0.3911  0.0589
  148SAPE  H12R16272   1.585   2.976   4.996 -1.1913  0.0419  0.5451
  148SAPE  C21316273   1.555   2.977   5.222  0.0087  0.2988  0.1905
  148SAPE  H13R16274   1.533   2.897   5.296  1.1043 -0.3291 -0.1461
  148SAPE  H13S16275   1.457   3.017   5.188  0.1057 -0.2353 -0.7269
  148SAPE  C21416276   1.631   3.089   5.283 -1.1679  0.3095  0.4725
  148SAPE  H14R16277   1.681   3.065   5.378 -1.0009 -1.7077 -0.1067
  148SAPE  C21516278   1.654   3.215   5.230 -0.4063 -0.1734 -0.3401
  148SAPE  H15R16279   1.715   3.288   5.286 -3.7994  1.5829  1.2600
  148SAPE  C21616280   1.592   3.264   5.103  0.2269 -0.2870 -0.3756
  148SAPE  H16R16281   1.530   3.355   5.120  2.5844  1.1439  0.8459
  148SAPE  H16S16282   1.517   3.191   5.065  0.8103 -0.2916 -1.5296
  148SAPE  C21716283   1.705   3.294   5.002 -0.5611  0.2484 -0.7378
  148SAPE  H17R16284   1.768   3.204   4.986  2.1334  2.2713 -1.6470
  148SAPE  H17S16285   1.769   3.375   5.041 -1.6646  0.9872 -0.4235
  148SAPE  C21816286   1.665   3.319   4.860  0.6536  0.9992  0.2602
  148SAPE  H18R16287   1.581   3.390   4.848  0.0274  0.4038  1.0949
  148SAPE  H18S16288   1.622   3.221   4.829  0.1872  1.0193  0.8375
  148SAPE  C21916289   1.776   3.379   4.767  0.1962  0.1646 -0.7639
  148SAPE  H19R16290   1.868   3.317   4.774  0.7365  1.1068  0.5475
  148SAPE  H19S16291   1.812   3.477   4.804 -3.9052  1.6616 -0.4115
  148SAPE  C22016292   1.738   3.390   4.619  0.7215 -0.1811  0.4779
  148SAPE  H20R16293   1.824   3.367   4.552  0.5463  2.0440 -0.5629
  148SAPE  H20S16294   1.703   3.492   4.593  0.9783 -0.9877 -3.2776
  148SAPE  H20T16295   1.655   3.320   4.594 -0.9614  1.1783  2.1093
  148SAPE   C3316296   2.164   2.581   5.664 -0.0828 -0.5121 -0.1652
  148SAPE   H3X16297   2.068   2.528   5.647  0.1448 -0.1757 -2.6995
  148SAPE   H3Y16298   2.191   2.548   5.767 -0.3966 -3.0153 -0.8615
  148SAPE   C3416299   2.273   2.518   5.579 -0.1668 -0.8560 -0.2278
  148SAPE   H4X16300   2.287   2.414   5.614  1.5192  0.1162  2.1834
  148SAPE   H4Y16301   2.373   2.566   5.590  0.0790 -2.0730  3.3124
  148SAPE   C3516302   2.240   2.523   5.429  0.2664  0.3583 -0.2003
  148SAPE   H5X16303   2.224   2.631   5.406 -2.3551  0.3223  1.2522
  148SAPE   H5Y16304   2.135   2.489   5.421  0.3022 -0.3979  2.3991
  148SAPE   C3616305   2.338   2.454   5.347 -0.2773  0.5307 -0.2673
  148SAPE   H6X16306   2.349   2.351   5.386 -0.7781  0.5604 -0.0475
  148SAPE   H6Y16307   2.440   2.498   5.355 -0.8035  1.5958  0.6794
  148SAPE   C3716308   2.301   2.449   5.202 -0.5480  0.5986  0.1881
  148SAPE   H7X16309   2.389   2.421   5.141 -0.7535  0.2495  0.0480
  148SAPE   H7Y16310   2.274   2.549   5.162  1.1637  0.5861 -1.0197
  148SAPE   C3816311   2.182   2.348   5.160 -0.0130 -0.1175 -0.0106
  148SAPE   H8X16312   2.106   2.356   5.241  1.1630  1.0028  0.9951
  148SAPE   H8Y16313   2.235   2.251   5.157  1.6346  0.7959 -0.9607
  148SAPE   C3916314   2.110   2.376   5.028  0.5087  0.1359  0.6809
  148SAPE   H9X16315   2.187   2.390   4.948  0.2241  0.1020  0.4022
  148SAPE   H9Y16316   2.069   2.479   5.028  0.6111  0.1870 -0.3744
  148SAPE  C31016317   1.994   2.283   4.998 -0.3601  0.3374 -0.4998
  148SAPE  H10X16318   1.922   2.284   5.082 -0.3626 -0.2959 -0.4941
  148SAPE  H10Y16319   2.020   2.176   4.991  0.4768  0.2943  2.5702
  148SAPE  C31116320   1.925   2.293   4.863 -0.0144 -0.1663  0.5966
  148SAPE  H11X16321   1.820   2.257   4.869 -0.2007  0.4891  1.3883
  148SAPE  H11Y16322   1.961   2.219   4.789 -0.8688 -0.0888  0.0927
  148SAPE  C31216323   1.922   2.429   4.806  0.3659  0.1435  1.3980
  148SAPE  H12X16324   2.025   2.462   4.777  0.3814 -0.9567  0.1581
  148SAPE  H12Y16325   1.886   2.494   4.888  1.3372 -0.5791  2.4308
  148SAPE  C31316326   1.807   2.450   4.700  0.2604 -0.1378 -0.5708
  148SAPE  H13X16327   1.724   2.512   4.739 -0.4807 -1.1479 -0.5166
  148SAPE  H13Y16328   1.778   2.348   4.669 -0.7166  0.2997 -1.1069
  148SAPE  C31416329   1.860   2.514   4.571 -0.0801 -0.3022  0.8056
  148SAPE  H14X16330   1.911   2.611   4.585  2.1663 -1.0859 -1.6649
  148SAPE  H14Y16331   1.768   2.539   4.514  1.1585  1.1771 -0.5806
  148SAPE  C31516332   1.938   2.404   4.487  0.2128  0.1762 -0.5538
  148SAPE  H15X16333   1.866   2.322   4.466 -0.6262  0.8071 -0.1476
  148SAPE  H15Y16334   2.023   2.361   4.545 -1.5138 -4.4698 -1.2855
  148SAPE  C31616335   1.981   2.466   4.355  0.2065  0.3564 -0.4572
  148SAPE  H16X16336   2.050   2.552   4.367 -1.7819  1.8541  0.3684
  148SAPE  H16Y16337   1.885   2.502   4.314 -1.8885 -4.4957 -0.1872
  148SAPE  C31716338   2.048   2.367   4.258 -0.7348  0.8410  0.8096
  148SAPE  H17X16339   2.155   2.354   4.282 -0.5550  0.6941 -0.0396
  148SAPE  H17Y16340   2.053   2.423   4.162  2.5880 -1.2281 -0.2790
  148SAPE  C31816341   1.975   2.237   4.215  0.7437 -0.2269 -0.1185
  148SAPE  H18X16342   1.904   2.267   4.135  0.2477 -1.4252 -0.1345
  148SAPE  H18Y16343   1.917   2.186   4.294 -0.6465 -0.3203 -1.1779
  148SAPE  H18Z16344   2.035   2.162   4.159 -2.0305 -0.4055 -2.9963
  149SAPE     N16345   2.453   1.451   6.037 -0.4010  0.0631 -0.3438
  149SAPE   HN116346   2.405   1.538   6.008 -1.4062 -0.9046 -1.6322
  149SAPE   HN216347   2.390   1.373   6.065 -1.4973  1.4437  1.0844
  149SAPE   HN316348   2.505   1.472   6.125 -2.3415 -0.8684  1.0526
  149SAPE   C1216349   2.558   1.395   5.941  0.0358 -0.4795  0.3847
  149SAPE  H12A16350   2.509   1.394   5.841 -0.0548 -1.4424  0.4310
  149SAPE  H12B16351   2.587   1.291   5.968 -1.2322 -0.8384  0.3705
  149SAPE   C1116352   2.678   1.483   5.938 -0.1213  0.1627  0.4079
  149SAPE  H11A16353   2.760   1.434   5.882  0.1147  1.2005 -0.1573
  149SAPE  H11B16354   2.710   1.490   6.045  0.3812 -2.9488  0.5194
  149SAPE     P16355   2.744   1.738   5.926  0.6163 -0.1188 -0.5065
  149SAPE   O1316356   2.662   1.863   5.942  0.1523 -0.4298  0.1858
  149SAPE   O1416357   2.843   1.705   6.030  0.0528 -0.2943 -0.1191
  149SAPE   O1216358   2.651   1.614   5.895  0.3067 -0.8430  0.1486
  149SAPE   O1116359   2.831   1.748   5.793  0.2234 -0.1805  0.1640
  149SAPE    C116360   2.772   1.723   5.667  0.7778  0.4785  0.6094
  149SAPE    HA16361   2.662   1.737   5.665  0.7889  0.4551 -1.4228
  149SAPE    HB16362   2.805   1.796   5.590 -1.9104  1.9932  0.8401
  149SAPE    C216363   2.823   1.591   5.613 -0.5512 -0.3380  0.3316
  149SAPE    HS16364   2.788   1.502   5.671  1.5906 -0.7187  1.0748
  149SAPE   O2116365   2.965   1.595   5.624 -0.2833 -0.2741  0.1628
  149SAPE   C2116366   3.028   1.477   5.591 -0.0561 -1.0130 -0.0288
  149SAPE   O2216367   2.970   1.373   5.578  0.0385 -0.4247 -0.0220
  149SAPE   C2216368   3.170   1.504   5.566 -0.7965  0.5454 -0.1856
  149SAPE   H2R16369   3.179   1.578   5.483  2.1819 -0.0910 -0.4673
  149SAPE   H2S16370   3.213   1.550   5.658 -1.2572 -1.5625  1.1190
  149SAPE    C316371   2.782   1.566   5.461  0.1339 -0.2287  0.4787
  149SAPE    HX16372   2.799   1.458   5.440  1.4855 -0.1794  1.2570
  149SAPE    HY16373   2.868   1.606   5.403 -0.3147 -0.2193 -0.1770
  149SAPE   O3116374   2.651   1.612   5.425  0.0614  0.3117  0.3037
  149SAPE   C3116375   2.550   1.526   5.463  0.1301 -0.1044 -0.5383
  149SAPE   O3216376   2.577   1.431   5.534  0.3783  0.8072 -0.3096
  149SAPE   C3216377   2.415   1.566   5.410  0.0309 -1.0241 -0.0390
  149SAPE   H2X16378   2.421   1.675   5.390  1.2743 -1.1015 -0.1484
  149SAPE   H2Y16379   2.342   1.543   5.490  0.5390  1.5439  1.2055
  149SAPE   C2316380   3.248   1.368   5.548  0.5092  0.8032 -0.0518
  149SAPE   H3R16381   3.211   1.314   5.458 -0.3514  0.7661  0.3207
  149SAPE   H3S16382   3.236   1.301   5.635  0.5610 -0.0038 -0.6636
  149SAPE   C2416383   3.395   1.382   5.527 -0.1351 -0.1533  0.3969
  149SAPE   H4R16384   3.409   1.465   5.455  3.1804  1.7047  3.0573
  149SAPE   H4S16385   3.435   1.296   5.468  2.1926  1.8175 -1.0001
  149SAPE   C2516386   3.476   1.414   5.648 -0.4002 -0.1188 -0.1424
  149SAPE   H5R16387   3.469   1.340   5.729  1.3209  1.3895  1.4471
  149SAPE   C2616388   3.556   1.519   5.674  0.0081 -0.1041  0.3763
  149SAPE   H6R16389   3.620   1.525   5.764  2.0011  0.5444 -1.0495
  149SAPE   C2716390   3.604   1.624   5.572 -0.4335  0.1091  0.1489
  149SAPE   H7R16391   3.628   1.724   5.615  0.1717 -0.5677  1.3971
  149SAPE   H7S16392   3.519   1.636   5.501 -0.6206 -1.8643  0.0161
  149SAPE   C2816393   3.724   1.558   5.501 -0.0968 -0.4495 -0.4683
  149SAPE   H8R16394   3.815   1.551   5.562  0.7615  2.4809 -1.3485
  149SAPE   C2916395   3.724   1.499   5.389 -0.2463 -0.3508 -0.2214
  149SAPE   H9R16396   3.821   1.462   5.352 -0.3584  0.3715 -1.2610
  149SAPE  C21016397   3.623   1.492   5.278  0.3177 -0.2877  0.0926
  149SAPE  H10R16398   3.542   1.568   5.288 -0.5401 -1.3830  1.8038
  149SAPE  H10S16399   3.559   1.402   5.294 -1.2264  1.2013  2.4918
  149SAPE  C21116400   3.672   1.489   5.135  0.2138 -0.4412  0.2969
  149SAPE  H11R16401   3.700   1.589   5.099 -3.5068  1.6238  2.7720
  149SAPE  C21216402   3.711   1.386   5.060  0.1869 -1.3468 -0.6905
  149SAPE  H12R16403   3.751   1.402   4.958 -0.8236  2.5094 -0.5374
  149SAPE  C21316404   3.710   1.238   5.098  0.0570 -0.1974  0.4402
  149SAPE  H13R16405   3.635   1.209   5.175  0.4337 -2.0240  0.1513
  149SAPE  H13S16406   3.804   1.216   5.153 -0.2157  0.3407  1.1297
  149SAPE  C21416407   3.702   1.149   4.978 -1.2398  0.6880  0.0527
  149SAPE  H14R16408   3.789   1.082   4.968 -2.0250 -0.3964  0.3626
  149SAPE  C21516409   3.598   1.125   4.892 -1.1965 -0.0033 -0.1061
  149SAPE  H15R16410   3.616   1.046   4.816 -2.5083 -0.8936  0.4957
  149SAPE  C21616411   3.475   1.205   4.906 -0.1136  0.5711  0.4409
  149SAPE  H16R16412   3.479   1.316   4.910 -2.0106  0.6590  0.1646
  149SAPE  H16S16413   3.422   1.183   5.001 -2.0718  3.4894  0.0882
  149SAPE  C21716414   3.372   1.169   4.806 -0.2905  0.0331  0.5945
  149SAPE  H17R16415   3.277   1.226   4.811 -0.8453 -0.8226 -0.2085
  149SAPE  H17S16416   3.336   1.067   4.829  0.4077 -0.3020  0.2294
  149SAPE  C21816417   3.428   1.175   4.654  0.0061  0.5171  0.5961
  149SAPE  H18R16418   3.472   1.076   4.632 -1.3086 -0.1838  1.0614
  149SAPE  H18S16419   3.498   1.261   4.646 -0.3154  0.8251  1.0912
  149SAPE  C21916420   3.307   1.185   4.552 -0.1876 -0.5103  0.1772
  149SAPE  H19R16421   3.260   1.282   4.581 -1.0967 -1.6327  2.6285
  149SAPE  H19S16422   3.227   1.108   4.548 -1.4207  0.5316  3.3067
  149SAPE  C22016423   3.351   1.202   4.408  0.2730  0.0287  0.1710
  149SAPE  H20R16424   3.408   1.118   4.362 -1.1724 -1.3585  0.8664
  149SAPE  H20S16425   3.427   1.283   4.398  0.7571 -0.5360 -0.7766
  149SAPE  H20T16426   3.265   1.231   4.345  1.8532  3.1018 -0.6734
  149SAPE   C3316427   2.370   1.466   5.304 -0.4723  0.3315  0.0807
  149SAPE   H3X16428   2.264   1.488   5.280 -1.1380 -1.6412  1.1252
  149SAPE   H3Y16429   2.379   1.362   5.341 -1.7739 -0.0594 -0.6458
  149SAPE   C3416430   2.451   1.480   5.177  0.2515  0.3489 -0.3774
  149SAPE   H4X16431   2.558   1.464   5.203  0.1321 -1.7433 -1.1108
  149SAPE   H4Y16432   2.428   1.583   5.141  1.2169  0.0761 -1.7874
  149SAPE   C3516433   2.418   1.378   5.065  0.1368 -0.8779 -0.1608
  149SAPE   H5X16434   2.308   1.361   5.071 -0.2446  1.7045  0.5904
  149SAPE   H5Y16435   2.474   1.283   5.079  2.1490  0.0421 -1.7640
  149SAPE   C3616436   2.452   1.427   4.920 -0.1014 -0.4144  0.0708
  149SAPE   H6X16437   2.563   1.425   4.913 -0.0754 -1.8489  0.6317
  149SAPE   H6Y16438   2.416   1.532   4.921 -0.1354 -0.4361  1.2323
  149SAPE   C3716439   2.387   1.350   4.803 -0.2310 -0.1924 -0.9553
  149SAPE   H7X16440   2.291   1.305   4.839  1.4251 -1.1342  2.5797
  149SAPE   H7Y16441   2.452   1.267   4.768  0.9290  0.2719  0.0579
  149SAPE   C3816442   2.368   1.436   4.677 -0.1144 -0.4892 -0.1493
  149SAPE   H8X16443   2.314   1.528   4.708 -2.7249 -1.9119 -0.3427
  149SAPE   H8Y16444   2.308   1.375   4.606  0.8758 -2.8693  1.0158
  149SAPE   C3916445   2.501   1.471   4.607  0.4282 -0.1720  0.0091
  149SAPE   H9X16446   2.580   1.518   4.670  0.6015 -1.7515  1.0229
  149SAPE   H9Y16447   2.467   1.541   4.528  0.8937 -1.9518 -1.8215
  149SAPE  C31016448   2.573   1.357   4.538  0.1030  0.3137  0.1016
  149SAPE  H10X16449   2.506   1.315   4.460  0.7407  0.5214 -0.5670
  149SAPE  H10Y16450   2.604   1.277   4.608 -0.5625  0.5659  0.6894
  149SAPE  C31116451   2.701   1.408   4.471  0.3372 -0.4408 -0.1360
  149SAPE  H11X16452   2.764   1.445   4.556 -0.8450 -2.1251  1.5106
  149SAPE  H11Y16453   2.686   1.482   4.389  1.3062 -0.0253  0.0451
  149SAPE  C31216454   2.781   1.295   4.408 -0.0797  0.7283  0.4135
  149SAPE  H12X16455   2.723   1.245   4.328  1.8823 -2.1082  0.6769
  149SAPE  H12Y16456   2.804   1.222   4.488  4.6494  2.8166  1.1452
  149SAPE  C31316457   2.916   1.338   4.362 -0.1552 -0.5205  0.1992
  149SAPE  H13X16458   2.981   1.248   4.369  2.0475  1.0809  0.8096
  149SAPE  H13Y16459   2.956   1.411   4.436 -3.6694  0.9135  0.7994
  149SAPE  C31416460   2.916   1.395   4.223  0.0414 -0.5064  0.2504
  149SAPE  H14X16461   2.867   1.494   4.223  0.3278 -0.3382 -1.9226
  149SAPE  H14Y16462   2.861   1.333   4.149 -1.4714 -0.1149  1.0260
  149SAPE  C31516463   3.054   1.409   4.158 -0.4322  0.2089  0.5790
  149SAPE  H15X16464   3.039   1.408   4.048  0.2964 -0.3444  0.4855
  149SAPE  H15Y16465   3.103   1.316   4.194 -0.8426 -0.1818  0.1402
  149SAPE  C31616466   3.121   1.547   4.187  0.4137  0.2625  0.1006
  149SAPE  H16X16467   3.224   1.538   4.148  0.0169 -1.5217 -0.5951
  149SAPE  H16Y16468   3.127   1.564   4.296 -3.1004 -1.2793  0.6174
  149SAPE  C31716469   3.043   1.653   4.121 -0.6402 -0.6084 -0.1106
  149SAPE  H17X16470   2.961   1.682   4.190 -0.0241 -2.4007  1.4146
  149SAPE  H17Y16471   3.009   1.619   4.020  0.2742 -0.5277 -0.4516
  149SAPE  C31816472   3.122   1.781   4.088 -0.3585 -0.2838 -0.4148
  149SAPE  H18X16473   3.165   1.836   4.174 -0.8902  1.5946 -1.3235
  149SAPE  H18Y16474   3.053   1.849   4.033  0.5927  0.9930 -0.0530
  149SAPE  H18Z16475   3.209   1.760   4.023  1.6647  2.2942  1.3278
  150SAPE     N16476   5.577   3.895   5.975 -0.3535  0.0155  0.7255
  150SAPE   HN116477   5.509   3.956   6.024 -0.3789  0.7770 -0.2316
  150SAPE   HN216478   5.630   3.957   5.910 -1.9031 -1.1276 -1.6987
  150SAPE   HN316479   5.526   3.820   5.923 -0.3022 -0.2547  1.0679
  150SAPE   C1216480   5.681   3.839   6.072  0.1172  0.1427 -0.1336
  150SAPE  H12A16481   5.627   3.810   6.165  0.0889  0.0399 -0.1811
  150SAPE  H12B16482   5.746   3.921   6.108 -0.3073  0.5319 -0.2598
  150SAPE   C1116483   5.754   3.711   6.022  0.3722  0.0787 -0.0035
  150SAPE  H11A16484   5.845   3.694   6.082  2.1348  0.5470 -2.4455
  150SAPE  H11B16485   5.802   3.733   5.924  0.6174 -0.4430 -0.0025
  150SAPE     P16486   5.623   3.541   5.874 -0.1236  0.1945  0.1669
  150SAPE   O1316487   5.595   3.399   5.903 -0.3694  0.0478 -0.1451
  150SAPE   O1416488   5.512   3.617   5.805  0.0968  0.4698 -0.1464
  150SAPE   O1216489   5.669   3.599   6.017 -0.1590 -0.3754 -0.1949
  150SAPE   O1116490   5.751   3.541   5.786 -0.1182 -0.0350  0.0267
  150SAPE    C116491   5.766   3.597   5.657  0.0781 -0.7006 -0.1027
  150SAPE    HA16492   5.723   3.538   5.574  0.9292  0.0670 -1.0985
  150SAPE    HB16493   5.728   3.701   5.649 -0.0711 -0.7811 -0.4241
  150SAPE    C216494   5.913   3.613   5.613  0.2460  0.1458  1.1859
  150SAPE    HS16495   5.979   3.609   5.702  3.9088  2.2620 -1.2905
  150SAPE   O2116496   5.927   3.733   5.544 -0.4995 -0.1052 -0.5309
  150SAPE   C2116497   6.051   3.792   5.545 -0.7628 -0.2095  0.2848
  150SAPE   O2216498   6.146   3.748   5.600  0.5517 -0.1352 -0.8148
  150SAPE   C2216499   6.047   3.927   5.471 -0.2150  0.4657  1.2252
  150SAPE   H2R16500   5.954   3.973   5.511 -0.8814 -0.3494  0.6304
  150SAPE   H2S16501   6.138   3.990   5.483  0.6285 -0.3167 -0.8424
  150SAPE    C316502   5.971   3.496   5.532 -0.3491  0.2736 -0.2486
  150SAPE    HX16503   5.987   3.415   5.606 -0.7402  0.8870  0.5269
  150SAPE    HY16504   6.071   3.524   5.491  1.2882 -2.7203  1.5336
  150SAPE   O3116505   5.877   3.440   5.435  0.0706  0.1218 -0.1204
  150SAPE   C3116506   5.938   3.344   5.356 -0.4572  0.4604 -0.6011
  150SAPE   O3216507   6.053   3.312   5.366  0.1530 -0.4874  0.0588
  150SAPE   C3216508   5.843   3.285   5.253  0.1600  0.1762  0.4703
  150SAPE   H2X16509   5.744   3.337   5.257 -0.2313 -0.5784  0.7593
  150SAPE   H2Y16510   5.831   3.178   5.281 -0.6625  0.3436  0.7669
  150SAPE   C2316511   6.045   3.910   5.316  0.1034 -0.3738  0.7406
  150SAPE   H3R16512   5.999   4.003   5.275  2.0757 -0.0963 -0.9203
  150SAPE   H3S16513   5.990   3.821   5.280  0.8698 -1.0671  1.2781
  150SAPE   C2416514   6.178   3.893   5.244 -0.3394  0.0499 -0.0316
  150SAPE   H4R16515   6.220   3.800   5.288 -1.3731 -1.3142 -1.8422
  150SAPE   H4S16516   6.247   3.974   5.276  0.4913 -1.0757  1.1032
  150SAPE   C2516517   6.179   3.891   5.098 -0.0490 -0.5846  0.4224
  150SAPE   H5R16518   6.156   3.993   5.063  0.2897 -0.0229  1.7871
  150SAPE   C2616519   6.218   3.796   5.009 -0.3636 -0.5371 -0.3688
  150SAPE   H6R16520   6.203   3.819   4.903  0.8549 -0.2138 -0.4688
  150SAPE   C2716521   6.261   3.656   5.047 -0.3568  0.6970  0.4758
  150SAPE   H7R16522   6.270   3.650   5.157  0.7287 -1.1514  0.2916
  150SAPE   H7S16523   6.363   3.642   5.004 -0.0155  1.1638  1.1274
  150SAPE   C2816524   6.170   3.547   5.004 -0.0161  0.8299  0.2891
  150SAPE   H8R16525   6.107   3.502   5.082  0.9723  2.6152  2.1804
  150SAPE   C2916526   6.157   3.495   4.882 -0.3958  0.1648 -0.1071
  150SAPE   H9R16527   6.090   3.407   4.879 -1.3231  0.8578 -0.0283
  150SAPE  C21016528   6.220   3.539   4.756 -0.2196  0.7843 -0.2669
  150SAPE  H10R16529   6.288   3.459   4.720  0.5828  1.6098 -0.5888
  150SAPE  H10S16530   6.284   3.626   4.781  0.4905  0.5867 -1.3512
  150SAPE  C21116531   6.125   3.580   4.653 -0.4556 -0.3634  0.7416
  150SAPE  H11R16532   6.038   3.631   4.698  1.1969  1.5577  1.8377
  150SAPE  C21216533   6.144   3.560   4.520 -0.2751  0.5696 -0.0150
  150SAPE  H12R16534   6.062   3.585   4.452  0.8276  3.0438 -0.4948
  150SAPE  C21316535   6.256   3.490   4.453  0.6803  0.5261  0.7219
  150SAPE  H13R16536   6.348   3.550   4.469  1.0565 -0.3677  1.9332
  150SAPE  H13S16537   6.234   3.501   4.345  2.4135 -0.3612  0.2728
  150SAPE  C21416538   6.281   3.338   4.465 -0.0215  0.6551  0.1959
  150SAPE  H14R16539   6.367   3.316   4.531  1.0410 -2.3561 -2.0971
  150SAPE  C21516540   6.205   3.234   4.431  0.5860  0.0730  0.5430
  150SAPE  H15R16541   6.238   3.130   4.446  1.0392  0.2984  1.1034
  150SAPE  C21616542   6.075   3.245   4.354 -0.0424  0.0606 -0.2364
  150SAPE  H16R16543   6.034   3.347   4.370 -1.1147 -0.3604 -0.2657
  150SAPE  H16S16544   6.004   3.170   4.395 -0.0439  0.5624  0.6716
  150SAPE  C21716545   6.096   3.227   4.205 -0.0147  0.1221 -0.5615
  150SAPE  H17R16546   6.120   3.120   4.189  0.7236  0.0849  0.7321
  150SAPE  H17S16547   6.178   3.285   4.157  0.0299  0.7470  0.2451
  150SAPE  C21816548   5.969   3.256   4.124  0.2668  0.2997 -0.8740
  150SAPE  H18R16549   5.963   3.367   4.122  1.4145  0.3678 -0.4697
  150SAPE  H18S16550   5.874   3.216   4.167 -0.2623  1.4423 -0.9759
  150SAPE  C21916551   5.969   3.209   3.978 -0.0735  0.0853 -0.1696
  150SAPE  H19R16552   6.039   3.125   3.961  0.3400  0.6474 -1.3651
  150SAPE  H19S16553   6.007   3.286   3.907  0.6285 -0.4101 -0.3285
  150SAPE  C22016554   5.827   3.184   3.937  0.2397  0.0128 -0.1468
  150SAPE  H20R16555   5.771   3.108   3.995 -0.4613  0.5639 -0.0949
  150SAPE  H20S16556   5.806   3.174   3.829 -1.0360  0.1965  0.0781
  150SAPE  H20T16557   5.769   3.275   3.964 -0.9614 -0.2957 -1.6509
  150SAPE   C3316558   5.891   3.296   5.109  0.2373 -0.2978 -0.2900
  150SAPE   H3X16559   5.990   3.245   5.108  1.4389  2.0026 -0.6876
  150SAPE   H3Y16560   5.901   3.396   5.063 -1.7594  0.4207  0.8326
  150SAPE   C3416561   5.793   3.222   5.018 -0.6968  0.4461  0.2748
  150SAPE   H4X16562   5.696   3.277   5.020 -0.0649  1.6017 -0.2169
  150SAPE   H4Y16563   5.776   3.116   5.046  0.4217  0.2905  0.3698
  150SAPE   C3516564   5.850   3.217   4.873 -0.3226  0.2980 -0.3124
  150SAPE   H5X16565   5.846   3.109   4.846 -0.0071 -0.4746  2.5806
  150SAPE   H5Y16566   5.960   3.236   4.868  0.2923 -3.3644 -2.8334
  150SAPE   C3616567   5.778   3.302   4.778  0.8054  0.5371  0.6349
  150SAPE   H6X16568   5.806   3.408   4.799 -1.9998  1.3543  0.5669
  150SAPE   H6Y16569   5.670   3.277   4.790  0.7918  0.6112  0.6678
  150SAPE   C3716570   5.822   3.264   4.635 -0.2208  0.2645  0.2533
  150SAPE   H7X16571   5.811   3.156   4.613 -1.0030  0.5924 -1.0027
  150SAPE   H7Y16572   5.931   3.281   4.630 -0.3588  0.6572 -1.9774
  150SAPE   C3816573   5.759   3.342   4.511  0.1471 -0.1380 -0.6133
  150SAPE   H8X16574   5.825   3.310   4.427  1.7462 -0.0243  0.5714
  150SAPE   H8Y16575   5.770   3.452   4.520  2.1169 -0.3202 -0.4787
  150SAPE   C3916576   5.617   3.290   4.476 -0.5648  0.0872 -0.0156
  150SAPE   H9X16577   5.541   3.313   4.554 -0.8517  3.4831 -1.1843
  150SAPE   H9Y16578   5.634   3.181   4.472  2.8202  0.5352  0.7763
  150SAPE  C31016579   5.569   3.344   4.340  0.6971  0.3763  0.2646
  150SAPE  H10X16580   5.655   3.333   4.271  0.1974  2.8755 -0.8286
  150SAPE  H10Y16581   5.540   3.451   4.339 -0.9371 -0.0273  2.1104
  150SAPE  C31116582   5.460   3.255   4.284  0.3181 -0.6322  0.0133
  150SAPE  H11X16583   5.505   3.157   4.257 -0.5133 -0.3952 -2.3110
  150SAPE  H11Y16584   5.428   3.305   4.190  1.4401 -0.9707 -0.5656
  150SAPE  C31216585   5.330   3.244   4.371  0.0458 -0.2583  0.0895
  150SAPE  H12X16586   5.309   3.347   4.407  0.0842 -0.8427  1.7907
  150SAPE  H12Y16587   5.352   3.195   4.467  2.5969  0.8233  0.0885
  150SAPE  C31316588   5.204   3.178   4.303  0.6366  0.1348  0.0316
  150SAPE  H13X16589   5.245   3.077   4.280  0.6794  0.3496 -0.8328
  150SAPE  H13Y16590   5.174   3.227   4.208 -0.5208  0.0593  0.3506
  150SAPE  C31416591   5.079   3.157   4.394  0.0816 -0.4889 -0.6033
  150SAPE  H14X16592   5.042   3.258   4.422 -0.2506 -1.0913  1.1962
  150SAPE  H14Y16593   5.107   3.096   4.483 -0.9330  0.5403  0.4309
  150SAPE  C31516594   4.971   3.085   4.321  0.4305  0.7883 -0.3661
  150SAPE  H15X16595   5.005   2.989   4.276  2.3996  1.0574  0.5143
  150SAPE  H15Y16596   4.936   3.151   4.239  0.1812  1.0282 -0.0671
  150SAPE  C31616597   4.851   3.060   4.410  0.0430  0.4035  0.0526
  150SAPE  H16X16598   4.833   3.154   4.468 -2.4480  0.8507 -1.3608
  150SAPE  H16Y16599   4.877   2.989   4.491  0.9916  0.7457  0.0541
  150SAPE  C31716600   4.731   3.006   4.326  0.3500 -0.0468  0.3173
  150SAPE  H17X16601   4.766   2.912   4.277 -2.6519 -0.1647 -1.7476
  150SAPE  H17Y16602   4.704   3.076   4.244 -3.1621 -1.5942  0.0730
  150SAPE  C31816603   4.611   2.962   4.410 -0.1448 -0.1484 -0.8126
  150SAPE  H18X16604   4.545   2.892   4.354 -1.0463 -1.0840  1.3753
  150SAPE  H18Y16605   4.548   3.046   4.446  0.2408  0.4304 -1.4710
  150SAPE  H18Z16606   4.638   2.899   4.497 -1.6225  0.1026 -0.1561
  151SAPE     N16607   4.552   2.061   6.196 -0.0397 -0.0856  0.1062
  151SAPE   HN116608   4.625   2.013   6.253  0.5699 -0.2187 -0.7805
  151SAPE   HN216609   4.503   2.123   6.263  1.4616  0.7545  0.4592
  151SAPE   HN316610   4.486   1.983   6.176  0.3997  0.4032 -3.5105
  151SAPE   C1216611   4.613   2.107   6.063  0.5686  0.5837 -0.3355
  151SAPE  H12A16612   4.697   2.174   6.088 -0.0933  1.6006 -0.8130
  151SAPE  H12B16613   4.537   2.176   6.021  1.8498  1.8676 -0.5932
  151SAPE   C1116614   4.649   2.000   5.964 -0.3169  0.1674 -0.1581
  151SAPE  H11A16615   4.717   2.053   5.895  0.6521 -1.0264 -0.1353
  151SAPE  H11B16616   4.557   1.960   5.916 -1.1002 -0.0625  1.4790
  151SAPE     P16617   4.747   1.754   5.950  0.4609 -0.0299  0.1708
  151SAPE   O1316618   4.809   1.650   6.039 -0.3042  0.0555 -0.4229
  151SAPE   O1416619   4.618   1.713   5.888 -0.6868 -0.5932  0.1308
  151SAPE   O1216620   4.720   1.888   6.030 -0.1205  0.0875 -0.8665
  151SAPE   O1116621   4.856   1.804   5.849 -0.6737  0.0562  0.2359
  151SAPE    C116622   4.898   1.706   5.751 -0.0159 -0.0485 -0.2154
  151SAPE    HA16623   4.835   1.615   5.758 -0.3387  0.2589  0.9862
  151SAPE    HB16624   4.878   1.741   5.647  0.9430  0.4405 -0.2455
  151SAPE    C216625   5.050   1.670   5.762  0.9810 -0.1951  0.0409
  151SAPE    HS16626   5.065   1.650   5.870  0.5943 -0.4247  0.0543
  151SAPE   O2116627   5.119   1.788   5.718 -0.0641  0.4440 -0.7629
  151SAPE   C2116628   5.241   1.807   5.766  0.6191 -0.3368  0.4345
  151SAPE   O2216629   5.297   1.727   5.838  0.3375 -0.0162 -0.6122
  151SAPE   C2216630   5.306   1.931   5.697  0.4978  0.4978 -0.0767
  151SAPE   H2R16631   5.256   1.944   5.599 -1.3792 -0.9841  0.6511
  151SAPE   H2S16632   5.268   2.017   5.757 -1.7752  0.2452 -1.1183
  151SAPE    C316633   5.088   1.550   5.680  0.3340 -0.0650  0.1102
  151SAPE    HX16634   5.041   1.466   5.735  1.3212  1.2271  2.9894
  151SAPE    HY16635   5.198   1.535   5.682  0.4219  0.4657 -0.5474
  151SAPE   O3116636   5.056   1.557   5.540  0.6249  0.3259  0.4628
  151SAPE   C3116637   4.956   1.479   5.499 -0.8847  0.0944  0.4428
  151SAPE   O3216638   4.883   1.414   5.573  0.6266 -1.1246 -0.6091
  151SAPE   C3216639   4.943   1.477   5.344 -0.1363 -0.2036  0.1854
  151SAPE   H2X16640   5.031   1.432   5.295  1.3613  0.0647  2.5340
  151SAPE   H2Y16641   4.922   1.579   5.306  2.2462  0.5234  0.7739
  151SAPE   C2316642   5.457   1.920   5.677  0.1062  0.4204 -0.1986
  151SAPE   H3R16643   5.515   1.877   5.761 -0.4649 -0.9988 -0.5213
  151SAPE   H3S16644   5.499   2.022   5.662 -1.6269  1.1039 -0.5071
  151SAPE   C2416645   5.494   1.845   5.546 -0.5038 -0.3922 -0.0247
  151SAPE   H4R16646   5.604   1.836   5.561 -0.3654 -0.0207 -0.7889
  151SAPE   H4S16647   5.492   1.922   5.466  2.5390  0.4936  0.6692
  151SAPE   C2516648   5.430   1.712   5.515 -0.2606  0.0752 -0.4007
  151SAPE   H5R16649   5.448   1.634   5.590 -0.3956  0.7019  0.2906
  151SAPE   C2616650   5.347   1.689   5.412 -0.1396  0.0661  0.5392
  151SAPE   H6R16651   5.305   1.587   5.408  0.3502 -0.2776  3.0517
  151SAPE   C2716652   5.299   1.794   5.321 -0.1715  0.3128 -0.4885
  151SAPE   H7R16653   5.353   1.781   5.224 -0.1780 -3.0379 -0.1212
  151SAPE   H7S16654   5.325   1.894   5.361  1.5155 -1.0904  2.0762
  151SAPE   C2816655   5.148   1.784   5.303 -0.6976 -0.1909  0.3470
  151SAPE   H8R16656   5.094   1.736   5.387 -1.5994 -0.0107 -0.1241
  151SAPE   C2916657   5.079   1.833   5.200  0.0167 -0.0854 -0.0516
  151SAPE   H9R16658   4.974   1.804   5.191  0.0457  0.0805 -0.9409
  151SAPE  C21016659   5.138   1.907   5.084 -0.8356  0.0929  0.1050
  151SAPE  H10R16660   5.244   1.933   5.100 -0.1741 -3.4486  2.0048
  151SAPE  H10S16661   5.089   2.007   5.088 -1.6898 -0.3179  0.1057
  151SAPE  C21116662   5.113   1.833   4.954 -0.5120 -0.3776 -0.1690
  151SAPE  H11R16663   5.159   1.733   4.947 -0.4922 -0.3076 -0.9805
  151SAPE  C21216664   5.065   1.889   4.839  0.0943 -0.3926 -0.0422
  151SAPE  H12R16665   5.040   1.820   4.758 -1.2216  0.0845 -0.0538
  151SAPE  C21316666   5.017   2.033   4.817  0.3085  0.0732 -0.2823
  151SAPE  H13R16667   5.046   2.105   4.897  1.3108 -0.1482 -0.4334
  151SAPE  H13S16668   4.907   2.036   4.806  0.0521  3.2604  2.2226
  151SAPE  C21416669   5.081   2.072   4.687  0.4036 -0.7819 -0.5656
  151SAPE  H14R16670   5.175   2.125   4.709 -1.2029  1.5888  0.8076
  151SAPE  C21516671   5.035   2.054   4.567 -0.3449 -0.6841  0.5148
  151SAPE  H15R16672   5.081   2.111   4.485 -1.0861  0.7824  1.0976
  151SAPE  C21616673   4.904   1.981   4.525  0.2268 -0.3548 -0.0095
  151SAPE  H16R16674   4.870   1.906   4.599 -0.8152 -0.6219 -0.7503
  151SAPE  H16S16675   4.927   1.930   4.429  2.0503  1.7124 -0.7462
  151SAPE  C21716676   4.791   2.070   4.477  0.4081 -0.0676  0.2667
  151SAPE  H17R16677   4.826   2.137   4.396  0.6833 -1.3591 -0.7033
  151SAPE  H17S16678   4.762   2.128   4.567 -0.9435 -0.5009  0.1228
  151SAPE  C21816679   4.668   1.995   4.420 -0.0008  0.1971  0.4367
  151SAPE  H18R16680   4.640   1.914   4.491 -0.8401  0.9103  0.9402
  151SAPE  H18S16681   4.697   1.950   4.322 -0.9778  1.1019 -0.2751
  151SAPE  C21916682   4.549   2.088   4.393  0.6256  1.3395  0.1095
  151SAPE  H19R16683   4.570   2.172   4.323  0.0215 -0.0528 -1.8089
  151SAPE  H19S16684   4.512   2.128   4.489 -1.9366  0.2875 -0.3946
  151SAPE  C22016685   4.429   2.011   4.331  0.0912 -0.0081  0.7637
  151SAPE  H20R16686   4.370   1.938   4.390 -2.7143 -0.2369 -2.1638
  151SAPE  H20S16687   4.471   1.957   4.243 -1.0713  0.0614  0.1512
  151SAPE  H20T16688   4.357   2.088   4.297 -0.2947 -0.6398  0.1214
  151SAPE   C3316689   4.827   1.391   5.310 -0.2531 -0.8744 -0.5703
  151SAPE   H3X16690   4.742   1.427   5.371  2.1333  2.2043  1.1082
  151SAPE   H3Y16691   4.848   1.288   5.347  2.4170 -0.5215 -0.9776
  151SAPE   C3416692   4.784   1.391   5.165  0.5319  0.0101  0.0637
  151SAPE   H4X16693   4.726   1.485   5.150  1.1532  0.5235  0.8323
  151SAPE   H4Y16694   4.707   1.312   5.156 -1.4427  1.7160  1.5192
  151SAPE   C3516695   4.898   1.360   5.065 -0.4246 -0.4574 -0.1185
  151SAPE   H5X16696   4.953   1.269   5.098  0.7568  0.4710  0.5243
  151SAPE   H5Y16697   4.973   1.442   5.070 -0.2383 -0.5686 -0.9799
  151SAPE   C3616698   4.848   1.339   4.919  0.1883  0.6058  0.2979
  151SAPE   H6X16699   4.771   1.258   4.914  0.6695  0.1823 -0.3575
  151SAPE   H6Y16700   4.930   1.301   4.855 -1.9227  2.4733 -3.6956
  151SAPE   C3716701   4.799   1.467   4.856  0.8408 -0.1343  0.0209
  151SAPE   H7X16702   4.886   1.533   4.879  1.6181 -0.0761 -2.9383
  151SAPE   H7Y16703   4.721   1.519   4.917 -0.9879 -2.2658 -0.4288
  151SAPE   C3816704   4.754   1.473   4.709  0.1410  0.0613  0.1184
  151SAPE   H8X16705   4.666   1.414   4.676  0.6829 -0.6155 -0.1423
  151SAPE   H8Y16706   4.836   1.422   4.654  0.0972  1.2894 -1.1136
  151SAPE   C3916707   4.739   1.618   4.647  0.4639  0.7590 -0.2680
  151SAPE   H9X16708   4.843   1.657   4.656  0.3262  0.8863  0.8852
  151SAPE   H9Y16709   4.674   1.685   4.706  0.4125  1.5886 -1.2656
  151SAPE  C31016710   4.685   1.626   4.502  0.1808 -0.7037  0.3439
  151SAPE  H10X16711   4.761   1.599   4.425 -1.0696  0.0313 -1.1537
  151SAPE  H10Y16712   4.670   1.732   4.475 -0.0181 -0.3229  1.8898
  151SAPE  C31116713   4.550   1.558   4.479  0.0430  0.6007  0.0563
  151SAPE  H11X16714   4.477   1.567   4.563  0.0782 -0.1638  0.1713
  151SAPE  H11Y16715   4.567   1.449   4.469 -0.4658  0.6139 -1.0709
  151SAPE  C31216716   4.479   1.599   4.348  0.5627  0.3215 -0.0117
  151SAPE  H12X16717   4.544   1.564   4.265  1.4491 -2.1542  1.6889
  151SAPE  H12Y16718   4.465   1.709   4.347 -0.9771  0.1434 -0.1171
  151SAPE  C31316719   4.345   1.531   4.326 -0.0151 -0.3020  0.5646
  151SAPE  H13X16720   4.279   1.527   4.414  0.8524 -2.2714  1.1542
  151SAPE  H13Y16721   4.361   1.423   4.306  0.9729  0.6235 -4.5616
  151SAPE  C31416722   4.278   1.583   4.202  0.1334 -0.4276 -0.3633
  151SAPE  H14X16723   4.344   1.564   4.115  0.8854 -0.3640  0.1824
  151SAPE  H14Y16724   4.272   1.694   4.204 -3.5184 -0.5813  1.8763
  151SAPE  C31516725   4.133   1.522   4.193  0.2101  0.2790  0.3329
  151SAPE  H15X16726   4.074   1.564   4.277 -0.7622  0.2253 -0.3143
  151SAPE  H15Y16727   4.125   1.412   4.201  1.1271  0.2084  0.3678
  151SAPE  C31616728   4.077   1.551   4.051  0.0928  0.1172 -0.0050
  151SAPE  H16X16729   4.157   1.518   3.981  1.0781  0.1276  1.1027
  151SAPE  H16Y16730   4.056   1.659   4.032 -0.3891  0.4152  2.1359
  151SAPE  C31716731   3.946   1.476   4.017 -0.1708  0.4824 -0.6613
  151SAPE  H17X16732   3.856   1.524   4.059 -0.3633 -1.2497  0.9936
  151SAPE  H17Y16733   3.954   1.365   4.026  0.4222  0.5099 -0.8156
  151SAPE  C31816734   3.912   1.494   3.864 -0.5181 -0.9677 -0.4031
  151SAPE  H18X16735   3.857   1.408   3.821  1.2920 -1.3889 -1.9416
  151SAPE  H18Y16736   4.005   1.500   3.803  0.6981 -2.1324  1.2897
  151SAPE  H18Z16737   3.870   1.595   3.845 -1.1067 -1.0972  0.2141
  152SAPE     N16738   1.070   3.562   5.966  0.3511 -0.1377 -0.1486
  152SAPE   HN116739   1.012   3.626   5.908  1.3346 -0.8149 -1.9041
  152SAPE   HN216740   1.005   3.496   6.013  0.6964 -0.4357 -0.0847
  152SAPE   HN316741   1.111   3.623   6.040  0.4281 -3.2539  2.4712
  152SAPE   C1216742   1.162   3.481   5.896 -0.7037 -0.0983  0.2416
  152SAPE  H12A16743   1.235   3.447   5.973  0.5731 -0.4657 -1.1037
  152SAPE  H12B16744   1.212   3.538   5.815 -0.4209 -0.9395 -0.1831
  152SAPE   C1116745   1.098   3.350   5.833 -0.1238  0.0921  0.6709
  152SAPE  H11A16746   1.175   3.271   5.822 -1.5113 -0.8082 -3.5187
  152SAPE  H11B16747   1.070   3.391   5.734 -0.7868 -1.1447  0.3408
  152SAPE     P16748   0.991   3.211   6.032  0.2849  0.4474  0.1697
  152SAPE   O1316749   1.030   3.306   6.140  0.2101 -0.1660 -0.1847
  152SAPE   O1416750   0.873   3.122   6.052  0.3369 -0.6349 -0.3468
  152SAPE   O1216751   0.979   3.293   5.898  0.0493  0.5619 -0.0602
  152SAPE   O1116752   1.120   3.133   6.007  0.1579 -0.2465 -0.6009
  152SAPE    C116753   1.148   3.006   6.072  0.2970 -0.1231 -0.2072
  152SAPE    HA16754   1.190   3.016   6.174 -0.0659  1.4434 -0.1874
  152SAPE    HB16755   1.063   2.936   6.059 -1.1595  1.8009 -1.2959
  152SAPE    C216756   1.259   2.933   5.997  0.1987 -0.5023 -0.8939
  152SAPE    HS16757   1.347   3.001   5.992 -3.3555  4.2514 -1.7317
  152SAPE   O2116758   1.224   2.891   5.858 -0.3767 -0.3749 -0.2216
  152SAPE   C2116759   1.330   2.875   5.778  0.1829 -0.4490  0.6395
  152SAPE   O2216760   1.442   2.909   5.803 -0.1897  0.0346 -0.0803
  152SAPE   C2216761   1.283   2.840   5.645 -0.2491  0.0318  0.6182
  152SAPE   H2R16762   1.195   2.772   5.651  0.5018 -0.9972  0.2356
  152SAPE   H2S16763   1.244   2.936   5.605  1.2104  0.1028 -0.6666
  152SAPE    C316764   1.308   2.802   6.069 -0.6170 -0.3013  0.9895
  152SAPE    HX16765   1.349   2.833   6.168  0.5665  3.6284 -0.6184
  152SAPE    HY16766   1.393   2.779   6.002  0.0503  0.4442  1.5607
  152SAPE   O3116767   1.203   2.699   6.070 -0.0478 -0.1808 -0.0805
  152SAPE   C3116768   1.186   2.608   5.978 -0.0859  0.1570  0.7623
  152SAPE   O3216769   1.278   2.580   5.898  0.3569  0.3012  0.3280
  152SAPE   C3216770   1.044   2.548   5.980  0.7286  0.0801 -1.2710
  152SAPE   H2X16771   0.978   2.636   5.998  1.1352 -0.1391  1.4904
  152SAPE   H2Y16772   1.040   2.484   6.071 -0.7793  2.7374  0.6030
  152SAPE   C2316773   1.394   2.797   5.550 -0.5344  0.2990  0.7624
  152SAPE   H3R16774   1.490   2.850   5.565 -1.4773  1.7274  1.7888
  152SAPE   H3S16775   1.364   2.818   5.445 -1.9441  0.6862  1.2286
  152SAPE   C2416776   1.429   2.652   5.563 -0.5943 -0.3491 -0.0834
  152SAPE   H4R16777   1.478   2.626   5.659  0.7955  0.4199 -0.5791
  152SAPE   H4S16778   1.505   2.631   5.484 -0.1206 -2.5633  0.9126
  152SAPE   C2516779   1.313   2.565   5.534 -0.3481  1.2878 -0.1474
  152SAPE   H5R16780   1.274   2.502   5.615 -0.7032  0.8883 -0.6295
  152SAPE   C2616781   1.244   2.556   5.418  0.3084 -0.3495  0.7092
  152SAPE   H6R16782   1.156   2.490   5.426 -0.6411  1.0185  1.7675
  152SAPE   C2716783   1.275   2.634   5.287  0.1443  0.2890  0.0545
  152SAPE   H7R16784   1.385   2.639   5.275  0.1925  0.5800  0.5834
  152SAPE   H7S16785   1.232   2.737   5.286 -0.5427  0.0218  1.7142
  152SAPE   C2816786   1.216   2.549   5.177  0.1346 -0.5220  0.4212
  152SAPE   H8R16787   1.180   2.449   5.205 -1.9240  0.5047  1.4948
  152SAPE   C2916788   1.190   2.594   5.054 -0.6217  0.6532  0.1104
  152SAPE   H9R16789   1.141   2.526   4.983 -0.7853 -0.4671  1.2839
  152SAPE  C21016790   1.221   2.732   5.004 -0.3932 -0.1402 -0.5144
  152SAPE  H10R16791   1.325   2.727   4.964 -0.7804 -0.5958 -1.4714
  152SAPE  H10S16792   1.225   2.809   5.084  1.4263 -1.7666  1.0275
  152SAPE  C21116793   1.114   2.775   4.907  0.3021 -1.1433  0.3156
  152SAPE  H11R16794   1.020   2.814   4.949 -0.8023 -1.0191 -2.2204
  152SAPE  C21216795   1.128   2.767   4.773 -0.1720 -0.1849 -0.6537
  152SAPE  H12R16796   1.045   2.809   4.714 -1.5978  0.6860  1.9162
  152SAPE  C21316797   1.243   2.701   4.706  0.3319 -0.8401  0.4283
  152SAPE  H13R16798   1.279   2.612   4.761  1.2341  0.3579  1.8051
  152SAPE  H13S16799   1.334   2.763   4.694 -0.6679  0.1674 -2.2490
  152SAPE  C21416800   1.223   2.652   4.562  0.2179 -0.4333 -0.1775
  152SAPE  H14R16801   1.123   2.671   4.521 -0.3321 -4.5144 -0.9056
  152SAPE  C21516802   1.310   2.602   4.468 -0.0385 -0.2263 -0.0139
  152SAPE  H15R16803   1.275   2.546   4.380 -1.8805 -3.2546  2.5508
  152SAPE  C21616804   1.456   2.579   4.489 -0.3905 -0.5119 -0.2483
  152SAPE  H16R16805   1.465   2.475   4.528  2.4374 -0.5853 -0.9689
  152SAPE  H16S16806   1.495   2.653   4.562  0.1617 -1.4202  0.3980
  152SAPE  C21716807   1.526   2.586   4.349 -0.5570 -0.0601  0.0255
  152SAPE  H17R16808   1.635   2.595   4.368 -1.1270 -0.4792  3.8360
  152SAPE  H17S16809   1.499   2.679   4.295  0.7609  0.0882 -0.4046
  152SAPE  C21816810   1.512   2.461   4.251 -0.6525 -0.3909 -0.2410
  152SAPE  H18R16811   1.531   2.507   4.152 -0.5334  1.5268  0.6492
  152SAPE  H18S16812   1.405   2.433   4.255 -0.9748  1.0225  2.1428
  152SAPE  C21916813   1.598   2.342   4.289  0.3932 -0.2834 -0.3857
  152SAPE  H19R16814   1.597   2.327   4.399 -2.2291 -1.3893 -0.5264
  152SAPE  H19S16815   1.705   2.360   4.264  0.2131  1.8270  0.2679
  152SAPE  C22016816   1.558   2.210   4.223  0.4691 -0.1311 -0.2805
  152SAPE  H20R16817   1.615   2.196   4.128 -0.0438 -4.1984 -0.0548
  152SAPE  H20S16818   1.448   2.193   4.221  0.5376 -0.6067 -0.0058
  152SAPE  H20T16819   1.593   2.125   4.285 -2.2834 -1.0296  0.1181
  152SAPE   C3316820   1.005   2.466   5.853  0.8575 -0.0670 -0.2006
  152SAPE   H3X16821   0.908   2.415   5.870  1.1021 -0.8355 -1.0816
  152SAPE   H3Y16822   1.077   2.384   5.831 -0.6333 -1.1540 -1.1182
  152SAPE   C3416823   0.975   2.553   5.723  0.3907 -0.4172 -0.1122
  152SAPE   H4X16824   0.934   2.482   5.648 -0.5836  0.7198 -0.6892
  152SAPE   H4Y16825   1.070   2.599   5.687 -0.5361  0.4876 -1.4846
  152SAPE   C3516826   0.872   2.674   5.734 -0.4720 -0.5245  0.2991
  152SAPE   H5X16827   0.906   2.759   5.797  0.1084 -0.5669  0.0446
  152SAPE   H5Y16828   0.784   2.630   5.785 -0.0199  1.4552  2.9348
  152SAPE   C3616829   0.812   2.731   5.599  0.2102  0.0356 -0.4393
  152SAPE   H6X16830   0.734   2.804   5.631 -0.5133  0.1561 -2.4000
  152SAPE   H6Y16831   0.763   2.642   5.554  0.7361 -0.2160 -0.5210
  152SAPE   C3716832   0.917   2.784   5.509 -0.5386 -0.5900 -0.4104
  152SAPE   H7X16833   0.986   2.708   5.467  0.6836  1.6161 -2.5160
  152SAPE   H7Y16834   0.991   2.857   5.548 -1.3878 -0.1801  0.4707
  152SAPE   C3816835   0.855   2.850   5.391  0.0604 -1.0319  0.2357
  152SAPE   H8X16836   0.930   2.914   5.341 -0.1149 -0.5929  0.5282
  152SAPE   H8Y16837   0.771   2.916   5.420  0.2378  0.1874 -1.9061
  152SAPE   C3916838   0.822   2.754   5.276  0.0318  0.0389 -0.5842
  152SAPE   H9X16839   0.746   2.689   5.325 -1.4441  2.6036  0.6169
  152SAPE   H9Y16840   0.908   2.689   5.250  0.3794 -1.1563  3.3238
  152SAPE  C31016841   0.762   2.811   5.147  0.5647  0.0164 -0.9518
  152SAPE  H10X16842   0.826   2.893   5.110  0.3812  0.4892 -0.2285
  152SAPE  H10Y16843   0.668   2.861   5.177  0.7020  0.5162 -1.3410
  152SAPE  C31116844   0.733   2.700   5.050 -0.2519 -0.2371 -0.0423
  152SAPE  H11X16845   0.657   2.630   5.091  0.3394  0.3546  2.1742
  152SAPE  H11Y16846   0.826   2.642   5.037  0.3104  0.7214 -0.3730
  152SAPE  C31216847   0.698   2.757   4.920 -0.7325  1.0422 -0.2383
  152SAPE  H12X16848   0.769   2.836   4.891  0.2693  0.7089  1.2667
  152SAPE  H12Y16849   0.603   2.814   4.929 -0.1536  2.1311 -0.9245
  152SAPE  C31316850   0.710   2.662   4.798 -0.2485 -0.7070  0.1376
  152SAPE  H13X16851   0.643   2.574   4.806 -3.1676  1.3076 -1.3716
  152SAPE  H13Y16852   0.815   2.625   4.796 -0.9947 -2.8409 -1.2820
  152SAPE  C31416853   0.693   2.737   4.666  0.2389  0.6064 -0.6999
  152SAPE  H14X16854   0.795   2.764   4.631  0.4349 -0.7231 -1.1718
  152SAPE  H14Y16855   0.635   2.832   4.676 -1.8419 -0.6138 -0.9832
  152SAPE  C31516856   0.619   2.656   4.558  0.2417 -0.1352 -0.0113
  152SAPE  H15X16857   0.513   2.641   4.588 -0.5020  1.1384 -1.9433
  152SAPE  H15Y16858   0.663   2.554   4.543 -1.1634 -0.4678 -2.0246
  152SAPE  C31616859   0.607   2.719   4.417  0.3971 -0.4321  0.5340
  152SAPE  H16X16860   0.706   2.755   4.381  0.3475 -0.1637  0.6598
  152SAPE  H16Y16861   0.552   2.814   4.437  0.2130 -0.1221 -1.3634
  152SAPE  C31716862   0.536   2.626   4.314  1.1753 -0.1260  0.1295
  152SAPE  H17X16863   0.546   2.517   4.334 -1.0088 -0.4824 -0.6900
  152SAPE  H17Y16864   0.587   2.645   4.217 -0.9315 -0.8053 -1.1382
  152SAPE  C31816865   0.386   2.647   4.288  0.1265 -0.6159 -0.3882
  152SAPE  H18X16866   0.362   2.753   4.269  0.0155 -0.8402 -1.5385
  152SAPE  H18Y16867   0.329   2.597   4.370  0.6554 -0.1892  0.2456
  152SAPE  H18Z16868   0.363   2.596   4.192  0.2235 -0.1441 -0.6618
  153SAPE     N16869   5.786   3.187   5.893  0.2630  0.9237 -0.1214
  153SAPE   HN116870   5.849   3.204   5.973  0.2741  0.7824 -0.0998
  153SAPE   HN216871   5.703   3.250   5.901 -0.2856  0.2173 -0.2725
  153SAPE   HN316872   5.752   3.089   5.895 -0.3083  1.1542  2.0057
  153SAPE   C1216873   5.877   3.191   5.765 -0.1012  0.2952  0.3557
  153SAPE  H12A16874   5.882   3.295   5.727 -0.8265  0.8842  1.7993
  153SAPE  H12B16875   5.828   3.119   5.695  0.2654  2.3425 -2.0588
  153SAPE   C1116876   6.017   3.136   5.801 -0.6837  0.1293 -0.4127
  153SAPE  H11A16877   6.068   3.094   5.712 -1.3622 -0.9792 -0.2913
  153SAPE  H11B16878   6.015   3.045   5.865  0.7474 -0.3699 -1.0557
  153SAPE     P16879   6.215   3.195   5.978 -0.1700 -0.2690 -0.0118
  153SAPE   O1316880   6.298   3.319   6.009  0.2502 -0.4189  0.0232
  153SAPE   O1416881   6.137   3.121   6.081  0.2041 -0.0566  0.8910
  153SAPE   O1216882   6.106   3.230   5.859 -0.1577 -0.3275 -0.9181
  153SAPE   O1116883   6.320   3.099   5.911  0.0288 -0.0642 -0.0610
  153SAPE    C116884   6.371   3.110   5.783  0.7912  0.3189 -0.3364
  153SAPE    HA16885   6.391   3.008   5.744  2.9480  0.7010 -0.2887
  153SAPE    HB16886   6.299   3.151   5.710 -1.4207 -0.5719  1.2628
  153SAPE    C216887   6.502   3.185   5.778  0.0287  0.0081  0.0952
  153SAPE    HS16888   6.561   3.152   5.866  0.7150 -0.8999 -0.6994
  153SAPE   O2116889   6.476   3.329   5.769  0.8630  0.3177  0.3085
  153SAPE   C2116890   6.580   3.399   5.816 -0.1148 -0.0263  0.3998
  153SAPE   O2216891   6.682   3.354   5.868  0.0876 -0.5716  0.5401
  153SAPE   C2216892   6.547   3.548   5.808 -0.1125  0.0555  0.0309
  153SAPE   H2R16893   6.440   3.577   5.803  0.1821  1.2155  0.1147
  153SAPE   H2S16894   6.593   3.593   5.899 -0.7539 -1.0197  0.8926
  153SAPE    C316895   6.584   3.138   5.660 -0.2444 -0.2451 -0.0349
  153SAPE    HX16896   6.615   3.032   5.671 -0.2413 -0.2680 -0.2664
  153SAPE    HY16897   6.680   3.194   5.648 -0.2099 -0.5223 -1.0906
  153SAPE   O3116898   6.496   3.133   5.550  0.1212  0.4258  0.0919
  153SAPE   C3116899   6.489   3.242   5.477  1.3363 -0.1174 -0.3051
  153SAPE   O3216900   6.528   3.353   5.511  0.5736 -0.3815  0.3561
  153SAPE   C3216901   6.403   3.211   5.357  0.1771 -0.4832 -0.1554
  153SAPE   H2X16902   6.298   3.198   5.390 -0.6467 -0.2946 -2.6245
  153SAPE   H2Y16903   6.445   3.114   5.323  0.0257 -0.7787  0.4990
  153SAPE   C2316904   6.610   3.615   5.678  0.0321  0.0154  0.1210
  153SAPE   H3R16905   6.547   3.591   5.589 -0.4084  0.7206  0.2394
  153SAPE   H3S16906   6.715   3.583   5.665  0.1439  0.0158  0.9742
  153SAPE   C2416907   6.623   3.767   5.692  0.0456 -0.1972 -1.1294
  153SAPE   H4R16908   6.704   3.799   5.623  0.6621  1.4175  0.2968
  153SAPE   H4S16909   6.681   3.783   5.785 -1.8093 -0.0887  0.0372
  153SAPE   C2516910   6.497   3.842   5.685  1.4259 -0.1672 -0.0767
  153SAPE   H5R16911   6.435   3.817   5.773  1.0707 -0.0480 -0.2906
  153SAPE   C2616912   6.448   3.905   5.574 -0.8542  0.4601 -0.7868
  153SAPE   H6R16913   6.356   3.963   5.592  0.1065  1.8985 -0.4732
  153SAPE   C2716914   6.515   3.916   5.443  0.6701  0.5713  0.3459
  153SAPE   H7R16915   6.623   3.936   5.462  0.8094  1.9541 -1.7796
  153SAPE   H7S16916   6.480   4.014   5.404 -0.3027  1.2025  2.7144
  153SAPE   C2816917   6.507   3.790   5.356 -0.2768  0.0534  0.2613
  153SAPE   H8R16918   6.409   3.741   5.342 -0.4160  0.4925 -0.3072
  153SAPE   C2916919   6.608   3.724   5.303  0.1750 -0.1185 -0.3587
  153SAPE   H9R16920   6.593   3.629   5.250 -0.8756 -0.1478 -0.0132
  153SAPE  C21016921   6.751   3.766   5.313  0.7082  0.5627  0.1085
  153SAPE  H10R16922   6.785   3.751   5.418  1.5662 -2.3111 -0.5425
  153SAPE  H10S16923   6.765   3.875   5.297  0.0017  0.4055 -1.6379
  153SAPE  C21116924   6.848   3.696   5.224  0.4832 -0.3981 -1.0486
  153SAPE  H11R16925   6.845   3.737   5.122 -0.5811 -0.4083 -1.0368
  153SAPE  C21216926   6.939   3.602   5.265  1.3749  0.4623  0.3112
  153SAPE  H12R16927   6.993   3.541   5.191  0.1611  0.4934 -0.6206
  153SAPE  C21316928   6.965   3.566   5.409 -0.8431 -0.0003 -0.5869
  153SAPE  H13R16929   6.928   3.649   5.473  1.1476 -0.3756  1.1034
  153SAPE  H13S16930   7.072   3.569   5.441 -1.5464 -1.0881  1.9500
  153SAPE  C21416931   6.904   3.435   5.463 -0.1678 -0.2149  0.9305
  153SAPE  H14R16932   6.795   3.436   5.478 -0.0810  3.9680  1.7748
  153SAPE  C21516933   6.969   3.322   5.490  0.3796 -0.0175  0.5848
  153SAPE  H15R16934   6.915   3.234   5.528  2.1447 -0.2056  2.7475
  153SAPE  C21616935   7.117   3.297   5.481  1.1803  0.7921 -0.2164
  153SAPE  H16R16936   7.168   3.236   5.558  0.9979  2.3473  1.1571
  153SAPE  H16S16937   7.166   3.396   5.493 -0.7218  1.6137  1.0029
  153SAPE  C21716938   7.154   3.240   5.346  0.5390 -0.0322 -0.7408
  153SAPE  H17R16939   7.124   3.313   5.268 -0.3078  0.3983 -0.0285
  153SAPE  H17S16940   7.088   3.153   5.328 -2.0021  1.6367  0.2767
  153SAPE  C21816941   7.293   3.200   5.339 -0.1199 -0.0383  0.2659
  153SAPE  H18R16942   7.310   3.115   5.408  0.1618 -1.0484 -1.0091
  153SAPE  H18S16943   7.354   3.284   5.376  0.5763 -0.7949  0.8561
  153SAPE  C21916944   7.343   3.168   5.197 -0.2564  0.4330  1.2044
  153SAPE  H19R16945   7.268   3.110   5.139  0.8979 -0.1109  0.2478
  153SAPE  H19S16946   7.438   3.111   5.200 -0.4291  0.1632  1.6531
  153SAPE  C22016947   7.353   3.290   5.114  0.1058 -0.1624  0.2761
  153SAPE  H20R16948   7.437   3.351   5.153 -0.7905  0.7709  0.7882
  153SAPE  H20S16949   7.260   3.351   5.113  1.5139  2.0459  0.1423
  153SAPE  H20T16950   7.364   3.267   5.006 -1.3273 -1.2312  0.3420
  153SAPE   C3316951   6.416   3.317   5.258  0.3669 -0.2080  0.1086
  153SAPE   H3X16952   6.407   3.419   5.301  0.0198 -0.1764 -0.0366
  153SAPE   H3Y16953   6.336   3.294   5.185 -0.2413 -0.6702  0.9164
  153SAPE   C3416954   6.551   3.322   5.179  0.0511  0.1315  0.6122
  153SAPE   H4X16955   6.581   3.220   5.147 -2.1978 -0.3856  0.0549
  153SAPE   H4Y16956   6.630   3.362   5.247  0.0833  1.6353 -0.2925
  153SAPE   C3516957   6.537   3.413   5.055 -0.3221  0.4869  0.1425
  153SAPE   H5X16958   6.510   3.518   5.080 -0.5960 -0.5883  4.6946
  153SAPE   H5Y16959   6.455   3.373   4.992  1.5163 -0.6330 -1.6377
  153SAPE   C3616960   6.647   3.407   4.949 -0.3448  0.5620 -0.2631
  153SAPE   H6X16961   6.603   3.433   4.850 -1.1233 -1.1438 -0.3695
  153SAPE   H6Y16962   6.689   3.305   4.942  0.3475  0.7581  0.9281
  153SAPE   C3716963   6.769   3.490   4.989  0.5987 -0.6545  0.1259
  153SAPE   H7X16964   6.802   3.468   5.093  1.1261  0.8963  0.3037
  153SAPE   H7Y16965   6.721   3.589   5.004  1.6710  0.4124 -2.9778
  153SAPE   C3816966   6.889   3.496   4.888 -0.3022  0.0704 -0.0050
  153SAPE   H8X16967   6.919   3.389   4.885 -1.6025 -0.3136  0.4712
  153SAPE   H8Y16968   6.979   3.549   4.928 -0.2961 -0.5004  0.7418
  153SAPE   C3916969   6.847   3.538   4.750  0.4643 -1.1097 -0.5778
  153SAPE   H9X16970   6.840   3.649   4.749  1.5418 -1.0234  0.3884
  153SAPE   H9Y16971   6.744   3.503   4.727  0.8954 -1.7883 -1.4956
  153SAPE  C31016972   6.919   3.476   4.636 -0.2508 -0.3114  0.6127
  153SAPE  H10X16973   6.897   3.367   4.642  0.7580 -0.5806 -0.3402
  153SAPE  H10Y16974   7.023   3.507   4.658 -0.1466  0.7385 -1.2335
  153SAPE  C31116975   6.869   3.536   4.504  0.0542  0.4302  0.5347
  153SAPE  H11X16976   6.901   3.643   4.509  0.4885  0.2585  1.5138
  153SAPE  H11Y16977   6.759   3.527   4.502 -0.0322  1.5475 -0.8579
  153SAPE  C31216978   6.923   3.459   4.381  0.3023 -0.1965 -0.3873
  153SAPE  H12X16979   6.923   3.348   4.388  0.0129 -0.2520 -1.1992
  153SAPE  H12Y16980   7.028   3.486   4.358  0.1024 -0.5138 -1.7506
  153SAPE  C31316981   6.845   3.509   4.256  0.1176 -0.4876 -0.3760
  153SAPE  H13X16982   6.840   3.620   4.250 -0.6449 -0.5737 -1.4157
  153SAPE  H13Y16983   6.745   3.462   4.266  0.6461 -1.2897  1.4107
  153SAPE  C31416984   6.913   3.449   4.131  0.5608  0.8849  0.1131
  153SAPE  H14X16985   6.949   3.348   4.160  0.3787  0.2976 -1.6412
  153SAPE  H14Y16986   7.005   3.508   4.113  0.8590  0.3276 -0.2018
  153SAPE  C31516987   6.836   3.448   3.995  0.2991  0.1945 -0.6154
  153SAPE  H15X16988   6.796   3.551   3.981 -0.4246 -0.2458 -1.9631
  153SAPE  H15Y16989   6.751   3.376   4.000 -0.8952  1.5309 -1.0712
  153SAPE  C31616990   6.940   3.409   3.882  0.6575 -0.3674  0.5804
  153SAPE  H16X16991   7.016   3.490   3.881 -1.7361  1.9906  2.1803
  153SAPE  H16Y16992   6.888   3.431   3.786  0.4570  0.1086  0.7956
  153SAPE  C31716993   6.993   3.270   3.882  0.4073 -0.2472  0.6194
  153SAPE  H17X16994   6.913   3.198   3.909  0.6997 -1.0220 -0.5607
  153SAPE  H17Y16995   7.068   3.259   3.964 -0.4212 -1.7007  1.1958
  153SAPE  C31816996   7.045   3.228   3.744 -0.0215  0.0584 -0.0514
  153SAPE  H18X16997   7.087   3.125   3.737  0.7622  0.4187 -0.6114
  153SAPE  H18Y16998   7.123   3.300   3.713 -0.8988  1.0574  0.0158
  153SAPE  H18Z16999   6.965   3.242   3.669 -0.8894  0.4391  0.9299
  154SAPE     N17000   4.015   0.362   5.978 -0.1502 -0.1042  0.3114
  154SAPE   HN117001   4.001   0.318   6.072 -0.8780  0.9858  0.7253
  154SAPE   HN217002   4.093   0.429   5.988  0.1690 -0.5879  1.0986
  154SAPE   HN317003   3.926   0.406   5.947 -0.2555 -0.6557 -0.1692
  154SAPE   C1217004   4.036   0.252   5.884 -0.4510  0.9755 -0.2234
  154SAPE  H12A17005   4.116   0.185   5.923  0.1008  1.3447 -0.7026
  154SAPE  H12B17006   4.074   0.304   5.793  1.6168  0.4133  0.2828
  154SAPE   C1117007   3.904   0.172   5.869  0.0084  0.7424  0.8508
  154SAPE  H11A17008   3.898   0.124   5.769  0.7438  1.1504  0.6100
  154SAPE  H11B17009   3.821   0.246   5.868 -0.2309  0.5325  2.5441
  154SAPE     P17010   3.943  -0.062   5.951  0.3146 -0.5059 -0.0541
  154SAPE   O1317011   4.085  -0.066   5.899 -0.0868 -0.3702 -0.6579
  154SAPE   O1417012   3.916  -0.137   6.074 -0.2800 -0.1663  0.4660
  154SAPE   O1217013   3.899   0.087   5.983 -0.6967 -0.3439 -0.3175
  154SAPE   O1117014   3.843  -0.103   5.831  0.2558  0.4369 -0.5151
  154SAPE    C117015   3.807  -0.242   5.822  0.2704 -0.0149 -0.1442
  154SAPE    HA17016   3.782  -0.284   5.922  1.9958  2.1571  1.2464
  154SAPE    HB17017   3.713  -0.255   5.766  0.1666 -0.8041  0.2095
  154SAPE    C217018   3.923  -0.330   5.760  0.6105 -0.1432  0.6655
  154SAPE    HS17019   4.007  -0.321   5.833  0.3568  2.8008  0.6688
  154SAPE   O2117020   3.967  -0.268   5.631  0.4393 -0.6666  0.4917
  154SAPE   C2117021   4.089  -0.323   5.581  0.6553  0.2512 -0.2292
  154SAPE   O2217022   4.169  -0.380   5.648 -0.1890 -0.2590 -0.2686
  154SAPE   C2217023   4.104  -0.304   5.433 -1.1264  0.8045  0.9802
  154SAPE   H2R17024   4.109  -0.410   5.400  1.4342  1.0501  0.4838
  154SAPE   H2S17025   4.013  -0.271   5.377 -1.0104 -1.3894 -0.5830
  154SAPE    C317026   3.874  -0.479   5.750 -0.4160  0.3796 -0.1499
  154SAPE    HX17027   3.845  -0.509   5.853  1.7662  0.9675  0.6735
  154SAPE    HY17028   3.958  -0.543   5.717  0.4658  0.8110  1.2293
  154SAPE   O3117029   3.762  -0.484   5.657 -0.0842  0.1037  0.0247
  154SAPE   C3117030   3.736  -0.603   5.595 -0.6368 -0.5721  0.1233
  154SAPE   O3217031   3.793  -0.707   5.609 -0.2898  0.1191 -0.2665
  154SAPE   C3217032   3.620  -0.574   5.513  0.3836 -0.7993  0.0953
  154SAPE   H2X17033   3.538  -0.523   5.566 -0.7096  0.2671 -2.5277
  154SAPE   H2Y17034   3.572  -0.671   5.485  1.5403 -1.6257  0.8924
  154SAPE   C2317035   4.237  -0.240   5.383 -0.2823  0.2827  0.2770
  154SAPE   H3R17036   4.248  -0.272   5.277  1.0298  1.5457  0.0174
  154SAPE   H3S17037   4.320  -0.277   5.446  0.5034 -1.4218 -1.6862
  154SAPE   C2417038   4.235  -0.080   5.383 -0.3181  0.1674 -0.2000
  154SAPE   H4R17039   4.155  -0.064   5.307 -0.3703 -0.5442 -0.3053
  154SAPE   H4S17040   4.328  -0.039   5.339  0.6434 -0.3275  1.3371
  154SAPE   C2517041   4.206  -0.009   5.515 -0.1424 -0.5761  0.6104
  154SAPE   H5R17042   4.286  -0.018   5.590  2.0629  0.8767 -1.5062
  154SAPE   C2617043   4.102   0.075   5.551  0.1801  0.0850  0.6770
  154SAPE   H6R17044   4.092   0.091   5.659  2.7459  0.8579  0.8557
  154SAPE   C2717045   3.994   0.115   5.456  0.2876 -0.4901 -0.0136
  154SAPE   H7R17046   4.029   0.192   5.384  1.0492 -1.2890 -0.5201
  154SAPE   H7S17047   3.925   0.177   5.517  0.4519 -1.4066  1.1371
  154SAPE   C2817048   3.914   0.003   5.402  0.0670 -0.3543  0.0183
  154SAPE   H8R17049   3.913  -0.085   5.468  0.0685  0.6897  1.4417
  154SAPE   C2917050   3.836   0.018   5.290 -0.5936 -0.7853 -0.4329
  154SAPE   H9R17051   3.801  -0.074   5.242  0.7190 -0.7630 -1.4663
  154SAPE  C21017052   3.827   0.143   5.204 -0.0665  0.2061 -0.4637
  154SAPE  H10R17053   3.893   0.133   5.116  0.1399  1.8879 -0.5185
  154SAPE  H10S17054   3.865   0.230   5.262 -0.3633  1.3492 -1.9451
  154SAPE  C21117055   3.693   0.174   5.141 -0.3408 -0.1907 -0.3023
  154SAPE  H11R17056   3.613   0.183   5.216 -0.3985  0.1953 -0.4079
  154SAPE  C21217057   3.662   0.200   5.014 -0.3215 -0.1514 -0.7291
  154SAPE  H12R17058   3.564   0.251   5.008  0.1571  0.7997 -0.5415
  154SAPE  C21317059   3.752   0.201   4.890 -0.8889  0.3642  0.7977
  154SAPE  H13R17060   3.807   0.105   4.890  2.9873  2.4705 -0.8846
  154SAPE  H13S17061   3.830   0.280   4.899 -1.0980  0.5590  0.9165
  154SAPE  C21417062   3.678   0.214   4.757  0.4085 -0.6223  0.0391
  154SAPE  H14R17063   3.627   0.311   4.749 -1.4349 -1.4847  0.8883
  154SAPE  C21517064   3.679   0.130   4.653 -0.9637 -0.6890 -0.3343
  154SAPE  H15R17065   3.611   0.149   4.569  1.5633 -0.3441 -2.3217
  154SAPE  C21617066   3.754   0.006   4.638 -1.3052 -0.4893 -0.1342
  154SAPE  H16R17067   3.864   0.023   4.635 -1.2756 -0.7210 -0.4626
  154SAPE  H16S17068   3.738  -0.029   4.534 -1.9594 -0.8187  0.0747
  154SAPE  C21717069   3.714  -0.109   4.723 -0.1571  0.3032  0.6750
  154SAPE  H17R17070   3.725  -0.085   4.831 -0.3634  1.0284  0.5330
  154SAPE  H17S17071   3.779  -0.193   4.690 -0.0399  0.5391  0.3071
  154SAPE  C21817072   3.571  -0.154   4.704  0.1376  1.1120  0.0482
  154SAPE  H18R17073   3.566  -0.199   4.603 -0.1159  0.8333  0.1824
  154SAPE  H18S17074   3.502  -0.068   4.721 -2.2705 -0.3595 -1.9146
  154SAPE  C21917075   3.538  -0.270   4.797  0.5971 -0.5407 -0.2809
  154SAPE  H19R17076   3.428  -0.287   4.792  0.0001  2.8013 -0.0405
  154SAPE  H19S17077   3.547  -0.237   4.902 -0.7263  0.1219 -0.3560
  154SAPE  C22017078   3.629  -0.396   4.773 -0.3149 -0.6708  0.6542
  154SAPE  H20R17079   3.594  -0.477   4.841 -0.1529  0.0070  1.5672
  154SAPE  H20S17080   3.732  -0.362   4.799 -0.3533  0.2558 -0.3596
  154SAPE  H20T17081   3.621  -0.414   4.664 -0.0201  0.2830  0.4703
  154SAPE   C3317082   3.653  -0.494   5.389  0.5140  0.4065  0.0648
  154SAPE   H3X17083   3.735  -0.424   5.414  1.0433 -0.2301  0.1230
  154SAPE   H3Y17084   3.564  -0.439   5.353  0.8408  0.2600 -0.9888
  154SAPE   C3417085   3.702  -0.582   5.272 -0.0024  0.4152  0.3513
  154SAPE   H4X17086   3.626  -0.658   5.244  0.3874  0.6083 -1.2889
  154SAPE   H4Y17087   3.792  -0.641   5.301 -0.5710 -0.9489 -0.6061
  154SAPE   C3517088   3.726  -0.492   5.147  0.8346  0.0952 -0.7919
  154SAPE   H5X17089   3.644  -0.421   5.124  0.9961  0.3845 -0.4813
  154SAPE   H5Y17090   3.747  -0.553   5.056  1.0713 -0.9537 -0.0397
  154SAPE   C3617091   3.844  -0.404   5.164  0.9663  0.0916 -0.8558
  154SAPE   H6X17092   3.924  -0.470   5.206  1.0350  0.6116 -0.1560
  154SAPE   H6Y17093   3.826  -0.319   5.233  2.2047  1.8410 -2.6228
  154SAPE   C3717094   3.906  -0.354   5.036  0.6371  0.1163 -0.0153
  154SAPE   H7X17095   3.845  -0.268   5.001  0.1743 -0.2375 -0.0742
  154SAPE   H7Y17096   3.896  -0.432   4.958  1.2996 -0.1291  0.1460
  154SAPE   C3817097   4.051  -0.305   5.067 -0.2745 -0.2871  0.6098
  154SAPE   H8X17098   4.101  -0.374   5.138  1.0609  0.2523  0.2047
  154SAPE   H8Y17099   4.047  -0.213   5.128 -0.0448  0.2152 -0.1154
  154SAPE   C3917100   4.140  -0.289   4.949 -0.3980 -0.0711 -0.2002
  154SAPE   H9X17101   4.076  -0.286   4.858 -3.1327 -1.3854  1.6357
  154SAPE   H9Y17102   4.202  -0.379   4.934 -3.0069 -1.5604 -2.4764
  154SAPE  C31017103   4.230  -0.167   4.959  0.1469 -0.5312 -0.4194
  154SAPE  H10X17104   4.314  -0.172   4.886  0.8479 -0.8732  0.3968
  154SAPE  H10Y17105   4.263  -0.166   5.065 -1.6237  0.9275  0.1471
  154SAPE  C31117106   4.161  -0.030   4.927 -0.2422 -0.6350 -0.6604
  154SAPE  H11X17107   4.239   0.049   4.925 -0.3944 -0.4659  0.1067
  154SAPE  H11Y17108   4.084  -0.017   5.005  1.5833  1.9268  0.7834
  154SAPE  C31217109   4.097  -0.025   4.784  0.4858  0.0831 -0.1520
  154SAPE  H12X17110   4.079   0.082   4.763  0.7483  0.0411 -0.6045
  154SAPE  H12Y17111   3.997  -0.074   4.786 -0.4239  1.9457  1.2607
  154SAPE  C31317112   4.190  -0.058   4.662  0.4474  0.4447 -0.7607
  154SAPE  H13X17113   4.184  -0.166   4.637  1.5728  0.0774  0.4865
  154SAPE  H13Y17114   4.295  -0.030   4.686  0.8423  1.5707 -3.6295
  154SAPE  C31417115   4.154   0.012   4.529 -0.0699 -0.6941  0.0532
  154SAPE  H14X17116   4.253   0.037   4.486 -1.0585 -0.0367 -1.9096
  154SAPE  H14Y17117   4.089   0.102   4.527 -0.7281 -1.1436  1.1231
  154SAPE  C31517118   4.107  -0.086   4.410 -0.5109  0.3974 -0.0309
  154SAPE  H15X17119   4.014  -0.128   4.452 -0.1356 -0.6344 -0.2273
  154SAPE  H15Y17120   4.185  -0.160   4.384 -0.6015  0.4444 -0.4503
  154SAPE  C31617121   4.061  -0.013   4.285 -0.3589  0.3589  0.0070
  154SAPE  H16X17122   4.125   0.075   4.259  0.3148  0.3137  1.4703
  154SAPE  H16Y17123   3.957   0.021   4.301  0.3157  3.5632 -1.7978
  154SAPE  C31717124   4.065  -0.112   4.161  0.6447  0.1239  0.1190
  154SAPE  H17X17125   4.168  -0.112   4.121  0.4942 -0.6717 -0.2664
  154SAPE  H17Y17126   4.005  -0.062   4.081 -0.1910  0.1019  0.7243
  154SAPE  C31817127   4.019  -0.255   4.192 -0.4721 -0.2915  0.1626
  154SAPE  H18X17128   4.094  -0.303   4.259  0.4260 -0.5619 -1.0115
  154SAPE  H18Y17129   4.001  -0.317   4.101 -2.2376  2.1198 -1.1643
  154SAPE  H18Z17130   3.918  -0.246   4.238  0.7661  1.0768  2.7055
  155SAPE     N17131   5.088   7.003   5.924  0.4622 -0.1509  0.3650
  155SAPE   HN117132   5.010   6.939   5.951 -0.2629  0.8655  0.6811
  155SAPE   HN217133   5.150   6.944   5.865 -0.2040 -0.6882  0.1922
  155SAPE   HN317134   5.148   7.021   6.007  0.6379 -0.2460  0.2594
  155SAPE   C1217135   5.039   7.138   5.874 -0.2880  0.4061  0.1875
  155SAPE  H12A17136   4.934   7.115   5.843  0.7032  0.2908 -3.3805
  155SAPE  H12B17137   5.094   7.174   5.784  1.1785 -1.6068  0.2573
  155SAPE   C1117138   5.038   7.227   6.000  0.2927  0.2132  0.7832
  155SAPE  H11A17139   5.017   7.331   5.966  2.4287  0.6043  0.5713
  155SAPE  H11B17140   5.140   7.229   6.044 -0.2335  0.8582  1.9995
  155SAPE     P17141   4.791   7.237   6.091  0.1344 -0.2899 -0.1156
  155SAPE   O1317142   4.714   7.194   6.216 -0.0095 -0.3903 -0.1057
  155SAPE   O1417143   4.778   7.377   6.065  0.1964 -0.1263  0.1626
  155SAPE   O1217144   4.942   7.195   6.096  0.2525 -0.3842  0.5260
  155SAPE   O1117145   4.732   7.146   5.970 -0.1286 -0.0518  0.5139
  155SAPE    C117146   4.680   7.202   5.853 -0.0523  0.1730 -0.7980
  155SAPE    HA17147   4.594   7.264   5.888 -0.2300 -1.1520  1.1989
  155SAPE    HB17148   4.749   7.282   5.819 -0.6088  2.1522  2.4370
  155SAPE    C217149   4.623   7.095   5.762  0.5324 -0.4602 -0.3261
  155SAPE    HS17150   4.563   7.037   5.835 -0.3934  0.1365 -0.6049
  155SAPE   O2117151   4.728   7.013   5.722 -0.4990  0.0088 -0.5384
  155SAPE   C2117152   4.686   6.890   5.678  0.8025  0.2834  0.7757
  155SAPE   O2217153   4.573   6.845   5.684 -0.6673  0.1081 -0.3676
  155SAPE   C2217154   4.810   6.823   5.623  0.3149 -0.5932 -0.1716
  155SAPE   H2R17155   4.901   6.870   5.663 -0.4108 -0.8200  1.7890
  155SAPE   H2S17156   4.808   6.718   5.661  2.1513 -0.5462  0.0685
  155SAPE    C317157   4.539   7.159   5.645 -0.2818  0.8269 -0.9501
  155SAPE    HX17158   4.450   7.214   5.681 -1.1089  0.7005 -2.7098
  155SAPE    HY17159   4.492   7.078   5.584 -0.1470  0.0974 -0.0995
  155SAPE   O3117160   4.628   7.236   5.558 -0.8570  0.3694 -0.6499
  155SAPE   C3117161   4.620   7.366   5.596  0.2549  0.2523  0.3196
  155SAPE   O3217162   4.556   7.409   5.695 -0.2906  0.1042 -0.3704
  155SAPE   C3217163   4.690   7.447   5.483  0.2495  0.2445  0.3036
  155SAPE   H2X17164   4.699   7.552   5.518  0.5372  0.1706  0.4495
  155SAPE   H2Y17165   4.631   7.448   5.389  0.1948  0.5651  0.3409
  155SAPE   C2317166   4.819   6.825   5.471  0.3821  0.3666  0.8421
  155SAPE   H3R17167   4.743   6.760   5.423 -0.2351 -0.9667  3.5263
  155SAPE   H3S17168   4.916   6.775   5.450 -0.1272  0.7897 -2.7325
  155SAPE   C2417169   4.831   6.971   5.421 -0.2958  0.3244  0.1451
  155SAPE   H4R17170   4.912   7.021   5.478  1.5718 -0.2776 -1.8978
  155SAPE   H4S17171   4.734   7.017   5.449 -1.2937 -1.4615 -0.3179
  155SAPE   C2517172   4.849   6.974   5.273 -0.3415  0.7820 -0.1995
  155SAPE   H5R17173   4.940   6.922   5.241 -0.9069 -1.5577  1.9236
  155SAPE   C2617174   4.770   7.037   5.186  0.3978  0.6315  0.4608
  155SAPE   H6R17175   4.803   7.017   5.083 -0.3708  0.4962  0.2429
  155SAPE   C2717176   4.642   7.114   5.224  0.3661  0.0838  0.0216
  155SAPE   H7R17177   4.633   7.138   5.332  1.3561  0.5174  0.0156
  155SAPE   H7S17178   4.551   7.051   5.216 -1.5149  2.7585 -0.2745
  155SAPE   C2817179   4.627   7.244   5.149  0.3533 -0.1524  0.7643
  155SAPE   H8R17180   4.671   7.331   5.199  0.4785  0.1977  0.0589
  155SAPE   C2917181   4.594   7.262   5.019  0.2212 -0.0433  0.7913
  155SAPE   H9R17182   4.565   7.361   4.983 -1.9399 -1.0412 -0.3041
  155SAPE  C21017183   4.560   7.147   4.922  0.0444  0.0742 -0.5359
  155SAPE  H10R17184   4.454   7.157   4.892  0.0493 -1.2810 -1.0689
  155SAPE  H10S17185   4.564   7.047   4.972  1.7514  0.2743 -0.2491
  155SAPE  C21117186   4.638   7.153   4.795  0.3183  0.0877 -0.6439
  155SAPE  H11R17187   4.710   7.070   4.796  0.9660  0.6393  0.9803
  155SAPE  C21217188   4.622   7.243   4.695 -0.2017  0.1180 -0.0534
  155SAPE  H12R17189   4.669   7.211   4.601 -0.3088 -0.1311 -0.0212
  155SAPE  C21317190   4.529   7.365   4.686  0.5519  0.2577 -0.1351
  155SAPE  H13R17191   4.575   7.456   4.730 -0.7622  1.7313 -1.7413
  155SAPE  H13S17192   4.448   7.343   4.758  0.6450 -1.4844 -0.5433
  155SAPE  C21417193   4.470   7.399   4.547  0.4882 -0.1511 -0.6882
  155SAPE  H14R17194   4.410   7.318   4.504  1.5784 -1.0652 -0.4911
  155SAPE  C21517195   4.483   7.523   4.496  0.1268 -0.0828 -0.4574
  155SAPE  H15R17196   4.442   7.547   4.397 -0.2232  1.8027  0.1348
  155SAPE  C21617197   4.550   7.648   4.547  0.1232  0.0943 -0.1117
  155SAPE  H16R17198   4.651   7.655   4.502  0.9918  1.4885  1.9516
  155SAPE  H16S17199   4.569   7.643   4.657 -1.5936  3.1773  0.3732
  155SAPE  C21717200   4.466   7.778   4.539 -0.3359  0.4318 -0.3727
  155SAPE  H17R17201   4.491   7.860   4.609 -0.7795 -1.1116  1.6239
  155SAPE  H17S17202   4.359   7.764   4.564 -0.0815  0.6764  0.8794
  155SAPE  C21817203   4.440   7.834   4.393  0.0579  0.2303  0.9057
  155SAPE  H18R17204   4.396   7.936   4.401 -0.7653 -0.0298 -0.0883
  155SAPE  H18S17205   4.365   7.765   4.347  1.7793 -0.9194 -0.2300
  155SAPE  C21917206   4.561   7.844   4.297  0.0054 -0.6783  0.0181
  155SAPE  H19R17207   4.632   7.758   4.291 -1.1412 -1.7449  1.3553
  155SAPE  H19S17208   4.625   7.923   4.341 -1.4363  1.0912 -1.0286
  155SAPE  C22017209   4.530   7.876   4.149 -0.0036 -0.2574 -1.0624
  155SAPE  H20R17210   4.454   7.800   4.120 -0.6107 -0.9746  2.1745
  155SAPE  H20S17211   4.617   7.878   4.080  0.4585  0.4264 -0.4709
  155SAPE  H20T17212   4.476   7.972   4.159 -1.6066 -1.1737 -0.6372
  155SAPE   C3317213   4.832   7.384   5.444 -0.3996 -0.4068  0.0161
  155SAPE   H3X17214   4.869   7.441   5.356  1.0610  2.5259  2.4478
  155SAPE   H3Y17215   4.812   7.277   5.420 -0.3450 -0.2792 -0.6010
  155SAPE   C3417216   4.938   7.399   5.545  0.0813 -0.0103 -0.4332
  155SAPE   H4X17217   4.906   7.374   5.648  5.5572  0.8743  1.6731
  155SAPE   H4Y17218   4.965   7.505   5.569  1.5305 -0.8521  1.8288
  155SAPE   C3517219   5.072   7.316   5.522 -0.0952 -0.2031  0.6122
  155SAPE   H5X17220   5.052   7.209   5.544 -0.0718 -0.2512  0.3978
  155SAPE   H5Y17221   5.140   7.353   5.602 -0.0825  1.2885 -0.0645
  155SAPE   C3617222   5.146   7.336   5.391 -0.4300  0.8525 -0.8407
  155SAPE   H6X17223   5.253   7.310   5.405 -1.3191 -1.8178  1.7299
  155SAPE   H6Y17224   5.145   7.444   5.367  1.5470  1.0364 -0.1949
  155SAPE   C3717225   5.089   7.258   5.274  0.6838 -0.2045  0.1712
  155SAPE   H7X17226   4.979   7.271   5.266  0.2432 -3.4215  0.4194
  155SAPE   H7Y17227   5.095   7.149   5.289  0.2679 -0.1918  0.4302
  155SAPE   C3817228   5.157   7.293   5.134  0.0180  0.4206 -0.2400
  155SAPE   H8X17229   5.265   7.274   5.151 -0.4874  0.1488  2.8240
  155SAPE   H8Y17230   5.153   7.401   5.107 -0.4924  0.6216  0.6290
  155SAPE   C3917231   5.094   7.210   5.028  0.3449  0.5722  0.3502
  155SAPE   H9X17232   4.997   7.260   5.011 -0.4275 -0.7004  0.8820
  155SAPE   H9Y17233   5.072   7.108   5.068 -0.4742  1.1598  1.4082
  155SAPE  C31017234   5.176   7.204   4.899  0.0413  1.1652 -0.9010
  155SAPE  H10X17235   5.278   7.160   4.908  0.7047  2.7441 -0.5482
  155SAPE  H10Y17236   5.195   7.307   4.862 -1.7275  1.3667 -1.3032
  155SAPE  C31117237   5.117   7.107   4.791 -0.1806  0.2584  0.0239
  155SAPE  H11X17238   5.013   7.136   4.763 -0.2552  1.0200  1.0480
  155SAPE  H11Y17239   5.115   7.007   4.839  1.5996 -0.0289 -0.4954
  155SAPE  C31217240   5.190   7.094   4.663 -0.3308  0.0204 -0.1725
  155SAPE  H12X17241   5.297   7.078   4.692  0.9416  4.8608 -1.6840
  155SAPE  H12Y17242   5.193   7.190   4.608 -2.1141 -0.7588 -1.6580
  155SAPE  C31317243   5.149   6.985   4.561 -0.0068  0.2784 -0.5263
  155SAPE  H13X17244   5.041   7.001   4.542  0.0896  0.7915 -0.6424
  155SAPE  H13Y17245   5.182   6.884   4.594  3.5304  1.6431  0.4395
  155SAPE  C31417246   5.216   7.013   4.429 -0.0149  0.2265 -0.2355
  155SAPE  H14X17247   5.321   7.038   4.456  0.0638 -2.1104  1.7662
  155SAPE  H14Y17248   5.158   7.095   4.381 -2.5065 -0.8480  0.8543
  155SAPE  C31517249   5.226   6.886   4.337  0.0498  0.4211 -0.5602
  155SAPE  H15X17250   5.125   6.848   4.311  0.3881 -1.3987  0.6585
  155SAPE  H15Y17251   5.274   6.800   4.389  1.0690  0.8829 -0.7186
  155SAPE  C31617252   5.324   6.903   4.217  0.2280 -0.2702  0.0034
  155SAPE  H16X17253   5.321   6.809   4.157  2.2478 -1.9106  2.3544
  155SAPE  H16Y17254   5.424   6.911   4.263  0.3436  1.6774 -0.5554
  155SAPE  C31717255   5.304   7.034   4.151  0.6253 -0.3472  0.0532
  155SAPE  H17X17256   5.371   7.029   4.062  0.4404  0.1038 -0.1110
  155SAPE  H17Y17257   5.329   7.123   4.213  0.9152 -0.1263 -0.3788
  155SAPE  C31817258   5.162   7.064   4.091  0.3744  0.1816 -1.2019
  155SAPE  H18X17259   5.113   6.985   4.030  0.9587  0.5409 -2.1281
  155SAPE  H18Y17260   5.170   7.147   4.019  0.6641  0.2136 -1.1328
  155SAPE  H18Z17261   5.087   7.102   4.164 -0.2165 -1.6106 -0.8530
  156SAPE     N17262   6.669   2.065   6.079 -0.3250  0.1609  0.2390
  156SAPE   HN117263   6.642   1.974   6.121  0.3011 -1.3222 -2.4474
  156SAPE   HN217264   6.764   2.091   6.113 -1.3611  0.8221  2.6476
  156SAPE   HN317265   6.607   2.142   6.111  3.1831  2.6526  1.3405
  156SAPE   C1217266   6.681   2.051   5.931  0.1622  0.9366 -0.2733
  156SAPE  H12A17267   6.717   2.149   5.894 -1.0706  1.6152  0.2967
  156SAPE  H12B17268   6.584   2.026   5.883  0.2376 -1.7247  0.8315
  156SAPE   C1117269   6.788   1.947   5.897  0.1027  0.6764 -0.6115
  156SAPE  H11A17270   6.881   1.985   5.944 -1.5200  0.8010  2.6512
  156SAPE  H11B17271   6.787   1.932   5.787  3.8667 -0.1703 -0.5741
  156SAPE     P17272   6.811   1.696   5.946 -0.0815 -0.0073  0.1969
  156SAPE   O1317273   6.827   1.632   6.076 -0.1923  0.1498 -0.3436
  156SAPE   O1417274   6.748   1.617   5.842  0.5716 -0.0370 -0.0457
  156SAPE   O1217275   6.739   1.831   5.967 -0.2226  0.0557 -0.3481
  156SAPE   O1117276   6.951   1.733   5.893 -0.1579 -0.0193  0.0100
  156SAPE    C117277   7.069   1.719   5.965  0.2927  0.9248  0.6014
  156SAPE    HA17278   7.079   1.804   6.036 -1.8041  1.2786  0.5037
  156SAPE    HB17279   7.059   1.624   6.022  1.4593 -0.2892 -1.1735
  156SAPE    C217280   7.195   1.718   5.870  0.5213 -0.7094  0.4326
  156SAPE    HS17281   7.292   1.720   5.925  1.1386  0.6039 -0.6428
  156SAPE   O2117282   7.201   1.820   5.766 -0.0451  0.8100 -0.6284
  156SAPE   C2117283   7.215   1.940   5.809  0.0281  0.2435  0.8434
  156SAPE   O2217284   7.233   1.983   5.922  0.0708  0.2776 -0.7760
  156SAPE   C2217285   7.237   2.026   5.684  0.0041  0.4254  0.2588
  156SAPE   H2R17286   7.271   2.125   5.722 -0.3693  0.1528  1.3202
  156SAPE   H2S17287   7.324   1.985   5.629  0.8839  2.1547  0.2996
  156SAPE    C317288   7.219   1.582   5.806  0.1355  0.3134  0.5600
  156SAPE    HX17289   7.208   1.496   5.876  1.5140 -2.5100 -2.5663
  156SAPE    HY17290   7.328   1.569   5.792  0.1364  1.0711 -0.1854
  156SAPE   O3117291   7.150   1.564   5.679 -0.3646 -0.1165 -0.2694
  156SAPE   C3117292   7.061   1.471   5.676 -0.3502  0.0498 -0.3462
  156SAPE   O3217293   7.048   1.386   5.767  0.2228  0.3022  0.2665
  156SAPE   C3217294   6.954   1.490   5.563 -0.3085 -0.3871 -0.1710
  156SAPE   H2X17295   6.879   1.566   5.595  1.7402  0.8156  1.9807
  156SAPE   H2Y17296   6.905   1.395   5.536  0.5851 -0.5985 -1.0710
  156SAPE   C2317297   7.101   2.035   5.609 -0.4751  0.3217  0.3992
  156SAPE   H3R17298   7.045   2.127   5.638 -2.8117 -0.8051 -0.4560
  156SAPE   H3S17299   7.036   1.947   5.629 -0.6347 -0.0864 -1.8550
  156SAPE   C2417300   7.133   2.027   5.459 -0.2089 -0.2568 -0.2143
  156SAPE   H4R17301   7.171   1.924   5.444  2.1896  0.7138 -1.1321
  156SAPE   H4S17302   7.217   2.098   5.443 -1.8537  1.1628 -2.9214
  156SAPE   C2517303   7.017   2.066   5.370 -0.6593  0.3081 -0.1628
  156SAPE   H5R17304   6.941   2.141   5.396 -0.3579  1.4140 -2.3045
  156SAPE   C2617305   6.992   2.016   5.247 -0.2644  0.3148  0.6792
  156SAPE   H6R17306   6.909   2.052   5.185 -0.9640 -1.0341  0.8125
  156SAPE   C2717307   7.080   1.909   5.187 -0.0565 -0.1209  0.2401
  156SAPE   H7R17308   7.100   1.832   5.264 -1.3231  0.5558  1.2706
  156SAPE   H7S17309   7.174   1.957   5.151 -1.1398  0.4754 -1.8464
  156SAPE   C2817310   7.019   1.827   5.073  0.8385 -0.7835  0.6531
  156SAPE   H8R17311   6.936   1.763   5.108  0.3555  0.2283  1.4118
  156SAPE   C2917312   7.035   1.852   4.939 -0.2186  0.1197  0.1682
  156SAPE   H9R17313   6.995   1.784   4.863  1.8486  0.8187 -1.5840
  156SAPE  C21017314   7.122   1.955   4.871  0.1310  0.0873  0.1448
  156SAPE  H10R17315   7.227   1.919   4.881  1.1125  2.2092 -2.0136
  156SAPE  H10S17316   7.129   2.050   4.929 -0.5559  0.9237 -1.1400
  156SAPE  C21117317   7.084   1.990   4.725 -0.1831 -0.6327  0.7001
  156SAPE  H11R17318   7.045   2.093   4.713  0.6475 -0.4118 -0.1194
  156SAPE  C21217319   7.111   1.920   4.612 -0.2224  0.2778 -0.8479
  156SAPE  H12R17320   7.080   1.968   4.518  1.1127  1.3630 -0.7587
  156SAPE  C21317321   7.175   1.787   4.600 -0.2611  0.6062  0.1899
  156SAPE  H13R17322   7.103   1.712   4.638  0.6391 -0.3456  0.0102
  156SAPE  H13S17323   7.262   1.781   4.668  0.7549  0.4859 -1.1071
  156SAPE  C21417324   7.229   1.753   4.463  0.5357  0.1006 -0.3233
  156SAPE  H14R17325   7.336   1.778   4.451  1.0424 -1.9119 -0.1783
  156SAPE  C21517326   7.161   1.703   4.366  0.3890  0.5963 -0.6756
  156SAPE  H15R17327   7.204   1.684   4.267  1.1074  2.6165 -0.7869
  156SAPE  C21617328   7.014   1.679   4.372 -0.1031  0.2532 -0.4800
  156SAPE  H16R17329   6.970   1.721   4.465 -1.8063 -0.2469 -1.0411
  156SAPE  H16S17330   6.988   1.571   4.386 -1.8462  0.7316  0.1247
  156SAPE  C21717331   6.939   1.735   4.252 -0.4134 -0.3363  0.0156
  156SAPE  H17R17332   6.984   1.714   4.152 -1.4154 -0.8965 -0.3310
  156SAPE  H17S17333   6.921   1.844   4.267  1.3593  0.1040 -0.8465
  156SAPE  C21817334   6.801   1.657   4.227 -0.5991  0.1383  0.1228
  156SAPE  H18R17335   6.742   1.666   4.320 -1.0109 -1.2066 -0.0006
  156SAPE  H18S17336   6.838   1.552   4.214 -1.6451 -0.5179  2.3302
  156SAPE  C21917337   6.719   1.712   4.111 -0.6665 -0.5747  0.7723
  156SAPE  H19R17338   6.787   1.709   4.023 -0.0150 -0.8406  1.2799
  156SAPE  H19S17339   6.685   1.815   4.131  0.3263 -0.5773  2.5669
  156SAPE  C22017340   6.595   1.625   4.081 -0.7015 -0.3923 -0.0987
  156SAPE  H20R17341   6.543   1.671   3.995  1.7545  0.7578 -1.0211
  156SAPE  H20S17342   6.530   1.615   4.171  0.5883 -0.5000  0.8372
  156SAPE  H20T17343   6.630   1.523   4.053 -0.4553 -0.5119  0.6180
  156SAPE   C3317344   7.019   1.560   5.441  0.3246 -0.3104 -0.1687
  156SAPE   H3X17345   7.090   1.642   5.464 -0.0001  1.1514 -4.0307
  156SAPE   H3Y17346   6.938   1.606   5.381 -0.4252 -1.0898  0.2214
  156SAPE   C3417347   7.076   1.454   5.340 -0.1242  0.1997  1.0325
  156SAPE   H4X17348   7.001   1.372   5.334 -2.4939  2.2926  1.1943
  156SAPE   H4Y17349   7.167   1.406   5.380 -1.2114 -2.3546  0.5250
  156SAPE   C3517350   7.083   1.519   5.204  0.1631 -0.5099  0.2256
  156SAPE   H5X17351   7.146   1.609   5.217  0.5455 -0.2356 -3.2069
  156SAPE   H5Y17352   6.985   1.562   5.176 -0.5624 -2.7923 -0.8706
  156SAPE   C3617353   7.158   1.432   5.097 -0.3946  0.4062  0.2503
  156SAPE   H6X17354   7.095   1.343   5.079 -0.9975  0.9494 -0.3575
  156SAPE   H6Y17355   7.242   1.380   5.148  0.9126  0.9282 -1.3491
  156SAPE   C3717356   7.198   1.497   4.968 -0.0630  0.7509  0.3069
  156SAPE   H7X17357   7.249   1.590   5.001 -0.4208  0.4404  1.7890
  156SAPE   H7Y17358   7.107   1.531   4.914 -1.1519  0.9761  2.2304
  156SAPE   C3817359   7.295   1.412   4.889  1.0988 -0.2778  0.8555
  156SAPE   H8X17360   7.360   1.355   4.959 -0.7338 -1.0469  1.9776
  156SAPE   H8Y17361   7.359   1.472   4.821  0.4604 -1.0772 -0.4649
  156SAPE   C3917362   7.228   1.301   4.799 -0.3444  0.1253 -0.7006
  156SAPE   H9X17363   7.171   1.358   4.722  1.3205 -0.1198 -2.1368
  156SAPE   H9Y17364   7.154   1.247   4.862  0.0709  2.3155  1.7422
  156SAPE  C31017365   7.329   1.216   4.727 -0.4573  0.1841 -0.3482
  156SAPE  H10X17366   7.287   1.126   4.678  0.5481  0.5233 -1.8729
  156SAPE  H10Y17367   7.388   1.172   4.811 -1.1740 -0.3298 -0.1101
  156SAPE  C31117368   7.411   1.289   4.609 -0.6906  0.0540 -0.6208
  156SAPE  H11X17369   7.486   1.220   4.565  0.5794  0.3193  1.0645
  156SAPE  H11Y17370   7.470   1.369   4.660 -0.1523 -0.2521 -0.7593
  156SAPE  C31217371   7.320   1.342   4.502  0.1626 -0.1043 -0.2975
  156SAPE  H12X17372   7.265   1.436   4.526 -2.9049 -1.3891 -1.9953
  156SAPE  H12Y17373   7.246   1.263   4.481 -0.0365 -0.2588  0.9405
  156SAPE  C31317374   7.392   1.355   4.360 -0.2871  0.4844  0.3638
  156SAPE  H13X17375   7.502   1.368   4.364 -0.1581  0.5652 -2.6185
  156SAPE  H13Y17376   7.356   1.453   4.322 -0.6249 -0.3042 -1.3979
  156SAPE  C31417377   7.352   1.247   4.260  0.2710 -0.4089 -0.3438
  156SAPE  H14X17378   7.241   1.240   4.269  0.3516 -0.6506  0.4754
  156SAPE  H14Y17379   7.389   1.148   4.294 -1.1367 -0.6671  0.4839
  156SAPE  C31517380   7.407   1.277   4.113 -0.2742 -0.1946  0.3861
  156SAPE  H15X17381   7.516   1.263   4.094 -0.2102 -0.0502  0.6402
  156SAPE  H15Y17382   7.385   1.380   4.078  2.3739 -0.1485 -1.3494
  156SAPE  C31617383   7.335   1.185   4.016  0.2058  0.1064  0.1101
  156SAPE  H16X17384   7.229   1.194   4.047 -0.2885 -0.6988 -1.3446
  156SAPE  H16Y17385   7.371   1.082   4.036  1.0388  0.0544 -1.5753
  156SAPE  C31717386   7.347   1.200   3.865 -0.2050 -0.0201 -0.4511
  156SAPE  H17X17387   7.340   1.309   3.843  2.0903  0.4510  0.8946
  156SAPE  H17Y17388   7.267   1.145   3.812 -1.0692  0.8120 -0.0037
  156SAPE  C31817389   7.487   1.169   3.807  0.2210 -0.2120  0.8693
  156SAPE  H18X17390   7.519   1.072   3.852  1.2291 -0.0280  0.5619
  156SAPE  H18Y17391   7.552   1.256   3.828  0.0743 -0.0661  0.7143
  156SAPE  H18Z17392   7.482   1.164   3.696 -2.2700  0.9914  0.8913
  157SAPE     N17393   5.924   0.222   5.925  0.7964 -0.4419 -0.3412
  157SAPE   HN117394   5.836   0.182   5.963 -0.6675  1.8341 -1.2386
  157SAPE   HN217395   5.903   0.307   5.868  1.6828 -0.7542 -1.1601
  157SAPE   HN317396   5.954   0.153   5.853  3.0368 -0.5659  0.6755
  157SAPE   C1217397   6.023   0.251   6.036  0.0229  0.7275  0.3585
  157SAPE  H12A17398   6.119   0.270   5.984  0.3948 -1.9827 -0.0297
  157SAPE  H12B17399   6.030   0.156   6.094  0.8169 -0.7591 -2.1266
  157SAPE   C1117400   5.977   0.371   6.127  0.1343 -0.0808  0.0655
  157SAPE  H11A17401   6.065   0.403   6.187  0.4422  0.4116 -0.6611
  157SAPE  H11B17402   5.895   0.339   6.196 -1.5533  0.1062 -1.8093
  157SAPE     P17403   5.887   0.624   6.094 -0.1306  0.0664  0.0796
  157SAPE   O1317404   5.743   0.648   6.067  0.0958  0.2777 -0.7814
  157SAPE   O1417405   5.925   0.642   6.235  0.5636  0.4112 -0.0060
  157SAPE   O1217406   5.930   0.479   6.050 -0.0643 -0.0654  0.0885
  157SAPE   O1117407   5.978   0.715   6.005 -0.0191  0.1946 -0.1598
  157SAPE    C117408   6.115   0.674   6.005 -0.3550  0.2211  0.8438
  157SAPE    HA17409   6.151   0.642   6.105 -0.3350  0.8882  1.0494
  157SAPE    HB17410   6.140   0.593   5.933 -0.8225  0.9873 -0.2001
  157SAPE    C217411   6.199   0.799   5.970 -0.3674 -0.1960  0.6741
  157SAPE    HS17412   6.178   0.873   6.049  0.5594 -0.7169  1.4195
  157SAPE   O2117413   6.162   0.848   5.841 -0.8871 -0.4039  0.2141
  157SAPE   C2117414   6.197   0.973   5.815  0.2868 -0.7717  0.7694
  157SAPE   O2217415   6.248   1.055   5.889 -0.4787  0.1165 -0.6534
  157SAPE   C2217416   6.146   1.001   5.679  0.2996  0.1303  0.0645
  157SAPE   H2R17417   6.152   0.917   5.607  1.5951  1.9670 -2.0580
  157SAPE   H2S17418   6.039   1.027   5.695  0.3953 -0.1759  1.2488
  157SAPE    C317419   6.349   0.756   5.983  0.0651 -0.2162 -0.2707
  157SAPE    HX17420   6.362   0.746   6.093  0.8764  2.0592 -0.1247
  157SAPE    HY17421   6.413   0.835   5.940  1.2051 -0.5541  0.7686
  157SAPE   O3117422   6.373   0.625   5.924 -0.3795  0.0569  0.1472
  157SAPE   C3117423   6.421   0.623   5.797 -0.2859  0.0115  0.5060
  157SAPE   O3217424   6.443   0.724   5.727  0.2335  0.3564 -0.6431
  157SAPE   C3217425   6.411   0.477   5.750 -0.7083 -0.6460  0.5810
  157SAPE   H2X17426   6.315   0.438   5.791 -1.5764  0.9745  0.1240
  157SAPE   H2Y17427   6.490   0.407   5.785  0.8877  0.7573 -0.1909
  157SAPE   C2317428   6.207   1.127   5.612 -0.2691  0.3833  0.1042
  157SAPE   H3R17429   6.312   1.102   5.586  0.3865  1.9085  1.2019
  157SAPE   H3S17430   6.215   1.203   5.692 -1.4976 -1.0459  1.6132
  157SAPE   C2417431   6.127   1.183   5.495 -0.1979  0.0793  0.0610
  157SAPE   H4R17432   6.027   1.211   5.536 -0.0204  1.0730 -0.1723
  157SAPE   H4S17433   6.112   1.105   5.417 -1.9978 -0.2505  0.7102
  157SAPE   C2517434   6.178   1.309   5.430 -0.4665 -0.5255 -0.8518
  157SAPE   H5R17435   6.219   1.374   5.509  1.9582 -3.8294  0.7538
  157SAPE   C2617436   6.187   1.347   5.298 -0.0065 -0.0250 -0.3154
  157SAPE   H6R17437   6.250   1.432   5.269  0.5020 -0.0840  0.5769
  157SAPE   C2717438   6.146   1.250   5.182  0.4986 -0.2181  0.4188
  157SAPE   H7R17439   6.106   1.318   5.103  3.3300  2.2934  1.0534
  157SAPE   H7S17440   6.067   1.175   5.203 -0.0878  0.3131  0.1327
  157SAPE   C2817441   6.261   1.160   5.152  0.0776  0.2560 -0.1080
  157SAPE   H8R17442   6.306   1.124   5.246 -1.1217 -0.0977  0.3376
  157SAPE   C2917443   6.310   1.133   5.028 -0.6427 -0.2872  0.4637
  157SAPE   H9R17444   6.387   1.056   5.020 -0.6171 -0.1616 -0.4655
  157SAPE  C21017445   6.256   1.167   4.884  0.1073 -0.2127 -0.0540
  157SAPE  H10R17446   6.332   1.180   4.804  1.5803 -0.5942  1.2690
  157SAPE  H10S17447   6.213   1.269   4.894  2.5518  1.0038 -1.4963
  157SAPE  C21117448   6.139   1.082   4.841 -0.0186  0.2357  0.2421
  157SAPE  H11R17449   6.050   1.104   4.902 -0.8745 -0.7820 -0.6112
  157SAPE  C21217450   6.145   0.983   4.754  0.4936 -0.3000  0.1324
  157SAPE  H12R17451   6.048   0.944   4.722 -0.1753 -0.0592  1.8226
  157SAPE  C21317452   6.272   0.939   4.677 -0.1416  0.7158 -0.3243
  157SAPE  H13R17453   6.350   1.018   4.664  0.5272  0.0295 -0.5570
  157SAPE  H13S17454   6.248   0.917   4.571 -3.7561  1.3410  0.3191
  157SAPE  C21417455   6.343   0.823   4.743  0.2899  0.0277  0.1723
  157SAPE  H14R17456   6.306   0.798   4.844 -2.5127  2.0659 -0.2796
  157SAPE  C21517457   6.446   0.749   4.692 -0.2036  0.8961  0.2540
  157SAPE  H15R17458   6.474   0.657   4.745 -0.7776 -0.6395 -2.0523
  157SAPE  C21617459   6.504   0.793   4.562  0.1025  0.4891 -0.2571
  157SAPE  H16R17460   6.609   0.823   4.578 -0.1725  0.5771  1.5093
  157SAPE  H16S17461   6.463   0.882   4.510 -2.6352 -1.5337 -1.7813
  157SAPE  C21717462   6.514   0.672   4.460  0.7883  0.3469 -0.3046
  157SAPE  H17R17463   6.505   0.720   4.360  1.8139  0.6564 -0.2636
  157SAPE  H17S17464   6.434   0.596   4.465  0.9447  0.1839 -0.2860
  157SAPE  C21817465   6.646   0.606   4.463 -0.2201  0.1336 -0.0532
  157SAPE  H18R17466   6.669   0.585   4.570 -0.2135 -0.8113 -0.2334
  157SAPE  H18S17467   6.728   0.680   4.452 -0.4853  0.4836  0.3045
  157SAPE  C21917468   6.670   0.479   4.377 -0.9182  0.1337  0.0881
  157SAPE  H19R17469   6.576   0.422   4.391  0.1411 -1.4943  0.6470
  157SAPE  H19S17470   6.754   0.417   4.415  1.9327  2.6681 -1.8333
  157SAPE  C22017471   6.698   0.503   4.229 -0.6975  0.3259  0.4902
  157SAPE  H20R17472   6.776   0.580   4.212  0.4397 -0.3546  2.4813
  157SAPE  H20S17473   6.612   0.539   4.168 -0.2191 -1.0421 -1.0347
  157SAPE  H20T17474   6.729   0.406   4.183  0.7798  1.0055  0.0271
  157SAPE   C3317475   6.400   0.491   5.593 -0.2851 -0.1117 -0.3654
  157SAPE   H3X17476   6.497   0.532   5.560  1.0300 -1.4097  1.7883
  157SAPE   H3Y17477   6.324   0.566   5.559 -1.2303 -1.1733 -0.6266
  157SAPE   C3417478   6.373   0.355   5.519  0.7359  0.2486 -0.2208
  157SAPE   H4X17479   6.273   0.310   5.536  0.8491  0.6341  1.5042
  157SAPE   H4Y17480   6.451   0.285   5.556 -0.8868 -1.3222  0.2703
  157SAPE   C3517481   6.379   0.360   5.368  0.0522 -0.4507  0.0416
  157SAPE   H5X17482   6.375   0.261   5.317 -0.4914  0.7682 -2.3511
  157SAPE   H5Y17483   6.481   0.395   5.342  0.0539  0.7824  1.6369
  157SAPE   C3617484   6.275   0.448   5.296 -0.5027  0.8351 -0.0218
  157SAPE   H6X17485   6.294   0.556   5.317 -0.1692  0.4092  1.9436
  157SAPE   H6Y17486   6.185   0.412   5.351 -0.4981  0.5262 -0.2157
  157SAPE   C3717487   6.280   0.424   5.144 -0.3999  0.6297  0.7568
  157SAPE   H7X17488   6.264   0.316   5.123  0.3533  0.7608 -0.5418
  157SAPE   H7Y17489   6.383   0.452   5.114 -0.5900 -1.7669 -2.4346
  157SAPE   C3817490   6.183   0.517   5.070  0.0354 -0.3291  1.0943
  157SAPE   H8X17491   6.229   0.617   5.068  0.0457 -0.3515 -0.4804
  157SAPE   H8Y17492   6.076   0.529   5.099 -0.2513 -0.0337 -0.0629
  157SAPE   C3917493   6.167   0.481   4.918  0.2066 -0.6371  0.8847
  157SAPE   H9X17494   6.143   0.373   4.908 -0.0412 -0.3942 -1.4046
  157SAPE   H9Y17495   6.255   0.504   4.855 -0.2914 -0.9010  0.0849
  157SAPE  C31017496   6.058   0.567   4.850  0.3802  0.2183  0.1662
  157SAPE  H10X17497   6.073   0.676   4.861  1.7072 -0.0203  0.7666
  157SAPE  H10Y17498   5.958   0.534   4.884 -0.3819 -0.9289 -2.9622
  157SAPE  C31117499   6.063   0.531   4.702 -0.3389 -0.9047 -1.1761
  157SAPE  H11X17500   6.161   0.548   4.653  0.2633  0.7857  0.5307
  157SAPE  H11Y17501   5.999   0.604   4.647 -2.8447 -1.9883  0.2401
  157SAPE  C31217502   6.011   0.385   4.659 -0.1788 -0.1818 -0.2115
  157SAPE  H12X17503   5.941   0.346   4.736  1.3315 -0.6114  0.9867
  157SAPE  H12Y17504   6.099   0.318   4.672  1.5790  2.3377  1.4169
  157SAPE  C31317505   5.969   0.369   4.514  0.3609 -0.0359 -0.2806
  157SAPE  H13X17506   5.947   0.262   4.496  0.4516  0.1115 -1.2580
  157SAPE  H13Y17507   6.050   0.412   4.451  1.0983  0.6118  1.0803
  157SAPE  C31417508   5.842   0.454   4.489 -0.2231 -0.5714 -0.2058
  157SAPE  H14X17509   5.868   0.563   4.486 -0.0324 -0.6099  0.0296
  157SAPE  H14Y17510   5.767   0.423   4.564 -1.1141  0.4457 -0.6625
  157SAPE  C31517511   5.797   0.434   4.349  0.6128  0.0122  0.2301
  157SAPE  H15X17512   5.722   0.353   4.359  0.8507 -0.0140  2.1108
  157SAPE  H15Y17513   5.881   0.404   4.282  0.0178 -0.9891 -0.0668
  157SAPE  C31617514   5.725   0.554   4.296  0.3639 -0.8334 -0.0092
  157SAPE  H16X17515   5.797   0.637   4.307 -1.3768  0.4014  2.4982
  157SAPE  H16Y17516   5.643   0.570   4.369  0.5554  1.7892 -0.3281
  157SAPE  C31717517   5.658   0.540   4.154  0.1417 -0.1841 -0.7171
  157SAPE  H17X17518   5.580   0.619   4.152  1.7545  1.5113  1.2840
  157SAPE  H17Y17519   5.618   0.437   4.160  0.8954 -0.3865  1.1026
  157SAPE  C31817520   5.762   0.571   4.042 -0.0509 -0.1056 -0.3133
  157SAPE  H18X17521   5.706   0.546   3.949 -1.3613 -2.1299  0.9714
  157SAPE  H18Y17522   5.844   0.498   4.063  1.3873  0.9442 -2.1050
  157SAPE  H18Z17523   5.804   0.673   4.050  0.6685 -0.4810  0.6850
  158SAPE     N17524   0.181   0.935   6.148 -0.5983 -0.0919  0.6286
  158SAPE   HN117525   0.194   0.860   6.219  0.3666 -1.9461 -1.4517
  158SAPE   HN217526   0.255   1.008   6.160  0.6336 -1.1295 -0.6067
  158SAPE   HN317527   0.088   0.977   6.168 -0.1072  1.4389 -0.2152
  158SAPE   C1217528   0.177   0.867   6.013  0.6046  0.9795  0.5790
  158SAPE  H12A17529   0.146   0.953   5.949  2.2866  2.9442  2.3192
  158SAPE  H12B17530   0.107   0.781   6.017 -0.1251  1.3700 -2.4474
  158SAPE   C1117531   0.307   0.809   5.963 -0.2606 -0.2729 -0.2392
  158SAPE  H11A17532   0.383   0.889   5.974  0.4171 -1.1579  1.6570
  158SAPE  H11B17533   0.305   0.780   5.856  1.2220 -1.4375  0.0329
  158SAPE     P17534   0.371   0.557   6.001 -0.2873  0.1867 -0.1220
  158SAPE   O1317535   0.444   0.475   6.100 -0.0259  0.3963 -0.5435
  158SAPE   O1417536   0.231   0.515   5.968  0.0844  0.1175  0.2183
  158SAPE   O1217537   0.364   0.707   6.045  0.8949  0.2625  0.4283
  158SAPE   O1117538   0.466   0.564   5.881 -0.3008  0.0780 -0.3369
  158SAPE    C117539   0.469   0.465   5.781 -0.1960  0.2778 -0.2073
  158SAPE    HA17540   0.464   0.365   5.831  0.6297  0.0120 -0.6487
  158SAPE    HB17541   0.378   0.467   5.718  0.4844  1.3768 -1.1723
  158SAPE    C217542   0.600   0.475   5.702 -0.1426  0.0041  0.2281
  158SAPE    HS17543   0.681   0.456   5.775  0.3523 -0.3750 -0.4261
  158SAPE   O2117544   0.609   0.606   5.639  0.0517  0.2998  0.3125
  158SAPE   C2117545   0.726   0.626   5.578 -0.7390  0.3715 -0.5850
  158SAPE   O2217546   0.825   0.556   5.592 -0.3034  0.5850 -0.2824
  158SAPE   C2217547   0.719   0.749   5.490 -0.3208  0.5195 -0.2555
  158SAPE   H2R17548   0.677   0.833   5.549  1.4329 -0.1715  2.0319
  158SAPE   H2S17549   0.817   0.786   5.452 -0.1780  2.9602  2.3801
  158SAPE    C317550   0.599   0.358   5.593 -0.5178 -0.0418  0.2140
  158SAPE    HX17551   0.593   0.259   5.643  2.6616 -0.8898 -0.9596
  158SAPE    HY17552   0.693   0.365   5.534  1.2687 -1.1088  2.8476
  158SAPE   O3117553   0.492   0.380   5.493 -0.6926  0.5680  0.2453
  158SAPE   C3117554   0.392   0.293   5.492 -0.1749  0.0442  0.3373
  158SAPE   O3217555   0.379   0.203   5.573 -0.0678  0.2664 -0.0631
  158SAPE   C3217556   0.287   0.320   5.384 -0.4645  0.1426 -0.4540
  158SAPE   H2X17557   0.193   0.343   5.437  0.2468  0.4426  0.6946
  158SAPE   H2Y17558   0.265   0.225   5.331 -2.0448  1.6614 -2.5984
  158SAPE   C2317559   0.623   0.721   5.368  0.1590 -0.5776 -0.8507
  158SAPE   H3R17560   0.532   0.679   5.415  1.4413 -0.1023  2.1943
  158SAPE   H3S17561   0.660   0.642   5.299  4.0549 -0.3532  0.8337
  158SAPE   C2417562   0.597   0.850   5.289  0.7070 -0.5528  0.3780
  158SAPE   H4R17563   0.687   0.890   5.238  1.1536 -1.1040  0.7327
  158SAPE   H4S17564   0.570   0.932   5.358 -1.9954 -1.7530  0.8152
  158SAPE   C2517565   0.485   0.832   5.193  0.2319 -0.0623  0.3025
  158SAPE   H5R17566   0.395   0.802   5.247  0.0194  0.4574  0.2438
  158SAPE   C2617567   0.485   0.851   5.057  0.4590 -0.2046  0.9108
  158SAPE   H6R17568   0.394   0.833   4.999  0.5562  0.8635  0.4103
  158SAPE   C2717569   0.616   0.880   4.981 -0.0623  0.0377 -0.5019
  158SAPE   H7R17570   0.672   0.972   5.010 -1.6133  1.1375 -0.9316
  158SAPE   H7S17571   0.588   0.897   4.875  0.2852  1.1059 -0.4357
  158SAPE   C2817572   0.718   0.771   4.984 -0.0274  0.1833 -0.3321
  158SAPE   H8R17573   0.733   0.708   5.073  1.1513  0.1333 -0.5509
  158SAPE   C2917574   0.804   0.749   4.884 -0.1688  0.8381 -0.0348
  158SAPE   H9R17575   0.868   0.659   4.888 -2.0236 -0.5842 -1.2144
  158SAPE  C21017576   0.807   0.818   4.755 -0.4026 -0.2107 -0.2587
  158SAPE  H10R17577   0.755   0.916   4.758 -1.6439 -0.9018  1.5221
  158SAPE  H10S17578   0.762   0.745   4.685 -2.9453  2.6965 -1.7686
  158SAPE  C21117579   0.947   0.841   4.710 -0.1481 -0.7162 -0.1998
  158SAPE  H11R17580   1.024   0.828   4.787 -1.0960  1.2254  1.1372
  158SAPE  C21217581   0.982   0.871   4.584  0.3885  0.2595  0.0886
  158SAPE  H12R17582   1.089   0.894   4.566 -0.3094  0.6886 -4.0597
  158SAPE  C21317583   0.875   0.876   4.468  0.2473  0.1359 -0.2642
  158SAPE  H13R17584   0.784   0.933   4.495  0.4629 -0.0478  0.8763
  158SAPE  H13S17585   0.839   0.775   4.441  0.0030  0.3682 -0.8080
  158SAPE  C21417586   0.933   0.942   4.348  0.8512  0.6759 -0.3017
  158SAPE  H14R17587   0.924   1.051   4.343 -3.1385  0.4899  1.1294
  158SAPE  C21517588   0.994   0.877   4.246 -0.6841  0.4062 -0.4337
  158SAPE  H15R17589   1.008   0.935   4.154  1.4787 -1.1482 -1.1158
  158SAPE  C21617590   1.028   0.731   4.244  0.2475 -0.0255 -0.2273
  158SAPE  H16R17591   0.983   0.671   4.326  0.9443 -0.1508  0.0739
  158SAPE  H16S17592   1.138   0.711   4.251  0.7010  2.7668  1.1296
  158SAPE  C21717593   1.007   0.660   4.116 -0.0405  0.5848  0.0313
  158SAPE  H17R17594   1.050   0.557   4.109 -4.0198 -1.1250 -0.3425
  158SAPE  H17S17595   1.062   0.700   4.028 -1.0453  0.7632 -0.5231
  158SAPE  C21817596   0.858   0.625   4.090 -0.3516  0.4071  0.1123
  158SAPE  H18R17597   0.794   0.685   4.157 -1.1824  1.4008 -1.5343
  158SAPE  H18S17598   0.841   0.522   4.130  1.9995  0.6050  1.6700
  158SAPE  C21917599   0.812   0.625   3.947 -0.1027 -0.1913  0.5125
  158SAPE  H19R17600   0.896   0.578   3.891 -0.8078  0.7998 -1.4326
  158SAPE  H19S17601   0.799   0.731   3.917  1.2414 -0.1523  0.0129
  158SAPE  C22017602   0.683   0.542   3.934  0.4182  0.6159 -0.0476
  158SAPE  H20R17603   0.639   0.541   3.832  1.2522  0.7608 -0.4194
  158SAPE  H20S17604   0.611   0.592   4.002  0.6982  0.0011  0.7127
  158SAPE  H20T17605   0.700   0.442   3.979 -0.0572  1.2231  1.5090
  158SAPE   C3317606   0.311   0.436   5.271  0.4777  0.0816  0.8176
  158SAPE   H3X17607   0.409   0.484   5.292 -0.1134  2.5402 -1.6925
  158SAPE   H3Y17608   0.250   0.527   5.290 -0.8244 -0.1136 -2.0851
  158SAPE   C3417609   0.293   0.401   5.119  0.0630  0.3264  0.3826
  158SAPE   H4X17610   0.189   0.366   5.099  0.2319 -0.1081  0.2549
  158SAPE   H4Y17611   0.354   0.309   5.109 -0.6965 -0.2261  0.7525
  158SAPE   C3517612   0.347   0.497   5.012 -0.5268 -0.0746  0.0173
  158SAPE   H5X17613   0.445   0.541   5.038  0.8539 -2.6451 -0.6883
  158SAPE   H5Y17614   0.270   0.577   5.008 -0.0575  0.3183 -1.3087
  158SAPE   C3617615   0.359   0.435   4.873 -0.0890 -0.5763 -0.3057
  158SAPE   H6X17616   0.264   0.393   4.834 -0.7459 -0.6680  1.3346
  158SAPE   H6Y17617   0.436   0.356   4.881 -0.1158 -0.5907 -0.1746
  158SAPE   C3717618   0.401   0.537   4.769 -0.7954 -0.4566  0.1113
  158SAPE   H7X17619   0.433   0.481   4.678  0.5498 -0.0170  0.2932
  158SAPE   H7Y17620   0.493   0.576   4.818 -0.7078 -2.1464  1.3380
  158SAPE   C3817621   0.299   0.646   4.746 -0.4474 -0.0523  0.0017
  158SAPE   H8X17622   0.317   0.725   4.822  1.8000 -0.6078  0.0714
  158SAPE   H8Y17623   0.197   0.601   4.748 -0.4032 -0.1520  0.0188
  158SAPE   C3917624   0.313   0.693   4.606 -0.3677 -0.2884  0.2262
  158SAPE   H9X17625   0.281   0.621   4.527 -1.0488  0.8546 -0.5582
  158SAPE   H9Y17626   0.420   0.720   4.593 -0.1083 -1.0001  0.8823
  158SAPE  C31017627   0.232   0.826   4.589 -0.2700 -0.4461  1.1492
  158SAPE  H10X17628   0.265   0.897   4.668  1.0004 -1.7030  1.7919
  158SAPE  H10Y17629   0.124   0.802   4.599 -0.0266 -1.2532  1.9789
  158SAPE  C31117630   0.263   0.891   4.455 -0.4314  0.6351  0.2803
  158SAPE  H11X17631   0.364   0.935   4.467 -0.9462  2.3459 -1.3534
  158SAPE  H11Y17632   0.198   0.981   4.450 -0.7479  0.4005  0.1344
  158SAPE  C31217633   0.238   0.803   4.336  0.0088  0.3077  0.1434
  158SAPE  H12X17634   0.192   0.714   4.385  0.5916  0.3850  0.8237
  158SAPE  H12Y17635   0.321   0.761   4.275 -1.5823  0.9322 -2.5170
  158SAPE  C31317636   0.126   0.855   4.236 -0.6164 -0.2356 -0.2142
  158SAPE  H13X17637   0.113   0.779   4.155 -1.0570 -0.9497  0.5238
  158SAPE  H13Y17638   0.152   0.949   4.183  1.2877 -1.6569 -1.8736
  158SAPE  C31417639  -0.005   0.869   4.312 -0.2830  0.0954 -0.4080
  158SAPE  H14X17640   0.001   0.923   4.409  0.1239  0.2282 -0.5042
  158SAPE  H14Y17641  -0.032   0.767   4.347  1.5766  0.8639  3.5759
  158SAPE  C31517642  -0.118   0.936   4.232 -0.2746  0.9094 -0.1450
  158SAPE  H15X17643  -0.134   0.891   4.132 -1.5927  0.5837  0.2045
  158SAPE  H15Y17644  -0.085   1.038   4.206  0.4067  0.8802  0.5894
  158SAPE  C31617645  -0.250   0.945   4.314 -0.3074 -0.6925 -0.0108
  158SAPE  H16X17646  -0.257   0.848   4.369 -1.7729  0.0780  1.2032
  158SAPE  H16Y17647  -0.324   0.934   4.231  0.5114  0.8890 -0.9755
  158SAPE  C31717648  -0.255   1.062   4.417  0.1831 -0.7928 -0.8306
  158SAPE  H17X17649  -0.171   1.057   4.490  0.3148 -1.1143 -1.0008
  158SAPE  H17Y17650  -0.343   1.048   4.482  1.8394 -1.6728  1.2916
  158SAPE  C31817651  -0.254   1.203   4.360 -0.4078 -0.6590  0.3567
  158SAPE  H18X17652  -0.346   1.224   4.302  0.7434 -0.4955 -1.4266
  158SAPE  H18Y17653  -0.177   1.221   4.282  1.0311 -0.1684  1.8480
  158SAPE  H18Z17654  -0.239   1.280   4.439 -0.5168 -1.1594  0.8639
  159SAPE     N17655   5.348   4.152   1.803  0.3023  0.1304  0.9259
  159SAPE   HN117656   5.450   4.135   1.800  0.2328 -0.0484 -0.4513
  159SAPE   HN217657   5.320   4.252   1.809  0.7284  0.1827  2.4299
  159SAPE   HN317658   5.312   4.097   1.884 -0.3135  0.9979  1.2439
  159SAPE   C1217659   5.289   4.096   1.677 -0.1315 -0.3247  0.2092
  159SAPE  H12A17660   5.331   3.994   1.664 -1.8444 -1.3004  2.0540
  159SAPE  H12B17661   5.320   4.158   1.590 -0.9084 -1.6019 -1.0050
  159SAPE   C1117662   5.135   4.079   1.670  0.1717  0.2815 -0.1911
  159SAPE  H11A17663   5.102   3.994   1.733  0.4578  0.3081 -0.0026
  159SAPE  H11B17664   5.110   4.067   1.562  1.1979  1.0328 -0.5202
  159SAPE     P17665   4.907   4.178   1.722  0.1528 -0.1844  0.3507
  159SAPE   O1317666   4.842   4.289   1.641  0.1023 -0.2399  0.8838
  159SAPE   O1417667   4.876   4.036   1.689 -0.6280  0.1132 -0.2030
  159SAPE   O1217668   5.063   4.202   1.715 -0.3537  0.2585 -0.4284
  159SAPE   O1117669   4.884   4.203   1.878 -0.6517  0.1221 -0.7611
  159SAPE    C117670   4.953   4.131   1.982 -0.5948  0.5536 -0.3438
  159SAPE    HA17671   5.036   4.065   1.948 -0.7681  0.7511 -1.1678
  159SAPE    HB17672   4.997   4.199   2.058 -1.2130  2.3612 -1.5780
  159SAPE    C217673   4.854   4.041   2.052  0.3668 -0.2133  0.3069
  159SAPE    HS17674   4.794   3.985   1.977  0.1185  0.5697 -0.0936
  159SAPE   O2117675   4.771   4.128   2.130  0.7375 -0.0956 -0.3290
  159SAPE   C2117676   4.660   4.073   2.173 -0.1533  0.0341  0.9125
  159SAPE   O2217677   4.619   3.962   2.135 -0.3757  0.3657  0.2677
  159SAPE   C2217678   4.593   4.157   2.279 -0.1342 -0.0358 -0.1846
  159SAPE   H2R17679   4.601   4.267   2.272  2.0255 -0.1134  0.7176
  159SAPE   H2S17680   4.483   4.141   2.277  0.1799 -2.4973  0.2674
  159SAPE    C317681   4.923   3.938   2.139 -0.3494 -0.0802  0.5025
  159SAPE    HX17682   4.971   3.867   2.068 -0.6051 -0.0388  0.2896
  159SAPE    HY17683   4.855   3.878   2.204 -0.8884 -1.6180 -1.4291
  159SAPE   O3117684   5.034   3.993   2.216 -0.3142 -0.4202 -0.1659
  159SAPE   C3117685   5.114   3.907   2.279 -0.2207 -0.6232 -0.2392
  159SAPE   O3217686   5.103   3.790   2.266 -0.3256  0.6926  0.8884
  159SAPE   C3217687   5.201   3.985   2.380 -0.1110 -0.0621  0.2499
  159SAPE   H2X17688   5.130   4.046   2.441  1.9030  1.3689  1.2256
  159SAPE   H2Y17689   5.267   4.050   2.319  0.4957 -0.6866  0.2411
  159SAPE   C2317690   4.631   4.122   2.427  0.1102  0.0596  0.1910
  159SAPE   H3R17691   4.598   4.018   2.448 -2.7982  0.7372 -0.6822
  159SAPE   H3S17692   4.562   4.183   2.490  1.2753 -0.0062  1.5488
  159SAPE   C2417693   4.779   4.148   2.458 -0.6281 -0.2410  0.2789
  159SAPE   H4R17694   4.813   4.252   2.438  0.7461 -0.3208  2.0236
  159SAPE   H4S17695   4.837   4.095   2.379  0.2271  0.5195  0.3898
  159SAPE   C2517696   4.810   4.118   2.601 -0.0063 -0.9916  0.1795
  159SAPE   H5R17697   4.788   4.206   2.663  0.5069  1.8689 -3.5252
  159SAPE   C2617698   4.873   4.008   2.659  0.0136 -0.0878 -0.1425
  159SAPE   H6R17699   4.890   4.008   2.768  2.2178  1.3521 -0.4691
  159SAPE   C2717700   4.917   3.880   2.592  0.3740  0.0309 -0.1833
  159SAPE   H7R17701   5.027   3.865   2.601  0.0941 -1.6526  0.4584
  159SAPE   H7S17702   4.900   3.892   2.483 -1.1328 -1.1608 -0.0963
  159SAPE   C2817703   4.845   3.758   2.634  0.2041 -0.2738 -0.8171
  159SAPE   H8R17704   4.799   3.692   2.560  0.5318 -1.4220 -0.0115
  159SAPE   C2917705   4.841   3.711   2.763  0.1708 -0.8473 -0.0180
  159SAPE   H9R17706   4.758   3.643   2.788 -1.2688  0.9583  0.2143
  159SAPE  C21017707   4.912   3.767   2.880  0.4508 -0.0043  0.2860
  159SAPE  H10R17708   4.851   3.856   2.906 -0.0158 -0.7060  1.6030
  159SAPE  H10S17709   5.009   3.809   2.845  0.1793  3.3144  3.2152
  159SAPE  C21117710   4.916   3.678   3.000  0.1438 -0.3852  0.5366
  159SAPE  H11R17711   4.964   3.581   2.986 -0.5287 -0.7640  0.8362
  159SAPE  C21217712   4.884   3.714   3.128 -1.2781  0.5238  0.2598
  159SAPE  H12R17713   4.877   3.636   3.205  2.2482 -0.0262  0.1173
  159SAPE  C21317714   4.820   3.846   3.189  0.0801  0.2912 -0.5215
  159SAPE  H13R17715   4.762   3.901   3.113 -1.0435  0.3503  0.3573
  159SAPE  H13S17716   4.900   3.916   3.221  0.0169  0.1596 -0.0620
  159SAPE  C21417717   4.720   3.823   3.298  0.0508  0.3732  0.2367
  159SAPE  H14R17718   4.616   3.810   3.266 -0.0470  2.0079 -0.1332
  159SAPE  C21517719   4.740   3.815   3.430  0.6319 -0.5835  0.0204
  159SAPE  H15R17720   4.658   3.794   3.501  0.9143 -0.7545  0.2953
  159SAPE  C21617721   4.878   3.831   3.491  0.1237 -0.4016 -0.0184
  159SAPE  H16R17722   4.870   3.870   3.595 -0.1121 -0.0443 -0.1679
  159SAPE  H16S17723   4.933   3.917   3.447 -2.4005  2.4059  2.1164
  159SAPE  C21717724   4.978   3.715   3.500 -0.1753 -0.3801 -0.1551
  159SAPE  H17R17725   5.066   3.746   3.561  0.3818 -0.9812 -0.6532
  159SAPE  H17S17726   5.013   3.694   3.397 -1.1475  0.5439 -0.6941
  159SAPE  C21817727   4.911   3.588   3.564  0.1986  0.5463  0.1154
  159SAPE  H18R17728   4.987   3.509   3.546  0.6894  0.7261  1.3789
  159SAPE  H18S17729   4.829   3.540   3.505 -0.0833 -0.8534  1.6163
  159SAPE  C21917730   4.873   3.616   3.710 -0.0163 -0.1170 -0.2296
  159SAPE  H19R17731   4.806   3.705   3.707 -0.4207 -0.4629 -2.5668
  159SAPE  H19S17732   4.969   3.620   3.765  0.2436  0.0141 -0.6851
  159SAPE  C22017733   4.802   3.492   3.772  0.3908  0.4278  0.2653
  159SAPE  H20R17734   4.710   3.459   3.720 -0.3191  0.0777  1.7193
  159SAPE  H20S17735   4.767   3.518   3.874 -1.2572  0.5663 -0.3137
  159SAPE  H20T17736   4.874   3.413   3.799 -2.2496 -1.9363  0.5969
  159SAPE   C3317737   5.296   3.910   2.470  0.3299 -0.6272 -0.6801
  159SAPE   H3X17738   5.344   3.832   2.407 -0.5842  0.0229 -2.2099
  159SAPE   H3Y17739   5.221   3.866   2.540 -0.3135 -0.2451 -1.1247
  159SAPE   C3417740   5.414   3.987   2.530 -0.1564 -0.2731 -0.6426
  159SAPE   H4X17741   5.484   4.014   2.447  2.1671  1.3012  1.7101
  159SAPE   H4Y17742   5.480   3.924   2.594 -2.3769 -1.7545  0.2141
  159SAPE   C3517743   5.375   4.120   2.595  0.4827 -0.1951  0.3448
  159SAPE   H5X17744   5.340   4.199   2.525  1.2620 -0.2905 -0.1580
  159SAPE   H5Y17745   5.465   4.175   2.628 -1.0195  0.7987  2.8771
  159SAPE   C3617746   5.295   4.094   2.719  0.0221  0.6375  0.5798
  159SAPE   H6X17747   5.348   4.021   2.783 -3.0041 -3.6888 -1.6502
  159SAPE   H6Y17748   5.190   4.066   2.695  0.2539  0.6994 -0.5477
  159SAPE   C3717749   5.283   4.221   2.807  0.1826  0.4749 -1.2982
  159SAPE   H7X17750   5.226   4.302   2.756 -0.4690  0.3817 -0.7321
  159SAPE   H7Y17751   5.387   4.255   2.824  0.2726 -0.2922 -0.2715
  159SAPE   C3817752   5.213   4.201   2.937  0.4951 -0.5884 -0.7919
  159SAPE   H8X17753   5.209   4.300   2.987 -0.8687 -2.0209  1.9980
  159SAPE   H8Y17754   5.265   4.130   3.005 -0.5128  2.4795  3.3758
  159SAPE   C3917755   5.072   4.132   2.929 -0.6634  0.5854 -0.8149
  159SAPE   H9X17756   5.079   4.035   2.874  0.8891 -0.9296  1.9240
  159SAPE   H9Y17757   5.007   4.187   2.858 -1.3124 -0.5330 -1.0975
  159SAPE  C31017758   4.991   4.108   3.047 -0.5050  0.1436 -0.0651
  159SAPE  H10X17759   5.040   4.042   3.122  1.5341 -0.1622 -1.6388
  159SAPE  H10Y17760   4.888   4.074   3.019 -1.5524  2.3246  0.9993
  159SAPE  C31117761   4.966   4.233   3.136  0.4379 -0.2714  0.6241
  159SAPE  H11X17762   4.929   4.302   3.057  1.4448  1.5607  1.7201
  159SAPE  H11Y17763   5.058   4.280   3.175  0.3713 -1.1729  1.9025
  159SAPE  C31217764   4.866   4.194   3.250  0.7176  0.0775 -0.2776
  159SAPE  H12X17765   4.914   4.134   3.329 -1.0910  0.1800  0.9324
  159SAPE  H12Y17766   4.780   4.138   3.205 -1.0454  1.8199  0.8452
  159SAPE  C31317767   4.804   4.324   3.316  0.4010  0.6919 -0.0277
  159SAPE  H13X17768   4.745   4.378   3.238 -0.9833 -0.3656  0.2731
  159SAPE  H13Y17769   4.884   4.399   3.332  0.2017  1.1898 -1.2836
  159SAPE  C31417770   4.718   4.282   3.434  0.2162 -0.1765  0.5030
  159SAPE  H14X17771   4.672   4.183   3.415 -1.3173  0.5286  0.4086
  159SAPE  H14Y17772   4.637   4.358   3.445 -0.0898 -0.1125 -1.8920
  159SAPE  C31517773   4.788   4.276   3.567  0.0005  0.4273 -0.5506
  159SAPE  H15X17774   4.830   4.377   3.583  2.7166 -0.9414  1.4330
  159SAPE  H15Y17775   4.871   4.202   3.565 -0.4929 -0.1573  0.3229
  159SAPE  C31617776   4.693   4.235   3.678  0.7520  0.1796 -0.2306
  159SAPE  H16X17777   4.643   4.329   3.711  0.7989  0.6798 -1.5673
  159SAPE  H16Y17778   4.753   4.206   3.767 -1.5101  0.3829  1.3871
  159SAPE  C31717779   4.577   4.136   3.645  0.5309 -0.1232 -0.3286
  159SAPE  H17X17780   4.633   4.049   3.605  2.4954  0.2351  1.5077
  159SAPE  H17Y17781   4.505   4.173   3.569 -0.6219 -2.2563 -0.2957
  159SAPE  C31817782   4.499   4.113   3.768 -0.5021 -0.0756  0.4542
  159SAPE  H18X17783   4.437   4.021   3.759 -1.3969  0.6820 -1.2365
  159SAPE  H18Y17784   4.438   4.203   3.793  0.8402  1.1146 -0.4942
  159SAPE  H18Z17785   4.563   4.088   3.856  1.4351  2.2208 -0.2692
  160SAPE     N17786   5.377   2.873   1.736  0.0829  0.5596 -0.0640
  160SAPE   HN117787   5.459   2.865   1.673  1.1819  0.6160  1.3343
  160SAPE   HN217788   5.296   2.837   1.682  0.9632 -1.9937  0.2781
  160SAPE   HN317789   5.364   2.976   1.749 -0.9850  0.4250  0.0363
  160SAPE   C1217790   5.413   2.802   1.861 -0.2410 -0.1009 -0.2600
  160SAPE  H12A17791   5.423   2.694   1.839 -0.0553 -0.0607 -0.3760
  160SAPE  H12B17792   5.329   2.822   1.931  1.7307 -4.3189  3.5504
  160SAPE   C1117793   5.546   2.865   1.902  0.3782  0.4901 -0.3773
  160SAPE  H11A17794   5.577   2.827   2.002  0.0336  1.8775  0.2727
  160SAPE  H11B17795   5.536   2.974   1.918  2.2078  0.6045  0.0439
  160SAPE     P17796   5.718   2.715   1.782 -0.0604 -0.0132  0.2567
  160SAPE   O1317797   5.626   2.631   1.702  0.2839  0.5386 -0.3887
  160SAPE   O1417798   5.852   2.747   1.729 -0.0710 -0.2228  0.5043
  160SAPE   O1217799   5.649   2.851   1.803  0.1327  0.5599  0.1493
  160SAPE   O1117800   5.724   2.663   1.938 -0.0224 -0.6297 -0.4341
  160SAPE    C117801   5.839   2.659   2.026 -0.0371  0.0973 -0.2772
  160SAPE    HA17802   5.915   2.598   1.972 -1.2401 -2.0914  0.4844
  160SAPE    HB17803   5.874   2.763   2.048 -2.1405  0.0156  3.9043
  160SAPE    C217804   5.810   2.585   2.160 -0.6651 -0.3132 -0.6096
  160SAPE    HS17805   5.813   2.477   2.137 -2.0817 -0.5258  0.1375
  160SAPE   O2117806   5.681   2.631   2.209  0.6086 -0.0680 -0.1180
  160SAPE   C2117807   5.586   2.546   2.189  0.0958 -0.0650 -0.4725
  160SAPE   O2217808   5.599   2.438   2.137 -0.1249  0.7355 -0.1215
  160SAPE   C2217809   5.451   2.598   2.248  0.3218  0.4237  0.0868
  160SAPE   H2R17810   5.415   2.658   2.162  2.9173 -0.5423 -1.7301
  160SAPE   H2S17811   5.382   2.511   2.252  1.1167 -0.1599  1.2607
  160SAPE    C317812   5.918   2.607   2.276 -0.6120  0.3259 -0.5760
  160SAPE    HX17813   5.937   2.716   2.284  2.1918 -0.2667  1.8489
  160SAPE    HY17814   6.018   2.572   2.241  0.8326  2.1984  1.5854
  160SAPE   O3117815   5.877   2.548   2.403 -0.4099 -0.7327  0.3935
  160SAPE   C3117816   5.893   2.625   2.508 -0.4893  0.2446  0.2445
  160SAPE   O3217817   5.938   2.736   2.499  0.0360  0.0103 -0.0176
  160SAPE   C3217818   5.860   2.557   2.643 -0.2175  0.2671 -0.3663
  160SAPE   H2X17819   5.887   2.449   2.643  0.3289  0.4024 -0.0618
  160SAPE   H2Y17820   5.749   2.564   2.648 -0.3692 -1.5672 -0.7172
  160SAPE   C2317821   5.455   2.684   2.377  0.3276 -0.1835  0.2634
  160SAPE   H3R17822   5.352   2.721   2.398  1.1054  2.2389 -0.0462
  160SAPE   H3S17823   5.506   2.777   2.345 -0.1897  0.7247  2.0068
  160SAPE   C2417824   5.522   2.613   2.496 -0.2571 -0.1578 -0.2216
  160SAPE   H4R17825   5.630   2.603   2.470 -0.3629 -0.1855 -0.6509
  160SAPE   H4S17826   5.487   2.507   2.500  1.9325 -0.8887  0.7613
  160SAPE   C2517827   5.503   2.695   2.620  0.0536  0.0161 -0.2158
  160SAPE   H5R17828   5.515   2.803   2.602 -0.5724  0.3596  1.3598
  160SAPE   C2617829   5.475   2.652   2.745 -0.1682  0.1006 -0.0243
  160SAPE   H6R17830   5.472   2.719   2.831 -0.6459 -1.0241  0.8459
  160SAPE   C2717831   5.467   2.507   2.786  0.1923 -0.4128  0.4591
  160SAPE   H7R17832   5.566   2.461   2.805 -0.0697 -0.4276  1.8572
  160SAPE   H7S17833   5.415   2.454   2.703 -3.8801  1.5481  1.5931
  160SAPE   C2817834   5.375   2.481   2.903 -0.2475 -0.8881  0.2491
  160SAPE   H8R17835   5.270   2.469   2.875  0.1575 -0.5246 -1.4424
  160SAPE   C2917836   5.413   2.480   3.030  0.2464 -0.1646 -0.6870
  160SAPE   H9R17837   5.334   2.466   3.106  1.4668 -0.5393  0.5307
  160SAPE  C21017838   5.549   2.506   3.091 -0.2278  0.4751 -0.8842
  160SAPE  H10R17839   5.611   2.572   3.025 -0.0640  1.0401 -0.1764
  160SAPE  H10S17840   5.605   2.411   3.106 -0.5785  0.4769  0.5141
  160SAPE  C21117841   5.543   2.564   3.236 -0.5278 -0.3195  0.1154
  160SAPE  H11R17842   5.574   2.669   3.248  1.4073 -0.9988  1.4024
  160SAPE  C21217843   5.540   2.490   3.342  0.1913 -0.5071 -0.3457
  160SAPE  H12R17844   5.531   2.544   3.438  1.0435 -0.1860 -0.4431
  160SAPE  C21317845   5.539   2.337   3.350  0.4803  0.2947  0.0234
  160SAPE  H13R17846   5.611   2.301   3.426  2.0051 -2.8784 -2.7826
  160SAPE  H13S17847   5.592   2.279   3.271  0.2507  0.1597 -0.0321
  160SAPE  C21417848   5.401   2.287   3.362  0.0109  0.3153  0.6132
  160SAPE  H14R17849   5.327   2.366   3.343  0.0658 -0.2706 -2.2973
  160SAPE  C21517850   5.361   2.171   3.413  0.8003 -0.4764 -0.3101
  160SAPE  H15R17851   5.255   2.142   3.420  0.4535  1.1772  1.5264
  160SAPE  C21617852   5.447   2.066   3.463  0.2273  0.2079  0.3578
  160SAPE  H16R17853   5.552   2.094   3.439  0.0339 -0.1906 -0.9875
  160SAPE  H16S17854   5.440   1.971   3.406 -0.3604  0.6912 -0.3927
  160SAPE  C21717855   5.453   2.048   3.614 -0.2215 -0.0579 -0.0602
  160SAPE  H17R17856   5.485   2.137   3.672  1.6394 -0.4279 -0.4807
  160SAPE  H17S17857   5.521   1.963   3.635 -0.7151 -0.9342 -1.9048
  160SAPE  C21817858   5.310   2.012   3.659  0.0092  0.3167 -0.4553
  160SAPE  H18R17859   5.263   1.931   3.599  1.3579 -1.0828  0.3117
  160SAPE  H18S17860   5.256   2.109   3.659 -0.7808 -0.1176 -2.2157
  160SAPE  C21917861   5.296   1.951   3.809  0.0497 -0.5827 -0.0512
  160SAPE  H19R17862   5.190   1.938   3.841 -0.1348 -0.7754 -0.7328
  160SAPE  H19S17863   5.326   2.040   3.869 -0.4224  1.0533 -2.1638
  160SAPE  C22017864   5.381   1.832   3.835  0.4071 -0.2838 -0.2679
  160SAPE  H20R17865   5.488   1.853   3.818  0.3480 -1.1455 -1.8520
  160SAPE  H20S17866   5.347   1.737   3.787 -2.7663 -0.3172  1.8773
  160SAPE  H20T17867   5.376   1.811   3.944 -1.3012 -0.9650 -0.4539
  160SAPE   C3317868   5.934   2.625   2.765  0.1692  0.4440 -0.0365
  160SAPE   H3X17869   5.891   2.726   2.784  0.4791  0.3413  1.2226
  160SAPE   H3Y17870   6.040   2.655   2.754  0.3816 -0.8276 -1.6773
  160SAPE   C3417871   5.918   2.539   2.889 -0.1843 -0.3281  0.1120
  160SAPE   H4X17872   5.909   2.434   2.854  1.1849  0.1213 -1.6174
  160SAPE   H4Y17873   5.818   2.565   2.932 -0.8147  0.1875 -1.6549
  160SAPE   C3517874   6.033   2.551   2.990 -0.2896 -0.6728 -0.2765
  160SAPE   H5X17875   6.050   2.658   3.015  0.0916 -1.1960  1.7648
  160SAPE   H5Y17876   6.132   2.519   2.950  1.3927  1.6303  1.8736
  160SAPE   C3617877   6.001   2.483   3.128  0.0773  0.4040  0.3146
  160SAPE   H6X17878   5.957   2.383   3.106 -0.3770  1.1555 -2.3789
  160SAPE   H6Y17879   5.934   2.548   3.188 -1.7744 -1.3520  0.2243
  160SAPE   C3717880   6.133   2.458   3.205 -0.1364  0.8525  0.0332
  160SAPE   H7X17881   6.157   2.563   3.231  0.8419  0.8648 -0.8554
  160SAPE   H7Y17882   6.211   2.420   3.136  1.5972  0.2056  2.2859
  160SAPE   C3817883   6.116   2.379   3.330  0.1264  0.3349  0.7382
  160SAPE   H8X17884   6.202   2.316   3.359 -0.5436  0.1119  2.2647
  160SAPE   H8Y17885   6.021   2.322   3.318  0.2661  0.2163  0.1491
  160SAPE   C3917886   6.089   2.473   3.447  0.2729  0.3358  0.2424
  160SAPE   H9X17887   6.005   2.543   3.429  0.4944  1.7456  4.0631
  160SAPE   H9Y17888   6.183   2.531   3.453  0.8210 -0.2592 -2.1501
  160SAPE  C31017889   6.059   2.396   3.576  0.0867  0.0334 -0.7410
  160SAPE  H10X17890   6.060   2.470   3.660  0.1944 -1.4849  0.6146
  160SAPE  H10Y17891   6.127   2.316   3.614 -0.1387  1.1510  2.1771
  160SAPE  C31117892   5.916   2.326   3.585  0.2193  0.0229  0.4906
  160SAPE  H11X17893   5.908   2.239   3.517  1.8134 -0.2955  0.6916
  160SAPE  H11Y17894   5.849   2.397   3.533  0.8945  2.2872  2.5912
  160SAPE  C31217895   5.862   2.284   3.721 -0.4349 -0.5853 -0.6842
  160SAPE  H12X17896   5.754   2.255   3.716 -1.1241  1.7483  0.2086
  160SAPE  H12Y17897   5.876   2.379   3.777 -0.1043  0.4608 -2.5175
  160SAPE  C31317898   5.949   2.181   3.788 -0.3020  0.8724  0.0855
  160SAPE  H13X17899   6.002   2.238   3.868  1.5594 -0.7477  0.0298
  160SAPE  H13Y17900   6.013   2.148   3.704 -0.6061 -1.3293  0.6870
  160SAPE  C31417901   5.865   2.067   3.853  0.6976 -0.3847 -0.2555
  160SAPE  H14X17902   5.811   2.014   3.771 -0.4845  1.2555 -0.5745
  160SAPE  H14Y17903   5.784   2.116   3.910  1.1099  0.2297 -0.1843
  160SAPE  C31517904   5.949   1.980   3.944  0.4047  0.2709 -1.0984
  160SAPE  H15X17905   5.991   2.045   4.023  0.3018 -3.5966  2.2774
  160SAPE  H15Y17906   6.026   1.932   3.880  0.5930 -0.5178 -0.2810
  160SAPE  C31617907   5.865   1.886   4.032 -0.2634 -0.2883  0.0217
  160SAPE  H16X17908   5.794   1.951   4.087 -1.0892 -1.3225  0.1929
  160SAPE  H16Y17909   5.931   1.842   4.109  1.2830  0.3039 -0.9299
  160SAPE  C31717910   5.783   1.778   3.957  0.2723 -0.6384 -0.0515
  160SAPE  H17X17911   5.714   1.827   3.886  0.6524 -0.5384 -0.3485
  160SAPE  H17Y17912   5.725   1.730   4.039 -2.7164  0.2581 -1.5589
  160SAPE  C31817913   5.852   1.664   3.886 -0.2042  0.2195 -0.6600
  160SAPE  H18X17914   5.897   1.597   3.961 -3.1980 -0.7992  0.2903
  160SAPE  H18Y17915   5.923   1.703   3.809 -0.7237 -0.2432 -1.3839
  160SAPE  H18Z17916   5.777   1.601   3.833 -1.0330 -0.2355  1.0105
  161SAPE     N17917   3.594   6.002   1.739  0.0555  0.0337 -0.5289
  161SAPE   HN117918   3.630   5.915   1.695 -0.9651 -0.5536 -0.2333
  161SAPE   HN217919   3.675   6.066   1.739  1.2155 -1.4045 -0.9457
  161SAPE   HN317920   3.583   5.966   1.837 -0.0549  0.2372 -0.4673
  161SAPE   C1217921   3.464   6.054   1.684  0.2840 -0.2264 -1.0392
  161SAPE  H12A17922   3.431   5.978   1.610 -4.6556  0.1721  0.5477
  161SAPE  H12B17923   3.468   6.150   1.629  1.0932  0.6984  0.5801
  161SAPE   C1117924   3.358   6.057   1.802  0.3619 -0.1452 -0.1000
  161SAPE  H11A17925   3.267   6.103   1.759  0.6241 -0.2137 -0.7280
  161SAPE  H11B17926   3.385   6.132   1.880  1.0804  0.3322 -0.8035
  161SAPE     P17927   3.392   5.857   1.982 -0.3180 -0.2715 -0.9347
  161SAPE   O1317928   3.352   5.721   1.999  0.1777  0.1266 -0.5298
  161SAPE   O1417929   3.529   5.877   1.954 -0.7600 -0.2875  0.2634
  161SAPE   O1217930   3.318   5.928   1.865 -0.0939 -0.3422  0.2507
  161SAPE   O1117931   3.369   5.942   2.109 -0.0119 -0.2483 -0.4201
  161SAPE    C117932   3.242   5.969   2.175  0.2908  0.1738  0.7023
  161SAPE    HA17933   3.167   5.892   2.144  1.3973 -0.7308  0.2243
  161SAPE    HB17934   3.248   5.960   2.286 -2.1382  0.9609  0.9246
  161SAPE    C217935   3.210   6.116   2.134 -0.0302  0.1390 -0.1964
  161SAPE    HS17936   3.185   6.131   2.027  2.8895  1.1199 -0.8032
  161SAPE   O2117937   3.332   6.195   2.148  0.3400 -0.2137  0.0157
  161SAPE   C2117938   3.328   6.320   2.114 -0.1410  0.7929  0.1601
  161SAPE   O2217939   3.234   6.385   2.068 -0.0475 -0.6404  0.4750
  161SAPE   C2217940   3.461   6.385   2.155 -0.6660  0.0452 -0.4327
  161SAPE   H2R17941   3.502   6.326   2.239 -1.7495  0.9121  0.7324
  161SAPE   H2S17942   3.530   6.371   2.069  0.9238 -2.8868  1.2711
  161SAPE    C317943   3.086   6.172   2.218 -0.3032 -0.1561  0.8493
  161SAPE    HX17944   3.005   6.096   2.207 -0.3509  0.0336 -0.1673
  161SAPE    HY17945   3.054   6.265   2.166  1.5497  1.7109  2.8971
  161SAPE   O3117946   3.108   6.200   2.358  0.3696 -0.4159  0.1094
  161SAPE   C3117947   3.134   6.324   2.402  0.2681 -0.7360  0.0807
  161SAPE   O3217948   3.133   6.422   2.330  0.1853 -0.1474 -0.2434
  161SAPE   C3217949   3.141   6.311   2.549  0.0553 -0.0280 -0.4257
  161SAPE   H2X17950   3.040   6.296   2.592 -0.0991 -1.1512 -1.1533
  161SAPE   H2Y17951   3.162   6.411   2.592  0.2024 -1.0286  1.8482
  161SAPE   C2317952   3.440   6.534   2.200  0.6552 -0.0637  1.0677
  161SAPE   H3R17953   3.372   6.541   2.287 -3.4106  1.4514 -2.0565
  161SAPE   H3S17954   3.394   6.583   2.111 -0.9540 -2.3999  0.5490
  161SAPE   C2417955   3.576   6.586   2.230  1.3464  0.9013  0.0782
  161SAPE   H4R17956   3.638   6.564   2.140 -2.2142 -1.2079 -1.9729
  161SAPE   H4S17957   3.625   6.525   2.309 -0.7574  2.4246  2.6453
  161SAPE   C2517958   3.572   6.727   2.260  0.1515  0.6098 -0.0102
  161SAPE   H5R17959   3.556   6.793   2.173  2.8909 -0.5383 -1.4248
  161SAPE   C2617960   3.574   6.784   2.382 -0.3515 -0.1027  0.1607
  161SAPE   H6R17961   3.583   6.894   2.386  3.4833 -0.3827  1.8592
  161SAPE   C2717962   3.591   6.710   2.506  1.0361 -0.0169  0.0108
  161SAPE   H7R17963   3.673   6.637   2.490 -0.4398 -1.7568  0.2569
  161SAPE   H7S17964   3.497   6.652   2.520 -0.1481  1.3458 -1.9160
  161SAPE   C2817965   3.605   6.796   2.632 -0.8358 -0.6255  0.2326
  161SAPE   H8R17966   3.707   6.835   2.646  0.1854 -3.4629  1.0750
  161SAPE   C2917967   3.534   6.792   2.737  0.1579  0.2986  0.3950
  161SAPE   H9R17968   3.562   6.862   2.817  1.0508  1.7062 -1.1356
  161SAPE  C21017969   3.411   6.712   2.768 -0.0944  0.2705 -0.8202
  161SAPE  H10R17970   3.376   6.655   2.679  1.6064 -0.3161 -1.1298
  161SAPE  H10S17971   3.328   6.781   2.795  0.3061  0.2801  0.4075
  161SAPE  C21117972   3.454   6.626   2.880  0.2628 -0.5269  0.4205
  161SAPE  H11R17973   3.562   6.620   2.903 -0.2133  0.3849  3.1146
  161SAPE  C21217974   3.365   6.569   2.957  0.5606 -0.1547  0.5357
  161SAPE  H12R17975   3.401   6.501   3.037  0.3202 -3.5591 -2.1247
  161SAPE  C21317976   3.216   6.599   2.943 -0.2245 -0.4940  0.3651
  161SAPE  H13R17977   3.183   6.649   2.849 -1.7016 -1.1307  0.5314
  161SAPE  H13S17978   3.188   6.668   3.025  1.0773  2.1852 -1.3703
  161SAPE  C21417979   3.139   6.474   2.969  0.4490  0.1930  0.1260
  161SAPE  H14R17980   3.180   6.381   2.929  1.9054 -0.6923  3.5247
  161SAPE  C21517981   3.012   6.466   3.011 -0.3201 -0.7870 -0.6956
  161SAPE  H15R17982   2.980   6.366   3.045 -1.6216 -0.6493 -1.4933
  161SAPE  C21617983   2.913   6.576   3.043 -0.3242 -0.0596 -0.0709
  161SAPE  H16R17984   2.813   6.561   2.996 -0.6023 -0.5097  0.6584
  161SAPE  H16S17985   2.963   6.663   2.996 -0.6758 -0.0823 -0.4812
  161SAPE  C21717986   2.895   6.590   3.198 -0.2427  0.0123 -0.8901
  161SAPE  H17R17987   2.996   6.584   3.243 -0.2728 -2.9358 -1.1685
  161SAPE  H17S17988   2.843   6.504   3.244 -3.3427  1.9374 -0.6270
  161SAPE  C21817989   2.832   6.716   3.236  0.1889  0.0011  0.4425
  161SAPE  H18R17990   2.757   6.733   3.155  0.7919  1.3706  0.1517
  161SAPE  H18S17991   2.886   6.812   3.220  0.2292 -0.2540 -1.1032
  161SAPE  C21917992   2.750   6.719   3.363 -0.0722  0.4213  0.0038
  161SAPE  H19R17993   2.812   6.691   3.451 -0.8731  1.2898  0.8574
  161SAPE  H19S17994   2.677   6.636   3.356  0.5791 -0.2292  0.8663
  161SAPE  C22017995   2.674   6.850   3.402  0.0848 -0.1000 -0.1821
  161SAPE  H20R17996   2.598   6.881   3.328 -0.3894 -0.6037  0.0919
  161SAPE  H20S17997   2.754   6.927   3.403 -0.5996  0.6091  0.8095
  161SAPE  H20T17998   2.633   6.840   3.505 -1.9945  2.2380 -0.7390
  161SAPE   C3317999   3.252   6.212   2.600 -0.1675  0.3647  0.6848
  161SAPE   H3X18000   3.348   6.226   2.547  0.5443 -1.5043  1.4247
  161SAPE   H3Y18001   3.215   6.110   2.575  0.2665  0.5425 -0.7429
  161SAPE   C3418002   3.272   6.213   2.749 -0.0698  0.4808 -0.6285
  161SAPE   H4X18003   3.173   6.225   2.798  0.5113  0.1420  0.6460
  161SAPE   H4Y18004   3.326   6.301   2.789 -1.9095  1.2002  0.3465
  161SAPE   C3518005   3.352   6.095   2.806 -0.1208 -0.2885 -0.7046
  161SAPE   H5X18006   3.445   6.093   2.746  0.9385 -0.5766  0.9027
  161SAPE   H5Y18007   3.294   6.002   2.786  1.2388 -0.5284 -3.7460
  161SAPE   C3618008   3.371   6.111   2.960  0.5462  0.4122  0.2176
  161SAPE   H6X18009   3.265   6.104   2.993 -0.3905 -2.2145 -3.0821
  161SAPE   H6Y18010   3.409   6.205   3.006 -0.4970 -0.1991  2.4222
  161SAPE   C3718011   3.433   5.985   3.022  0.0896 -0.0219 -0.5135
  161SAPE   H7X18012   3.532   5.968   2.976  0.0652  0.3268 -0.6948
  161SAPE   H7Y18013   3.364   5.900   3.001 -2.8481  1.6285  2.1217
  161SAPE   C3818014   3.435   5.995   3.174 -0.0845  0.4183 -0.7633
  161SAPE   H8X18015   3.334   6.008   3.217  0.3771 -1.0456  0.8300
  161SAPE   H8Y18016   3.505   6.077   3.202  1.2537 -0.8014 -0.4333
  161SAPE   C3918017   3.486   5.856   3.229 -0.2798  0.2586  0.0024
  161SAPE   H9X18018   3.569   5.808   3.173  1.9542  1.3995  2.2178
  161SAPE   H9Y18019   3.399   5.787   3.222  0.7054 -0.8069 -2.3584
  161SAPE  C31018020   3.518   5.863   3.382  0.2920 -0.8001 -0.1499
  161SAPE  H10X18021   3.603   5.933   3.398 -0.7023 -0.3537  3.7027
  161SAPE  H10Y18022   3.547   5.763   3.419  1.9314 -0.0863  0.5354
  161SAPE  C31118023   3.398   5.910   3.468  0.0697  0.6094  0.1162
  161SAPE  H11X18024   3.302   5.893   3.414  0.7041 -2.7682 -0.0009
  161SAPE  H11Y18025   3.400   6.020   3.447  0.3212  0.6711  0.4580
  161SAPE  C31218026   3.415   5.878   3.612 -0.0130 -0.3401  0.0352
  161SAPE  H12X18027   3.505   5.937   3.638 -2.1245  2.0867  2.1211
  161SAPE  H12Y18028   3.438   5.769   3.617  1.3362 -0.1167 -0.9587
  161SAPE  C31318029   3.302   5.930   3.703  0.1461 -0.6404  0.6108
  161SAPE  H13X18030   3.214   5.862   3.702  0.5561 -1.1897  1.1746
  161SAPE  H13Y18031   3.254   6.023   3.665  2.1171  0.4475  0.7308
  161SAPE  C31418032   3.344   5.945   3.848  0.9650 -0.0825 -0.7227
  161SAPE  H14X18033   3.442   5.998   3.842  1.2227 -0.6334 -1.6154
  161SAPE  H14Y18034   3.366   5.850   3.901 -2.8811 -0.9783 -0.5964
  161SAPE  C31518035   3.233   6.016   3.925  0.0062 -0.2116  0.6730
  161SAPE  H15X18036   3.145   5.949   3.930 -1.5782  1.7399 -0.2985
  161SAPE  H15Y18037   3.202   6.103   3.863 -1.9863  0.8277  3.0585
  161SAPE  C31618038   3.277   6.076   4.062 -0.0030 -0.3824  0.6286
  161SAPE  H16X18039   3.343   6.165   4.049  2.6961 -2.2718  1.0136
  161SAPE  H16Y18040   3.336   5.994   4.108  1.9242  0.2970 -0.5639
  161SAPE  C31718041   3.164   6.123   4.153 -0.3647 -0.4060  0.2630
  161SAPE  H17X18042   3.077   6.053   4.156 -1.8352  1.4415  2.5686
  161SAPE  H17Y18043   3.127   6.222   4.120 -0.6130 -0.4492  0.4111
  161SAPE  C31818044   3.211   6.144   4.297  0.0302 -0.2354  0.3755
  161SAPE  H18X18045   3.312   6.190   4.294 -0.6256  1.1339 -1.0700
  161SAPE  H18Y18046   3.214   6.042   4.341 -1.6514 -1.1092 -1.4312
  161SAPE  H18Z18047   3.145   6.211   4.356  0.2233 -0.4027  0.7811
  162SAPE     N18048   3.085   1.545   2.119 -0.0989  0.8450 -0.4190
  162SAPE   HN118049   3.163   1.585   2.062  1.5921  0.9194  1.8736
  162SAPE   HN218050   3.056   1.614   2.191 -1.1546 -0.8297  0.7898
  162SAPE   HN318051   3.130   1.470   2.175 -0.1272  1.1387  0.0041
  162SAPE   C1218052   2.961   1.515   2.040 -0.8517  0.3425 -0.5469
  162SAPE  H12A18053   2.899   1.607   2.038  0.3815  1.2309  0.5764
  162SAPE  H12B18054   2.897   1.446   2.098  0.0702 -1.4259 -1.5676
  162SAPE   C1118055   2.998   1.450   1.908 -0.5921  0.2742  1.2180
  162SAPE  H11A18056   3.027   1.526   1.832  1.3861 -0.9301  0.7314
  162SAPE  H11B18057   2.901   1.409   1.871 -0.1339  0.8908 -0.7168
  162SAPE     P18058   3.081   1.199   1.932 -0.2665 -0.3926 -0.1550
  162SAPE   O1318059   2.949   1.157   1.876 -0.0130  0.3321  0.4191
  162SAPE   O1418060   3.193   1.121   1.878  0.3389  0.5042 -0.3336
  162SAPE   O1218061   3.099   1.356   1.912  0.4997 -0.2878  0.5674
  162SAPE   O1118062   3.079   1.194   2.094 -0.0273  0.3028 -0.1987
  162SAPE    C118063   3.000   1.087   2.152  0.2424 -0.6500  0.1325
  162SAPE    HA18064   2.933   1.036   2.080 -1.7660  0.5860  1.1062
  162SAPE    HB18065   3.068   1.009   2.195  1.4837 -0.0023 -0.6222
  162SAPE    C218066   2.902   1.142   2.261 -0.3583 -0.1688  0.6914
  162SAPE    HS18067   2.825   1.205   2.210 -2.4834 -2.9032  0.4314
  162SAPE   O2118068   2.987   1.210   2.361  0.3804  0.2867 -0.0694
  162SAPE   C2118069   2.922   1.289   2.445  1.4248 -0.1588 -0.2145
  162SAPE   O2218070   2.808   1.322   2.441 -0.1085  0.0902  0.6686
  162SAPE   C2218071   3.021   1.325   2.554 -0.8855  0.4891  0.4018
  162SAPE   H2R18072   3.117   1.347   2.503 -0.5982 -1.3933  0.1001
  162SAPE   H2S18073   2.978   1.419   2.596 -0.2891  0.5027  0.9865
  162SAPE    C318074   2.809   1.030   2.321  0.2324  0.3731 -0.4304
  162SAPE    HX18075   2.728   1.015   2.247 -1.5639  0.3503  1.4975
  162SAPE    HY18076   2.757   1.074   2.409  2.7975 -1.2030  1.9524
  162SAPE   O3118077   2.888   0.912   2.361 -0.3175 -0.4696  0.2407
  162SAPE   C3118078   2.800   0.817   2.399 -0.3767 -0.3243 -0.2644
  162SAPE   O3218079   2.678   0.837   2.397  0.4523  0.0766  0.4890
  162SAPE   C3218080   2.870   0.692   2.433  0.5160  0.1483 -0.5623
  162SAPE   H2X18081   2.975   0.704   2.399  0.5233  0.0021 -0.5926
  162SAPE   H2Y18082   2.824   0.601   2.389 -1.9530  1.0751  0.0607
  162SAPE   C2318083   3.059   1.217   2.661 -0.2441  0.2527  0.2377
  162SAPE   H3R18084   3.164   1.233   2.694 -0.0706  0.5366 -0.4540
  162SAPE   H3S18085   3.079   1.121   2.609  0.9054  0.9717 -0.6618
  162SAPE   C2418086   2.960   1.209   2.779 -0.7882 -0.0783 -0.0924
  162SAPE   H4R18087   2.983   1.113   2.831  1.3544 -0.1781 -1.2134
  162SAPE   H4S18088   2.859   1.204   2.732 -1.7951 -2.5725  2.1952
  162SAPE   C2518089   2.968   1.321   2.879  0.4452 -0.2577 -0.1817
  162SAPE   H5R18090   3.054   1.319   2.947  0.2036 -1.0492  0.1043
  162SAPE   C2618091   2.887   1.429   2.890 -0.8699  0.5447 -0.6202
  162SAPE   H6R18092   2.913   1.515   2.953 -0.1128 -1.1846  1.5239
  162SAPE   C2718093   2.768   1.447   2.791  0.1797  0.5385 -0.0230
  162SAPE   H7R18094   2.713   1.351   2.792  4.1105 -1.8823  3.6651
  162SAPE   H7S18095   2.806   1.456   2.687  0.3227 -3.2620 -0.3501
  162SAPE   C2818096   2.675   1.555   2.839 -0.3087  0.0099 -0.7445
  162SAPE   H8R18097   2.723   1.652   2.822  1.1691 -1.0442 -2.8154
  162SAPE   C2918098   2.546   1.549   2.888  0.5697  0.2894  0.1425
  162SAPE   H9R18099   2.499   1.644   2.916 -0.8946  0.3021 -2.2044
  162SAPE  C21018100   2.460   1.422   2.914 -0.3587 -0.1977  0.4097
  162SAPE  H10R18101   2.464   1.381   3.017  1.8471 -0.4993  0.2131
  162SAPE  H10S18102   2.495   1.334   2.856  1.5529  0.3925  0.6439
  162SAPE  C21118103   2.317   1.459   2.909  0.2788  0.1091 -0.3265
  162SAPE  H11R18104   2.286   1.435   2.806 -0.8336  0.7213 -0.1442
  162SAPE  C21218105   2.244   1.529   2.991 -0.6412 -0.7260 -0.7575
  162SAPE  H12R18106   2.135   1.531   2.977 -0.8517 -3.1063  0.2278
  162SAPE  C21318107   2.292   1.593   3.122 -0.2465  0.5597 -1.4103
  162SAPE  H13R18108   2.219   1.672   3.149 -0.3422  0.2255 -0.6733
  162SAPE  H13S18109   2.386   1.649   3.108  0.2693 -0.0356 -0.4128
  162SAPE  C21418110   2.307   1.507   3.247  0.0140 -1.3872  0.2039
  162SAPE  H14R18111   2.238   1.421   3.255 -1.7329  0.1411  2.2326
  162SAPE  C21518112   2.396   1.537   3.346  0.2162  1.3492 -0.5611
  162SAPE  H15R18113   2.412   1.460   3.423  0.2118  1.2378 -0.6705
  162SAPE  C21618114   2.489   1.654   3.346 -0.7369  0.5423 -0.2341
  162SAPE  H16R18115   2.498   1.678   3.455 -0.0232 -1.7391  0.2335
  162SAPE  H16S18116   2.441   1.745   3.303 -1.2760 -0.6432 -2.1873
  162SAPE  C21718117   2.622   1.642   3.269 -1.0668 -0.0293  0.8376
  162SAPE  H17R18118   2.630   1.601   3.167 -1.1182  2.3202 -0.1418
  162SAPE  H17S18119   2.683   1.572   3.329 -1.5822 -0.5908  0.7026
  162SAPE  C21818120   2.689   1.782   3.253 -0.4194 -0.1764 -0.0548
  162SAPE  H18R18121   2.625   1.832   3.177 -0.8940 -0.4506  0.1609
  162SAPE  H18S18122   2.789   1.778   3.205 -0.1120  1.0432  0.4572
  162SAPE  C21918123   2.705   1.852   3.391 -0.6018  0.1114 -0.2335
  162SAPE  H19R18124   2.605   1.871   3.435 -0.6479 -0.7935  0.0707
  162SAPE  H19S18125   2.745   1.951   3.360 -0.4346  0.2937  0.5452
  162SAPE  C22018126   2.792   1.786   3.492 -0.2530 -0.3395 -0.1730
  162SAPE  H20R18127   2.751   1.693   3.537  3.7166 -0.4972  3.4083
  162SAPE  H20S18128   2.806   1.855   3.579  1.5419 -2.3199  1.1570
  162SAPE  H20T18129   2.897   1.771   3.458 -0.3422 -2.0857  0.2828
  162SAPE   C3318130   2.857   0.668   2.588 -0.3901  0.0999  0.1318
  162SAPE   H3X18131   2.923   0.580   2.607  0.5377  0.6372 -0.5461
  162SAPE   H3Y18132   2.755   0.639   2.621 -0.2447  0.6588  1.0920
  162SAPE   C3418133   2.921   0.774   2.681 -0.3193  0.1629  0.4057
  162SAPE   H4X18134   2.858   0.865   2.683  0.1556  0.4799  1.9316
  162SAPE   H4Y18135   3.022   0.794   2.638  1.0166  1.1456  3.8216
  162SAPE   C3518136   2.942   0.727   2.832  0.0633  0.6630  0.4456
  162SAPE   H5X18137   3.009   0.639   2.837  1.8531  1.6137 -3.9795
  162SAPE   H5Y18138   2.838   0.699   2.859 -0.1559  0.8531 -0.1845
  162SAPE   C3618139   2.996   0.839   2.922  0.0917  0.7954  0.8486
  162SAPE   H6X18140   2.986   0.815   3.030 -0.8366 -0.1084  0.5649
  162SAPE   H6Y18141   2.938   0.931   2.899 -1.4196 -0.3143  0.2086
  162SAPE   C3718142   3.148   0.858   2.905 -0.3288 -0.5394  0.2010
  162SAPE   H7X18143   3.160   0.895   2.801  4.7091 -1.7601  0.2197
  162SAPE   H7Y18144   3.202   0.761   2.915  1.8630  0.6775  0.4931
  162SAPE   C3818145   3.208   0.964   3.001  0.0927 -0.8297 -1.1293
  162SAPE   H8X18146   3.148   1.057   3.011  4.1208  1.7826 -0.2833
  162SAPE   H8Y18147   3.304   0.986   2.949 -1.3254  0.7290 -3.1868
  162SAPE   C3918148   3.235   0.926   3.150  0.3271 -0.0282 -0.1171
  162SAPE   H9X18149   3.310   0.843   3.157  0.4158 -0.1101 -1.8152
  162SAPE   H9Y18150   3.138   0.886   3.185  0.3490 -0.5260 -0.6165
  162SAPE  C31018151   3.291   1.039   3.231  0.1472 -0.1255  0.8509
  162SAPE  H10X18152   3.209   1.114   3.224  0.8317  0.4221 -1.8639
  162SAPE  H10Y18153   3.376   1.093   3.184 -2.1567  1.8916 -1.1136
  162SAPE  C31118154   3.307   1.004   3.376  0.3427  0.1538  0.5078
  162SAPE  H11X18155   3.360   0.908   3.394  0.3327 -0.2399 -1.5060
  162SAPE  H11Y18156   3.206   0.975   3.413  0.3677 -0.4086  0.1396
  162SAPE  C31218157   3.368   1.109   3.469  0.2782 -0.0360 -0.1977
  162SAPE  H12X18158   3.346   1.208   3.424 -0.0858 -0.3220 -0.6625
  162SAPE  H12Y18159   3.476   1.087   3.458  0.4370 -0.3287  1.7526
  162SAPE  C31318160   3.306   1.118   3.602  0.1693 -0.1065 -0.3109
  162SAPE  H13X18161   3.319   1.016   3.644  0.7420 -0.1362 -0.5551
  162SAPE  H13Y18162   3.198   1.140   3.594  0.1462  0.6687  1.6796
  162SAPE  C31418163   3.373   1.226   3.689  0.1171  0.0296  0.2720
  162SAPE  H14X18164   3.352   1.318   3.630  0.0432  0.3765  0.8371
  162SAPE  H14Y18165   3.484   1.217   3.686  0.1590  0.8996 -0.8793
  162SAPE  C31518166   3.336   1.225   3.835 -0.0495  0.4844 -0.2870
  162SAPE  H15X18167   3.343   1.120   3.868 -2.6263  0.8912  1.6802
  162SAPE  H15Y18168   3.228   1.242   3.853 -0.0755  1.5397 -1.3605
  162SAPE  C31618169   3.404   1.336   3.920  0.3142 -0.4336 -0.3252
  162SAPE  H16X18170   3.356   1.330   4.021 -0.6221  2.7337 -0.5280
  162SAPE  H16Y18171   3.364   1.428   3.871 -1.4274 -0.9245  0.1150
  162SAPE  C31718172   3.561   1.323   3.936  0.2794  0.5454 -1.1063
  162SAPE  H17X18173   3.593   1.411   3.994 -2.5264 -0.0698  1.5236
  162SAPE  H17Y18174   3.603   1.323   3.833 -0.5734  2.0780 -1.4717
  162SAPE  C31818175   3.597   1.201   4.018 -0.1852 -0.5329  0.4975
  162SAPE  H18X18176   3.707   1.189   4.028 -0.3897 -2.3265  0.8202
  162SAPE  H18Y18177   3.543   1.112   3.978 -0.4156  0.3320 -1.1475
  162SAPE  H18Z18178   3.555   1.224   4.118 -2.8235  0.4334 -0.7724
  163SAPE     N18179   4.456   6.214   2.153  0.0268 -0.8293  0.6448
  163SAPE   HN118180   4.490   6.124   2.192  1.4292 -0.0601  1.2234
  163SAPE   HN218181   4.381   6.215   2.081  0.4212  0.4644  0.2427
  163SAPE   HN318182   4.534   6.268   2.110 -0.2241 -0.2363  0.9344
  163SAPE   C1218183   4.398   6.311   2.258  0.1479 -0.3713  0.0134
  163SAPE  H12A18184   4.482   6.311   2.331 -0.7538 -1.3518  1.0682
  163SAPE  H12B18185   4.302   6.263   2.285 -1.8761  1.8524 -2.8933
  163SAPE   C1118186   4.368   6.450   2.191  0.8547  0.3438 -0.7991
  163SAPE  H11A18187   4.309   6.519   2.254  0.8334  2.3906 -2.9749
  163SAPE  H11B18188   4.318   6.423   2.095  0.6436 -0.9973 -0.3177
  163SAPE     P18189   4.573   6.541   2.049 -0.2893 -0.0420  0.6176
  163SAPE   O1318190   4.689   6.624   2.064  0.3830 -0.0667 -0.0677
  163SAPE   O1418191   4.597   6.410   1.977  0.4872  0.3670 -0.3194
  163SAPE   O1218192   4.504   6.506   2.183  0.2049  0.2038 -0.8663
  163SAPE   O1118193   4.460   6.617   1.964 -0.3794  0.2121  0.8659
  163SAPE    C118194   4.389   6.733   2.020 -0.0705 -0.0478  0.3595
  163SAPE    HA18195   4.357   6.721   2.126  3.2523 -0.6117  1.3702
  163SAPE    HB18196   4.452   6.825   2.027 -0.9069  0.5410  0.2092
  163SAPE    C218197   4.267   6.767   1.938 -0.0221 -0.5116 -0.1008
  163SAPE    HS18198   4.280   6.774   1.828  0.0895  0.2743 -0.0462
  163SAPE   O2118199   4.223   6.900   1.989 -0.3518  0.0646  0.0987
  163SAPE   C2118200   4.153   6.969   1.897  0.4115 -0.2377  0.1277
  163SAPE   O2218201   4.130   6.938   1.779  0.4743  0.2409  0.0780
  163SAPE   C2218202   4.087   7.083   1.965 -0.6994  0.3742  0.3128
  163SAPE   H2R18203   4.100   7.178   1.908  0.2306  0.1840  0.1858
  163SAPE   H2S18204   3.982   7.054   1.982  0.3264 -2.0887  2.7337
  163SAPE    C318205   4.154   6.665   1.956  0.7520 -0.3942  0.1843
  163SAPE    HX18206   4.194   6.567   1.924 -0.0774 -0.8985  0.6753
  163SAPE    HY18207   4.071   6.689   1.886  1.8149  1.2991 -0.5446
  163SAPE   O3118208   4.110   6.641   2.091  0.4628  0.3905 -0.0680
  163SAPE   C3118209   4.008   6.717   2.138 -0.4110 -0.1667  0.1008
  163SAPE   O3218210   3.958   6.808   2.077  0.3233  0.3340  0.6805
  163SAPE   C3218211   3.982   6.683   2.285 -0.4802 -0.9182 -0.2410
  163SAPE   H2X18212   4.009   6.578   2.309 -0.1531 -0.4349  1.5301
  163SAPE   H2Y18213   3.876   6.702   2.310 -0.0555  3.6287 -1.3464
  163SAPE   C2318214   4.144   7.106   2.111  1.3282 -0.3527  0.2352
  163SAPE   H3R18215   4.251   7.132   2.098  1.5207 -0.5197  1.4763
  163SAPE   H3S18216   4.128   7.021   2.180  1.6297  0.4217  1.2623
  163SAPE   C2418217   4.080   7.222   2.188  0.2641 -0.0334 -0.1672
  163SAPE   H4R18218   4.117   7.310   2.130  0.6065 -0.6515 -0.8959
  163SAPE   H4S18219   4.124   7.222   2.290 -0.1659 -2.6597  0.0584
  163SAPE   C2518220   3.932   7.217   2.185  0.6429 -0.3763 -0.3164
  163SAPE   H5R18221   3.890   7.261   2.093 -0.8061  1.1170  1.0299
  163SAPE   C2618222   3.840   7.174   2.278  0.4401  0.4546 -1.2083
  163SAPE   H6R18223   3.733   7.188   2.260 -0.0045 -0.1310  0.9019
  163SAPE   C2718224   3.873   7.115   2.417  0.0395 -0.5068 -0.5506
  163SAPE   H7R18225   3.981   7.122   2.440  0.3414 -2.1757 -1.4124
  163SAPE   H7S18226   3.866   7.004   2.406 -0.9884 -0.2892 -2.2801
  163SAPE   C2818227   3.786   7.160   2.533 -0.8289 -0.2648 -0.0268
  163SAPE   H8R18228   3.703   7.223   2.501  1.1638  1.0279 -2.8717
  163SAPE   C2918229   3.805   7.124   2.664  0.0469 -0.0047  0.5248
  163SAPE   H9R18230   3.729   7.161   2.735 -0.5030  0.0222 -0.0729
  163SAPE  C21018231   3.914   7.041   2.728  1.0263 -0.0352 -0.2443
  163SAPE  H10R18232   3.998   7.051   2.656  1.5792 -4.1197 -0.2607
  163SAPE  H10S18233   3.880   6.938   2.706  0.5214  0.2264 -0.7272
  163SAPE  C21118234   3.925   7.076   2.872  0.7566 -0.2893 -0.2860
  163SAPE  H11R18235   3.977   7.172   2.888 -0.4206  0.5132 -1.1745
  163SAPE  C21218236   3.882   7.014   2.981 -0.5538 -0.5343 -0.2078
  163SAPE  H12R18237   3.901   7.073   3.071  0.6443  0.9895 -1.4340
  163SAPE  C21318238   3.814   6.883   2.992 -0.1382  0.0958 -0.8136
  163SAPE  H13R18239   3.805   6.835   2.892 -1.2338 -0.1292 -0.6090
  163SAPE  H13S18240   3.709   6.904   3.020  0.0917  0.7627 -0.4613
  163SAPE  C21418241   3.883   6.788   3.083  0.1444 -0.1238  0.9315
  163SAPE  H14R18242   3.914   6.693   3.035  1.8456 -0.1231  1.9760
  163SAPE  C21518243   3.892   6.802   3.214 -0.3404  0.1921 -0.0984
  163SAPE  H15R18244   3.941   6.716   3.263  3.2324  1.7392 -0.7915
  163SAPE  C21618245   3.839   6.920   3.304  0.3696 -0.1469  0.0403
  163SAPE  H16R18246   3.797   6.994   3.232 -0.0367 -0.9333 -0.5283
  163SAPE  H16S18247   3.914   6.980   3.360  2.0028  0.0901 -2.3196
  163SAPE  C21718248   3.731   6.890   3.400  0.0844 -0.0894  0.1945
  163SAPE  H17R18249   3.656   6.822   3.355 -1.8988  1.0320  1.7260
  163SAPE  H17S18250   3.671   6.979   3.429 -0.0810 -0.3422  0.6370
  163SAPE  C21818251   3.776   6.819   3.525 -0.5204  1.1533  0.4225
  163SAPE  H18R18252   3.850   6.884   3.577 -0.6266  0.7227  1.1195
  163SAPE  H18S18253   3.823   6.722   3.499 -0.9024  1.6695 -2.3812
  163SAPE  C21918254   3.654   6.781   3.612  0.4437  1.0737 -0.4713
  163SAPE  H19R18255   3.694   6.702   3.680 -2.8049  0.0412  0.3236
  163SAPE  H19S18256   3.573   6.742   3.547 -0.9233  2.7495  0.1703
  163SAPE  C22018257   3.609   6.897   3.703 -0.7154 -0.5464 -0.0404
  163SAPE  H20R18258   3.576   6.984   3.643 -2.6878 -1.5783 -0.4887
  163SAPE  H20S18259   3.690   6.923   3.774  1.1065 -0.1323 -2.2234
  163SAPE  H20T18260   3.521   6.865   3.763  0.1372 -1.7009  0.6006
  163SAPE   C3318261   4.089   6.762   2.370  0.4146 -0.7892  0.5653
  163SAPE   H3X18262   4.088   6.868   2.336 -0.9675 -0.7052  0.8326
  163SAPE   H3Y18263   4.185   6.711   2.348  1.0339  1.2899 -1.7385
  163SAPE   C3418264   4.056   6.769   2.526  0.5443 -0.2625 -0.5827
  163SAPE   H4X18265   3.947   6.774   2.548  0.9879  1.0451  1.4754
  163SAPE   H4Y18266   4.105   6.856   2.575  0.5496 -1.2203  1.1663
  163SAPE   C3518267   4.093   6.631   2.588 -0.3076  1.0024 -0.5405
  163SAPE   H5X18268   4.196   6.599   2.559 -0.7258 -2.6878  1.7819
  163SAPE   H5Y18269   4.030   6.552   2.541 -0.9749  0.3919  1.3331
  163SAPE   C3618270   4.072   6.629   2.743 -0.1206  0.7195 -0.6015
  163SAPE   H6X18271   3.966   6.616   2.772  0.1985  0.6352  0.5846
  163SAPE   H6Y18272   4.097   6.732   2.775 -0.8016  0.5250  0.6172
  163SAPE   C3718273   4.166   6.534   2.819  0.3904 -0.1202  0.0904
  163SAPE   H7X18274   4.271   6.536   2.785 -0.3552 -0.1592 -2.3096
  163SAPE   H7Y18275   4.127   6.432   2.797 -0.1831 -0.2710  1.7260
  163SAPE   C3818276   4.160   6.550   2.971 -0.4392 -0.2443 -0.0831
  163SAPE   H8X18277   4.056   6.538   3.009  0.1944  0.0888  1.7761
  163SAPE   H8Y18278   4.202   6.648   3.000  1.1448 -1.2262  0.9936
  163SAPE   C3918279   4.240   6.432   3.037  0.0110  0.1758 -0.4293
  163SAPE   H9X18280   4.338   6.430   2.983  0.7041 -0.6342  0.8273
  163SAPE   H9Y18281   4.194   6.331   3.026 -0.1995  0.2195  0.0643
  163SAPE  C31018282   4.255   6.465   3.183  0.1810 -0.0410 -0.7602
  163SAPE  H10X18283   4.300   6.566   3.197  0.8428 -0.5799  1.2639
  163SAPE  H10Y18284   4.328   6.397   3.232  1.9210  3.4566  1.7426
  163SAPE  C31118285   4.132   6.459   3.270 -0.4537  0.1105  0.4596
  163SAPE  H11X18286   4.080   6.362   3.281 -1.5898  0.9654  3.1023
  163SAPE  H11Y18287   4.061   6.527   3.217  0.5987  0.6242 -0.3154
  163SAPE  C31218288   4.160   6.514   3.400  0.1260 -0.3786 -0.3280
  163SAPE  H12X18289   4.155   6.625   3.404 -1.6915 -0.4424 -0.2249
  163SAPE  H12Y18290   4.253   6.474   3.445  0.4109 -0.0115 -0.5991
  163SAPE  C31318291   4.045   6.484   3.496 -0.1252 -0.1273 -0.1252
  163SAPE  H13X18292   4.056   6.373   3.503  2.0069 -0.1621 -3.0519
  163SAPE  H13Y18293   3.946   6.509   3.451 -0.0723 -0.2856 -0.3318
  163SAPE  C31418294   4.062   6.548   3.634 -0.4528 -0.7869 -0.4800
  163SAPE  H14X18295   3.998   6.639   3.629 -0.5330 -0.8480 -0.5630
  163SAPE  H14Y18296   4.170   6.572   3.646 -0.9375  1.3826 -0.1822
  163SAPE  C31518297   4.021   6.447   3.746  0.2364  0.0505 -0.5312
  163SAPE  H15X18298   4.104   6.382   3.783 -0.9740 -1.5329 -0.5209
  163SAPE  H15Y18299   3.951   6.370   3.706  1.6501 -2.6499  1.9440
  163SAPE  C31618300   3.973   6.523   3.876 -0.4590  0.0386 -0.5959
  163SAPE  H16X18301   3.892   6.593   3.845  0.5877  2.2869  1.6105
  163SAPE  H16Y18302   4.056   6.591   3.902  0.2918 -1.1581  0.1900
  163SAPE  C31718303   3.913   6.425   3.978 -0.4454 -0.0918 -0.1045
  163SAPE  H17X18304   3.992   6.358   4.016 -0.3543  0.6402  1.0287
  163SAPE  H17Y18305   3.832   6.366   3.930 -1.4274  1.5994 -0.5702
  163SAPE  C31818306   3.861   6.503   4.105  0.5258  0.6102 -0.0522
  163SAPE  H18X18307   3.807   6.592   4.067 -2.1697 -1.9004 -2.2991
  163SAPE  H18Y18308   3.945   6.535   4.171  0.4781 -0.7488  0.6851
  163SAPE  H18Z18309   3.802   6.427   4.160  0.6318 -1.1570 -2.3229
  164SAPE     N18310   6.128   4.772   1.862  0.1161 -0.0087 -0.4612
  164SAPE   HN118311   6.053   4.825   1.909  0.0397  1.4469 -2.1429
  164SAPE   HN218312   6.086   4.757   1.767 -2.4345 -0.1979  0.6598
  164SAPE   HN318313   6.124   4.678   1.906  1.2231 -0.6897 -1.7698
  164SAPE   C1218314   6.267   4.822   1.874 -0.6583  0.4956 -0.3862
  164SAPE  H12A18315   6.271   4.905   1.801 -2.8821  0.3241 -0.7348
  164SAPE  H12B18316   6.323   4.730   1.847 -1.7108  0.0568 -1.1062
  164SAPE   C1118317   6.294   4.852   2.025  0.8304 -0.6660  0.1475
  164SAPE  H11A18318   6.311   4.759   2.085  1.1033  0.3074  1.6015
  164SAPE  H11B18319   6.203   4.898   2.068  1.1050  0.4441 -0.4419
  164SAPE     P18320   6.378   5.096   2.031  0.1183  0.3052 -0.2040
  164SAPE   O1318321   6.480   5.157   2.118 -0.2037 -0.5325 -0.1223
  164SAPE   O1418322   6.376   5.148   1.890  0.0873 -0.0149 -0.4260
  164SAPE   O1218323   6.406   4.939   2.034  0.2050 -0.1892 -0.4556
  164SAPE   O1118324   6.237   5.124   2.102 -0.1272 -1.0143  0.0361
  164SAPE    C118325   6.243   5.131   2.246  0.0043 -0.4882  0.3118
  164SAPE    HA18326   6.304   5.049   2.291  1.2424  0.8466  1.1253
  164SAPE    HB18327   6.289   5.226   2.280 -1.3397  0.1072  0.4810
  164SAPE    C218328   6.106   5.118   2.307 -0.0686 -0.6644 -0.2404
  164SAPE    HS18329   6.044   5.165   2.228  2.7227  0.9936 -1.4774
  164SAPE   O2118330   6.112   5.194   2.428  0.1001 -0.0993  0.1003
  164SAPE   C2118331   5.997   5.225   2.489 -0.0252  0.1378  0.1990
  164SAPE   O2218332   5.885   5.211   2.445 -0.1247 -0.3807 -0.0659
  164SAPE   C2218333   6.045   5.270   2.623 -0.0347 -0.2208 -0.1362
  164SAPE   H2R18334   6.078   5.183   2.684  2.0471  0.4031 -0.3540
  164SAPE   H2S18335   6.132   5.338   2.610 -0.4270  0.2127 -0.5457
  164SAPE    C318336   6.058   4.970   2.343 -0.7278 -0.0740 -0.6699
  164SAPE    HX18337   6.051   4.934   2.238  3.1120  1.1697 -1.4365
  164SAPE    HY18338   5.957   4.974   2.389 -0.4581 -1.4553  0.0709
  164SAPE   O3118339   6.154   4.886   2.420 -0.0434 -0.5582 -0.4784
  164SAPE   C3118340   6.129   4.893   2.552  0.9274  0.0227  0.5566
  164SAPE   O3218341   6.031   4.942   2.605 -0.8556  0.1878  0.1565
  164SAPE   C3218342   6.241   4.816   2.626 -0.0037 -0.1651 -0.0016
  164SAPE   H2X18343   6.325   4.829   2.554  1.1997  0.6924  1.5197
  164SAPE   H2Y18344   6.200   4.713   2.627 -0.5655 -0.0634 -3.8559
  164SAPE   C2318345   5.943   5.335   2.713 -0.4898 -0.1810  0.2780
  164SAPE   H3R18346   5.851   5.272   2.711 -0.8430  0.3299  0.4375
  164SAPE   H3S18347   5.900   5.429   2.673 -0.6639 -0.0775  0.7037
  164SAPE   C2418348   5.992   5.352   2.861 -0.3106 -0.2384  0.3347
  164SAPE   H4R18349   5.928   5.430   2.908  0.1297  0.4726 -0.2298
  164SAPE   H4S18350   6.097   5.388   2.866  0.1712 -1.7915  2.0505
  164SAPE   C2518351   5.980   5.223   2.944  0.2804  0.0852 -0.1224
  164SAPE   H5R18352   5.987   5.129   2.885 -0.4514  0.8618 -1.4610
  164SAPE   C2618353   5.995   5.205   3.075  0.1677  0.0355  0.3766
  164SAPE   H6R18354   5.998   5.103   3.116 -1.2494  0.0179  0.4409
  164SAPE   C2718355   6.032   5.314   3.175 -0.4269 -0.1971 -0.2880
  164SAPE   H7R18356   5.941   5.371   3.204 -0.6814  0.7468 -2.8369
  164SAPE   H7S18357   6.082   5.396   3.119  0.3264 -0.1180  0.4838
  164SAPE   C2818358   6.121   5.258   3.285 -0.0051  0.1625 -0.6945
  164SAPE   H8R18359   6.089   5.159   3.321  1.0327  0.1337  0.1940
  164SAPE   C2918360   6.241   5.305   3.329 -0.2118 -0.2476  0.4699
  164SAPE   H9R18361   6.299   5.233   3.388 -2.5528 -1.4618  1.3764
  164SAPE  C21018362   6.302   5.438   3.293 -0.1275  0.2057 -0.5574
  164SAPE  H10R18363   6.345   5.486   3.384 -0.4607 -0.6779  0.0807
  164SAPE  H10S18364   6.223   5.512   3.269 -1.2482 -1.3641 -1.7771
  164SAPE  C21118365   6.394   5.439   3.181 -1.3568  0.6048 -0.0957
  164SAPE  H11R18366   6.358   5.410   3.081 -0.0082  0.1254 -0.4548
  164SAPE  C21218367   6.522   5.477   3.191  0.5529 -0.1233  0.3378
  164SAPE  H12R18368   6.587   5.485   3.103  0.6559 -0.6823  0.3596
  164SAPE  C21318369   6.597   5.525   3.317 -0.3655 -0.0207  0.5762
  164SAPE  H13R18370   6.523   5.591   3.368 -1.2518 -1.4194  1.1450
  164SAPE  H13S18371   6.686   5.579   3.278 -1.8168 -0.3705 -3.4566
  164SAPE  C21418372   6.648   5.424   3.417  0.4267  0.0599 -1.1223
  164SAPE  H14R18373   6.707   5.339   3.378  0.2286  0.1650 -1.6418
  164SAPE  C21518374   6.648   5.445   3.549 -1.0113 -0.0392 -0.0989
  164SAPE  H15R18375   6.685   5.359   3.607  0.9804 -0.5835 -2.1177
  164SAPE  C21618376   6.605   5.566   3.624  0.1956 -0.0463 -0.2908
  164SAPE  H16R18377   6.557   5.649   3.567  0.5727  0.8689  0.6993
  164SAPE  H16S18378   6.692   5.609   3.678 -0.3686  0.2858  0.3581
  164SAPE  C21718379   6.496   5.533   3.730 -0.0769  0.0925  0.2875
  164SAPE  H17R18380   6.486   5.616   3.804  2.2784  0.6111  0.0548
  164SAPE  H17S18381   6.516   5.437   3.782  1.2876 -0.6398 -1.5585
  164SAPE  C21818382   6.352   5.519   3.668  0.5886  0.5461  0.4474
  164SAPE  H18R18383   6.360   5.437   3.593  0.6332 -0.0002  1.0441
  164SAPE  H18S18384   6.340   5.611   3.607  2.7793 -0.7481 -2.0498
  164SAPE  C21918385   6.248   5.509   3.781 -0.0619 -0.0201 -0.4273
  164SAPE  H19R18386   6.286   5.570   3.865 -0.7242 -0.7426  0.4025
  164SAPE  H19S18387   6.251   5.400   3.804 -0.9591 -0.1536 -0.9070
  164SAPE  C22018388   6.107   5.543   3.742 -0.8483  0.1139  0.2905
  164SAPE  H20R18389   6.072   5.465   3.671  0.0681 -1.4236  1.4890
  164SAPE  H20S18390   6.087   5.647   3.707  0.1418  0.7093  1.4554
  164SAPE  H20T18391   6.049   5.539   3.836  1.0955  1.4838  1.5988
  164SAPE   C3318392   6.273   4.872   2.765 -0.3238  0.6776  0.3652
  164SAPE   H3X18393   6.269   4.983   2.762 -1.5807  0.6255 -0.2310
  164SAPE   H3Y18394   6.375   4.841   2.796 -0.2029  1.1870  0.4802
  164SAPE   C3418395   6.187   4.814   2.877 -0.4621 -0.4860  0.1414
  164SAPE   H4X18396   6.207   4.705   2.868  1.5024 -0.1377  0.0466
  164SAPE   H4Y18397   6.078   4.819   2.854 -0.6877 -0.4655  1.2006
  164SAPE   C3518398   6.232   4.856   3.019  0.1448 -0.2100 -0.3092
  164SAPE   H5X18399   6.148   4.821   3.083  0.4037  0.5106  0.4286
  164SAPE   H5Y18400   6.240   4.967   3.030 -1.2868 -0.5643  6.2862
  164SAPE   C3618401   6.365   4.789   3.075 -0.1328  0.9853  0.0872
  164SAPE   H6X18402   6.427   4.795   2.983  0.6482  1.4401  0.6442
  164SAPE   H6Y18403   6.340   4.683   3.100  0.8057  1.1946  1.9494
  164SAPE   C3718404   6.414   4.867   3.201 -0.0299 -0.3137  0.2921
  164SAPE   H7X18405   6.513   4.822   3.227 -0.2977 -0.9599  0.1961
  164SAPE   H7Y18406   6.340   4.858   3.284 -0.2444  1.0050  0.2589
  164SAPE   C3818407   6.449   5.012   3.170 -0.8295 -0.2419  0.0834
  164SAPE   H8X18408   6.351   5.065   3.161 -1.1607 -0.6083  1.5240
  164SAPE   H8Y18409   6.489   5.023   3.067 -2.9120  2.8218 -0.4752
  164SAPE   C3918410   6.543   5.085   3.269 -0.0370 -0.7799  0.6382
  164SAPE   H9X18411   6.483   5.119   3.356 -1.7854 -0.4379 -0.6841
  164SAPE   H9Y18412   6.572   5.174   3.210 -1.5103 -0.8964 -0.2724
  164SAPE  C31018413   6.655   4.999   3.313  0.0611  0.0830  0.8447
  164SAPE  H10X18414   6.710   4.948   3.231 -0.2562  0.8845  0.1267
  164SAPE  H10Y18415   6.613   4.924   3.383 -1.6867  0.3297  0.0811
  164SAPE  C31118416   6.764   5.077   3.390  0.1130 -0.3151 -0.3771
  164SAPE  H11X18417   6.727   5.136   3.477  1.0434 -1.0059  0.5087
  164SAPE  H11Y18418   6.818   5.147   3.323 -3.2361 -0.4172 -3.3172
  164SAPE  C31218419   6.866   4.971   3.445  0.0125 -0.3977  0.0346
  164SAPE  H12X18420   6.906   4.905   3.366 -1.8514 -1.1332 -0.3276
  164SAPE  H12Y18421   6.821   4.904   3.522 -1.4131 -0.1006 -0.5252
  164SAPE  C31318422   6.991   5.056   3.503 -0.2649 -1.6417 -0.3948
  164SAPE  H13X18423   6.999   5.142   3.432 -0.8936 -1.8959 -0.7754
  164SAPE  H13Y18424   7.079   4.989   3.506  0.2322 -0.9781 -0.0513
  164SAPE  C31418425   6.977   5.116   3.639 -0.4061  0.4468 -1.1800
  164SAPE  H14X18426   7.059   5.075   3.702  0.4040  1.4645 -1.5527
  164SAPE  H14Y18427   6.881   5.089   3.689  0.3420 -3.2654 -1.6046
  164SAPE  C31518428   6.983   5.262   3.645 -0.3597  0.2803  0.7678
  164SAPE  H15X18429   6.895   5.310   3.597  0.4801  1.4504  0.3807
  164SAPE  H15Y18430   7.071   5.289   3.584 -0.8731 -1.7180 -0.9167
  164SAPE  C31618431   7.015   5.316   3.784  1.4777 -0.1157  0.5995
  164SAPE  H16X18432   7.121   5.287   3.800  1.9449  1.3496  0.3133
  164SAPE  H16Y18433   6.949   5.279   3.865 -0.6829 -0.7303 -1.3974
  164SAPE  C31718434   7.007   5.470   3.772 -0.1488 -0.1724 -0.8038
  164SAPE  H17X18435   6.904   5.495   3.737  0.2829 -0.0907 -2.0459
  164SAPE  H17Y18436   7.080   5.494   3.692  0.4087 -0.5794 -0.4197
  164SAPE  C31818437   7.046   5.540   3.905  0.5571 -0.6948  0.5556
  164SAPE  H18X18438   6.975   5.514   3.986  0.9573 -1.0789  0.7879
  164SAPE  H18Y18439   7.042   5.650   3.892 -0.0710 -0.7386  0.3827
  164SAPE  H18Z18440   7.147   5.516   3.945 -0.3033 -2.1565  1.9174
  165SAPE     N18441   3.066   6.603   2.084 -0.5655  1.1877 -0.3466
  165SAPE   HN118442   3.113   6.645   2.167  2.4897  0.1632 -1.5120
  165SAPE   HN218443   3.116   6.513   2.067 -1.4403  0.1354  2.3322
  165SAPE   HN318444   3.073   6.667   2.002 -0.2438 -1.7141 -2.6708
  165SAPE   C1218445   2.924   6.570   2.113  0.0220 -0.6920  0.1446
  165SAPE  H12A18446   2.927   6.487   2.186 -0.4021  0.2515  1.2445
  165SAPE  H12B18447   2.875   6.537   2.019  0.5962 -3.9590  0.9371
  165SAPE   C1118448   2.856   6.694   2.169  0.2124 -0.4009  0.8289
  165SAPE  H11A18449   2.921   6.725   2.254  0.5262 -0.7525  0.7162
  165SAPE  H11B18450   2.759   6.661   2.211 -0.9764  0.3047 -1.2925
  165SAPE     P18451   2.921   6.911   2.034  0.2804  0.7372  0.1348
  165SAPE   O1318452   3.035   6.836   1.967  0.4846  0.1397  0.4737
  165SAPE   O1418453   2.846   7.009   1.952  0.4020  0.0116 -0.1487
  165SAPE   O1218454   2.827   6.801   2.079 -0.5881  0.0741  0.2485
  165SAPE   O1118455   2.958   6.980   2.169  0.4418  0.2671  0.3414
  165SAPE    C118456   3.071   7.069   2.170  0.0668 -0.1605 -0.7618
  165SAPE    HA18457   3.079   7.126   2.074  1.0959 -2.9522 -2.3772
  165SAPE    HB18458   3.070   7.144   2.252  0.4288 -1.8096  0.7705
  165SAPE    C218459   3.212   6.999   2.190 -0.3880  0.8933 -0.3870
  165SAPE    HS18460   3.220   6.908   2.127 -1.4108 -0.4671  1.4089
  165SAPE   O2118461   3.240   6.973   2.336 -0.1170 -0.5178  0.1922
  165SAPE   C2118462   3.207   6.846   2.367  0.5164 -0.0088  0.1045
  165SAPE   O2218463   3.193   6.749   2.291 -0.7038 -0.6674 -0.2886
  165SAPE   C2218464   3.187   6.846   2.520 -0.3564  0.1349 -0.5157
  165SAPE   H2R18465   3.290   6.861   2.557 -0.2778 -2.0381  0.2237
  165SAPE   H2S18466   3.128   6.938   2.540  1.3643  1.0908  0.2874
  165SAPE    C318467   3.326   7.091   2.141 -0.0263 -0.7367 -0.0105
  165SAPE    HX18468   3.308   7.122   2.036 -4.1775  1.6990  1.2978
  165SAPE    HY18469   3.420   7.038   2.167  0.0919 -1.1177 -1.1511
  165SAPE   O3118470   3.313   7.212   2.213 -0.2732 -0.0401  0.7685
  165SAPE   C3118471   3.416   7.292   2.204 -0.5240  0.3499  0.2587
  165SAPE   O3218472   3.524   7.271   2.147  0.0236  0.1247 -0.7064
  165SAPE   C3218473   3.395   7.412   2.289  0.0903 -0.3322 -0.6180
  165SAPE   H2X18474   3.291   7.451   2.284 -0.0026 -0.5026 -0.0748
  165SAPE   H2Y18475   3.456   7.491   2.241 -3.0805  1.1058 -2.4267
  165SAPE   C2318476   3.131   6.712   2.576 -0.7880  0.6200  0.0311
  165SAPE   H3R18477   3.147   6.733   2.684 -1.4144  1.3053 -0.0093
  165SAPE   H3S18478   3.191   6.622   2.547 -1.3282  0.3797 -0.3584
  165SAPE   C2418479   2.978   6.697   2.552 -0.4704  0.8695 -0.1360
  165SAPE   H4R18480   2.931   6.620   2.617  2.9982 -2.3792 -1.3423
  165SAPE   H4S18481   2.970   6.647   2.453 -1.7866 -0.1850  0.4912
  165SAPE   C2518482   2.886   6.816   2.541 -0.3077 -0.2681 -0.0111
  165SAPE   H5R18483   2.861   6.848   2.438  2.4668 -1.9947 -1.2933
  165SAPE   C2618484   2.859   6.899   2.644  0.2669 -0.2631  0.9630
  165SAPE   H6R18485   2.814   6.996   2.622 -0.1974 -0.4983  0.8754
  165SAPE   C2718486   2.913   6.890   2.784  0.1504 -0.3851 -0.2597
  165SAPE   H7R18487   2.961   6.791   2.797 -1.7748 -1.3077  0.0294
  165SAPE   H7S18488   2.820   6.892   2.845 -0.1606  0.5564 -0.7434
  165SAPE   C2818489   3.022   6.996   2.806 -0.6016 -0.2756 -0.1790
  165SAPE   H8R18490   3.108   6.994   2.737 -1.0450 -0.2286 -0.7357
  165SAPE   C2918491   3.032   7.092   2.899  0.3764  0.2263  0.2503
  165SAPE   H9R18492   3.112   7.167   2.899 -1.3778  2.1371 -1.7184
  165SAPE  C21018493   2.936   7.129   3.005 -0.2232  0.3687 -0.0115
  165SAPE  H10R18494   2.930   7.042   3.074 -0.1439 -0.3129 -0.8562
  165SAPE  H10S18495   2.833   7.145   2.966 -0.2425  1.2417  0.3873
  165SAPE  C21118496   2.968   7.261   3.084  0.0794 -0.0427 -0.1703
  165SAPE  H11R18497   3.013   7.340   3.023 -2.2602  2.1845  0.8686
  165SAPE  C21218498   2.963   7.278   3.221 -0.2920 -0.0013 -0.5820
  165SAPE  H12R18499   3.017   7.367   3.258 -1.8527  0.2562  1.1532
  165SAPE  C21318500   2.929   7.173   3.315  0.3827 -0.0724  0.0990
  165SAPE  H13R18501   2.945   7.071   3.272 -0.4749  0.1559 -0.7948
  165SAPE  H13S18502   2.819   7.171   3.334  0.8392  1.8061  3.2959
  165SAPE  C21418503   3.008   7.189   3.447 -0.0499  0.2202 -1.4420
  165SAPE  H14R18504   2.971   7.270   3.512  0.9196 -0.2484 -0.2947
  165SAPE  C21518505   3.106   7.107   3.489 -0.2034 -0.1888 -0.0369
  165SAPE  H15R18506   3.148   7.129   3.588 -0.5029  1.6932 -0.3053
  165SAPE  C21618507   3.161   6.988   3.420  0.4754  0.5218 -0.3777
  165SAPE  H16R18508   3.244   7.022   3.355  2.1776  0.1764  1.5547
  165SAPE  H16S18509   3.077   6.941   3.364  0.6479 -0.5568  0.2567
  165SAPE  C21718510   3.204   6.889   3.531 -0.5076 -0.0480  0.2045
  165SAPE  H17R18511   3.116   6.833   3.570 -1.5712 -0.2713 -2.4123
  165SAPE  H17S18512   3.245   6.926   3.628 -0.8066  1.6940 -0.3256
  165SAPE  C21818513   3.305   6.790   3.475 -0.4840 -0.7521  0.6659
  165SAPE  H18R18514   3.341   6.716   3.550 -0.4465 -2.0192 -0.5966
  165SAPE  H18S18515   3.399   6.844   3.453 -2.2847  1.9519 -0.5794
  165SAPE  C21918516   3.255   6.716   3.356  0.1017 -0.0820  0.2818
  165SAPE  H19R18517   3.234   6.787   3.273 -1.2110  0.0701  0.7226
  165SAPE  H19S18518   3.158   6.665   3.374  0.9188 -1.6714  0.2442
  165SAPE  C22018519   3.353   6.613   3.321 -0.1815 -0.0368 -0.1995
  165SAPE  H20R18520   3.352   6.539   3.404  0.8319 -1.7859 -1.7015
  165SAPE  H20S18521   3.456   6.654   3.311 -1.0141  2.0364 -0.6030
  165SAPE  H20T18522   3.343   6.564   3.222  1.2425  1.3110 -1.0350
  165SAPE   C3318523   3.428   7.393   2.436  0.4001  0.4690 -0.4736
  165SAPE   H3X18524   3.423   7.496   2.479 -0.8508 -0.4471  1.6365
  165SAPE   H3Y18525   3.537   7.371   2.430  0.2410 -1.4968  2.6314
  165SAPE   C3418526   3.360   7.289   2.523 -0.6709  0.2981 -0.0880
  165SAPE   H4X18527   3.381   7.184   2.492 -1.5237  0.5870 -1.7131
  165SAPE   H4Y18528   3.249   7.298   2.515 -0.7640  1.5528  2.2150
  165SAPE   C3518529   3.400   7.301   2.677  0.2087  0.4134  0.3759
  165SAPE   H5X18530   3.323   7.369   2.720 -2.3239 -1.1748 -1.5258
  165SAPE   H5Y18531   3.495   7.357   2.693 -0.2159  1.3635 -0.3383
  165SAPE   C3618532   3.404   7.168   2.753 -0.6358 -0.3173 -0.8143
  165SAPE   H6X18533   3.491   7.111   2.715 -0.2073  0.2159 -0.6395
  165SAPE   H6Y18534   3.305   7.119   2.740 -0.5764 -0.7583  0.3264
  165SAPE   C3718535   3.430   7.186   2.900 -0.2574  0.1725 -0.1947
  165SAPE   H7X18536   3.358   7.258   2.944  0.4281  0.8532 -0.1824
  165SAPE   H7Y18537   3.535   7.218   2.917 -0.0418  0.6762 -2.3184
  165SAPE   C3818538   3.412   7.062   2.986  0.6587 -0.4142  0.4230
  165SAPE   H8X18539   3.498   6.992   2.976  0.0265 -0.9595 -1.3656
  165SAPE   H8Y18540   3.322   7.009   2.948  0.5696  0.1246 -0.1324
  165SAPE   C3918541   3.393   7.083   3.139 -0.4542 -0.0266  0.0256
  165SAPE   H9X18542   3.402   6.986   3.194  0.5261  1.1095  1.9221
  165SAPE   H9Y18543   3.293   7.124   3.164 -0.3371 -0.6755  1.6597
  165SAPE  C31018544   3.511   7.166   3.193 -0.3157  0.5369 -0.3071
  165SAPE  H10X18545   3.537   7.251   3.127  0.0491  0.6869  0.0269
  165SAPE  H10Y18546   3.604   7.106   3.189 -0.3523  0.4886 -0.4230
  165SAPE  C31118547   3.484   7.209   3.329 -1.0943 -0.4243 -0.1495
  165SAPE  H11X18548   3.483   7.113   3.384  2.2162  0.8073  2.2352
  165SAPE  H11Y18549   3.385   7.259   3.338 -0.5368  0.2832  2.6713
  165SAPE  C31218550   3.607   7.291   3.375 -0.4862 -0.1508  0.0863
  165SAPE  H12X18551   3.628   7.375   3.305 -1.0249  0.1614  0.2974
  165SAPE  H12Y18552   3.694   7.225   3.356  0.6150  0.6610  2.1087
  165SAPE  C31318553   3.610   7.327   3.522 -0.2813  0.3697 -0.1614
  165SAPE  H13X18554   3.708   7.374   3.547 -0.3487  0.5446 -0.2289
  165SAPE  H13Y18555   3.603   7.232   3.580 -0.9583 -0.3942 -1.4818
  165SAPE  C31418556   3.521   7.435   3.584 -0.5909  0.5761 -0.1376
  165SAPE  H14X18557   3.422   7.416   3.538  0.0016 -1.0516 -0.7907
  165SAPE  H14Y18558   3.550   7.541   3.569  0.7576  0.0633 -1.3477
  165SAPE  C31518559   3.491   7.405   3.737  0.2174 -0.0212 -0.2157
  165SAPE  H15X18560   3.440   7.492   3.783  1.2600  0.3153  0.3179
  165SAPE  H15Y18561   3.590   7.388   3.785  0.6270 -0.6780 -1.2579
  165SAPE  C31618562   3.394   7.292   3.763 -0.0755 -0.5305  0.1360
  165SAPE  H16X18563   3.440   7.203   3.714  1.7759  1.0653 -1.1237
  165SAPE  H16Y18564   3.304   7.313   3.702  0.3646 -1.2189 -0.7604
  165SAPE  C31718565   3.358   7.283   3.922  0.3546  0.0558  0.3944
  165SAPE  H17X18566   3.312   7.375   3.963  1.5418 -0.6219  3.4091
  165SAPE  H17Y18567   3.459   7.261   3.964  0.3508 -0.2036  0.2704
  165SAPE  C31818568   3.271   7.162   3.941  0.5510  0.2227 -0.3628
  165SAPE  H18X18569   3.320   7.066   3.913  0.9157  0.7241 -1.4611
  165SAPE  H18Y18570   3.178   7.179   3.883  2.0145  5.1515 -1.4980
  165SAPE  H18Z18571   3.237   7.147   4.046 -1.4377 -0.0964 -1.0193
  166SAPE     N18572   5.353   0.860   1.863  0.9108 -0.2608  0.1710
  166SAPE   HN118573   5.349   0.767   1.816  1.2972 -0.8537  1.3017
  166SAPE   HN218574   5.263   0.911   1.855  0.0487 -1.9130 -0.9328
  166SAPE   HN318575   5.424   0.918   1.813  0.0368  0.2727 -0.4601
  166SAPE   C1218576   5.395   0.858   2.008 -0.5916  0.2088  0.1509
  166SAPE  H12A18577   5.364   0.953   2.057  3.0555  1.3533  0.3826
  166SAPE  H12B18578   5.506   0.858   2.003 -0.6269  1.1513 -0.8920
  166SAPE   C1118579   5.325   0.731   2.083  0.1330  0.2161 -0.0378
  166SAPE  H11A18580   5.217   0.723   2.058  0.3583  0.2689 -1.0621
  166SAPE  H11B18581   5.332   0.751   2.192  1.8738  2.6293 -0.5402
  166SAPE     P18582   5.350   0.516   1.937  0.1833  0.3977 -0.2139
  166SAPE   O1318583   5.351   0.592   1.812 -0.2468  0.3085  0.6629
  166SAPE   O1418584   5.423   0.393   1.936  0.0980  0.4567  0.2645
  166SAPE   O1218585   5.392   0.611   2.055  0.0288  0.4123  0.8586
  166SAPE   O1118586   5.199   0.498   1.980  0.0220 -0.1584 -0.7307
  166SAPE    C118587   5.168   0.387   2.076  0.0091 -0.3992 -0.4429
  166SAPE    HA18588   5.167   0.287   2.029  1.8574 -1.4286  1.6677
  166SAPE    HB18589   5.240   0.374   2.159 -0.4211 -2.7086 -0.4073
  166SAPE    C218590   5.029   0.399   2.148  0.4221 -0.4930 -0.7295
  166SAPE    HS18591   4.951   0.406   2.069 -2.1075 -3.4284  1.3718
  166SAPE   O2118592   5.033   0.508   2.241 -0.0459 -0.5887  0.1908
  166SAPE   C2118593   4.989   0.620   2.188  0.3015  0.0063 -0.2086
  166SAPE   O2218594   4.929   0.640   2.083 -0.0159  0.1855  0.0431
  166SAPE   C2218595   5.034   0.734   2.276 -0.7530  0.2470 -0.4674
  166SAPE   H2R18596   4.975   0.725   2.369  1.6662 -0.4675  1.0315
  166SAPE   H2S18597   5.141   0.744   2.304 -1.1634  0.4166  1.0765
  166SAPE    C318598   4.992   0.275   2.232  0.4124 -0.0606  0.0829
  166SAPE    HX18599   4.998   0.188   2.164 -0.1376 -1.6382  2.0202
  166SAPE    HY18600   4.887   0.290   2.267  0.6573 -2.5720  2.0248
  166SAPE   O3118601   5.088   0.254   2.341  0.1448 -0.3211 -0.7476
  166SAPE   C3118602   5.073   0.141   2.398 -0.7102 -0.0738 -0.0067
  166SAPE   O3218603   5.012   0.042   2.355  0.1393 -0.2355 -0.4087
  166SAPE   C3218604   5.133   0.153   2.539 -0.1630  0.5374 -0.2632
  166SAPE   H2X18605   5.079   0.242   2.578 -0.3251  0.5744 -0.5714
  166SAPE   H2Y18606   5.242   0.175   2.530 -0.3787  1.8754  0.2080
  166SAPE   C2318607   4.990   0.877   2.217  0.7369  0.5542  0.4352
  166SAPE   H3R18608   4.880   0.879   2.205  0.5959  0.1217  1.6511
  166SAPE   H3S18609   5.032   0.887   2.114  0.8496  2.9126  0.6816
  166SAPE   C2418610   5.038   0.994   2.303  0.5822  0.2306  0.3954
  166SAPE   H4R18611   5.014   0.974   2.409  1.5720  0.0557  0.5833
  166SAPE   H4S18612   4.990   1.087   2.267  0.4882 -0.6346 -1.8460
  166SAPE   C2518613   5.188   1.015   2.286  0.5561  0.1872 -0.0637
  166SAPE   H5R18614   5.217   1.043   2.183  0.8452  0.2499  0.0349
  166SAPE   C2618615   5.286   1.009   2.381  0.1559  0.3240  0.1671
  166SAPE   H6R18616   5.388   1.031   2.347  0.1585 -1.5105 -1.1061
  166SAPE   C2718617   5.266   0.970   2.528 -0.5064  0.1052  0.1064
  166SAPE   H7R18618   5.366   0.938   2.563  0.5695  1.4510 -1.6600
  166SAPE   H7S18619   5.209   0.876   2.545 -1.3251  0.9570  2.2559
  166SAPE   C2818620   5.219   1.085   2.620 -0.5329 -0.1994 -0.6108
  166SAPE   H8R18621   5.179   1.182   2.589 -0.5107  0.2264  0.6507
  166SAPE   C2918622   5.217   1.074   2.756 -0.2291 -0.3057 -0.0887
  166SAPE   H9R18623   5.160   1.143   2.819  0.3500 -0.6514  0.8170
  166SAPE  C21018624   5.259   0.956   2.832 -0.1130 -0.4906  0.6388
  166SAPE  H10R18625   5.370   0.957   2.834  0.0063 -1.6471 -2.8085
  166SAPE  H10S18626   5.240   0.860   2.780 -1.4977  0.0539  0.1217
  166SAPE  C21118627   5.201   0.943   2.973  0.2882  0.2033  1.0597
  166SAPE  H11R18628   5.252   1.005   3.048 -0.7773 -0.4078  2.3083
  166SAPE  C21218629   5.085   0.874   3.006  0.5030  0.1407  0.1575
  166SAPE  H12R18630   5.057   0.864   3.112  0.1045  2.0968  0.2510
  166SAPE  C21318631   5.005   0.799   2.903 -0.6962  0.5621 -0.4421
  166SAPE  H13R18632   5.023   0.842   2.802  0.5686 -1.0763 -0.9435
  166SAPE  H13S18633   4.896   0.804   2.924 -0.6016 -1.0876  0.5650
  166SAPE  C21418634   5.034   0.643   2.897 -0.7746 -0.1309 -0.2713
  166SAPE  H14R18635   5.055   0.605   2.998  2.7020  1.7923 -0.2034
  166SAPE  C21518636   5.022   0.557   2.797  0.1703 -0.4009 -0.1208
  166SAPE  H15R18637   5.061   0.454   2.807 -0.5805 -0.7563 -0.7882
  166SAPE  C21618638   4.980   0.586   2.658 -0.2297  0.0133  0.2933
  166SAPE  H16R18639   5.042   0.535   2.581  0.4701  1.6228 -0.2154
  166SAPE  H16S18640   5.000   0.693   2.638  3.7214 -0.6009  0.5338
  166SAPE  C21718641   4.835   0.558   2.614 -0.6267 -0.5346 -0.0661
  166SAPE  H17R18642   4.825   0.594   2.510  0.3240 -0.3060 -0.0814
  166SAPE  H17S18643   4.761   0.616   2.674 -1.4327  0.4483 -1.9749
  166SAPE  C21818644   4.789   0.415   2.604  0.0262 -0.3276  0.7936
  166SAPE  H18R18645   4.768   0.377   2.706  0.9812 -2.2166  0.3073
  166SAPE  H18S18646   4.870   0.354   2.559  0.3721  0.1651  0.7461
  166SAPE  C21918647   4.657   0.413   2.518 -1.6274 -0.5359 -0.1851
  166SAPE  H19R18648   4.670   0.467   2.422  0.5219 -0.2835  0.2300
  166SAPE  H19S18649   4.571   0.457   2.573 -0.5938  1.6161 -0.2657
  166SAPE  C22018650   4.629   0.269   2.480  0.0485 -0.2609  0.1809
  166SAPE  H20R18651   4.714   0.227   2.423  1.3504 -1.1595  2.6778
  166SAPE  H20S18652   4.537   0.271   2.418  1.4661  3.0303 -1.9319
  166SAPE  H20T18653   4.611   0.204   2.569  0.4515  0.8329  1.0764
  166SAPE   C3318654   5.085   0.049   2.640 -0.3062  0.6891 -0.1836
  166SAPE   H3X18655   5.155  -0.037   2.632  1.2592  1.9844 -0.5926
  166SAPE   H3Y18656   4.980   0.019   2.618 -0.3675  1.9280 -1.6680
  166SAPE   C3418657   5.095   0.085   2.782  0.3264 -0.1070 -0.3268
  166SAPE   H4X18658   5.093   0.004   2.858  0.1930  1.1880  1.0819
  166SAPE   H4Y18659   4.998   0.132   2.811 -0.6929 -2.8719  0.8579
  166SAPE   C3518660   5.212   0.183   2.820 -0.2434  0.1022 -0.0168
  166SAPE   H5X18661   5.201   0.287   2.783  1.0419  0.2671  0.0332
  166SAPE   H5Y18662   5.303   0.154   2.762 -0.0978  0.5795 -0.0299
  166SAPE   C3618663   5.254   0.179   2.972 -0.0885 -0.1798  0.4662
  166SAPE   H6X18664   5.361   0.209   2.985 -0.1806 -0.0956  1.0724
  166SAPE   H6Y18665   5.244   0.082   3.026  1.1066  0.5608  2.0639
  166SAPE   C3718666   5.170   0.291   3.045  0.1002 -0.0725  0.1071
  166SAPE   H7X18667   5.067   0.260   3.016 -1.0274  2.3548  1.4146
  166SAPE   H7Y18668   5.200   0.381   2.987 -2.4434 -1.0291 -2.8501
  166SAPE   C3818669   5.208   0.287   3.195  0.2435 -0.9826  0.0525
  166SAPE   H8X18670   5.318   0.289   3.206  0.4334 -1.3813 -1.5875
  166SAPE   H8Y18671   5.159   0.197   3.237 -3.9436  1.2892  0.3233
  166SAPE   C3918672   5.162   0.411   3.277  0.7460  0.2862 -0.3175
  166SAPE   H9X18673   5.053   0.419   3.258  0.5195  0.6353  1.0746
  166SAPE   H9Y18674   5.207   0.505   3.238 -1.7995  1.4806 -0.4475
  166SAPE  C31018675   5.198   0.406   3.434 -0.2783  0.7390 -0.1489
  166SAPE  H10X18676   5.198   0.508   3.478  0.2196  0.2123  1.1114
  166SAPE  H10Y18677   5.304   0.372   3.443 -0.3440  0.9271  1.4848
  166SAPE  C31118678   5.105   0.314   3.525  0.5178  0.8887 -0.3739
  166SAPE  H11X18679   5.097   0.213   3.480  0.5204  1.1306 -0.9271
  166SAPE  H11Y18680   5.002   0.355   3.516  0.2846 -0.1691 -3.0798
  166SAPE  C31218681   5.139   0.298   3.677  0.1557  0.1880 -0.0463
  166SAPE  H12X18682   5.171   0.394   3.723 -2.5600  1.5457 -0.8723
  166SAPE  H12Y18683   5.226   0.231   3.692  0.5911  0.8639  0.4631
  166SAPE  C31318684   5.021   0.260   3.769 -0.3293  0.4063  0.1544
  166SAPE  H13X18685   4.950   0.346   3.769  0.5168  1.1297 -1.5933
  166SAPE  H13Y18686   5.065   0.248   3.870 -0.0679  2.9795  0.3967
  166SAPE  C31418687   4.967   0.124   3.722 -0.6622 -0.0579  0.5876
  166SAPE  H14X18688   5.055   0.056   3.724 -0.3974  0.2939  0.9522
  166SAPE  H14Y18689   4.936   0.130   3.615 -0.2311  1.5146  0.5426
  166SAPE  C31518690   4.852   0.082   3.812  0.1417 -0.6326 -0.0089
  166SAPE  H15X18691   4.775   0.162   3.806  0.6454  0.0817  2.3371
  166SAPE  H15Y18692   4.883   0.063   3.918 -0.6409 -0.1400  0.3103
  166SAPE  C31618693   4.784  -0.047   3.764  0.0431  0.8305  0.1416
  166SAPE  H16X18694   4.781  -0.039   3.653  1.5862  0.6233  0.0760
  166SAPE  H16Y18695   4.679  -0.051   3.800 -0.5801 -2.0053 -1.8454
  166SAPE  C31718696   4.868  -0.169   3.798 -0.1531  0.2016  0.3743
  166SAPE  H17X18697   4.885  -0.166   3.908  3.4888 -0.1787 -0.0959
  166SAPE  H17Y18698   4.970  -0.167   3.754 -0.1814 -3.9359 -0.0561
  166SAPE  C31818699   4.800  -0.303   3.764  0.2114  0.5202 -0.2223
  166SAPE  H18X18700   4.702  -0.291   3.815 -0.4707  2.3966 -1.9084
  166SAPE  H18Y18701   4.847  -0.395   3.805  0.4281 -1.1515 -3.9525
  166SAPE  H18Z18702   4.787  -0.307   3.654 -0.3686 -0.4643 -0.1268
  167SAPE     N18703   0.362   4.422   1.986  0.1225 -0.2132 -0.7101
  167SAPE   HN118704   0.260   4.417   2.005  0.7922 -0.3454  3.3676
  167SAPE   HN218705   0.380   4.465   1.893 -4.6122 -1.1890 -2.2290
  167SAPE   HN318706   0.399   4.325   1.977  1.1944 -0.4376  4.4191
  167SAPE   C1218707   0.427   4.484   2.109 -0.2855  0.1715  0.2551
  167SAPE  H12A18708   0.433   4.414   2.195 -1.3688 -1.7696 -1.2232
  167SAPE  H12B18709   0.359   4.565   2.144 -1.1696 -0.6533  0.4496
  167SAPE   C1118710   0.569   4.523   2.073  0.0396 -0.4435 -0.1688
  167SAPE  H11A18711   0.633   4.439   2.039  1.6076  0.9461 -0.7268
  167SAPE  H11B18712   0.609   4.563   2.169 -3.0527  1.9336  0.1988
  167SAPE     P18713   0.521   4.774   2.008  0.6539 -0.1334 -0.1684
  167SAPE   O1318714   0.607   4.863   1.928  0.5099 -0.4072 -0.1275
  167SAPE   O1418715   0.377   4.778   1.993 -0.3788  0.1925  0.1248
  167SAPE   O1218716   0.571   4.627   1.975 -0.0467  0.2913  0.4328
  167SAPE   O1118717   0.561   4.779   2.165  0.3071 -0.5196 -0.9266
  167SAPE    C118718   0.690   4.820   2.215  0.3549  0.4399 -0.4953
  167SAPE    HA18719   0.762   4.735   2.219 -0.7934 -0.5326 -0.0141
  167SAPE    HB18720   0.733   4.904   2.157 -0.7713  0.9469 -0.6115
  167SAPE    C218721   0.667   4.870   2.360  0.0737  0.4149  0.2887
  167SAPE    HS18722   0.768   4.878   2.407  0.1161 -0.2330  0.3137
  167SAPE   O2118723   0.584   4.772   2.432  0.0335 -0.0629  0.2687
  167SAPE   C2118724   0.651   4.676   2.492  0.5571  0.2320  0.0623
  167SAPE   O2218725   0.774   4.669   2.498  0.3182  0.5778  0.1245
  167SAPE   C2218726   0.547   4.578   2.552  0.8309  0.2031 -0.5208
  167SAPE   H2R18727   0.513   4.617   2.650  1.2210 -1.0829  0.1338
  167SAPE   H2S18728   0.459   4.569   2.484  0.5918  0.8027 -0.2906
  167SAPE    C318729   0.606   5.013   2.367  0.2962  0.0423 -0.2864
  167SAPE    HX18730   0.520   5.018   2.297  0.2502  1.2484 -0.1511
  167SAPE    HY18731   0.680   5.084   2.325 -0.0264 -0.1349 -1.1596
  167SAPE   O3118732   0.551   5.053   2.496  0.5582  0.3415  0.0816
  167SAPE   C3118733   0.629   5.100   2.579  0.2130 -0.0353  0.2000
  167SAPE   O3218734   0.740   5.143   2.562 -0.0175 -0.5164  0.4077
  167SAPE   C3218735   0.572   5.081   2.718 -0.3666  0.4457 -0.7630
  167SAPE   H2X18736   0.508   4.990   2.726 -0.0265  0.4198  2.4094
  167SAPE   H2Y18737   0.508   5.167   2.744 -0.4635  0.0361  0.3960
  167SAPE   C2318738   0.610   4.439   2.586  0.4177  0.2012  0.3805
  167SAPE   H3R18739   0.693   4.456   2.657 -0.5687 -0.1522  1.6378
  167SAPE   H3S18740   0.653   4.390   2.496 -0.3773 -1.1502  0.7265
  167SAPE   C2418741   0.505   4.339   2.637 -0.0132 -0.5784  0.0485
  167SAPE   H4R18742   0.564   4.247   2.658 -0.3021 -1.3141 -2.1820
  167SAPE   H4S18743   0.435   4.301   2.560  0.1631  0.1838 -0.4950
  167SAPE   C2518744   0.421   4.385   2.753  0.3742  0.1481 -0.0869
  167SAPE   H5R18745   0.328   4.426   2.710  0.1311  0.3430  0.6134
  167SAPE   C2618746   0.455   4.384   2.877 -0.3192 -0.4197 -0.7291
  167SAPE   H6R18747   0.384   4.436   2.943  1.3348 -1.1300  1.6599
  167SAPE   C2718748   0.581   4.338   2.949 -0.2551 -0.8801 -0.0660
  167SAPE   H7R18749   0.651   4.287   2.879  0.2022 -1.2598  0.6609
  167SAPE   H7S18750   0.553   4.262   3.025 -0.1152  1.6281  2.5790
  167SAPE   C2818751   0.660   4.452   3.010  0.2942 -0.3029 -0.2358
  167SAPE   H8R18752   0.721   4.511   2.940  0.7572 -1.0803 -0.5006
  167SAPE   C2918753   0.661   4.485   3.136 -0.2788 -0.2908 -0.3898
  167SAPE   H9R18754   0.729   4.567   3.162 -2.0057  0.0500  3.4907
  167SAPE  C21018755   0.598   4.422   3.261  0.1728 -0.9815 -0.1899
  167SAPE  H10R18756   0.680   4.377   3.322  0.9364  1.7335  0.8976
  167SAPE  H10S18757   0.533   4.335   3.242  0.1882 -0.8559 -0.8064
  167SAPE  C21118758   0.524   4.521   3.343 -0.1276  0.7734  0.0556
  167SAPE  H11R18759   0.469   4.602   3.292 -1.5151  0.1312  0.4862
  167SAPE  C21218760   0.504   4.524   3.477 -0.4908 -0.3655  0.0994
  167SAPE  H12R18761   0.445   4.609   3.514  1.4402  1.4958 -0.9898
  167SAPE  C21318762   0.544   4.420   3.578 -0.0427  0.2956  0.4717
  167SAPE  H13R18763   0.651   4.391   3.578 -0.4607 -1.4565  3.8914
  167SAPE  H13S18764   0.498   4.321   3.560  0.8421  0.0578 -0.5399
  167SAPE  C21418765   0.524   4.483   3.720  0.0526  0.1284  0.4869
  167SAPE  H14R18766   0.565   4.584   3.733 -1.2502  0.6917  0.2631
  167SAPE  C21518767   0.435   4.438   3.817  0.9384 -0.1307  0.6604
  167SAPE  H15R18768   0.437   4.477   3.920  0.7035  2.0302 -0.1147
  167SAPE  C21618769   0.349   4.315   3.809 -0.3546  0.3750  0.5501
  167SAPE  H16R18770   0.397   4.251   3.731  0.3046  0.4483  0.8861
  167SAPE  H16S18771   0.254   4.348   3.763 -0.0950 -2.0245 -1.8422
  167SAPE  C21718772   0.309   4.231   3.932 -0.5546 -0.8668  0.2470
  167SAPE  H17R18773   0.399   4.178   3.970 -2.3243 -3.3264  1.1738
  167SAPE  H17S18774   0.236   4.151   3.905 -1.7510  0.1913  0.3055
  167SAPE  C21818775   0.239   4.308   4.049  0.8120  0.3723 -0.1860
  167SAPE  H18R18776   0.319   4.373   4.090  1.7107  0.2032 -1.6425
  167SAPE  H18S18777   0.212   4.234   4.127  0.1268 -1.6006 -2.2320
  167SAPE  C21918778   0.111   4.387   4.006  0.2086 -0.0780  0.4401
  167SAPE  H19R18779   0.042   4.327   3.942 -1.4020  1.0171  1.1057
  167SAPE  H19S18780   0.150   4.464   3.936  1.8431 -1.9245 -0.7324
  167SAPE  C22018781   0.029   4.455   4.122  0.2417 -0.3283 -0.4720
  167SAPE  H20R18782  -0.056   4.507   4.074 -1.1908 -1.9074  0.3328
  167SAPE  H20S18783   0.102   4.516   4.179 -0.5739  0.5344 -0.3379
  167SAPE  H20T18784  -0.017   4.394   4.202 -0.5479 -0.2794 -0.8862
  167SAPE   C3318785   0.680   5.065   2.827 -0.3855 -0.1885 -0.1082
  167SAPE   H3X18786   0.620   5.073   2.920 -1.7470 -3.1581 -0.6805
  167SAPE   H3Y18787   0.759   5.143   2.825 -0.5373  0.0118  1.2986
  167SAPE   C3418788   0.737   4.925   2.837 -0.7821  0.7286 -0.4788
  167SAPE   H4X18789   0.809   4.902   2.756 -1.7783  0.0112 -1.1804
  167SAPE   H4Y18790   0.654   4.855   2.811 -0.7703  0.6310 -0.2570
  167SAPE   C3518791   0.773   4.884   2.976  0.6746 -0.6977 -0.3682
  167SAPE   H5X18792   0.831   4.790   2.960 -0.0975 -1.2732  0.1510
  167SAPE   H5Y18793   0.685   4.863   3.042  2.8576  1.5084  3.4457
  167SAPE   C3618794   0.862   4.984   3.056  0.3935  0.1174 -0.5141
  167SAPE   H6X18795   0.806   5.075   3.084 -1.0493 -1.0528  0.4722
  167SAPE   H6Y18796   0.949   5.014   2.994  0.8439 -1.1259 -0.4956
  167SAPE   C3718797   0.927   4.915   3.175 -0.2514  0.4490 -0.2930
  167SAPE   H7X18798   1.011   4.850   3.141  1.0952  0.8803  2.1313
  167SAPE   H7Y18799   0.852   4.855   3.230  0.4247  0.2391  0.3981
  167SAPE   C3818800   0.987   5.014   3.277  0.0673  0.5474 -0.0922
  167SAPE   H8X18801   0.916   5.097   3.300  1.3228  1.5008  0.3850
  167SAPE   H8Y18802   1.081   5.057   3.237  0.9049 -2.2821 -1.3207
  167SAPE   C3918803   1.031   4.947   3.409 -0.9302  0.3133 -0.1777
  167SAPE   H9X18804   1.093   4.859   3.384 -0.3378  0.5096  0.5830
  167SAPE   H9Y18805   0.945   4.920   3.475 -0.9722  1.2147  0.1432
  167SAPE  C31018806   1.122   5.037   3.485 -0.5922 -0.9398  0.0982
  167SAPE  H10X18807   1.069   5.131   3.513  1.0529  0.7231 -2.1648
  167SAPE  H10Y18808   1.203   5.067   3.415 -1.5060  0.1258 -0.5378
  167SAPE  C31118809   1.179   4.966   3.606 -0.6794  0.2635  0.7530
  167SAPE  H11X18810   1.289   4.962   3.592 -0.5203  1.6919  1.4805
  167SAPE  H11Y18811   1.133   4.865   3.612 -1.6363  0.8157  2.9688
  167SAPE  C31218812   1.158   5.029   3.743  0.5493  0.1232 -0.3091
  167SAPE  H12X18813   1.048   5.033   3.756  0.5381 -1.5940  0.2460
  167SAPE  H12Y18814   1.190   5.135   3.757 -3.4158  1.6890 -2.4119
  167SAPE  C31318815   1.216   4.943   3.856  0.0331  0.2767 -0.0525
  167SAPE  H13X18816   1.323   4.963   3.832 -0.6135 -0.4254 -3.9047
  167SAPE  H13Y18817   1.193   4.835   3.846 -1.0446  0.2872  2.0490
  167SAPE  C31418818   1.178   4.989   4.004 -0.6217 -0.4434 -0.2483
  167SAPE  H14X18819   1.068   4.999   4.008 -0.5468  0.5790 -0.7074
  167SAPE  H14Y18820   1.216   5.092   4.017 -2.4878 -0.1121  3.0173
  167SAPE  C31518821   1.228   4.894   4.119 -0.4131 -0.2863 -0.0037
  167SAPE  H15X18822   1.339   4.903   4.122 -0.2646 -2.1657  0.9436
  167SAPE  H15Y18823   1.209   4.787   4.095 -2.4336 -0.1768  1.0013
  167SAPE  C31618824   1.173   4.918   4.256 -0.0959  0.2448 -0.5835
  167SAPE  H16X18825   1.069   4.883   4.274  0.1139 -0.8371 -1.3908
  167SAPE  H16Y18826   1.159   5.028   4.256  0.6976  0.3571  0.5410
  167SAPE  C31718827   1.271   4.881   4.369  0.5736 -0.0782 -0.1376
  167SAPE  H17X18828   1.371   4.929   4.359  0.5185  0.1485  0.3777
  167SAPE  H17Y18829   1.280   4.771   4.376  0.0678 -0.0477  1.1099
  167SAPE  C31818830   1.200   4.918   4.500 -0.9850 -0.7721 -0.1393
  167SAPE  H18X18831   1.107   4.858   4.500 -1.5270  0.0421 -1.6263
  167SAPE  H18Y18832   1.175   5.026   4.496  1.4433 -0.1316  0.8235
  167SAPE  H18Z18833   1.256   4.899   4.594 -0.6153  4.4027  0.8098
  168SAPE     N18834   2.189   0.762   1.709 -0.6277 -0.1444 -0.1530
  168SAPE   HN118835   2.093   0.798   1.729 -1.2325 -1.8633  0.2030
  168SAPE   HN218836   2.245   0.816   1.778  0.0726 -0.7310 -0.2559
  168SAPE   HN318837   2.219   0.785   1.613  1.3630 -0.4118  0.3823
  168SAPE   C1218838   2.193   0.614   1.727 -0.1490  1.3081  0.1923
  168SAPE  H12A18839   2.137   0.563   1.645 -0.2355  0.2728  0.8781
  168SAPE  H12B18840   2.145   0.582   1.822  0.9361  4.5807  1.9028
  168SAPE   C1118841   2.335   0.548   1.740 -0.2599  0.1550 -0.0935
  168SAPE  H11A18842   2.382   0.559   1.640  0.9774  1.2048  0.5897
  168SAPE  H11B18843   2.324   0.440   1.762  0.5705  0.1259  0.2081
  168SAPE     P18844   2.445   0.558   1.981 -0.2971 -0.1170  0.2012
  168SAPE   O1318845   2.563   0.472   1.964  0.5810 -0.0178 -0.0536
  168SAPE   O1418846   2.461   0.673   2.070 -0.0136 -0.6353 -0.0871
  168SAPE   O1218847   2.418   0.621   1.837  0.1451  0.0167 -0.2380
  168SAPE   O1118848   2.313   0.470   2.014  0.2563  0.2787 -0.3676
  168SAPE    C118849   2.194   0.527   2.073 -0.0380  0.0924  0.0959
  168SAPE    HA18850   2.199   0.638   2.083 -0.1575  0.2914 -1.8981
  168SAPE    HB18851   2.094   0.506   2.028 -0.3921  0.9910  0.4442
  168SAPE    C218852   2.189   0.479   2.222 -0.1240  0.3380  0.3394
  168SAPE    HS18853   2.106   0.519   2.284 -0.2671 -2.5095  2.0531
  168SAPE   O2118854   2.311   0.501   2.296  0.0010 -0.4303 -0.5394
  168SAPE   C2118855   2.313   0.628   2.338 -0.2173  0.0158 -0.2121
  168SAPE   O2218856   2.228   0.713   2.312  0.4901 -0.0238 -0.5102
  168SAPE   C2218857   2.444   0.652   2.414  0.2190 -0.0853  0.2580
  168SAPE   H2R18858   2.532   0.637   2.349 -1.4940  1.5364 -2.5122
  168SAPE   H2S18859   2.449   0.762   2.429  2.3910 -0.0830 -0.2605
  168SAPE    C318860   2.155   0.327   2.217  0.7889  0.1038 -0.1427
  168SAPE    HX18861   2.243   0.273   2.177  0.4477 -0.2354 -0.4513
  168SAPE    HY18862   2.067   0.323   2.149  0.7702 -0.7381 -0.0806
  168SAPE   O3118863   2.133   0.271   2.347 -0.6929 -0.3215 -0.4680
  168SAPE   C3118864   2.009   0.230   2.371 -0.1542  0.1140  0.0631
  168SAPE   O3218865   1.916   0.236   2.293  0.1472 -0.3718  0.0105
  168SAPE   C3218866   2.000   0.162   2.506 -0.2227  0.1153 -0.3194
  168SAPE   H2X18867   2.036   0.234   2.581  0.6144 -0.9148  0.2804
  168SAPE   H2Y18868   2.067   0.073   2.504  1.1260  1.0758  1.3805
  168SAPE   C2318869   2.451   0.590   2.552  0.3123 -0.2266 -0.9051
  168SAPE   H3R18870   2.556   0.559   2.572  0.7272  0.2190 -2.3577
  168SAPE   H3S18871   2.394   0.495   2.552 -1.0605  0.5888 -0.9414
  168SAPE   C2418872   2.380   0.664   2.668  0.3237 -1.5376  0.5782
  168SAPE   H4R18873   2.432   0.762   2.672 -2.1794 -0.1343 -0.0985
  168SAPE   H4S18874   2.393   0.603   2.760  0.5941 -0.1731  1.4535
  168SAPE   C2518875   2.238   0.690   2.641  0.8538 -0.0686  0.0095
  168SAPE   H5R18876   2.221   0.762   2.560 -0.0021 -0.5421 -0.2342
  168SAPE   C2618877   2.133   0.649   2.710  0.5564 -0.0552 -0.0088
  168SAPE   H6R18878   2.045   0.712   2.693  3.9437  4.5112 -1.8775
  168SAPE   C2718879   2.120   0.561   2.829 -0.3692  0.4214  0.0671
  168SAPE   H7R18880   2.208   0.496   2.846 -2.5167 -2.2838  1.3217
  168SAPE   H7S18881   2.033   0.493   2.823  0.3915 -0.7994  2.4518
  168SAPE   C2818882   2.086   0.642   2.952 -0.5634 -0.4491  0.4266
  168SAPE   H8R18883   1.976   0.650   2.949 -0.6959 -1.0950  2.7564
  168SAPE   C2918884   2.164   0.708   3.040  0.1607 -0.2134 -0.1563
  168SAPE   H9R18885   2.109   0.761   3.120  0.6760  1.5052 -0.9238
  168SAPE  C21018886   2.319   0.709   3.052  0.8179  0.0046  0.4077
  168SAPE  H10R18887   2.365   0.784   2.985  0.3452 -0.6868 -0.7001
  168SAPE  H10S18888   2.347   0.610   3.010  1.4366  1.6909 -3.3356
  168SAPE  C21118889   2.385   0.729   3.189 -0.2605 -0.8714 -0.0457
  168SAPE  H11R18890   2.441   0.640   3.223 -0.0150 -0.2152  1.2988
  168SAPE  C21218891   2.379   0.834   3.275 -0.5251  0.2107 -0.3609
  168SAPE  H12R18892   2.427   0.826   3.374 -2.0921  2.1533  0.6190
  168SAPE  C21318893   2.310   0.966   3.266 -0.0552 -0.4300  0.3914
  168SAPE  H13R18894   2.216   0.959   3.324 -0.3549 -1.8299 -0.2381
  168SAPE  H13S18895   2.278   0.969   3.160  0.6152 -2.3943  0.0952
  168SAPE  C21418896   2.388   1.088   3.315 -0.2902 -0.3714  0.0080
  168SAPE  H14R18897   2.416   1.159   3.236 -1.8197  0.5060  0.2242
  168SAPE  C21518898   2.405   1.129   3.447  0.5772 -0.2472  0.0063
  168SAPE  H15R18899   2.464   1.220   3.464  2.9882 -1.6004 -0.9032
  168SAPE  C21618900   2.355   1.066   3.574 -0.4283 -0.3781 -0.1901
  168SAPE  H16R18901   2.283   0.982   3.561  1.3611 -1.8466 -0.8456
  168SAPE  H16S18902   2.292   1.139   3.629 -0.5147  0.0182 -0.8027
  168SAPE  C21718903   2.480   1.017   3.657  0.9718 -0.0587  1.3219
  168SAPE  H17R18904   2.555   1.098   3.666  0.2740  0.5219  2.0089
  168SAPE  H17S18905   2.520   0.927   3.606  1.0050  0.8606 -0.2957
  168SAPE  C21818906   2.451   0.981   3.805  0.2799 -0.3388  0.0855
  168SAPE  H18R18907   2.378   0.898   3.803 -0.9432  0.7205  0.2246
  168SAPE  H18S18908   2.403   1.066   3.859 -1.0503  0.2841 -2.0319
  168SAPE  C21918909   2.575   0.935   3.881  0.2268 -0.2332 -0.0152
  168SAPE  H19R18910   2.660   1.005   3.884  0.6363 -0.6989 -0.5043
  168SAPE  H19S18911   2.622   0.848   3.830  0.6801  1.1886 -2.0962
  168SAPE  C22018912   2.544   0.904   4.027 -0.6352 -0.4101  0.1021
  168SAPE  H20R18913   2.463   0.827   4.035 -1.4896  0.4955  0.2630
  168SAPE  H20S18914   2.508   0.994   4.081 -1.5070 -0.2040 -0.7908
  168SAPE  H20T18915   2.629   0.854   4.078  0.1189  0.6408 -0.1228
  168SAPE   C3318916   1.855   0.124   2.543 -0.3931 -0.2297  0.2100
  168SAPE   H3X18917   1.805   0.055   2.472  0.6321  0.6812 -1.4451
  168SAPE   H3Y18918   1.803   0.219   2.519  2.3071  1.2978  0.1218
  168SAPE   C3418919   1.848   0.072   2.686  0.2064  0.4856  0.8293
  168SAPE   H4X18920   1.905  -0.022   2.696 -2.2554 -1.1182  0.2782
  168SAPE   H4Y18921   1.745   0.034   2.702 -0.6299  2.0741 -0.6825
  168SAPE   C3518922   1.902   0.167   2.793 -0.0425  0.6859  0.7546
  168SAPE   H5X18923   1.849   0.265   2.793 -1.1659  0.0838  0.3883
  168SAPE   H5Y18924   2.010   0.188   2.782  0.3582 -2.2512 -1.4442
  168SAPE   C3618925   1.871   0.108   2.935  0.0958  0.4650  0.5127
  168SAPE   H6X18926   1.940   0.023   2.951 -0.2084  0.3653  1.2872
  168SAPE   H6Y18927   1.767   0.069   2.940  0.3440 -0.2552  0.1021
  168SAPE   C3718928   1.880   0.208   3.052 -0.5318 -0.5572  0.1773
  168SAPE   H7X18929   1.776   0.229   3.086  0.1468  1.1601  1.2266
  168SAPE   H7Y18930   1.922   0.302   3.012 -2.9951  0.5388  0.0482
  168SAPE   C3818931   1.955   0.159   3.173  0.5592  0.1106  0.2963
  168SAPE   H8X18932   1.952   0.228   3.260 -1.3944 -0.1448  0.4594
  168SAPE   H8Y18933   2.058   0.143   3.134 -0.3214 -2.2958 -1.2167
  168SAPE   C3918934   1.897   0.026   3.213  0.4645 -0.3837 -0.1277
  168SAPE   H9X18935   1.936  -0.058   3.151  0.2420 -1.1408  0.7462
  168SAPE   H9Y18936   1.787   0.039   3.202  0.4313  0.2404  0.8704
  168SAPE  C31018937   1.921  -0.021   3.362  0.3165  0.1705 -0.0427
  168SAPE  H10X18938   2.031  -0.011   3.375  0.4650 -0.2848 -0.9017
  168SAPE  H10Y18939   1.880  -0.123   3.375  0.2070  0.3790  1.2944
  168SAPE  C31118940   1.850   0.064   3.467  0.1853  0.2068  0.0548
  168SAPE  H11X18941   1.745   0.087   3.439 -0.0299 -1.3287 -0.4609
  168SAPE  H11Y18942   1.897   0.163   3.486  1.3615 -0.4809  0.8453
  168SAPE  C31218943   1.843  -0.021   3.605 -0.0066  0.0298 -0.1176
  168SAPE  H12X18944   1.947  -0.027   3.643 -0.5187  0.2096  1.3349
  168SAPE  H12Y18945   1.802  -0.123   3.589 -0.0117  0.2203 -1.3866
  168SAPE  C31318946   1.785   0.052   3.725  0.5662  0.0187 -0.1649
  168SAPE  H13X18947   1.675   0.046   3.735 -0.0692  2.0687 -4.4814
  168SAPE  H13Y18948   1.790   0.163   3.713  1.0138  0.4578  3.5381
  168SAPE  C31418949   1.845   0.012   3.864 -0.3304  0.1136  0.2282
  168SAPE  H14X18950   1.955   0.023   3.853 -0.0687 -1.4089  1.2369
  168SAPE  H14Y18951   1.814  -0.094   3.879  0.8385 -0.1817  0.5531
  168SAPE  C31518952   1.802   0.109   3.980  0.3190  0.3641 -0.3000
  168SAPE  H15X18953   1.828   0.217   3.977  1.8410  0.1079  2.4087
  168SAPE  H15Y18954   1.854   0.052   4.060 -1.2072 -1.2716 -0.4361
  168SAPE  C31618955   1.648   0.097   4.006 -0.4489 -0.3002  0.3197
  168SAPE  H16X18956   1.605  -0.005   4.016 -2.6984  0.6046  0.0581
  168SAPE  H16Y18957   1.597   0.139   3.918  0.1253  0.4289  0.3278
  168SAPE  C31718958   1.606   0.179   4.130  0.1212  0.0386 -0.1652
  168SAPE  H17X18959   1.502   0.210   4.105  0.3079  1.4384  0.7858
  168SAPE  H17Y18960   1.672   0.266   4.145  0.4112 -0.3368  0.7917
  168SAPE  C31818961   1.609   0.102   4.269  0.5544  0.0766 -0.3667
  168SAPE  H18X18962   1.586   0.179   4.345  0.6832 -1.1247  0.8953
  168SAPE  H18Y18963   1.700   0.043   4.291  0.1441 -0.8888 -1.2147
  168SAPE  H18Z18964   1.520   0.036   4.263 -0.3884  0.6879  4.6859
  169SAPE     N18965   0.201   4.951   2.077  0.3783  0.2407  0.2641
  169SAPE   HN118966   0.259   4.868   2.054 -0.1405 -0.5775  1.8340
  169SAPE   HN218967   0.169   4.984   1.984 -0.5225  0.3417  0.6018
  169SAPE   HN318968   0.264   5.015   2.128 -0.1513  0.6622  0.3904
  169SAPE   C1218969   0.086   4.911   2.161  0.2354  0.4708 -1.3760
  169SAPE  H12A18970   0.034   5.002   2.196 -0.2553  0.2122 -1.4333
  169SAPE  H12B18971   0.118   4.846   2.245  1.3857  1.2563 -1.2004
  169SAPE   C1118972  -0.012   4.834   2.073  0.2835  0.2497  0.5563
  169SAPE  H11A18973  -0.053   4.893   1.988 -0.6455  0.7663  1.3509
  169SAPE  H11B18974  -0.099   4.825   2.142  0.8828 -0.5880  1.2076
  169SAPE     P18975  -0.000   4.565   2.096 -0.4269 -0.0091 -0.0281
  169SAPE   O1318976  -0.139   4.532   2.058  0.4259 -0.2201 -0.4305
  169SAPE   O1418977   0.101   4.463   2.060 -0.3970 -0.2369 -0.3325
  169SAPE   O1218978   0.038   4.707   2.031 -0.5672 -0.1687 -0.4777
  169SAPE   O1118979   0.009   4.605   2.249 -0.1552 -0.6222 -0.3336
  169SAPE    C118980  -0.101   4.574   2.335  0.1475  0.6518  0.0716
  169SAPE    HA18981  -0.202   4.571   2.291  1.0743 -0.6737 -2.0185
  169SAPE    HB18982  -0.075   4.478   2.384  0.4163  1.5474  1.7500
  169SAPE    C218983  -0.127   4.674   2.451  0.3932  0.1311  0.4256
  169SAPE    HS18984  -0.115   4.772   2.399  0.5796  0.5508  1.2428
  169SAPE   O2118985  -0.018   4.655   2.550  0.6626  0.3287  0.3069
  169SAPE   C2118986  -0.015   4.756   2.637 -0.7760 -0.1453  0.0964
  169SAPE   O2218987  -0.082   4.857   2.624 -0.6471  0.2074  0.2276
  169SAPE   C2218988   0.080   4.723   2.754  0.1540  0.6992  0.0562
  169SAPE   H2R18989   0.023   4.639   2.801 -1.5934  0.1081 -2.9701
  169SAPE   H2S18990   0.173   4.693   2.702  2.1344  0.7809  3.3879
  169SAPE    C318991  -0.268   4.670   2.519  0.4117  0.6728 -0.2210
  169SAPE    HX18992  -0.343   4.699   2.443  1.3365 -0.6817 -1.6711
  169SAPE    HY18993  -0.278   4.743   2.603  1.0022  0.8177 -0.2747
  169SAPE   O3118994  -0.302   4.534   2.547 -0.5958  0.2387 -0.0512
  169SAPE   C3118995  -0.277   4.511   2.675  0.3619 -0.5428 -0.6523
  169SAPE   O3218996  -0.259   4.595   2.764 -0.2675 -0.2801  0.0274
  169SAPE   C3218997  -0.265   4.361   2.697  0.1550  1.1186 -0.5493
  169SAPE   H2X18998  -0.218   4.314   2.608 -1.2077 -2.1258  0.3591
  169SAPE   H2Y18999  -0.371   4.327   2.693 -0.1923  2.1769 -0.4238
  169SAPE   C2319000   0.119   4.829   2.858  0.5773 -0.1265  0.2786
  169SAPE   H3R19001   0.165   4.908   2.796  0.5028 -0.0751  0.2893
  169SAPE   H3S19002   0.199   4.781   2.919 -0.0921 -0.8333  0.6118
  169SAPE   C2419003   0.004   4.883   2.956 -0.6639 -0.2404  0.0487
  169SAPE   H4R19004  -0.076   4.917   2.887  0.5848  0.8375 -0.8888
  169SAPE   H4S19005   0.052   4.963   3.014  0.4989 -2.2919  1.9808
  169SAPE   C2519006  -0.052   4.771   3.043  0.6793 -0.1890 -0.6624
  169SAPE   H5R19007  -0.138   4.722   2.995  0.8643 -1.2441  0.0687
  169SAPE   C2619008  -0.000   4.726   3.164 -1.0423  0.6321  0.5367
  169SAPE   H6R19009  -0.040   4.637   3.215 -1.8102 -0.5414 -2.0324
  169SAPE   C2719010   0.123   4.786   3.218 -0.3938  0.1149  0.3717
  169SAPE   H7R19011   0.085   4.861   3.291  1.1742  1.8830 -0.6057
  169SAPE   H7S19012   0.180   4.844   3.142 -1.5564  1.8400  0.7705
  169SAPE   C2819013   0.204   4.685   3.305 -0.2789  0.2299  0.7804
  169SAPE   H8R19014   0.290   4.644   3.250  0.8121  1.2665  1.7027
  169SAPE   C2919015   0.175   4.636   3.425 -0.3610  0.0068 -0.5562
  169SAPE   H9R19016   0.244   4.560   3.465 -1.3242 -1.5708 -1.8297
  169SAPE  C21019017   0.053   4.665   3.506  0.7380  0.5277  0.1415
  169SAPE  H10R19018  -0.030   4.597   3.478  0.6687  0.9762 -0.7541
  169SAPE  H10S19019   0.007   4.764   3.481  1.8416  0.8385 -0.6765
  169SAPE  C21119020   0.086   4.668   3.648 -0.7803  0.0648 -0.1495
  169SAPE  H11R19021   0.183   4.634   3.687 -1.5087 -0.8727  0.8298
  169SAPE  C21219022  -0.003   4.714   3.746  0.2074 -0.4529 -0.0528
  169SAPE  H12R19023   0.035   4.717   3.850  0.4478  1.9088 -0.2018
  169SAPE  C21319024  -0.141   4.766   3.726 -0.2153 -0.3135  0.4668
  169SAPE  H13R19025  -0.157   4.763   3.616  0.4815 -2.1464  0.3837
  169SAPE  H13S19026  -0.138   4.874   3.750 -1.5066  0.2637 -1.7478
  169SAPE  C21419027  -0.245   4.674   3.791  0.0834  0.3830 -0.5109
  169SAPE  H14R19028  -0.207   4.571   3.788  2.9319  1.2699  2.0576
  169SAPE  C21519029  -0.349   4.706   3.867  0.6844 -0.3308 -0.5208
  169SAPE  H15R19030  -0.402   4.627   3.922  0.2389 -0.9184 -1.7767
  169SAPE  C21619031  -0.387   4.853   3.890 -0.1535 -0.3061 -0.7950
  169SAPE  H16R19032  -0.321   4.926   3.841 -0.2212  1.2230  1.3073
  169SAPE  H16S19033  -0.369   4.875   3.998 -2.2977  0.9472 -0.6477
  169SAPE  C21719034  -0.531   4.882   3.858 -0.1889 -0.0691  0.8746
  169SAPE  H17R19035  -0.604   4.814   3.908 -1.6078 -0.7209 -2.0132
  169SAPE  H17S19036  -0.557   4.867   3.751  0.1749  0.5183  0.7029
  169SAPE  C21819037  -0.544   5.028   3.896  0.7562 -0.3021 -0.4314
  169SAPE  H18R19038  -0.463   5.093   3.856 -0.3254  2.1094  1.1546
  169SAPE  H18S19039  -0.528   5.032   4.006 -1.7024 -0.1792 -0.0557
  169SAPE  C21919040  -0.685   5.094   3.882  0.5231 -0.0406  0.1073
  169SAPE  H19R19041  -0.687   5.182   3.950  4.0620  1.4416 -1.5712
  169SAPE  H19S19042  -0.757   5.019   3.920  0.5098  1.0510  2.3307
  169SAPE  C22019043  -0.718   5.140   3.743 -0.3675  0.1982 -0.6792
  169SAPE  H20R19044  -0.654   5.221   3.702 -2.1544  2.3425  0.6683
  169SAPE  H20S19045  -0.819   5.184   3.750 -1.2677 -1.8697 -0.2933
  169SAPE  H20T19046  -0.726   5.056   3.671  1.0550 -2.2455  1.9073
  169SAPE   C3319047  -0.192   4.318   2.821  0.1255 -0.1359 -0.2370
  169SAPE   H3X19048  -0.224   4.213   2.836 -2.2488  0.8172  1.6352
  169SAPE   H3Y19049  -0.216   4.383   2.908  1.0111  0.2034 -0.2351
  169SAPE   C3419050  -0.037   4.309   2.801 -0.1077 -0.5144 -0.1901
  169SAPE   H4X19051   0.009   4.402   2.764  0.9234 -1.2218 -0.7111
  169SAPE   H4Y19052  -0.024   4.229   2.725 -1.9184 -1.7774  0.7784
  169SAPE   C3519053   0.027   4.266   2.937 -0.3518  0.7505 -0.4370
  169SAPE   H5X19054   0.128   4.219   2.934 -0.4908  0.2805  1.2456
  169SAPE   H5Y19055  -0.038   4.181   2.970  0.3643  0.9296  1.5405
  169SAPE   C3619056   0.023   4.377   3.043 -0.6647 -0.5350 -0.4553
  169SAPE   H6X19057  -0.083   4.405   3.060 -0.6629 -1.8467  1.9090
  169SAPE   H6Y19058   0.079   4.468   3.011 -2.5431  1.0910  0.7463
  169SAPE   C3719059   0.068   4.330   3.181  0.4164 -0.3575  0.0851
  169SAPE   H7X19060   0.010   4.239   3.209  1.1815 -1.5632 -2.1688
  169SAPE   H7Y19061   0.031   4.403   3.256  1.2284  0.5546 -0.3895
  169SAPE   C3819062   0.213   4.291   3.202 -0.4506  0.0597  0.0234
  169SAPE   H8X19063   0.275   4.377   3.170  0.4368 -0.0688  1.3732
  169SAPE   H8Y19064   0.231   4.204   3.135 -1.5967 -0.3398  0.2105
  169SAPE   C3919065   0.251   4.248   3.343  0.4775  0.1337  1.2248
  169SAPE   H9X19066   0.209   4.322   3.415  0.7575  2.1239 -0.5981
  169SAPE   H9Y19067   0.362   4.247   3.352  0.7545  0.0954 -1.6978
  169SAPE  C31019068   0.204   4.105   3.369 -1.0530  0.1210 -0.3135
  169SAPE  H10X19069   0.256   4.040   3.296 -2.4577 -1.9142  0.4664
  169SAPE  H10Y19070   0.094   4.100   3.359 -1.3218  2.9147  0.7267
  169SAPE  C31119071   0.259   4.050   3.499  0.3293 -0.6955 -0.3617
  169SAPE  H11X19072   0.227   4.123   3.577  2.9242  0.4853 -0.3592
  169SAPE  H11Y19073   0.369   4.060   3.497  0.3097 -0.0164  0.9875
  169SAPE  C31219074   0.214   3.907   3.529  0.4735  0.8978  0.6110
  169SAPE  H12X19075   0.228   3.850   3.435 -1.1551  3.5237 -1.3116
  169SAPE  H12Y19076   0.110   3.902   3.567 -0.1030 -0.1426 -1.0855
  169SAPE  C31319077   0.296   3.845   3.648 -0.0697 -0.1041  0.0999
  169SAPE  H13X19078   0.283   3.909   3.738  1.3357  1.5325 -0.8279
  169SAPE  H13Y19079   0.405   3.838   3.626  0.0415 -0.8285  0.8829
  169SAPE  C31419080   0.251   3.708   3.690 -0.0422  0.8496 -0.0899
  169SAPE  H14X19081   0.142   3.706   3.711 -0.1787  2.0907 -0.5930
  169SAPE  H14Y19082   0.301   3.687   3.787  0.6926  4.2015  0.3288
  169SAPE  C31519083   0.286   3.597   3.589 -0.5146 -0.2111  0.0942
  169SAPE  H15X19084   0.394   3.571   3.586 -0.9189 -1.9672  0.1035
  169SAPE  H15Y19085   0.259   3.646   3.493  1.1671  3.0134  1.2072
  169SAPE  C31619086   0.188   3.475   3.596  0.4431  0.4027 -0.3243
  169SAPE  H16X19087   0.084   3.515   3.598  0.9879  1.7521  1.4784
  169SAPE  H16Y19088   0.204   3.434   3.698  1.9262  0.2615 -0.6060
  169SAPE  C31719089   0.203   3.372   3.490  0.8242 -0.1822 -0.1318
  169SAPE  H17X19090   0.154   3.278   3.524 -0.6102  0.4263 -0.5155
  169SAPE  H17Y19091   0.309   3.352   3.464  1.3455 -0.4941  2.0768
  169SAPE  C31819092   0.136   3.402   3.349 -0.3679 -1.0348 -0.3600
  169SAPE  H18X19093   0.120   3.305   3.298 -2.9280 -1.3337  0.9699
  169SAPE  H18Y19094   0.191   3.472   3.282 -0.8943 -0.8744 -0.6299
  169SAPE  H18Z19095   0.037   3.447   3.369  0.5425 -0.2406  2.6441
  170SAPE     N19096   5.322   0.327   1.652  0.0273  0.1600 -1.0416
  170SAPE   HN119097   5.388   0.373   1.719 -0.3608  1.6081 -1.6527
  170SAPE   HN219098   5.380   0.293   1.573 -1.2415  0.6528 -2.1889
  170SAPE   HN319099   5.257   0.395   1.608 -1.3323 -0.6949 -0.3805
  170SAPE   C1219100   5.249   0.210   1.712  0.2520  0.7897  0.1524
  170SAPE  H12A19101   5.164   0.184   1.644  0.3680 -0.7650  0.5922
  170SAPE  H12B19102   5.222   0.249   1.812 -1.2197  1.6238 -0.5476
  170SAPE   C1119103   5.348   0.087   1.733  0.1717  0.1722  0.1915
  170SAPE  H11A19104   5.358   0.042   1.632 -0.2296  0.1825  0.1445
  170SAPE  H11B19105   5.302   0.018   1.807 -0.6118  1.5149  0.9718
  170SAPE     P19106   5.611   0.058   1.752  0.0950 -0.0247  0.0987
  170SAPE   O1319107   5.604  -0.051   1.649  0.2293 -0.0179 -0.1570
  170SAPE   O1419108   5.700   0.169   1.728  0.0888  0.4775  0.1903
  170SAPE   O1219109   5.472   0.127   1.780  0.6252 -0.4302  0.2818
  170SAPE   O1119110   5.638   0.000   1.894  0.1829 -0.2192 -0.1109
  170SAPE    C119111   5.722   0.046   1.997 -0.1355 -0.1494  0.7593
  170SAPE    HA19112   5.716   0.157   1.996 -1.3147 -0.2180 -0.1323
  170SAPE    HB19113   5.694   0.011   2.099 -0.2656 -2.2423  0.0091
  170SAPE    C219114   5.868  -0.004   1.975  0.2870 -0.3355  0.3024
  170SAPE    HS19115   5.889   0.016   1.868 -1.9245  1.4727  0.1577
  170SAPE   O2119116   5.878  -0.140   2.021 -0.1348  0.7201 -0.4213
  170SAPE   C2119117   5.990  -0.191   1.967 -0.2562  0.1800 -0.5136
  170SAPE   O2219118   6.060  -0.139   1.878  0.4859 -0.0588  0.3014
  170SAPE   C2219119   6.007  -0.335   2.029  0.3879 -0.4227 -0.2335
  170SAPE   H2R19120   6.006  -0.314   2.138  0.5092 -0.8343 -0.1523
  170SAPE   H2S19121   5.913  -0.392   2.016  1.0774 -0.9669 -3.2360
  170SAPE    C319122   5.961   0.093   2.055  0.0269  0.1747 -0.1673
  170SAPE    HX19123   5.960   0.192   2.004  1.2699  0.6961  0.7765
  170SAPE    HY19124   6.063   0.049   2.044 -0.5330 -0.7382 -1.7551
  170SAPE   O3119125   5.925   0.109   2.191  0.5800 -0.1923 -0.6486
  170SAPE   C3119126   5.992   0.193   2.261 -0.1890 -0.4894 -0.2108
  170SAPE   O3219127   6.043   0.300   2.223  0.5459  0.1789 -0.3914
  170SAPE   C3219128   5.992   0.139   2.401 -0.3750 -0.0989  0.1813
  170SAPE   H2X19129   6.066   0.204   2.453  0.7063 -0.5606 -0.7556
  170SAPE   H2Y19130   6.038   0.038   2.400 -0.2747 -0.0600 -1.9934
  170SAPE   C2319131   6.142  -0.412   1.991 -0.2953 -0.9284  0.2306
  170SAPE   H3R19132   6.173  -0.390   1.887 -0.8727 -0.8683  0.0695
  170SAPE   H3S19133   6.109  -0.518   1.988  0.6950 -1.2858  1.3372
  170SAPE   C2419134   6.246  -0.375   2.091  0.0137 -0.0186 -0.7177
  170SAPE   H4R19135   6.338  -0.435   2.073 -1.1293 -2.2675  0.5771
  170SAPE   H4S19136   6.203  -0.418   2.184  0.2620 -0.2424 -0.7068
  170SAPE   C2519137   6.293  -0.232   2.113  1.4890  0.7013  0.3748
  170SAPE   H5R19138   6.328  -0.174   2.027  0.1868  1.0848  0.0913
  170SAPE   C2619139   6.289  -0.169   2.232  0.2905  0.4916 -1.0078
  170SAPE   H6R19140   6.296  -0.059   2.242 -0.9882  0.3593  1.7374
  170SAPE   C2719141   6.253  -0.233   2.367  0.1068 -0.6692  0.6198
  170SAPE   H7R19142   6.323  -0.189   2.441  0.9733  0.9204 -1.1038
  170SAPE   H7S19143   6.289  -0.339   2.363  2.7391  0.2521 -2.3691
  170SAPE   C2819144   6.111  -0.245   2.414 -0.0405  0.1524  0.0684
  170SAPE   H8R19145   6.034  -0.248   2.335  1.3620  2.6506 -1.4780
  170SAPE   C2919146   6.077  -0.245   2.545  0.0496  0.3295 -0.5245
  170SAPE   H9R19147   5.972  -0.255   2.574 -0.1106  3.0794 -0.0076
  170SAPE  C21019148   6.164  -0.226   2.668 -0.2023  0.4415 -0.3255
  170SAPE  H10R19149   6.250  -0.161   2.639 -0.7275  0.9049 -0.8744
  170SAPE  H10S19150   6.208  -0.325   2.691  0.4229  0.3107 -1.9599
  170SAPE  C21119151   6.097  -0.169   2.795 -0.4130  0.2022  0.0815
  170SAPE  H11R19152   6.062  -0.064   2.790 -1.3847 -0.2142 -2.6294
  170SAPE  C21219153   6.065  -0.242   2.906  0.3620 -0.9195  0.1090
  170SAPE  H12R19154   6.027  -0.183   2.991  1.8067 -0.3327  0.3552
  170SAPE  C21319155   6.096  -0.381   2.949  0.2824  0.3343 -0.0420
  170SAPE  H13R19156   6.132  -0.444   2.865  0.5320  1.9767 -1.1987
  170SAPE  H13S19157   5.995  -0.421   2.970  0.1641  0.4438 -0.3842
  170SAPE  C21419158   6.207  -0.393   3.052 -0.0575 -0.0185 -0.1730
  170SAPE  H14R19159   6.307  -0.384   3.008 -0.8141  3.2116 -1.4146
  170SAPE  C21519160   6.186  -0.412   3.184 -0.5976  0.3711  0.4492
  170SAPE  H15R19161   6.277  -0.410   3.245  0.5817 -0.3919 -1.2594
  170SAPE  C21619162   6.054  -0.424   3.258  0.2564  0.2774  0.2757
  170SAPE  H16R19163   6.040  -0.533   3.277 -0.7495  0.3990  0.2354
  170SAPE  H16S19164   5.960  -0.396   3.207 -0.5685  0.9263  2.1036
  170SAPE  C21719165   6.043  -0.349   3.395  0.4470  0.1934 -0.0630
  170SAPE  H17R19166   6.021  -0.242   3.377 -0.7692  0.1740  1.2744
  170SAPE  H17S19167   6.144  -0.358   3.442 -0.1974 -0.4850  1.2143
  170SAPE  C21819168   5.938  -0.404   3.488 -0.0499  0.4603 -0.3589
  170SAPE  H18R19169   5.954  -0.514   3.492 -1.9676  0.1897  0.2499
  170SAPE  H18S19170   5.834  -0.395   3.450  0.5884 -1.0350 -2.5595
  170SAPE  C21919171   5.947  -0.348   3.632  0.0053 -0.1168  0.1400
  170SAPE  H19R19172   5.923  -0.239   3.629  0.8623  0.1072  1.1885
  170SAPE  H19S19173   6.052  -0.360   3.666  0.3225  0.7170 -0.5161
  170SAPE  C22019174   5.853  -0.420   3.729 -1.1912 -0.1241 -0.0240
  170SAPE  H20R19175   5.840  -0.370   3.827 -1.9483  0.3702 -0.3728
  170SAPE  H20S19176   5.890  -0.525   3.736  0.3866  0.2628 -2.0334
  170SAPE  H20T19177   5.752  -0.412   3.684  0.4203  0.6586 -3.6862
  170SAPE   C3319178   5.856   0.152   2.469 -0.1062  0.0928  0.3249
  170SAPE   H3X19179   5.777   0.082   2.433  0.3628  1.1933 -2.9953
  170SAPE   H3Y19180   5.820   0.253   2.442 -0.2291 -0.8931 -3.5232
  170SAPE   C3419181   5.863   0.136   2.625  0.6146  0.2966  0.3573
  170SAPE   H4X19182   5.936   0.216   2.651 -0.0315  0.9214  0.2932
  170SAPE   H4Y19183   5.913   0.038   2.638  2.1981  0.8522 -1.4298
  170SAPE   C3519184   5.734   0.166   2.703  0.3550 -0.3162  0.2298
  170SAPE   H5X19185   5.660   0.087   2.679 -2.3325  1.7615  1.3037
  170SAPE   H5Y19186   5.691   0.267   2.683 -0.8467 -1.1513 -1.4945
  170SAPE   C3619187   5.765   0.177   2.856  0.1727 -0.3149  0.5635
  170SAPE   H6X19188   5.820   0.272   2.869 -0.6904  0.6487 -2.5459
  170SAPE   H6Y19189   5.819   0.086   2.891  1.9758  1.4856  2.6526
  170SAPE   C3719190   5.642   0.182   2.947 -0.3827  0.0138  0.3098
  170SAPE   H7X19191   5.585   0.087   2.935  0.0071 -0.2684  0.6879
  170SAPE   H7Y19192   5.586   0.273   2.914  1.4962  1.0598 -0.0684
  170SAPE   C3819193   5.691   0.195   3.094 -0.9384 -0.6983 -0.3465
  170SAPE   H8X19194   5.756   0.285   3.087 -2.0843  0.2416  0.8267
  170SAPE   H8Y19195   5.753   0.106   3.117  1.6980  0.6888 -1.8165
  170SAPE   C3919196   5.586   0.220   3.205 -0.2056 -0.1998  0.0029
  170SAPE   H9X19197   5.500   0.149   3.205 -0.6422  0.3184 -0.9924
  170SAPE   H9Y19198   5.539   0.314   3.170  3.1932  0.6915 -2.3685
  170SAPE  C31019199   5.657   0.246   3.338  0.3153  0.6259 -0.3318
  170SAPE  H10X19200   5.736   0.322   3.323 -0.4635  0.8023 -3.8206
  170SAPE  H10Y19201   5.706   0.149   3.363 -0.1782  0.4004 -0.2463
  170SAPE  C31119202   5.573   0.268   3.467 -0.1725  0.4572  0.2057
  170SAPE  H11X19203   5.499   0.185   3.468  2.3765 -1.9147 -0.3263
  170SAPE  H11Y19204   5.509   0.359   3.458 -0.5574  0.1559 -0.1311
  170SAPE  C31219205   5.649   0.280   3.599 -0.0923 -0.9206 -0.0010
  170SAPE  H12X19206   5.690   0.383   3.604 -3.7404  0.7199 -1.8095
  170SAPE  H12Y19207   5.731   0.206   3.607 -0.0901 -1.0242 -0.8846
  170SAPE  C31319208   5.560   0.280   3.725 -0.6264 -0.0380  0.2983
  170SAPE  H13X19209   5.632   0.287   3.810 -0.8928 -2.5036  0.7840
  170SAPE  H13Y19210   5.511   0.181   3.740 -1.5154  0.7844  3.2610
  170SAPE  C31419211   5.450   0.387   3.732 -1.2273 -0.2808  0.0214
  170SAPE  H14X19212   5.397   0.367   3.828 -2.2156  3.8994  0.4453
  170SAPE  H14Y19213   5.385   0.377   3.643 -0.2432  0.6040 -0.8042
  170SAPE  C31519214   5.504   0.530   3.746 -0.4517 -0.0132  0.1530
  170SAPE  H15X19215   5.583   0.552   3.671 -0.1049 -0.8978  0.2551
  170SAPE  H15Y19216   5.547   0.526   3.849  1.0239  4.5431 -0.1749
  170SAPE  C31619217   5.385   0.631   3.728  0.9913  0.3228 -1.1650
  170SAPE  H16X19218   5.302   0.593   3.791  1.8068  0.1941 -0.1392
  170SAPE  H16Y19219   5.350   0.633   3.623 -1.0586  0.4263 -0.4954
  170SAPE  C31719220   5.429   0.768   3.772 -0.3756 -0.1232 -0.7002
  170SAPE  H17X19221   5.480   0.821   3.688  0.8723  0.9734  0.7211
  170SAPE  H17Y19222   5.501   0.750   3.855  0.3816 -0.1912 -1.3564
  170SAPE  C31819223   5.319   0.851   3.836  0.2912  0.1344  0.3205
  170SAPE  H18X19224   5.248   0.880   3.755 -0.0687 -1.1665  0.1555
  170SAPE  H18Y19225   5.372   0.936   3.885  0.7438 -1.0606  1.9437
  170SAPE  H18Z19226   5.256   0.799   3.911  0.4557  0.2133  0.5118
  171SAPE     N19227   0.797   5.041   1.850 -0.2524  0.0320 -0.0058
  171SAPE   HN119228   0.881   4.980   1.846 -0.9850 -0.9962 -0.0058
  171SAPE   HN219229   0.726   4.973   1.886  2.2253 -1.2089  2.7623
  171SAPE   HN319230   0.773   5.076   1.755  0.0494 -2.4220 -1.0427
  171SAPE   C1219231   0.819   5.151   1.952 -0.2305  0.6131 -0.6403
  171SAPE  H12A19232   0.915   5.201   1.926  1.1997 -2.1556 -0.8897
  171SAPE  H12B19233   0.834   5.093   2.046  1.1462 -0.4650 -1.4941
  171SAPE   C1119234   0.699   5.247   1.964 -0.0059  0.1864 -0.2236
  171SAPE  H11A19235   0.678   5.288   1.863  1.9803  0.5436 -0.5186
  171SAPE  H11B19236   0.727   5.337   2.022 -0.5375 -0.9300  1.7956
  171SAPE     P19237   0.459   5.246   2.060  0.2867  0.5894 -0.2257
  171SAPE   O1319238   0.401   5.284   1.932 -0.1561  0.1733 -0.0802
  171SAPE   O1419239   0.382   5.148   2.138 -0.1531 -0.0116  0.5671
  171SAPE   O1219240   0.594   5.181   2.030  0.2612  0.1169 -0.2758
  171SAPE   O1119241   0.487   5.368   2.153 -0.2896  0.1873 -0.1015
  171SAPE    C119242   0.513   5.360   2.299 -0.3527 -0.1142  0.1441
  171SAPE    HA19243   0.413   5.350   2.348 -2.2133  4.1651 -2.5076
  171SAPE    HB19244   0.575   5.272   2.327 -0.6186 -0.0249  1.0319
  171SAPE    C219245   0.589   5.482   2.355  0.2305 -0.4099  0.5221
  171SAPE    HS19246   0.672   5.505   2.285 -0.5783  0.0929 -0.2808
  171SAPE   O2119247   0.642   5.442   2.485 -0.1968 -0.1978  0.0694
  171SAPE   C2119248   0.740   5.521   2.528 -0.2402 -0.1241 -0.4532
  171SAPE   O2219249   0.788   5.612   2.463 -0.8196 -0.4734  0.4382
  171SAPE   C2219250   0.787   5.470   2.667 -0.2304 -0.4814  0.3173
  171SAPE   H2R19251   0.703   5.506   2.731  0.6198  2.1057  0.0654
  171SAPE   H2S19252   0.784   5.359   2.665 -0.3073 -0.4718  0.0242
  171SAPE    C319253   0.503   5.610   2.364 -0.0214 -0.0643  0.4867
  171SAPE    HX19254   0.475   5.652   2.264 -0.8034  2.7809  1.8308
  171SAPE    HY19255   0.564   5.691   2.410 -0.5137  2.2231 -2.6423
  171SAPE   O3119256   0.386   5.577   2.431  0.5402  0.0131  0.6657
  171SAPE   C3119257   0.395   5.586   2.568  0.2637 -0.5304 -0.4052
  171SAPE   O3219258   0.486   5.640   2.629  0.0733 -0.2725 -0.0349
  171SAPE   C3219259   0.280   5.522   2.637  0.0003 -1.0260  0.0177
  171SAPE   H2X19260   0.210   5.474   2.566 -1.7274  0.3968  0.6965
  171SAPE   H2Y19261   0.229   5.609   2.684  0.2494 -1.2981  0.8051
  171SAPE   C2319262   0.917   5.534   2.717 -0.5564 -0.5100 -0.5538
  171SAPE   H3R19263   0.911   5.645   2.713  0.4931 -0.3820  1.0177
  171SAPE   H3S19264   1.004   5.526   2.649 -1.2281 -2.4620 -1.2268
  171SAPE   C2419265   0.946   5.514   2.868  0.2493  0.0214  0.3814
  171SAPE   H4R19266   0.859   5.548   2.927  1.4677 -0.8132  2.7226
  171SAPE   H4S19267   1.018   5.591   2.903 -0.4069  0.8431 -0.0743
  171SAPE   C2519268   0.994   5.368   2.901  0.0022  0.8443 -0.0910
  171SAPE   H5R19269   1.029   5.311   2.814 -0.8292  0.8223 -0.4089
  171SAPE   C2619270   1.000   5.325   3.031  0.5361 -0.0497  0.3633
  171SAPE   H6R19271   1.058   5.234   3.054 -0.8910 -0.3952  2.8898
  171SAPE   C2719272   0.957   5.405   3.150 -0.2257 -0.4888  0.0914
  171SAPE   H7R19273   0.988   5.509   3.127  0.3359 -1.1163 -2.1034
  171SAPE   H7S19274   1.015   5.367   3.237  1.2862 -0.0032 -0.6873
  171SAPE   C2819275   0.804   5.412   3.181  0.1311 -0.2337  0.0466
  171SAPE   H8R19276   0.760   5.312   3.170  1.8160 -0.9383 -0.3519
  171SAPE   C2919277   0.735   5.516   3.234  0.5537  0.0144 -0.2336
  171SAPE   H9R19278   0.627   5.514   3.252  0.6521  1.3646  0.5981
  171SAPE  C21019279   0.793   5.650   3.272  1.1196  0.6447  0.5835
  171SAPE  H10R19280   0.719   5.730   3.252  0.4978  0.3998  1.8579
  171SAPE  H10S19281   0.869   5.690   3.202  0.1604  0.5175 -0.5403
  171SAPE  C21119282   0.855   5.647   3.415  0.4344  0.3407 -0.0407
  171SAPE  H11R19283   0.926   5.564   3.427  0.0597  0.1641  0.9620
  171SAPE  C21219284   0.828   5.725   3.520  0.4250 -0.1893 -0.3847
  171SAPE  H12R19285   0.880   5.710   3.616 -0.0703 -2.7920 -0.5025
  171SAPE  C21319286   0.722   5.836   3.514  0.4517  0.3666 -0.0520
  171SAPE  H13R19287   0.621   5.794   3.499 -0.0602  2.0638 -1.4482
  171SAPE  H13S19288   0.738   5.899   3.424  0.3686 -2.5739 -2.1692
  171SAPE  C21419289   0.736   5.920   3.645 -0.2103  0.8904  0.1771
  171SAPE  H14R19290   0.813   5.998   3.642  0.0006  0.7184  0.9111
  171SAPE  C21519291   0.664   5.912   3.764  0.6036 -0.5460  0.5415
  171SAPE  H15R19292   0.683   5.978   3.850 -2.2033  2.2100 -0.8208
  171SAPE  C21619293   0.546   5.814   3.790 -0.4126 -0.4872 -0.2432
  171SAPE  H16R19294   0.522   5.747   3.704 -0.9425 -0.9137  0.2313
  171SAPE  H16S19295   0.453   5.872   3.811 -2.4323 -3.9318  0.8047
  171SAPE  C21719296   0.579   5.714   3.904 -0.4499  0.7977 -0.7469
  171SAPE  H17R19297   0.684   5.678   3.890 -0.7141 -0.8381  1.1787
  171SAPE  H17S19298   0.523   5.619   3.890  1.9301 -0.7300 -0.4075
  171SAPE  C21819299   0.552   5.768   4.043 -0.6031  0.7042 -0.3039
  171SAPE  H18R19300   0.444   5.788   4.061 -0.2917  0.2132  2.3153
  171SAPE  H18S19301   0.604   5.864   4.061  3.7649 -2.1722  3.8893
  171SAPE  C21919302   0.572   5.661   4.152 -0.4103 -0.4280 -0.1063
  171SAPE  H19R19303   0.679   5.631   4.139 -0.5063 -0.6960 -0.2862
  171SAPE  H19S19304   0.501   5.580   4.126  0.3328 -0.7088 -1.3573
  171SAPE  C22019305   0.538   5.708   4.298 -0.3033  0.2798  1.0884
  171SAPE  H20R19306   0.431   5.734   4.306 -0.5686 -1.3074  3.1310
  171SAPE  H20S19307   0.595   5.803   4.308  0.9182 -0.1542 -1.2476
  171SAPE  H20T19308   0.586   5.633   4.364  0.5225  1.2760  1.6267
  171SAPE   C3319309   0.318   5.417   2.737  0.5654  0.4174 -0.4378
  171SAPE   H3X19310   0.427   5.393   2.733  1.0485  2.4519  0.1116
  171SAPE   H3Y19311   0.258   5.327   2.713 -0.7042  0.1114  3.6540
  171SAPE   C3419312   0.278   5.461   2.879 -0.1307 -0.6486 -0.1114
  171SAPE   H4X19313   0.177   5.503   2.862  0.5667  2.5040  3.0231
  171SAPE   H4Y19314   0.323   5.553   2.921  0.7589 -0.9194 -0.4565
  171SAPE   C3519315   0.287   5.355   2.990 -0.0431 -0.0868 -0.6960
  171SAPE   H5X19316   0.261   5.254   2.952  1.7105 -0.8329  0.0093
  171SAPE   H5Y19317   0.220   5.388   3.072 -0.6154  0.1253 -1.2454
  171SAPE   C3619318   0.422   5.327   3.053 -0.1219  0.4049  0.1391
  171SAPE   H6X19319   0.470   5.424   3.077 -1.9580  0.8146  2.4096
  171SAPE   H6Y19320   0.490   5.284   2.977  0.7010  1.3658  0.3329
  171SAPE   C3719321   0.419   5.242   3.176 -0.0794  0.7302  0.2399
  171SAPE   H7X19322   0.331   5.272   3.236  0.9808  1.7999  1.3017
  171SAPE   H7Y19323   0.508   5.261   3.240  0.8523  0.2629 -0.8808
  171SAPE   C3819324   0.404   5.091   3.150 -0.1767 -0.1895 -0.1011
  171SAPE   H8X19325   0.485   5.065   3.078 -0.1360  0.3517 -0.2506
  171SAPE   H8Y19326   0.305   5.067   3.106  0.2232 -0.7246 -0.7235
  171SAPE   C3919327   0.417   5.017   3.286  0.2484 -0.1916 -0.3067
  171SAPE   H9X19328   0.340   4.938   3.292  0.9853 -0.9349 -0.4933
  171SAPE   H9Y19329   0.394   5.081   3.374 -1.7168 -3.5717  1.7166
  171SAPE  C31019330   0.550   4.948   3.305 -0.4369 -0.6943  0.5840
  171SAPE  H10X19331   0.634   5.020   3.293  0.1668 -1.4201  0.4655
  171SAPE  H10Y19332   0.560   4.874   3.222  2.0101  0.5652 -0.2957
  171SAPE  C31119333   0.568   4.864   3.438  0.3856  0.4338  0.6070
  171SAPE  H11X19334   0.633   4.776   3.417 -1.8220 -0.9158 -0.8215
  171SAPE  H11Y19335   0.475   4.816   3.473 -0.0630  0.0341 -1.0952
  171SAPE  C31219336   0.627   4.950   3.548 -0.2142 -0.1079 -0.5865
  171SAPE  H12X19337   0.560   5.039   3.547 -0.7079 -0.4715 -0.1598
  171SAPE  H12Y19338   0.731   4.984   3.528  0.2031 -1.2348 -0.3566
  171SAPE  C31319339   0.643   4.868   3.680  0.4962  0.2620 -0.8042
  171SAPE  H13X19340   0.678   4.768   3.647 -1.0077 -0.1252 -1.2801
  171SAPE  H13Y19341   0.541   4.860   3.724  0.6425  2.1625 -0.0556
  171SAPE  C31419342   0.748   4.917   3.780  0.7217 -0.5677  0.2601
  171SAPE  H14X19343   0.729   5.023   3.808 -0.8284  0.0749 -2.9204
  171SAPE  H14Y19344   0.844   4.917   3.725 -0.6523 -0.3368 -2.2450
  171SAPE  C31519345   0.752   4.844   3.911 -0.6265  0.0832  0.5108
  171SAPE  H15X19346   0.666   4.879   3.973 -1.0293 -0.7872  0.4533
  171SAPE  H15Y19347   0.838   4.879   3.973 -1.1353 -1.7621  2.3046
  171SAPE  C31619348   0.748   4.690   3.901  1.2391 -1.0783 -0.8181
  171SAPE  H16X19349   0.794   4.655   3.806 -1.4008 -2.9760 -1.4491
  171SAPE  H16Y19350   0.639   4.672   3.904  0.8690  1.2808  0.7964
  171SAPE  C31719351   0.796   4.612   4.022  0.0720 -0.7737 -0.1919
  171SAPE  H17X19352   0.784   4.502   4.017 -1.2256 -0.6740  0.2905
  171SAPE  H17Y19353   0.734   4.651   4.107  2.5819  1.9081  0.4863
  171SAPE  C31819354   0.938   4.628   4.069 -0.5026 -0.1203  0.2624
  171SAPE  H18X19355   0.946   4.562   4.158 -0.9279 -0.3090  0.1597
  171SAPE  H18Y19356   0.953   4.734   4.100 -1.2749  0.2684 -0.6705
  171SAPE  H18Z19357   1.010   4.602   3.988 -0.3082 -0.1987  0.4587
  172SAPE     N19358   6.827   5.793   2.106 -0.1865  0.7256 -0.0428
  172SAPE   HN119359   6.768   5.773   2.023  1.3151  1.6797 -1.3865
  172SAPE   HN219360   6.901   5.859   2.075  0.7398 -0.2193  0.1361
  172SAPE   HN319361   6.871   5.704   2.135  3.2937  1.8461 -1.6438
  172SAPE   C1219362   6.751   5.869   2.214  0.1026  0.1668  0.5265
  172SAPE  H12A19363   6.801   5.842   2.310 -2.1470  0.8918  1.9444
  172SAPE  H12B19364   6.648   5.828   2.220  0.4237 -0.6604  0.3647
  172SAPE   C1119365   6.745   6.022   2.176 -0.3907  0.3803  0.3587
  172SAPE  H11A19366   6.847   6.066   2.179 -0.4435  0.4081  2.0508
  172SAPE  H11B19367   6.685   6.066   2.259  0.9183 -0.2839  1.6816
  172SAPE     P19368   6.743   6.095   1.923 -0.1673 -0.0562  0.4500
  172SAPE   O1319369   6.790   5.983   1.840  0.6862  0.2413 -0.1532
  172SAPE   O1419370   6.647   6.190   1.857  0.3644 -0.2602 -0.5380
  172SAPE   O1219371   6.680   6.031   2.048  0.7320  0.2590 -0.5093
  172SAPE   O1119372   6.873   6.172   1.967 -0.3544  0.1675 -0.0911
  172SAPE    C119373   6.857   6.306   2.002  0.0804  0.3415  0.3872
  172SAPE    HA19374   6.875   6.359   1.906  2.9078 -0.2758  0.5168
  172SAPE    HB19375   6.761   6.324   2.054 -0.7756  0.0683 -1.0809
  172SAPE    C219376   6.980   6.353   2.092  0.2250  0.8290  0.1802
  172SAPE    HS19377   7.061   6.369   2.018 -0.9920  0.5347 -1.2448
  172SAPE   O2119378   7.009   6.258   2.190  0.2783  0.0724  0.4061
  172SAPE   C2119379   7.116   6.266   2.272 -1.0127  0.6397 -0.2738
  172SAPE   O2219380   7.204   6.347   2.254 -0.4547 -0.4139 -0.5506
  172SAPE   C2219381   7.104   6.175   2.401  0.0007  0.5773  0.3359
  172SAPE   H2R19382   7.000   6.136   2.396 -0.2041  1.0635  0.8281
  172SAPE   H2S19383   7.169   6.085   2.397 -1.9167 -0.7819 -1.0864
  172SAPE    C319384   6.949   6.491   2.143  0.3267 -0.8267  0.1573
  172SAPE    HX19385   6.922   6.550   2.053  0.0249 -1.6517 -0.2922
  172SAPE    HY19386   7.048   6.531   2.175  0.7693 -1.6808 -0.1314
  172SAPE   O3119387   6.848   6.505   2.239 -0.1181 -0.8657 -0.2362
  172SAPE   C3119388   6.756   6.599   2.227  0.4232  0.1976  1.0448
  172SAPE   O3219389   6.736   6.675   2.133 -0.2811 -0.0533  0.6209
  172SAPE   C3219390   6.678   6.582   2.357 -0.2726  0.3942 -0.8403
  172SAPE   H2X19391   6.709   6.671   2.415 -0.6514  0.7401 -1.1596
  172SAPE   H2Y19392   6.709   6.489   2.408 -1.3406 -0.5791 -1.9362
  172SAPE   C2319393   7.110   6.247   2.542 -0.5395 -0.6371 -0.4611
  172SAPE   H3R19394   7.203   6.306   2.560  0.0355 -1.0974 -1.8468
  172SAPE   H3S19395   7.095   6.163   2.613 -0.8761 -1.0373 -1.0010
  172SAPE   C2419396   6.991   6.334   2.576 -0.0716  0.6925  0.5331
  172SAPE   H4R19397   6.986   6.416   2.502 -0.0492 -1.2806 -1.7056
  172SAPE   H4S19398   7.010   6.373   2.679 -2.5639  1.6666  0.6654
  172SAPE   C2519399   6.853   6.263   2.572 -0.5423  0.6369 -0.3066
  172SAPE   H5R19400   6.805   6.254   2.474  1.6984 -3.1995 -1.1617
  172SAPE   C2619401   6.792   6.210   2.687 -0.7467 -0.0591  0.4753
  172SAPE   H6R19402   6.702   6.147   2.681 -0.1318 -1.2113  2.8348
  172SAPE   C2719403   6.835   6.213   2.827  0.3389  0.5801  0.2845
  172SAPE   H7R19404   6.924   6.276   2.845  1.5070 -0.8730 -0.2951
  172SAPE   H7S19405   6.860   6.111   2.864 -2.4230 -0.8810 -1.7225
  172SAPE   C2819406   6.732   6.264   2.921 -0.1759 -0.3738 -0.3941
  172SAPE   H8R19407   6.726   6.192   3.004 -0.1588 -0.4178 -0.4306
  172SAPE   C2919408   6.660   6.374   2.933  0.5889  1.0077  0.5584
  172SAPE   H9R19409   6.587   6.387   3.014 -0.0644  1.9827 -0.1763
  172SAPE  C21019410   6.661   6.493   2.836  0.1728 -0.0388  0.2788
  172SAPE  H10R19411   6.705   6.457   2.740 -1.7210 -2.0455  0.1215
  172SAPE  H10S19412   6.723   6.576   2.877  0.9235 -0.1609 -0.5731
  172SAPE  C21119413   6.524   6.544   2.799  0.0389 -0.0406  0.2898
  172SAPE  H11R19414   6.446   6.467   2.811 -0.5594  0.4759 -0.1733
  172SAPE  C21219415   6.490   6.668   2.753 -0.5985  0.1267  0.5586
  172SAPE  H12R19416   6.387   6.683   2.718 -0.1733  0.7452 -0.4655
  172SAPE  C21319417   6.576   6.793   2.725  0.9392  0.0625  0.0457
  172SAPE  H13R19418   6.580   6.825   2.619 -1.0616 -0.2644 -0.1354
  172SAPE  H13S19419   6.681   6.773   2.755  0.6517 -0.4341  0.7456
  172SAPE  C21419420   6.531   6.906   2.810  0.1790  0.2830  0.1017
  172SAPE  H14R19421   6.426   6.937   2.797  0.2299 -1.0918 -4.4657
  172SAPE  C21519422   6.586   6.963   2.924 -0.7694 -0.0544  0.6360
  172SAPE  H15R19423   6.537   7.043   2.982 -2.5039 -1.5378  1.2643
  172SAPE  C21619424   6.708   6.917   2.999 -0.8371 -0.5309 -0.0093
  172SAPE  H16R19425   6.782   7.000   2.988 -1.0870 -0.3817 -0.6305
  172SAPE  H16S19426   6.760   6.829   2.955 -0.0761  0.3223 -0.8605
  172SAPE  C21719427   6.685   6.862   3.142  0.7201 -0.3807  0.5500
  172SAPE  H17R19428   6.653   6.941   3.213  1.8070  0.7256 -0.1590
  172SAPE  H17S19429   6.779   6.812   3.174  0.9691 -0.4658 -0.2934
  172SAPE  C21819430   6.576   6.750   3.151  0.0656  0.1448  0.4886
  172SAPE  H18R19431   6.564   6.703   3.051 -0.9451  2.4501 -0.5228
  172SAPE  H18S19432   6.480   6.801   3.172  1.1387  1.1380  3.1804
  172SAPE  C21919433   6.608   6.635   3.248  0.0137 -0.9257 -0.4621
  172SAPE  H19R19434   6.698   6.579   3.211  1.6040  1.6282 -0.5900
  172SAPE  H19S19435   6.529   6.558   3.252  1.6107 -2.5483  0.5568
  172SAPE  C22019436   6.632   6.694   3.393  0.0925 -0.1897  0.8933
  172SAPE  H20R19437   6.734   6.737   3.395  0.8920 -1.9178 -0.6873
  172SAPE  H20S19438   6.629   6.612   3.468  1.3326  0.4259  1.6237
  172SAPE  H20T19439   6.556   6.773   3.407  1.6151  1.1733  1.6138
  172SAPE   C3319440   6.521   6.604   2.344  0.8036  0.1748  0.8554
  172SAPE   H3X19441   6.501   6.657   2.248  2.5563  1.1882  1.0262
  172SAPE   H3Y19442   6.474   6.656   2.430 -0.0778  0.9941 -0.0990
  172SAPE   C3419443   6.453   6.464   2.338 -0.4448  0.6622  0.0162
  172SAPE   H4X19444   6.523   6.403   2.278  1.3623 -0.4220  3.1021
  172SAPE   H4Y19445   6.349   6.477   2.300  0.1810 -0.4437 -2.1475
  172SAPE   C3519446   6.450   6.389   2.470  0.0167 -0.4788 -0.1743
  172SAPE   H5X19447   6.415   6.458   2.550 -2.9941 -1.4250 -0.5960
  172SAPE   H5Y19448   6.552   6.351   2.491 -0.4594 -0.7479  1.7183
  172SAPE   C3619449   6.357   6.273   2.481  0.3892 -1.5207  0.0917
  172SAPE   H6X19450   6.418   6.180   2.477  2.8031 -0.1259  2.6276
  172SAPE   H6Y19451   6.280   6.284   2.402 -0.7064  0.6158  1.4045
  172SAPE   C3719452   6.282   6.263   2.618 -0.1810 -0.0226  0.1548
  172SAPE   H7X19453   6.190   6.200   2.621  1.6342 -2.7065  2.2581
  172SAPE   H7Y19454   6.263   6.364   2.659  1.7725  0.9371 -1.2400
  172SAPE   C3819455   6.376   6.202   2.721 -0.1141 -0.1849  0.0100
  172SAPE   H8X19456   6.455   6.275   2.746  0.3823 -0.6595 -0.1811
  172SAPE   H8Y19457   6.427   6.115   2.675 -0.1083 -1.0698  1.6586
  172SAPE   C3919458   6.324   6.143   2.846  0.5749  0.1974 -0.7746
  172SAPE   H9X19459   6.404   6.078   2.886  1.3887  2.2299  1.0131
  172SAPE   H9Y19460   6.236   6.081   2.817  1.3461  0.0118 -2.7468
  172SAPE  C31019461   6.284   6.260   2.936  0.3619  0.5277 -0.2124
  172SAPE  H10X19462   6.212   6.332   2.893  0.3193 -1.0156 -2.8534
  172SAPE  H10Y19463   6.381   6.311   2.952 -0.2792  1.6266  0.1804
  172SAPE  C31119464   6.235   6.212   3.077  0.0019  0.3761  0.4207
  172SAPE  H11X19465   6.300   6.133   3.119 -1.3642  0.7837  3.3970
  172SAPE  H11Y19466   6.139   6.156   3.073  1.0567 -1.3894 -4.7451
  172SAPE  C31219467   6.236   6.333   3.168 -0.7381  0.0349  0.4426
  172SAPE  H12X19468   6.147   6.398   3.151  0.2087  1.3364  0.3769
  172SAPE  H12Y19469   6.324   6.400   3.158  0.2745 -0.7333  3.6264
  172SAPE  C31319470   6.250   6.307   3.319 -0.1619  0.5836  0.3076
  172SAPE  H13X19471   6.337   6.240   3.326 -0.3763  0.2171 -0.5101
  172SAPE  H13Y19472   6.162   6.252   3.360 -1.1896  1.5672 -0.5495
  172SAPE  C31419473   6.251   6.439   3.404  0.5662 -0.5451 -0.4060
  172SAPE  H14X19474   6.147   6.477   3.409  1.2094  1.0551  1.4316
  172SAPE  H14Y19475   6.314   6.515   3.351 -0.7513  1.0145  0.2181
  172SAPE  C31519476   6.315   6.440   3.540 -0.0590 -0.5436 -0.6692
  172SAPE  H15X19477   6.422   6.464   3.529 -0.2590  0.8939  0.4238
  172SAPE  H15Y19478   6.308   6.342   3.593  0.9257 -0.1093  0.2682
  172SAPE  C31619479   6.239   6.542   3.628  0.3078  0.2541 -0.5592
  172SAPE  H16X19480   6.135   6.502   3.631  0.9129 -1.2890  0.3810
  172SAPE  H16Y19481   6.238   6.647   3.593  1.2854 -0.4219 -2.7188
  172SAPE  C31719482   6.278   6.556   3.774  0.3805 -0.4690  0.2307
  172SAPE  H17X19483   6.216   6.635   3.821 -0.2364 -2.1683  2.3605
  172SAPE  H17Y19484   6.380   6.600   3.770  0.8588 -1.4253  1.6624
  172SAPE  C31819485   6.264   6.429   3.853 -0.7062 -0.5537 -0.0880
  172SAPE  H18X19486   6.282   6.439   3.962 -1.2707 -0.5899  0.0077
  172SAPE  H18Y19487   6.309   6.340   3.804 -1.3444  0.5326 -2.7523
  172SAPE  H18Z19488   6.156   6.409   3.842 -0.5693 -0.4561 -1.8546
  173SLPC     N19489   5.467   2.793   6.113 -0.2945 -0.3617 -0.2108
  173SLPC   C1319490   5.577   2.702   6.157  0.2977  0.5875  0.7333
  173SLPC  H13A19491   5.677   2.743   6.167  0.5342  0.4543 -0.8583
  173SLPC  H13B19492   5.550   2.653   6.249 -1.3311 -3.2667 -1.6691
  173SLPC  H13C19493   5.588   2.631   6.076  1.8141 -0.0908  1.5142
  173SLPC   C1419494   5.463   2.904   6.216  0.2940 -0.1962 -0.5069
  173SLPC  H14A19495   5.389   2.979   6.193 -0.8411 -1.0074  0.4098
  173SLPC  H14B19496   5.452   2.870   6.318  3.0109  0.8534  0.1612
  173SLPC  H14C19497   5.556   2.957   6.225 -0.3076  0.3349  3.9903
  173SLPC   C1519498   5.336   2.723   6.111 -0.2254 -0.3896 -0.5224
  173SLPC  H15A19499   5.332   2.655   6.026 -2.3638 -1.8938  0.7523
  173SLPC  H15B19500   5.320   2.660   6.197  1.4261 -0.2122 -0.0708
  173SLPC  H15C19501   5.264   2.803   6.103  1.0144  0.6883 -1.1631
  173SLPC   C1219502   5.489   2.851   5.974  0.0403  0.1992 -0.0631
  173SLPC  H12A19503   5.572   2.920   5.972 -0.6490  0.9962 -2.8423
  173SLPC  H12B19504   5.402   2.909   5.947 -1.5274 -0.8775  2.4251
  173SLPC   C1119505   5.515   2.745   5.863  0.3062 -0.1127 -0.3700
  173SLPC  H11A19506   5.477   2.777   5.764 -3.8737 -2.8337  0.2041
  173SLPC  H11B19507   5.443   2.661   5.879  1.7144 -1.3538 -0.4553
  173SLPC     P19508   5.757   2.799   5.808 -0.1421 -0.0884  0.0968
  173SLPC   O1319509   5.716   2.937   5.832 -0.0991 -0.2852  0.2610
  173SLPC   O1419510   5.891   2.754   5.851  0.3128  0.4161 -0.3934
  173SLPC   O1219511   5.651   2.702   5.860  0.9974 -0.5175 -0.4592
  173SLPC   O1119512   5.749   2.775   5.650 -0.4160  0.1464  0.3678
  173SLPC    C119513   5.750   2.640   5.597  0.3796 -0.4570 -0.4601
  173SLPC    HA19514   5.692   2.570   5.661 -0.5975  0.6998 -0.0487
  173SLPC    HB19515   5.717   2.640   5.491  3.7778 -3.5003 -1.6176
  173SLPC    C219516   5.895   2.580   5.596 -0.1122  0.6088 -0.0417
  173SLPC    HS19517   5.928   2.583   5.702  1.7601 -0.9354 -0.5507
  173SLPC   O2119518   5.984   2.650   5.498  0.1220  0.0099  0.0074
  173SLPC   C2119519   6.112   2.626   5.521  0.1917  0.2568 -0.3526
  173SLPC   O2219520   6.156   2.557   5.612 -0.2328  0.0896 -0.1931
  173SLPC   C2219521   6.190   2.692   5.414 -0.3170 -0.1599  0.2627
  173SLPC   H2R19522   6.179   2.636   5.319 -0.6330  1.4365 -0.6569
  173SLPC   H2S19523   6.152   2.797   5.410  0.3935  0.0792 -0.3173
  173SLPC    C319524   5.889   2.430   5.557  0.3224 -0.0176 -0.7486
  173SLPC    HX19525   5.827   2.377   5.633 -0.1255  0.5223 -0.7325
  173SLPC    HY19526   5.994   2.393   5.558  0.1125 -0.7155 -2.4525
  173SLPC   O3119527   5.820   2.409   5.432  0.0933  0.9345  0.0401
  173SLPC   C3119528   5.901   2.388   5.326  0.0063  0.3793  0.5973
  173SLPC   O3219529   6.024   2.383   5.337  0.3726  0.2537  0.0226
  173SLPC   C3219530   5.815   2.367   5.198 -0.3240 -0.3945 -0.6757
  173SLPC   H2X19531   5.770   2.266   5.206 -1.2768 -0.0103 -1.0888
  173SLPC   H2Y19532   5.885   2.360   5.112  0.6739 -2.5016  0.2783
  173SLPC   C2319533   6.342   2.694   5.448  0.6965 -0.8175 -0.2630
  173SLPC   H3R19534   6.392   2.595   5.457 -0.3268 -1.3168 -0.0463
  173SLPC   H3S19535   6.347   2.750   5.544 -1.4153 -2.0072  0.5838
  173SLPC   C2419536   6.425   2.771   5.350  0.4361 -0.1923  0.0628
  173SLPC   H4R19537   6.520   2.790   5.404  0.3266  2.3586 -0.5647
  173SLPC   H4S19538   6.380   2.870   5.327 -1.3430 -1.1333 -0.6505
  173SLPC   C2519539   6.451   2.703   5.211  0.2889  0.4655  0.3489
  173SLPC   H5R19540   6.358   2.681   5.154  0.2334  0.6065  0.3851
  173SLPC   H5S19541   6.497   2.604   5.229  0.0031 -0.1534 -2.1030
  173SLPC   C2619542   6.560   2.770   5.121 -0.3821 -0.6038 -0.0589
  173SLPC   H6R19543   6.656   2.765   5.176  0.2665 -0.3431 -1.1366
  173SLPC   H6S19544   6.534   2.878   5.116 -0.1397 -0.4969  0.9570
  173SLPC   C2719545   6.552   2.724   4.974 -0.0646  0.5096 -0.7753
  173SLPC   H7R19546   6.447   2.736   4.939 -0.0278 -3.5061 -2.6260
  173SLPC   H7S19547   6.565   2.614   4.989  0.8012  0.8195  0.8504
  173SLPC   C2819548   6.654   2.780   4.883 -0.8744  0.0654 -0.3114
  173SLPC   H8R19549   6.676   2.887   4.903  1.8718 -0.9789  2.9223
  173SLPC   H8S19550   6.617   2.769   4.779 -0.7883 -2.4814 -0.0940
  173SLPC   C2919551   6.787   2.714   4.911  0.0998 -0.2096  0.5343
  173SLPC   H9R19552   6.838   2.728   5.008  1.4586  0.1901 -0.2260
  173SLPC  C21019553   6.844   2.634   4.819  0.4656 -0.5065 -0.3470
  173SLPC  H10R19554   6.946   2.598   4.840  0.7013  0.9269  1.1415
  173SLPC  C21119555   6.784   2.590   4.685 -0.7253 -0.0367 -0.2343
  173SLPC  H11R19556   6.861   2.547   4.617 -1.8197  1.0246 -2.2140
  173SLPC  H11S19557   6.756   2.678   4.624  0.6484 -0.9395 -2.2380
  173SLPC  C21219558   6.670   2.493   4.694 -0.2649  0.6937  1.0562
  173SLPC  H12R19559   6.625   2.477   4.793 -1.7651 -0.7954  0.1596
  173SLPC  C21319560   6.625   2.426   4.585  0.3727  0.6696 -0.3379
  173SLPC  H13R19561   6.546   2.352   4.607  1.6563 -0.3041  1.1473
  173SLPC  C21419562   6.664   2.444   4.444  0.0062 -0.3117  0.7921
  173SLPC  H14R19563   6.705   2.546   4.427  1.6054 -1.1520 -0.4941
  173SLPC  H14S19564   6.575   2.414   4.385 -1.7014  0.4741  2.8965
  173SLPC  C21519565   6.778   2.351   4.397  0.3522  0.7192  0.3690
  173SLPC  H15R19566   6.870   2.394   4.441  0.5194  0.6016  0.1354
  173SLPC  H15S19567   6.785   2.371   4.288 -2.5515 -0.7325 -0.1255
  173SLPC  C21619568   6.752   2.196   4.425 -0.1205 -0.5665 -0.5319
  173SLPC  H16R19569   6.660   2.178   4.365 -0.8048 -2.4342  1.0342
  173SLPC  H16S19570   6.734   2.157   4.527 -0.6372 -0.8256 -0.7213
  173SLPC  C21719571   6.869   2.112   4.376  0.6098  0.2882 -0.5111
  173SLPC  H17R19572   6.826   2.011   4.366 -0.1836  0.4831  0.8352
  173SLPC  H17S19573   6.942   2.104   4.459 -0.9818 -0.1048  0.8751
  173SLPC  C21819574   6.941   2.144   4.246 -0.1400  0.6275  1.2682
  173SLPC  H18R19575   6.863   2.155   4.167 -0.1026 -0.0209  1.1431
  173SLPC  H18S19576   7.016   2.068   4.216 -0.7976  0.8976 -1.1913
  173SLPC  H18T19577   6.993   2.242   4.258  1.3619  0.2161 -1.3835
  173SLPC   C3319578   5.706   2.477   5.174 -0.6551 -0.4364 -0.4256
  173SLPC   H3X19579   5.651   2.493   5.269  0.1166 -0.7724  0.0830
  173SLPC   H3Y19580   5.634   2.443   5.097 -1.5585  2.6113 -1.0020
  173SLPC   C3419581   5.769   2.614   5.131 -0.4858 -0.3320  0.1190
  173SLPC   H4X19582   5.820   2.657   5.220  0.6811 -0.7711 -0.3314
  173SLPC   H4Y19583   5.680   2.679   5.114  0.4876  1.5742  2.0307
  173SLPC   C3519584   5.864   2.611   5.014 -0.1835  0.5062  0.2735
  173SLPC   H5X19585   5.799   2.581   4.929  1.4183 -0.9391 -0.4551
  173SLPC   H5Y19586   5.948   2.538   5.015 -0.7472 -0.2146 -1.9571
  173SLPC   C3619587   5.923   2.747   4.989  0.2394  0.2651  0.1286
  173SLPC   H6X19588   5.846   2.820   5.022 -1.0201 -1.4893  1.2183
  173SLPC   H6Y19589   5.941   2.760   4.881 -1.5470 -0.2880 -0.2530
  173SLPC   C3719590   6.032   2.782   5.092  0.4699 -0.0199 -0.7396
  173SLPC   H7X19591   6.119   2.714   5.105  1.0251  0.6796 -0.7618
  173SLPC   H7Y19592   5.975   2.782   5.188  2.3792 -1.0268  0.4322
  173SLPC   C3819593   6.080   2.927   5.067  0.4469  0.7625 -0.2602
  173SLPC   H8X19594   6.141   2.957   5.154  0.0801  1.8205 -0.3622
  173SLPC   H8Y19595   5.996   2.999   5.074  0.4454  0.6786  0.5905
  173SLPC   C3919596   6.172   2.945   4.946  0.4625 -0.2340 -0.8468
  173SLPC   H9X19597   6.113   2.934   4.852 -1.5137  1.0782  0.2006
  173SLPC   H9Y19598   6.245   2.863   4.961 -0.2867 -0.1448  3.9995
  173SLPC  C31019599   6.233   3.088   4.931 -0.2349  0.2403 -0.0732
  173SLPC  H10X19600   6.297   3.101   5.021 -0.8589 -2.6909  0.8666
  173SLPC  H10Y19601   6.154   3.164   4.948 -2.3620 -1.7521 -0.7369
  173SLPC  C31119602   6.316   3.126   4.807  0.2756  0.4726 -0.0267
  173SLPC  H11X19603   6.323   3.234   4.779  0.9265  0.2176 -0.8569
  173SLPC  H11Y19604   6.273   3.074   4.719 -1.8413  0.0504  1.2165
  173SLPC  C31219605   6.469   3.089   4.821  0.8167 -0.1077 -0.2157
  173SLPC  H12X19606   6.470   2.979   4.832  0.2001 -0.1918 -0.9438
  173SLPC  H12Y19607   6.514   3.130   4.914 -1.0668 -0.5861  0.9049
  173SLPC  C31319608   6.557   3.135   4.699  0.2436 -0.5836  0.0443
  173SLPC  H13X19609   6.663   3.133   4.732  0.2852 -0.1411 -0.0613
  173SLPC  H13Y19610   6.541   3.244   4.683  1.8931 -0.2222  0.7329
  173SLPC  C31419611   6.564   3.053   4.571 -0.0826  0.0898  0.3076
  173SLPC  H14X19612   6.459   3.024   4.546  0.3169 -1.4416  0.3451
  173SLPC  H14Y19613   6.613   2.956   4.592  1.3339  0.7273  0.0208
  173SLPC  C31519614   6.630   3.121   4.456 -0.4857 -0.7003  0.0960
  173SLPC  H15X19615   6.734   3.144   4.486 -0.8216  1.6407 -0.3826
  173SLPC  H15Y19616   6.580   3.216   4.427 -0.4832 -1.0698 -1.1324
  173SLPC  C31619617   6.635   3.043   4.324  0.1186  0.8116 -0.2698
  173SLPC  H16X19618   6.543   3.055   4.263 -0.1492 -1.2639 -0.3160
  173SLPC  H16Y19619   6.656   2.936   4.349 -0.7224  0.2095 -2.0928
  173SLPC  C31719620   6.757   3.086   4.232  0.5340  0.2451 -0.1960
  173SLPC  H17X19621   6.848   3.091   4.295  1.2570  0.6685 -1.2615
  173SLPC  H17Y19622   6.737   3.187   4.190  0.5985  0.5767  0.5574
  173SLPC  C31819623   6.778   2.978   4.120 -0.6358 -0.6186  0.1185
  173SLPC  H18X19624   6.820   2.883   4.160 -1.1605 -2.3095 -3.1500
  173SLPC  H18Y19625   6.863   3.011   4.057  0.1358 -2.0274  0.3991
  173SLPC  H18Z19626   6.687   2.948   4.063 -0.7766 -1.5692  0.8172
  174SLPC     N19627   1.279   1.644   5.756 -0.2831  0.5175  0.5950
  174SLPC   C1319628   1.140   1.619   5.813  0.8127 -0.2048  0.1895
  174SLPC  H13A19629   1.166   1.600   5.916 -1.1939 -0.0986  0.7319
  174SLPC  H13B19630   1.082   1.710   5.810  3.0540  1.3539  2.4187
  174SLPC  H13C19631   1.089   1.538   5.763  1.4330 -1.1409  1.0551
  174SLPC   C1419632   1.340   1.752   5.845  0.1275 -0.0422  0.6129
  174SLPC  H14A19633   1.366   1.696   5.934 -0.5842 -2.2195 -0.4912
  174SLPC  H14B19634   1.435   1.785   5.806 -0.6213  1.1131 -0.2563
  174SLPC  H14C19635   1.281   1.839   5.868 -0.8182  0.3596 -3.1148
  174SLPC   C1519636   1.257   1.695   5.618  0.3247 -0.0275  0.5961
  174SLPC  H15A19637   1.186   1.636   5.562  0.3716 -0.8979  1.4456
  174SLPC  H15B19638   1.214   1.794   5.630  0.8644  0.6019 -2.3430
  174SLPC  H15C19639   1.346   1.706   5.558  0.0015 -0.8715 -0.0386
  174SLPC   C1219640   1.371   1.515   5.746  0.2173 -1.1354 -0.6719
  174SLPC  H12A19641   1.311   1.443   5.692 -1.5103  1.8886 -2.9770
  174SLPC  H12B19642   1.378   1.475   5.846 -0.7988  0.0973 -0.0920
  174SLPC   C1119643   1.513   1.540   5.687  0.1317 -0.2092  0.0258
  174SLPC  H11A19644   1.510   1.587   5.587 -0.0631 -0.9833 -0.3343
  174SLPC  H11B19645   1.570   1.446   5.670 -0.4603 -0.0851 -2.9448
  174SLPC     P19646   1.687   1.593   5.881  0.3089  0.0252 -0.0476
  174SLPC   O1319647   1.693   1.711   5.975  0.1731  0.6785  0.5892
  174SLPC   O1419648   1.638   1.471   5.944  0.7095  0.1847 -0.0980
  174SLPC   O1219649   1.591   1.635   5.761 -0.2975  0.2366  0.3090
  174SLPC   O1119650   1.831   1.578   5.827 -0.3232 -0.4471  0.2004
  174SLPC    C119651   1.875   1.542   5.695  0.0831 -0.1545 -0.9424
  174SLPC    HA19652   1.959   1.471   5.711  3.1230  2.7059 -3.1811
  174SLPC    HB19653   1.806   1.486   5.629 -1.3326 -0.9988  1.2424
  174SLPC    C219654   1.931   1.664   5.621  0.4163  0.0449  0.0379
  174SLPC    HS19655   1.968   1.740   5.693 -0.0938 -0.3979  0.7667
  174SLPC   O2119656   1.818   1.709   5.549 -0.1986  0.5064  0.1905
  174SLPC   C2119657   1.812   1.832   5.503 -0.1739  0.4094 -0.2797
  174SLPC   O2219658   1.893   1.923   5.522 -0.4419 -0.3125 -0.6562
  174SLPC   C2219659   1.676   1.842   5.441  0.8090  1.0652 -0.1158
  174SLPC   H2R19660   1.669   1.763   5.364 -2.0802  2.6275 -1.5319
  174SLPC   H2S19661   1.587   1.828   5.505 -0.4562 -3.9951 -2.7663
  174SLPC    C319662   2.056   1.630   5.531 -0.7978 -0.2670 -0.2121
  174SLPC    HX19663   2.138   1.608   5.602  0.9554  3.2622 -1.0501
  174SLPC    HY19664   2.096   1.718   5.477  2.1057 -0.5272  1.4486
  174SLPC   O3119665   2.034   1.512   5.444  0.0265 -0.1258  0.6520
  174SLPC   C3119666   1.957   1.539   5.340 -0.3245  0.0638  0.5932
  174SLPC   O3219667   1.923   1.645   5.306  0.3979 -0.0828  0.5218
  174SLPC   C3219668   1.914   1.411   5.282  0.4589  0.1676 -0.1873
  174SLPC   H2X19669   1.807   1.421   5.256  0.1726 -1.0752  0.4601
  174SLPC   H2Y19670   1.936   1.324   5.347  1.0847  0.4029 -0.0744
  174SLPC   C2319671   1.661   1.976   5.366  0.2195 -0.2331  0.3583
  174SLPC   H3R19672   1.741   1.975   5.289 -0.4945  0.2455 -0.3924
  174SLPC   H3S19673   1.680   2.058   5.439  0.1060 -2.2789  2.7598
  174SLPC   C2419674   1.532   1.981   5.298  0.8199 -0.6561 -0.6744
  174SLPC   H4R19675   1.453   1.987   5.376  0.7346 -2.6897 -0.5668
  174SLPC   H4S19676   1.503   1.889   5.242 -3.0919 -0.9940  1.7072
  174SLPC   C2519677   1.529   2.096   5.191  0.5399 -0.2339  0.2526
  174SLPC   H5R19678   1.427   2.086   5.146  0.0759 -1.4717  1.5457
  174SLPC   H5S19679   1.600   2.062   5.113  0.2879 -1.5744  0.5946
  174SLPC   C2619680   1.567   2.235   5.244 -0.3864 -0.1870  0.4672
  174SLPC   H6R19681   1.676   2.242   5.264 -0.0528 -1.8070 -0.7522
  174SLPC   H6S19682   1.514   2.249   5.341 -1.1174  1.5747 -0.1593
  174SLPC   C2719683   1.514   2.351   5.159  0.2171 -0.4900  1.3796
  174SLPC   H7R19684   1.514   2.448   5.214 -0.4109 -0.0461  0.6154
  174SLPC   H7S19685   1.408   2.339   5.127  0.7263  0.3827 -0.7377
  174SLPC   C2819686   1.603   2.364   5.029  0.2236 -0.0683  0.5862
  174SLPC   H8R19687   1.634   2.259   5.009  0.6247 -0.0170  0.9437
  174SLPC   H8S19688   1.685   2.434   5.054 -0.4616  1.4435 -1.3202
  174SLPC   C2919689   1.513   2.421   4.917  1.1217  0.7991 -0.3506
  174SLPC   H9R19690   1.488   2.528   4.913 -0.9127  0.3291 -1.2683
  174SLPC  C21019691   1.459   2.361   4.809  0.0997 -0.1714 -0.3550
  174SLPC  H10R19692   1.398   2.420   4.738  1.8073  1.4728 -0.4887
  174SLPC  C21119693   1.486   2.216   4.776 -0.6653 -0.1527  0.4330
  174SLPC  H11R19694   1.419   2.150   4.835  0.8280 -1.4808  0.6820
  174SLPC  H11S19695   1.587   2.190   4.813  0.3923  1.6360 -1.0695
  174SLPC  C21219696   1.474   2.182   4.626  0.4224  0.1756  0.2076
  174SLPC  H12R19697   1.409   2.248   4.566  0.4711 -0.6569 -0.7674
  174SLPC  C21319698   1.524   2.074   4.568  0.3807 -0.4028  0.6065
  174SLPC  H13R19699   1.506   2.052   4.462  0.2918  3.4540 -0.2425
  174SLPC  C21419700   1.605   1.970   4.645 -0.3685  0.0811 -0.0418
  174SLPC  H14R19701   1.577   1.873   4.597 -1.3402  1.9784 -3.4544
  174SLPC  H14S19702   1.574   1.961   4.752 -1.1568 -0.1099 -0.2817
  174SLPC  C21519703   1.756   2.002   4.633 -0.9355  0.2013  0.2774
  174SLPC  H15R19704   1.755   2.107   4.671  0.8651  0.7393 -1.0590
  174SLPC  H15S19705   1.807   2.004   4.534  4.1230 -0.5115  2.7148
  174SLPC  C21619706   1.848   1.936   4.733 -0.3185  0.0763  0.2067
  174SLPC  H16R19707   1.943   1.990   4.715  1.7360 -3.6124 -0.4516
  174SLPC  H16S19708   1.870   1.836   4.692  2.4552 -0.1419  2.0628
  174SLPC  C21719709   1.808   1.943   4.875  0.5528  0.1795  0.3958
  174SLPC  H17R19710   1.716   1.880   4.875  0.7611 -0.1491 -1.3062
  174SLPC  H17S19711   1.787   2.049   4.899  1.9938  0.7606 -0.8599
  174SLPC  C21819712   1.899   1.887   4.984  0.1850 -0.4082 -0.1893
  174SLPC  H18R19713   1.982   1.960   4.989 -1.2734  1.1730  2.4606
  174SLPC  H18S19714   1.955   1.792   4.975 -0.2584 -0.6789 -0.0913
  174SLPC  H18T19715   1.852   1.885   5.085  0.3260 -2.5585 -0.1446
  174SLPC   C3319716   1.971   1.379   5.136  0.1249  0.3978  0.5502
  174SLPC   H3X19717   1.940   1.277   5.105  0.0272  0.0139  1.8813
  174SLPC   H3Y19718   2.082   1.379   5.146  0.2735  2.5802 -0.7833
  174SLPC   C3419719   1.921   1.471   5.035 -0.5721 -0.4673  0.1872
  174SLPC   H4X19720   1.945   1.577   5.056  1.8555 -0.9629  0.0635
  174SLPC   H4Y19721   1.810   1.472   5.025 -0.6560  2.9673  0.7458
  174SLPC   C3519722   1.980   1.435   4.900 -0.0252  0.4297  0.7461
  174SLPC   H5X19723   1.953   1.330   4.877  2.4618 -0.1142  0.1629
  174SLPC   H5Y19724   2.090   1.436   4.914  0.5823  0.2511 -3.4821
  174SLPC   C3619725   1.945   1.519   4.779 -0.6124 -0.6228 -0.0149
  174SLPC   H6X19726   2.010   1.609   4.784 -0.4014 -0.7469 -0.4936
  174SLPC   H6Y19727   1.842   1.562   4.785  0.6317  2.5832 -0.5468
  174SLPC   C3719728   1.968   1.442   4.653 -0.5338  0.0428  0.1641
  174SLPC   H7X19729   1.901   1.355   4.640 -2.8748  1.8565 -0.2141
  174SLPC   H7Y19730   2.073   1.407   4.665  0.6445  3.1400 -0.5386
  174SLPC   C3819731   1.959   1.519   4.515  0.4603 -0.7673  0.5264
  174SLPC   H8X19732   2.020   1.612   4.503 -1.4194  0.2829 -1.2006
  174SLPC   H8Y19733   1.855   1.551   4.495  0.2570 -1.1497  0.9668
  174SLPC   C3919734   1.995   1.434   4.396 -0.9160  0.1871  0.3614
  174SLPC   H9X19735   1.958   1.479   4.301  0.6742 -0.1905 -0.4515
  174SLPC   H9Y19736   1.943   1.336   4.405 -1.1430  0.1523 -1.1779
  174SLPC  C31019737   2.147   1.412   4.369 -0.6339  0.1870 -0.5747
  174SLPC  H10X19738   2.175   1.330   4.437  0.8775  0.7624 -0.4837
  174SLPC  H10Y19739   2.211   1.494   4.408  0.9325 -0.5179 -1.5829
  174SLPC  C31119740   2.180   1.363   4.225  0.2094 -0.3412  0.2441
  174SLPC  H11X19741   2.152   1.443   4.153 -0.6325 -0.9189 -0.0747
  174SLPC  H11Y19742   2.117   1.281   4.183 -0.4511  1.4411 -2.3781
  174SLPC  C31219743   2.336   1.356   4.224 -0.2695  0.7119 -0.2263
  174SLPC  H12X19744   2.367   1.296   4.313 -1.7647  0.6625  0.2698
  174SLPC  H12Y19745   2.373   1.460   4.234  0.7733  0.4865 -1.5600
  174SLPC  C31319746   2.390   1.294   4.094  0.6279 -1.0649 -0.9614
  174SLPC  H13X19747   2.343   1.346   4.008 -2.0190 -0.1839  0.9602
  174SLPC  H13Y19748   2.368   1.186   4.088  2.7246 -1.5498 -0.2529
  174SLPC  C31419749   2.542   1.305   4.095  1.1504  0.3932 -0.8037
  174SLPC  H14X19750   2.590   1.216   4.140  2.3357  1.8559  0.9014
  174SLPC  H14Y19751   2.574   1.389   4.160  0.3475 -1.4138  2.0250
  174SLPC  C31519752   2.604   1.327   3.958 -0.9780 -0.7324  0.0320
  174SLPC  H15X19753   2.563   1.255   3.884 -1.2954  1.8756 -2.4121
  174SLPC  H15Y19754   2.712   1.310   3.978 -0.6859  1.2376  0.1768
  174SLPC  C31619755   2.593   1.483   3.926 -0.1508  0.2677 -0.2716
  174SLPC  H16X19756   2.641   1.545   4.004  1.9242  1.8697 -2.7387
  174SLPC  H16Y19757   2.485   1.510   3.926 -0.3847 -0.6043 -1.6711
  174SLPC  C31719758   2.655   1.515   3.798 -0.2587 -0.6953 -0.0885
  174SLPC  H17X19759   2.766   1.505   3.799 -0.1996 -0.0780  1.5039
  174SLPC  H17Y19760   2.641   1.622   3.774 -0.2631 -0.7400 -0.2842
  174SLPC  C31819761   2.594   1.434   3.681  1.4033 -0.8235 -0.0629
  174SLPC  H18X19762   2.487   1.460   3.665  1.7336  2.0684  1.9811
  174SLPC  H18Y19763   2.606   1.325   3.697 -2.5369 -1.2984  0.1968
  174SLPC  H18Z19764   2.645   1.459   3.586  1.4843 -0.5735  0.0443
  175SLPC     N19765   6.394   4.221   5.973  0.1586  0.4590  0.8033
  175SLPC   C1319766   6.245   4.256   5.996 -0.9024  0.6486 -0.6526
  175SLPC  H13A19767   6.190   4.181   5.941 -1.8971 -0.0601  1.2457
  175SLPC  H13B19768   6.223   4.264   6.102 -1.9212  0.7099 -0.8575
  175SLPC  H13C19769   6.232   4.351   5.946  1.5937  0.4531 -1.7075
  175SLPC   C1419770   6.414   4.070   6.004  0.3293 -0.3182  0.7585
  175SLPC  H14A19771   6.360   4.011   5.931 -0.3524 -1.2673  2.0267
  175SLPC  H14B19772   6.520   4.065   5.985  0.1915  1.1218 -0.5510
  175SLPC  H14C19773   6.385   4.046   6.105 -4.4859  0.9743 -0.1757
  175SLPC   C1519774   6.487   4.296   6.066 -0.0782  0.2268  0.6270
  175SLPC  H15A19775   6.593   4.277   6.058  0.2693  1.9538  0.8656
  175SLPC  H15B19776   6.465   4.401   6.056  2.0783  0.6392 -0.1130
  175SLPC  H15C19777   6.478   4.273   6.171 -0.5678 -2.8583 -0.0411
  175SLPC   C1219778   6.419   4.255   5.830  0.1304 -0.4840 -0.1643
  175SLPC  H12A19779   6.401   4.359   5.811  0.2839 -0.4267 -0.0045
  175SLPC  H12B19780   6.332   4.222   5.775 -0.3972  1.3390 -0.4530
  175SLPC   C1119781   6.548   4.215   5.758 -0.1102 -0.5633 -0.5194
  175SLPC  H11A19782   6.525   4.244   5.654  1.3994  1.4255 -0.3116
  175SLPC  H11B19783   6.576   4.108   5.764 -0.1163 -0.4726  1.4629
  175SLPC     P19784   6.675   4.440   5.798  0.5003  0.0983  0.0215
  175SLPC   O1319785   6.615   4.520   5.905  0.4719 -0.2871 -0.3709
  175SLPC   O1419786   6.817   4.464   5.775  0.8020 -0.6468 -0.8858
  175SLPC   O1219787   6.661   4.287   5.817  0.3025 -0.0287 -0.0927
  175SLPC   O1119788   6.589   4.471   5.670  0.0234  0.0024 -0.3207
  175SLPC    C119789   6.643   4.460   5.541 -0.3561 -0.5740 -0.2357
  175SLPC    HA19790   6.724   4.536   5.548 -0.9650 -0.0199  0.9605
  175SLPC    HB19791   6.687   4.360   5.527  0.3618 -0.1040 -1.4259
  175SLPC    C219792   6.535   4.497   5.427 -0.1513 -0.0589 -0.0403
  175SLPC    HS19793   6.503   4.604   5.435 -2.6456 -0.7798  0.2745
  175SLPC   O2119794   6.422   4.411   5.459 -0.1042  0.0958 -0.5393
  175SLPC   C2119795   6.303   4.461   5.417 -0.0795 -0.1527  0.5236
  175SLPC   O2219796   6.293   4.567   5.361 -0.0911  0.1013 -0.1242
  175SLPC   C2219797   6.194   4.350   5.415 -0.0605  0.2257  0.1431
  175SLPC   H2R19798   6.238   4.248   5.415 -1.5591 -0.4269 -1.0442
  175SLPC   H2S19799   6.138   4.366   5.509  1.8174 -1.0896  1.5270
  175SLPC    C319800   6.592   4.471   5.290 -0.2550  0.5267  0.7922
  175SLPC    HX19801   6.680   4.537   5.281  0.6995 -0.7337  0.7795
  175SLPC    HY19802   6.522   4.493   5.207 -0.2242  0.4173  0.7377
  175SLPC   O3119803   6.638   4.329   5.291 -0.5432  0.1984 -0.0247
  175SLPC   C3119804   6.674   4.283   5.172 -0.6120  0.0481 -0.1807
  175SLPC   O3219805   6.658   4.346   5.069 -0.8984  0.1275  0.9465
  175SLPC   C3219806   6.708   4.136   5.187 -1.2511 -0.1736 -0.1146
  175SLPC   H2X19807   6.613   4.081   5.200 -1.5184  0.0670 -0.9887
  175SLPC   H2Y19808   6.775   4.129   5.275 -0.2970  0.8021 -0.7400
  175SLPC   C2319809   6.101   4.363   5.290  0.6128 -0.5491 -0.3308
  175SLPC   H3R19810   6.042   4.457   5.287  1.2084 -0.1492  0.4569
  175SLPC   H3S19811   6.031   4.277   5.300  0.3368 -0.1207  1.6346
  175SLPC   C2419812   6.173   4.366   5.156  0.1056 -0.0723 -0.8232
  175SLPC   H4R19813   6.254   4.291   5.173 -1.0983 -1.8687 -2.7672
  175SLPC   H4S19814   6.221   4.464   5.139 -1.1798  0.5580 -0.8941
  175SLPC   C2519815   6.080   4.341   5.035 -0.8663  0.2532  0.2281
  175SLPC   H5R19816   5.998   4.417   5.040  0.2769  1.3544  3.3889
  175SLPC   H5S19817   6.027   4.244   5.040 -0.3508 -0.1068 -1.2274
  175SLPC   C2619818   6.153   4.356   4.898  0.7048  0.0044 -0.3135
  175SLPC   H6R19819   6.237   4.284   4.901  0.2582 -0.4371  2.0964
  175SLPC   H6S19820   6.197   4.458   4.888 -0.4107  0.5275 -0.0269
  175SLPC   C2719821   6.073   4.305   4.774 -0.7094 -0.0715 -0.2556
  175SLPC   H7R19822   5.999   4.386   4.753 -0.5664 -0.4443 -2.2922
  175SLPC   H7S19823   6.007   4.218   4.795 -0.2681 -0.1060  1.0393
  175SLPC   C2819824   6.152   4.281   4.645  0.1790 -0.2031 -0.0355
  175SLPC   H8R19825   6.207   4.373   4.615 -1.6066  1.0712  0.5208
  175SLPC   H8S19826   6.072   4.263   4.569 -0.7225 -2.5093  1.4170
  175SLPC   C2919827   6.248   4.165   4.662 -0.3580 -0.4460  0.0229
  175SLPC   H9R19828   6.195   4.076   4.698  1.6926 -1.5079  0.4786
  175SLPC  C21019829   6.378   4.150   4.641  0.2531 -0.3388  0.6453
  175SLPC  H10R19830   6.423   4.050   4.656  0.3582  0.1241  3.7090
  175SLPC  C21119831   6.476   4.253   4.604 -0.4961  0.4501  0.1360
  175SLPC  H11R19832   6.433   4.355   4.595 -3.2167 -0.5274  1.7724
  175SLPC  H11S19833   6.527   4.238   4.506 -1.2191  2.3333 -0.5526
  175SLPC  C21219834   6.581   4.256   4.721 -0.1987  0.4462 -0.6822
  175SLPC  H12R19835   6.538   4.254   4.822  0.1883 -4.6893 -0.4598
  175SLPC  C21319836   6.710   4.273   4.700 -0.2851 -0.4802  0.1293
  175SLPC  H13R19837   6.782   4.285   4.782 -0.9724 -1.6892  0.9316
  175SLPC  C21419838   6.778   4.280   4.571  0.0251  0.0842 -0.3356
  175SLPC  H14R19839   6.748   4.200   4.500 -1.0372  1.6348 -1.6577
  175SLPC  H14S19840   6.889   4.283   4.581 -0.1370  2.0554  1.1543
  175SLPC  C21519841   6.759   4.408   4.493  0.6210 -0.0470  0.3406
  175SLPC  H15R19842   6.787   4.499   4.549  0.3847  1.2832 -1.6657
  175SLPC  H15S19843   6.651   4.419   4.470  0.4432  0.0976  1.2310
  175SLPC  C21619844   6.842   4.423   4.362  0.5684 -0.3566 -0.4228
  175SLPC  H16R19845   6.814   4.346   4.286 -1.3841 -0.7518  0.6664
  175SLPC  H16S19846   6.945   4.407   4.400  1.0420  0.6254 -1.2679
  175SLPC  C21719847   6.837   4.561   4.293  0.3308  0.3985 -0.0276
  175SLPC  H17R19848   6.914   4.560   4.213 -0.1160 -0.6237 -0.4542
  175SLPC  H17S19849   6.864   4.629   4.377 -3.8196 -0.2498  1.9746
  175SLPC  C21819850   6.701   4.617   4.239 -0.2793  0.3387 -0.4190
  175SLPC  H18R19851   6.693   4.727   4.235  3.2799  0.6606 -0.8488
  175SLPC  H18S19852   6.615   4.571   4.293 -1.4044  1.4419 -1.2593
  175SLPC  H18T19853   6.702   4.586   4.133 -3.3089 -0.7697 -0.1593
  175SLPC   C3319854   6.795   4.081   5.075 -0.7247  0.1939  0.6560
  175SLPC   H3X19855   6.853   3.994   5.113  0.3354 -0.1835 -1.7332
  175SLPC   H3Y19856   6.873   4.157   5.053 -1.1539 -0.0867 -1.9895
  175SLPC   C3419857   6.718   4.034   4.942  1.1087  0.7524  0.1627
  175SLPC   H4X19858   6.782   4.040   4.851 -1.6729  1.1424 -1.8196
  175SLPC   H4Y19859   6.633   4.104   4.932  0.2237 -0.0180  2.0342
  175SLPC   C3519860   6.651   3.897   4.970  0.0338  0.1846 -0.9084
  175SLPC   H5X19861   6.600   3.905   5.068 -0.2084 -0.2602 -0.9954
  175SLPC   H5Y19862   6.731   3.820   4.978  0.3975  0.7574  1.2051
  175SLPC   C3619863   6.560   3.844   4.863 -0.0447 -0.3475  0.3455
  175SLPC   H6X19864   6.463   3.899   4.854 -0.3376 -1.0405 -0.8330
  175SLPC   H6Y19865   6.526   3.741   4.887  3.7278 -1.4729  1.0822
  175SLPC   C3719866   6.626   3.852   4.726  0.1302  0.2121 -0.3405
  175SLPC   H7X19867   6.731   3.817   4.737  0.0557  0.0325 -0.1916
  175SLPC   H7Y19868   6.620   3.953   4.681  1.2423 -0.4830 -2.1004
  175SLPC   C3819869   6.548   3.761   4.633  0.2035  0.4075  0.0589
  175SLPC   H8X19870   6.438   3.778   4.635 -0.1073 -1.6197  2.5402
  175SLPC   H8Y19871   6.561   3.655   4.666  0.4013  0.0964 -0.9935
  175SLPC   C3919872   6.592   3.760   4.484 -0.4574  0.6251  0.1504
  175SLPC   H9X19873   6.537   3.683   4.425  1.7153 -1.1675  0.4003
  175SLPC   H9Y19874   6.700   3.738   4.477 -0.4630  0.6470  0.0104
  175SLPC  C31019875   6.565   3.898   4.415 -0.1178  0.3855  0.0454
  175SLPC  H10X19876   6.621   3.974   4.474  1.3312 -3.2040  3.5143
  175SLPC  H10Y19877   6.458   3.921   4.427 -0.1101 -0.5007  1.9325
  175SLPC  C31119878   6.593   3.902   4.269  0.7483 -0.1245  0.4313
  175SLPC  H11X19879   6.520   3.841   4.212  0.2539  0.9555 -0.0854
  175SLPC  H11Y19880   6.699   3.871   4.252  1.1256  2.2728 -1.9375
  175SLPC  C31219881   6.575   4.041   4.205 -0.4995 -0.3914 -0.1266
  175SLPC  H12X19882   6.627   4.117   4.268 -1.3774 -0.0943  0.2512
  175SLPC  H12Y19883   6.467   4.065   4.209 -0.9772 -2.3030 -1.1257
  175SLPC  C31319884   6.627   4.057   4.057 -0.0129 -0.0626 -1.0149
  175SLPC  H13X19885   6.549   4.103   3.993 -1.0897 -1.1936 -0.5347
  175SLPC  H13Y19886   6.646   3.954   4.023 -2.3083 -0.6470 -0.6293
  175SLPC  C31419887   6.755   4.144   4.037  0.6649  0.5985 -0.0225
  175SLPC  H14X19888   6.837   4.097   4.095 -1.6076 -1.8155  1.3647
  175SLPC  H14Y19889   6.729   4.246   4.075  0.6562  0.7424 -0.4124
  175SLPC  C31519890   6.789   4.162   3.885  0.1652  0.4908  0.1579
  175SLPC  H15X19891   6.717   4.240   3.853  1.7295  2.5934  1.5826
  175SLPC  H15Y19892   6.771   4.070   3.826  0.8375 -0.6389  1.6591
  175SLPC  C31619893   6.930   4.217   3.859 -0.7745 -0.2931  0.4591
  175SLPC  H16X19894   7.001   4.138   3.894 -1.0778 -1.2554 -1.0463
  175SLPC  H16Y19895   6.942   4.309   3.920  3.5914 -0.5844  0.2140
  175SLPC  C31719896   6.954   4.248   3.714 -0.2051  0.5319  0.4640
  175SLPC  H17X19897   7.013   4.342   3.707  2.0047 -0.9324 -1.3783
  175SLPC  H17Y19898   6.862   4.255   3.652  0.7494  0.0763 -1.0375
  175SLPC  C31819899   7.041   4.136   3.650 -0.2570  0.1689  0.4401
  175SLPC  H18X19900   7.110   4.089   3.724 -0.3911 -0.9902 -0.1626
  175SLPC  H18Y19901   7.103   4.173   3.566 -0.1439  1.2324  0.9819
  175SLPC  H18Z19902   6.971   4.058   3.612  0.1669 -0.2412  0.4933
  176SLPC     N19903   5.418   1.329   5.975 -0.2329  0.9594  0.4730
  176SLPC   C1319904   5.476   1.252   6.085  0.1660  0.2601  0.9345
  176SLPC  H13A19905   5.440   1.302   6.173 -1.7595  0.1819  0.2136
  176SLPC  H13B19906   5.439   1.150   6.089  0.4535  0.1162  0.1236
  176SLPC  H13C19907   5.584   1.247   6.093  0.1693 -0.0232  0.7457
  176SLPC   C1419908   5.470   1.474   5.977  0.6490  0.2472 -0.4766
  176SLPC  H14A19909   5.574   1.468   5.949  1.2431  0.9737  1.5398
  176SLPC  H14B19910   5.423   1.530   5.897  1.5406 -0.8075 -1.7564
  176SLPC  H14C19911   5.458   1.534   6.066  1.3414  2.6633 -1.9813
  176SLPC   C1519912   5.272   1.329   5.989  0.8817 -0.1867  0.6660
  176SLPC  H15A19913   5.228   1.231   5.987  2.0170 -0.6812 -2.0947
  176SLPC  H15B19914   5.242   1.386   6.076  0.7846 -0.3892  0.7635
  176SLPC  H15C19915   5.224   1.375   5.904  1.7168 -0.3261  0.1116
  176SLPC   C1219916   5.463   1.262   5.844  0.4055 -0.2063  0.0108
  176SLPC  H12A19917   5.426   1.161   5.851 -2.3908  0.7081 -0.9637
  176SLPC  H12B19918   5.571   1.258   5.844  0.3690 -1.5457 -0.3857
  176SLPC   C1119919   5.410   1.314   5.701  0.3645 -0.2767 -0.6620
  176SLPC  H11A19920   5.461   1.264   5.616  2.1059  0.7355 -0.2385
  176SLPC  H11B19921   5.426   1.423   5.686 -1.4663 -0.0436 -1.0897
  176SLPC     P19922   5.196   1.163   5.679 -0.0984 -0.3181 -0.1181
  176SLPC   O1319923   5.107   1.143   5.795  0.9336 -0.1967  0.4236
  176SLPC   O1419924   5.132   1.162   5.548  0.0942 -0.2594 -0.2287
  176SLPC   O1219925   5.271   1.306   5.685 -0.3844 -0.1911 -0.0859
  176SLPC   O1119926   5.306   1.058   5.682  0.1477  0.7918  0.2578
  176SLPC    C119927   5.267   0.923   5.646 -1.0929  0.0691  0.1635
  176SLPC    HA19928   5.170   0.884   5.683 -0.6219 -0.9638  0.3200
  176SLPC    HB19929   5.255   0.935   5.536 -0.0143 -3.1348 -0.3533
  176SLPC    C219930   5.373   0.815   5.677  0.3805 -0.7765 -0.8299
  176SLPC    HS19931   5.395   0.803   5.786  0.0080  1.1773 -0.5258
  176SLPC   O2119932   5.500   0.844   5.611  0.2751 -0.4141  0.1513
  176SLPC   C2119933   5.582   0.928   5.682  0.1361 -0.0577  0.3902
  176SLPC   O2219934   5.559   0.962   5.795  0.4711 -0.0781 -0.2750
  176SLPC   C2219935   5.709   0.951   5.601  0.6748  0.0764  0.0204
  176SLPC   H2R19936   5.788   0.968   5.678 -0.7757  0.5198  1.4532
  176SLPC   H2S19937   5.727   0.860   5.541  0.4696 -0.7326  1.1712
  176SLPC    C319938   5.323   0.672   5.646 -0.6204 -0.0528  0.6770
  176SLPC    HX19939   5.231   0.658   5.706 -1.4662 -1.9278 -1.0090
  176SLPC    HY19940   5.388   0.596   5.694 -3.2502 -2.7388  0.1410
  176SLPC   O3119941   5.309   0.653   5.500 -0.1960 -0.5017 -0.5726
  176SLPC   C3119942   5.423   0.631   5.441 -0.0305 -0.0787  0.3901
  176SLPC   O3219943   5.530   0.604   5.491  0.3758  0.5627 -0.1061
  176SLPC   C3219944   5.397   0.626   5.290 -0.0556  0.1691  0.4251
  176SLPC   H2X19945   5.336   0.536   5.267 -0.3290  0.0648  1.5507
  176SLPC   H2Y19946   5.500   0.623   5.247 -1.2921  0.5288 -2.7336
  176SLPC   C2319947   5.688   1.081   5.517 -0.1864  0.2152 -0.4884
  176SLPC   H3R19948   5.784   1.105   5.466 -0.4165 -1.6676 -1.8662
  176SLPC   H3S19949   5.666   1.162   5.590  0.2954 -2.0077  2.1868
  176SLPC   C2419950   5.574   1.064   5.412 -0.1354 -0.6188  0.2491
  176SLPC   H4R19951   5.481   1.038   5.467 -0.1268  2.7860  2.0487
  176SLPC   H4S19952   5.587   0.979   5.343 -2.3302 -0.1309 -0.7779
  176SLPC   C2519953   5.550   1.195   5.328 -0.0754 -0.2329  0.6025
  176SLPC   H5R19954   5.640   1.214   5.265 -0.6103  1.2382  0.2639
  176SLPC   H5S19955   5.538   1.281   5.397 -0.4077 -0.9440  1.4333
  176SLPC   C2619956   5.425   1.180   5.240  0.0514  0.2864 -0.2042
  176SLPC   H6R19957   5.335   1.167   5.305 -1.8806  0.2514 -2.8225
  176SLPC   H6S19958   5.433   1.101   5.163 -2.0213  1.0581 -1.2353
  176SLPC   C2719959   5.406   1.305   5.150  0.0722  0.1767  0.1155
  176SLPC   H7R19960   5.501   1.329   5.098  0.6621  0.8790  1.4665
  176SLPC   H7S19961   5.396   1.393   5.218  0.3531 -0.3339  0.8315
  176SLPC   C2819962   5.280   1.307   5.061 -0.0324  0.1221  0.3320
  176SLPC   H8R19963   5.190   1.278   5.120  0.2269 -0.9689  0.1924
  176SLPC   H8S19964   5.292   1.225   4.988 -1.0912  0.3555 -0.1241
  176SLPC   C2919965   5.266   1.438   4.994  0.1940  0.1307 -0.1801
  176SLPC   H9R19966   5.212   1.511   5.056  0.0102 -0.4381  0.3305
  176SLPC  C21019967   5.294   1.464   4.866  0.5315 -0.3397  0.7758
  176SLPC  H10R19968   5.270   1.569   4.840  1.4386  0.6085  3.5566
  176SLPC  C21119969   5.334   1.376   4.749  1.2861  0.0832  0.3950
  176SLPC  H11R19970   5.251   1.304   4.733  0.8379  1.2104 -2.6878
  176SLPC  H11S19971   5.423   1.314   4.777  2.1218 -1.1493 -4.4078
  176SLPC  C21219972   5.372   1.452   4.621  0.1299 -0.1135  0.7336
  176SLPC  H12R19973   5.479   1.474   4.622  0.0480  0.3384  0.0986
  176SLPC  C21319974   5.289   1.479   4.517  0.4851 -0.8562  0.0336
  176SLPC  H13R19975   5.322   1.529   4.425 -0.9333 -0.1305 -0.1074
  176SLPC  C21419976   5.143   1.443   4.504 -0.1028  0.7726 -0.4186
  176SLPC  H14R19977   5.108   1.398   4.599  1.7333 -0.1197 -0.1403
  176SLPC  H14S19978   5.127   1.370   4.421 -0.2980  0.7421 -0.3526
  176SLPC  C21519979   5.053   1.562   4.476 -0.0713  0.5758 -0.4153
  176SLPC  H15R19980   5.034   1.627   4.564 -2.1701 -0.6247  0.0447
  176SLPC  H15S19981   4.952   1.520   4.457  0.7324 -1.1304 -0.9458
  176SLPC  C21619982   5.074   1.660   4.362 -0.1598  0.3995  0.0698
  176SLPC  H16R19983   5.158   1.728   4.389  0.1248  0.4900 -1.0112
  176SLPC  H16S19984   4.977   1.713   4.348 -0.7305 -1.0746 -1.7867
  176SLPC  C21719985   5.115   1.584   4.229  0.5351 -0.2301 -0.7182
  176SLPC  H17R19986   5.027   1.551   4.170  0.3923  1.5329 -1.5347
  176SLPC  H17S19987   5.168   1.494   4.266  0.6286  0.6926  1.4991
  176SLPC  C21819988   5.222   1.657   4.148  0.0539  0.3099 -0.0629
  176SLPC  H18R19989   5.186   1.756   4.113 -0.7735 -0.3441 -1.0936
  176SLPC  H18S19990   5.256   1.601   4.058  2.4281  1.0910  0.3380
  176SLPC  H18T19991   5.310   1.673   4.214  0.7456 -1.6640 -0.4653
  176SLPC   C3319992   5.334   0.753   5.231  0.0559  0.1051  0.4016
  176SLPC   H3X19993   5.394   0.846   5.237  1.8608 -1.0271  0.3465
  176SLPC   H3Y19994   5.247   0.783   5.292 -0.1498  0.0403  0.1424
  176SLPC   C3419995   5.287   0.732   5.088 -0.1358  0.4613  0.0953
  176SLPC   H4X19996   5.210   0.652   5.093  0.5611 -0.0943  2.5584
  176SLPC   H4Y19997   5.369   0.717   5.014 -0.6064 -0.7913 -0.1923
  176SLPC   C3519998   5.205   0.862   5.039 -0.0814  0.1768  0.3984
  176SLPC   H5X19999   5.263   0.946   5.083 -1.7816  2.1195 -0.9890
  176SLPC   H5Y20000   5.103   0.853   5.083 -0.6487  0.4034 -0.8553
  176SLPC   C3620001   5.209   0.888   4.888  0.6055  0.0180 -0.5775
  176SLPC   H6X20002   5.313   0.898   4.852  0.8048 -2.5648 -0.7473
  176SLPC   H6Y20003   5.154   0.983   4.868 -0.8232 -0.2033  2.0792
  176SLPC   C3720004   5.131   0.779   4.820  0.0132  0.2900 -0.2059
  176SLPC   H7X20005   5.033   0.760   4.869 -0.2922 -0.6471 -1.1761
  176SLPC   H7Y20006   5.192   0.688   4.836  0.9797  1.0615  0.5978
  176SLPC   C3820007   5.101   0.800   4.670  0.5829  0.1636  0.0499
  176SLPC   H8X20008   5.034   0.889   4.667 -2.4311 -2.0363  0.4534
  176SLPC   H8Y20009   5.037   0.718   4.632  0.4362  0.4437 -0.3085
  176SLPC   C3920010   5.218   0.838   4.582  0.0030 -0.3427 -0.5675
  176SLPC   H9X20011   5.302   0.766   4.579  0.4507  0.2298 -3.7327
  176SLPC   H9Y20012   5.247   0.930   4.637 -0.3191 -1.1365  0.9455
  176SLPC  C31020013   5.171   0.873   4.438 -0.1993 -0.2878  0.4581
  176SLPC  H10X20014   5.087   0.805   4.414 -0.3423  0.9386 -2.7866
  176SLPC  H10Y20015   5.260   0.846   4.377  0.2073  1.2265  0.3425
  176SLPC  C31120016   5.132   1.016   4.396  0.2765 -0.0009 -0.4015
  176SLPC  H11X20017   5.206   1.084   4.443 -0.5383 -0.4258  1.5951
  176SLPC  H11Y20018   5.029   1.036   4.434 -0.9937 -2.5903 -2.3637
  176SLPC  C31220019   5.127   1.043   4.249  0.7521 -0.1404 -0.1052
  176SLPC  H12X20020   5.055   0.983   4.190 -0.6012 -0.9144  2.2318
  176SLPC  H12Y20021   5.221   1.002   4.207  1.0614  0.8797 -0.4237
  176SLPC  C31320022   5.110   1.192   4.214 -0.0343 -0.2603  0.0862
  176SLPC  H13X20023   5.193   1.248   4.262  1.6892 -1.3374 -1.5607
  176SLPC  H13Y20024   5.015   1.230   4.257 -1.1134 -0.9796 -1.5992
  176SLPC  C31420025   5.105   1.225   4.065  0.1949  0.2916  0.4645
  176SLPC  H14X20026   5.089   1.334   4.051 -0.5010 -0.0706 -1.7129
  176SLPC  H14Y20027   5.017   1.174   4.023  1.3284 -0.3158 -1.2206
  176SLPC  C31520028   5.220   1.168   3.991 -0.1427 -0.3001  0.0269
  176SLPC  H15X20029   5.205   1.205   3.888 -0.8653  0.1368  0.2861
  176SLPC  H15Y20030   5.193   1.060   3.988 -0.8794 -0.0777 -3.0630
  176SLPC  C31620031   5.367   1.176   4.050  0.0597 -0.2296 -0.2537
  176SLPC  H16X20032   5.435   1.106   3.998 -0.0113  0.1029 -0.7902
  176SLPC  H16Y20033   5.365   1.144   4.157  1.9855 -0.2670 -0.2118
  176SLPC  C31720034   5.417   1.321   4.030 -0.4510  0.3345  0.3996
  176SLPC  H17X20035   5.340   1.392   4.068 -0.8580  0.3836 -0.5001
  176SLPC  H17Y20036   5.420   1.348   3.923  1.6065  1.4251  0.6991
  176SLPC  C31820037   5.554   1.360   4.090  0.2105 -0.2293  0.0138
  176SLPC  H18X20038   5.573   1.469   4.084 -1.0286  0.2315  3.2797
  176SLPC  H18Y20039   5.632   1.294   4.046  0.5067  0.5765 -0.6701
  176SLPC  H18Z20040   5.553   1.353   4.201 -0.7902 -0.6231 -0.0164
  177SLPC     N20041   7.018   3.121   5.916 -0.3565  0.6820  0.1466
  177SLPC   C1320042   7.034   3.271   5.909  0.5413 -0.2967 -0.0253
  177SLPC  H13A20043   7.136   3.304   5.920  0.8268 -0.5108 -1.9850
  177SLPC  H13B20044   6.991   3.312   5.819  1.0427 -0.9254 -0.5532
  177SLPC  H13C20045   6.982   3.314   5.994 -0.2542  0.0204 -0.6644
  177SLPC   C1420046   7.087   3.058   5.802 -0.1947 -0.0472  0.2891
  177SLPC  H14A20047   7.035   3.076   5.709  3.2661 -0.5661 -1.8397
  177SLPC  H14B20048   7.192   3.083   5.793 -0.6987  1.8732 -0.5982
  177SLPC  H14C20049   7.077   2.951   5.807  1.0853 -0.1800  0.2337
  177SLPC   C1520050   6.873   3.084   5.922 -0.4060  0.9935 -0.1759
  177SLPC  H15A20051   6.835   3.110   6.020 -0.5396 -0.3042  0.1215
  177SLPC  H15B20052   6.818   3.149   5.856 -0.9143  0.7031 -0.0339
  177SLPC  H15C20053   6.850   2.981   5.900 -1.0762  1.3933 -1.3411
  177SLPC   C1220054   7.092   3.074   6.043 -0.1554 -0.0651  0.4344
  177SLPC  H12A20055   7.047   3.124   6.128 -4.1445 -0.5113 -1.2623
  177SLPC  H12B20056   7.191   3.116   6.041 -0.3737  0.4329 -2.5240
  177SLPC   C1120057   7.098   2.916   6.056  0.7482 -0.0335 -0.4936
  177SLPC  H11A20058   7.017   2.872   5.993  0.7325 -1.6309  0.6278
  177SLPC  H11B20059   7.093   2.892   6.164 -0.1925 -1.2368 -0.7833
  177SLPC     P20060   7.255   2.718   5.986  0.2659 -0.0145 -0.2623
  177SLPC   O1320061   7.398   2.707   5.948  1.0916  0.1682  0.3798
  177SLPC   O1420062   7.220   2.652   6.111  0.5778  0.1661 -0.1238
  177SLPC   O1220063   7.225   2.876   6.007  0.2153  0.0775  0.1150
  177SLPC   O1120064   7.153   2.671   5.879 -0.6729  0.6478 -0.5618
  177SLPC    C120065   7.179   2.705   5.743  0.3973  0.1185  0.4886
  177SLPC    HA20066   7.220   2.805   5.720  3.3892 -1.0202  0.6664
  177SLPC    HB20067   7.238   2.625   5.694  0.1511  0.1517  0.1353
  177SLPC    C220068   7.043   2.710   5.659  0.7504 -0.2894  0.5023
  177SLPC    HS20069   6.971   2.779   5.707 -0.3687 -0.5106 -0.8288
  177SLPC   O2120070   6.983   2.578   5.639 -0.0332 -0.5551 -0.5713
  177SLPC   C2120071   6.851   2.571   5.620 -0.1847 -0.4263  0.1197
  177SLPC   O2220072   6.780   2.667   5.642  0.4931 -0.3244 -1.0955
  177SLPC   C2220073   6.818   2.427   5.562  0.4641 -0.7391  0.5033
  177SLPC   H2R20074   6.904   2.357   5.556  1.1049 -0.3293  3.9466
  177SLPC   H2S20075   6.749   2.391   5.641  0.9963 -0.9379  0.8804
  177SLPC    C320076   7.074   2.772   5.509  0.2254 -0.5667  0.3842
  177SLPC    HX20077   7.122   2.690   5.451 -2.0640 -0.2027 -2.1186
  177SLPC    HY20078   7.142   2.859   5.516 -0.4522  0.3048 -3.1826
  177SLPC   O3120079   6.961   2.798   5.433 -0.1324 -0.0285  0.0781
  177SLPC   C3120080   6.902   2.905   5.466 -0.4846  0.0539  0.1118
  177SLPC   O3220081   6.943   2.990   5.544 -0.3546  0.2069 -0.4334
  177SLPC   C3220082   6.767   2.920   5.391 -0.2493  0.2386 -0.5448
  177SLPC   H2X20083   6.694   2.941   5.472 -1.0876  2.5971 -1.8793
  177SLPC   H2Y20084   6.753   2.815   5.356 -0.5405  0.0232  0.2176
  177SLPC   C2320085   6.745   2.451   5.424 -0.1226  0.6084  0.3505
  177SLPC   H3R20086   6.659   2.521   5.431 -1.1120 -0.5519  0.2138
  177SLPC   H3S20087   6.698   2.356   5.387 -2.9455  1.8899  0.4829
  177SLPC   C2420088   6.837   2.504   5.317  0.1003 -0.4973 -0.2421
  177SLPC   H4R20089   6.939   2.465   5.334  0.5444  1.1222  1.0208
  177SLPC   H4S20090   6.843   2.614   5.335  0.6708 -0.3401 -1.3252
  177SLPC   C2520091   6.795   2.472   5.173  0.0125 -0.1284 -0.6656
  177SLPC   H5R20092   6.845   2.543   5.103  0.3471  1.0719  0.7830
  177SLPC   H5S20093   6.685   2.492   5.173  0.2849  1.4506  1.2928
  177SLPC   C2620094   6.823   2.326   5.132  0.8556 -0.1735 -0.1363
  177SLPC   H6R20095   6.751   2.271   5.196 -1.6892 -0.3141 -3.0246
  177SLPC   H6S20096   6.929   2.303   5.158  0.3483 -1.5434  0.7710
  177SLPC   C2720097   6.784   2.295   4.984 -0.0873  0.1640  0.8314
  177SLPC   H7R20098   6.852   2.367   4.934 -0.2152  0.0836  0.5360
  177SLPC   H7S20099   6.678   2.326   4.972  0.0041  0.4647  0.7945
  177SLPC   C2820100   6.818   2.153   4.938  1.0955  0.1223  0.0475
  177SLPC   H8R20101   6.913   2.106   4.971  0.3783 -0.7761  0.8581
  177SLPC   H8S20102   6.824   2.153   4.827 -1.9496 -2.3214 -0.1950
  177SLPC   C2920103   6.711   2.060   4.982 -1.2598  0.0873  0.4063
  177SLPC   H9R20104   6.728   2.003   5.075 -0.7923  0.5514  0.6094
  177SLPC  C21020105   6.598   2.023   4.915 -0.2509  0.1231  0.0284
  177SLPC  H10R20106   6.541   1.947   4.970  1.4478 -0.0053  1.6713
  177SLPC  C21120107   6.544   2.064   4.776 -0.4404  0.1428  0.5117
  177SLPC  H11R20108   6.599   2.007   4.698  0.9630  1.4247  0.5522
  177SLPC  H11S20109   6.581   2.163   4.742 -3.5955  0.9454 -0.7765
  177SLPC  C21220110   6.391   2.063   4.763 -0.5486  0.1579  0.5240
  177SLPC  H12R20111   6.332   2.095   4.851 -0.4199  2.6379 -0.2645
  177SLPC  C21320112   6.316   2.019   4.657 -0.4431  0.6664  0.2635
  177SLPC  H13R20113   6.206   2.017   4.657 -0.4394 -2.9932 -0.0458
  177SLPC  C21420114   6.369   1.969   4.526  0.0366  0.4153  0.1679
  177SLPC  H14R20115   6.325   1.867   4.517  0.2865  0.2893  0.3471
  177SLPC  H14S20116   6.479   1.961   4.511 -0.2920  0.8482 -2.6833
  177SLPC  C21520117   6.310   2.050   4.406  0.2400 -0.1536  0.6182
  177SLPC  H15R20118   6.368   2.144   4.407 -0.0438  0.0515 -0.7819
  177SLPC  H15S20119   6.207   2.072   4.439  0.4669  0.3976  0.9656
  177SLPC  C21620120   6.330   1.974   4.267  0.2773  0.0280  0.2682
  177SLPC  H16R20121   6.290   1.871   4.276  1.6079 -0.4214  1.2399
  177SLPC  H16S20122   6.433   1.971   4.225  0.1641 -2.3016  0.1215
  177SLPC  C21720123   6.253   2.051   4.162 -0.1637  0.3773 -0.6067
  177SLPC  H17R20124   6.267   2.159   4.182  0.2049 -0.0653  1.6749
  177SLPC  H17S20125   6.143   2.035   4.167 -0.7364  3.8073 -1.2206
  177SLPC  C21820126   6.294   2.010   4.018  0.0209  0.0496 -0.4030
  177SLPC  H18R20127   6.401   2.036   4.005  0.1345 -0.9103 -1.4467
  177SLPC  H18S20128   6.237   2.062   3.938 -0.2657 -0.8485 -0.7883
  177SLPC  H18T20129   6.276   1.900   4.011  1.0183 -0.1230 -0.3130
  177SLPC   C3320130   6.755   3.027   5.273 -0.5121 -0.4517  1.0143
  177SLPC   H3X20131   6.777   3.125   5.321  0.5150 -0.2866  0.2201
  177SLPC   H3Y20132   6.647   3.033   5.245 -0.7080 -1.3301  1.5636
  177SLPC   C3420133   6.842   3.004   5.153 -0.1168  0.5833 -0.4191
  177SLPC   H4X20134   6.797   2.929   5.083 -1.3443  2.5085 -1.7315
  177SLPC   H4Y20135   6.946   2.974   5.176  0.6013  0.5140 -3.4587
  177SLPC   C3520136   6.893   3.130   5.082  0.1676  0.7080 -0.3926
  177SLPC   H5X20137   6.936   3.193   5.163 -2.9080  1.5098  0.6898
  177SLPC   H5Y20138   6.811   3.180   5.027 -1.4777  0.3481  1.6741
  177SLPC   C3620139   7.014   3.110   4.985  0.5612  0.3018 -0.1436
  177SLPC   H6X20140   7.082   3.031   5.023  1.2894  1.2674  0.5587
  177SLPC   H6Y20141   7.063   3.209   4.991  0.4067  0.2865  1.4358
  177SLPC   C3720142   6.963   3.079   4.844  0.0553 -0.0661  0.0526
  177SLPC   H7X20143   6.953   3.175   4.788 -0.8323  0.6247  1.3592
  177SLPC   H7Y20144   6.864   3.028   4.847 -0.6775  1.1446 -2.2386
  177SLPC   C3820145   7.064   2.975   4.772 -0.2452  0.6123 -0.0160
  177SLPC   H8X20146   7.063   2.880   4.829 -0.6973  1.6450  1.7621
  177SLPC   H8Y20147   7.169   3.008   4.783 -0.5360  1.2461  1.0536
  177SLPC   C3920148   7.033   2.949   4.622  0.3711  0.2176 -0.3809
  177SLPC   H9X20149   7.054   3.041   4.563 -0.9416  0.6802 -0.1595
  177SLPC   H9Y20150   6.922   2.942   4.629  0.5266 -1.8589  0.1779
  177SLPC  C31020151   7.089   2.818   4.565 -0.1890 -0.2212  0.1888
  177SLPC  H10X20152   7.103   2.730   4.631  2.0969 -0.2933 -0.3403
  177SLPC  H10Y20153   7.190   2.843   4.528 -1.1621  1.1560 -1.6001
  177SLPC  C31120154   7.001   2.775   4.450  0.7103  0.6210  0.6209
  177SLPC  H11X20155   6.980   2.859   4.380  2.9894  1.1664  0.5549
  177SLPC  H11Y20156   6.902   2.731   4.476  1.7998 -1.9416  0.5448
  177SLPC  C31220157   7.094   2.684   4.372 -0.1842 -0.3870 -0.4261
  177SLPC  H12X20158   7.147   2.619   4.445 -1.2704 -0.3970  0.3693
  177SLPC  H12Y20159   7.172   2.739   4.313  0.1139 -1.5974 -1.1773
  177SLPC  C31320160   7.015   2.606   4.268 -0.4100 -0.0909 -0.1240
  177SLPC  H13X20161   6.961   2.678   4.202 -1.0593  2.1207  2.7047
  177SLPC  H13Y20162   6.944   2.539   4.322 -1.1536  0.4966 -0.3588
  177SLPC  C31420163   7.102   2.513   4.192  0.4858 -0.9193  0.4121
  177SLPC  H14X20164   7.141   2.425   4.248  0.8089 -0.9871  0.0925
  177SLPC  H14Y20165   7.195   2.569   4.169 -0.7027  0.8703 -0.1049
  177SLPC  C31520166   7.030   2.475   4.067  0.3430  0.1703 -0.4938
  177SLPC  H15X20167   6.981   2.564   4.021  0.7312 -0.2658 -1.7897
  177SLPC  H15Y20168   6.943   2.420   4.108  1.9592  0.6027  3.7502
  177SLPC  C31620169   7.123   2.424   3.960  0.0440 -0.1323  0.1390
  177SLPC  H16X20170   7.177   2.334   3.996 -1.3617 -0.9950  0.1200
  177SLPC  H16Y20171   7.202   2.497   3.934  1.1120 -1.6290 -0.9189
  177SLPC  C31720172   7.056   2.394   3.826  0.1265 -1.0125  0.7848
  177SLPC  H17X20173   7.010   2.486   3.785 -0.6475 -2.2476 -1.1892
  177SLPC  H17Y20174   6.965   2.335   3.852 -1.1521  0.6307  0.0909
  177SLPC  C31820175   7.136   2.313   3.716 -0.4306 -0.3088  0.4127
  177SLPC  H18X20176   7.231   2.361   3.684 -0.3556 -1.0963 -0.5651
  177SLPC  H18Y20177   7.068   2.313   3.627 -0.2950  3.6294  0.2290
  177SLPC  H18Z20178   7.150   2.207   3.743 -1.4216 -0.3295  0.8606
  178SLPC     N20179   1.799   6.708   6.288  0.6933 -0.7477 -0.5057
  178SLPC   C1320180   1.731   6.724   6.419  0.2088  0.1804 -0.8952
  178SLPC  H13A20181   1.635   6.675   6.419  0.0841  0.4270 -1.2597
  178SLPC  H13B20182   1.792   6.673   6.492  2.0198  1.8954 -1.1716
  178SLPC  H13C20183   1.701   6.823   6.451  0.2971 -0.0924  0.0470
  178SLPC   C1420184   1.851   6.568   6.276  0.8799  0.4565 -0.0838
  178SLPC  H14A20185   1.908   6.549   6.186 -0.8906  1.3428 -1.4371
  178SLPC  H14B20186   1.902   6.538   6.366 -0.6988 -3.2041 -0.2723
  178SLPC  H14C20187   1.768   6.501   6.259  1.5205 -0.2425 -0.5048
  178SLPC   C1520188   1.915   6.788   6.286  0.0710  0.3156 -0.5033
  178SLPC  H15A20189   1.977   6.775   6.199 -1.3144  0.2483 -1.4984
  178SLPC  H15B20190   1.886   6.891   6.299  1.8479  1.1287 -2.5853
  178SLPC  H15C20191   1.977   6.765   6.372 -0.3942  2.0337  0.3260
  178SLPC   C1220192   1.705   6.750   6.176  0.3008 -0.0743 -0.1559
  178SLPC  H12A20193   1.692   6.856   6.192  2.1079  0.0458  0.6236
  178SLPC  H12B20194   1.608   6.708   6.196  0.7668 -1.2324 -0.2899
  178SLPC   C1120195   1.754   6.732   6.031  0.6031  0.4489  0.2719
  178SLPC  H11A20196   1.661   6.744   5.971 -0.2249  0.2013  1.4945
  178SLPC  H11B20197   1.790   6.628   6.021  1.4478  0.6950  0.7274
  178SLPC     P20198   1.804   6.953   5.915  0.0866  0.3785 -0.0827
  178SLPC   O1320199   1.685   7.008   5.981 -0.3510  0.6146 -0.5624
  178SLPC   O1420200   1.913   7.051   5.895  0.2013 -0.0867  1.1162
  178SLPC   O1220201   1.858   6.821   5.990  0.2079 -0.0289 -0.3702
  178SLPC   O1120202   1.765   6.896   5.770 -0.2742 -0.5318  0.5920
  178SLPC    C120203   1.853   6.812   5.696  0.8094  0.2539  0.3085
  178SLPC    HA20204   1.937   6.769   5.754  1.0832 -1.6977 -1.4672
  178SLPC    HB20205   1.792   6.736   5.643  2.7555 -1.1313  0.0486
  178SLPC    C220206   1.928   6.894   5.595  0.3953  0.5289  0.2122
  178SLPC    HS20207   1.992   6.959   5.659  0.9881 -1.4953  1.7182
  178SLPC   O2120208   1.838   6.961   5.504  0.1320  0.5729  0.3624
  178SLPC   C2120209   1.889   7.058   5.433  0.1930 -0.2000 -0.1827
  178SLPC   O2220210   1.997   7.108   5.454 -0.6898 -0.1858 -0.2836
  178SLPC   C2220211   1.794   7.093   5.326 -0.1356 -0.4057  0.0276
  178SLPC   H2R20212   1.729   7.004   5.310  0.2185 -1.0424  2.0886
  178SLPC   H2S20213   1.733   7.184   5.340 -0.7273 -0.8048  0.0563
  178SLPC    C320214   2.031   6.816   5.523 -0.7761  0.7750 -0.6252
  178SLPC    HX20215   2.098   6.761   5.592 -2.4362 -1.4238 -0.7004
  178SLPC    HY20216   2.094   6.889   5.468  0.1545 -0.3658 -1.1043
  178SLPC   O3120217   1.971   6.712   5.443  0.9413 -0.6650  0.2562
  178SLPC   C3120218   1.977   6.729   5.312 -0.3594  0.3467 -0.6981
  178SLPC   O3220219   2.054   6.808   5.258 -0.2435 -0.9315 -0.0034
  178SLPC   C3220220   1.867   6.646   5.257 -0.0038 -0.1499  0.2423
  178SLPC   H2X20221   1.771   6.696   5.282 -0.5743  0.2106 -2.5268
  178SLPC   H2Y20222   1.877   6.541   5.292  0.3813 -0.0406  0.4643
  178SLPC   C2320223   1.865   7.109   5.182 -0.5283  0.0136  0.2040
  178SLPC   H3R20224   1.931   7.023   5.159 -0.2429  0.1256  0.5844
  178SLPC   H3S20225   1.936   7.193   5.200  0.6700 -1.3922  2.1693
  178SLPC   C2420226   1.769   7.153   5.076 -0.2526 -0.9443 -0.0517
  178SLPC   H4R20227   1.692   7.227   5.107 -2.2902 -1.3736 -3.7528
  178SLPC   H4S20228   1.710   7.065   5.041  0.0578 -1.5283  0.8781
  178SLPC   C2520229   1.845   7.213   4.953  0.7424  0.3723  0.1512
  178SLPC   H5R20230   1.917   7.133   4.929  0.3345  0.3274 -0.9483
  178SLPC   H5S20231   1.896   7.308   4.982  0.1089  1.2224 -1.4440
  178SLPC   C2620232   1.736   7.244   4.844 -0.3794  0.4185  0.6917
  178SLPC   H6R20233   1.642   7.290   4.881  0.0742  2.2414 -0.3251
  178SLPC   H6S20234   1.702   7.148   4.799  0.1183  0.9588 -0.8812
  178SLPC   C2720235   1.791   7.330   4.730  0.2593  0.3099 -0.0379
  178SLPC   H7R20236   1.895   7.364   4.751  0.3471 -0.9654  1.7332
  178SLPC   H7S20237   1.740   7.428   4.731  1.2056  0.8897 -3.0663
  178SLPC   C2820238   1.783   7.276   4.586 -0.1428 -0.2517  0.7581
  178SLPC   H8R20239   1.821   7.355   4.518  1.7408 -0.8471  1.0870
  178SLPC   H8S20240   1.682   7.248   4.550  0.0104  1.5844 -1.2239
  178SLPC   C2920241   1.886   7.162   4.577  0.4705  0.1968  0.2854
  178SLPC   H9R20242   1.855   7.078   4.640 -0.8877  0.9137  0.5816
  178SLPC  C21020243   1.984   7.141   4.488 -0.0338 -0.0715 -0.3675
  178SLPC  H10R20244   2.047   7.050   4.491 -2.5612 -1.9879 -2.7385
  178SLPC  C21120245   2.022   7.244   4.379  0.1551  0.1901 -0.4342
  178SLPC  H11R20246   2.092   7.322   4.417  1.2446 -0.4286 -1.1319
  178SLPC  H11S20247   1.931   7.304   4.356  0.9363  1.2411 -0.8452
  178SLPC  C21220248   2.071   7.169   4.258  0.2367  0.0238  0.0530
  178SLPC  H12R20249   2.008   7.085   4.226  1.5290 -0.8651 -0.2068
  178SLPC  C21320250   2.182   7.195   4.188 -0.0198 -0.5198 -0.8545
  178SLPC  H13R20251   2.218   7.142   4.098 -0.2533  0.8513 -1.7902
  178SLPC  C21420252   2.272   7.310   4.218  0.0713 -1.1881 -0.0551
  178SLPC  H14R20253   2.359   7.270   4.275  0.4021  0.6257  0.7879
  178SLPC  H14S20254   2.227   7.388   4.283 -0.4325 -0.2859 -1.4712
  178SLPC  C21520255   2.302   7.375   4.083  0.1488 -0.1721  0.0669
  178SLPC  H15R20256   2.350   7.300   4.016 -1.2196  0.0919 -1.2364
  178SLPC  H15S20257   2.382   7.445   4.116 -2.8779  2.1805  2.7623
  178SLPC  C21620258   2.186   7.435   4.013  0.4853 -0.2348  0.1302
  178SLPC  H16R20259   2.130   7.480   4.098  1.7528 -2.5619  2.2801
  178SLPC  H16S20260   2.123   7.355   3.969 -1.5084 -0.0243  2.4713
  178SLPC  C21720261   2.207   7.550   3.917 -0.0212  0.0296 -1.1914
  178SLPC  H17R20262   2.274   7.523   3.832  1.1325  2.1253 -0.9700
  178SLPC  H17S20263   2.273   7.621   3.970  3.0823 -2.3284 -1.7316
  178SLPC  C21820264   2.075   7.614   3.869 -0.4108 -0.5408  0.2642
  178SLPC  H18R20265   2.023   7.666   3.952  0.2426  3.6433 -1.7960
  178SLPC  H18S20266   1.997   7.541   3.838 -0.8273 -0.8388  1.9945
  178SLPC  H18T20267   2.097   7.700   3.802  0.1875  0.5522  1.8359
  178SLPC   C3320268   1.873   6.649   5.106 -0.3276 -0.0730  0.6351
  178SLPC   H3X20269   1.837   6.550   5.071 -2.2484  0.6096  0.6293
  178SLPC   H3Y20270   1.978   6.656   5.069  0.2187 -0.6538  2.0293
  178SLPC   C3420271   1.785   6.766   5.052  0.1125 -0.1380 -0.0261
  178SLPC   H4X20272   1.813   6.867   5.089 -1.4391  1.4168 -2.8803
  178SLPC   H4Y20273   1.691   6.734   5.101 -0.2738 -3.0104 -2.5170
  178SLPC   C3520274   1.777   6.761   4.903  0.5290 -0.5048  0.0578
  178SLPC   H5X20275   1.689   6.803   4.851  0.4236  0.5544  1.0862
  178SLPC   H5Y20276   1.765   6.655   4.870 -0.2953 -0.6885  0.9320
  178SLPC   C3620277   1.904   6.813   4.842 -0.2220  0.1933 -0.4061
  178SLPC   H6X20278   1.991   6.765   4.891  0.1151  2.8422  1.6661
  178SLPC   H6Y20279   1.907   6.922   4.862  2.8434  0.0890 -0.0576
  178SLPC   C3720280   1.905   6.770   4.696  0.5318  0.2239  0.0619
  178SLPC   H7X20281   1.842   6.850   4.651  1.4794  0.8348 -0.2168
  178SLPC   H7Y20282   1.868   6.667   4.682 -0.9115  0.7667 -0.1754
  178SLPC   C3820283   2.051   6.786   4.643  0.0151 -0.5591  0.2673
  178SLPC   H8X20284   2.122   6.718   4.694 -0.4569 -0.7198  0.7212
  178SLPC   H8Y20285   2.077   6.894   4.650  1.1854 -0.7826 -0.5561
  178SLPC   C3920286   2.074   6.743   4.494  0.8613 -1.2801 -0.2724
  178SLPC   H9X20287   2.010   6.813   4.437 -1.2681 -2.4143  0.6828
  178SLPC   H9Y20288   2.020   6.649   4.469  0.1115 -0.5111 -1.5748
  178SLPC  C31020289   2.217   6.754   4.446  0.0338  0.2890  0.1122
  178SLPC  H10X20290   2.273   6.673   4.497 -0.6685 -0.2453  0.0327
  178SLPC  H10Y20291   2.256   6.857   4.466  0.2083  1.0273 -3.6492
  178SLPC  C31120292   2.228   6.716   4.297 -0.7541  0.3408 -0.1954
  178SLPC  H11X20293   2.181   6.793   4.232 -0.4598  0.2290 -0.5483
  178SLPC  H11Y20294   2.184   6.617   4.272  1.4326 -0.3849 -1.3879
  178SLPC  C31220295   2.375   6.714   4.248 -0.4751  0.2615  0.3767
  178SLPC  H12X20296   2.429   6.632   4.299 -0.0956 -0.2377 -0.8084
  178SLPC  H12Y20297   2.420   6.810   4.281 -0.1811 -0.3945  1.8977
  178SLPC  C31320298   2.384   6.689   4.095  0.2005 -0.3160  0.7530
  178SLPC  H13X20299   2.318   6.762   4.044  1.0515 -0.5123 -0.6536
  178SLPC  H13Y20300   2.345   6.586   4.079 -0.4186  0.1960 -1.1885
  178SLPC  C31420301   2.523   6.687   4.033  0.1844  0.2156  0.3550
  178SLPC  H14X20302   2.590   6.634   4.104  2.4231  1.3741 -0.8376
  178SLPC  H14Y20303   2.555   6.792   4.017 -0.2689  0.2685 -0.2180
  178SLPC  C31520304   2.543   6.605   3.908  0.3409 -0.0980 -0.2767
  178SLPC  H15X20305   2.485   6.649   3.824  0.3961 -1.4347 -1.0377
  178SLPC  H15Y20306   2.512   6.499   3.915  1.6603 -0.4440  0.6706
  178SLPC  C31620307   2.690   6.607   3.865  0.2588  0.6301  0.2778
  178SLPC  H16X20308   2.758   6.569   3.945  0.8669  1.4048  0.1269
  178SLPC  H16Y20309   2.724   6.707   3.832  0.7338  1.4393  3.0810
  178SLPC  C31720310   2.705   6.529   3.732  0.5779 -0.0994 -0.0025
  178SLPC  H17X20311   2.647   6.580   3.651  0.5595 -2.0501 -1.2421
  178SLPC  H17Y20312   2.668   6.426   3.746 -1.6111  1.0363  2.9694
  178SLPC  C31820313   2.851   6.535   3.682  0.1336  0.8444 -0.6815
  178SLPC  H18X20314   2.850   6.487   3.581  0.3438 -1.6371  0.4692
  178SLPC  H18Y20315   2.925   6.468   3.730 -1.1078 -1.5536 -1.9583
  178SLPC  H18Z20316   2.885   6.640   3.682 -0.0646  0.9353  2.5626
  179SLPC     N20317   3.154   2.391   2.136 -0.1288  0.1818  0.1281
  179SLPC   C1320318   3.139   2.319   2.003  0.3601 -0.0037 -0.5486
  179SLPC  H13A20319   3.209   2.366   1.936 -1.0053  1.0814 -1.2491
  179SLPC  H13B20320   3.154   2.212   2.003  1.8868  0.1986 -1.4403
  179SLPC  H13C20321   3.039   2.340   1.967  0.0049 -0.4286  0.1618
  179SLPC   C1420322   3.122   2.538   2.122  0.2564 -0.1540 -0.3805
  179SLPC  H14A20323   3.177   2.576   2.038 -1.4397 -0.4427 -1.6532
  179SLPC  H14B20324   3.016   2.556   2.110  0.4704  0.3653 -1.4538
  179SLPC  H14C20325   3.159   2.593   2.208 -2.5068 -0.8597  1.3489
  179SLPC   C1520326   3.293   2.379   2.188 -0.2461  0.1559 -1.1170
  179SLPC  H15A20327   3.324   2.280   2.218  1.0238  0.6762 -0.7139
  179SLPC  H15B20328   3.363   2.415   2.114  0.1044  1.5171 -0.1243
  179SLPC  H15C20329   3.299   2.443   2.275  1.2007 -2.4297  0.7604
  179SLPC   C1220330   3.067   2.315   2.239  0.6230  0.2560 -0.2787
  179SLPC  H12A20331   2.964   2.335   2.215  0.6094 -1.2728 -1.6579
  179SLPC  H12B20332   3.086   2.358   2.336  0.2757  0.4892 -0.3131
  179SLPC   C1120333   3.085   2.169   2.257  0.8614  0.0624  0.6944
  179SLPC  H11A20334   3.191   2.138   2.269  0.9801 -0.8737 -2.3372
  179SLPC  H11B20335   3.051   2.115   2.167  1.2009  1.7574 -0.4793
  179SLPC     P20336   2.847   2.128   2.353 -0.0037  0.0781  0.3103
  179SLPC   O1320337   2.776   2.256   2.347  0.3173  0.6492 -0.0925
  179SLPC   O1420338   2.831   2.043   2.236  0.3748 -0.5665  0.2834
  179SLPC   O1220339   3.001   2.148   2.367 -0.3214 -0.9295  0.1126
  179SLPC   O1120340   2.796   2.055   2.493  0.2686 -0.1331 -0.5189
  179SLPC    C120341   2.873   2.074   2.604 -0.5459 -0.2521 -0.5350
  179SLPC    HA20342   2.880   1.990   2.676 -0.4664 -1.5925 -2.0761
  179SLPC    HB20343   2.981   2.095   2.587 -0.3293 -2.9218 -2.7133
  179SLPC    C220344   2.812   2.185   2.696  0.1757  0.0702  0.9087
  179SLPC    HS20345   2.783   2.267   2.627 -0.4460 -1.3432 -0.5435
  179SLPC   O2120346   2.906   2.217   2.801  0.3308  0.3927 -0.2890
  179SLPC   C2120347   2.906   2.346   2.844 -0.4653 -0.2269  0.5243
  179SLPC   O2220348   2.833   2.438   2.804  0.1411 -0.3902 -0.3303
  179SLPC   C2220349   3.017   2.364   2.946  0.3615 -0.3692  0.0279
  179SLPC   H2R20350   3.116   2.343   2.900  0.7709 -0.7096  1.0604
  179SLPC   H2S20351   3.007   2.469   2.979 -0.4833 -1.1212  2.2405
  179SLPC    C320352   2.682   2.120   2.757 -0.3752 -0.0127 -0.0398
  179SLPC    HX20353   2.725   2.043   2.825 -0.3278 -0.1120 -0.1830
  179SLPC    HY20354   2.620   2.066   2.683 -0.8029  2.5479 -1.6036
  179SLPC   O3120355   2.595   2.212   2.839 -0.4312 -0.0522 -0.0958
  179SLPC   C3120356   2.527   2.298   2.761  0.3246  0.1573 -0.3156
  179SLPC   O3220357   2.510   2.285   2.643 -0.0899  0.1748 -0.4209
  179SLPC   C3220358   2.470   2.422   2.841 -0.3746  0.0541 -0.4514
  179SLPC   H2X20359   2.548   2.446   2.916  2.6038 -0.3796 -3.3217
  179SLPC   H2Y20360   2.377   2.379   2.886 -1.4310 -0.2852 -2.8801
  179SLPC   C2320361   2.987   2.291   3.074 -0.0512 -0.6403  0.5836
  179SLPC   H3R20362   3.003   2.181   3.069  0.1149 -0.5760 -0.3443
  179SLPC   H3S20363   2.878   2.291   3.097 -0.3435 -0.6219 -0.7593
  179SLPC   C2420364   3.072   2.331   3.202 -0.6110  0.3814 -0.3543
  179SLPC   H4R20365   3.045   2.437   3.225 -0.8968  0.3737 -0.6504
  179SLPC   H4S20366   3.176   2.331   3.163 -0.2231  2.0848  0.5927
  179SLPC   C2520367   3.043   2.237   3.323 -0.3032 -0.1243 -0.1979
  179SLPC   H5R20368   3.108   2.260   3.409  0.6163 -0.9312 -0.6670
  179SLPC   H5S20369   3.060   2.132   3.292 -0.5603 -0.4678  0.8080
  179SLPC   C2620370   2.898   2.240   3.362 -0.4711 -0.8913  0.2635
  179SLPC   H6R20371   2.849   2.170   3.292 -1.3866 -1.1116  1.1133
  179SLPC   H6S20372   2.861   2.345   3.359  0.7962 -0.4845 -2.3819
  179SLPC   C2720373   2.872   2.192   3.503 -0.1372  0.2608 -0.3129
  179SLPC   H7R20374   2.951   2.240   3.565 -2.8728  1.6362  2.2547
  179SLPC   H7S20375   2.877   2.081   3.502 -1.2828  0.1600  1.7498
  179SLPC   C2820376   2.732   2.225   3.541 -0.3016 -0.6245 -0.7771
  179SLPC   H8R20377   2.696   2.160   3.623 -0.3518  1.3637  0.8373
  179SLPC   H8S20378   2.662   2.216   3.456 -1.4332  0.5128  0.0060
  179SLPC   C2920379   2.719   2.364   3.597 -0.7125  0.1116  0.2192
  179SLPC   H9R20380   2.718   2.443   3.520  0.8023  1.1460  1.2443
  179SLPC  C21020381   2.710   2.398   3.721 -0.1261 -0.3655  0.1297
  179SLPC  H10R20382   2.708   2.507   3.737  1.4720 -0.2374 -0.4228
  179SLPC  C21120383   2.702   2.319   3.851 -0.2025  0.7750  0.6720
  179SLPC  H11R20384   2.690   2.210   3.830  0.8205  0.5141  1.4272
  179SLPC  H11S20385   2.609   2.343   3.906 -1.2018  2.5462 -1.6982
  179SLPC  C21220386   2.828   2.322   3.931 -0.0122  0.2364 -0.2768
  179SLPC  H12R20387   2.891   2.242   3.889 -2.8916 -1.9145 -0.7166
  179SLPC  C21320388   2.857   2.386   4.046  0.5825  0.4144  0.0136
  179SLPC  H13R20389   2.954   2.362   4.092  0.9007 -1.0086 -1.3666
  179SLPC  C21420390   2.756   2.484   4.113 -0.8547 -0.4276 -0.6402
  179SLPC  H14R20391   2.665   2.499   4.052 -0.9230  0.3413 -0.3542
  179SLPC  H14S20392   2.797   2.588   4.114  0.2038 -0.8388  0.3913
  179SLPC  C21520393   2.722   2.441   4.254 -1.1000 -0.0459  0.4657
  179SLPC  H15R20394   2.679   2.338   4.251 -1.2720  0.0566 -0.7881
  179SLPC  H15S20395   2.645   2.510   4.296 -1.2368 -0.8889  1.6388
  179SLPC  C21620396   2.849   2.440   4.353 -0.2391 -0.3995 -0.8801
  179SLPC  H16R20397   2.889   2.542   4.336 -1.5234 -0.2319 -3.0735
  179SLPC  H16S20398   2.927   2.369   4.316  0.2421 -0.0843 -0.4732
  179SLPC  C21720399   2.817   2.406   4.502  0.5036 -0.0958 -0.4702
  179SLPC  H17R20400   2.734   2.466   4.547  1.0869  0.0548  0.4211
  179SLPC  H17S20401   2.911   2.410   4.560  0.6688  2.8213 -0.8632
  179SLPC  C21820402   2.774   2.253   4.504 -0.6168  0.3244 -0.2429
  179SLPC  H18R20403   2.665   2.235   4.495 -0.0901 -2.7384 -1.1342
  179SLPC  H18S20404   2.802   2.216   4.606 -1.5482  0.2948  0.0053
  179SLPC  H18T20405   2.836   2.194   4.433  0.3249  0.6297  0.3004
  179SLPC   C3320406   2.451   2.535   2.741  0.4438  0.0995 -0.3903
  179SLPC   H3X20407   2.396   2.501   2.651  1.9554 -0.6287 -1.0720
  179SLPC   H3Y20408   2.544   2.570   2.692  0.0182  0.5912 -0.8480
  179SLPC   C3420409   2.381   2.657   2.805  0.0867  0.6318 -0.3703
  179SLPC   H4X20410   2.279   2.625   2.836  0.3946 -1.3749 -1.4114
  179SLPC   H4Y20411   2.362   2.730   2.723  0.6552  1.3354  0.1098
  179SLPC   C3520412   2.462   2.728   2.918  0.2191  0.5050  0.2395
  179SLPC   H5X20413   2.495   2.660   2.999  0.6948  1.1956  0.6410
  179SLPC   H5Y20414   2.552   2.764   2.864 -0.4789  0.6361 -0.8534
  179SLPC   C3620415   2.388   2.853   2.968 -0.4034  0.0587  0.6114
  179SLPC   H6X20416   2.330   2.912   2.893 -0.4227  1.4978  1.7352
  179SLPC   H6Y20417   2.459   2.924   3.014 -2.1870  2.3997 -0.1424
  179SLPC   C3720418   2.282   2.817   3.077 -0.5455 -0.1794  0.4605
  179SLPC   H7X20419   2.337   2.755   3.151  1.7140 -0.4740 -1.4090
  179SLPC   H7Y20420   2.205   2.751   3.031 -0.2414  1.2097 -2.1852
  179SLPC   C3820421   2.220   2.946   3.131 -0.7116 -0.0178  0.2120
  179SLPC   H8X20422   2.112   2.930   3.154 -0.2792 -2.6898  0.5330
  179SLPC   H8Y20423   2.223   3.022   3.050 -0.6520 -1.7504 -1.4443
  179SLPC   C3920424   2.299   2.981   3.253 -0.3777 -0.1507 -0.5831
  179SLPC   H9X20425   2.398   3.023   3.225 -0.3627 -0.3679 -0.8565
  179SLPC   H9Y20426   2.324   2.898   3.323 -1.1858 -0.0166 -0.1190
  179SLPC  C31020427   2.233   3.087   3.346  0.2950 -0.2545  0.0621
  179SLPC  H10X20428   2.132   3.044   3.363 -0.0397  0.2500 -0.6280
  179SLPC  H10Y20429   2.219   3.183   3.291  0.5355  0.5029  1.3096
  179SLPC  C31120430   2.314   3.123   3.469  0.1163  0.5373 -0.7193
  179SLPC  H11X20431   2.420   3.138   3.439  0.5998 -1.5389 -0.1051
  179SLPC  H11Y20432   2.317   3.029   3.528 -2.4864  0.2964 -0.8968
  179SLPC  C31220433   2.257   3.236   3.559 -0.0980 -0.5984  0.4348
  179SLPC  H12X20434   2.160   3.196   3.594 -0.7744 -0.8321 -1.6286
  179SLPC  H12Y20435   2.223   3.327   3.505 -1.4047 -1.3149  0.0358
  179SLPC  C31320436   2.344   3.270   3.677 -0.7331  0.2862 -0.3923
  179SLPC  H13X20437   2.441   3.306   3.635  0.5209 -1.9751  0.4734
  179SLPC  H13Y20438   2.369   3.175   3.729  1.1083  0.3316 -1.1301
  179SLPC  C31420439   2.272   3.364   3.774 -0.2339  0.5994  0.0561
  179SLPC  H14X20440   2.183   3.310   3.812 -0.9677  1.0839 -0.9663
  179SLPC  H14Y20441   2.235   3.456   3.726  0.9599  0.2879 -1.5182
  179SLPC  C31520442   2.363   3.415   3.887 -0.0054  0.3643  0.3766
  179SLPC  H15X20443   2.284   3.444   3.960 -1.9045 -0.7165 -1.2080
  179SLPC  H15Y20444   2.418   3.508   3.862  0.2949  0.0701 -0.0707
  179SLPC  C31620445   2.463   3.318   3.958 -0.5446 -0.2666 -1.2468
  179SLPC  H16X20446   2.550   3.287   3.896  0.4059 -3.0152  1.3387
  179SLPC  H16Y20447   2.405   3.226   3.981 -0.1223 -1.1143 -3.4483
  179SLPC  C31720448   2.507   3.385   4.094 -0.0415 -0.2830  0.4943
  179SLPC  H17X20449   2.417   3.416   4.151 -0.5970  1.0248 -1.0425
  179SLPC  H17Y20450   2.553   3.480   4.060 -0.1045 -1.3557 -2.7836
  179SLPC  C31820451   2.598   3.297   4.179 -0.7869  0.8484 -0.5902
  179SLPC  H18X20452   2.642   3.340   4.272 -0.1319 -0.9513 -0.0482
  179SLPC  H18Y20453   2.682   3.262   4.116  0.8180  0.3936  1.7530
  179SLPC  H18Z20454   2.546   3.199   4.187  0.4897  0.2159  0.1024
  180SLPC     N20455   2.565   3.326   1.800  0.4438  0.2521  0.1988
  180SLPC   C1320456   2.444   3.399   1.749  0.0911 -0.1790 -0.0827
  180SLPC  H13A20457   2.426   3.421   1.645 -0.8918  3.2529  0.7458
  180SLPC  H13B20458   2.358   3.344   1.785  0.8436 -1.5367 -0.3312
  180SLPC  H13C20459   2.435   3.499   1.789  0.3287 -0.2436  0.1382
  180SLPC   C1420460   2.684   3.394   1.746 -0.2468 -0.2985 -0.3488
  180SLPC  H14A20461   2.769   3.342   1.788 -0.6790 -1.0703 -0.4260
  180SLPC  H14B20462   2.693   3.382   1.639  0.3132  0.8144 -0.4278
  180SLPC  H14C20463   2.684   3.498   1.773 -1.0257  0.0004 -1.4554
  180SLPC   C1520464   2.570   3.185   1.748  0.3728  0.1987  0.2577
  180SLPC  H15A20465   2.559   3.177   1.641 -0.1638 -0.0081  0.3266
  180SLPC  H15B20466   2.664   3.131   1.759  0.2758 -0.4526 -1.8155
  180SLPC  H15C20467   2.483   3.131   1.782  1.2932 -0.3755  1.7315
  180SLPC   C1220468   2.561   3.328   1.951  0.2423 -0.1100  0.3412
  180SLPC  H12A20469   2.650   3.274   1.981  0.8513  0.6087 -0.1717
  180SLPC  H12B20470   2.475   3.275   1.989  0.0859 -0.7466 -0.8806
  180SLPC   C1120471   2.573   3.469   2.018  0.5435  0.0823 -0.0275
  180SLPC  H11A20472   2.675   3.507   1.997  0.4103 -0.0945 -1.0035
  180SLPC  H11B20473   2.575   3.441   2.125 -1.6272 -1.6201 -0.3920
  180SLPC     P20474   2.329   3.532   2.066  0.0375  0.5260 -0.1727
  180SLPC   O1320475   2.219   3.600   1.995 -0.1028  0.3374  0.0305
  180SLPC   O1420476   2.320   3.394   2.103 -0.2230 -0.2076  0.6240
  180SLPC   O1220477   2.468   3.557   1.990 -0.1656  0.6414  0.6877
  180SLPC   O1120478   2.354   3.609   2.194  0.1713 -0.7648 -0.4317
  180SLPC    C120479   2.350   3.551   2.322 -0.7097 -0.6632  0.2033
  180SLPC    HA20480   2.418   3.464   2.319  1.1725  0.7986 -0.0115
  180SLPC    HB20481   2.379   3.622   2.402 -2.9386  1.0608 -0.4761
  180SLPC    C220482   2.196   3.505   2.359 -0.0598  0.3540 -0.8002
  180SLPC    HS20483   2.148   3.443   2.280 -1.7170  0.3251  0.2218
  180SLPC   O2120484   2.123   3.627   2.382  0.3700 -1.2928  0.5886
  180SLPC   C2120485   1.990   3.614   2.364 -0.0550  0.5212  0.6894
  180SLPC   O2220486   1.933   3.510   2.329 -0.4402 -0.6932 -0.6363
  180SLPC   C2220487   1.928   3.742   2.391  1.0657  0.1726  0.6167
  180SLPC   H2R20488   1.925   3.762   2.500  2.8946  0.9934  0.5333
  180SLPC   H2S20489   1.997   3.821   2.354  1.2989 -1.2420 -2.1020
  180SLPC    C320490   2.205   3.425   2.490 -0.3181 -0.0092 -0.1656
  180SLPC    HX20491   2.269   3.342   2.452 -1.8933 -0.7043 -1.3443
  180SLPC    HY20492   2.102   3.388   2.508 -2.2879  4.0642 -2.2874
  180SLPC   O3120493   2.265   3.499   2.597  0.2579  0.4412 -0.3970
  180SLPC   C3120494   2.182   3.567   2.665 -0.2989 -0.3412 -0.0695
  180SLPC   O3220495   2.062   3.554   2.664  0.2073 -0.6456 -0.3986
  180SLPC   C3220496   2.250   3.661   2.764 -0.2028 -0.0404 -0.1213
  180SLPC   H2X20497   2.329   3.726   2.722  1.0142 -1.2367  0.2707
  180SLPC   H2Y20498   2.299   3.587   2.831  0.7021  0.3898 -0.2983
  180SLPC   C2320499   1.780   3.765   2.348  0.8838 -0.3281 -0.1631
  180SLPC   H3R20500   1.719   3.684   2.393  1.0705 -0.3031  0.1351
  180SLPC   H3S20501   1.791   3.749   2.238  1.3868  0.4870 -0.2420
  180SLPC   C2420502   1.728   3.903   2.395  0.0523  0.2965 -0.2757
  180SLPC   H4R20503   1.636   3.940   2.344  0.6254  1.1878 -0.6775
  180SLPC   H4S20504   1.804   3.984   2.397 -0.0658  0.4467 -1.8355
  180SLPC   C2520505   1.686   3.882   2.545 -0.0378  0.7371  0.1855
  180SLPC   H5R20506   1.769   3.833   2.602 -0.7207 -1.9500 -1.0565
  180SLPC   H5S20507   1.608   3.806   2.568  1.6245 -0.9573  0.3752
  180SLPC   C2620508   1.644   4.002   2.619  0.1802  0.1112 -0.3355
  180SLPC   H6R20509   1.625   3.969   2.724 -0.6424  3.5915  0.6470
  180SLPC   H6S20510   1.560   4.059   2.575  1.0638  1.1675 -0.6651
  180SLPC   C2720511   1.765   4.105   2.630 -0.4431 -0.2795 -0.6913
  180SLPC   H7R20512   1.784   4.159   2.535  0.1442  0.2142 -0.2914
  180SLPC   H7S20513   1.856   4.049   2.662 -1.3905 -0.7537  1.2228
  180SLPC   C2820514   1.744   4.224   2.733  1.0035  0.5958 -0.1328
  180SLPC   H8R20515   1.836   4.284   2.747 -0.0683  2.2456  0.0619
  180SLPC   H8S20516   1.711   4.169   2.823 -0.3673 -0.2853 -1.1520
  180SLPC   C2920517   1.629   4.313   2.687  0.5856  0.7014  0.6038
  180SLPC   H9R20518   1.635   4.332   2.579 -0.1589 -0.7299  0.2971
  180SLPC  C21020519   1.534   4.367   2.767  1.2156  0.0018  0.4007
  180SLPC  H10R20520   1.472   4.446   2.723  0.8396 -1.1710 -1.2268
  180SLPC  C21120521   1.519   4.344   2.909 -0.4855 -0.0076 -0.9056
  180SLPC  H11R20522   1.440   4.411   2.948 -1.7047 -1.3454 -0.9881
  180SLPC  H11S20523   1.611   4.372   2.963 -1.1521  0.4148  0.0261
  180SLPC  C21220524   1.474   4.200   2.940 -0.0603  0.2071  0.0940
  180SLPC  H12R20525   1.380   4.177   2.888  1.0000 -1.1962 -1.2493
  180SLPC  C21320526   1.530   4.103   3.015 -0.1783 -0.1530  0.0748
  180SLPC  H13R20527   1.475   4.009   3.031 -1.4165  0.0498 -2.7700
  180SLPC  C21420528   1.657   4.110   3.100 -0.5135  0.6425  0.6311
  180SLPC  H14R20529   1.646   4.163   3.197  2.1406  1.8744  0.2850
  180SLPC  H14S20530   1.737   4.159   3.041  2.1265 -3.8334  0.2972
  180SLPC  C21520531   1.705   3.961   3.129 -0.3642 -0.3708  0.1148
  180SLPC  H15R20532   1.629   3.912   3.194 -1.7721 -1.8319 -2.5351
  180SLPC  H15S20533   1.797   3.954   3.190 -1.9439  1.4187  2.8629
  180SLPC  C21620534   1.734   3.866   3.012 -0.4972  0.0620 -0.1602
  180SLPC  H16R20535   1.828   3.898   2.962 -1.1643  1.1443 -0.7402
  180SLPC  H16S20536   1.664   3.879   2.927 -1.1230 -0.0590  0.3367
  180SLPC  C21720537   1.737   3.714   3.052  0.8393  0.0666 -0.3126
  180SLPC  H17R20538   1.660   3.702   3.132  0.7480 -0.5204 -0.4890
  180SLPC  H17S20539   1.834   3.690   3.101  0.7715 -2.7868 -1.4726
  180SLPC  C21820540   1.715   3.630   2.927  0.1722 -0.2270 -0.0102
  180SLPC  H18R20541   1.712   3.521   2.948 -1.3568  0.0560  1.3441
  180SLPC  H18S20542   1.769   3.661   2.835  1.7654 -1.0037  0.6471
  180SLPC  H18T20543   1.612   3.638   2.887  0.5545 -3.9402 -1.9900
  180SLPC   C3320544   2.161   3.758   2.855  0.2054  0.6014 -0.4098
  180SLPC   H3X20545   2.070   3.707   2.895  0.8679  0.3072  0.7370
  180SLPC   H3Y20546   2.126   3.839   2.787  2.6444  4.0336  2.2527
  180SLPC   C3420547   2.242   3.801   2.973 -0.0059 -0.4200 -0.6588
  180SLPC   H4X20548   2.352   3.793   2.962 -0.3705 -2.6094 -3.0789
  180SLPC   H4Y20549   2.212   3.735   3.057  1.0898 -1.1910 -0.8624
  180SLPC   C3520550   2.204   3.938   3.016  0.2617  0.3716  0.3287
  180SLPC   H5X20551   2.093   3.943   3.008  0.2422 -1.4637 -0.6873
  180SLPC   H5Y20552   2.247   4.009   2.942 -1.1578 -0.4620 -1.3375
  180SLPC   C3620553   2.247   3.979   3.158  0.5604  0.7136 -0.0020
  180SLPC   H6X20554   2.357   3.975   3.167  0.4855  0.3049  0.7572
  180SLPC   H6Y20555   2.203   3.907   3.229  1.3695 -0.0476 -0.2739
  180SLPC   C3720556   2.189   4.120   3.200 -0.6725  0.1253  0.1389
  180SLPC   H7X20557   2.083   4.098   3.223 -0.9399 -1.4091 -2.3247
  180SLPC   H7Y20558   2.196   4.200   3.123 -1.2329 -1.1517 -1.2742
  180SLPC   C3820559   2.267   4.184   3.328  1.2190  0.0162  0.0739
  180SLPC   H8X20560   2.218   4.282   3.348 -0.4520 -0.3052 -2.2956
  180SLPC   H8Y20561   2.371   4.198   3.292  0.5310 -1.1684 -2.4884
  180SLPC   C3920562   2.260   4.081   3.450 -0.7017 -0.8516  0.2060
  180SLPC   H9X20563   2.328   3.996   3.426  1.6585  0.7778  0.9149
  180SLPC   H9Y20564   2.159   4.038   3.468  0.4614 -3.1627  1.4567
  180SLPC  C31020565   2.299   4.141   3.581 -0.7861 -0.2134  0.7269
  180SLPC  H10X20566   2.237   4.233   3.586  1.4539  1.5361 -1.8066
  180SLPC  H10Y20567   2.408   4.163   3.583 -0.0798 -2.9480 -2.3988
  180SLPC  C31120568   2.268   4.058   3.710 -0.7421  0.3685 -0.8465
  180SLPC  H11X20569   2.167   4.012   3.698 -2.1113  2.8989  0.5982
  180SLPC  H11Y20570   2.271   4.118   3.803  0.3872  0.2495 -0.7997
  180SLPC  C31220571   2.370   3.945   3.733  0.4858  0.5994  0.1724
  180SLPC  H12X20572   2.471   3.992   3.736 -0.3602  2.5252 -0.6536
  180SLPC  H12Y20573   2.370   3.886   3.639  0.6032  0.4602  0.2589
  180SLPC  C31320574   2.342   3.855   3.854  0.1840  0.5814  0.3035
  180SLPC  H13X20575   2.366   3.746   3.849 -1.6793  0.1641  0.0644
  180SLPC  H13Y20576   2.238   3.863   3.894 -0.5854  1.7630 -1.8644
  180SLPC  C31420577   2.444   3.896   3.960  0.4592 -0.2286 -0.0759
  180SLPC  H14X20578   2.428   4.005   3.978  1.0759  0.3283 -2.5981
  180SLPC  H14Y20579   2.545   3.886   3.915  0.6088 -2.3586  0.7032
  180SLPC  C31520580   2.459   3.812   4.087  0.1196 -0.4491 -0.0159
  180SLPC  H15X20581   2.497   3.710   4.067 -0.9591 -0.4786 -2.0083
  180SLPC  H15Y20582   2.358   3.817   4.134 -0.9334  2.0157 -2.3990
  180SLPC  C31620583   2.561   3.871   4.188  0.3131 -0.0709 -0.0494
  180SLPC  H16X20584   2.525   3.974   4.208 -4.2798 -1.2424 -1.5681
  180SLPC  H16Y20585   2.656   3.895   4.136  3.0723 -2.7702  3.4726
  180SLPC  C31720586   2.599   3.793   4.311  0.8722  0.0113  0.1744
  180SLPC  H17X20587   2.506   3.768   4.368 -1.6212 -0.3962 -3.8402
  180SLPC  H17Y20588   2.663   3.861   4.371  3.6043 -0.7005 -1.8555
  180SLPC  C31820589   2.672   3.657   4.291 -0.1118  0.3441 -0.1083
  180SLPC  H18X20590   2.743   3.672   4.206  2.6882 -1.5330  1.8375
  180SLPC  H18Y20591   2.602   3.574   4.267 -0.9603  1.3364 -1.1599
  180SLPC  H18Z20592   2.728   3.623   4.380 -1.5934 -0.9733  0.3375
  181SLPC     N20593   1.496   1.690   2.126  0.0700  0.3930 -0.4664
  181SLPC   C1320594   1.519   1.555   2.180 -0.4784 -0.4026 -0.1947
  181SLPC  H13A20595   1.584   1.560   2.266  0.6781 -0.0682 -1.0881
  181SLPC  H13B20596   1.431   1.496   2.202 -0.7037 -0.5072 -1.3512
  181SLPC  H13C20597   1.560   1.497   2.100  1.2522 -1.8770  1.7178
  181SLPC   C1420598   1.431   1.680   1.989  0.2326 -0.6173  0.0388
  181SLPC  H14A20599   1.469   1.594   1.936 -1.5021 -0.2242 -1.9322
  181SLPC  H14B20600   1.326   1.663   2.007 -0.1413  1.1336 -0.3691
  181SLPC  H14C20601   1.439   1.778   1.944  0.6641 -0.3180  0.7722
  181SLPC   C1520602   1.632   1.748   2.107  0.4483  0.1416 -0.4009
  181SLPC  H15A20603   1.635   1.852   2.079 -2.0071  0.7757  1.5179
  181SLPC  H15B20604   1.681   1.737   2.203  1.1911 -1.3553 -0.9451
  181SLPC  H15C20605   1.687   1.695   2.032 -0.3245 -0.4355 -0.5688
  181SLPC   C1220606   1.408   1.781   2.218  0.0850 -0.2362 -0.4891
  181SLPC  H12A20607   1.314   1.738   2.252  0.0669 -0.5202 -0.8921
  181SLPC  H12B20608   1.374   1.865   2.161  1.8701  0.3454 -0.7204
  181SLPC   C1120609   1.475   1.841   2.339 -0.2725 -0.1198  0.0966
  181SLPC  H11A20610   1.542   1.765   2.386  2.0439  1.8220  0.0367
  181SLPC  H11B20611   1.401   1.877   2.414  0.7169  2.1789 -0.0004
  181SLPC     P20612   1.507   2.087   2.268 -0.2519  0.2475 -0.0094
  181SLPC   O1320613   1.602   2.142   2.173 -0.4407 -0.3033  0.4452
  181SLPC   O1420614   1.365   2.077   2.224  0.4663 -0.0174 -0.7490
  181SLPC   O1220615   1.560   1.946   2.314 -0.2352  0.3421 -0.0474
  181SLPC   O1120616   1.516   2.172   2.397 -0.2542 -0.2757  0.0011
  181SLPC    C120617   1.402   2.180   2.488  0.0114  0.0676  0.1197
  181SLPC    HA20618   1.304   2.185   2.437  0.4970  1.2223 -0.7111
  181SLPC    HB20619   1.404   2.093   2.556 -0.1811  1.9601  2.6252
  181SLPC    C220620   1.411   2.292   2.605 -0.0825 -0.3036 -0.0095
  181SLPC    HS20621   1.414   2.393   2.559 -0.0848  0.2486  1.1660
  181SLPC   O2120622   1.526   2.269   2.682 -0.4343  0.3888 -0.3307
  181SLPC   C2120623   1.565   2.373   2.763 -0.1162  0.0948  0.8031
  181SLPC   O2220624   1.517   2.485   2.762 -0.4821 -0.4589  0.4329
  181SLPC   C2220625   1.683   2.322   2.851  0.5708 -1.1304  0.1454
  181SLPC   H2R20626   1.717   2.223   2.815 -1.0817 -1.2238 -1.2587
  181SLPC   H2S20627   1.762   2.395   2.823  1.1623 -1.6211  0.5542
  181SLPC    C320628   1.269   2.303   2.684 -0.5185  0.0270  0.4507
  181SLPC    HX20629   1.202   2.322   2.597 -2.6319 -0.3080  1.9583
  181SLPC    HY20630   1.270   2.382   2.762 -1.0551 -1.4482  1.9741
  181SLPC   O3120631   1.230   2.178   2.736  0.1383 -0.3452  0.1388
  181SLPC   C3120632   1.275   2.147   2.856  0.6467  0.3263  0.2931
  181SLPC   O3220633   1.314   2.224   2.940  0.1914 -0.4923 -0.2249
  181SLPC   C3220634   1.246   1.999   2.876  0.6255  0.3621  0.2161
  181SLPC   H2X20635   1.200   1.955   2.785 -0.6551 -0.8710  1.4456
  181SLPC   H2Y20636   1.176   2.001   2.962 -2.6295  0.3103 -2.3293
  181SLPC   C2320637   1.642   2.321   3.001 -0.2040  0.7583 -0.2789
  181SLPC   H3R20638   1.550   2.258   3.004  1.3798 -1.5293  1.5422
  181SLPC   H3S20639   1.610   2.420   3.040  1.2666  1.2800 -0.3673
  181SLPC   C2420640   1.748   2.259   3.100  0.1950 -0.0752  0.2514
  181SLPC   H4R20641   1.836   2.327   3.098 -1.2501  1.8279 -2.2162
  181SLPC   H4S20642   1.770   2.155   3.066 -0.2877 -0.1010  0.0246
  181SLPC   C2520643   1.701   2.250   3.245  0.7787 -1.0718  0.5144
  181SLPC   H5R20644   1.618   2.176   3.250 -0.0405 -0.0424  2.8659
  181SLPC   H5S20645   1.662   2.348   3.279  0.8092 -0.3006 -1.5789
  181SLPC   C2620646   1.809   2.200   3.344  0.1649  0.0694 -0.1105
  181SLPC   H6R20647   1.892   2.274   3.351  0.5864 -0.5093  1.1864
  181SLPC   H6S20648   1.864   2.118   3.292  0.6352 -0.2184  0.8313
  181SLPC   C2720649   1.757   2.157   3.477 -0.4810  0.7791  0.2779
  181SLPC   H7R20650   1.752   2.046   3.483 -1.3506  0.8162  0.3606
  181SLPC   H7S20651   1.654   2.197   3.488 -0.4755  1.0172 -0.5213
  181SLPC   C2820652   1.830   2.225   3.591 -0.3361  0.2206 -0.9808
  181SLPC   H8R20653   1.754   2.226   3.672  1.2456 -0.8620  0.5374
  181SLPC   H8S20654   1.854   2.329   3.561  0.1874 -0.1251 -1.7674
  181SLPC   C2920655   1.956   2.153   3.639  0.3459  0.2662  0.5565
  181SLPC   H9R20656   2.044   2.187   3.581 -0.3463  0.2440 -0.5170
  181SLPC  C21020657   1.967   2.065   3.737  0.3285 -0.1565  0.4848
  181SLPC  H10R20658   2.060   2.037   3.789 -0.5323 -0.2651  2.0059
  181SLPC  C21120659   1.849   2.005   3.808 -0.1013 -0.3821 -0.7348
  181SLPC  H11R20660   1.759   2.017   3.743 -1.0647  0.3864  0.7069
  181SLPC  H11S20661   1.834   2.057   3.905 -0.3615 -2.1449  0.1919
  181SLPC  C21220662   1.858   1.858   3.832 -0.2546 -0.2286  0.5568
  181SLPC  H12R20663   1.863   1.783   3.751  1.1758  0.3952  0.0573
  181SLPC  C21320664   1.839   1.808   3.955  0.2224  0.2309  0.3301
  181SLPC  H13R20665   1.831   1.700   3.976 -0.9972  0.3659  0.5889
  181SLPC  C21420666   1.814   1.884   4.084 -0.4622  0.6986  0.2333
  181SLPC  H14R20667   1.703   1.879   4.091 -0.2238 -2.4801  2.9576
  181SLPC  H14S20668   1.856   1.986   4.096  0.8101  0.0731  1.1809
  181SLPC  C21520669   1.866   1.815   4.218 -0.0595 -0.0475  0.4835
  181SLPC  H15R20670   1.853   1.705   4.211  1.3353 -0.2534  0.9394
  181SLPC  H15S20671   1.800   1.854   4.298  0.6056  2.9742 -0.3754
  181SLPC  C21620672   2.015   1.840   4.257  0.4269 -0.8288 -0.4005
  181SLPC  H16R20673   2.023   1.829   4.367 -0.6771  1.3045 -0.0963
  181SLPC  H16S20674   2.039   1.940   4.215  0.8388 -0.8453 -0.2104
  181SLPC  C21720675   2.108   1.739   4.189  0.7232  0.3579  0.0971
  181SLPC  H17R20676   2.072   1.722   4.085  1.6885  2.1231 -0.5397
  181SLPC  H17S20677   2.102   1.639   4.237 -0.8585  1.0521  1.3593
  181SLPC  C21820678   2.249   1.791   4.166 -0.1789  0.4183 -0.2120
  181SLPC  H18R20679   2.243   1.895   4.129 -0.0539  0.5740  0.1988
  181SLPC  H18S20680   2.302   1.733   4.087 -3.5449 -0.5772 -1.8427
  181SLPC  H18T20681   2.306   1.783   4.261  2.4013  1.8853 -1.6114
  181SLPC   C3320682   1.378   1.924   2.915 -0.2431 -0.0085 -0.0521
  181SLPC   H3X20683   1.342   1.831   2.964  1.9406 -0.4815  0.7642
  181SLPC   H3Y20684   1.424   1.977   3.001  1.1464  1.0302 -1.4043
  181SLPC   C3420685   1.472   1.883   2.796  0.3594 -0.4995  1.1848
  181SLPC   H4X20686   1.499   1.979   2.748 -0.0955 -1.4967 -1.1592
  181SLPC   H4Y20687   1.420   1.825   2.716 -1.6972  1.1298  1.3236
  181SLPC   C3520688   1.599   1.804   2.846  0.0916 -0.1356 -0.1695
  181SLPC   H5X20689   1.679   1.811   2.769 -0.3274  1.9013 -0.4455
  181SLPC   H5Y20690   1.564   1.699   2.853 -1.1673  0.3354  0.7002
  181SLPC   C3620691   1.656   1.851   2.980  0.1583 -0.2245 -0.3646
  181SLPC   H6X20692   1.589   1.834   3.067  1.6040 -2.4479  0.3465
  181SLPC   H6Y20693   1.672   1.961   2.975 -1.0717  0.0674  1.6719
  181SLPC   C3720694   1.777   1.770   3.030 -0.4659  0.0747  0.2680
  181SLPC   H7X20695   1.865   1.776   2.962 -0.1114  0.8687  0.7832
  181SLPC   H7Y20696   1.739   1.667   3.041 -0.7252  0.2248  0.7864
  181SLPC   C3820697   1.811   1.819   3.169 -0.3538 -0.1065 -0.1619
  181SLPC   H8X20698   1.747   1.766   3.242  3.6712 -0.6159  3.2196
  181SLPC   H8Y20699   1.792   1.927   3.186 -0.8858 -0.3946  1.1124
  181SLPC   C3920700   1.963   1.806   3.202 -0.0410 -0.2731  0.2160
  181SLPC   H9X20701   2.006   1.857   3.114  0.7526 -0.9487  0.2080
  181SLPC   H9Y20702   1.983   1.697   3.198 -2.2817 -0.8948  3.2026
  181SLPC  C31020703   1.991   1.868   3.340  0.0677  0.6020 -0.3934
  181SLPC  H10X20704   1.921   1.834   3.419 -1.4685 -0.1493 -2.0422
  181SLPC  H10Y20705   1.980   1.979   3.348  0.8007  0.5836  1.0266
  181SLPC  C31120706   2.137   1.835   3.371 -0.1653 -0.3615 -0.4816
  181SLPC  H11X20707   2.204   1.872   3.291 -0.7834 -0.0183 -0.8438
  181SLPC  H11Y20708   2.156   1.726   3.379 -1.0501 -0.5258 -0.5535
  181SLPC  C31220709   2.174   1.897   3.505  0.4418 -0.1837 -0.6070
  181SLPC  H12X20710   2.111   1.852   3.584  1.3929 -0.6616 -0.1178
  181SLPC  H12Y20711   2.164   2.007   3.514  0.1884 -0.2289 -0.3412
  181SLPC  C31320712   2.316   1.864   3.553  0.2575  0.2200  0.0126
  181SLPC  H13X20713   2.391   1.907   3.483  0.2626  0.4276  0.1466
  181SLPC  H13Y20714   2.320   1.753   3.556  2.1880  0.1702 -2.3895
  181SLPC  C31420715   2.344   1.920   3.686 -0.0113  0.6211 -1.0492
  181SLPC  H14X20716   2.268   1.894   3.762 -0.3907  0.8827 -1.3353
  181SLPC  H14Y20717   2.352   2.031   3.680  0.5101  0.7358  1.2066
  181SLPC  C31520718   2.471   1.871   3.752 -0.8500 -0.3258 -0.2682
  181SLPC  H15X20719   2.562   1.884   3.688  0.4999 -1.4866  1.3669
  181SLPC  H15Y20720   2.472   1.761   3.770  0.8449  0.0538  2.1427
  181SLPC  C31620721   2.494   1.944   3.886  0.2155  0.1940  0.0389
  181SLPC  H16X20722   2.394   1.961   3.931 -0.6390 -1.3445 -1.2399
  181SLPC  H16Y20723   2.531   2.046   3.861 -1.7689  1.6729  2.8529
  181SLPC  C31720724   2.583   1.869   3.990  0.7070  0.0282 -0.3666
  181SLPC  H17X20725   2.545   1.766   4.005  2.1999 -0.2217  1.8555
  181SLPC  H17Y20726   2.579   1.927   4.084  1.6429 -0.7441  0.1630
  181SLPC  C31820727   2.727   1.853   3.948 -0.2092  0.3880  0.4898
  181SLPC  H18X20728   2.780   1.949   3.934 -0.4554  0.6685  1.4888
  181SLPC  H18Y20729   2.740   1.799   3.851  0.8430 -2.1476  1.9829
  181SLPC  H18Z20730   2.785   1.797   4.024 -0.4499  1.6416  1.6043
  182SLPC     N20731   2.428   6.338   1.779  0.1838 -0.3854 -0.0650
  182SLPC   C1320732   2.516   6.240   1.715  0.1564  0.1452  0.1327
  182SLPC  H13A20733   2.603   6.230   1.778 -1.2187  1.4248  2.2955
  182SLPC  H13B20734   2.466   6.145   1.703  0.3779 -0.1940  1.8429
  182SLPC  H13C20735   2.562   6.286   1.629  0.7403 -0.1187  0.3020
  182SLPC   C1420736   2.298   6.348   1.708  0.8780  0.0121 -0.4905
  182SLPC  H14A20737   2.317   6.365   1.603  0.7597 -2.3699 -0.9376
  182SLPC  H14B20738   2.228   6.265   1.704  0.0529  0.5424  1.9621
  182SLPC  H14C20739   2.233   6.424   1.748  0.8558 -1.1870  1.8697
  182SLPC   C1520740   2.494   6.471   1.772  0.7411 -0.7704  0.0987
  182SLPC  H15A20741   2.543   6.491   1.678 -1.1617  2.1460 -0.3273
  182SLPC  H15B20742   2.425   6.550   1.798 -0.3926 -1.5308 -0.5884
  182SLPC  H15C20743   2.573   6.476   1.846  1.9502  1.0475 -1.2730
  182SLPC   C1220744   2.416   6.297   1.926  0.2540  0.3938  1.4355
  182SLPC  H12A20745   2.400   6.190   1.930  0.2203  0.3757  0.9178
  182SLPC  H12B20746   2.325   6.340   1.964  0.0449  1.1145  0.1423
  182SLPC   C1120747   2.527   6.307   2.041 -0.1737  0.1026 -0.2375
  182SLPC  H11A20748   2.464   6.304   2.132  0.6310  0.4575  0.3399
  182SLPC  H11B20749   2.571   6.407   2.020  2.0633 -0.5756  1.0421
  182SLPC     P20750   2.770   6.220   2.015  0.1350 -0.2959 -0.0303
  182SLPC   O1320751   2.855   6.107   2.010 -0.5619  0.5952 -0.2571
  182SLPC   O1420752   2.813   6.319   1.913  0.4128 -0.4430 -0.0734
  182SLPC   O1220753   2.613   6.192   2.018 -0.6378 -0.1865  0.3565
  182SLPC   O1120754   2.790   6.282   2.156  0.1742  0.5175 -0.3563
  182SLPC    C120755   2.745   6.200   2.267  0.1822 -0.1760 -0.6583
  182SLPC    HA20756   2.641   6.170   2.245 -0.5444  0.6226  1.5566
  182SLPC    HB20757   2.799   6.104   2.285 -0.7711 -0.7774 -0.9914
  182SLPC    C220758   2.723   6.284   2.399 -0.6278 -0.1551  0.7059
  182SLPC    HS20759   2.816   6.343   2.413 -1.5529  1.3898  0.3968
  182SLPC   O2120760   2.711   6.191   2.519 -0.5413 -0.4209  0.3225
  182SLPC   C2120761   2.743   6.252   2.630 -0.2914 -0.4803 -0.9641
  182SLPC   O2220762   2.803   6.356   2.643 -0.2052 -0.1632  0.1543
  182SLPC   C2220763   2.677   6.171   2.745  0.4885 -0.1287  0.1034
  182SLPC   H2R20764   2.570   6.155   2.722 -0.3167  0.6673  3.0556
  182SLPC   H2S20765   2.724   6.071   2.745 -0.7523 -0.7219  1.2001
  182SLPC    C320766   2.599   6.376   2.382  0.3394 -0.1706  0.3802
  182SLPC    HX20767   2.506   6.316   2.377  0.5085 -0.6161  2.1281
  182SLPC    HY20768   2.615   6.428   2.285 -2.2448  0.8142  0.4300
  182SLPC   O3120769   2.586   6.462   2.498 -0.0908  0.4120 -0.2619
  182SLPC   C3120770   2.570   6.593   2.480 -0.3201 -0.6243 -0.1931
  182SLPC   O3220771   2.562   6.644   2.370  0.5238  0.1283  0.0114
  182SLPC   C3220772   2.535   6.668   2.613 -0.3594  0.2081  0.4481
  182SLPC   H2X20773   2.440   6.726   2.612 -0.6517 -0.2599  0.8419
  182SLPC   H2Y20774   2.618   6.740   2.629  0.5771 -0.8217  0.2777
  182SLPC   C2320775   2.685   6.234   2.883 -0.7549  0.2476 -0.6507
  182SLPC   H3R20776   2.663   6.343   2.880 -0.6168  0.2817 -0.4632
  182SLPC   H3S20777   2.787   6.221   2.925 -1.0309 -1.3080 -0.4271
  182SLPC   C2420778   2.603   6.172   2.996 -0.6044 -0.8412  0.0062
  182SLPC   H4R20779   2.600   6.061   2.989  0.6585 -0.7038 -3.1726
  182SLPC   H4S20780   2.498   6.201   2.973 -0.6497 -0.4591  0.6684
  182SLPC   C2520781   2.648   6.219   3.134  0.1374 -0.4614  0.3222
  182SLPC   H5R20782   2.634   6.329   3.128 -2.4736 -0.8860 -3.3295
  182SLPC   H5S20783   2.755   6.190   3.138 -0.1402 -1.3605  1.4916
  182SLPC   C2620784   2.570   6.156   3.250  0.1857  0.6135 -0.2293
  182SLPC   H6R20785   2.580   6.046   3.247 -1.9363  0.2116  3.6626
  182SLPC   H6S20786   2.462   6.181   3.240 -0.0624 -0.1705  0.4685
  182SLPC   C2720787   2.606   6.214   3.392 -0.4263 -0.1648 -0.7303
  182SLPC   H7R20788   2.595   6.324   3.385 -0.3958 -0.1279 -0.2490
  182SLPC   H7S20789   2.710   6.184   3.417  0.6009  3.3046 -0.5849
  182SLPC   C2820790   2.517   6.157   3.510  0.8967  0.4038 -0.1118
  182SLPC   H8R20791   2.408   6.165   3.490  0.6463  1.8408  1.7107
  182SLPC   H8S20792   2.543   6.227   3.593  1.3151  0.1735 -0.0444
  182SLPC   C2920793   2.550   6.019   3.541  0.6415  0.3140 -0.4563
  182SLPC   H9R20794   2.491   5.945   3.485  2.1522 -0.9464 -0.3990
  182SLPC  C21020795   2.620   5.975   3.645  0.6199 -1.3643 -0.1879
  182SLPC  H10R20796   2.615   5.870   3.676  1.1249 -1.0214  1.0900
  182SLPC  C21120797   2.680   6.062   3.751 -0.3780  0.2281  0.3065
  182SLPC  H11R20798   2.602   6.102   3.819  0.4022 -0.1582  1.4301
  182SLPC  H11S20799   2.720   6.149   3.694  2.7603 -1.8869 -0.8440
  182SLPC  C21220800   2.782   6.006   3.839  0.0766 -0.6173 -0.4288
  182SLPC  H12R20801   2.783   5.897   3.856 -1.5665 -1.0093 -2.6879
  182SLPC  C21320802   2.869   6.075   3.912 -0.1052 -0.1125 -0.2356
  182SLPC  H13R20803   2.934   6.030   3.989 -2.0725 -0.7747  1.0547
  182SLPC  C21420804   2.882   6.226   3.911 -0.3312 -0.0794 -0.7657
  182SLPC  H14R20805   2.813   6.272   3.837 -0.8845 -0.1948 -0.3233
  182SLPC  H14S20806   2.985   6.246   3.874 -0.7794 -0.3746 -2.2304
  182SLPC  C21520807   2.856   6.291   4.047  0.2842 -0.0222 -0.0100
  182SLPC  H15R20808   2.864   6.401   4.041  1.4780  0.0819  2.7673
  182SLPC  H15S20809   2.922   6.251   4.126  0.8556  1.7978  0.4400
  182SLPC  C21620810   2.712   6.265   4.089  0.1130 -0.3364 -0.3524
  182SLPC  H16R20811   2.694   6.160   4.119 -0.6820 -0.3376 -0.8023
  182SLPC  H16S20812   2.643   6.294   4.007 -1.1512 -1.1841  0.3906
  182SLPC  C21720813   2.684   6.345   4.213  0.4264  0.1484 -0.1469
  182SLPC  H17R20814   2.716   6.451   4.199  1.1804  0.0184  0.5425
  182SLPC  H17S20815   2.754   6.320   4.296  3.1464  1.8649 -1.8117
  182SLPC  C21820816   2.539   6.334   4.271 -0.2977 -0.3646 -0.1967
  182SLPC  H18R20817   2.459   6.355   4.198 -1.0033 -0.2411  0.6064
  182SLPC  H18S20818   2.530   6.392   4.365  2.0723 -4.0295  2.4465
  182SLPC  H18T20819   2.530   6.233   4.317 -1.8132 -0.1240  0.0642
  182SLPC   C3320820   2.516   6.580   2.733  0.3694 -0.1975 -0.5079
  182SLPC   H3X20821   2.612   6.537   2.769 -0.7113 -1.9416  0.4023
  182SLPC   H3Y20822   2.446   6.497   2.708  1.5348 -1.0781 -0.9146
  182SLPC   C3420823   2.466   6.650   2.860 -0.2268 -0.2457  0.3429
  182SLPC   H4X20824   2.357   6.672   2.860 -0.5600 -1.6227  3.3907
  182SLPC   H4Y20825   2.522   6.744   2.879  0.7243 -0.5782 -0.7354
  182SLPC   C3520826   2.492   6.564   2.985 -0.0307  0.0655  0.0385
  182SLPC   H5X20827   2.600   6.539   2.993 -0.2368 -0.6563  0.6184
  182SLPC   H5Y20828   2.428   6.474   2.979 -1.5971  1.0803  1.1591
  182SLPC   C3620829   2.456   6.634   3.112 -0.2408  0.1332 -0.5355
  182SLPC   H6X20830   2.362   6.690   3.097 -0.7669 -1.0782 -1.8169
  182SLPC   H6Y20831   2.535   6.708   3.137 -1.2256  0.9859  0.0505
  182SLPC   C3720832   2.435   6.535   3.231 -0.0594 -0.1959  0.0640
  182SLPC   H7X20833   2.529   6.475   3.235 -0.5033 -1.1994 -3.4188
  182SLPC   H7Y20834   2.357   6.462   3.200  2.6695 -2.5462 -1.4812
  182SLPC   C3820835   2.388   6.602   3.357 -0.2038  0.2518 -0.7142
  182SLPC   H8X20836   2.294   6.658   3.339 -0.3759  0.1118 -0.2661
  182SLPC   H8Y20837   2.466   6.674   3.391  0.0590  0.3943 -1.6146
  182SLPC   C3920838   2.377   6.505   3.473 -0.3766  0.2413 -0.0596
  182SLPC   H9X20839   2.480   6.473   3.501  0.9474  2.8500 -1.8007
  182SLPC   H9Y20840   2.330   6.409   3.445 -0.0260  0.5552 -1.7913
  182SLPC  C31020841   2.293   6.562   3.591  0.0367 -0.2279 -0.4429
  182SLPC  H10X20842   2.192   6.588   3.554 -0.6535 -0.2500  1.3781
  182SLPC  H10Y20843   2.348   6.650   3.630  2.7628 -1.6104 -0.9831
  182SLPC  C31120844   2.273   6.455   3.706  0.2122  0.0513  0.7797
  182SLPC  H11X20845   2.230   6.503   3.796 -0.0862 -0.2962  0.8268
  182SLPC  H11Y20846   2.374   6.422   3.738  0.9505 -0.7530 -2.2134
  182SLPC  C31220847   2.175   6.342   3.672  0.0440 -0.1973 -0.0166
  182SLPC  H12X20848   2.207   6.285   3.583 -0.9126 -1.3308  0.3478
  182SLPC  H12Y20849   2.072   6.370   3.641 -1.2929 -4.3800  0.3824
  182SLPC  C31320850   2.153   6.243   3.788  0.3321 -0.1717 -0.7258
  182SLPC  H13X20851   2.090   6.158   3.755 -0.2945  0.2648 -0.6659
  182SLPC  H13Y20852   2.108   6.292   3.877  2.5358  0.6856 -0.0218
  182SLPC  C31420853   2.284   6.186   3.845  0.3872  0.0089  0.2537
  182SLPC  H14X20854   2.343   6.268   3.892  3.0588  0.1465 -3.1554
  182SLPC  H14Y20855   2.337   6.138   3.759 -1.2119  1.0871 -1.3820
  182SLPC  C31520856   2.266   6.089   3.962  0.0766 -0.4799  0.0292
  182SLPC  H15X20857   2.187   6.017   3.931  1.3326 -1.8298 -0.0884
  182SLPC  H15Y20858   2.230   6.145   4.051 -1.0672 -0.8736 -0.1780
  182SLPC  C31620859   2.394   6.015   4.012 -0.3670  0.2449 -0.5984
  182SLPC  H16X20860   2.462   6.088   4.059 -0.3329 -0.6469  0.7491
  182SLPC  H16Y20861   2.453   5.979   3.925 -0.0669  1.0644 -0.7360
  182SLPC  C31720862   2.370   5.909   4.121  0.1849 -0.6922 -0.2775
  182SLPC  H17X20863   2.474   5.883   4.148  1.3896  2.7264 -1.3407
  182SLPC  H17Y20864   2.321   5.820   4.075  3.1890 -2.1224 -0.8099
  182SLPC  C31820865   2.294   5.957   4.242  0.3969  0.3454  0.0965
  182SLPC  H18X20866   2.334   6.041   4.303 -1.2473 -1.4235  3.7933
  182SLPC  H18Y20867   2.273   5.871   4.310 -1.1143  0.8354  0.2688
  182SLPC  H18Z20868   2.190   5.989   4.217  0.9941  0.8551 -1.7798
  183SLPC     N20869   0.303   4.002   2.259 -0.6125  0.8016  0.5873
  183SLPC   C1320870   0.243   4.067   2.140  0.3858  0.3666 -0.3348
  183SLPC  H13A20871   0.184   3.995   2.085 -2.2623  0.9377  1.6516
  183SLPC  H13B20872   0.170   4.143   2.164 -0.3901  0.3028 -2.3681
  183SLPC  H13C20873   0.318   4.116   2.080  2.3672 -0.9011  1.0175
  183SLPC   C1420874   0.389   4.099   2.339  0.6863 -0.7388  0.4054
  183SLPC  H14A20875   0.474   4.123   2.277 -1.7794  1.5006 -2.2537
  183SLPC  H14B20876   0.336   4.192   2.353 -1.6797 -1.9144 -0.4182
  183SLPC  H14C20877   0.422   4.057   2.433  1.7092  1.6994  1.1688
  183SLPC   C1520878   0.390   3.893   2.206 -0.5640 -0.1210  0.5539
  183SLPC  H15A20879   0.452   3.864   2.289  0.7320  0.2184 -0.2828
  183SLPC  H15B20880   0.334   3.808   2.168  0.1288 -0.4361  0.2360
  183SLPC  H15C20881   0.459   3.921   2.128  0.7742 -2.8808  0.6748
  183SLPC   C1220882   0.192   3.940   2.346  0.3637  0.6598  0.4391
  183SLPC  H12A20883   0.134   4.029   2.359  0.8494  1.5579 -3.0386
  183SLPC  H12B20884   0.230   3.907   2.442  0.6159 -1.5775 -0.3798
  183SLPC   C1120885   0.108   3.826   2.285  0.6729  1.0277  0.3301
  183SLPC  H11A20886   0.042   3.786   2.365 -0.4760 -0.0313 -1.1145
  183SLPC  H11B20887   0.173   3.746   2.244 -0.8279  0.5433 -1.1987
  183SLPC     P20888  -0.126   3.844   2.146  0.4004  0.2204 -0.5540
  183SLPC   O1320889  -0.158   3.889   2.006 -0.1995 -0.4843  0.7573
  183SLPC   O1420890  -0.161   3.707   2.176 -0.2442  0.1440  0.7033
  183SLPC   O1220891   0.030   3.864   2.169 -0.3407  0.2755 -0.0417
  183SLPC   O1120892  -0.202   3.946   2.244 -0.9517 -0.0915 -0.0963
  183SLPC    C120893  -0.135   4.074   2.257  0.6240  0.7412  0.2811
  183SLPC    HA20894  -0.033   4.065   2.299  0.6934  1.0254  0.1648
  183SLPC    HB20895  -0.126   4.123   2.158  2.2246  0.5965  0.3447
  183SLPC    C220896  -0.215   4.181   2.345  0.6609 -0.2113  0.1452
  183SLPC    HS20897  -0.141   4.251   2.387  1.4053 -0.7563 -0.2477
  183SLPC   O2120898  -0.284   4.106   2.454  0.1152 -0.1064  0.4722
  183SLPC   C2120899  -0.201   4.029   2.531 -0.4469  1.0913  0.6071
  183SLPC   O2220900  -0.082   4.054   2.553 -0.3260  0.4896  0.5978
  183SLPC   C2220901  -0.261   3.893   2.570 -0.5168  0.2911  0.5428
  183SLPC   H2R20902  -0.370   3.902   2.586 -0.9699 -1.9217 -1.0578
  183SLPC   H2S20903  -0.234   3.819   2.491  1.8291  1.0886  0.5455
  183SLPC    C320904  -0.319   4.268   2.261  0.6374 -0.3162  0.2918
  183SLPC    HX20905  -0.280   4.317   2.169 -1.3218 -2.6576 -1.8657
  183SLPC    HY20906  -0.352   4.356   2.320 -0.7756 -0.3649 -0.4104
  183SLPC   O3120907  -0.436   4.189   2.231 -0.2718 -0.2084 -0.6054
  183SLPC   C3120908  -0.431   4.127   2.110  0.3517  0.5836 -0.4083
  183SLPC   O3220909  -0.349   4.143   2.023  0.1751 -0.1977 -0.2839
  183SLPC   C3220910  -0.557   4.042   2.095  0.5097 -0.5435  0.1893
  183SLPC   H2X20911  -0.561   4.000   1.992  2.8896 -0.2499 -0.0661
  183SLPC   H2Y20912  -0.648   4.102   2.115  1.2402  0.0230  1.9015
  183SLPC   C2320913  -0.194   3.844   2.704 -0.3905  0.0394 -0.3306
  183SLPC   H3R20914  -0.084   3.863   2.710 -0.5668  1.5083 -1.3059
  183SLPC   H3S20915  -0.217   3.736   2.706 -1.6979  0.3048 -0.4959
  183SLPC   C2420916  -0.263   3.900   2.830 -0.1595  0.1456  1.1621
  183SLPC   H4R20917  -0.365   3.857   2.832  0.6122 -1.7296  4.9158
  183SLPC   H4S20918  -0.275   4.011   2.822 -1.4974 -0.0806 -0.3491
  183SLPC   C2520919  -0.197   3.862   2.956  0.5326  0.5080  0.8771
  183SLPC   H5R20920  -0.086   3.852   2.948  0.5512  0.3966  1.3027
  183SLPC   H5S20921  -0.223   3.756   2.977 -0.6639  0.8517  1.1546
  183SLPC   C2620922  -0.227   3.949   3.073 -0.4535 -0.1960 -0.1698
  183SLPC   H6R20923  -0.337   3.965   3.074 -0.4713 -0.0311 -2.0000
  183SLPC   H6S20924  -0.182   4.049   3.053  0.3489 -0.4053  0.5804
  183SLPC   C2720925  -0.170   3.901   3.205  0.4297  0.0600  0.0888
  183SLPC   H7R20926  -0.065   3.873   3.183  0.4221  2.3831 -3.4843
  183SLPC   H7S20927  -0.230   3.813   3.236 -1.6104  0.4933 -2.3939
  183SLPC   C2820928  -0.175   3.998   3.325 -0.1862  0.3040 -0.6653
  183SLPC   H8R20929  -0.110   4.089   3.326 -1.3263  1.1247  0.2544
  183SLPC   H8S20930  -0.141   3.946   3.417 -0.3580  0.0924 -0.7213
  183SLPC   C2920931  -0.316   4.048   3.345  0.1160 -0.4990 -0.1298
  183SLPC   H9R20932  -0.398   3.975   3.340  1.3721 -2.0179  1.0221
  183SLPC  C21020933  -0.347   4.179   3.359  0.5848  0.0079  0.6678
  183SLPC  H10R20934  -0.456   4.193   3.367  0.2019 -0.1100 -3.2981
  183SLPC  C21120935  -0.252   4.298   3.342  0.2898 -0.2327  0.5014
  183SLPC  H11R20936  -0.146   4.269   3.329 -0.3040 -2.0138 -0.6190
  183SLPC  H11S20937  -0.264   4.351   3.439  1.3692 -0.1295  0.5788
  183SLPC  C21220938  -0.303   4.375   3.218  0.0914 -0.1500 -0.1650
  183SLPC  H12R20939  -0.324   4.317   3.127 -3.0508 -0.8749  0.9608
  183SLPC  C21320940  -0.341   4.504   3.220 -0.1948 -0.0950  0.5666
  183SLPC  H13R20941  -0.388   4.551   3.133  0.3459 -0.9224 -0.1812
  183SLPC  C21420942  -0.337   4.597   3.337  0.4574 -1.1389 -0.4062
  183SLPC  H14R20943  -0.304   4.692   3.289  2.0709 -1.9946 -1.0077
  183SLPC  H14S20944  -0.262   4.573   3.415  2.0620 -2.1172 -2.2072
  183SLPC  C21520945  -0.483   4.621   3.400  0.3751  0.4241  0.3912
  183SLPC  H15R20946  -0.568   4.630   3.329  1.4354  0.0590 -0.9603
  183SLPC  H15S20947  -0.473   4.706   3.472 -0.9186  0.8071  0.1269
  183SLPC  C21620948  -0.516   4.524   3.508  0.6071  0.2454  0.0022
  183SLPC  H16R20949  -0.423   4.514   3.567  1.6802 -0.2337 -1.7304
  183SLPC  H16S20950  -0.546   4.426   3.465 -4.9463  2.3359 -1.3848
  183SLPC  C21720951  -0.634   4.557   3.604  0.8454  1.0181 -0.0654
  183SLPC  H17R20952  -0.734   4.555   3.556  1.4845  3.1900 -1.5477
  183SLPC  H17S20953  -0.630   4.667   3.621  1.1110  0.8553  0.9549
  183SLPC  C21820954  -0.647   4.467   3.728 -0.0171  0.8841 -0.1378
  183SLPC  H18R20955  -0.549   4.467   3.782 -0.5709  1.0767  0.8816
  183SLPC  H18S20956  -0.668   4.363   3.697 -1.4653  0.7586  1.1745
  183SLPC  H18T20957  -0.732   4.495   3.794 -0.7797  0.2070 -0.8282
  183SLPC   C3320958  -0.560   3.925   2.192 -0.0142  0.2725 -0.8584
  183SLPC   H3X20959  -0.523   3.952   2.294  0.4944  0.5105 -1.1027
  183SLPC   H3Y20960  -0.490   3.847   2.155  1.4064  0.5279  1.2106
  183SLPC   C3420961  -0.703   3.873   2.214  0.1357  0.0719  0.0554
  183SLPC   H4X20962  -0.737   3.820   2.122  1.0693  1.1578 -0.9295
  183SLPC   H4Y20963  -0.765   3.963   2.233 -1.2938 -0.8910  0.0051
  183SLPC   C3520964  -0.705   3.770   2.332 -0.5139 -1.1824  0.6860
  183SLPC   H5X20965  -0.669   3.670   2.300  2.3730  0.1345 -0.4088
  183SLPC   H5Y20966  -0.812   3.766   2.362 -0.5008  0.4672  1.0067
  183SLPC   C3620967  -0.636   3.813   2.460 -0.1966 -0.2647  0.5828
  183SLPC   H6X20968  -0.660   3.921   2.472  2.4457  0.5223 -0.7887
  183SLPC   H6Y20969  -0.526   3.803   2.444 -0.6430 -2.8793 -1.1425
  183SLPC   C3720970  -0.668   3.715   2.576  0.3979  0.5000 -0.7140
  183SLPC   H7X20971  -0.630   3.616   2.542  1.3464 -0.4020  2.7503
  183SLPC   H7Y20972  -0.779   3.717   2.576  0.4200  1.9721 -0.5617
  183SLPC   C3820973  -0.617   3.752   2.706  0.2071 -0.1950  0.3858
  183SLPC   H8X20974  -0.695   3.809   2.762 -1.6487 -0.3217 -2.0221
  183SLPC   H8Y20975  -0.533   3.826   2.705  1.7893 -1.9790 -2.0805
  183SLPC   C3920976  -0.569   3.630   2.782  0.4430  0.6931  0.6024
  183SLPC   H9X20977  -0.467   3.614   2.740  0.0493 -1.2970  0.3348
  183SLPC   H9Y20978  -0.613   3.534   2.749  1.3701  0.5907 -0.3801
  183SLPC  C31020979  -0.576   3.644   2.933 -0.3635 -0.2719  0.8714
  183SLPC  H10X20980  -0.679   3.659   2.971 -0.2455 -0.6494  1.3423
  183SLPC  H10Y20981  -0.522   3.740   2.951  1.8902 -1.7033  1.9461
  183SLPC  C31120982  -0.533   3.528   3.024  0.6346  0.6861 -0.5055
  183SLPC  H11X20983  -0.437   3.480   2.994  1.2711  0.1821  2.2553
  183SLPC  H11Y20984  -0.607   3.445   3.015  2.2529 -0.7058 -1.4640
  183SLPC  C31220985  -0.530   3.549   3.171 -1.0715 -0.5766  0.1979
  183SLPC  H12X20986  -0.563   3.460   3.229  0.2292 -1.6167 -0.6311
  183SLPC  H12Y20987  -0.602   3.628   3.202 -0.9580  0.8963 -3.1417
  183SLPC  C31320988  -0.392   3.579   3.220  0.4693  0.0907 -0.2844
  183SLPC  H13X20989  -0.361   3.663   3.154  0.4071  0.9881  0.8164
  183SLPC  H13Y20990  -0.320   3.498   3.194  0.1720  0.0719 -1.0819
  183SLPC  C31420991  -0.380   3.617   3.367 -0.1587 -0.3127 -0.1041
  183SLPC  H14X20992  -0.450   3.560   3.432  1.3935 -0.9257  1.0766
  183SLPC  H14Y20993  -0.425   3.716   3.387 -1.4538 -0.6616 -1.2682
  183SLPC  C31520994  -0.231   3.604   3.422 -0.3947  0.8460 -0.4942
  183SLPC  H15X20995  -0.168   3.670   3.359  0.4122 -0.1990 -0.7914
  183SLPC  H15Y20996  -0.211   3.497   3.402  2.7790  1.5069 -1.0530
  183SLPC  C31620997  -0.218   3.627   3.572  0.2895  0.6530 -0.2840
  183SLPC  H16X20998  -0.134   3.571   3.618 -0.6996 -1.6505 -1.1493
  183SLPC  H16Y20999  -0.313   3.592   3.618  0.1566  1.3490 -0.0254
  183SLPC  C31721000  -0.194   3.769   3.620 -0.2958 -0.1878 -0.4788
  183SLPC  H17X21001  -0.278   3.826   3.574 -0.2024  1.7948  1.7094
  183SLPC  H17Y21002  -0.095   3.798   3.580 -1.3940  0.1251 -3.0692
  183SLPC  C31821003  -0.215   3.787   3.771  0.6935 -0.2899 -0.9398
  183SLPC  H18X21004  -0.187   3.892   3.795  1.1620 -0.5816 -0.1854
  183SLPC  H18Y21005  -0.141   3.724   3.826 -1.1008  0.0699  2.0335
  183SLPC  H18Z21006  -0.315   3.754   3.805  0.8653 -2.3327 -2.3455
  184SLPC     N21007   0.188   5.647   2.041 -0.1435 -0.2768 -0.2581
  184SLPC   C1321008   0.182   5.687   2.185 -0.3750 -0.1811  0.6571
  184SLPC  H13A21009   0.213   5.789   2.204 -1.5011 -0.0238  1.6994
  184SLPC  H13B21010   0.079   5.693   2.216 -0.0179 -1.5428  2.1836
  184SLPC  H13C21011   0.238   5.620   2.249 -3.0448 -1.8324  1.3534
  184SLPC   C1421012   0.339   5.619   2.024 -0.4695 -0.4488  0.4665
  184SLPC  H14A21013   0.384   5.708   2.065 -0.0838  0.1365 -1.2052
  184SLPC  H14B21014   0.369   5.541   2.092 -0.1238  1.2493  2.3152
  184SLPC  H14C21015   0.365   5.599   1.922 -2.2842  0.0157 -0.1055
  184SLPC   C1521016   0.141   5.759   1.957  0.1409 -0.3621 -0.2581
  184SLPC  H15A21017   0.216   5.836   1.958 -1.9585  1.7177  1.4278
  184SLPC  H15B21018   0.113   5.717   1.861  1.6753 -0.2587 -0.7578
  184SLPC  H15C21019   0.052   5.796   2.006  1.0603  1.4866  0.0209
  184SLPC   C1221020   0.102   5.536   2.004 -0.4909 -0.2048  0.2087
  184SLPC  H12A21021   0.137   5.507   1.906 -0.8196  0.6018 -0.1549
  184SLPC  H12B21022   0.002   5.575   1.991  0.0457  0.9937 -0.3775
  184SLPC   C1121023   0.106   5.422   2.095  0.0525 -0.1128 -0.4451
  184SLPC  H11A21024   0.206   5.394   2.135 -0.8089 -0.5437  1.4902
  184SLPC  H11B21025   0.072   5.335   2.034  1.3194 -0.2857 -0.9311
  184SLPC     P21026  -0.131   5.427   2.198 -0.3487  0.4911 -0.1641
  184SLPC   O1321027  -0.184   5.555   2.151 -0.6415  0.3646 -0.1442
  184SLPC   O1421028  -0.155   5.307   2.113  0.0523 -0.0853  0.3825
  184SLPC   O1221029   0.024   5.436   2.218 -0.0075 -0.4700  0.0706
  184SLPC   O1121030  -0.179   5.401   2.343  0.7054 -0.3831 -0.0726
  184SLPC    C121031  -0.301   5.341   2.379  0.1907 -0.3788 -0.5618
  184SLPC    HA21032  -0.342   5.281   2.294  0.7482 -0.1209 -1.0155
  184SLPC    HB21033  -0.286   5.280   2.471 -0.9811  2.8207  1.8292
  184SLPC    C221034  -0.396   5.460   2.411 -0.0624 -0.6749 -0.2532
  184SLPC    HS21035  -0.392   5.541   2.336 -2.3090 -1.8510 -1.6996
  184SLPC   O2121036  -0.383   5.489   2.553 -0.1204 -0.3670 -0.2804
  184SLPC   C2121037  -0.311   5.600   2.578  0.0346  0.2916  0.3718
  184SLPC   O2221038  -0.260   5.671   2.494 -0.4036  0.5131  0.0780
  184SLPC   C2221039  -0.306   5.633   2.723  0.2720 -0.7840 -0.3818
  184SLPC   H2R21040  -0.329   5.538   2.777 -1.8448 -0.5027 -0.7478
  184SLPC   H2S21041  -0.201   5.660   2.749  0.0949 -2.4056  2.2164
  184SLPC    C321042  -0.542   5.414   2.386  0.3243 -0.1156  0.1331
  184SLPC    HX21043  -0.556   5.399   2.277  0.6764  1.2100 -0.0973
  184SLPC    HY21044  -0.609   5.499   2.409  1.4804  0.3049  2.1402
  184SLPC   O3121045  -0.574   5.286   2.458  0.4703  0.2990 -0.3802
  184SLPC   C3121046  -0.650   5.311   2.561 -0.8489  0.6292  0.1587
  184SLPC   O3221047  -0.701   5.417   2.591 -0.2077  0.3352 -0.0806
  184SLPC   C3221048  -0.670   5.181   2.640 -0.8820 -0.0513 -0.2198
  184SLPC   H2X21049  -0.659   5.098   2.566  1.0390 -1.8779  2.0376
  184SLPC   H2Y21050  -0.778   5.174   2.663 -0.9192  0.1908 -0.3246
  184SLPC   C2321051  -0.406   5.746   2.780  0.1092 -0.1354  0.8309
  184SLPC   H3R21052  -0.508   5.743   2.736  0.6168  0.6075 -0.4359
  184SLPC   H3S21053  -0.352   5.843   2.771  1.6930 -1.0080  0.7045
  184SLPC   C2421054  -0.438   5.732   2.924 -0.0783 -0.1541  0.0774
  184SLPC   H4R21055  -0.341   5.705   2.972  0.5191 -1.3957 -1.7952
  184SLPC   H4S21056  -0.493   5.638   2.943 -0.5111 -0.4251 -2.3719
  184SLPC   C2521057  -0.493   5.858   2.988  0.1427 -0.0008 -0.4852
  184SLPC   H5R21058  -0.591   5.873   2.937  0.2861  0.4172 -0.6385
  184SLPC   H5S21059  -0.414   5.935   2.980 -0.1109  0.3733  0.5073
  184SLPC   C2621060  -0.520   5.848   3.140  0.5041  0.1454 -0.6890
  184SLPC   H6R21061  -0.425   5.810   3.183  0.5268  0.3602 -0.5468
  184SLPC   H6S21062  -0.602   5.775   3.160  0.0390  1.7670  3.8170
  184SLPC   C2721063  -0.574   5.977   3.202  0.0735 -0.4962  0.4750
  184SLPC   H7R21064  -0.654   6.016   3.135  0.5268 -3.5397 -1.9112
  184SLPC   H7S21065  -0.497   6.057   3.195 -0.6318  0.4056  2.4362
  184SLPC   C2821066  -0.629   5.952   3.345  0.2014  0.5731 -0.4063
  184SLPC   H8R21067  -0.687   5.857   3.337  1.1216 -0.0765  0.5065
  184SLPC   H8S21068  -0.694   6.035   3.377  0.0516 -0.0810  0.9994
  184SLPC   C2921069  -0.526   5.931   3.448  0.1811  0.7406 -0.6101
  184SLPC   H9R21070  -0.470   5.837   3.439  0.0134  0.5282  0.4977
  184SLPC  C21021071  -0.479   6.018   3.541 -0.5670 -0.2776  0.6742
  184SLPC  H10R21072  -0.405   5.984   3.614 -0.4415  0.5678  0.9461
  184SLPC  C21121073  -0.517   6.159   3.563  0.2556  0.7438  0.3049
  184SLPC  H11R21074  -0.590   6.153   3.647 -0.2104 -1.9864 -0.2420
  184SLPC  H11S21075  -0.573   6.187   3.471  2.1213  1.2060 -0.7175
  184SLPC  C21221076  -0.407   6.255   3.582 -0.1234 -0.1295  0.0121
  184SLPC  H12R21077  -0.343   6.281   3.496 -0.0488  1.1572  0.4397
  184SLPC  C21321078  -0.373   6.320   3.694  0.9161  0.1033 -0.5516
  184SLPC  H13R21079  -0.289   6.391   3.697  1.2236 -0.3017  1.2666
  184SLPC  C21421080  -0.442   6.303   3.828  0.2590 -0.3941 -0.0770
  184SLPC  H14R21081  -0.456   6.198   3.862 -2.6305  0.4544  1.5355
  184SLPC  H14S21082  -0.548   6.325   3.803  0.7622  1.0781 -1.0421
  184SLPC  C21521083  -0.387   6.391   3.938 -0.4108  0.0128  0.4062
  184SLPC  H15R21084  -0.447   6.387   4.031 -0.2856  0.3836  0.5041
  184SLPC  H15S21085  -0.392   6.496   3.903  1.7313  1.0657  3.0293
  184SLPC  C21621086  -0.243   6.350   3.984  1.5760 -0.5119  0.9460
  184SLPC  H16R21087  -0.177   6.342   3.895  0.0424 -1.1004 -0.1606
  184SLPC  H16S21088  -0.255   6.247   4.023 -0.9000  0.4517  2.9136
  184SLPC  C21721089  -0.177   6.442   4.090  0.0706 -1.3391  0.3063
  184SLPC  H17R21090  -0.238   6.482   4.174  1.1000 -0.4833  0.6566
  184SLPC  H17S21091  -0.158   6.531   4.027 -3.6738 -0.9078 -0.3129
  184SLPC  C21821092  -0.045   6.382   4.149 -0.4007 -0.3311 -0.2395
  184SLPC  H18R21093  -0.006   6.463   4.214  3.9061 -3.2832  1.0229
  184SLPC  H18S21094   0.041   6.370   4.080 -0.0752 -0.2754  0.1574
  184SLPC  H18T21095  -0.060   6.290   4.210 -1.4742  0.4020  0.6251
  184SLPC   C3321096  -0.587   5.151   2.757 -0.6978 -0.0684 -0.1374
  184SLPC   H3X21097  -0.632   5.058   2.798 -0.8178 -0.2745 -0.7282
  184SLPC   H3Y21098  -0.594   5.232   2.833  2.3482 -0.7688  0.9581
  184SLPC   C3421099  -0.445   5.095   2.716  0.4535  0.2410 -0.0963
  184SLPC   H4X21100  -0.392   5.190   2.691 -2.0225  1.6370 -0.1516
  184SLPC   H4Y21101  -0.448   5.043   2.618  1.8974  1.7640 -0.9791
  184SLPC   C3521102  -0.383   4.999   2.823  0.0964 -0.2487 -0.2077
  184SLPC   H5X21103  -0.298   4.944   2.779 -1.3311 -2.4910 -0.2662
  184SLPC   H5Y21104  -0.453   4.915   2.847 -0.0245 -0.0023  0.3167
  184SLPC   C3621105  -0.333   5.065   2.949  0.0328 -0.4158 -0.5113
  184SLPC   H6X21106  -0.299   4.995   3.029 -0.0714 -0.1684 -0.2488
  184SLPC   H6Y21107  -0.418   5.122   2.993 -0.7905 -0.3688 -2.1398
  184SLPC   C3721108  -0.233   5.172   2.930  0.7310  0.0066  0.3138
  184SLPC   H7X21109  -0.288   5.258   2.887 -1.5556 -2.3284 -1.5252
  184SLPC   H7Y21110  -0.140   5.148   2.874  0.2931 -0.9147 -0.0185
  184SLPC   C3821111  -0.177   5.232   3.061  0.0424  0.6768 -0.2681
  184SLPC   H8X21112  -0.093   5.172   3.102  1.3989  0.2295 -3.5714
  184SLPC   H8Y21113  -0.259   5.233   3.137  0.6752  0.1147  0.4313
  184SLPC   C3921114  -0.133   5.368   3.024 -0.1381  0.3036 -0.5130
  184SLPC   H9X21115  -0.216   5.434   2.990  1.7767  1.7441 -2.5083
  184SLPC   H9Y21116  -0.061   5.361   2.939 -1.3986  1.1491 -1.6665
  184SLPC  C31021117  -0.058   5.437   3.143  0.3777  0.0155  0.4111
  184SLPC  H10X21118  -0.008   5.530   3.107 -2.4902  1.5395  0.2518
  184SLPC  H10Y21119   0.019   5.366   3.181  1.0403  0.8191  0.5854
  184SLPC  C31121120  -0.142   5.482   3.259  0.1827  0.4335 -0.1448
  184SLPC  H11X21121  -0.209   5.405   3.303  0.5157 -0.6434 -1.4789
  184SLPC  H11Y21122  -0.219   5.553   3.221 -1.5730 -1.5613 -0.3948
  184SLPC  C31221123  -0.063   5.561   3.369 -0.0235 -0.3898 -0.0688
  184SLPC  H12X21124   0.006   5.623   3.308  1.9494 -2.0973  0.3661
  184SLPC  H12Y21125   0.002   5.483   3.415  1.0334  0.2947 -0.3729
  184SLPC  C31321126  -0.150   5.643   3.466 -0.1112 -0.1652  0.3393
  184SLPC  H13X21127  -0.218   5.581   3.528 -1.7386  2.1412  0.9293
  184SLPC  H13Y21128  -0.218   5.700   3.399  0.8571 -0.1964 -0.7048
  184SLPC  C31421129  -0.071   5.747   3.541 -0.2404 -0.2004  0.0542
  184SLPC  H14X21130  -0.033   5.820   3.467 -0.8687  0.8972  0.8047
  184SLPC  H14Y21131   0.010   5.695   3.597 -1.8877 -1.4019  1.3643
  184SLPC  C31521132  -0.155   5.839   3.630 -0.4995  0.1015 -0.2307
  184SLPC  H15X21133  -0.183   5.774   3.715 -1.1404  0.7283  0.0463
  184SLPC  H15Y21134  -0.244   5.868   3.571 -0.5689 -0.5549 -0.4512
  184SLPC  C31621135  -0.070   5.958   3.663 -0.4384 -0.1268  0.1039
  184SLPC  H16X21136  -0.069   6.029   3.578 -1.1164 -0.3911 -0.1233
  184SLPC  H16Y21137   0.037   5.934   3.680 -0.8137 -2.9187 -1.1790
  184SLPC  C31721138  -0.095   6.027   3.788  0.4549 -0.0980  0.5243
  184SLPC  H17X21139  -0.069   5.950   3.863 -1.0711  0.8404  2.0549
  184SLPC  H17Y21140  -0.202   6.057   3.793 -0.1814 -2.0625 -0.6064
  184SLPC  C31821141   0.008   6.140   3.825  0.3964  0.1471  0.4157
  184SLPC  H18X21142  -0.007   6.181   3.928 -0.0847 -0.4360  0.5774
  184SLPC  H18Y21143   0.006   6.223   3.752 -1.1701  0.7406  1.0963
  184SLPC  H18Z21144   0.111   6.098   3.824 -0.1777 -1.5696  4.1481
  185POPC     N21145   4.942   5.947   6.002 -0.6858 -0.0677  0.0118
  185POPC   C1221146   5.018   5.816   5.975  0.0849  0.4949  0.0139
  185POPC  H12A21147   5.023   5.761   6.068  0.2544 -0.8616 -0.7815
  185POPC  H12B21148   5.121   5.842   5.956  0.3203 -2.1626 -2.8087
  185POPC   C1321149   4.813   5.922   6.071  0.2804 -0.5509 -0.8488
  185POPC  H13A21150   4.765   5.839   6.021  0.0736  0.0849 -1.7014
  185POPC  H13B21151   4.828   5.890   6.173  0.0748  3.2295  0.4267
  185POPC  H13C21152   4.744   6.004   6.077  2.6336  1.4702 -0.8036
  185POPC   C1421153   5.028   6.036   6.092 -0.4485 -0.9907  0.3102
  185POPC  H14A21154   5.131   6.037   6.061 -0.2522 -0.8325  0.9565
  185POPC  H14B21155   4.981   6.133   6.081 -1.2474 -1.2823  1.0644
  185POPC  H14C21156   5.032   6.009   6.197  1.9793 -0.6135  0.3475
  185POPC   C1521157   4.923   6.015   5.873  0.0240 -0.3594 -0.1560
  185POPC  H15A21158   4.843   5.963   5.822 -0.9392 -0.6134  1.5646
  185POPC  H15B21159   5.021   6.026   5.831  0.2635 -2.0011 -0.0824
  185POPC  H15C21160   4.885   6.116   5.871  0.9236 -0.0254 -0.2204
  185POPC   C1121161   4.982   5.726   5.859 -0.0885  0.3357  0.8786
  185POPC  H11A21162   5.056   5.646   5.837  0.5306  1.2573 -0.4720
  185POPC  H11B21163   4.982   5.785   5.765  0.5475 -0.7590  0.1850
  185POPC     P21164   4.723   5.692   5.782 -0.0858 -0.2863 -0.4932
  185POPC   O1321165   4.695   5.838   5.766  0.2311 -0.1066  0.2725
  185POPC   O1421166   4.609   5.608   5.827 -0.1632 -0.2525  0.4338
  185POPC   O1221167   4.846   5.681   5.882  0.3982 -0.4303 -0.4547
  185POPC   O1121168   4.781   5.630   5.652  0.1465 -0.0346  0.3623
  185POPC    C121169   4.812   5.488   5.642 -0.5156 -0.9698 -0.3346
  185POPC    HA21170   4.763   5.437   5.728 -0.6078  0.4234  0.4441
  185POPC    HB21171   4.922   5.477   5.648 -0.1155  3.4545  2.7479
  185POPC    C221172   4.745   5.420   5.520 -0.4151 -0.0201  0.9803
  185POPC    HS21173   4.783   5.315   5.514 -0.5016  0.0340 -1.0899
  185POPC   O2121174   4.791   5.490   5.402 -0.1959 -0.4158  0.1749
  185POPC   C2121175   4.819   5.427   5.294 -1.1166 -0.8684  0.5156
  185POPC   O2221176   4.815   5.308   5.273 -0.2180  0.7085 -0.4554
  185POPC   C2221177   4.840   5.529   5.179  0.3409  0.3147 -0.0492
  185POPC   H2R21178   4.925   5.596   5.206  1.9226 -2.4286  1.9429
  185POPC   H2S21179   4.744   5.580   5.159 -0.3470 -1.1619 -0.5665
  185POPC    C321180   4.590   5.419   5.520  0.2859 -0.7433 -0.2934
  185POPC    HX21181   4.552   5.375   5.614 -0.9022  2.4350  0.7821
  185POPC    HY21182   4.556   5.346   5.444 -0.6122 -1.0039  0.3541
  185POPC   O3121183   4.525   5.549   5.504 -0.1914 -0.2200  0.0164
  185POPC   C3121184   4.427   5.585   5.581 -0.1789 -0.0331 -0.2130
  185POPC   O3221185   4.364   5.519   5.660 -0.3759  0.3073  0.2977
  185POPC   C3221186   4.394   5.734   5.555 -0.5179 -0.5902  0.4638
  185POPC   H2X21187   4.403   5.776   5.658 -0.1954 -3.3464  1.6158
  185POPC   H2Y21188   4.290   5.752   5.520 -0.1933  2.6218  1.0480
  185POPC   C2321189   4.877   5.446   5.055  0.0371 -0.1758  0.2565
  185POPC   H3R21190   4.796   5.374   5.033 -0.3368  0.3400 -0.0514
  185POPC   H3S21191   4.972   5.390   5.064  0.0602 -0.3278 -0.8693
  185POPC   C2421192   4.904   5.524   4.924  0.3544  0.4075 -0.1755
  185POPC   H4R21193   4.988   5.597   4.926  0.1324  0.6529  0.4455
  185POPC   H4S21194   4.812   5.585   4.918  0.3221  0.7979  3.5068
  185POPC   C2521195   4.913   5.426   4.812 -1.0865  0.2207  0.4299
  185POPC   H5R21196   4.838   5.344   4.808 -0.7370 -0.1068  0.5343
  185POPC   H5S21197   5.016   5.383   4.807 -0.8014  0.9421 -0.1090
  185POPC   C2621198   4.896   5.500   4.672  0.4091 -0.1238  0.8548
  185POPC   H6R21199   4.792   5.537   4.672  0.8374  1.2054 -2.2110
  185POPC   H6S21200   4.902   5.430   4.586  1.8763  0.6897  0.2703
  185POPC   C2721201   4.995   5.621   4.644 -0.7225 -0.3094 -0.6317
  185POPC   H7R21202   5.099   5.584   4.654 -0.9480 -0.5158  1.0031
  185POPC   H7S21203   4.969   5.682   4.733  0.9493 -0.7832  0.1975
  185POPC   C2821204   4.958   5.701   4.515 -0.1454 -0.2930  0.1104
  185POPC   H8R21205   4.986   5.625   4.439  1.8807 -2.8879  3.2505
  185POPC   H8S21206   5.025   5.790   4.513 -0.0908 -0.3617 -1.5593
  185POPC   C2921207   4.816   5.750   4.505 -1.3643 -0.4683 -0.3270
  185POPC   H9121208   4.786   5.815   4.589 -1.0343 -1.7484  0.7948
  185POPC  C21021209   4.727   5.735   4.408 -0.0595 -0.5321  0.3711
  185POPC  H10121210   4.631   5.779   4.439  1.4687  1.6074  2.3084
  185POPC  C21121211   4.744   5.665   4.277 -0.9507  0.0241  0.1078
  185POPC  H11R21212   4.851   5.634   4.268 -1.0096 -0.5557  1.1778
  185POPC  H11S21213   4.722   5.732   4.192  0.0269 -2.5186 -2.2091
  185POPC  C21221214   4.660   5.535   4.270  0.4135  0.0940 -0.1005
  185POPC  H12R21215   4.550   5.546   4.280 -0.0541 -0.8541 -3.4938
  185POPC  H12S21216   4.691   5.474   4.357  1.1906  2.5594  1.4024
  185POPC  C21321217   4.686   5.469   4.139  0.4916 -0.1124  0.6340
  185POPC  H13R21218   4.782   5.412   4.134 -0.1719 -1.1661 -0.6141
  185POPC  H13S21219   4.680   5.554   4.068  0.4023  1.7068  2.7725
  185POPC  C21421220   4.583   5.363   4.088  0.2644  0.2539  0.6321
  185POPC  H14R21221   4.481   5.387   4.125 -0.6431 -1.9326 -0.3561
  185POPC  H14S21222   4.609   5.270   4.143 -0.3128 -0.8897 -1.0116
  185POPC  C21521223   4.565   5.323   3.943 -0.1090  1.1638  0.6129
  185POPC  H15R21224   4.664   5.318   3.892 -0.9504 -0.9555 -0.8490
  185POPC  H15S21225   4.523   5.414   3.896  0.6582 -0.0540 -2.5748
  185POPC  C21621226   4.479   5.197   3.917  0.1799  0.0603 -0.0048
  185POPC  H16R21227   4.374   5.208   3.950  0.1016  1.4039 -0.6703
  185POPC  H16S21228   4.535   5.117   3.970  1.4135  2.2709  2.1305
  185POPC  C21721229   4.483   5.163   3.765 -0.2066 -0.1137  0.4405
  185POPC  H17R21230   4.576   5.111   3.736 -0.1658 -0.2663  0.8417
  185POPC  H17S21231   4.467   5.261   3.713 -0.9902 -0.1018  0.6932
  185POPC  C21821232   4.365   5.070   3.729  0.0036 -0.6061  0.3829
  185POPC  H18R21233   4.396   5.001   3.648  3.6979  0.5821  0.7043
  185POPC  H18S21234   4.281   5.136   3.695  0.3065  0.9861  2.6383
  185POPC  H18T21235   4.324   5.012   3.814 -0.9906 -0.7615 -0.1860
  185POPC   C3321236   4.488   5.809   5.469  0.1189  0.4104  0.5807
  185POPC   H3X21237   4.596   5.788   5.482  0.2349  0.8598  0.3480
  185POPC   H3Y21238   4.488   5.913   5.508 -1.7187  0.6352  0.0467
  185POPC   C3421239   4.457   5.784   5.321 -0.0740  0.5925 -0.8859
  185POPC   H4X21240   4.352   5.798   5.289 -1.0293 -3.3684  0.1865
  185POPC   H4Y21241   4.479   5.676   5.304  1.4724  0.5726  1.0429
  185POPC   C3521242   4.560   5.854   5.224 -0.0392 -0.8728  0.0864
  185POPC   H5X21243   4.665   5.852   5.259 -0.0573  3.5476  0.6938
  185POPC   H5Y21244   4.540   5.964   5.229 -0.2453 -0.8153 -1.6213
  185POPC   C3621245   4.558   5.811   5.074  0.2604  0.0909  0.1080
  185POPC   H6X21246   4.459   5.835   5.029 -1.2903  0.9491  3.8127
  185POPC   H6Y21247   4.570   5.700   5.077  0.9293  0.1927  1.5635
  185POPC   C3721248   4.669   5.873   4.989  0.1369  0.5082  0.5400
  185POPC   H7X21249   4.767   5.825   5.003  1.1706  1.5997 -2.4388
  185POPC   H7Y21250   4.688   5.981   5.008  0.5150  0.2451  1.6896
  185POPC   C3821251   4.646   5.878   4.836 -0.6319 -0.3275  0.2541
  185POPC   H8X21252   4.619   5.775   4.803 -2.0214 -0.5751  2.0861
  185POPC   H8Y21253   4.733   5.914   4.776 -2.5513  0.6337 -2.0368
  185POPC   C3921254   4.532   5.973   4.793 -0.0325  0.1106 -0.2851
  185POPC   H9X21255   4.562   6.072   4.835  2.1035  0.0683 -1.6550
  185POPC   H9Y21256   4.449   5.910   4.833 -0.6393  1.5795  0.8300
  185POPC  C31021257   4.518   5.980   4.636 -0.5496 -0.0359  0.3920
  185POPC  H10X21258   4.414   6.006   4.607 -1.2817 -3.9558 -0.7847
  185POPC  H10Y21259   4.542   5.880   4.595  1.7502  0.2973  0.8598
  185POPC  C31121260   4.608   6.089   4.577 -0.2127 -0.2147  0.4855
  185POPC  H11X21261   4.706   6.079   4.629  1.5074  1.9976 -2.1292
  185POPC  H11Y21262   4.566   6.186   4.611 -0.3072  0.6109 -1.8686
  185POPC  C31221263   4.617   6.097   4.419 -0.0507 -0.2527  0.4653
  185POPC  H12X21264   4.515   6.103   4.376 -0.2609  0.7896  1.1065
  185POPC  H12Y21265   4.671   6.007   4.381  2.7479  2.3830 -2.1193
  185POPC  C31321266   4.704   6.210   4.369 -0.2544 -0.8038 -0.9792
  185POPC  H13X21267   4.812   6.191   4.388  0.3491  2.5435 -0.7331
  185POPC  H13Y21268   4.674   6.309   4.408 -0.2636 -0.7240 -1.1875
  185POPC  C31421269   4.702   6.228   4.220  0.6991 -0.0535  0.0462
  185POPC  H14X21270   4.766   6.310   4.183 -1.1692  0.5071 -2.0873
  185POPC  H14Y21271   4.600   6.270   4.201  0.8057  0.9372  1.6352
  185POPC  C31521272   4.730   6.107   4.128  0.3119 -0.0697  0.2977
  185POPC  H15X21273   4.724   6.143   4.023 -0.5919  0.3093  0.4722
  185POPC  H15Y21274   4.647   6.037   4.151  1.0825 -1.8956 -2.2408
  185POPC  C31621275   4.874   6.043   4.147  0.7276  0.0485  0.0355
  185POPC  H16X21276   4.906   5.986   4.057 -0.4536 -0.4287 -0.0967
  185POPC  H16Y21277   4.867   5.968   4.230  2.7600  1.5506  1.6156
  185POPC  H16Z21278   4.944   6.121   4.183  1.1279  0.3002 -1.2821
  186POPC     N21279   1.914   0.847   5.851 -0.0152  0.0521 -0.1197
  186POPC   C1221280   1.806   0.752   5.807 -0.7121  0.0496 -0.3139
  186POPC  H12A21281   1.761   0.706   5.894 -1.8956  2.4333  0.3784
  186POPC  H12B21282   1.840   0.666   5.752 -1.2140 -0.2173 -0.2095
  186POPC   C1321283   1.995   0.895   5.744 -0.4954 -0.8825  0.3488
  186POPC  H13A21284   2.063   0.824   5.701  1.2189  0.2180  1.2013
  186POPC  H13B21285   1.921   0.916   5.668 -1.3847  0.2797  1.4853
  186POPC  H13C21286   2.057   0.981   5.764 -0.7441 -0.5933 -0.1249
  186POPC   C1421287   1.854   0.968   5.915  0.6563  0.1789  0.0173
  186POPC  H14A21288   1.792   1.030   5.852 -0.8681  0.3991  1.7007
  186POPC  H14B21289   1.801   0.944   6.006  0.5720  3.0444  0.7918
  186POPC  H14C21290   1.936   1.034   5.942  0.8504 -0.2630  0.5184
  186POPC   C1521291   1.997   0.778   5.954  0.5717 -0.3084  0.4593
  186POPC  H15A21292   1.936   0.731   6.029  2.8877 -1.7500  1.4793
  186POPC  H15B21293   2.066   0.848   5.998  1.4499 -0.8269 -0.0848
  186POPC  H15C21294   2.053   0.699   5.906  0.0382 -0.2982 -0.1917
  186POPC   C1121295   1.693   0.811   5.716 -0.1946 -0.1303  0.6705
  186POPC  H11A21296   1.623   0.731   5.683  0.7868 -0.0795 -1.5875
  186POPC  H11B21297   1.741   0.828   5.618 -0.9606 -0.2284  0.2724
  186POPC     P21298   1.504   0.925   5.861 -0.3343  0.2515  0.0240
  186POPC   O1321299   1.454   1.064   5.871 -0.6543 -0.0607  0.4193
  186POPC   O1421300   1.540   0.860   5.988 -0.1206 -0.6558  0.0661
  186POPC   O1221301   1.629   0.930   5.760 -0.4699  0.4406  0.2899
  186POPC   O1121302   1.389   0.827   5.795 -0.3675 -0.1377  0.3148
  186POPC    C121303   1.340   0.853   5.666  0.1253 -0.3664 -0.4671
  186POPC    HA21304   1.417   0.890   5.595 -1.5691  2.9509 -0.6697
  186POPC    HB21305   1.272   0.941   5.669  0.1517 -0.3242 -1.0954
  186POPC    C221306   1.270   0.731   5.608  0.1063 -0.3509 -0.7353
  186POPC    HS21307   1.185   0.705   5.675 -0.7675 -1.4537 -2.2464
  186POPC   O2121308   1.365   0.628   5.568  0.4681  0.2668  0.5675
  186POPC   C2121309   1.401   0.541   5.664 -0.4717 -0.3862  0.2480
  186POPC   O2221310   1.345   0.532   5.771  0.4187 -0.3189  0.3346
  186POPC   C2221311   1.525   0.461   5.632 -0.4087  0.7213 -0.8453
  186POPC   H2R21312   1.565   0.443   5.734 -2.4945  0.2286 -0.0862
  186POPC   H2S21313   1.596   0.531   5.583  0.5159  2.3597  2.6484
  186POPC    C321314   1.187   0.764   5.483 -0.5079  0.1740 -0.6801
  186POPC    HX21315   1.119   0.850   5.499 -0.5299  0.1681 -0.7407
  186POPC    HY21316   1.129   0.675   5.448 -2.1048  0.7465  0.4696
  186POPC   O3121317   1.283   0.805   5.383  0.6367  0.1189 -0.5873
  186POPC   C3121318   1.246   0.798   5.252 -1.0945 -0.5468  0.4633
  186POPC   O3221319   1.147   0.745   5.210 -0.3910 -0.0666 -0.4122
  186POPC   C3221320   1.369   0.830   5.170  0.4236 -0.1103 -0.2319
  186POPC   H2X21321   1.436   0.741   5.174  0.0742 -0.3682 -0.0361
  186POPC   H2Y21322   1.426   0.914   5.216  1.1165 -0.0572 -1.1933
  186POPC   C2321323   1.521   0.342   5.538 -0.4633  0.5682  0.1015
  186POPC   H3R21324   1.466   0.263   5.593  3.8637 -1.2129  2.0721
  186POPC   H3S21325   1.619   0.290   5.536 -0.8996 -0.3833  2.3197
  186POPC   C2421326   1.460   0.390   5.396 -0.2665  0.4676 -0.4683
  186POPC   H4R21327   1.515   0.484   5.373  0.1172  0.0219 -1.4194
  186POPC   H4S21328   1.351   0.411   5.396 -0.7447 -1.9216  0.3297
  186POPC   C2521329   1.472   0.286   5.293 -0.8391  0.2512 -0.0784
  186POPC   H5R21330   1.388   0.216   5.312 -0.9243  0.7890  1.5615
  186POPC   H5S21331   1.566   0.227   5.299 -0.8475  0.0353 -1.6569
  186POPC   C2621332   1.476   0.346   5.148 -0.2639  0.1558 -0.0404
  186POPC   H6R21333   1.495   0.268   5.071 -3.8609  1.7606 -2.6983
  186POPC   H6S21334   1.554   0.424   5.140 -0.0654  0.0006  0.3824
  186POPC   C2721335   1.347   0.417   5.109 -0.2400  0.3185 -0.4830
  186POPC   H7R21336   1.345   0.515   5.161 -1.9696  0.0265  0.0428
  186POPC   H7S21337   1.263   0.358   5.153  0.5314 -0.6821 -0.3353
  186POPC   C2821338   1.319   0.433   4.955  0.7480 -0.3043  0.1215
  186POPC   H8R21339   1.333   0.329   4.920  0.2364 -0.0045 -0.9973
  186POPC   H8S21340   1.406   0.488   4.913 -0.1254 -0.1201 -1.4864
  186POPC   C2921341   1.188   0.487   4.908 -0.1472  0.1335 -0.0054
  186POPC   H9121342   1.113   0.473   4.987 -0.5810  0.0586 -0.4294
  186POPC  C21021343   1.165   0.568   4.798 -0.3887 -0.8170 -0.0637
  186POPC  H10121344   1.060   0.580   4.771 -0.4713  0.4722  0.8040
  186POPC  C21121345   1.265   0.623   4.699 -0.0782  0.5354 -0.5008
  186POPC  H11R21346   1.338   0.684   4.757 -0.1588 -0.5162  0.7229
  186POPC  H11S21347   1.215   0.696   4.632  0.1423 -0.0336 -1.2897
  186POPC  C21221348   1.324   0.523   4.601  0.2546  0.2443  0.0287
  186POPC  H12R21349   1.255   0.436   4.598 -1.4612  1.5593  0.6196
  186POPC  H12S21350   1.421   0.488   4.643 -0.2193 -1.0297  0.1017
  186POPC  C21321351   1.349   0.582   4.461  0.3227  0.4456  0.0432
  186POPC  H13R21352   1.441   0.644   4.458  1.3545 -1.0388 -0.2281
  186POPC  H13S21353   1.264   0.646   4.429 -0.3895 -1.0832 -1.1982
  186POPC  C21421354   1.360   0.470   4.351 -0.7813 -0.3420  0.8273
  186POPC  H14R21355   1.271   0.404   4.352 -1.7541  0.9427  0.2116
  186POPC  H14S21356   1.447   0.404   4.372  0.9320  1.7831  0.6268
  186POPC  C21521357   1.386   0.524   4.205 -0.2008 -0.3640 -0.0677
  186POPC  H15R21358   1.288   0.566   4.173  0.5796  1.2433 -0.4195
  186POPC  H15S21359   1.402   0.434   4.143  1.2769  0.1725 -0.4970
  186POPC  C21621360   1.491   0.641   4.186 -0.2038  0.3040  0.6487
  186POPC  H16R21361   1.581   0.619   4.247 -0.8741  0.0035  1.5544
  186POPC  H16S21362   1.436   0.727   4.231  1.0008  1.2357  0.3659
  186POPC  C21721363   1.523   0.665   4.040  0.4289  0.7605  0.5486
  186POPC  H17R21364   1.590   0.754   4.039  1.6341 -0.1376  1.0392
  186POPC  H17S21365   1.431   0.675   3.978 -0.2032  0.7681  1.4941
  186POPC  C21821366   1.618   0.556   3.981 -0.7540  0.3861 -0.5063
  186POPC  H18R21367   1.589   0.452   4.005 -0.5752  0.0967 -1.5503
  186POPC  H18S21368   1.719   0.577   4.022 -0.0901 -1.5917 -1.1101
  186POPC  H18T21369   1.629   0.573   3.872  1.1723  2.2468 -0.0682
  186POPC   C3321370   1.357   0.867   5.015 -0.2971 -0.5135 -0.6258
  186POPC   H3X21371   1.257   0.916   5.007  0.6046  1.4618 -0.2728
  186POPC   H3Y21372   1.344   0.782   4.945  0.5540 -0.6122 -0.6660
  186POPC   C3421373   1.479   0.949   4.963  0.0734 -0.1003  0.3808
  186POPC   H4X21374   1.578   0.908   4.993  0.9469  3.2566  2.4138
  186POPC   H4Y21375   1.462   1.039   5.026 -1.5757 -0.0620 -0.1039
  186POPC   C3521376   1.486   0.975   4.809 -0.1650 -0.1940 -0.1295
  186POPC   H5X21377   1.488   0.879   4.753  0.4689 -0.1448 -0.1896
  186POPC   H5Y21378   1.585   1.020   4.788  1.2167 -4.2552 -3.1057
  186POPC   C3621379   1.373   1.066   4.764 -0.5487  0.1061 -0.1965
  186POPC   H6X21380   1.379   1.155   4.829  1.7490  0.3943 -0.7746
  186POPC   H6Y21381   1.278   1.012   4.787 -0.5149 -0.7207 -1.9248
  186POPC   C3721382   1.373   1.106   4.616 -0.2134  1.1153  0.5874
  186POPC   H7X21383   1.342   1.020   4.553  1.0840  0.9841  0.1209
  186POPC   H7Y21384   1.477   1.126   4.584 -0.2119 -0.3683 -0.3969
  186POPC   C3821385   1.272   1.211   4.590  0.1152  0.6922 -0.2211
  186POPC   H8X21386   1.296   1.301   4.651  0.2125  1.5421 -1.4908
  186POPC   H8Y21387   1.172   1.174   4.621 -0.7460  1.4100 -2.0811
  186POPC   C3921388   1.262   1.254   4.441  0.0041  0.6914 -0.0010
  186POPC   H9X21389   1.227   1.168   4.380 -2.8934  0.7879  1.4497
  186POPC   H9Y21390   1.366   1.292   4.432  1.1254 -2.4535 -0.9714
  186POPC  C31021391   1.158   1.365   4.423 -0.1211  0.0518 -0.1822
  186POPC  H10X21392   1.159   1.429   4.514 -1.1053  0.7701 -0.6693
  186POPC  H10Y21393   1.063   1.309   4.409  1.3712 -2.1786 -1.8012
  186POPC  C31121394   1.171   1.467   4.302  0.1670 -0.0766  0.0236
  186POPC  H11X21395   1.272   1.514   4.301  0.1477 -0.0190  0.5549
  186POPC  H11Y21396   1.094   1.546   4.313 -2.1173 -2.5084  1.8850
  186POPC  C31221397   1.154   1.403   4.167  0.9430  0.6579 -0.2490
  186POPC  H12X21398   1.057   1.349   4.151  1.8482 -1.4470  1.1186
  186POPC  H12Y21399   1.235   1.327   4.161  0.1478 -0.4330  2.1250
  186POPC  C31321400   1.173   1.498   4.041 -0.0819 -0.2947  0.4182
  186POPC  H13X21401   1.226   1.590   4.075  2.5611 -0.9734 -1.7377
  186POPC  H13Y21402   1.079   1.517   3.986 -0.1125 -0.9362  0.2520
  186POPC  C31421403   1.266   1.436   3.939 -0.1038 -0.3174 -0.2395
  186POPC  H14X21404   1.361   1.395   3.980 -1.1381 -0.4980  2.0137
  186POPC  H14Y21405   1.294   1.509   3.860 -1.1954 -0.9827 -1.2585
  186POPC  C31521406   1.218   1.319   3.855  0.0262 -0.5570 -0.2767
  186POPC  H15X21407   1.206   1.230   3.920  0.4436 -1.9005 -1.9974
  186POPC  H15Y21408   1.301   1.297   3.785 -0.6612 -0.1897 -1.2212
  186POPC  C31621409   1.090   1.349   3.777 -0.1193 -0.1590 -0.3411
  186POPC  H16X21410   1.081   1.454   3.741  1.6287  1.0004  2.3923
  186POPC  H16Y21411   0.997   1.333   3.836 -0.4415 -1.1581 -1.1049
  186POPC  H16Z21412   1.088   1.289   3.684 -0.8618  1.6545 -1.5278
  187POPC     N21413   5.499   6.044   1.800 -0.1718  0.2050  0.4052
  187POPC   C1221414   5.625   5.958   1.794  0.3550 -0.3639 -0.0214
  187POPC  H12A21415   5.686   5.980   1.880  1.8476 -1.9155 -0.6434
  187POPC  H12B21416   5.673   5.986   1.701  0.0783 -0.3832 -0.1709
  187POPC   C1321417   5.408   5.996   1.693 -0.3867  1.2198  0.0804
  187POPC  H13A21418   5.316   6.051   1.706  1.3113  4.3024 -0.4114
  187POPC  H13B21419   5.442   6.003   1.591  2.3288 -2.2868  0.6389
  187POPC  H13C21420   5.386   5.891   1.700  0.4918  1.0732  0.6823
  187POPC   C1421421   5.441   6.045   1.935  0.2845  0.0723 -0.7633
  187POPC  H14A21422   5.421   5.942   1.959 -1.6715  0.5175 -0.3952
  187POPC  H14B21423   5.504   6.076   2.017 -0.2096  0.9270 -0.6910
  187POPC  H14C21424   5.347   6.098   1.935  2.2236  3.6879 -1.6564
  187POPC   C1521425   5.518   6.187   1.778 -0.2671 -0.1094 -0.1492
  187POPC  H15A21426   5.426   6.234   1.809 -0.6264 -1.2679  0.5633
  187POPC  H15B21427   5.535   6.215   1.675  3.3934 -1.8116 -0.0852
  187POPC  H15C21428   5.591   6.240   1.838 -1.1694  0.7325  0.2175
  187POPC   C1121429   5.618   5.802   1.804  0.2582 -0.8155 -0.5667
  187POPC  H11A21430   5.714   5.751   1.782  0.7801 -0.0973  0.0240
  187POPC  H11B21431   5.551   5.770   1.721  2.2782  0.2144 -2.6337
  187POPC     P21432   5.660   5.729   2.063 -0.0265  0.2274  0.2041
  187POPC   O1321433   5.772   5.821   2.050 -0.4953  0.1850  0.4553
  187POPC   O1421434   5.690   5.582   2.080  0.0418 -0.4385  0.1015
  187POPC   O1221435   5.563   5.752   1.931 -0.0789  0.0925  0.5091
  187POPC   O1121436   5.565   5.779   2.178  0.1828 -0.4320 -0.5214
  187POPC    C121437   5.438   5.740   2.226  0.4317 -0.4946 -0.4859
  187POPC    HA21438   5.461   5.674   2.312 -0.0190  1.2569  0.9939
  187POPC    HB21439   5.381   5.677   2.154 -3.2641  2.1249  0.0459
  187POPC    C221440   5.349   5.852   2.268 -0.1086 -0.2231 -0.1449
  187POPC    HS21441   5.338   5.914   2.177  0.5049 -0.6541 -0.5235
  187POPC   O2121442   5.406   5.926   2.375  0.2728  0.1045  0.6551
  187POPC   C2121443   5.361   6.044   2.394  0.0887 -0.6823 -0.4112
  187POPC   O2221444   5.296   6.105   2.309 -0.4907 -0.1826 -0.1317
  187POPC   C2221445   5.401   6.100   2.532  0.7862  0.1060 -0.2986
  187POPC   H2R21446   5.508   6.127   2.516  1.5843 -1.3417  2.2977
  187POPC   H2S21447   5.380   6.025   2.611  0.8986  0.6138  0.2215
  187POPC    C321448   5.198   5.804   2.291  0.9375  0.1727 -0.5638
  187POPC    HX21449   5.183   5.746   2.198  1.2040  1.0236 -1.1481
  187POPC    HY21450   5.121   5.884   2.299  0.1695 -0.7351  1.5513
  187POPC   O3121451   5.205   5.720   2.408  0.3324  0.2113  0.6488
  187POPC   C3121452   5.143   5.775   2.513  0.3659 -0.1557 -0.0651
  187POPC   O3221453   5.090   5.888   2.516  0.0911  0.0069 -0.2101
  187POPC   C3221454   5.154   5.680   2.635 -0.8779 -0.1496 -0.2420
  187POPC   H2X21455   5.212   5.595   2.593 -1.7182 -0.1309 -1.4471
  187POPC   H2Y21456   5.047   5.654   2.648 -0.4915 -1.0973  1.1552
  187POPC   C2321457   5.336   6.226   2.569 -0.3347 -0.1021  0.1671
  187POPC   H3R21458   5.227   6.216   2.548 -0.7521  0.4479  1.9553
  187POPC   H3S21459   5.360   6.306   2.496  0.2268 -1.2430 -0.9181
  187POPC   C2421460   5.367   6.276   2.714  0.2295  0.0871  0.0193
  187POPC   H4R21461   5.335   6.382   2.722  0.0427  0.0730 -0.5002
  187POPC   H4S21462   5.472   6.257   2.745  1.1019  1.0459 -2.2320
  187POPC   C2521463   5.281   6.197   2.807 -0.6013 -0.2448  0.4320
  187POPC   H5R21464   5.342   6.108   2.833 -0.9041 -1.1394 -1.7980
  187POPC   H5S21465   5.192   6.153   2.757  0.3587  1.0696 -2.6072
  187POPC   C2621466   5.263   6.285   2.930 -0.3431  0.0403 -0.4052
  187POPC   H6R21467   5.214   6.383   2.911 -0.3998  0.1742  0.3995
  187POPC   H6S21468   5.366   6.319   2.958 -0.2503 -0.1202 -0.5553
  187POPC   C2721469   5.191   6.215   3.046  0.0295  0.3315 -1.0037
  187POPC   H7R21470   5.260   6.133   3.078  2.3364  2.6316  0.1830
  187POPC   H7S21471   5.095   6.179   3.004 -0.9115  2.3672 -0.6660
  187POPC   C2821472   5.172   6.299   3.177 -0.5753  0.2329 -0.0197
  187POPC   H8R21473   5.084   6.250   3.224 -2.3851  1.7834 -1.7107
  187POPC   H8S21474   5.141   6.401   3.146 -1.6436  0.4181  1.6237
  187POPC   C2921475   5.293   6.317   3.267  0.2755  0.1905 -0.3054
  187POPC   H9121476   5.394   6.284   3.240 -0.2361 -2.5224  0.8966
  187POPC  C21021477   5.274   6.378   3.384  0.1305 -0.5443 -0.0724
  187POPC  H10121478   5.368   6.407   3.432 -1.2942  2.1740  1.1809
  187POPC  C21121479   5.146   6.434   3.438  0.4759  0.2832  0.4186
  187POPC  H11R21480   5.125   6.388   3.537 -0.7319 -0.8393 -0.3472
  187POPC  H11S21481   5.067   6.409   3.364  1.0091  2.3614 -0.8941
  187POPC  C21221482   5.132   6.590   3.453 -0.2822 -0.4957 -0.1979
  187POPC  H12R21483   5.214   6.634   3.393 -0.9503  0.1369 -0.6481
  187POPC  H12S21484   5.158   6.610   3.559 -2.7565 -0.3269  0.4024
  187POPC  C21321485   4.984   6.639   3.418 -0.1167 -0.6776 -0.3842
  187POPC  H13R21486   4.924   6.579   3.490 -0.2312 -0.8916 -0.6541
  187POPC  H13S21487   4.948   6.618   3.315 -0.7823 -1.7730  0.0584
  187POPC  C21421488   4.970   6.783   3.458 -0.0309 -0.7604  0.6650
  187POPC  H14R21489   5.020   6.802   3.555 -4.4856 -0.2383  2.9659
  187POPC  H14S21490   4.863   6.812   3.469 -0.8458 -3.7603  1.1007
  187POPC  C21521491   5.030   6.878   3.355 -0.0260  0.0285  0.3990
  187POPC  H15R21492   5.138   6.857   3.337 -0.0587 -0.2553  0.5280
  187POPC  H15S21493   5.011   6.984   3.381 -1.9383 -0.1137 -0.3679
  187POPC  C21621494   4.969   6.870   3.214  0.8220  0.5760  0.4730
  187POPC  H16R21495   4.924   6.970   3.198 -1.2619 -0.3064  0.7286
  187POPC  H16S21496   4.886   6.796   3.210  1.0133  0.4171 -0.8253
  187POPC  C21721497   5.072   6.835   3.108 -0.2652  0.1221  0.2807
  187POPC  H17R21498   5.125   6.745   3.146 -0.4050 -0.0200  0.1356
  187POPC  H17S21499   5.153   6.910   3.118  0.8080 -1.1464  1.2540
  187POPC  C21821500   5.026   6.830   2.966 -0.7416  0.3608  0.5866
  187POPC  H18R21501   4.941   6.760   2.949 -1.4163  1.1862  0.4863
  187POPC  H18S21502   5.113   6.809   2.900 -1.4321  2.6671 -1.1339
  187POPC  H18T21503   4.990   6.933   2.945  0.8834  0.8242  0.0623
  187POPC   C3321504   5.219   5.717   2.762  0.0755  0.2549  0.9142
  187POPC   H3X21505   5.165   5.804   2.805 -1.4794 -0.3160  0.1745
  187POPC   H3Y21506   5.324   5.749   2.746  0.3194 -0.5138  1.0032
  187POPC   C3421507   5.219   5.601   2.860 -0.0397 -0.4525 -0.8520
  187POPC   H4X21508   5.266   5.515   2.807  0.4746 -0.5633 -0.2210
  187POPC   H4Y21509   5.115   5.566   2.879 -0.0042 -0.9878 -1.6295
  187POPC   C3521510   5.286   5.616   3.003 -0.0546 -0.3640 -0.3636
  187POPC   H5X21511   5.388   5.573   3.010  0.3280  0.3207 -1.6059
  187POPC   H5Y21512   5.228   5.551   3.073  0.6801  0.2992  0.8794
  187POPC   C3621513   5.295   5.754   3.053  0.2193 -0.5540 -0.1102
  187POPC   H6X21514   5.204   5.814   3.028 -0.6475 -0.9132  2.0696
  187POPC   H6Y21515   5.384   5.802   3.007 -0.1450 -0.7891 -1.0785
  187POPC   C3721516   5.330   5.762   3.205  0.4561 -0.0005 -0.0537
  187POPC   H7X21517   5.431   5.717   3.220 -0.1701 -0.6086  2.4845
  187POPC   H7Y21518   5.252   5.713   3.268 -0.1590  3.4833  2.0329
  187POPC   C3821519   5.326   5.908   3.248  1.1892 -0.5086  0.2912
  187POPC   H8X21520   5.239   5.966   3.211 -1.3527 -2.3764  3.1001
  187POPC   H8Y21521   5.411   5.966   3.206  0.2758  2.0401  1.8011
  187POPC   C3921522   5.323   5.920   3.400  0.0083  0.3142  0.3624
  187POPC   H9X21523   5.360   6.018   3.438  2.4346 -0.6423  0.5528
  187POPC   H9Y21524   5.376   5.837   3.452 -2.6587 -1.0857  0.9259
  187POPC  C31021525   5.178   5.907   3.446 -0.6755  0.0468 -0.1351
  187POPC  H10X21526   5.134   5.809   3.419 -1.1910  0.8240 -2.2839
  187POPC  H10Y21527   5.115   5.982   3.394 -0.0141 -0.0282 -1.0701
  187POPC  C31121528   5.164   5.920   3.599  0.4721 -0.7072  0.2131
  187POPC  H11X21529   5.252   5.869   3.646 -0.3598 -1.1031  1.3730
  187POPC  H11Y21530   5.086   5.846   3.627 -0.4234  0.2615  0.2864
  187POPC  C31221531   5.148   6.064   3.664 -0.3472  0.1318  0.0553
  187POPC  H12X21532   5.240   6.125   3.648 -1.2805  2.1427  2.0603
  187POPC  H12Y21533   5.154   6.062   3.775  0.0432  0.9396  0.0524
  187POPC  C31321534   5.020   6.142   3.628  0.5502 -0.0555  0.1513
  187POPC  H13X21535   5.009   6.172   3.521  1.3972 -2.1253 -0.5504
  187POPC  H13Y21536   5.018   6.236   3.688  0.2994 -0.0370  0.1141
  187POPC  C31421537   4.895   6.056   3.646  0.7994 -0.3706 -0.5541
  187POPC  H14X21538   4.913   5.961   3.591  1.9436  0.2400 -1.2539
  187POPC  H14Y21539   4.809   6.107   3.598  0.5270 -1.1317 -0.8919
  187POPC  C31521540   4.852   6.028   3.793 -0.0508  0.1389 -0.0794
  187POPC  H15X21541   4.852   6.113   3.865 -2.8705 -0.3719  0.5835
  187POPC  H15Y21542   4.924   5.956   3.837 -3.4574 -3.6078 -0.3249
  187POPC  C31621543   4.710   5.977   3.789 -0.8350  0.1977  0.3888
  187POPC  H16X21544   4.672   5.939   3.887 -2.7124 -0.0473 -0.4001
  187POPC  H16Y21545   4.699   5.899   3.712  1.5519  0.5419 -0.3140
  187POPC  H16Z21546   4.644   6.058   3.750 -0.3250  0.6925  0.5578
  188POPC     N21547   6.353   5.514   1.789  0.0698  0.2822 -0.1812
  188POPC   C1221548   6.415   5.448   1.915 -0.6185 -0.1166  0.4152
  188POPC  H12A21549   6.519   5.471   1.931 -0.6534  0.2668  0.0917
  188POPC  H12B21550   6.410   5.341   1.902  6.2327 -1.2292  4.5730
  188POPC   C1321551   6.348   5.666   1.812 -0.7262  0.9434 -0.3931
  188POPC  H13A21552   6.450   5.703   1.812 -0.3576 -0.0409  1.2026
  188POPC  H13B21553   6.302   5.708   1.724  1.9139 -0.0682 -2.3425
  188POPC  H13C21554   6.302   5.689   1.906  1.6745 -0.9206  1.3166
  188POPC   C1421555   6.436   5.490   1.666 -0.3893  0.1029  0.2528
  188POPC  H14A21556   6.542   5.503   1.681 -0.3873 -0.9047  1.1846
  188POPC  H14B21557   6.435   5.386   1.638 -0.9398  0.0980  0.2795
  188POPC  H14C21558   6.411   5.555   1.583 -0.4400 -1.4692 -0.9868
  188POPC   C1521559   6.209   5.478   1.771 -0.1079 -0.2690  0.2078
  188POPC  H15A21560   6.172   5.511   1.675  0.1654  1.5307  0.7046
  188POPC  H15B21561   6.149   5.540   1.835  1.0003  0.3187  0.6818
  188POPC  H15C21562   6.183   5.374   1.788 -0.7773 -0.4122 -1.5272
  188POPC   C1121563   6.348   5.484   2.052 -0.6757  0.5966  0.3490
  188POPC  H11A21564   6.394   5.404   2.115 -0.9681 -0.2468 -0.4904
  188POPC  H11B21565   6.238   5.472   2.040 -0.6989 -2.0158  2.5989
  188POPC     P21566   6.315   5.701   2.197  0.5071  0.1353 -0.3350
  188POPC   O1321567   6.184   5.727   2.131  0.4037  0.1751  0.0659
  188POPC   O1421568   6.391   5.822   2.248 -0.1549  0.1893  0.2892
  188POPC   O1221569   6.397   5.614   2.095 -0.5435  0.0537  0.4364
  188POPC   O1121570   6.292   5.602   2.317 -0.4721 -0.4131  0.3141
  188POPC    C121571   6.160   5.545   2.329 -0.5849  0.0152 -0.1372
  188POPC    HA21572   6.164   5.452   2.389 -1.7641  1.4765  2.2686
  188POPC    HB21573   6.114   5.514   2.233  1.4846 -0.4899 -0.9975
  188POPC    C221574   6.064   5.645   2.404 -0.0498 -0.3557  0.3662
  188POPC    HS21575   6.093   5.748   2.375  1.1648 -0.7754  0.0567
  188POPC   O2121576   6.078   5.610   2.545 -0.3738  0.5847  0.5996
  188POPC   C2121577   6.111   5.712   2.629  0.2528 -0.3061  0.4508
  188POPC   O2221578   6.107   5.829   2.596  0.1291  0.1711  0.0445
  188POPC   C2221579   6.128   5.648   2.763 -0.8164 -0.2598  0.4037
  188POPC   H2R21580   6.202   5.566   2.754 -0.1252  0.5912 -1.8370
  188POPC   H2S21581   6.031   5.597   2.785 -1.2708  0.5635  0.3427
  188POPC    C321582   5.919   5.611   2.369 -0.2720 -0.1378 -0.2550
  188POPC    HX21583   5.920   5.501   2.354  0.3494 -0.0853 -0.6108
  188POPC    HY21584   5.890   5.644   2.267 -1.7742 -0.2308  0.1237
  188POPC   O3121585   5.818   5.657   2.473  0.0827  0.4467  0.5979
  188POPC   C3121586   5.768   5.778   2.461  0.0548  0.3931  0.3293
  188POPC   O3221587   5.780   5.850   2.362 -0.4152  0.4369 -0.0103
  188POPC   C3221588   5.686   5.811   2.584 -0.9257 -0.0798  0.7473
  188POPC   H2X21589   5.585   5.773   2.557 -1.1883  1.4445 -0.5276
  188POPC   H2Y21590   5.683   5.921   2.600  1.4105  0.0669  0.3565
  188POPC   C2321591   6.172   5.753   2.865 -0.4379 -0.0859  0.1153
  188POPC   H3R21592   6.121   5.852   2.862  0.4143  0.3530 -0.2136
  188POPC   H3S21593   6.278   5.781   2.843 -0.0739 -1.8788 -0.5450
  188POPC   C2421594   6.163   5.692   3.008  0.6354  0.1830 -0.5463
  188POPC   H4R21595   6.237   5.609   3.016 -0.2369 -0.4813  0.6517
  188POPC   H4S21596   6.064   5.643   3.018  1.0441 -0.4866  0.1989
  188POPC   C2521597   6.178   5.804   3.108  0.7846  0.0117  0.1338
  188POPC   H5R21598   6.101   5.879   3.081  0.4271 -1.1316 -2.1771
  188POPC   H5S21599   6.277   5.849   3.087 -0.1452  1.0293 -2.3281
  188POPC   C2621600   6.162   5.769   3.259  0.0126 -0.3532  0.3552
  188POPC   H6R21601   6.249   5.714   3.300  0.2284 -0.3112 -0.0432
  188POPC   H6S21602   6.067   5.711   3.261 -0.8174  0.8099 -2.3245
  188POPC   C2721603   6.136   5.899   3.338  0.0014 -0.1875  0.2864
  188POPC   H7R21604   6.040   5.945   3.307 -0.2567 -0.0283  1.3054
  188POPC   H7S21605   6.214   5.972   3.311 -1.5052  1.2077 -0.3697
  188POPC   C2821606   6.137   5.887   3.492 -0.8283  0.9288  0.0667
  188POPC   H8R21607   6.242   5.883   3.527 -0.7682 -0.9125 -0.2915
  188POPC   H8S21608   6.079   5.798   3.526  1.5182 -0.4559  0.4876
  188POPC   C2921609   6.076   6.012   3.536 -0.1665  0.2291 -0.6408
  188POPC   H9121610   5.983   6.044   3.486 -0.5459  1.2211  0.6701
  188POPC  C21021611   6.121   6.088   3.637 -0.0031  0.6020 -0.5487
  188POPC  H10121612   6.078   6.185   3.666  0.6740  0.5019  0.8375
  188POPC  C21121613   6.247   6.055   3.719 -0.5332  0.4903 -0.2225
  188POPC  H11R21614   6.309   6.145   3.739 -0.3169  0.0017  1.4038
  188POPC  H11S21615   6.311   5.973   3.679 -1.1265 -0.1514  0.1187
  188POPC  C21221616   6.208   6.010   3.861 -0.0343  0.3237  0.1602
  188POPC  H12R21617   6.129   5.931   3.856 -0.5502  0.6532  2.7131
  188POPC  H12S21618   6.155   6.101   3.895  0.9025  2.1198 -2.9918
  188POPC  C21321619   6.321   5.951   3.943  0.1775  0.7761 -0.4685
  188POPC  H13R21620   6.346   5.851   3.902  1.2653  1.5650 -1.7535
  188POPC  H13S21621   6.279   5.928   4.044 -0.4538 -1.1850 -1.1678
  188POPC  C21421622   6.444   6.031   3.953  0.2383 -0.6076 -0.0744
  188POPC  H14R21623   6.417   6.126   4.005 -0.8541 -0.3761 -1.0193
  188POPC  H14S21624   6.486   6.063   3.855  3.5105 -0.1007  1.4472
  188POPC  C21521625   6.566   5.981   4.032  0.5369 -0.0664  0.8208
  188POPC  H15R21626   6.536   5.912   4.114  0.9965 -0.8781  0.3083
  188POPC  H15S21627   6.620   6.067   4.077  0.7574  1.7995 -2.8250
  188POPC  C21621628   6.671   5.912   3.940 -1.0484  0.4959  0.1816
  188POPC  H16R21629   6.727   5.986   3.878  0.4381 -0.6121  0.1841
  188POPC  H16S21630   6.625   5.834   3.875  0.3820 -0.2347  0.0245
  188POPC  C21721631   6.786   5.845   4.020  0.2703 -0.3612 -0.5124
  188POPC  H17R21632   6.818   5.921   4.093 -2.8126 -1.8273  2.4895
  188POPC  H17S21633   6.876   5.824   3.958  0.0263 -0.2377 -0.9179
  188POPC  C21821634   6.739   5.715   4.098  0.1195  0.1023 -0.6183
  188POPC  H18R21635   6.689   5.646   4.027  1.8988 -2.2439  0.3506
  188POPC  H18S21636   6.674   5.738   4.185 -0.3875 -0.5342 -0.8318
  188POPC  H18T21637   6.828   5.666   4.142 -0.5702 -0.9514 -0.3842
  188POPC   C3321638   5.746   5.744   2.712 -0.7906  0.3109  0.2976
  188POPC   H3X21639   5.851   5.780   2.709 -0.3516 -1.0378 -0.6128
  188POPC   H3Y21640   5.753   5.634   2.704  1.1429  0.4019  0.4967
  188POPC   C3421641   5.669   5.756   2.845 -0.3346 -0.2520  0.5561
  188POPC   H4X21642   5.589   5.680   2.844 -0.1333 -0.4585 -1.9188
  188POPC   H4Y21643   5.646   5.865   2.847  1.8772  0.2521  0.4765
  188POPC   C3521644   5.756   5.720   2.969  0.2654 -0.1792  0.2057
  188POPC   H5X21645   5.850   5.779   2.970 -0.2979  0.7186  1.6028
  188POPC   H5Y21646   5.788   5.614   2.965  1.4913  0.2086 -0.4968
  188POPC   C3621647   5.684   5.741   3.095  0.3310  0.2087 -0.5056
  188POPC   H6X21648   5.609   5.658   3.095 -1.4071  1.7308  0.7027
  188POPC   H6Y21649   5.623   5.834   3.100 -0.0754 -0.1340  1.2465
  188POPC   C3721650   5.775   5.735   3.216 -0.5213 -0.1704 -0.5378
  188POPC   H7X21651   5.856   5.810   3.210  0.1573 -0.8602 -0.1382
  188POPC   H7Y21652   5.830   5.639   3.201 -1.1551 -0.7226  0.6637
  188POPC   C3821653   5.706   5.754   3.354 -0.0482 -0.7185  0.7056
  188POPC   H8X21654   5.605   5.708   3.353 -0.7077  0.6816  1.1975
  188POPC   H8Y21655   5.707   5.864   3.371 -2.4623 -0.6848  0.7244
  188POPC   C3921656   5.767   5.677   3.469 -0.2581 -0.0413  0.9059
  188POPC   H9X21657   5.869   5.719   3.464 -0.7743  1.4295  2.2268
  188POPC   H9Y21658   5.770   5.566   3.462 -1.2292 -0.1464  1.9636
  188POPC  C31021659   5.697   5.707   3.602  0.1064 -0.2321  0.0354
  188POPC  H10X21660   5.588   5.687   3.604 -0.3991  2.3772  3.6918
  188POPC  H10Y21661   5.700   5.816   3.626  2.0230  0.0898 -1.4864
  188POPC  C31121662   5.753   5.624   3.726 -0.0594 -0.1128  0.5615
  188POPC  H11X21663   5.834   5.668   3.787  0.5161 -0.4992  0.0893
  188POPC  H11Y21664   5.792   5.526   3.690 -1.4562  0.1720 -1.8374
  188POPC  C31221665   5.651   5.590   3.829  0.5758  0.4667 -0.6577
  188POPC  H12X21666   5.688   5.504   3.889  0.5973 -0.5326 -2.0688
  188POPC  H12Y21667   5.569   5.546   3.769  1.3054 -2.2237  0.2566
  188POPC  C31321668   5.591   5.699   3.924  0.5143 -0.0509 -0.7388
  188POPC  H13X21669   5.542   5.773   3.857  3.5707  0.4660 -2.4847
  188POPC  H13Y21670   5.673   5.744   3.983  1.8650 -2.4229 -0.7488
  188POPC  C31421671   5.476   5.658   4.011 -0.5456 -0.2962 -0.9767
  188POPC  H14X21672   5.508   5.576   4.079 -0.0040  1.1806  0.6042
  188POPC  H14Y21673   5.389   5.617   3.956 -1.4021  0.4348 -0.1872
  188POPC  C31521674   5.429   5.781   4.093 -0.3740  0.2372  0.0470
  188POPC  H15X21675   5.394   5.854   4.016 -1.3919 -0.2310  0.0527
  188POPC  H15Y21676   5.519   5.833   4.132  0.3598 -0.3860 -0.7831
  188POPC  C31621677   5.318   5.770   4.203 -0.4511  0.4750 -0.3486
  188POPC  H16X21678   5.229   5.748   4.139 -0.9357 -0.1160  0.5159
  188POPC  H16Y21679   5.300   5.865   4.256  2.9389  0.5925  0.7120
  188POPC  H16Z21680   5.341   5.692   4.279  1.2513  2.6337  1.3703
  189SAPI   C1221681   5.676   6.088   6.207  0.0908  0.3151 -0.4328
  189SAPI    H221682   5.703   5.988   6.169 -0.1926 -0.3886  1.1621
  189SAPI    O221683   5.590   6.161   6.122 -0.2435  0.5310 -0.0469
  189SAPI   HO221684   5.548   6.097   6.064 -3.4759  0.9471  1.7335
  189SAPI   C1321685   5.612   6.053   6.339 -0.0924  0.0064 -0.0623
  189SAPI    H321686   5.688   5.989   6.390  0.6365  1.7114  1.0732
  189SAPI    O321687   5.489   5.984   6.319 -0.2630  0.0591  0.1293
  189SAPI   HO321688   5.423   6.047   6.289  0.3424  1.8715  2.4282
  189SAPI   C1421689   5.594   6.183   6.417  0.0872  0.0596  0.6742
  189SAPI    H421690   5.528   6.257   6.368  1.0689 -0.6598 -1.8151
  189SAPI    O421691   5.527   6.164   6.544  0.1013  0.0488  0.7362
  189SAPI   HO421692   5.439   6.201   6.541 -0.3216 -0.9554  0.7193
  189SAPI   C1521693   5.726   6.254   6.433 -0.3362 -0.0590 -0.4603
  189SAPI    H521694   5.800   6.189   6.486  1.0539  0.6088 -1.5610
  189SAPI    O521695   5.712   6.371   6.511 -0.1694  0.3669  0.4893
  189SAPI   HO521696   5.747   6.363   6.600  1.0538 -1.3800 -0.1480
  189SAPI   C1621697   5.793   6.280   6.307 -0.3758 -0.2342 -0.5401
  189SAPI    H621698   5.730   6.348   6.245 -2.7245  0.2734  2.2833
  189SAPI    O621699   5.921   6.341   6.319 -0.8662  0.3279 -0.1472
  189SAPI   HO621700   5.956   6.360   6.232  0.9227 -0.8299  0.2850
  189SAPI   C1121701   5.812   6.154   6.223  0.2864 -0.0414 -0.1342
  189SAPI    H121702   5.870   6.084   6.288 -0.3908 -0.2978  0.2054
  189SAPI     P21703   6.011   6.108   6.051  0.2221 -0.1865 -0.4246
  189SAPI   O1321704   6.055   6.002   6.140 -0.4245 -0.4581  0.0386
  189SAPI   O1421705   6.110   6.204   6.016  0.0000  1.2227 -0.3854
  189SAPI   O1221706   5.877   6.182   6.101  0.6360 -0.0959 -0.1050
  189SAPI   O1121707   5.962   6.038   5.922 -0.0373  0.5461  0.8828
  189SAPI    C121708   5.935   6.115   5.802 -0.5995 -0.6805 -0.0510
  189SAPI    HA21709   5.979   6.216   5.813 -0.4509 -0.8008  0.5189
  189SAPI    HB21710   5.979   6.065   5.713 -3.2338 -0.6701 -1.4145
  189SAPI    C221711   5.781   6.131   5.790 -0.0338  0.4282 -0.4951
  189SAPI    HS21712   5.733   6.165   5.885  2.2713 -2.8179  1.9580
  189SAPI   O2121713   5.729   5.997   5.760  0.2144 -0.0666  0.3292
  189SAPI   C2121714   5.605   5.981   5.774  0.8410  0.4819 -0.1431
  189SAPI   O2221715   5.527   6.074   5.818 -0.7414  1.0537 -0.2814
  189SAPI   C2221716   5.559   5.842   5.718 -1.1521 -0.0223 -0.3928
  189SAPI   H2R21717   5.619   5.813   5.629  0.9950  1.5989  0.4848
  189SAPI   H2S21718   5.581   5.764   5.794  1.0512 -1.9794 -2.9160
  189SAPI    C321719   5.749   6.229   5.672 -0.3494  0.5545  0.0739
  189SAPI    HX21720   5.784   6.332   5.698  0.5360  0.0217  1.0342
  189SAPI    HY21721   5.639   6.243   5.665 -0.3961 -0.4698 -1.2546
  189SAPI   O3121722   5.812   6.194   5.550 -0.7134 -0.0257 -0.1811
  189SAPI   C3121723   5.740   6.127   5.460 -0.1612  0.0157 -0.2314
  189SAPI   O3221724   5.620   6.106   5.463  0.1221 -0.0709 -0.2844
  189SAPI   C3221725   5.827   6.094   5.344 -0.0556  0.7984  0.0216
  189SAPI   H2X21726   5.910   6.166   5.333  1.8244 -1.1315  1.2819
  189SAPI   H2Y21727   5.758   6.109   5.258 -0.7229  3.3855  0.9938
  189SAPI   C2321728   5.407   5.840   5.681 -0.3500 -0.6247  0.2115
  189SAPI   H3R21729   5.400   5.932   5.618  1.7989 -0.6132 -0.0304
  189SAPI   H3S21730   5.369   5.859   5.783  0.8888 -1.1443  0.7779
  189SAPI   C2421731   5.368   5.698   5.612  0.2908 -0.5598  0.6975
  189SAPI   H4R21732   5.409   5.630   5.690  3.8719 -0.9470 -1.4025
  189SAPI   H4S21733   5.442   5.692   5.530 -1.5915 -0.3161 -1.0590
  189SAPI   C2521734   5.226   5.686   5.569 -0.0810  0.2962  0.0084
  189SAPI   H5R21735   5.148   5.647   5.636  1.4884 -0.3104  1.4838
  189SAPI   C2621736   5.191   5.693   5.444 -0.5168 -0.1401  0.1889
  189SAPI   H6R21737   5.085   5.693   5.413 -0.3006 -0.6277 -0.5708
  189SAPI   C2721738   5.283   5.714   5.321  0.0795 -0.0298 -0.5252
  189SAPI   H7R21739   5.221   5.672   5.239 -0.9796 -1.3140  0.9099
  189SAPI   H7S21740   5.371   5.646   5.322  0.2942  0.1608  3.4154
  189SAPI   C2821741   5.331   5.857   5.304  0.6007 -0.2975  0.1574
  189SAPI   H8R21742   5.416   5.893   5.364  0.3289 -1.3132  1.1857
  189SAPI   C2921743   5.271   5.944   5.223  0.1956  0.3361  0.1873
  189SAPI   H9R21744   5.307   6.048   5.225  1.4726 -0.1077  0.7672
  189SAPI  C21021745   5.151   5.925   5.131  0.4442 -0.0107  0.5057
  189SAPI  H10R21746   5.131   5.816   5.122  1.3950 -0.3064  1.9202
  189SAPI  H10S21747   5.192   5.967   5.036 -0.0419  1.9311  1.1375
  189SAPI  C21121748   5.021   5.999   5.163 -0.2456  0.0119 -0.0667
  189SAPI  H11R21749   4.964   5.965   5.251  0.2220 -0.6633 -0.0185
  189SAPI  C21221750   4.970   6.109   5.096  0.2633 -0.7602  0.4096
  189SAPI  H12R21751   4.878   6.146   5.143 -0.3865 -3.6643  1.5618
  189SAPI  C21321752   5.033   6.168   4.968  0.6611 -0.4152  0.0115
  189SAPI  H13R21753   5.108   6.098   4.928  2.1563  0.8780  0.4918
  189SAPI  H13S21754   5.089   6.261   4.995 -0.7242  0.9386 -1.6151
  189SAPI  C21421755   4.928   6.203   4.867  0.8827 -0.2423  0.5746
  189SAPI  H14R21756   4.833   6.239   4.909  0.5923 -0.2940 -0.0315
  189SAPI  C21521757   4.942   6.195   4.731 -0.4297 -0.3962 -0.7582
  189SAPI  H15R21758   4.858   6.211   4.662 -1.1744 -2.2965 -0.3411
  189SAPI  C21621759   5.068   6.151   4.663  0.1221  0.0109  0.4685
  189SAPI  H16R21760   5.096   6.050   4.700  0.4432  0.9174  2.7928
  189SAPI  H16S21761   5.148   6.213   4.708 -1.1892  1.8830  0.2658
  189SAPI  C21721762   5.070   6.147   4.507 -0.3581 -0.0156  0.0913
  189SAPI  H17R21763   5.030   6.239   4.459 -0.2540  0.2064  0.4312
  189SAPI  H17S21764   5.013   6.060   4.468 -2.8430  2.2702 -1.5705
  189SAPI  C21821765   5.211   6.123   4.449  0.0607  0.6790 -0.5013
  189SAPI  H18R21766   5.258   6.033   4.493 -2.8947 -1.2737 -1.2458
  189SAPI  H18S21767   5.272   6.203   4.496 -1.7748  1.6323  0.3077
  189SAPI  C21921768   5.214   6.128   4.298  0.6517  0.0906  0.2701
  189SAPI  H19R21769   5.147   6.214   4.278 -1.9252 -2.1147 -0.9107
  189SAPI  H19S21770   5.165   6.041   4.248 -1.2563  1.9689 -1.2378
  189SAPI  C22021771   5.353   6.142   4.235  0.1403  0.4048  0.6033
  189SAPI  H20R21772   5.413   6.222   4.283 -0.7499  2.1192 -1.0770
  189SAPI  H20S21773   5.348   6.178   4.130  0.0981 -0.4465  0.3166
  189SAPI  H20T21774   5.415   6.050   4.243  1.9972  1.7709  2.6195
  189SAPI   C3321775   5.891   5.955   5.357 -0.1440 -0.4630  0.4775
  189SAPI   H3X21776   5.950   5.940   5.450  0.1274 -0.1635  0.3531
  189SAPI   H3Y21777   5.966   5.952   5.276  1.1778  0.0761  1.6746
  189SAPI   C3421778   5.790   5.848   5.326 -0.6481  0.3513  0.2037
  189SAPI   H4X21779   5.738   5.862   5.229 -1.0514 -0.8977  0.2348
  189SAPI   H4Y21780   5.717   5.836   5.408  0.1025  1.2907  1.0349
  189SAPI   C3521781   5.858   5.712   5.324 -0.2220  0.3718  0.5156
  189SAPI   H5X21782   5.915   5.694   5.418 -0.0650 -1.4309  0.0859
  189SAPI   H5Y21783   5.931   5.708   5.241  0.2770 -1.5723  1.0310
  189SAPI   C3621784   5.767   5.586   5.287 -0.3940 -1.3746  1.1686
  189SAPI   H6X21785   5.830   5.525   5.219 -0.0924  1.7185 -1.4229
  189SAPI   H6Y21786   5.677   5.621   5.233  0.4326 -0.0549  0.6179
  189SAPI   C3721787   5.741   5.497   5.411  0.1170 -0.6771  0.7036
  189SAPI   H7X21788   5.709   5.565   5.492  0.7840 -0.3823  0.7279
  189SAPI   H7Y21789   5.830   5.442   5.450  0.6995 -0.2920 -0.0637
  189SAPI   C3821790   5.626   5.392   5.387  0.3870  0.1411 -0.2036
  189SAPI   H8X21791   5.528   5.441   5.368  0.7653  0.3909 -1.5088
  189SAPI   H8Y21792   5.611   5.334   5.481 -1.2400  0.1476 -0.4381
  189SAPI   C3921793   5.660   5.307   5.259 -0.1550  0.5003  0.1543
  189SAPI   H9X21794   5.657   5.379   5.174 -0.1699 -0.2294 -0.4700
  189SAPI   H9Y21795   5.580   5.233   5.238  2.1354 -1.5684 -1.6759
  189SAPI  C31021796   5.793   5.230   5.264 -0.0054 -0.3045  0.2608
  189SAPI  H10X21797   5.782   5.163   5.352 -1.4178  0.5184  0.7184
  189SAPI  H10Y21798   5.881   5.294   5.288  0.2388  0.1726 -1.8143
  189SAPI  C31121799   5.826   5.149   5.132  0.7373  0.0087  0.2130
  189SAPI  H11X21800   5.747   5.070   5.133  0.4176  0.3024 -0.8060
  189SAPI  H11Y21801   5.924   5.103   5.153  0.7783  0.3204  0.6998
  189SAPI  C31221802   5.817   5.220   5.000 -0.7512  0.5820 -0.3345
  189SAPI  H12X21803   5.886   5.307   4.998  1.5137 -1.1633 -0.3354
  189SAPI  H12Y21804   5.712   5.256   4.992 -0.6562  1.3071  1.5639
  189SAPI  C31321805   5.851   5.140   4.883  0.2571  0.2702  0.6873
  189SAPI  H13X21806   5.789   5.048   4.877  0.7836 -0.0667  0.4092
  189SAPI  H13Y21807   5.954   5.101   4.895 -0.5426 -2.4791 -0.8977
  189SAPI  C31421808   5.850   5.213   4.750 -0.2187 -0.0595  0.4506
  189SAPI  H14X21809   5.885   5.142   4.672  0.6345 -0.3206  1.0590
  189SAPI  H14Y21810   5.919   5.300   4.757  1.6340 -1.4652  0.1611
  189SAPI  C31521811   5.708   5.259   4.707  0.5376 -0.2225  0.5949
  189SAPI  H15X21812   5.673   5.320   4.793 -3.2237 -0.1847 -0.8986
  189SAPI  H15Y21813   5.641   5.170   4.698  0.9150 -0.7306  2.5630
  189SAPI  C31621814   5.703   5.345   4.579  0.3753  0.3309 -0.8255
  189SAPI  H16X21815   5.766   5.294   4.503  0.5747 -0.0950 -0.3754
  189SAPI  H16Y21816   5.729   5.452   4.595  0.9338  0.0853 -0.0357
  189SAPI  C31721817   5.555   5.358   4.523 -0.4419 -0.2648 -0.0094
  189SAPI  H17X21818   5.501   5.394   4.613  0.7214  3.8612 -0.8780
  189SAPI  H17Y21819   5.517   5.257   4.496 -1.2853 -0.0674  0.4069
  189SAPI  C31821820   5.545   5.460   4.405 -1.3154 -0.8415  0.6523
  189SAPI  H18X21821   5.441   5.465   4.367 -1.2118 -2.9939  0.0189
  189SAPI  H18Y21822   5.612   5.430   4.321  0.3283 -2.5082  2.4815
  189SAPI  H18Z21823   5.583   5.558   4.442 -2.3737 -0.0799 -0.2506
  190SAPI   C1221824   0.081   1.784   6.286  0.8926 -0.5853 -0.5133
  190SAPI    H221825   0.116   1.771   6.181 -0.1808 -0.4015 -0.9052
  190SAPI    O221826   0.187   1.834   6.372  0.4420  0.0124 -0.4129
  190SAPI   HO221827   0.260   1.867   6.318 -0.4976  1.6331 -0.7361
  190SAPI   C1321828  -0.040   1.889   6.292 -0.5293  0.2337  0.2437
  190SAPI    H321829  -0.122   1.865   6.221 -0.6975 -3.6280  1.6782
  190SAPI    O321830   0.009   2.019   6.245 -0.4890  0.2025  0.1119
  190SAPI   HO321831   0.089   2.041   6.292 -0.5540  0.2410  0.2036
  190SAPI   C1421832  -0.091   1.899   6.439 -0.1101  0.7099  0.2690
  190SAPI    H421833  -0.007   1.930   6.505  2.1010  1.0592 -2.6162
  190SAPI    O421834  -0.184   2.006   6.459  0.3651  0.3463 -0.1661
  190SAPI   HO421835  -0.139   2.087   6.436 -1.2197  0.6363 -2.4691
  190SAPI   C1521836  -0.141   1.764   6.475 -0.2476 -0.4027 -0.4748
  190SAPI    H521837  -0.220   1.733   6.403  0.3139 -0.3899 -1.0999
  190SAPI    O521838  -0.203   1.771   6.600  0.1454 -0.1993  0.0153
  190SAPI   HO521839  -0.294   1.795   6.582  0.4484  1.5231  0.6584
  190SAPI   C1621840  -0.037   1.653   6.469 -0.3863 -0.1638  0.7972
  190SAPI    H621841   0.038   1.684   6.545  1.9567 -1.4884 -0.9193
  190SAPI    O621842  -0.090   1.529   6.510 -0.0856 -0.3493  0.1083
  190SAPI   HO621843  -0.025   1.473   6.467  0.8840 -0.3454  1.5488
  190SAPI   C1121844   0.030   1.648   6.328 -0.3760  0.3064 -0.0704
  190SAPI    H121845  -0.054   1.634   6.256  0.5162  1.3488 -1.3359
  190SAPI     P21846   0.182   1.459   6.188 -0.2798  0.1690 -0.6173
  190SAPI   O1321847   0.067   1.414   6.117 -0.2650 -0.0013 -0.2886
  190SAPI   O1421848   0.273   1.362   6.244  0.5577 -0.3120  0.0309
  190SAPI   O1221849   0.134   1.542   6.319  0.0576  0.2201 -0.0127
  190SAPI   O1121850   0.259   1.558   6.099  0.5113 -0.3251 -0.2087
  190SAPI    C121851   0.396   1.597   6.131 -0.2038 -0.4628  0.5280
  190SAPI    HA21852   0.415   1.636   6.234 -0.9521 -1.1570  0.9361
  190SAPI    HB21853   0.465   1.511   6.125 -0.0448 -0.2223 -1.2043
  190SAPI    C221854   0.458   1.700   6.036 -0.6825  0.0269  0.5222
  190SAPI    HS21855   0.402   1.795   6.051  2.0134  1.4996  1.7792
  190SAPI   O2121856   0.438   1.648   5.907  0.1719  0.2763 -0.2842
  190SAPI   C2121857   0.467   1.731   5.805  0.5891  0.0013 -0.2007
  190SAPI   O2221858   0.500   1.848   5.820 -0.0845 -0.1054  0.5675
  190SAPI   C2221859   0.463   1.649   5.680 -0.7952  0.3065  0.4200
  190SAPI   H2R21860   0.522   1.558   5.704 -2.2814 -0.7114  0.3393
  190SAPI   H2S21861   0.355   1.623   5.666 -0.7029 -0.5583  1.2609
  190SAPI    C321862   0.612   1.727   6.058  0.3901  0.1636  0.8061
  190SAPI    HX21863   0.620   1.784   6.153 -0.2020 -0.5004  1.2641
  190SAPI    HY21864   0.653   1.797   5.982  0.0186 -0.8462 -0.3448
  190SAPI   O3121865   0.680   1.595   6.072  0.4003 -0.2623  0.1045
  190SAPI   C3121866   0.758   1.560   5.962  0.6634 -0.2390  0.5606
  190SAPI   O3221867   0.795   1.636   5.876  0.4313 -0.0465 -0.0528
  190SAPI   C3221868   0.795   1.417   5.958 -0.0084  0.4050  0.1367
  190SAPI   H2X21869   0.780   1.372   6.059  0.9303 -0.7751 -0.2459
  190SAPI   H2Y21870   0.904   1.410   5.940 -0.4144 -1.1796 -1.8467
  190SAPI   C2321871   0.521   1.722   5.553  0.0599  0.4190  0.4667
  190SAPI   H3R21872   0.526   1.642   5.476  1.7703  0.5024  0.4646
  190SAPI   H3S21873   0.624   1.751   5.585  0.6377 -1.1928  0.1354
  190SAPI   C2421874   0.447   1.837   5.491 -0.1615 -0.7158  0.8972
  190SAPI   H4R21875   0.526   1.867   5.419  0.2943 -2.0578  0.8392
  190SAPI   H4S21876   0.431   1.915   5.569 -0.4152  0.5766 -0.4186
  190SAPI   C2521877   0.311   1.802   5.429  0.4528 -0.4131 -0.4011
  190SAPI   H5R21878   0.229   1.796   5.503  1.6280  0.7926  1.0252
  190SAPI   C2621879   0.281   1.803   5.297  0.3064  0.4039 -0.5556
  190SAPI   H6R21880   0.177   1.772   5.280  0.6170 -0.9578 -0.0400
  190SAPI   C2721881   0.375   1.824   5.183  0.0070  0.1946 -0.3707
  190SAPI   H7R21882   0.419   1.926   5.190  0.6778 -0.1217  0.0366
  190SAPI   H7S21883   0.301   1.836   5.100 -0.3715  3.0486  0.3044
  190SAPI   C2821884   0.485   1.726   5.152 -0.9504 -0.4452  0.2443
  190SAPI   H8R21885   0.515   1.660   5.235 -1.5572  0.8032  1.4707
  190SAPI   C2921886   0.546   1.721   5.033  0.2471  0.1847 -0.0626
  190SAPI   H9R21887   0.613   1.636   5.011  0.3854  0.7556 -1.9703
  190SAPI  C21021888   0.534   1.806   4.908 -0.3679  0.9557  0.1426
  190SAPI  H10R21889   0.636   1.811   4.864  0.3969 -0.6095  1.7110
  190SAPI  H10S21890   0.507   1.910   4.937  2.0563  1.6116  0.2081
  190SAPI  C21121891   0.434   1.748   4.813 -0.5452  0.5862 -1.2934
  190SAPI  H11R21892   0.327   1.767   4.827 -1.0981 -2.9235 -0.1971
  190SAPI  C21221893   0.463   1.693   4.693 -0.4374  0.3055 -0.5556
  190SAPI  H12R21894   0.379   1.653   4.636  0.4526 -2.3416 -0.0829
  190SAPI  C21321895   0.596   1.670   4.624  0.0790 -0.3551 -0.2551
  190SAPI  H13R21896   0.574   1.585   4.556 -1.8704  0.5049 -0.7673
  190SAPI  H13S21897   0.668   1.653   4.706  3.4992 -1.4331 -3.3630
  190SAPI  C21421898   0.646   1.791   4.539  0.0417 -0.0888 -0.6309
  190SAPI  H14R21899   0.587   1.884   4.542  1.7253  0.9641  1.3872
  190SAPI  C21521900   0.740   1.789   4.445 -0.0037 -0.7051  0.6378
  190SAPI  H15R21901   0.756   1.881   4.387  0.1592 -1.4779 -0.5733
  190SAPI  C21621902   0.814   1.671   4.390 -0.2734 -0.7796 -0.4486
  190SAPI  H16R21903   0.781   1.573   4.432 -0.7483 -0.8787 -1.0468
  190SAPI  H16S21904   0.921   1.666   4.418 -0.6768 -0.5425  1.1816
  190SAPI  C21721905   0.784   1.680   4.241 -0.6283 -0.2149 -0.1916
  190SAPI  H17R21906   0.829   1.587   4.201 -0.7867 -0.8898  1.1616
  190SAPI  H17S21907   0.836   1.768   4.198  1.4280 -2.3420 -2.1766
  190SAPI  C21821908   0.632   1.667   4.202 -0.0569  0.5127  0.1529
  190SAPI  H18R21909   0.562   1.745   4.240 -2.4392 -1.1646 -0.6751
  190SAPI  H18S21910   0.589   1.575   4.247 -1.0962 -0.0424 -1.9314
  190SAPI  C21921911   0.610   1.658   4.057 -0.3380  0.5011 -0.7895
  190SAPI  H19R21912   0.670   1.572   4.020  0.2844  0.3461  0.5601
  190SAPI  H19S21913   0.654   1.747   4.007  0.1965  0.0812 -1.0774
  190SAPI  C22021914   0.462   1.657   4.018  0.3204 -0.0029  0.1654
  190SAPI  H20R21915   0.404   1.740   4.064  1.2953  0.0838  1.2600
  190SAPI  H20S21916   0.408   1.568   4.056 -1.4260  1.0385  0.1799
  190SAPI  H20T21917   0.434   1.665   3.911 -2.8011 -0.8796  0.8683
  190SAPI   C3321918   0.707   1.332   5.857 -1.1385 -0.3831 -0.5282
  190SAPI   H3X21919   0.772   1.245   5.832  0.6488  1.2362 -1.6877
  190SAPI   H3Y21920   0.696   1.375   5.755 -1.9189 -0.2009 -0.3699
  190SAPI   C3421921   0.575   1.287   5.919  0.3235  0.5891 -0.0856
  190SAPI   H4X21922   0.510   1.374   5.946 -1.2597 -0.2177 -1.2152
  190SAPI   H4Y21923   0.601   1.212   5.997  1.1288 -0.2991 -1.1966
  190SAPI   C3521924   0.488   1.215   5.816  0.1056 -0.2792 -0.2594
  190SAPI   H5X21925   0.415   1.157   5.876  0.2438 -0.1003  0.0866
  190SAPI   H5Y21926   0.535   1.137   5.752 -1.3174 -0.0477 -1.6021
  190SAPI   C3621927   0.421   1.301   5.717 -0.2327 -0.0508  0.6228
  190SAPI   H6X21928   0.491   1.356   5.651 -1.0447  2.0000  1.4479
  190SAPI   H6Y21929   0.358   1.377   5.767 -0.4550 -0.4006  0.8752
  190SAPI   C3721930   0.323   1.225   5.630 -0.4082 -0.1655 -0.3458
  190SAPI   H7X21931   0.251   1.174   5.698 -1.3058 -0.4383 -1.4787
  190SAPI   H7Y21932   0.361   1.145   5.564 -0.8925 -0.0405 -0.7852
  190SAPI   C3821933   0.240   1.317   5.536  0.9132 -0.7763  0.1630
  190SAPI   H8X21934   0.172   1.383   5.595  2.1954 -0.0351  0.8298
  190SAPI   H8Y21935   0.177   1.247   5.478  0.9731 -0.9988  0.3664
  190SAPI   C3921936   0.321   1.391   5.424 -0.4622  0.1940 -0.1249
  190SAPI   H9X21937   0.412   1.438   5.466 -0.7957  0.0806  0.7250
  190SAPI   H9Y21938   0.261   1.464   5.365  0.7158  1.9508  0.7982
  190SAPI  C31021939   0.378   1.295   5.315  0.1313  0.1095 -0.1565
  190SAPI  H10X21940   0.301   1.255   5.246 -1.4372  1.0453  1.0001
  190SAPI  H10Y21941   0.417   1.201   5.360 -0.5373 -0.0904  0.0133
  190SAPI  C31121942   0.464   1.376   5.213 -0.4853 -0.0424  0.3970
  190SAPI  H11X21943   0.544   1.429   5.269  0.5816 -0.8891 -0.2946
  190SAPI  H11Y21944   0.396   1.444   5.158 -0.3749  1.1824  1.7488
  190SAPI  C31221945   0.524   1.280   5.114  0.3195 -0.9116 -0.4595
  190SAPI  H12X21946   0.432   1.218   5.098  0.4871 -1.5383  0.9129
  190SAPI  H12Y21947   0.600   1.211   5.155  1.4577  0.5136 -0.1557
  190SAPI  C31321948   0.571   1.353   4.986 -0.7230 -0.1702 -0.2089
  190SAPI  H13X21949   0.654   1.422   5.014  0.8077 -2.0627  0.0369
  190SAPI  H13Y21950   0.486   1.408   4.941 -1.3320 -0.4574  0.5697
  190SAPI  C31421951   0.625   1.250   4.886  0.2941 -0.4781  0.1637
  190SAPI  H14X21952   0.535   1.192   4.854 -0.2053  0.9162 -1.0478
  190SAPI  H14Y21953   0.694   1.179   4.936  0.3115  0.5343  1.5964
  190SAPI  C31521954   0.686   1.307   4.759 -1.0648  0.5522  0.9887
  190SAPI  H15X21955   0.771   1.370   4.793  0.3888 -1.2817  0.8155
  190SAPI  H15Y21956   0.607   1.366   4.708 -0.7634 -0.3108 -0.5075
  190SAPI  C31621957   0.742   1.202   4.664 -0.6014 -0.1912  0.2620
  190SAPI  H16X21958   0.661   1.126   4.655 -0.9887  0.2590 -0.1118
  190SAPI  H16Y21959   0.826   1.152   4.716  1.0926  1.7765 -0.4796
  190SAPI  C31721960   0.793   1.261   4.534 -0.3129  0.0931 -0.3523
  190SAPI  H17X21961   0.888   1.214   4.501 -0.5795 -1.3167  0.8523
  190SAPI  H17Y21962   0.831   1.357   4.577 -1.4056 -0.1450  1.1810
  190SAPI  C31821963   0.689   1.285   4.423 -0.7377  0.0323  0.2902
  190SAPI  H18X21964   0.597   1.326   4.471  0.1656  1.0846  1.1503
  190SAPI  H18Y21965   0.659   1.196   4.363 -0.7738 -0.2880  0.7819
  190SAPI  H18Z21966   0.725   1.362   4.351 -2.6286  1.1565  0.5128
  191SAPI   C1221967   4.197   3.454   1.656 -0.2890  0.4642  0.4409
  191SAPI    H221968   4.154   3.365   1.705 -0.9856  0.7845  0.4147
  191SAPI    O221969   4.288   3.409   1.552 -0.3024 -1.1817 -0.0849
  191SAPI   HO221970   4.330   3.330   1.586  1.0912  0.3999  1.9870
  191SAPI   C1321971   4.077   3.523   1.601 -0.3365 -0.2498 -0.2610
  191SAPI    H321972   4.013   3.567   1.680 -1.7198 -0.4410 -1.2596
  191SAPI    O321973   3.993   3.438   1.520  0.6278  0.7866  0.4182
  191SAPI   HO321974   4.048   3.422   1.443 -2.3769 -1.9539 -1.3351
  191SAPI   C1421975   4.131   3.646   1.522  0.2179  0.5372 -0.3473
  191SAPI    H421976   4.184   3.613   1.430  1.0535 -1.0942  0.7018
  191SAPI    O421977   4.016   3.706   1.472  0.8550  0.0902 -0.5457
  191SAPI   HO421978   3.986   3.664   1.391  0.6092 -0.7261 -0.0338
  191SAPI   C1521979   4.216   3.743   1.607 -0.7546 -0.6260 -0.0060
  191SAPI    H521980   4.151   3.792   1.683  1.1517  2.2144 -0.1355
  191SAPI    O521981   4.267   3.855   1.524  0.7782  0.4896 -0.0347
  191SAPI   HO521982   4.271   3.817   1.436  0.8074 -0.2977  0.3020
  191SAPI   C1621983   4.320   3.669   1.682 -0.2980  0.0608 -0.3306
  191SAPI    H621984   4.396   3.630   1.611 -0.2206 -0.7761  0.2010
  191SAPI    O621985   4.374   3.757   1.778 -0.4279  0.0390  0.6474
  191SAPI   HO621986   4.441   3.703   1.819 -0.5533  0.2179  1.0938
  191SAPI   C1121987   4.265   3.551   1.754  0.3165  0.0197  0.6865
  191SAPI    H121988   4.185   3.574   1.828  0.4857  1.0894  0.5364
  191SAPI     P21989   4.389   3.454   1.977  0.2047 -0.1792 -0.1489
  191SAPI   O1321990   4.516   3.383   1.996  0.1868  0.2588 -0.5261
  191SAPI   O1421991   4.265   3.396   2.034 -0.2005 -0.0436 -0.1655
  191SAPI   O1221992   4.369   3.478   1.818  0.4671 -0.1878  0.3075
  191SAPI   O1121993   4.394   3.601   2.021  0.0080 -0.0649  0.0538
  191SAPI    C121994   4.523   3.659   2.047  0.6914  0.4022 -0.2086
  191SAPI    HA21995   4.608   3.620   1.986 -0.7505 -1.6777 -0.9641
  191SAPI    HB21996   4.520   3.762   2.007  0.4776  0.0842 -1.0144
  191SAPI    C221997   4.560   3.656   2.198 -0.5839  0.3205 -0.1972
  191SAPI    HS21998   4.652   3.709   2.230 -0.9377  1.0838 -0.4345
  191SAPI   O2121999   4.584   3.518   2.244  0.4464  0.4234 -0.3293
  191SAPI   C2122000   4.700   3.470   2.210 -0.2556 -1.0917 -0.0353
  191SAPI   O2222001   4.786   3.534   2.156 -0.0171 -0.0676 -0.0053
  191SAPI   C2222002   4.712   3.328   2.249  0.1391  0.9851  0.2355
  191SAPI   H2R22003   4.620   3.288   2.297  0.0346  0.3706 -0.4626
  191SAPI   H2S22004   4.715   3.276   2.151  0.9620  1.0390  0.2267
  191SAPI    C322005   4.456   3.733   2.282 -0.2192 -0.0813 -0.1968
  191SAPI    HX22006   4.359   3.685   2.262 -0.5217 -0.6689  2.4578
  191SAPI    HY22007   4.449   3.838   2.245 -1.0248 -1.0377 -2.8574
  191SAPI   O3122008   4.504   3.718   2.416  0.3839 -0.5462 -0.4853
  191SAPI   C3122009   4.417   3.668   2.508 -0.1225  0.6147 -0.4850
  191SAPI   O3222010   4.300   3.651   2.487  0.3103  0.3299 -0.2026
  191SAPI   C3222011   4.487   3.672   2.644 -0.6211  0.6297 -1.0620
  191SAPI   H2X22012   4.505   3.776   2.677  0.5892 -0.2047  1.0028
  191SAPI   H2Y22013   4.587   3.623   2.632 -0.4990  0.4290  0.6819
  191SAPI   C2322014   4.830   3.295   2.337 -0.0949  0.0428 -0.5121
  191SAPI   H3R22015   4.914   3.350   2.289 -0.5741  1.4163  0.1943
  191SAPI   H3S22016   4.844   3.186   2.319 -0.8406 -0.3627  1.2934
  191SAPI   C2422017   4.833   3.332   2.489 -0.5923  0.6506 -0.1746
  191SAPI   H4R22018   4.823   3.443   2.486 -0.3209  0.6633 -0.6946
  191SAPI   H4S22019   4.937   3.320   2.525 -0.3782 -0.1229 -1.0445
  191SAPI   C2522020   4.728   3.264   2.579  0.0121  0.6830  0.4968
  191SAPI   H5R22021   4.663   3.193   2.526  0.2367  0.4764  0.4989
  191SAPI   C2622022   4.713   3.280   2.710  0.5390 -1.3458 -0.2794
  191SAPI   H6R22023   4.639   3.213   2.755 -0.3448  0.8997  1.7635
  191SAPI   C2722024   4.806   3.363   2.794 -0.3601 -0.4904 -0.1125
  191SAPI   H7R22025   4.746   3.433   2.857  0.5985 -0.3436  0.6405
  191SAPI   H7S22026   4.874   3.423   2.730  0.5780 -0.3474  1.0194
  191SAPI   C2822027   4.906   3.290   2.886 -0.0196  0.1204  0.6970
  191SAPI   H8R22028   5.004   3.267   2.842 -1.1779 -0.0388 -1.8740
  191SAPI   C2922029   4.874   3.244   3.005 -0.0088  0.5143 -0.2366
  191SAPI   H9R22030   4.957   3.196   3.061 -1.3418 -0.5045  0.9071
  191SAPI  C21022031   4.739   3.260   3.075 -0.0528  0.5007 -1.0121
  191SAPI  H10R22032   4.691   3.160   3.083  0.4227  0.3826  0.5888
  191SAPI  H10S22033   4.671   3.325   3.016  1.2512  0.7519 -2.2598
  191SAPI  C21122034   4.771   3.328   3.201  0.1383 -0.5209  0.2422
  191SAPI  H11R22035   4.733   3.431   3.202 -2.9271 -1.5379 -2.3789
  191SAPI  C21222036   4.827   3.276   3.319 -0.4674  0.7290 -0.7572
  191SAPI  H12R22037   4.852   3.342   3.403  0.5374  0.5823 -0.9257
  191SAPI  C21322038   4.873   3.138   3.346  0.0803  0.9781 -0.1035
  191SAPI  H13R22039   4.983   3.137   3.366 -0.1957  0.0726  1.3815
  191SAPI  H13S22040   4.853   3.068   3.263 -2.2771  0.9003  0.4993
  191SAPI  C21422041   4.789   3.087   3.458 -0.1268  0.6968 -0.1174
  191SAPI  H14R22042   4.692   3.057   3.414  1.3579  0.0919 -3.1275
  191SAPI  C21522043   4.809   3.080   3.587 -0.1421  0.8250  0.2226
  191SAPI  H15R22044   4.729   3.042   3.652 -0.1250  1.4650  0.6196
  191SAPI  C21622045   4.933   3.125   3.657 -0.4914 -0.1867  0.6626
  191SAPI  H16R22046   4.950   3.228   3.620  0.0562 -0.9269 -1.2217
  191SAPI  H16S22047   5.014   3.064   3.610 -0.6491  0.6307 -0.7053
  191SAPI  C21722048   4.938   3.115   3.811  0.1569  0.0041 -0.1364
  191SAPI  H17R22049   4.843   3.162   3.846 -0.2596 -2.1521  1.8261
  191SAPI  H17S22050   5.012   3.186   3.853 -0.5212  0.5887  0.0910
  191SAPI  C21822051   4.943   2.978   3.872  0.8197  0.6665 -0.0309
  191SAPI  H18R22052   5.051   2.956   3.874  1.3709  3.0054 -1.7749
  191SAPI  H18S22053   4.913   2.916   3.785  4.3498 -3.6895  1.6823
  191SAPI  C21922054   4.863   2.941   4.006  0.3137 -0.6886 -0.3130
  191SAPI  H19R22055   4.757   2.971   3.997  0.0083 -2.2565 -2.3762
  191SAPI  H19S22056   4.912   2.998   4.088 -0.4043  2.6839 -2.1601
  191SAPI  C22022057   4.862   2.792   4.032 -0.5086  0.2751 -0.6772
  191SAPI  H20R22058   4.966   2.758   4.047 -1.5844 -2.4291  1.0201
  191SAPI  H20S22059   4.821   2.739   3.943 -1.4448  1.0447 -0.7207
  191SAPI  H20T22060   4.809   2.757   4.123 -0.9655  1.7477 -0.3596
  191SAPI   C3322061   4.413   3.596   2.750  0.8695  0.1694  0.1977
  191SAPI   H3X22062   4.416   3.491   2.717 -1.4825  0.1620 -0.0802
  191SAPI   H3Y22063   4.309   3.634   2.741  0.6238 -1.0415 -2.3951
  191SAPI   C3422064   4.464   3.605   2.890 -0.1451  0.4319  0.4483
  191SAPI   H4X22065   4.445   3.708   2.925  0.9285  0.4982  0.8484
  191SAPI   H4Y22066   4.573   3.585   2.890  0.3453  2.8785  2.5093
  191SAPI   C3522067   4.391   3.506   2.981 -0.6768  0.3480 -0.1015
  191SAPI   H5X22068   4.417   3.405   2.940  1.3229  0.9212 -0.3157
  191SAPI   H5Y22069   4.283   3.528   2.991 -1.1168 -1.8380  0.3268
  191SAPI   C3622070   4.444   3.504   3.122  0.6473  0.1908 -0.1490
  191SAPI   H6X22071   4.398   3.594   3.168 -0.2250 -0.1731 -0.2837
  191SAPI   H6Y22072   4.554   3.518   3.119  0.4084  2.0030 -1.6382
  191SAPI   C3722073   4.415   3.381   3.209 -0.3970 -1.1028 -0.2505
  191SAPI   H7X22074   4.438   3.290   3.149  0.3716  0.2335 -2.0598
  191SAPI   H7Y22075   4.304   3.376   3.216 -0.2741 -0.1542  3.0220
  191SAPI   C3822076   4.459   3.407   3.355 -0.2902  0.0486  0.4839
  191SAPI   H8X22077   4.429   3.510   3.384  1.9804  1.5745 -2.2500
  191SAPI   H8Y22078   4.570   3.398   3.359 -0.2987 -0.4418 -0.4023
  191SAPI   C3922079   4.415   3.304   3.457  0.1629  0.2863 -0.0135
  191SAPI   H9X22080   4.451   3.207   3.419 -1.1530 -1.4159  2.8569
  191SAPI   H9Y22081   4.305   3.299   3.476 -0.1221  2.7113 -0.8277
  191SAPI  C31022082   4.480   3.310   3.588 -0.7114  0.2981  0.4350
  191SAPI  H10X22083   4.452   3.396   3.652  2.5124  1.4537  0.3358
  191SAPI  H10Y22084   4.589   3.311   3.567 -0.9324 -0.6961 -0.8301
  191SAPI  C31122085   4.461   3.185   3.665  0.3921  0.6784  0.4788
  191SAPI  H11X22086   4.513   3.101   3.612 -0.1939 -0.2076  1.2962
  191SAPI  H11Y22087   4.352   3.168   3.676 -0.1759  2.2032 -2.2289
  191SAPI  C31222088   4.513   3.207   3.808  0.0589 -0.8521  0.0263
  191SAPI  H12X22089   4.463   3.292   3.861  1.6370  1.3161 -1.8472
  191SAPI  H12Y22090   4.619   3.234   3.791 -0.0245 -2.1776 -2.7414
  191SAPI  C31322091   4.507   3.088   3.890 -0.4859 -0.3750  0.2728
  191SAPI  H13X22092   4.518   3.127   3.994 -0.2349 -0.6821  0.3611
  191SAPI  H13Y22093   4.595   3.026   3.864  0.7418  1.6692 -0.5223
  191SAPI  C31422094   4.381   3.002   3.877 -0.1004 -0.4173  0.1335
  191SAPI  H14X22095   4.391   2.965   3.773  1.6697 -2.1555  0.8928
  191SAPI  H14Y22096   4.291   3.067   3.884  0.6038  0.5157  0.6515
  191SAPI  C31522097   4.381   2.878   3.967 -1.1180 -0.1346 -0.3917
  191SAPI  H15X22098   4.286   2.825   3.945 -0.7220 -1.7767  1.7323
  191SAPI  H15Y22099   4.390   2.893   4.077  0.3571 -1.7980 -0.2659
  191SAPI  C31622100   4.496   2.777   3.938 -0.6783 -0.8276 -0.5280
  191SAPI  H16X22101   4.592   2.818   3.977 -0.3582  0.0594 -2.1944
  191SAPI  H16Y22102   4.486   2.754   3.830 -2.7173 -2.1186 -0.0767
  191SAPI  C31722103   4.469   2.647   4.011 -0.5581 -0.5760  0.5405
  191SAPI  H17X22104   4.368   2.611   3.982 -0.3389  1.7783 -3.6169
  191SAPI  H17Y22105   4.459   2.661   4.120  0.4900 -2.1581  0.8485
  191SAPI  C31822106   4.571   2.534   3.976 -0.8749  0.5783 -0.1690
  191SAPI  H18X22107   4.668   2.558   4.024 -0.4321 -1.4474 -0.0121
  191SAPI  H18Y22108   4.598   2.523   3.869  2.5518 -0.7095  0.7799
  191SAPI  H18Z22109   4.542   2.434   4.016  0.1984  1.3600  2.7076
  192SAPI   C1222110   1.039   2.525   1.593 -0.1573 -0.3714 -0.3718
  192SAPI    H222111   1.128   2.556   1.651 -1.4757 -0.5363  1.8117
  192SAPI    O222112   0.925   2.605   1.631 -0.0919  0.1816 -0.3031
  192SAPI   HO222113   0.902   2.566   1.716  2.9766  0.5270  0.7234
  192SAPI   C1322114   1.075   2.539   1.448  0.2387 -0.2575 -0.5084
  192SAPI    H322115   1.162   2.472   1.434 -1.2483 -1.9310 -2.0876
  192SAPI    O322116   1.123   2.669   1.413 -0.0950 -0.5026  0.3048
  192SAPI   HO322117   1.055   2.710   1.359 -0.1628 -1.7638 -0.5752
  192SAPI   C1422118   0.955   2.499   1.361  0.0022  0.6165 -0.0656
  192SAPI    H422119   0.862   2.557   1.378 -0.3573 -0.5665  2.1231
  192SAPI    O422120   0.996   2.507   1.221 -0.4380 -0.1054  0.0084
  192SAPI   HO422121   0.921   2.473   1.171 -1.2273  2.2059 -0.4989
  192SAPI   C1522122   0.913   2.350   1.388  0.8059 -0.1534 -0.0332
  192SAPI    H522123   1.001   2.286   1.366  0.3047 -0.6594 -0.5605
  192SAPI    O522124   0.802   2.314   1.303  0.1198  0.1979  0.2871
  192SAPI   HO522125   0.814   2.236   1.249 -1.1225  0.3990 -0.2767
  192SAPI   C1622126   0.893   2.327   1.536  0.2478  0.1533  0.5819
  192SAPI    H622127   0.809   2.391   1.570 -0.3258  0.9376 -2.2401
  192SAPI    O622128   0.855   2.194   1.572 -0.4009  0.3791  0.4666
  192SAPI   HO622129   0.928   2.133   1.588  0.5020  1.4114  0.3502
  192SAPI   C1122130   1.006   2.381   1.621  0.2708 -0.2769 -0.4501
  192SAPI    H122131   1.095   2.321   1.593  3.8271  4.5552 -0.1045
  192SAPI     P22132   1.097   2.323   1.860 -0.5674 -0.3320 -0.1826
  192SAPI   O1322133   1.061   2.382   1.993  0.1605 -0.4534  0.2093
  192SAPI   O1422134   1.227   2.357   1.806 -0.4058  0.1162 -1.0586
  192SAPI   O1222135   0.978   2.368   1.757  0.0082 -0.5615  0.5673
  192SAPI   O1122136   1.085   2.162   1.872  0.3886 -0.1185  0.8498
  192SAPI    C122137   0.954   2.100   1.877  0.5563 -0.3511 -0.0533
  192SAPI    HA22138   0.883   2.148   1.806 -0.1827 -0.1335  0.8225
  192SAPI    HB22139   0.956   1.993   1.846  4.3924 -0.6796  1.0658
  192SAPI    C222140   0.890   2.103   2.020  0.4471 -0.5660  0.3193
  192SAPI    HS22141   0.846   2.205   2.033 -0.0695 -0.8667  0.9852
  192SAPI   O2122142   0.988   2.064   2.120 -0.0996 -0.6377 -0.3117
  192SAPI   C2122143   0.975   2.123   2.233 -0.3177 -0.9131 -0.3133
  192SAPI   O2222144   0.922   2.233   2.249  0.1553  0.4599 -0.0715
  192SAPI   C2222145   1.021   2.036   2.352  0.4624 -0.2652  0.0349
  192SAPI   H2R22146   0.972   1.938   2.336 -1.2133  0.3174  1.4633
  192SAPI   H2S22147   1.131   2.024   2.342  0.3246  0.0710 -2.3432
  192SAPI    C322148   0.759   2.009   2.033  0.0563 -0.2741 -0.4610
  192SAPI    HX22149   0.821   1.919   2.052  1.6036  0.4383 -1.9360
  192SAPI    HY22150   0.705   2.013   1.936 -1.6397  0.5179  0.5054
  192SAPI   O3122151   0.681   2.057   2.148  0.0597 -0.2697  0.0080
  192SAPI   C3122152   0.593   1.961   2.189 -0.9017  0.0197  0.0309
  192SAPI   O3222153   0.592   1.843   2.159  0.1695 -0.0413 -0.2891
  192SAPI   C3222154   0.488   2.021   2.288 -0.7922 -0.5711 -1.0337
  192SAPI   H2X22155   0.418   1.940   2.317 -0.1228 -0.3436  1.3575
  192SAPI   H2Y22156   0.430   2.088   2.221  0.5375 -0.5828 -2.2101
  192SAPI   C2322157   0.981   2.086   2.489 -0.2200  0.2102  0.0866
  192SAPI   H3R22158   0.877   2.125   2.494  0.7007  2.7694 -0.3076
  192SAPI   H3S22159   1.045   2.174   2.511 -0.7440  0.7613 -0.5844
  192SAPI   C2422160   0.998   1.978   2.602  0.5061  0.4398  0.2128
  192SAPI   H4R22161   1.005   2.035   2.697  1.6419  0.2131  0.2824
  192SAPI   H4S22162   1.093   1.931   2.569  0.6495  0.7323  0.2046
  192SAPI   C2522163   0.881   1.885   2.592 -0.5148 -0.0233 -0.5196
  192SAPI   H5R22164   0.814   1.882   2.505 -1.9436  1.2334  0.5253
  192SAPI   C2622165   0.857   1.788   2.682 -0.8022 -0.2028 -0.5006
  192SAPI   H6R22166   0.778   1.713   2.664 -1.7975  1.1009 -1.5969
  192SAPI   C2722167   0.941   1.750   2.799 -0.2300 -0.1616 -0.3775
  192SAPI   H7R22168   1.049   1.752   2.777 -0.3992 -0.1848 -1.2289
  192SAPI   H7S22169   0.928   1.641   2.809 -0.5164 -0.1519 -0.6315
  192SAPI   C2822170   0.898   1.825   2.924 -0.4813  0.6165 -1.0765
  192SAPI   H8R22171   0.844   1.919   2.910  0.0291  1.1754  0.6191
  192SAPI   C2922172   0.910   1.782   3.048  0.3600 -0.3095  0.4585
  192SAPI   H9R22173   0.870   1.846   3.129 -0.0822  1.4523 -1.1149
  192SAPI  C21022174   0.990   1.663   3.103  0.1117 -0.0354 -0.5799
  192SAPI  H10R22175   1.095   1.663   3.067  0.9482  0.7721  1.7777
  192SAPI  H10S22176   0.953   1.569   3.056  0.9113 -1.0416  0.7565
  192SAPI  C21122177   0.991   1.628   3.249  0.2266  0.3873 -0.2263
  192SAPI  H11R22178   0.958   1.527   3.276  0.0526  0.1185 -1.4440
  192SAPI  C21222179   1.063   1.701   3.332  0.8689  0.4510  0.5452
  192SAPI  H12R22180   1.067   1.675   3.439  2.4465  0.5754  0.5388
  192SAPI  C21322181   1.153   1.813   3.302  0.5043 -0.0546 -0.6237
  192SAPI  H13R22182   1.157   1.887   3.385  0.0728 -1.8570  1.0426
  192SAPI  H13S22183   1.110   1.861   3.211 -3.8696 -2.3377  0.1155
  192SAPI  C21422184   1.292   1.767   3.261 -0.0089 -0.0862  0.3880
  192SAPI  H14R22185   1.297   1.708   3.168 -1.4039  0.3382  0.0400
  192SAPI  C21522186   1.401   1.801   3.326  0.0942 -0.2348 -0.5244
  192SAPI  H15R22187   1.502   1.777   3.292  0.1286  0.0908 -0.6558
  192SAPI  C21622188   1.416   1.882   3.451 -0.3022 -0.0252 -0.2938
  192SAPI  H16R22189   1.323   1.933   3.484 -0.4710 -0.9541  0.6698
  192SAPI  H16S22190   1.483   1.964   3.417  0.4301 -0.0607  1.0157
  192SAPI  C21722191   1.466   1.812   3.576  0.2474 -0.5509 -0.2464
  192SAPI  H17R22192   1.570   1.775   3.559 -0.2180 -1.0483 -2.1594
  192SAPI  H17S22193   1.410   1.717   3.584 -1.3785  0.4205  0.1252
  192SAPI  C21822194   1.457   1.891   3.708  0.2913  0.2781 -0.3136
  192SAPI  H18R22195   1.359   1.941   3.721  2.0691  3.3845  1.8566
  192SAPI  H18S22196   1.528   1.975   3.690  2.6727 -1.4575  0.6818
  192SAPI  C21922197   1.484   1.818   3.839 -0.2672 -0.2923 -0.0797
  192SAPI  H19R22198   1.584   1.774   3.821  0.6060  1.4925  0.3393
  192SAPI  H19S22199   1.417   1.732   3.864  0.4571 -1.1244 -0.9488
  192SAPI  C22022200   1.466   1.916   3.959 -0.3412  0.0431 -0.0990
  192SAPI  H20R22201   1.367   1.967   3.955 -0.1800  0.3006 -1.0003
  192SAPI  H20S22202   1.534   2.003   3.944 -1.5099  0.6540 -2.1218
  192SAPI  H20T22203   1.485   1.850   4.046 -0.0385  1.3296  0.8321
  192SAPI   C3322204   0.539   2.087   2.417 -0.4634 -0.1634 -0.6264
  192SAPI   H3X22205   0.621   2.155   2.386  1.0545 -1.3584  0.6796
  192SAPI   H3Y22206   0.560   2.000   2.483  1.2804 -0.5406 -1.6451
  192SAPI   C3422207   0.428   2.162   2.494  0.0461  0.3396 -0.1545
  192SAPI   H4X22208   0.367   2.086   2.548 -2.0857  1.6091 -0.7209
  192SAPI   H4Y22209   0.370   2.228   2.426 -2.3188 -0.0278  1.4445
  192SAPI   C3522210   0.476   2.251   2.613  0.2009  0.9009 -0.1394
  192SAPI   H5X22211   0.437   2.355   2.609  1.2360  1.3213  0.6220
  192SAPI   H5Y22212   0.586   2.252   2.597  0.4064 -2.4404  0.6940
  192SAPI   C3622213   0.448   2.199   2.754 -0.3483  0.3292  0.6397
  192SAPI   H6X22214   0.460   2.088   2.756  0.6834  0.3433 -2.6071
  192SAPI   H6Y22215   0.341   2.224   2.773  0.2451  1.1410  3.1631
  192SAPI   C3722216   0.530   2.273   2.856 -0.3985  0.3871 -0.3090
  192SAPI   H7X22217   0.458   2.260   2.939 -1.1677  2.0088 -0.6899
  192SAPI   H7Y22218   0.526   2.380   2.825 -1.4885 -0.2458 -2.4223
  192SAPI   C3822219   0.673   2.222   2.877  0.0244  0.1691  0.1937
  192SAPI   H8X22220   0.735   2.247   2.788 -0.4229 -2.4778 -0.9118
  192SAPI   H8Y22221   0.664   2.111   2.877  0.8265  0.1009  0.9065
  192SAPI   C3922222   0.724   2.278   3.013 -0.2079  0.3462  0.4890
  192SAPI   H9X22223   0.649   2.241   3.086  0.8898  1.1383  2.0581
  192SAPI   H9Y22224   0.719   2.389   3.011  2.0924  0.4603  0.4144
  192SAPI  C31022225   0.871   2.232   3.032  0.1256 -0.0053 -0.0651
  192SAPI  H10X22226   0.921   2.283   2.947  1.9871 -1.6306  0.0255
  192SAPI  H10Y22227   0.860   2.125   3.003  0.2056  0.1246 -0.5807
  192SAPI  C31122228   0.922   2.258   3.173 -0.2594 -0.5016 -0.2062
  192SAPI  H11X22229   0.871   2.186   3.240  2.4905 -1.7608  0.6020
  192SAPI  H11Y22230   0.896   2.360   3.211  0.1133  0.1976 -1.7956
  192SAPI  C31222231   1.074   2.238   3.192 -0.2466 -0.0222 -0.0064
  192SAPI  H12X22232   1.111   2.331   3.145 -1.0615  0.3528  0.0866
  192SAPI  H12Y22233   1.117   2.150   3.140 -0.4093  1.3664 -2.5680
  192SAPI  C31322234   1.115   2.244   3.339 -0.4106  0.2395 -0.3422
  192SAPI  H13X22235   1.069   2.155   3.387  1.4528 -1.6456 -1.9804
  192SAPI  H13Y22236   1.073   2.337   3.383  0.1182  1.5185 -2.4575
  192SAPI  C31422237   1.262   2.234   3.353  0.2198  0.9534 -0.2716
  192SAPI  H14X22238   1.305   2.326   3.308  3.2211 -1.5427 -2.7476
  192SAPI  H14Y22239   1.305   2.145   3.302 -1.8568 -0.0679 -0.2875
  192SAPI  C31522240   1.300   2.225   3.502  0.6875  0.5462  0.0678
  192SAPI  H15X22241   1.408   2.197   3.505  0.5737  0.2505  2.7041
  192SAPI  H15Y22242   1.254   2.134   3.546  1.4346  1.0265  1.8765
  192SAPI  C31622243   1.276   2.347   3.593 -0.1690 -0.5160  0.2213
  192SAPI  H16X22244   1.166   2.363   3.595  0.0001  0.9992 -1.2371
  192SAPI  H16Y22245   1.327   2.429   3.539  1.4195 -0.6621  1.4732
  192SAPI  C31722246   1.325   2.339   3.739 -0.1030 -0.2674 -0.3802
  192SAPI  H17X22247   1.261   2.272   3.800 -1.8511  0.3092 -1.5524
  192SAPI  H17Y22248   1.301   2.441   3.778 -0.3162 -0.6523  0.5110
  192SAPI  C31822249   1.480   2.303   3.747  0.9254 -0.8062  0.2869
  192SAPI  H18X22250   1.510   2.315   3.853  3.1273 -1.3229 -0.2462
  192SAPI  H18Y22251   1.533   2.381   3.686  0.8913 -0.5164  0.6262
  192SAPI  H18Z22252   1.493   2.205   3.696 -1.1691 -0.7179 -0.4523
  193SOD    SOD22253   1.880   1.170   1.270 -0.3412  0.1180  0.1129
  194SOD    SOD22254   5.792   6.258   1.114 -0.3413 -0.2502 -0.4626
  195SOD    SOD22255   6.871   5.248   0.402  0.7180  0.0809 -0.1848
  196SOD    SOD22256   0.165   7.116   5.956 -0.6340 -0.3163 -0.1904
  197SOD    SOD22257   0.307   5.965   6.218  0.5975 -0.4560  0.1669
  198SOD    SOD22258   4.782   6.673   6.993 -0.4999  0.6273  0.0226
  199SOD    SOD22259   4.769   1.030   8.054  0.2931 -0.1483  0.0066
  200SOD    SOD22260   5.621   2.154   0.156 -0.2877 -0.2733  0.0596
  201SOD    SOD22261   2.710   2.300   1.369  0.4539 -0.2257 -0.0142
  202SOD    SOD22262   5.732   5.305   8.012 -0.2926 -0.6855  0.5749
  203SOD    SOD22263   7.052   6.362   0.960  0.4734 -0.4937  0.1280
  204SOD    SOD22264   2.530   1.638   7.185 -0.2251 -0.3343 -0.4502
  205SOD    SOD22265   2.294   2.748   7.015 -0.0871  0.1628 -0.1354
  206SOD    SOD22266   4.112   5.409   6.846  0.8813  0.1091  0.5534
  207SOD    SOD22267   6.519   3.515   7.531  0.1509 -0.1415 -0.2802
  208SOD    SOD22268   0.557   2.180   6.843  0.1682  0.3818 -0.3917
  209SOD    SOD22269   2.054   1.857   1.946 -0.1670  0.3218 -0.0013
  210SOD    SOD22270   3.411   6.019   7.355 -0.1641  0.6223 -0.2896
  211SOD    SOD22271   1.172   4.673   7.626 -0.1830 -0.2693  0.5721
  212SOD    SOD22272   2.149   5.274   1.654 -0.0699  0.7207 -0.3277
  213SOD    SOD22273   3.932   0.643   6.753  0.3935  0.1321  0.2627
  214SOD    SOD22274   4.678   2.556   1.255 -0.3737  0.2708  0.6725
  215SOD    SOD22275   2.942   4.690   1.032 -0.4656  0.0804 -0.0703
  216SOD    SOD22276   3.389   2.791   6.769  0.0486 -0.2268 -0.1378
  217SOD    SOD22277   2.673   6.758   7.280 -0.1756 -0.0436  0.0050
  218SOD    SOD22278   7.043   1.529   6.853 -0.1722  0.1372  0.4955
  219SOD    SOD22279   2.894   5.588   0.314  0.1952 -0.1812  0.0443
  220SOD    SOD22280   6.497   2.058   0.783 -0.2252 -0.3475  0.9798
  221SOD    SOD22281   2.194   2.963   7.712 -0.1827 -0.2173  0.3343
  222SOD    SOD22282   2.085   0.226   6.400 -0.2551  0.0892  1.0046
  223SOD    SOD22283   5.760   0.157   6.812  0.8114 -0.1710 -0.4640
  224SOD    SOD22284   1.603   1.592   7.641 -0.0326 -0.2949 -0.3100
  225SOD    SOD22285   4.314   7.060   7.976  0.3293 -0.1014 -0.1990
  226SOD    SOD22286   6.096   2.192   1.825 -0.4481 -0.4635  0.5723
  227SOD    SOD22287   0.486   1.710   0.250  0.2064  0.2313 -0.0184
  228SOD    SOD22288   3.479   5.301   6.905 -0.3917  0.1733 -0.1218
  229SOD    SOD22289   5.103   6.883   2.020  0.1457 -0.2034 -0.0572
  230SOD    SOD22290   1.842   0.175   7.345  0.6275 -0.0353 -0.4885
  231SOD    SOD22291   3.622   2.402   0.130  0.0992 -0.4587  0.0375
  232SOD    SOD22292   1.439   2.551   6.668 -0.6624 -0.0261 -0.4737
  233SOD    SOD22293   1.911   3.930   0.935  0.0964 -0.3451  0.8250
  234CLA    CLA22294   2.710   4.200   7.609  0.1176 -0.1364  0.1484
  235CLA    CLA22295   4.477   0.512   7.114 -0.1308  0.5214  0.3360
  236CLA    CLA22296   2.728   0.732   7.860  0.1720 -0.3964  0.2919
  237CLA    CLA22297   0.367   0.469   1.450  0.3136  0.4598 -0.7316
  238CLA    CLA22298   5.864   0.164   7.649 -0.1655  0.0652 -0.1429
  239CLA    CLA22299   0.760   4.619   0.654  0.0968 -0.1239  0.2770
  240CLA    CLA22300   5.954   3.589   0.144 -0.1094  0.0858  0.6609
  241CLA    CLA22301   6.333   6.251   6.855  0.4423 -0.3313 -0.0086
  242CLA    CLA22302   1.597   5.498   7.580 -0.3324  0.0825  0.1760
  243CLA    CLA22303   2.349   6.398   7.495 -0.5246  0.2320  0.1412
  244CLA    CLA22304   2.069   2.960   7.949 -0.1164 -0.2758 -0.0347
  245CLA    CLA22305   5.925   6.915   1.327 -0.2645  0.1184  0.0654
  246CLA    CLA22306   5.090   4.712   0.412  0.0020 -0.6788  0.0893
  247CLA    CLA22307   0.659   1.092   7.758  0.1518  0.3574  0.0239
  248CLA    CLA22308   4.048   1.068   6.502 -0.0757 -0.2627 -0.2895
  249CLA    CLA22309   2.626   1.014   6.931 -0.0197 -0.1282  0.3078
  250CLA    CLA22310   2.335   1.009   7.596 -0.0196  0.3736  0.1241
  251TIP3   OH222311   1.037   4.020   7.912 -0.3430  0.0556  0.2652
  251TIP3    H122312   1.024   4.113   7.894  1.9122  0.5834  1.2165
  251TIP3    H222313   0.949   3.983   7.912 -1.2958  2.2642  0.3188
  252TIP3   OH222314   5.293   0.269   6.782 -0.4340 -0.1806 -0.5931
  252TIP3    H122315   5.254   0.343   6.737 -0.6180 -0.1342 -0.3572
  252TIP3    H222316   5.231   0.248   6.852  0.8678  1.0979  0.9932
  253TIP3   OH222317   2.799   2.171   7.368  0.2124  0.2177 -0.5219
  253TIP3    H122318   2.764   2.110   7.303 -0.1189  0.2563 -0.3791
  253TIP3    H222319   2.806   2.120   7.448 -0.8323  0.5813 -0.1928
  254TIP3   OH222320   2.098   2.787   1.455  0.8956  0.1927 -0.0176
  254TIP3    H122321   2.154   2.711   1.471 -0.5499 -0.9924 -0.5067
  254TIP3    H222322   2.098   2.797   1.360  0.0264 -0.0004 -0.0399
  255TIP3   OH222323   2.308   6.430   5.994  0.0672 -0.4025 -0.5415
  255TIP3    H122324   2.217   6.403   6.005 -0.2821  1.5831  1.8531
  255TIP3    H222325   2.317   6.449   5.901 -1.9035 -0.7867 -0.8229
  256TIP3   OH222326   5.737   2.008   6.569  0.0183 -0.4005  0.0656
  256TIP3    H122327   5.795   2.037   6.499  1.4514  0.3655  1.5223
  256TIP3    H222328   5.666   2.072   6.570  0.3362 -0.0425 -0.2607
  257TIP3   OH222329   6.731   4.338   6.323 -0.2404  0.4066 -0.0035
  257TIP3    H122330   6.708   4.424   6.287 -2.7873 -0.9119 -1.6239
  257TIP3    H222331   6.767   4.290   6.248 -2.3780 -1.2036 -0.0147
  258TIP3   OH222332   3.228   2.372   6.695  0.2885 -0.0243 -0.0295
  258TIP3    H122333   3.307   2.425   6.681 -0.3035  0.4137 -1.8609
  258TIP3    H222334   3.244   2.291   6.646 -0.2012 -0.1146 -0.0462
  259TIP3   OH222335   1.875   4.362   0.591  0.1127  0.0792 -0.2250
  259TIP3    H122336   1.939   4.420   0.631  1.4857 -0.1192 -2.0446
  259TIP3    H222337   1.871   4.390   0.499 -0.2441 -1.7694 -0.8059
  260TIP3   OH222338   3.754   1.608   6.340  0.3825  0.3625 -0.2012
  260TIP3    H122339   3.845   1.635   6.331  0.0475  2.0550  1.4037
  260TIP3    H222340   3.708   1.655   6.270  0.9650 -1.8362 -2.1543
  261TIP3   OH222341   3.809   6.369   7.641  0.0454 -0.4304  0.3306
  261TIP3    H122342   3.757   6.442   7.677 -2.7837 -1.8767 -0.6446
  261TIP3    H222343   3.792   6.296   7.701 -0.7692 -1.4885 -1.1417
  262TIP3   OH222344   5.938   0.782   0.937 -0.1304 -0.0242  0.2763
  262TIP3    H122345   5.913   0.731   1.014  0.5392  0.8076  1.0679
  262TIP3    H222346   5.889   0.864   0.946 -0.6737 -0.2488 -0.6163
  263TIP3   OH222347   6.128   1.964   7.497  0.4648  0.5703 -0.3088
  263TIP3    H122348   6.192   2.036   7.501  1.2240 -0.1649  1.0892
  263TIP3    H222349   6.166   1.896   7.553 -0.9746 -0.3334 -0.4356
  264TIP3   OH222350   3.531   5.875   6.463  0.2191 -0.0923  0.3735
  264TIP3    H122351   3.615   5.877   6.418  0.5794  1.1440  1.0926
  264TIP3    H222352   3.504   5.967   6.468 -1.2690 -0.4978 -0.0304
  265TIP3   OH222353   4.456   5.484   7.163  0.1039 -0.2143 -0.0474
  265TIP3    H122354   4.528   5.545   7.176 -0.3863  0.2350  0.6138
  265TIP3    H222355   4.443   5.482   7.069 -1.3463  2.4583  0.0379
  266TIP3   OH222356   0.244   0.563   0.356  0.0955 -0.2076 -0.5439
  266TIP3    H122357   0.269   0.577   0.447  0.4728  1.3652 -0.8742
  266TIP3    H222358   0.328   0.556   0.309 -0.0979 -0.8285 -0.8000
  267TIP3   OH222359   1.997   5.951   7.062 -0.4565  0.3059 -0.3664
  267TIP3    H122360   1.983   6.016   7.132  1.2847 -0.5088  0.7748
  267TIP3    H222361   2.051   5.997   6.998 -2.0078  1.0379 -1.1743
  268TIP3   OH222362   0.342   6.711   0.999 -0.0795  0.1187  0.0155
  268TIP3    H122363   0.264   6.761   0.973 -0.8440 -0.5929  0.8926
  268TIP3    H222364   0.342   6.634   0.942  1.0158  1.0299 -1.2355
  269TIP3   OH222365   3.872   2.835   5.486 -0.3207  0.6683 -0.5598
  269TIP3    H122366   3.930   2.773   5.529  0.9579  1.3355 -1.3044
  269TIP3    H222367   3.784   2.800   5.502  0.3476 -1.0681 -0.5373
  270TIP3   OH222368   4.661   1.295   6.064  0.4464  0.2172  0.0488
  270TIP3    H122369   4.755   1.295   6.047  0.0921  0.8831 -1.9931
  270TIP3    H222370   4.638   1.202   6.069  0.9122  0.0186 -1.2467
  271TIP3   OH222371   2.797   0.129   6.965 -0.1451  0.2163  0.7321
  271TIP3    H122372   2.835   0.210   6.932 -0.0657  0.6571  1.9056
  271TIP3    H222373   2.821   0.063   6.899  0.9515  0.8825  0.4559
  272TIP3   OH222374   1.291   5.741   1.778 -0.1751  0.0956 -0.1435
  272TIP3    H122375   1.202   5.773   1.787 -0.7314 -1.6790  0.7832
  272TIP3    H222376   1.312   5.702   1.863  0.9046 -0.9101 -0.8495
  273TIP3   OH222377   2.967   4.498   6.782 -0.4577  0.1069 -0.4356
  273TIP3    H122378   3.028   4.424   6.779  0.0293  0.5387 -1.7391
  273TIP3    H222379   2.885   4.461   6.813  0.0799 -0.7717 -0.0440
  274TIP3   OH222380   5.039   2.551   0.485 -0.1465  0.1016 -0.6171
  274TIP3    H122381   4.976   2.481   0.468  0.4804 -0.2679 -1.4313
  274TIP3    H222382   5.022   2.616   0.417  0.7716 -0.2909 -1.2355
  275TIP3   OH222383   2.544   4.760   0.625 -0.4910  0.2015 -0.8363
  275TIP3    H122384   2.542   4.699   0.699 -2.0831  1.4404  0.1821
  275TIP3    H222385   2.558   4.704   0.548  0.6165 -1.1647  0.3213
  276TIP3   OH222386   3.678   3.317   6.829 -0.0368  0.8629  0.1327
  276TIP3    H122387   3.689   3.269   6.747 -0.2874  0.8016  0.1350
  276TIP3    H222388   3.640   3.253   6.889 -0.1809  1.0063  0.1957
  277TIP3   OH222389   6.446   0.402   6.625 -0.5118 -0.0835  0.2983
  277TIP3    H122390   6.397   0.398   6.543 -1.7486  1.7484  0.8998
  277TIP3    H222391   6.379   0.403   6.693  0.4273  0.3049  1.2412
  278TIP3   OH222392   3.995   0.613   5.828 -0.0692 -0.2343 -0.0605
  278TIP3    H122393   3.984   0.696   5.782 -0.2740 -0.0084  0.3955
  278TIP3    H222394   3.908   0.593   5.863  0.0742 -0.4363  0.1828
  279TIP3   OH222395   4.665   1.776   0.942 -0.6397  0.4927  0.8194
  279TIP3    H122396   4.649   1.684   0.966  0.1008  0.6729  2.0325
  279TIP3    H222397   4.740   1.772   0.882 -0.8768  0.2809  0.5288
  280TIP3   OH222398   3.442   6.895   6.596  0.0943  0.9533  0.0492
  280TIP3    H122399   3.462   6.872   6.506 -0.4666  0.0646  0.1452
  280TIP3    H222400   3.466   6.818   6.647 -2.2560  0.3412  0.3156
  281TIP3   OH222401   2.373   5.858   7.413  0.0156  0.0453 -0.2383
  281TIP3    H122402   2.432   5.841   7.487  0.3417  0.7414 -0.3299
  281TIP3    H222403   2.374   5.776   7.362  1.7118  0.3879 -0.7877
  282TIP3   OH222404   0.273   0.530   6.981  0.0204 -0.9872 -0.6195
  282TIP3    H122405   0.208   0.521   6.911 -0.4343 -1.9669 -0.0777
  282TIP3    H222406   0.258   0.619   7.015 -1.3505 -1.3621 -0.2029
  283TIP3   OH222407   5.925   6.741   6.443  0.5433 -0.0392  0.0116
  283TIP3    H122408   5.974   6.786   6.373  1.7425 -1.2832  0.0344
  283TIP3    H222409   5.871   6.677   6.397  2.2322 -1.7010  0.2664
  284TIP3   OH222410   4.192   4.122   0.724  0.2469  0.2058  0.1388
  284TIP3    H122411   4.204   4.215   0.701  1.4267 -0.0838 -0.4453
  284TIP3    H222412   4.151   4.124   0.811  1.7610  1.2795  0.8555
  285TIP3   OH222413   0.964   5.337   7.136  0.0637  0.4424 -0.3788
  285TIP3    H122414   0.919   5.420   7.123 -2.8073 -1.3891 -2.8921
  285TIP3    H222415   0.928   5.302   7.218  0.6846  1.2932  0.2583
  286TIP3   OH222416   1.140   5.613   6.194  0.1467  0.4397  0.4198
  286TIP3    H122417   1.108   5.523   6.186 -0.9405  0.7517  1.1849
  286TIP3    H222418   1.195   5.625   6.117 -2.0013  0.0693 -1.2223
  287TIP3   OH222419   5.927   6.555   6.116 -0.1121 -0.1795  0.3626
  287TIP3    H122420   5.973   6.631   6.152 -0.0621 -0.0238 -0.0293
  287TIP3    H222421   5.990   6.514   6.058 -1.1137  1.1939 -1.7556
  288TIP3   OH222422   5.116   2.942   0.560  0.6719  0.1350  0.6523
  288TIP3    H122423   5.155   3.021   0.598  0.1357 -0.0105  1.5379
  288TIP3    H222424   5.062   2.974   0.488 -0.1478  0.6771  1.4874
  289TIP3   OH222425   5.316   6.659   6.700  0.1901  0.7783  0.5749
  289TIP3    H122426   5.292   6.573   6.734  0.1370  0.0630 -1.2091
  289TIP3    H222427   5.384   6.641   6.635  0.2851  2.1027  0.2915
  290TIP3   OH222428   1.729   4.112   8.046  0.1480  0.0491 -0.3147
  290TIP3    H122429   1.689   4.065   7.973 -2.2639  3.1706 -1.1064
  290TIP3    H222430   1.690   4.074   8.124  0.8037 -1.5378 -0.7407
  291TIP3   OH222431   4.606   4.664   0.168 -0.1035 -0.0484 -0.4245
  291TIP3    H122432   4.600   4.572   0.141  0.4117 -0.2595  0.1823
  291TIP3    H222433   4.668   4.664   0.240 -1.5707  0.4852  0.8719
  292TIP3   OH222434   0.209   3.967   6.004  0.1882 -0.0894  0.1728
  292TIP3    H122435   0.138   4.031   6.005 -0.8060 -1.1235 -1.9351
  292TIP3    H222436   0.270   4.000   5.938  1.6119  0.6736  1.8024
  293TIP3   OH222437   6.950   6.005   7.481  0.5528  0.3247 -0.5777
  293TIP3    H122438   7.012   6.013   7.409  0.4729  1.0059 -0.5748
  293TIP3    H222439   7.004   5.995   7.559  0.6760  1.4007 -0.5161
  294TIP3   OH222440   1.862   7.020   0.459 -0.2067 -0.1423 -0.2708
  294TIP3    H122441   1.898   7.066   0.384  2.3332  1.2994  1.7733
  294TIP3    H222442   1.922   6.947   0.473  1.5197  1.7536  2.6098
  295TIP3   OH222443   3.521   5.314   6.029  0.4968  0.2972 -0.6049
  295TIP3    H122444   3.549   5.234   6.075  0.5316  1.5272  1.5851
  295TIP3    H222445   3.453   5.284   5.969  1.0577 -1.5123 -0.3812
  296TIP3   OH222446   1.535   5.041   6.430  0.3893 -0.1958  0.1163
  296TIP3    H122447   1.468   5.110   6.427 -0.3376 -0.9298 -0.8556
  296TIP3    H222448   1.596   5.063   6.360 -1.2721 -1.9536 -1.9321
  297TIP3   OH222449   5.699   6.598   0.906  0.0135 -0.2641  0.2554
  297TIP3    H122450   5.606   6.579   0.892  0.2775 -0.4880 -1.2248
  297TIP3    H222451   5.701   6.652   0.985 -1.3585 -0.4019  0.3893
  298TIP3   OH222452   1.513   3.552   1.315  0.0112 -0.1274 -0.0712
  298TIP3    H122453   1.427   3.509   1.320  0.1554 -0.8327 -3.0944
  298TIP3    H222454   1.518   3.586   1.226  2.9913 -0.2782  0.0126
  299TIP3   OH222455   0.209   0.068   6.615  0.1005 -0.6283  0.2684
  299TIP3    H122456   0.292   0.022   6.605 -0.4381 -1.2280 -1.4570
  299TIP3    H222457   0.232   0.161   6.610  1.1250 -0.6578  3.3301
  300TIP3   OH222458   6.417   1.950   7.742 -0.2628  0.4402 -0.0872
  300TIP3    H122459   6.488   1.941   7.679 -0.9852 -0.1018 -0.8329
  300TIP3    H222460   6.395   2.044   7.740 -0.4325  0.3899 -0.8103
  301TIP3   OH222461   3.452   3.963   1.330 -0.3445  0.1253  0.3100
  301TIP3    H122462   3.418   3.875   1.345 -1.2974  0.4213 -0.0770
  301TIP3    H222463   3.505   3.982   1.407  1.6568 -1.6343 -0.5784
  302TIP3   OH222464   3.750   3.653   0.157  0.4514 -0.2853  0.0669
  302TIP3    H122465   3.788   3.739   0.171 -0.8949  0.3761 -0.2675
  302TIP3    H222466   3.784   3.600   0.229  1.1092  0.5725  0.3973
  303TIP3   OH222467   6.409   4.479   0.367 -0.0667 -0.2410 -0.2416
  303TIP3    H122468   6.412   4.420   0.292 -0.6597 -1.4103  0.6341
  303TIP3    H222469   6.490   4.531   0.360 -0.4458  0.1594 -2.0569
  304TIP3   OH222470   4.660   4.308   1.445 -0.9103  0.0345 -0.0266
  304TIP3    H122471   4.618   4.384   1.487 -0.2689  0.2489  0.2343
  304TIP3    H222472   4.734   4.288   1.502 -0.8437 -0.5406 -0.3182
  305TIP3   OH222473   2.776   5.702   1.829 -0.5189  0.5387  0.2756
  305TIP3    H122474   2.854   5.723   1.777 -0.1752  1.6733  1.2301
  305TIP3    H222475   2.802   5.718   1.919 -2.1330  1.8239  0.5356
  306TIP3   OH222476   5.203   3.371   7.796 -0.4033  0.3237 -0.8660
  306TIP3    H122477   5.190   3.365   7.701 -3.1610  1.1411 -0.5611
  306TIP3    H222478   5.138   3.433   7.826  0.6717  0.3375  1.5584
  307TIP3   OH222479   5.004   4.171   1.341  0.4594  0.3582  0.3459
  307TIP3    H122480   5.061   4.243   1.369 -0.3116  1.2973 -0.4172
  307TIP3    H222481   4.918   4.212   1.333 -0.4390 -1.1633  1.9944
  308TIP3   OH222482   2.542   1.945   7.960 -0.0737  0.2590  0.6516
  308TIP3    H122483   2.538   2.017   8.023  0.6418  0.8477  0.0394
  308TIP3    H222484   2.551   1.989   7.875 -1.1094 -0.5142  0.1200
  309TIP3   OH222485   2.820   0.136   1.880  0.7084 -0.1650 -0.2721
  309TIP3    H122486   2.828   0.050   1.921  1.0254  0.5594  1.2437
  309TIP3    H222487   2.876   0.193   1.934 -1.6345  1.5518  0.4238
  310TIP3   OH222488   0.908   5.002   7.985 -0.2990 -0.0067 -0.3671
  310TIP3    H122489   1.001   4.987   8.003 -0.4624 -0.3115  0.2123
  310TIP3    H222490   0.906   5.024   7.892  0.3781  0.1909 -0.3431
  311TIP3   OH222491   3.516   6.031   2.339 -0.3014 -0.0882 -0.4861
  311TIP3    H122492   3.571   5.974   2.285  1.1892  1.7379 -0.9401
  311TIP3    H222493   3.452   6.068   2.278  0.0908  0.3900 -0.6087
  312TIP3   OH222494   0.793   5.393   7.343  0.0021 -0.3364  0.3144
  312TIP3    H122495   0.755   5.427   7.424 -0.1778  1.3326 -0.4475
  312TIP3    H222496   0.832   5.470   7.301  2.0869 -1.5953 -0.0972
  313TIP3   OH222497   2.077   6.499   1.238 -0.0340 -0.5345 -0.1838
  313TIP3    H122498   2.008   6.565   1.248 -0.5207 -1.0073 -0.3951
  313TIP3    H222499   2.080   6.456   1.324 -0.6015 -1.0903 -0.4381
  314TIP3   OH222500   4.867   2.060   0.858 -0.0718 -0.0398 -0.3356
  314TIP3    H122501   4.867   2.088   0.950  0.2336 -2.2225  0.3679
  314TIP3    H222502   4.916   2.127   0.812 -1.9654  2.1521  0.7591
  315TIP3   OH222503   4.564   0.451   1.369 -0.1052 -0.7322 -0.5361
  315TIP3    H122504   4.510   0.452   1.448  0.1224 -0.8280 -0.3783
  315TIP3    H222505   4.524   0.517   1.312  0.2956  0.0285  0.0467
  316TIP3   OH222506   5.420   2.026   0.548  0.0427  0.9009  0.4713
  316TIP3    H122507   5.467   1.971   0.610  0.1195  1.7345  1.1526
  316TIP3    H222508   5.487   2.083   0.510 -0.2952  1.6030  0.9217
  317TIP3   OH222509   0.768   6.959   7.717  0.0472 -0.4664 -1.1509
  317TIP3    H122510   0.688   6.999   7.752  0.0649  0.3577 -2.0054
  317TIP3    H222511   0.769   6.871   7.753  1.1342  0.9811  2.5532
  318TIP3   OH222512   6.565   3.247   0.026 -0.4928  0.7920  0.4936
  318TIP3    H122513   6.550   3.299   0.105 -2.2135  2.0702 -0.6351
  318TIP3    H222514   6.651   3.276  -0.005  0.4817 -0.1610  2.1853
  319TIP3   OH222515   3.797   5.744   0.362  0.4236 -0.1819 -0.5039
  319TIP3    H122516   3.786   5.764   0.455 -2.4163 -1.2345 -0.5417
  319TIP3    H222517   3.858   5.670   0.360  0.5068 -0.1487  0.5315
  320TIP3   OH222518   6.102   1.484   0.328 -0.0151  0.1073 -0.3280
  320TIP3    H122519   6.028   1.432   0.296  1.3314 -1.4068 -1.0609
  320TIP3    H222520   6.133   1.436   0.404  1.2836 -0.2278 -1.0513
  321TIP3   OH222521   6.736   0.843   1.869  0.2041  0.2611 -0.1806
  321TIP3    H122522   6.781   0.924   1.844  0.9925 -0.1948 -0.2246
  321TIP3    H222523   6.643   0.866   1.863  0.4092  0.9395 -0.9268
  322TIP3   OH222524   0.208   0.831   7.293 -0.1761 -0.0373 -0.0262
  322TIP3    H122525   0.175   0.918   7.317  0.2210 -0.0007  0.3770
  322TIP3    H222526   0.274   0.811   7.359  0.5147 -0.1701 -0.7513
  323TIP3   OH222527   1.359   2.179   1.490 -0.3483  0.6484 -0.4641
  323TIP3    H122528   1.369   2.268   1.525  0.0174  1.4383 -2.5232
  323TIP3    H222529   1.435   2.132   1.524 -0.3089  1.2291  0.2787
  324TIP3   OH222530   5.245   6.444   7.652  0.1336 -0.3546  0.1384
  324TIP3    H122531   5.298   6.484   7.583  1.5368 -1.4938  0.5313
  324TIP3    H222532   5.251   6.505   7.725  1.5867 -0.8518  0.4511
  325TIP3   OH222533   5.488   0.831   1.352  0.0963 -0.0542  0.2136
  325TIP3    H122534   5.456   0.921   1.347  0.4252  0.0734  0.3562
  325TIP3    H222535   5.410   0.777   1.345 -0.1384  0.2507  0.4670
  326TIP3   OH222536   3.668   0.983   1.370 -0.7764  0.2194  0.0213
  326TIP3    H122537   3.701   0.964   1.282 -0.5164  1.1068 -0.0787
  326TIP3    H222538   3.625   0.902   1.398 -0.6287 -0.1502 -0.8171
  327TIP3   OH222539   4.370   6.315   2.583  0.0762 -0.1425  0.1099
  327TIP3    H122540   4.276   6.297   2.578  0.0323 -0.1976  1.0321
  327TIP3    H222541   4.411   6.229   2.576  0.0651 -0.1099 -0.3783
  328TIP3   OH222542   6.669   2.600   1.955 -0.8475 -0.0095  0.1456
  328TIP3    H122543   6.607   2.591   2.027  1.2144 -0.8810  1.8870
  328TIP3    H222544   6.661   2.518   1.906  1.0447 -1.4891  2.1773
  329TIP3   OH222545   2.816   4.447   7.986 -0.4632 -0.1926  0.4029
  329TIP3    H122546   2.820   4.469   7.892  1.0739  1.4500  0.8290
  329TIP3    H222547   2.779   4.359   7.988  0.5894 -0.7285 -1.8268
  330TIP3   OH222548   0.099   5.731   0.977 -0.3067 -0.4166  0.2773
  330TIP3    H122549   0.047   5.792   0.923  2.6391  1.0180 -1.0770
  330TIP3    H222550   0.088   5.646   0.934 -0.1503  0.2040 -1.0257
  331TIP3   OH222551   3.506   2.866   0.333  0.6170  0.4808  0.0741
  331TIP3    H122552   3.458   2.949   0.332  0.7024  0.5872  2.1735
  331TIP3    H222553   3.442   2.801   0.305  0.4944  1.2202 -1.3885
  332TIP3   OH222554   6.792   4.704   2.013  0.1714  0.2215 -0.1879
  332TIP3    H122555   6.759   4.738   2.096 -0.4149  0.8717 -0.6866
  332TIP3    H222556   6.863   4.645   2.038 -1.1642 -0.9582  0.8849
  333TIP3   OH222557   6.581   4.167   7.569  0.1030 -0.1906 -0.0500
  333TIP3    H122558   6.655   4.227   7.569 -0.7896  0.9281  0.3057
  333TIP3    H222559   6.519   4.205   7.632 -0.0293 -2.0352  0.9691
  334TIP3   OH222560   7.020   0.285   1.496  0.4282 -0.3813 -0.1707
  334TIP3    H122561   7.036   0.316   1.407  0.3692 -1.2290 -0.4764
  334TIP3    H222562   6.967   0.354   1.536 -2.6673 -1.6310 -1.9084
  335TIP3   OH222563   2.622   1.492   1.494  0.4030 -0.2215 -0.1541
  335TIP3    H122564   2.639   1.478   1.587  0.0619 -0.0747 -0.0687
  335TIP3    H222565   2.652   1.412   1.451 -1.6968 -1.3066  0.3461
  336TIP3   OH222566   7.023   6.775   1.993 -0.0108 -0.2997  0.2288
  336TIP3    H122567   7.011   6.776   1.898 -0.1439 -0.1224  0.2468
  336TIP3    H222568   6.935   6.790   2.028 -0.0448 -0.8457  0.3857
  337TIP3   OH222569   6.688   2.805   1.779 -0.2379 -0.0368 -0.2910
  337TIP3    H122570   6.684   2.722   1.827  1.3268  0.5607  0.9253
  337TIP3    H222571   6.608   2.851   1.804 -0.5493 -0.6942 -0.0659
  338TIP3   OH222572   7.034   2.857   1.529 -0.4916  0.0325 -0.0639
  338TIP3    H122573   7.000   2.803   1.458  0.1406  1.8448 -1.7908
  338TIP3    H222574   7.064   2.794   1.595 -0.5770 -1.6908 -1.6345
  339TIP3   OH222575   6.246   2.857   7.976 -0.5891  0.1880  0.6599
  339TIP3    H122576   6.315   2.791   7.966 -0.8582  0.2434 -2.0083
  339TIP3    H222577   6.294   2.940   7.987 -0.2366  0.0533  0.1611
  340TIP3   OH222578   4.741   1.691   0.594 -0.3200 -0.3390 -0.0757
  340TIP3    H122579   4.793   1.724   0.668 -1.5325  3.6935 -0.8811
  340TIP3    H222580   4.805   1.681   0.523  0.0152  1.0072  0.0063
  341TIP3   OH222581   4.996   4.976   0.518  0.1582 -0.0887  0.2574
  341TIP3    H122582   5.066   5.031   0.481  1.0948 -0.8057  0.9467
  341TIP3    H222583   5.026   4.886   0.506 -0.9579 -0.4381 -0.0362
  342TIP3   OH222584   1.220   1.036   1.775 -0.2839 -0.5268  0.0919
  342TIP3    H122585   1.155   1.018   1.708  0.6368  2.0434 -1.5852
  342TIP3    H222586   1.186   1.113   1.821  0.6322 -0.3365  0.4608
  343TIP3   OH222587   0.696   1.898   0.527  0.2518 -0.2731 -0.5698
  343TIP3    H122588   0.625   1.835   0.529  0.1462 -0.1750 -1.3448
  343TIP3    H222589   0.653   1.983   0.518  0.3388  0.0156  1.3482
  344TIP3   OH222590   6.179   5.962   2.012  0.2216  0.2332  0.5112
  344TIP3    H122591   6.180   5.875   2.051 -0.5686 -0.9462 -2.0414
  344TIP3    H222592   6.088   5.991   2.022 -0.5287 -0.9974 -2.3740
  345TIP3   OH222593   4.394   0.406   7.820  0.2556 -0.2657  0.0655
  345TIP3    H122594   4.406   0.482   7.877  2.6834  0.3866 -1.2150
  345TIP3    H222595   4.310   0.421   7.777  0.4583  1.4500  0.2207
  346TIP3   OH222596   4.373   7.091   6.839  0.0388 -0.3689 -0.4292
  346TIP3    H122597   4.351   7.153   6.908  0.4128 -0.1921 -0.4695
  346TIP3    H222598   4.330   7.125   6.760 -2.1705 -1.6992  0.1583
  347TIP3   OH222599   7.031   1.532   1.974 -0.3517  0.1074 -0.6040
  347TIP3    H122600   6.980   1.511   2.052 -0.3628 -0.0286 -0.6479
  347TIP3    H222601   7.118   1.552   2.007 -0.4604  0.4437 -0.5189
  348TIP3   OH222602   0.534   5.561   1.460  0.4133  0.8488 -0.8272
  348TIP3    H122603   0.613   5.515   1.491  0.4523  0.5013 -1.4432
  348TIP3    H222604   0.468   5.492   1.451  0.1944  1.0584 -0.8267
  349TIP3   OH222605   6.504   2.790   1.160 -0.5527 -0.6123  0.4541
  349TIP3    H122606   6.411   2.800   1.181 -1.0741  0.8656 -2.2865
  349TIP3    H222607   6.504   2.754   1.071  1.5105 -1.7768  0.8995
  350TIP3   OH222608   5.059   0.977   1.264  0.1571 -0.6157 -0.1629
  350TIP3    H122609   5.140   0.993   1.216  0.1234  0.4606  0.1228
  350TIP3    H222610   5.089   0.957   1.353  0.0440  1.6287  0.4009
  351TIP3   OH222611   0.211   0.817   0.642  0.0091  0.1769 -0.4158
  351TIP3    H122612   0.156   0.778   0.574 -0.3834  0.0602 -0.0368
  351TIP3    H222613   0.158   0.811   0.722  0.2316  0.8511 -0.2171
  352TIP3   OH222614   2.471   1.879   1.468 -0.1764 -0.0815 -0.3613
  352TIP3    H122615   2.420   1.820   1.524  0.1113 -1.4754 -1.5708
  352TIP3    H222616   2.544   1.906   1.523 -0.7384 -0.2150  0.4644
  353TIP3   OH222617   0.928   7.094   1.665 -0.2351 -0.4444  0.0537
  353TIP3    H122618   0.900   7.118   1.577  2.3265  1.0782 -0.3927
  353TIP3    H222619   0.846   7.075   1.712 -1.7170  0.1622 -2.2158
  354TIP3   OH222620   0.391   4.908   7.093 -0.3122 -0.0982  0.8361
  354TIP3    H122621   0.316   4.849   7.097  0.2470 -0.9579 -0.6500
  354TIP3    H222622   0.359   4.986   7.048 -0.4490 -0.2389  0.6948
  355TIP3   OH222623   1.913   4.382   1.334 -0.1505  0.3539  0.0409
  355TIP3    H122624   1.857   4.430   1.273  0.0309 -0.5485 -0.8532
  355TIP3    H222625   1.859   4.370   1.412  0.0642  2.6581  0.5819
  356TIP3   OH222626   4.707   5.779   6.673 -0.4254  0.3299 -0.0227
  356TIP3    H122627   4.686   5.697   6.718  0.9009 -0.2012 -0.3422
  356TIP3    H222628   4.688   5.761   6.581  0.0445  0.3109 -0.1186
  357TIP3   OH222629   0.820   4.181   7.363  0.1375  0.5546  0.0246
  357TIP3    H122630   0.758   4.253   7.362 -0.5352 -0.0256 -0.9545
  357TIP3    H222631   0.767   4.103   7.347  1.1995  0.1265 -1.5219
  358TIP3   OH222632   4.890   2.392   7.867 -0.2757  0.5571 -0.1595
  358TIP3    H122633   4.825   2.371   7.935  0.7367 -0.3172  0.5446
  358TIP3    H222634   4.925   2.307   7.840  1.9134  1.1383  0.7969
  359TIP3   OH222635   0.537   6.848   0.215  0.6983 -0.1917  0.1543
  359TIP3    H122636   0.625   6.867   0.183  0.1520  2.4953  0.1449
  359TIP3    H222637   0.544   6.855   0.310  0.5903 -0.4984  0.1869
  360TIP3   OH222638   0.297   0.810   7.040 -0.0606  0.1726  0.1482
  360TIP3    H122639   0.391   0.822   7.050  0.1331 -1.8212  0.9134
  360TIP3    H222640   0.261   0.833   7.126 -0.1857 -0.0211  0.1462
  361TIP3   OH222641   1.206   3.747   6.142 -0.5913  0.3577  0.1160
  361TIP3    H122642   1.292   3.708   6.155 -0.8543 -1.2030 -2.5066
  361TIP3    H222643   1.225   3.838   6.118  0.2819  0.2876  0.5237
  362TIP3   OH222644   2.653   6.876   0.487 -0.0700  0.0898  0.4948
  362TIP3    H122645   2.722   6.843   0.430  0.7631  0.4800  1.2586
  362TIP3    H222646   2.620   6.798   0.533 -1.1523 -0.3093 -0.9392
  363TIP3   OH222647   6.062   0.262   6.434 -0.7871  0.1225 -0.1129
  363TIP3    H122648   6.078   0.356   6.423 -2.5304  0.4079 -0.4517
  363TIP3    H222649   6.043   0.252   6.527 -0.6907  0.1268 -0.0932
  364TIP3   OH222650   1.923   6.843   6.708 -0.1906  0.3294 -0.5856
  364TIP3    H122651   1.858   6.860   6.776  1.0425  1.2694  0.3519
  364TIP3    H222652   1.972   6.924   6.700  1.4624 -0.6681 -0.6728
  365TIP3   OH222653   0.543   2.801   7.929  0.0760 -0.0656 -0.2728
  365TIP3    H122654   0.587   2.716   7.930 -0.5560 -0.4435  3.2671
  365TIP3    H222655   0.467   2.789   7.986 -0.5351  2.6315 -0.4420
  366TIP3   OH222656   5.291   6.438   1.449  0.4375  0.0958 -0.0469
  366TIP3    H122657   5.234   6.362   1.460  2.1617 -0.9599  1.9009
  366TIP3    H222658   5.249   6.507   1.499 -0.2156 -0.0648 -0.3642
  367TIP3   OH222659   5.597   4.423   1.649  0.1112  0.0426 -0.3115
  367TIP3    H122660   5.621   4.506   1.607  1.4443  1.0881  2.3811
  367TIP3    H222661   5.502   4.429   1.659  0.2363  1.4616  0.2259
  368TIP3   OH222662   0.596   3.749   5.926 -0.5178 -0.4272 -0.7826
  368TIP3    H122663   0.553   3.671   5.889  0.5058 -0.8250 -1.1353
  368TIP3    H222664   0.573   3.747   6.019 -1.3758 -0.5658 -0.9938
  369TIP3   OH222665   1.916   4.458   7.119  0.4608  0.1012  0.5959
  369TIP3    H122666   1.940   4.458   7.211 -1.4142  1.0792  1.1165
  369TIP3    H222667   1.926   4.549   7.092 -1.0008  0.2171  0.4038
  370TIP3   OH222668   7.104   2.115   0.678 -0.0485 -0.0115 -0.5897
  370TIP3    H122669   7.078   2.204   0.701  1.4679  0.2842  0.0534
  370TIP3    H222670   7.058   2.059   0.740  1.1834  0.5395  0.8664
  371TIP3   OH222671   3.963   0.747   6.509  0.1559 -0.2420 -0.3787
  371TIP3    H122672   3.980   0.840   6.492  0.7472 -0.4700 -1.0366
  371TIP3    H222673   3.983   0.704   6.426 -2.8373 -0.6298 -0.9455
  372TIP3   OH222674   1.290   0.249   7.671 -0.4010 -0.1361 -0.9526
  372TIP3    H122675   1.257   0.176   7.722 -0.9409 -0.0816 -1.2080
  372TIP3    H222676   1.258   0.327   7.717  1.5849 -0.0079  0.2583
  373TIP3   OH222677   6.707   1.810   6.977 -1.0306 -0.6527 -0.2533
  373TIP3    H122678   6.677   1.755   6.905 -1.6065 -2.4896  1.3386
  373TIP3    H222679   6.630   1.820   7.033  0.0058 -1.1899  1.2813
  374TIP3   OH222680   0.436   0.802   5.647 -0.3226 -0.1909  0.4163
  374TIP3    H122681   0.348   0.773   5.622 -0.8147  0.8668  0.8832
  374TIP3    H222682   0.488   0.722   5.651 -0.7331 -0.6192 -1.9666
  375TIP3   OH222683   3.476   2.321   6.138  0.3983  0.1660 -0.1887
  375TIP3    H122684   3.491   2.385   6.069 -0.2407  0.2785 -0.2233
  375TIP3    H222685   3.413   2.363   6.197  0.6927 -0.0558  0.2896
  376TIP3   OH222686   4.528   6.677   0.412  0.6769  0.1081  0.5995
  376TIP3    H122687   4.449   6.715   0.450 -0.1032  0.3618 -1.2465
  376TIP3    H222688   4.547   6.733   0.337  1.2309 -1.4155 -0.3957
  377TIP3   OH222689   3.456   6.951   7.833 -0.4278 -0.4998 -0.2653
  377TIP3    H122690   3.383   6.942   7.894 -0.7375  0.2818 -0.5087
  377TIP3    H222691   3.440   6.884   7.766 -0.5759 -0.7555  0.0223
  378TIP3   OH222692   6.392   5.928   0.013 -0.0232 -0.2251 -0.1709
  378TIP3    H122693   6.400   6.024   0.012 -0.2436 -0.2073 -0.1623
  378TIP3    H222694   6.310   5.911  -0.033  0.0317 -0.4132 -0.1982
  379TIP3   OH222695   0.173   0.084   7.207  0.1297 -0.1715  0.3231
  379TIP3    H122696   0.100   0.023   7.214 -0.0762  0.2232  1.7056
  379TIP3    H222697   0.132   0.171   7.205  0.4621 -0.0264 -0.8497
  380TIP3   OH222698   4.449   2.424   0.561 -0.1522  0.1055 -0.1815
  380TIP3    H122699   4.449   2.380   0.646 -1.6556  0.4693  0.0153
  380TIP3    H222700   4.472   2.355   0.498 -1.6930 -0.7892  0.2159
  381TIP3   OH222701   1.268   0.806   0.623 -0.4012  0.2708  0.1524
  381TIP3    H122702   1.239   0.716   0.608  0.0752  0.0549  0.5039
  381TIP3    H222703   1.237   0.854   0.547  1.2741 -0.6362 -1.1357
  382TIP3   OH222704   3.488   3.660   0.088  0.1460 -0.3197 -0.1033
  382TIP3    H122705   3.579   3.640   0.110  0.1148 -0.5196 -0.1581
  382TIP3    H222706   3.495   3.722   0.015  0.2919  2.0374  1.8229
  383TIP3   OH222707   1.719   4.629   6.512 -0.1628 -0.0368  0.1105
  383TIP3    H122708   1.702   4.538   6.536 -1.5158  0.5002  1.2664
  383TIP3    H222709   1.725   4.628   6.416 -1.1598 -1.1875  0.0496
  384TIP3   OH222710   1.229   5.771   6.668 -0.4227 -0.6305 -0.1850
  384TIP3    H122711   1.142   5.735   6.680 -0.8970 -0.2631 -2.3337
  384TIP3    H222712   1.262   5.729   6.589 -0.0402  1.8368 -1.3764
  385TIP3   OH222713   0.444   1.229   1.117 -0.1649  0.2561 -0.2120
  385TIP3    H122714   0.373   1.240   1.180  0.7122  0.7748  0.6968
  385TIP3    H222715   0.438   1.138   1.090 -0.9153  0.1893  0.1583
  386TIP3   OH222716   6.268   1.333   5.949  0.0747 -0.0057 -0.3526
  386TIP3    H122717   6.263   1.240   5.924  0.8642  0.0763 -0.8243
  386TIP3    H222718   6.284   1.379   5.866  0.4787  0.4753 -0.0083
  387TIP3   OH222719   1.955   3.336   7.591  0.0340  0.3764  0.0908
  387TIP3    H122720   1.872   3.370   7.623 -0.6947 -0.1055 -1.2587
  387TIP3    H222721   1.973   3.388   7.512  0.6179 -0.0509 -0.0600
  388TIP3   OH222722   6.986   6.727   7.228  0.2546 -0.4130 -0.0731
  388TIP3    H122723   7.008   6.710   7.319 -1.3315 -1.3179  0.1540
  388TIP3    H222724   6.912   6.669   7.210  0.1400  0.2319 -1.7473
  389TIP3   OH222725   5.814   6.908   0.905  0.7503 -0.2175  0.0014
  389TIP3    H122726   5.863   6.934   0.984  2.0640 -2.5495  0.0030
  389TIP3    H222727   5.806   6.813   0.913  1.0727 -0.4992 -2.7697
  390TIP3   OH222728   7.069   2.268   6.423 -0.1877  0.2124  0.2824
  390TIP3    H122729   7.161   2.269   6.399 -0.3792 -2.1530 -0.6198
  390TIP3    H222730   7.025   2.313   6.351  0.3233  2.0985  1.1187
  391TIP3   OH222731   5.719   4.926   0.271  0.3204  0.3572  0.2240
  391TIP3    H122732   5.722   4.917   0.366  2.1986 -0.9297  0.0715
  391TIP3    H222733   5.664   5.002   0.256 -2.0720 -0.8856  2.2591
  392TIP3   OH222734   0.681   1.494   6.623 -0.3226  0.6727 -0.1770
  392TIP3    H122735   0.614   1.442   6.577  0.8615 -1.5301  0.5199
  392TIP3    H222736   0.684   1.577   6.575 -2.8352  0.4370 -0.8332
  393TIP3   OH222737   2.539   0.064   7.481 -0.4163 -0.2231  0.6093
  393TIP3    H122738   2.481   0.073   7.406  0.4455 -1.4361 -0.2176
  393TIP3    H222739   2.497   0.116   7.550 -2.3421 -0.8705 -0.0429
  394TIP3   OH222740   3.161   4.897   6.322  0.0416 -0.6551  0.0091
  394TIP3    H122741   3.097   4.887   6.252 -0.6026  1.6804  0.2499
  394TIP3    H222742   3.109   4.906   6.402  0.6796  0.4267  0.3135
  395TIP3   OH222743   6.277   5.768   6.897  0.2699  0.0125 -0.5194
  395TIP3    H122744   6.256   5.715   6.974 -0.7459  0.3559 -0.5446
  395TIP3    H222745   6.231   5.851   6.912  1.9469  0.9468 -0.4185
  396TIP3   OH222746   6.697   2.850   6.553 -0.0434  0.3338  0.1727
  396TIP3    H122747   6.608   2.862   6.586 -0.1724  1.0125 -0.4193
  396TIP3    H222748   6.703   2.756   6.532 -0.7596  0.3802 -0.2203
  397TIP3   OH222749   1.597   3.960   7.857  0.2021  0.2415  0.1392
  397TIP3    H122750   1.506   3.930   7.856 -0.6962  2.9052 -1.7305
  397TIP3    H222751   1.605   4.014   7.779  3.0241  1.2081  1.0584
  398TIP3   OH222752   0.716   1.635   6.358 -0.2861  0.2618 -0.5556
  398TIP3    H122753   0.692   1.575   6.287  0.2356 -0.0757 -0.4451
  398TIP3    H222754   0.807   1.615   6.377 -0.2632  0.7339 -0.1605
  399TIP3   OH222755   4.516   3.510   6.497 -0.2715  0.1837  0.1528
  399TIP3    H122756   4.529   3.442   6.563 -0.0075  1.7298  1.7227
  399TIP3    H222757   4.462   3.468   6.430 -0.9971 -1.2431  1.5943
  400TIP3   OH222758   0.660   2.891   6.483 -0.2486 -0.2886  0.0529
  400TIP3    H122759   0.719   2.960   6.453  0.3511 -0.5016  0.7367
  400TIP3    H222760   0.676   2.818   6.422  0.2675 -0.3833  0.3018
  401TIP3   OH222761   1.765   0.431   8.097  0.2904  0.2481 -0.8723
  401TIP3    H122762   1.795   0.383   8.019 -0.8634 -1.7084 -0.1530
  401TIP3    H222763   1.845   0.447   8.146  0.6690 -1.4163 -0.8994
  402TIP3   OH222764   0.779   2.111   6.004  0.4667  0.4835  0.4139
  402TIP3    H122765   0.737   2.195   6.021  0.7020  0.7808 -0.4549
  402TIP3    H222766   0.777   2.066   6.089 -1.1607  0.6750  0.4878
  403TIP3   OH222767   1.876   2.217   7.430 -0.2794  0.4828  0.1896
  403TIP3    H122768   1.911   2.289   7.481  1.0260  0.3000 -0.4372
  403TIP3    H222769   1.843   2.155   7.495  0.4696  0.6987  0.7841
  404TIP3   OH222770   5.319   6.855   1.322 -1.1889  0.1969  0.0795
  404TIP3    H122771   5.363   6.844   1.406 -2.7915 -0.0441  0.9178
  404TIP3    H222772   5.259   6.780   1.316 -0.8688  0.0425 -1.4214
  405TIP3   OH222773   6.499   5.319   8.061 -0.6384  0.0707  0.2951
  405TIP3    H122774   6.581   5.332   8.014 -0.1180  0.7850  1.3869
  405TIP3    H222775   6.483   5.225   8.056 -0.3700  0.0820 -0.9232
  406TIP3   OH222776   6.016   3.565   0.783 -0.3526 -0.0083  0.2836
  406TIP3    H122777   6.100   3.578   0.739 -0.9466 -0.0651 -0.9017
  406TIP3    H222778   6.038   3.535   0.871  0.8458 -2.0812 -0.6859
  407TIP3   OH222779   2.220   0.053   6.504  0.6761 -0.1128 -0.5925
  407TIP3    H122780   2.290   0.048   6.570  0.6830  2.8634 -0.3274
  407TIP3    H222781   2.262   0.025   6.423  2.0509  1.0774 -0.3155
  408TIP3   OH222782   1.360   6.237   7.608  0.0142  0.5327 -0.7199
  408TIP3    H122783   1.288   6.294   7.581 -1.3241 -0.3949  0.7235
  408TIP3    H222784   1.318   6.153   7.626  1.3443  0.1471  0.7577
  409TIP3   OH222785   5.927   0.223   6.982  0.1319 -0.0664 -0.0265
  409TIP3    H122786   5.913   0.286   7.052  0.5311  0.8142 -0.7223
  409TIP3    H222787   5.974   0.150   7.024 -2.0909 -0.8126  1.2085
  410TIP3   OH222788   6.353   6.561   7.520 -0.5566  0.0129 -0.0079
  410TIP3    H122789   6.437   6.583   7.561 -0.3654 -0.8560  0.0937
  410TIP3    H222790   6.329   6.639   7.470 -0.3387  0.7419  1.0157
  411TIP3   OH222791   2.759   5.958   7.499 -0.1979  0.2164  0.0157
  411TIP3    H122792   2.833   6.018   7.501 -0.2371  0.2774 -0.2977
  411TIP3    H222793   2.785   5.884   7.554  0.8966 -0.6876 -1.6816
  412TIP3   OH222794   7.029   2.421   5.886 -0.0863  0.0167 -0.4836
  412TIP3    H122795   6.934   2.421   5.895 -0.0370 -0.5834  0.0522
  412TIP3    H222796   7.049   2.508   5.851 -0.7997  0.2703 -0.2844
  413TIP3   OH222797   1.160   0.441   0.180 -0.7670  0.1968  0.0167
  413TIP3    H122798   1.082   0.387   0.190  0.8199 -2.3837 -1.0110
  413TIP3    H222799   1.228   0.394   0.227  0.4202  1.8779  0.0208
  414TIP3   OH222800   1.537   6.552   1.618  0.0843  0.1418 -0.3472
  414TIP3    H122801   1.495   6.565   1.703  0.1695 -0.1326 -0.2629
  414TIP3    H222802   1.469   6.574   1.554 -0.3062 -0.6478 -0.2140
  415TIP3   OH222803   4.399   6.001   0.620  0.2519  0.1706  0.4573
  415TIP3    H122804   4.370   6.092   0.619 -1.5887 -0.3844  0.6948
  415TIP3    H222805   4.390   5.972   0.529 -1.8329 -0.5641  0.8819
  416TIP3   OH222806   6.829   1.959   7.386  0.3122 -0.2784 -0.4846
  416TIP3    H122807   6.872   1.901   7.324 -0.7362 -0.7825 -0.7487
  416TIP3    H222808   6.837   2.046   7.346  1.8827 -0.2328 -0.0851
  417TIP3   OH222809   3.959   2.954   6.302  0.3020 -0.2363  0.0924
  417TIP3    H122810   3.957   2.859   6.302  0.6760 -0.2489 -0.7300
  417TIP3    H222811   4.046   2.977   6.269  0.0857  0.3822 -0.0747
  418TIP3   OH222812   2.813   4.571   7.164 -0.0045 -0.6536 -0.1115
  418TIP3    H122813   2.748   4.541   7.101  0.4179 -1.5552 -0.1316
  418TIP3    H222814   2.880   4.503   7.163  0.0348 -0.6504  1.2661
  419TIP3   OH222815   0.788   3.486   1.505  0.2136  0.0856  0.2516
  419TIP3    H122816   0.696   3.496   1.481  0.4346  0.3395 -0.5020
  419TIP3    H222817   0.793   3.517   1.595 -0.2068  1.2873 -0.1232
  420TIP3   OH222818   6.006   2.002   6.529 -0.4309 -0.3489 -0.2279
  420TIP3    H122819   6.074   2.056   6.568 -1.0346 -0.1455  0.5613
  420TIP3    H222820   5.950   1.977   6.603 -0.8204 -1.0822 -0.7598
  421TIP3   OH222821   6.661   0.249   1.375  0.5716 -0.1249 -0.2861
  421TIP3    H122822   6.700   0.337   1.374 -1.5547  0.9068  1.7283
  421TIP3    H222823   6.637   0.235   1.467 -2.0201 -1.5041 -1.1303
  422TIP3   OH222824   5.268   7.112   6.872 -0.3210  0.8012 -0.3762
  422TIP3    H122825   5.188   7.164   6.873  1.5388  3.8084 -0.7084
  422TIP3    H222826   5.296   7.112   6.781 -0.6318 -1.4002 -0.4959
  423TIP3   OH222827   3.625   1.388   6.323 -0.3266 -0.6222  0.4479
  423TIP3    H122828   3.695   1.323   6.328 -0.1162 -0.3531  1.0193
  423TIP3    H222829   3.669   1.468   6.297 -0.4332 -0.4633  0.7593
  424TIP3   OH222830   2.715   1.870   6.327  0.0365  0.4751 -0.4154
  424TIP3    H122831   2.782   1.936   6.343 -0.1473 -0.1243  3.1590
  424TIP3    H222832   2.764   1.790   6.310  0.2128  0.7809 -1.4309
  425TIP3   OH222833   4.057   1.382   6.993  0.0530 -0.1908 -0.7716
  425TIP3    H122834   4.022   1.438   7.063 -1.8566 -1.3474 -0.7555
  425TIP3    H222835   4.150   1.404   6.989 -0.4034  2.0549  0.0906
  426TIP3   OH222836   4.971   6.117   6.931  0.2568 -0.3457 -0.1453
  426TIP3    H122837   4.887   6.121   6.886  0.2509  1.6283  0.0364
  426TIP3    H222838   5.026   6.061   6.875 -1.2247 -1.8604 -0.1257
  427TIP3   OH222839   6.863   0.202   5.922  0.1846  0.7985  0.4323
  427TIP3    H122840   6.897   0.275   5.870 -0.5704  0.6688 -0.2625
  427TIP3    H222841   6.774   0.227   5.944  0.2337  0.4945  0.9906
  428TIP3   OH222842   6.879   3.144   0.522  0.0731  0.0696  0.5927
  428TIP3    H122843   6.881   3.209   0.453  1.3157 -1.8310 -1.2282
  428TIP3    H222844   6.789   3.146   0.555 -1.1581 -0.4898 -2.5730
  429TIP3   OH222845   2.745   1.921   7.234 -0.3999  0.3544  0.4943
  429TIP3    H122846   2.739   1.885   7.146 -1.1238  1.7963 -0.0531
  429TIP3    H222847   2.825   1.882   7.271  0.6549  0.8338 -1.2689
  430TIP3   OH222848   0.709   1.654   0.289  0.4213 -0.0409 -0.2148
  430TIP3    H122849   0.746   1.620   0.207 -0.9703 -0.3021 -0.7478
  430TIP3    H222850   0.756   1.607   0.358  3.4620  2.0474 -0.7624
  431TIP3   OH222851   1.316   5.937   7.588 -0.2918  0.0962 -0.0908
  431TIP3    H122852   1.410   5.943   7.570 -0.7215  1.3984 -2.1093
  431TIP3    H222853   1.304   5.850   7.626  1.4794 -0.7660 -1.4288
  432TIP3   OH222854   3.046   4.235   8.015  0.4141 -0.2036  0.0926
  432TIP3    H122855   2.964   4.206   7.975  0.9637 -1.4179 -0.1522
  432TIP3    H222856   3.049   4.329   7.997 -1.3764  0.0256  0.9221
  433TIP3   OH222857   1.311   3.366   0.504 -0.5336 -0.3670 -0.1372
  433TIP3    H122858   1.368   3.438   0.479 -1.9309  0.6403 -0.4823
  433TIP3    H222859   1.243   3.365   0.437 -3.4221  1.3295  2.5974
  434TIP3   OH222860   0.351   2.993   0.416  0.0746  0.0096 -0.2934
  434TIP3    H122861   0.386   3.082   0.410  0.8212 -0.3292 -1.1490
  434TIP3    H222862   0.309   2.989   0.502  1.0646  0.8182  0.2365
  435TIP3   OH222863   0.384   0.179   7.364  0.1816  0.0230  0.1871
  435TIP3    H122864   0.442   0.126   7.418 -1.3773 -0.4482  1.4274
  435TIP3    H222865   0.316   0.118   7.336  0.6859  0.3783 -1.9231
  436TIP3   OH222866   0.300   6.212   6.577  0.0873  0.1117 -0.6197
  436TIP3    H122867   0.366   6.161   6.624 -1.0962 -0.3343  0.5651
  436TIP3    H222868   0.351   6.269   6.520  1.5629  0.6524  1.1861
  437TIP3   OH222869   0.668   6.549   7.453  0.0205  0.4335 -0.4458
  437TIP3    H122870   0.672   6.462   7.414  0.6102  0.1869  0.1612
  437TIP3    H222871   0.733   6.600   7.406  2.2075 -0.4192  1.5676
  438TIP3   OH222872   1.172   6.808   6.562 -0.3302 -0.1248 -0.1073
  438TIP3    H122873   1.101   6.787   6.624 -0.5940 -0.7729 -0.6358
  438TIP3    H222874   1.149   6.762   6.482  1.1897 -1.1211  0.0081
  439TIP3   OH222875   6.169   2.973   1.056  0.0062 -0.1974  0.0187
  439TIP3    H122876   6.185   3.046   1.116 -0.3550  0.7111 -0.9810
  439TIP3    H222877   6.074   2.960   1.059  0.2509 -1.8874  1.6390
  440TIP3   OH222878   1.369   0.422   1.549  0.2810 -0.1212  0.2637
  440TIP3    H122879   1.301   0.489   1.560  1.3032  0.8523  0.6856
  440TIP3    H222880   1.320   0.340   1.540 -1.0324  0.7915 -1.2664
  441TIP3   OH222881   6.656   2.496   6.680 -0.1520 -0.0662 -0.4443
  441TIP3    H122882   6.707   2.455   6.749  1.6977 -0.8534 -2.2036
  441TIP3    H222883   6.706   2.479   6.600 -2.5043  0.3191 -2.0562
  442TIP3   OH222884   0.315   1.833   2.067 -0.0621  0.5086 -0.1729
  442TIP3    H122885   0.242   1.890   2.091 -0.2831  0.8608 -1.6587
  442TIP3    H222886   0.337   1.786   2.148 -1.1482  1.2763  0.5677
  443TIP3   OH222887   3.448   3.372   0.917 -0.0218 -0.3627  0.0619
  443TIP3    H122888   3.529   3.418   0.894  0.1376 -0.0197  1.2708
  443TIP3    H222889   3.382   3.441   0.925  0.1183 -0.3749  1.4462
  444TIP3   OH222890   2.846   6.407   5.810  0.4005  0.2169  0.1271
  444TIP3    H122891   2.884   6.494   5.796 -0.3197  0.6403  0.7643
  444TIP3    H222892   2.891   6.372   5.886  1.3323 -0.3492 -0.6731
  445TIP3   OH222893   6.745   2.406   1.692 -0.5099  0.1212 -0.2988
  445TIP3    H122894   6.704   2.459   1.623 -1.5436  0.8190  0.8373
  445TIP3    H222895   6.673   2.383   1.750  0.2321 -1.1012  0.1614
  446TIP3   OH222896   1.452   1.969   7.967 -0.2083 -0.2442 -0.0340
  446TIP3    H122897   1.398   2.046   7.947  1.8340  1.1787 -0.2181
  446TIP3    H222898   1.427   1.945   8.057  0.5787  1.8789  0.7778
  447TIP3   OH222899   3.867   4.463   6.603 -0.0435 -0.0367 -0.0119
  447TIP3    H122900   3.846   4.520   6.677  3.1009  0.3938  0.5932
  447TIP3    H222901   3.923   4.516   6.547  0.3516 -1.4912 -1.0264
  448TIP3   OH222902   1.351   6.469   7.910  0.0869  0.1044 -0.0998
  448TIP3    H122903   1.327   6.492   8.000 -0.0541  0.6527 -0.2771
  448TIP3    H222904   1.374   6.552   7.869 -0.0753 -0.1133 -0.6371
  449TIP3   OH222905   6.212   3.251   0.800  0.4728 -0.4762  0.2706
  449TIP3    H122906   6.133   3.201   0.822  0.6340 -0.9613 -0.2311
  449TIP3    H222907   6.206   3.265   0.706 -0.1952  1.5571  0.5885
  450TIP3   OH222908   2.272   5.101   6.830 -0.4228 -0.0027  0.0406
  450TIP3    H122909   2.268   5.184   6.877 -2.3920 -1.5122  2.6193
  450TIP3    H222910   2.335   5.118   6.759  0.3967  3.1939  1.4135
  451TIP3   OH222911   3.208   6.146   6.571 -0.4465  0.2294 -0.1670
  451TIP3    H122912   3.200   6.061   6.528  1.3571 -0.2188  0.3329
  451TIP3    H222913   3.135   6.149   6.632 -0.8911 -0.6860 -0.6351
  452TIP3   OH222914   5.501   5.841   1.089 -0.2188 -0.2487  0.1961
  452TIP3    H122915   5.456   5.774   1.037 -0.1852 -0.9282  1.0391
  452TIP3    H222916   5.517   5.800   1.174  0.0281  0.7445  0.6403
  453TIP3   OH222917   5.138   0.456   7.552  0.3067  0.4182 -0.2113
  453TIP3    H122918   5.105   0.513   7.482  0.5033  0.7809 -0.0129
  453TIP3    H222919   5.210   0.407   7.512  0.6754  0.9124 -0.1568
  454TIP3   OH222920   6.716   0.681   6.993 -0.2951  0.2848  0.8511
  454TIP3    H122921   6.742   0.600   6.949  3.0052  2.3550 -1.1573
  454TIP3    H222922   6.631   0.703   6.954  1.2127  0.5226 -2.4820
  455TIP3   OH222923   1.877   6.590   7.158 -0.3343 -0.0218  0.1636
  455TIP3    H122924   1.878   6.613   7.065  0.7093 -1.5613 -0.2223
  455TIP3    H222925   1.928   6.659   7.200  0.9410 -0.4109 -0.6964
  456TIP3   OH222926   2.156   5.817   0.459  0.0399 -0.1417  0.2141
  456TIP3    H122927   2.243   5.848   0.483  0.0483 -1.4172  1.8992
  456TIP3    H222928   2.172   5.753   0.389  0.4506 -0.3462  0.4941
  457TIP3   OH222929   0.421   2.192   7.921 -0.1326 -0.1269 -0.6240
  457TIP3    H122930   0.487   2.130   7.890 -0.4917 -0.3934 -0.8570
  457TIP3    H222931   0.449   2.214   8.010 -1.7988 -3.1848  0.7039
  458TIP3   OH222932   1.831   1.754   8.088 -0.0184 -0.3661 -0.0014
  458TIP3    H122933   1.865   1.666   8.075 -1.0939 -0.6276 -1.1655
  458TIP3    H222934   1.843   1.771   8.182 -0.8233 -2.1739  0.4511
  459TIP3   OH222935   3.947   6.345   7.297 -0.2026 -0.2259 -0.0827
  459TIP3    H122936   4.021   6.380   7.247  0.4535 -1.2764  0.1414
  459TIP3    H222937   3.918   6.270   7.246 -1.0951  0.1604 -0.1434
  460TIP3   OH222938   4.528   2.816   0.254  0.4028 -0.2866  0.2226
  460TIP3    H122939   4.450   2.867   0.275  0.0124 -1.1695  0.9766
  460TIP3    H222940   4.601   2.878   0.262 -0.2710  0.7159 -1.1688
  461TIP3   OH222941   6.897   1.298   6.394 -0.0722 -0.1790 -0.1611
  461TIP3    H122942   6.829   1.268   6.454 -1.0374  0.7966 -0.7479
  461TIP3    H222943   6.977   1.298   6.446 -0.7505 -0.1080  0.9013
  462TIP3   OH222944   3.444   0.362   0.829  0.3870  0.4436  0.0144
  462TIP3    H122945   3.351   0.385   0.835  0.1570 -0.3794 -0.2024
  462TIP3    H222946   3.456   0.293   0.895  0.6831  0.0754 -0.4172
  463TIP3   OH222947   3.031   6.523   7.162  0.2830 -0.0362 -0.2669
  463TIP3    H122948   3.028   6.464   7.086  0.5919  0.7191 -0.8642
  463TIP3    H222949   3.062   6.606   7.127 -0.8496  0.6965  0.4462
  464TIP3   OH222950   3.075   0.297   6.400 -0.5454 -0.1401  0.1010
  464TIP3    H122951   2.989   0.326   6.371 -0.8555  0.3253  1.4831
  464TIP3    H222952   3.135   0.334   6.336 -1.3548 -0.4321 -0.8465
  465TIP3   OH222953   6.443   0.646   1.259 -0.3477  0.6121  0.1143
  465TIP3    H122954   6.405   0.570   1.303 -0.4755 -0.0379 -1.0896
  465TIP3    H222955   6.537   0.633   1.266 -0.3633 -0.5648 -1.5862
  466TIP3   OH222956   1.686   7.088   6.254 -0.0670  0.1818 -0.3132
  466TIP3    H122957   1.779   7.098   6.275 -0.3118  2.0132  0.0154
  466TIP3    H222958   1.685   7.076   6.159  0.5494 -0.5113 -0.2369
  467TIP3   OH222959   6.347   6.883   0.600 -0.3731  0.2924  0.5591
  467TIP3    H122960   6.292   6.854   0.672 -1.0203 -0.9341 -0.4076
  467TIP3    H222961   6.311   6.840   0.522 -1.0203  3.2574 -0.8636
  468TIP3   OH222962   1.472   2.498   8.107  0.5932  0.1668 -0.1486
  468TIP3    H122963   1.401   2.503   8.043 -0.4420  1.8724  1.0905
  468TIP3    H222964   1.551   2.493   8.054 -0.4869 -2.8835 -1.5695
  469TIP3   OH222965   0.952   5.336   0.713 -0.2269  0.5227 -0.5933
  469TIP3    H122966   0.905   5.382   0.782  2.1510  1.6449  0.3481
  469TIP3    H222967   1.001   5.404   0.667 -0.4351 -0.4440 -2.3140
  470TIP3   OH222968   1.025   2.989   0.028 -0.4475 -0.5385 -0.7879
  470TIP3    H122969   0.929   2.985   0.023 -0.4092 -1.0635 -1.1881
  470TIP3    H222970   1.052   3.025  -0.057 -0.2034 -2.0080 -1.3511
  471TIP3   OH222971   3.298   0.562   1.050  0.0509 -0.1905  0.5052
  471TIP3    H122972   3.272   0.565   0.957 -0.2585  0.6524  0.6230
  471TIP3    H222973   3.340   0.646   1.066  1.9666 -1.1480  0.5879
  472TIP3   OH222974   6.606   0.358   7.351  0.3577 -0.1914  0.1882
  472TIP3    H122975   6.613   0.278   7.299  2.8594  0.2397 -0.1923
  472TIP3    H222976   6.551   0.333   7.426  1.6352 -2.4647  0.4227
  473TIP3   OH222977   2.954   0.586   7.292  0.1119  0.7143  0.2504
  473TIP3    H122978   2.934   0.496   7.265 -2.1016  0.8063  1.4712
  473TIP3    H222979   3.034   0.608   7.245  0.6246 -1.8605 -0.1567
  474TIP3   OH222980   4.465   1.794   0.293 -0.0349  0.4615 -0.0335
  474TIP3    H122981   4.430   1.727   0.233  2.8899  0.3166 -1.6574
  474TIP3    H222982   4.437   1.765   0.380 -0.9735 -1.4986 -0.9543
  475TIP3   OH222983   0.667   0.207   5.860 -0.0827 -0.4377  0.3709
  475TIP3    H122984   0.579   0.187   5.891 -0.3551 -0.0315 -0.1399
  475TIP3    H222985   0.717   0.227   5.939 -0.4430 -0.6878  0.6590
  476TIP3   OH222986   3.518   6.473   5.817 -0.4665  0.0817  0.5246
  476TIP3    H122987   3.563   6.455   5.900 -0.4788  1.0809  0.7474
  476TIP3    H222988   3.515   6.568   5.811  0.0142  0.0116 -0.8904
  477TIP3   OH222989   4.485   2.252   1.022 -0.3010 -0.2376  0.0883
  477TIP3    H122990   4.463   2.160   1.034 -1.5553 -0.0739 -0.8718
  477TIP3    H222991   4.448   2.296   1.098 -0.5249 -0.3951  0.0686
  478TIP3   OH222992   0.671   0.578   7.298  0.5424  0.0367  0.6249
  478TIP3    H122993   0.664   0.489   7.333 -2.1317  0.5637  1.5303
  478TIP3    H222994   0.582   0.601   7.272  0.9293  2.9187  1.5907
  479TIP3   OH222995   0.199   0.666   1.945 -0.7518  0.3019 -0.2620
  479TIP3    H122996   0.115   0.655   1.989  0.1389 -0.8956  1.1964
  479TIP3    H222997   0.216   0.582   1.903 -0.9046  0.9725 -1.7127
  480TIP3   OH222998   0.471   6.040   6.700 -0.1216  0.4345  0.4043
  480TIP3    H122999   0.443   5.950   6.717 -1.0517  0.3570 -1.4606
  480TIP3    H223000   0.556   6.031   6.657 -0.7808  0.3859 -0.9108
  481TIP3   OH223001   0.686   0.319   0.400 -0.4958  0.1060  0.4347
  481TIP3    H123002   0.776   0.330   0.370 -0.3109 -0.6704  0.6699
  481TIP3    H223003   0.660   0.234   0.363 -1.0773  0.2637  0.4888
  482TIP3   OH223004   0.599   0.564   0.536 -0.3128  0.0078  0.5230
  482TIP3    H123005   0.674   0.622   0.529 -1.3983  1.2718 -1.0025
  482TIP3    H223006   0.629   0.481   0.498  1.2742 -0.4932  2.8171
  483TIP3   OH223007   0.365   1.768   1.815 -0.3858 -0.2977 -0.0050
  483TIP3    H123008   0.363   1.851   1.768  1.4232 -1.1550 -1.6814
  483TIP3    H223009   0.341   1.790   1.904  0.0528  2.0281 -0.4308
  484TIP3   OH223010   1.089   3.597   0.456  0.6464  0.5248 -0.3350
  484TIP3    H123011   1.077   3.676   0.509  1.8165 -0.2194  1.0869
  484TIP3    H223012   1.184   3.581   0.458  0.5061 -0.5164 -1.2166
  485TIP3   OH223013   0.477   1.121   6.524  0.7219 -0.1955  0.9004
  485TIP3    H123014   0.423   1.200   6.525  0.0475 -0.6187 -1.1587
  485TIP3    H223015   0.557   1.147   6.478 -0.4160 -1.2836 -1.7300
  486TIP3   OH223016   2.224   2.118   7.826  0.0999 -0.4632  0.2783
  486TIP3    H123017   2.238   2.190   7.765 -1.5378 -1.3112 -1.1360
  486TIP3    H223018   2.276   2.142   7.903  1.3467  1.1308 -1.0174
  487TIP3   OH223019   1.760   2.420   0.121  0.2230  0.4086  0.1678
  487TIP3    H123020   1.796   2.493   0.173 -1.0259  0.7951  0.5054
  487TIP3    H223021   1.776   2.446   0.030 -0.8221  1.4393  0.2606
  488TIP3   OH223022   6.418   0.918   8.068 -0.1301 -0.9582  0.4049
  488TIP3    H123023   6.371   0.841   8.036 -0.0692  0.0657 -2.2486
  488TIP3    H223024   6.354   0.990   8.062 -0.1391 -0.7354  2.6992
  489TIP3   OH223025   0.972   1.478   0.143  0.4086  0.1551  0.6251
  489TIP3    H123026   1.009   1.500   0.057 -0.2099 -0.1792  0.2707
  489TIP3    H223027   0.888   1.437   0.123 -0.0066  0.6136  1.4116
  490TIP3   OH223028   4.963   0.739   6.508  0.1912  0.0538 -0.2359
  490TIP3    H123029   5.034   0.678   6.530  2.0314  2.2715  0.1535
  490TIP3    H223030   4.955   0.734   6.413  0.6333 -0.4297 -0.2515
  491TIP3   OH223031   2.995   5.688   7.441  0.2611  0.2630  0.2891
  491TIP3    H123032   2.927   5.727   7.386 -0.7735  1.0255  2.0477
  491TIP3    H223033   3.056   5.649   7.379 -1.1943  0.5325 -1.3776
  492TIP3   OH223034   0.783   1.073   6.097 -0.8431  0.9176 -0.5090
  492TIP3    H123035   0.785   1.031   6.012 -0.1903  2.0874 -1.0916
  492TIP3    H223036   0.873   1.105   6.110 -1.1623  1.5570  0.1884
  493TIP3   OH223037   1.187   6.252   6.051 -0.7249  0.4179  0.0348
  493TIP3    H123038   1.144   6.201   5.982 -1.9717  1.2916  0.1512
  493TIP3    H223039   1.279   6.223   6.048 -1.8690 -3.7291  1.8378
  494TIP3   OH223040   5.770   5.972   0.283 -0.3934 -0.5925  0.0723
  494TIP3    H123041   5.753   5.880   0.302 -0.5000 -0.4602  0.6276
  494TIP3    H223042   5.866   5.980   0.289 -0.4366 -0.5240  0.6882
  495TIP3   OH223043   0.979   0.195   6.688  0.3921  0.2656 -0.4371
  495TIP3    H123044   1.039   0.129   6.654  1.0360  0.1323  0.9283
  495TIP3    H223045   0.921   0.146   6.746 -0.2300  0.6169 -0.7613
  496TIP3   OH223046   3.074   1.564   0.905  0.5790 -0.0127  0.3043
  496TIP3    H123047   3.113   1.561   0.992  1.2735 -0.6344 -0.0281
  496TIP3    H223048   3.099   1.481   0.864 -0.0642  0.1088 -0.3484
  497TIP3   OH223049   2.033   2.442   1.427 -0.1098 -0.4068 -0.2554
  497TIP3    H123050   1.965   2.398   1.476 -0.3125 -0.5026 -0.6189
  497TIP3    H223051   1.992   2.466   1.344 -0.1881  1.0514  0.1907
  498TIP3   OH223052   0.217   7.037   1.347 -0.1886 -0.4587 -0.4845
  498TIP3    H123053   0.266   7.113   1.378 -0.1741 -0.3523 -0.7618
  498TIP3    H223054   0.125   7.060   1.360 -0.1319 -1.8588  2.8474
  499TIP3   OH223055   7.063   0.721   7.044 -0.0977 -0.6119 -0.1395
  499TIP3    H123056   6.968   0.708   7.033 -0.2175  0.1920 -0.0860
  499TIP3    H223057   7.083   0.682   7.129 -0.0336 -2.5048 -0.9920
  500TIP3   OH223058   6.575   6.581   5.655 -0.5474 -0.0414 -0.0589
  500TIP3    H123059   6.606   6.494   5.680  0.2822 -0.0291 -1.0143
  500TIP3    H223060   6.654   6.627   5.626 -0.7420  1.5283  1.8232
  501TIP3   OH223061   0.749   0.597   7.025 -0.1393  0.3287 -0.3467
  501TIP3    H123062   0.674   0.555   6.984 -0.2751  0.5980 -0.3744
  501TIP3    H223063   0.731   0.593   7.118  0.4677 -0.8515 -0.2730
  502TIP3   OH223064   3.996   7.076   7.530 -0.2868  0.0666  0.3166
  502TIP3    H123065   4.078   7.038   7.560  0.6665  2.3279  0.7239
  502TIP3    H223066   3.976   7.144   7.595 -1.5354  0.7412 -0.7386
  503TIP3   OH223067   4.107   0.828   6.853  0.2830 -0.2300  0.6400
  503TIP3    H123068   4.117   0.862   6.942 -0.6314 -1.5606  1.2621
  503TIP3    H223069   4.195   0.803   6.826  0.9407  2.2697  0.2878
  504TIP3   OH223070   5.799   1.274   6.736 -0.4305  0.0427  0.0951
  504TIP3    H123071   5.786   1.187   6.697  0.4947  0.1147 -0.3860
  504TIP3    H223072   5.890   1.296   6.716 -0.7572  1.2735 -0.0710
  505TIP3   OH223073   1.395   5.708   1.499  0.2274  0.4259 -0.0813
  505TIP3    H123074   1.315   5.753   1.526 -0.3059 -1.5241  1.6913
  505TIP3    H223075   1.394   5.625   1.547  1.3265 -1.3955 -3.0757
  506TIP3   OH223076   6.208   3.625   5.850 -0.1756 -0.3172  1.0982
  506TIP3    H123077   6.190   3.539   5.813 -2.0158 -0.4197  2.1906
  506TIP3    H223078   6.203   3.685   5.775 -0.3725 -0.9587  0.5970
  507TIP3   OH223079   3.377   1.564   0.175 -0.0253  0.0776  0.9460
  507TIP3    H123080   3.435   1.596   0.244  0.5834  0.0831  0.4398
  507TIP3    H223081   3.399   1.471   0.166 -0.9152 -0.2026  1.5518
  508TIP3   OH223082   2.513   5.577   7.999 -0.2545  0.6009  0.0983
  508TIP3    H123083   2.535   5.531   7.919 -2.0356 -0.4867  0.2102
  508TIP3    H223084   2.431   5.622   7.980  0.5846  2.3890  0.5298
  509TIP3   OH223085   1.598   2.426   7.521  0.2786 -0.2248  0.5287
  509TIP3    H123086   1.667   2.388   7.467  0.6830 -1.1336  1.6655
  509TIP3    H223087   1.573   2.356   7.581  0.5400  1.0695  2.1953
  510TIP3   OH223088   6.911   2.033   7.655  0.3194  0.3329 -0.0539
  510TIP3    H123089   6.871   2.016   7.570 -1.3093  0.2400  0.7158
  510TIP3    H223090   7.002   2.056   7.635 -0.2174  0.9415 -1.8661
  511TIP3   OH223091   6.477   4.305   1.273  0.5841  0.2568 -0.5074
  511TIP3    H123092   6.430   4.306   1.356 -1.5026  0.2604 -1.6502
  511TIP3    H223093   6.492   4.397   1.252  2.5136  0.2291  0.5901
  512TIP3   OH223094   0.351   0.892   0.878 -0.7503  0.0741  0.5174
  512TIP3    H123095   0.337   0.813   0.825 -0.1682  0.2248  0.1300
  512TIP3    H223096   0.407   0.948   0.823  1.0747 -0.3849  1.8695
  513TIP3   OH223097   0.558   5.602   0.548 -0.5404  0.1976 -0.0726
  513TIP3    H123098   0.627   5.642   0.494 -0.8607 -0.2033 -0.7871
  513TIP3    H223099   0.476   5.631   0.508 -0.7947 -2.0982 -1.3408
  514TIP3   OH223100   6.375   0.697   7.717  0.4282  0.3114 -0.1822
  514TIP3    H123101   6.329   0.694   7.633  0.4685 -0.2605 -0.1874
  514TIP3    H223102   6.467   0.698   7.693  0.4283  0.8614 -0.1592
  515TIP3   OH223103   0.513   1.010   7.498 -0.0444 -0.1286 -0.4423
  515TIP3    H123104   0.426   0.978   7.525 -0.1178  0.8412  0.5183
  515TIP3    H223105   0.553   1.040   7.580  0.4471  1.1964 -1.1583
  516TIP3   OH223106   0.979   5.577   7.278 -0.0028  0.8031 -0.0019
  516TIP3    H123107   1.026   5.614   7.203  2.6772 -2.1226  0.1220
  516TIP3    H223108   1.038   5.590   7.352  0.8180 -3.1324  0.1276
  517TIP3   OH223109   2.557   3.555   6.667  0.2413 -0.0697 -0.6738
  517TIP3    H123110   2.527   3.551   6.576 -1.0954 -0.5053 -0.2202
  517TIP3    H223111   2.487   3.601   6.713  0.9125  0.1327  0.1413
  518TIP3   OH223112   1.837   0.455   7.649  0.0376  0.1242  0.1353
  518TIP3    H123113   1.760   0.399   7.660 -0.3076  0.2339 -1.5166
  518TIP3    H223114   1.879   0.456   7.735  0.6414 -3.5497 -0.0231
  519TIP3   OH223115   0.495   3.569   6.249  0.7406 -0.0242  0.1133
  519TIP3    H123116   0.405   3.586   6.222  0.1643 -0.6826  1.5519
  519TIP3    H223117   0.529   3.506   6.185  0.7025  1.3785 -1.3308
  520TIP3   OH223118   0.886   4.294   0.253  0.0619 -0.1069  0.0727
  520TIP3    H123119   0.828   4.301   0.329 -0.7554  2.5269 -0.7143
  520TIP3    H223120   0.971   4.323   0.285 -0.0285 -0.0436  0.2560
  521TIP3   OH223121   4.362   1.213   7.249  0.0570 -0.2459 -0.2665
  521TIP3    H123122   4.356   1.306   7.268  1.7378  0.6405 -3.5982
  521TIP3    H223123   4.303   1.171   7.312  1.0791  2.8052  2.8489
  522TIP3   OH223124   0.949   0.203   0.953  0.3750  0.0874 -0.1569
  522TIP3    H123125   0.874   0.180   1.008  0.6025 -3.2417 -1.1083
  522TIP3    H223126   1.021   0.217   1.014 -0.7971  2.6312  0.7241
  523TIP3   OH223127   0.992   0.682   7.739 -0.4104  0.4236  0.5391
  523TIP3    H123128   0.947   0.717   7.662 -0.5262  0.7223  0.7427
  523TIP3    H223129   1.040   0.757   7.775  1.5199 -0.2483 -0.5817
  524TIP3   OH223130   2.202   0.862   7.346  0.1117 -0.6135  0.0854
  524TIP3    H123131   2.225   0.914   7.422 -1.0391 -1.6241  1.1462
  524TIP3    H223132   2.113   0.833   7.363  0.3228 -1.9584 -1.0216
  525TIP3   OH223133   1.056   1.076   6.097  0.3192  0.4681  0.0921
  525TIP3    H123134   1.150   1.059   6.106  0.1697 -0.3015  0.2566
  525TIP3    H223135   1.043   1.094   6.004  0.9566  2.6549  0.4084
  526TIP3   OH223136   6.916   5.784   6.451 -0.1973 -0.1324  0.0041
  526TIP3    H123137   6.895   5.871   6.483  1.9485  1.1091 -1.7314
  526TIP3    H223138   6.839   5.731   6.470 -1.6193  2.1925  0.8948
  527TIP3   OH223139   5.818   3.481   8.006  0.1843  0.2470 -0.1271
  527TIP3    H123140   5.785   3.565   7.976  0.3220 -0.0392 -1.1102
  527TIP3    H223141   5.835   3.493   8.099 -4.3172 -0.0938  0.8108
  528TIP3   OH223142   1.297   5.717   5.523  0.0296 -0.3342 -0.6582
  528TIP3    H123143   1.333   5.630   5.537  0.3901 -0.3583 -1.6645
  528TIP3    H223144   1.202   5.703   5.518  0.1139 -0.7352 -1.2391
  529TIP3   OH223145   4.888   1.853   6.590 -0.0782 -0.1006  0.3339
  529TIP3    H123146   4.974   1.874   6.554 -0.5490  0.8122 -0.2782
  529TIP3    H223147   4.905   1.782   6.652  0.9068 -0.8901 -0.8174
  530TIP3   OH223148   6.090   5.519   6.352  0.2838 -0.4942 -0.3039
  530TIP3    H123149   6.080   5.604   6.308  1.1596 -1.3129 -2.1129
  530TIP3    H223150   6.175   5.524   6.395 -0.2571  0.0321  0.7328
  531TIP3   OH223151   1.142   7.115   0.912 -0.2376 -0.1742 -0.0558
  531TIP3    H123152   1.230   7.089   0.885  0.2782  0.3197  1.1076
  531TIP3    H223153   1.114   7.178   0.845  0.0418 -0.8007 -0.7644
  532TIP3   OH223154   4.778   0.878   1.651 -0.1586 -0.2419 -0.0245
  532TIP3    H123155   4.753   0.793   1.614 -1.2563  0.6663 -1.4011
  532TIP3    H223156   4.773   0.939   1.578  2.8932  0.6182  0.4028
  533TIP3   OH223157   6.408   3.116   7.370  0.4636 -0.5781 -0.4931
  533TIP3    H123158   6.379   3.064   7.444  0.9554  1.9883  1.5810
  533TIP3    H223159   6.397   3.207   7.399  2.1118  0.4612 -2.9826
  534TIP3   OH223160   6.698   0.603   1.701 -0.1587  0.3243  0.5131
  534TIP3    H123161   6.716   0.689   1.739 -0.5454  0.6500 -0.0265
  534TIP3    H223162   6.683   0.546   1.776 -1.3618  1.0583  0.8374
  535TIP3   OH223163   3.296   4.938   7.130 -0.4536 -0.1119  0.6949
  535TIP3    H123164   3.256   4.853   7.148 -0.8447  0.2195  1.4309
  535TIP3    H223165   3.314   4.974   7.217 -0.0229  0.4337  0.3836
  536TIP3   OH223166   1.931   0.321   6.265  0.3345 -0.2651  0.1339
  536TIP3    H123167   1.992   0.375   6.215 -1.2601  1.6061  0.1390
  536TIP3    H223168   1.906   0.250   6.205  0.0753  0.7608 -0.9922
  537TIP3   OH223169   4.612   2.206   7.678 -0.2413  0.2521 -0.2025
  537TIP3    H123170   4.663   2.266   7.731  1.0467  0.3224 -1.4941
  537TIP3    H223171   4.662   2.195   7.598 -2.6056  0.8869 -1.8364
  538TIP3   OH223172   1.453   0.288   1.230 -0.1171 -0.6113 -0.0739
  538TIP3    H123173   1.488   0.356   1.172 -1.3467 -0.3114 -0.4938
  538TIP3    H223174   1.520   0.276   1.297 -0.0681  1.3214  0.2417
  539TIP3   OH223175   4.086   1.693   7.134 -0.5255  0.3680  0.0570
  539TIP3    H123176   4.003   1.646   7.129 -0.3265 -0.1713  1.5324
  539TIP3    H223177   4.062   1.784   7.152 -0.7746  0.0351  1.4480
  540TIP3   OH223178   1.186   1.351   6.025 -0.1939 -0.2160 -0.6502
  540TIP3    H123179   1.172   1.328   5.933  1.9399  1.1860 -1.3543
  540TIP3    H223180   1.215   1.269   6.066 -0.5881 -0.7147 -1.3577
  541TIP3   OH223181   0.151   0.084   6.909 -0.1877  0.1923 -0.3116
  541TIP3    H123182   0.183   0.120   6.992 -0.1672 -1.4976  0.4238
  541TIP3    H223183   0.229   0.065   6.859 -0.1656  0.0606 -0.2266
  542TIP3   OH223184   3.408   1.154   7.338  0.0726 -0.2165  0.0109
  542TIP3    H123185   3.408   1.226   7.400  0.7645 -0.0336 -0.1960
  542TIP3    H223186   3.360   1.188   7.262  1.4371  0.4527 -0.5652
  543TIP3   OH223187   1.886   1.409   1.594  0.2891  0.2349  0.0829
  543TIP3    H123188   1.921   1.348   1.658  0.7955 -0.3246 -0.7128
  543TIP3    H223189   1.960   1.427   1.535 -0.2400  0.5188 -0.5008
  544TIP3   OH223190   3.281   1.790   6.008 -0.4536  0.2762 -0.0283
  544TIP3    H123191   3.234   1.755   5.932 -1.1359  0.0941  0.4748
  544TIP3    H223192   3.215   1.795   6.077  0.4765 -0.8679  0.9640
  545TIP3   OH223193   6.047   5.248   6.306 -0.4613 -0.1634 -0.2835
  545TIP3    H123194   6.076   5.332   6.342 -2.3752  0.0600  0.8290
  545TIP3    H223195   6.070   5.253   6.214  1.4107  0.6869  0.1957
  546TIP3   OH223196   1.363   4.424   0.134  0.4580 -0.0012 -0.5627
  546TIP3    H123197   1.452   4.409   0.165 -0.0460  0.1450  1.0424
  546TIP3    H223198   1.315   4.345   0.160 -0.4860  1.0737  1.0892
  547TIP3   OH223199   1.809   1.592   7.555  0.2722  0.2938 -0.8387
  547TIP3    H123200   1.894   1.598   7.599  0.8472  1.4063 -2.0653
  547TIP3    H223201   1.827   1.543   7.475 -0.1406  0.8831 -1.3024
  548TIP3   OH223202   4.195   6.961   7.674  0.7341 -0.4854  0.4144
  548TIP3    H123203   4.193   6.911   7.755  0.0747 -3.7278 -1.5203
  548TIP3    H223204   4.278   6.938   7.633  0.9035  0.8397 -0.0095
  549TIP3   OH223205   5.995   2.305   7.287  0.2461 -0.1369  0.2304
  549TIP3    H123206   5.997   2.216   7.251  0.5501  0.1152 -0.3968
  549TIP3    H223207   5.928   2.302   7.354 -0.8389 -0.4559 -0.8439
  550TIP3   OH223208   3.482   0.635   6.917 -0.0458  0.3038 -0.1372
  550TIP3    H123209   3.445   0.573   6.854  0.5157 -0.1867  0.0103
  550TIP3    H223210   3.415   0.703   6.926 -0.6460 -0.2545 -0.3343
  551TIP3   OH223211   4.939   6.990   0.018  0.0749 -0.2076  0.0967
  551TIP3    H123212   4.984   7.059  -0.031 -2.2516  2.0722  1.0443
  551TIP3    H223213   4.896   6.938  -0.050  1.1837 -0.2847 -0.5794
  552TIP3   OH223214   0.142   4.614   0.489 -0.1128 -0.8763 -0.1485
  552TIP3    H123215   0.195   4.601   0.567 -0.9569 -1.2415  0.3708
  552TIP3    H223216   0.191   4.570   0.419 -0.5587 -2.6772  0.6465
  553TIP3   OH223217   4.823   0.035   7.790 -0.4893 -0.3632  0.1023
  553TIP3    H123218   4.895   0.086   7.752 -0.6808 -0.7466 -0.8035
  553TIP3    H223219   4.748   0.094   7.785 -0.6341 -0.6025 -0.6268
  554TIP3   OH223220   2.970   0.354   7.946 -0.5468  0.4866  0.1038
  554TIP3    H123221   2.888   0.350   7.995  0.8080  1.1176  2.5217
  554TIP3    H223222   2.973   0.272   7.897 -2.2819  0.1411  0.5533
  555TIP3   OH223223   2.792   4.048   6.439  0.1217 -0.0174  0.4310
  555TIP3    H123224   2.721   4.101   6.476 -0.2829 -0.0339 -0.3030
  555TIP3    H223225   2.781   4.057   6.344  1.3045  0.2450  0.3129
  556TIP3   OH223226   5.910   1.364   6.106  0.2252  0.1074 -0.0109
  556TIP3    H123227   5.838   1.350   6.169  0.2613 -0.1089 -0.0178
  556TIP3    H223228   5.962   1.434   6.145  0.0844  0.1739  0.0592
  557TIP3   OH223229   3.449   6.998   0.418  0.0625  0.1198  0.0749
  557TIP3    H123230   3.495   6.991   0.334  0.2810 -1.0411  0.2775
  557TIP3    H223231   3.472   7.084   0.451 -1.2101  1.2007 -1.7558
  558TIP3   OH223232   1.572   1.286   6.124 -0.3799  0.6154  0.0585
  558TIP3    H123233   1.494   1.316   6.170  0.1101 -0.5309  1.6803
  558TIP3    H223234   1.589   1.354   6.058 -0.7035  2.6196  1.9923
  559TIP3   OH223235   2.246   4.676   6.968 -0.1304 -0.2745 -0.1654
  559TIP3    H123236   2.270   4.586   6.988 -0.0186 -0.2214 -0.0608
  559TIP3    H223237   2.200   4.706   7.046  0.8017  0.1130  0.2443
  560TIP3   OH223238   3.539   1.940   7.347 -0.2202 -0.3834 -0.0823
  560TIP3    H123239   3.541   1.969   7.257  0.6034 -1.6139 -0.4765
  560TIP3    H223240   3.544   1.844   7.342 -2.2967 -0.5984  1.1739
  561TIP3   OH223241   4.428   4.256   7.601 -0.3291  0.2272 -0.0882
  561TIP3    H123242   4.423   4.161   7.611  1.9764  0.2239  1.4863
  561TIP3    H223243   4.425   4.290   7.690  1.5511  1.4447 -0.4506
  562TIP3   OH223244   1.986   1.424   6.634 -0.4302  0.2509 -0.3559
  562TIP3    H123245   1.969   1.433   6.728 -0.7437 -0.3813 -0.3480
  562TIP3    H223246   1.917   1.366   6.603  0.6363 -0.8629 -0.6630
  563TIP3   OH223247   3.319   2.717   7.177 -0.2407 -0.1595 -0.0250
  563TIP3    H123248   3.340   2.625   7.164 -1.5977 -0.3717 -0.7744
  563TIP3    H223249   3.229   2.727   7.144  0.4621  1.7763 -1.4743
  564TIP3   OH223250   0.168   3.209   6.844  0.2731 -0.0194  0.2387
  564TIP3    H123251   0.108   3.210   6.770  2.5176 -1.5861 -1.6593
  564TIP3    H223252   0.113   3.187   6.919 -1.6646 -0.5123 -1.2901
  565TIP3   OH223253   4.980   1.572   1.142 -0.2840  0.5000  0.0953
  565TIP3    H123254   4.944   1.558   1.229 -1.6128 -0.9901 -0.6563
  565TIP3    H223255   5.069   1.539   1.147 -0.0617  1.2509  1.1252
  566TIP3   OH223256   2.148   0.109   5.647 -0.4509 -0.5044  0.0775
  566TIP3    H123257   2.057   0.097   5.621 -0.4692 -1.0775  0.3854
  566TIP3    H223258   2.191   0.144   5.569 -1.2075  1.0704  0.3354
  567TIP3   OH223259   0.873   5.936   7.217  0.2127 -0.1629  0.1477
  567TIP3    H123260   0.958   5.894   7.207 -0.1218 -0.8621  0.1881
  567TIP3    H223261   0.821   5.874   7.269 -0.4114  0.1172 -0.1264
  568TIP3   OH223262   6.765   6.656   1.131  0.0225  0.3759 -0.1437
  568TIP3    H123263   6.794   6.723   1.070  1.1032  0.0248 -0.0208
  568TIP3    H223264   6.813   6.675   1.212 -1.8147  1.1830  0.7855
  569TIP3   OH223265   4.591   1.082   7.153  0.3502 -0.3901 -0.1839
  569TIP3    H123266   4.584   0.988   7.138 -0.8742  0.1678 -3.3979
  569TIP3    H223267   4.501   1.113   7.159  0.7242  0.8293 -0.7436
  570TIP3   OH223268   1.280   4.859   1.053 -0.6199  0.6547 -0.4995
  570TIP3    H123269   1.258   4.766   1.060  1.8269  0.1820  1.7306
  570TIP3    H223270   1.364   4.860   1.008 -0.3952  1.7768 -0.0633
  571TIP3   OH223271   6.756   0.366   0.817  0.7397  0.2888 -0.0201
  571TIP3    H123272   6.777   0.275   0.794  0.4699  0.2020  0.0794
  571TIP3    H223273   6.674   0.360   0.865  0.4025  0.6502 -0.5609
  572TIP3   OH223274   4.407   3.150   1.355  0.1740 -0.3714  0.6156
  572TIP3    H123275   4.490   3.136   1.401  0.2314 -0.8080  0.3782
  572TIP3    H223276   4.390   3.244   1.365 -0.4633 -0.6892  2.6228
  573TIP3   OH223277   6.704   1.644   7.633 -0.3224 -0.1060  0.2769
  573TIP3    H123278   6.680   1.643   7.725 -0.3321 -2.1048  0.2703
  573TIP3    H223279   6.794   1.612   7.631  0.4538  1.9850 -0.2330
  574TIP3   OH223280   0.219   4.293   6.225 -0.0910 -0.2054  1.0679
  574TIP3    H123281   0.255   4.379   6.244  3.2136 -1.0790 -0.7626
  574TIP3    H223282   0.127   4.309   6.202  0.5522  2.8573  0.4939
  575TIP3   OH223283   2.267   2.764   0.322  0.2228 -0.4245  0.7066
  575TIP3    H123284   2.318   2.770   0.403  2.0362 -0.9594 -0.3477
  575TIP3    H223285   2.333   2.757   0.253 -1.2494  2.2196 -1.0452
  576TIP3   OH223286   3.222   5.632   7.268  0.2142 -0.1760 -0.5384
  576TIP3    H123287   3.248   5.717   7.303  0.6763 -0.3989 -0.3489
  576TIP3    H223288   3.298   5.602   7.219  0.6604 -1.2550  0.7987
  577TIP3   OH223289   7.072   2.681   1.295 -0.1741 -0.5877 -0.3348
  577TIP3    H123290   7.153   2.722   1.263  0.0517 -0.7694 -0.0095
  577TIP3    H223291   7.010   2.691   1.223 -0.4611  1.2949  0.1384
  578TIP3   OH223292   2.423   6.669   1.485  0.2858 -0.0328 -0.6453
  578TIP3    H123293   2.351   6.717   1.526 -0.8781 -2.2397 -0.0223
  578TIP3    H223294   2.419   6.693   1.393  0.1808  1.6126 -0.2205
  579TIP3   OH223295   6.060   1.241   6.687  0.3851 -0.2015  0.3735
  579TIP3    H123296   6.084   1.328   6.717 -1.8960  0.2324  1.0221
  579TIP3    H223297   6.132   1.215   6.629  0.3003  2.7971 -1.1701
  580TIP3   OH223298   3.522   5.909   8.047 -0.0664  0.2624  0.5371
  580TIP3    H123299   3.517   5.896   8.142  1.3463 -0.4473  0.5428
  580TIP3    H223300   3.614   5.930   8.032 -0.1450 -0.2963 -0.7458
  581TIP3   OH223301   2.568   4.065   6.811 -0.2418  0.1825 -0.1135
  581TIP3    H123302   2.551   4.139   6.869 -2.8879  0.3012 -1.0169
  581TIP3    H223303   2.640   4.018   6.853 -0.5752  1.5587  2.0470
  582TIP3   OH223304   1.077   6.212   0.763  0.2308  0.0826  0.2822
  582TIP3    H123305   1.065   6.151   0.691  1.1700 -1.3827  1.3259
  582TIP3    H223306   1.148   6.174   0.815  0.2645  1.6320  1.4114
  583TIP3   OH223307   3.606   2.937   7.354 -0.1458 -0.5707 -0.3491
  583TIP3    H123308   3.522   2.943   7.308 -0.3638 -2.4416 -0.2339
  583TIP3    H223309   3.588   2.883   7.430  1.1435 -0.8767 -0.2518
  584TIP3   OH223310   4.104   2.159   0.229 -1.0936  0.4389 -0.2168
  584TIP3    H123311   4.152   2.233   0.191 -0.2641  0.2804  0.5028
  584TIP3    H223312   4.167   2.088   0.231 -2.0916 -0.5116 -1.5339
  585TIP3   OH223313   3.777   4.493   2.063  0.8532  0.5247 -0.8443
  585TIP3    H123314   3.716   4.426   2.091  1.3618 -0.0902 -1.1996
  585TIP3    H223315   3.736   4.576   2.089 -0.8707  0.2173 -2.4691
  586TIP3   OH223316   4.270   6.403   6.901  0.2197  0.3515 -0.3149
  586TIP3    H123317   4.328   6.451   6.842 -0.6812 -0.1154 -1.6040
  586TIP3    H223318   4.273   6.452   6.983  1.1239  1.2789 -0.8949
  587TIP3   OH223319   4.955   1.255   6.036  0.3319  0.1324  0.6551
  587TIP3    H123320   4.971   1.239   5.943 -0.1020  0.2171  0.5666
  587TIP3    H223321   4.921   1.172   6.069 -0.4538  0.4042  0.5273
  588TIP3   OH223322   3.570   6.667   6.729 -0.5743  0.8349  0.4879
  588TIP3    H123323   3.608   6.599   6.673 -0.7650 -0.7108  2.1784
  588TIP3    H223324   3.630   6.673   6.803 -1.0545  1.8490  0.7991
  589TIP3   OH223325   3.476   6.145   6.472  0.3991 -0.0067 -0.2976
  589TIP3    H123326   3.520   6.196   6.540 -0.2047  1.6839 -1.1455
  589TIP3    H223327   3.387   6.135   6.504 -0.1419  1.5981 -1.2323
  590TIP3   OH223328   0.922   0.683   6.826 -0.4352 -0.5047  0.0049
  590TIP3    H123329   0.877   0.650   6.904  2.0153  1.0337  2.1918
  590TIP3    H223330   0.990   0.617   6.809  1.9365  1.3112  2.0015
  591TIP3   OH223331   2.329   0.131   8.110 -0.4554  0.4134  0.3579
  591TIP3    H123332   2.388   0.142   8.185 -1.7497 -0.1155  1.4731
  591TIP3    H223333   2.385   0.098   8.040  0.3486 -1.2816  1.7696
  592TIP3   OH223334   2.961   4.184   1.228  0.7473 -0.2028  0.5165
  592TIP3    H123335   3.043   4.189   1.277  0.1760 -0.6761  1.5287
  592TIP3    H223336   2.908   4.256   1.262 -0.2943 -1.5491  1.8133
  593TIP3   OH223337   3.109   1.632   7.426  0.2545  0.0058  0.0090
  593TIP3    H123338   3.161   1.599   7.499 -1.2442 -0.4957  0.8595
  593TIP3    H223339   3.157   1.603   7.348  1.3120 -0.3455  0.7801
  594TIP3   OH223340   1.474   0.379   7.505 -0.0035 -0.1963  0.0887
  594TIP3    H123341   1.512   0.347   7.587 -0.0746 -3.3640 -1.0703
  594TIP3    H223342   1.383   0.348   7.506 -0.3147  0.6568 -0.7170
  595TIP3   OH223343   3.295   2.119   6.494 -0.0052  0.1687  0.3478
  595TIP3    H123344   3.371   2.177   6.490 -0.6855  0.9581 -1.3865
  595TIP3    H223345   3.227   2.164   6.445 -1.1422 -1.2311  0.5906
  596TIP3   OH223346   4.526   2.821   7.541  0.3479  0.4358 -0.0172
  596TIP3    H123347   4.596   2.886   7.546  1.6326 -1.0188  1.8167
  596TIP3    H223348   4.447   2.868   7.566  0.7642  1.9358 -1.4314
  597TIP3   OH223349   1.345   3.033   0.422  0.2692 -0.0333  0.8582
  597TIP3    H123350   1.312   2.955   0.377 -0.8983  1.8015 -1.5492
  597TIP3    H223351   1.419   3.001   0.474  0.6635 -2.5177 -1.1422
  598TIP3   OH223352   3.790   6.804   6.941  0.3461  0.1800  0.3240
  598TIP3    H123353   3.789   6.708   6.945  0.9699  0.1987  1.0858
  598TIP3    H223354   3.758   6.831   7.028 -0.3600  0.6629 -0.0842
  599TIP3   OH223355   3.696   3.645   1.556 -0.8443 -0.0064  0.5500
  599TIP3    H123356   3.688   3.599   1.640  0.3326 -1.5697 -0.1693
  599TIP3    H223357   3.790   3.659   1.545 -1.0492  0.8402 -0.1591
  600TIP3   OH223358   2.075   2.667   6.988 -0.0354  0.8024 -0.0977
  600TIP3    H123359   2.007   2.641   6.925 -0.6198  0.2448  0.7590
  600TIP3    H223360   2.026   2.701   7.063  0.6441  0.6183  0.4309
  601TIP3   OH223361   4.307   7.109   6.342 -0.2028 -1.0911 -0.2043
  601TIP3    H123362   4.257   7.076   6.268 -2.2988 -0.3715  0.8524
  601TIP3    H223363   4.334   7.197   6.316 -0.9105 -0.8511 -0.1445
  602TIP3   OH223364   1.030   7.102   6.401 -0.2144  0.0949  0.5715
  602TIP3    H123365   1.063   7.184   6.363 -1.2528  1.0040  1.5755
  602TIP3    H223366   1.014   7.045   6.326  2.0986  0.2015 -0.0362
  603TIP3   OH223367   5.387   1.356   0.850 -0.7587 -0.1206 -0.1898
  603TIP3    H123368   5.449   1.314   0.790 -0.0843 -0.5725  0.8062
  603TIP3    H223369   5.418   1.447   0.856  0.6803 -0.6963  1.4164
  604TIP3   OH223370   1.686   0.817   5.355  0.2971  0.3884 -0.1802
  604TIP3    H123371   1.605   0.766   5.360 -0.9300  2.3113  0.1931
  604TIP3    H223372   1.663   0.901   5.394  3.0580  0.2671  1.8186
  605TIP3   OH223373   6.641   5.227   1.303  0.7817  0.3714  0.5187
  605TIP3    H123374   6.673   5.207   1.215 -0.0138  0.2499  0.2596
  605TIP3    H223375   6.571   5.164   1.318  0.2231  1.0678  0.8447
  606TIP3   OH223376   4.453   0.417   0.464 -0.1052 -0.2665  0.5258
  606TIP3    H123377   4.432   0.349   0.529  0.9814 -0.4993  0.6369
  606TIP3    H223378   4.546   0.404   0.445  0.4553  2.0441  1.5482
  607TIP3   OH223379   4.848   1.777   7.918 -0.3649 -0.1789  0.8754
  607TIP3    H123380   4.916   1.836   7.948 -0.9353  1.2599 -0.5627
  607TIP3    H223381   4.789   1.766   7.993  1.0585 -0.8967  1.9058
  608TIP3   OH223382   1.906   2.507   6.791 -0.4949 -0.0797  0.2150
  608TIP3    H123383   1.922   2.522   6.698  0.5606 -0.8569  0.2594
  608TIP3    H223384   1.883   2.414   6.797 -2.8033  0.4810  0.4535
  609TIP3   OH223385   2.223   6.840   6.095 -0.3874  0.0070  0.1006
  609TIP3    H123386   2.282   6.866   6.025  1.3310  0.3639  1.6359
  609TIP3    H223387   2.178   6.920   6.120  1.1498  0.5019  1.3614
  610TIP3   OH223388   4.744   1.626   6.304  0.1338  0.2339 -0.3296
  610TIP3    H123389   4.825   1.623   6.356  0.0146  0.0767 -0.1481
  610TIP3    H223390   4.773   1.616   6.214  0.3660  0.7674 -0.3127
  611TIP3   OH223391   3.731   6.242   1.680 -0.2079 -0.3135  0.3167
  611TIP3    H123392   3.730   6.322   1.627 -0.3001 -0.8191 -0.4535
  611TIP3    H223393   3.800   6.188   1.641 -1.1768 -1.2476 -0.1140
  612TIP3   OH223394   3.045   5.088   6.124  0.1905 -0.0179  0.3775
  612TIP3    H123395   3.001   5.008   6.095 -2.2930  1.0245  1.1830
  612TIP3    H223396   3.082   5.126   6.045  1.7163 -2.1265  0.0308
  613TIP3   OH223397   2.846   1.566   7.453 -0.1021 -0.2298 -0.2621
  613TIP3    H123398   2.800   1.570   7.369 -0.3791  0.0322 -0.1008
  613TIP3    H223399   2.935   1.596   7.433 -0.3003  0.2896 -0.3751
  614TIP3   OH223400   5.073   0.794   0.249 -0.0735 -0.3118  0.3574
  614TIP3    H123401   5.163   0.825   0.262  0.3922 -0.9529 -1.2286
  614TIP3    H223402   5.081   0.698   0.250 -0.3332 -0.3972 -2.2477
  615TIP3   OH223403   1.895   1.838   6.081 -0.1532 -0.5142  0.6239
  615TIP3    H123404   1.965   1.819   6.019  0.1459 -1.8774  1.3652
  615TIP3    H223405   1.816   1.802   6.040 -0.4301  0.9958 -0.1979
  616TIP3   OH223406   2.148   5.774   5.989 -0.6284  0.1167  0.0835
  616TIP3    H123407   2.079   5.825   6.032 -0.1168  1.2763 -0.4240
  616TIP3    H223408   2.116   5.684   5.990 -2.2933  0.6742 -0.4066
  617TIP3   OH223409   6.269   2.849   0.835  0.0886  0.5233  0.2706
  617TIP3    H123410   6.224   2.867   0.918 -1.4486 -0.9612 -0.2198
  617TIP3    H223411   6.306   2.934   0.810  1.1190  0.8564  2.7830
  618TIP3   OH223412   2.991   7.099   1.413 -0.0899 -0.0707 -0.2062
  618TIP3    H123413   3.029   7.066   1.495 -1.7875 -1.2919  0.1229
  618TIP3    H223414   2.941   7.176   1.440 -0.8614 -0.6242 -0.0445
  619TIP3   OH223415   6.349   5.851   0.758  0.1244  0.2202  0.2066
  619TIP3    H123416   6.389   5.860   0.672  0.1753 -0.3446  0.1686
  619TIP3    H223417   6.261   5.888   0.748 -0.4832 -1.3487 -0.5451
  620TIP3   OH223418   1.438   3.999   0.573  0.4704 -0.2223 -0.7026
  620TIP3    H123419   1.400   3.924   0.528 -0.7168 -0.6950  1.0368
  620TIP3    H223420   1.475   3.962   0.653 -0.0705  1.0372  0.1427
  621TIP3   OH223421   2.217   6.889   1.307  0.8536  0.6497  0.0453
  621TIP3    H123422   2.173   6.835   1.373 -1.6625  1.6367 -0.7400
  621TIP3    H223423   2.204   6.841   1.225  1.6608  0.7332 -0.1333
  622TIP3   OH223424   3.751   1.426   0.060 -0.5309 -0.4954  0.2215
  622TIP3    H123425   3.775   1.333   0.061 -0.2786 -0.4426 -0.4194
  622TIP3    H223426   3.768   1.456   0.149  4.0741  0.1051 -0.7709
  623TIP3   OH223427   0.678   0.844   7.297  0.1674  0.0384  0.0554
  623TIP3    H123428   0.722   0.760   7.285  0.6321  0.2499  0.2494
  623TIP3    H223429   0.674   0.855   7.392 -0.2635  0.0426  0.0353
  624TIP3   OH223430   1.414   2.983   0.033 -0.6843 -0.0109  0.4043
  624TIP3    H123431   1.504   2.964   0.008  0.2171  2.1547  1.7580
  624TIP3    H223432   1.390   2.913   0.094  0.1918 -0.4366  0.2660
  625TIP3   OH223433   5.077   0.011   6.322  0.3328 -0.6932 -0.1270
  625TIP3    H123434   5.131   0.084   6.351  1.2607 -1.2809 -0.3567
  625TIP3    H223435   5.047   0.036   6.235  1.9299 -1.2561 -0.8537
  626TIP3   OH223436   5.396   2.002   7.303  0.2914 -0.3846  0.3478
  626TIP3    H123437   5.308   2.012   7.266 -0.4928 -1.5538  1.8270
  626TIP3    H223438   5.421   1.912   7.282  1.4917  0.1929 -0.7724
  627TIP3   OH223439   4.116   2.461   7.143  0.2826 -0.4606 -0.5743
  627TIP3    H123440   4.112   2.420   7.230 -0.4229  0.3124 -0.2286
  627TIP3    H223441   4.208   2.483   7.131  0.3920 -0.5970 -0.0283
  628TIP3   OH223442   1.562   2.245   6.174  0.1738 -0.3415  0.0037
  628TIP3    H123443   1.645   2.229   6.129  0.6260 -1.0122  1.0535
  628TIP3    H223444   1.523   2.158   6.185 -0.0744 -0.1503  0.6332
  629TIP3   OH223445   5.974   2.132   6.101 -0.2265  0.1912 -0.4893
  629TIP3    H123446   6.002   2.175   6.020  1.3616  1.2981  0.6028
  629TIP3    H223447   6.037   2.061   6.113 -0.9981 -0.5233 -0.6927
  630TIP3   OH223448   1.518   1.143   1.452 -0.5522  0.1507 -0.4082
  630TIP3    H123449   1.523   1.141   1.547  0.5406  2.2288 -0.4051
  630TIP3    H223450   1.569   1.068   1.423  1.0331  0.8391  0.5854
  631TIP3   OH223451   3.537   4.028   7.674  0.1815 -0.4550 -0.1438
  631TIP3    H123452   3.453   3.983   7.665  0.2040 -0.2948 -1.2873
  631TIP3    H223453   3.602   3.964   7.643  0.3911 -0.2705 -0.0873
  632TIP3   OH223454   6.992   6.843   0.017  0.1829  0.4501 -0.1283
  632TIP3    H123455   7.026   6.923  -0.024 -0.7619  1.2084  0.5611
  632TIP3    H223456   7.061   6.817   0.078 -1.0492  2.8330  2.3715
  633TIP3   OH223457   2.939   1.264   7.336  0.3870 -0.1624  0.4865
  633TIP3    H123458   3.007   1.205   7.368  2.2689  1.3235 -0.6918
  633TIP3    H223459   2.923   1.324   7.409  1.9887  0.8753  0.0257
  634TIP3   OH223460   6.866   5.674   6.986  0.0137  0.5878  0.5240
  634TIP3    H123461   6.815   5.647   7.063  1.0591 -1.4264  0.5431
  634TIP3    H223462   6.880   5.768   6.998  0.5308  0.2283  3.0249
  635TIP3   OH223463   3.120   0.532   0.497  0.1093  0.0464 -0.2512
  635TIP3    H123464   3.076   0.448   0.484 -2.2378  1.1413  0.3805
  635TIP3    H223465   3.165   0.549   0.414  1.2923 -2.1970 -0.1044
  636TIP3   OH223466   5.133   3.064   7.792 -0.4460 -0.8187  0.1482
  636TIP3    H123467   5.182   3.146   7.785 -2.2623  0.4081  1.4552
  636TIP3    H223468   5.150   3.019   7.709  2.1197 -0.0230  0.2001
  637TIP3   OH223469   2.193   6.839   6.404  0.0396  0.0401  0.0137
  637TIP3    H123470   2.201   6.747   6.379  0.0100 -0.2708  1.1193
  637TIP3    H223471   2.267   6.882   6.360  1.8845 -1.0576  1.9341
  638TIP3   OH223472   3.005   2.293   6.079 -0.7415  0.2118 -0.6631
  638TIP3    H123473   3.074   2.228   6.083 -0.0354  1.0100  0.6197
  638TIP3    H223474   2.957   2.274   5.999  0.3606 -0.9603 -1.0427
  639TIP3   OH223475   6.852   6.810   6.504  0.1733  0.2800  0.2149
  639TIP3    H123476   6.782   6.764   6.458 -0.8280  1.0703  0.8989
  639TIP3    H223477   6.824   6.902   6.504  1.3363  0.6508  0.2944
  640TIP3   OH223478   2.309   2.579   6.847 -0.6774  0.7443  0.2634
  640TIP3    H123479   2.312   2.486   6.867 -1.8498  0.4486 -0.8915
  640TIP3    H223480   2.375   2.591   6.779 -0.8250  0.6921  0.1134
  641TIP3   OH223481   0.841   1.970   7.249  0.4259  0.0967  0.2111
  641TIP3    H123482   0.875   1.881   7.238 -1.2914 -0.6191  0.6105
  641TIP3    H223483   0.763   1.960   7.303 -0.3840  1.7388 -0.6141
  642TIP3   OH223484   2.958   5.443   0.141 -0.7379 -0.1012 -0.2591
  642TIP3    H123485   3.050   5.465   0.126 -0.6430  0.5569  1.1771
  642TIP3    H223486   2.919   5.443   0.054  0.5936 -0.2791 -0.8755
  643TIP3   OH223487   3.158   0.129   5.729 -0.0772 -0.2527 -0.3937
  643TIP3    H123488   3.250   0.143   5.750 -0.5702  1.3040  0.8383
  643TIP3    H223489   3.159   0.085   5.644  1.8337 -1.6696  0.3298
  644TIP3   OH223490   4.607   1.431   1.362 -0.3419  0.3514 -0.3649
  644TIP3    H123491   4.663   1.366   1.404 -0.7551 -0.2816 -0.7841
  644TIP3    H223492   4.580   1.390   1.280 -3.1634 -0.2653  0.8096
  645TIP3   OH223493   6.672   2.083   6.500  0.5352 -0.4319  0.3388
  645TIP3    H123494   6.621   2.022   6.447 -0.3078  2.0997 -1.8955
  645TIP3    H223495   6.759   2.044   6.504  0.1216 -1.6127 -1.3900
  646TIP3   OH223496   4.250   1.915   7.617  1.1108  0.2239  0.2926
  646TIP3    H123497   4.279   2.006   7.630  3.3947 -0.8016  2.8767
  646TIP3    H223498   4.331   1.866   7.604 -0.0219 -1.6304  0.0508
  647TIP3   OH223499   1.840   6.284   1.743 -0.4756  0.0041 -0.1059
  647TIP3    H123500   1.854   6.221   1.814  2.3944 -0.2432 -0.8368
  647TIP3    H223501   1.852   6.370   1.785 -1.0890 -0.0531  0.1912
  648TIP3   OH223502   4.619   2.596   7.674  0.1620 -0.0281 -0.1891
  648TIP3    H123503   4.681   2.647   7.725  1.9410 -1.2660 -1.0787
  648TIP3    H223504   4.576   2.661   7.617  1.3279  0.6970 -0.2555
  649TIP3   OH223505   0.737   0.335   0.797  0.4010  0.1566 -0.1288
  649TIP3    H123506   0.708   0.392   0.868  0.2960  0.5070 -0.4515
  649TIP3    H223507   0.809   0.285   0.835 -0.2056 -0.2664  0.4854
  650TIP3   OH223508   6.339   1.338   7.303 -0.4086  0.3552  0.0713
  650TIP3    H123509   6.248   1.349   7.329 -0.3210 -1.0175  1.0041
  650TIP3    H223510   6.388   1.396   7.360 -0.7246  1.4321 -0.7306
  651TIP3   OH223511   5.746   5.156   0.850  0.0261  0.4173 -0.1649
  651TIP3    H123512   5.841   5.152   0.837  0.1263  0.9727  0.3449
  651TIP3    H223513   5.720   5.065   0.865  0.5057  0.2831 -0.1260
  652TIP3   OH223514   7.104   6.299   1.740  0.5000 -0.2867  0.3723
  652TIP3    H123515   7.125   6.233   1.805 -5.3501 -1.6491  1.1480
  652TIP3    H223516   7.104   6.252   1.656 -0.1432 -0.4439  0.4609
  653TIP3   OH223517   4.380   0.324   5.904 -0.2642  0.5593 -0.6869
  653TIP3    H123518   4.443   0.330   5.832  0.7459  1.1300  0.2418
  653TIP3    H223519   4.425   0.363   5.979 -1.9251  1.4605 -0.1443
  654TIP3   OH223520   4.398   2.462   7.125  0.2259  0.2542 -0.5055
  654TIP3    H123521   4.474   2.479   7.070  0.7559 -2.4901 -0.6849
  654TIP3    H223522   4.430   2.472   7.215 -0.2896  3.3209 -0.6295
  655TIP3   OH223523   4.535   4.149   6.812 -0.0695 -0.5522  0.1676
  655TIP3    H123524   4.612   4.095   6.826 -0.0389 -0.1230  1.7345
  655TIP3    H223525   4.485   4.143   6.894 -1.0262  0.2391 -0.3379
  656TIP3   OH223526   3.892   2.655   6.319  0.3460 -0.0383 -0.1310
  656TIP3    H123527   3.893   2.634   6.225  2.5114  1.5547 -0.5127
  656TIP3    H223528   3.806   2.694   6.333  1.0029  2.2848 -2.1128
  657TIP3   OH223529   2.557   3.446   5.868 -0.0518 -0.3403  0.4306
  657TIP3    H123530   2.495   3.489   5.810  3.4698  2.3495 -1.5797
  657TIP3    H223531   2.573   3.509   5.938 -1.2605 -1.9619  2.2257
  658TIP3   OH223532   3.400   5.571   0.314 -0.0155  0.3614  0.6713
  658TIP3    H123533   3.435   5.496   0.266  1.0382  0.9227  0.5338
  658TIP3    H223534   3.439   5.648   0.272  0.6917  0.8755  2.1927
  659TIP3   OH223535   2.667   2.157   7.815  0.1347 -0.0736  0.1076
  659TIP3    H123536   2.621   2.139   7.733 -1.2830  0.5030  0.7469
  659TIP3    H223537   2.722   2.233   7.796 -1.4126  1.0818  0.1002
  660TIP3   OH223538   4.372   0.393   6.747  0.5937 -0.3875  0.6153
  660TIP3    H123539   4.451   0.447   6.745 -0.2234  0.8075 -1.0443
  660TIP3    H223540   4.303   0.450   6.712 -0.8742 -1.6185  1.4229
  661TIP3   OH223541   6.335   5.934   7.287  0.3637  0.1875 -0.1673
  661TIP3    H123542   6.318   5.950   7.380  0.7750 -0.1895 -0.0296
  661TIP3    H223543   6.371   5.845   7.284  0.8249  0.3917 -0.6343
  662TIP3   OH223544   3.954   0.449   5.585  0.1453 -0.6596  0.4094
  662TIP3    H123545   3.935   0.541   5.567 -0.8543 -0.8718  0.3657
  662TIP3    H223546   4.012   0.451   5.661 -0.6870 -0.0284  1.0488
  663TIP3   OH223547   4.108   4.203   1.816 -0.0131 -0.0969 -0.5674
  663TIP3    H123548   4.100   4.271   1.883 -1.1757 -0.1908 -0.5951
  663TIP3    H223549   4.138   4.249   1.738 -1.5893  0.5477 -0.8183
  664TIP3   OH223550   1.796   1.208   5.588  0.2327 -0.8258 -0.5710
  664TIP3    H123551   1.883   1.224   5.624 -0.0020 -0.2377 -0.2656
  664TIP3    H223552   1.736   1.218   5.662 -0.2738  0.6691 -1.1728
  665TIP3   OH223553   1.917   2.002   5.775  0.4564 -0.3211 -0.1024
  665TIP3    H123554   1.972   1.928   5.802  1.2839  0.1739 -0.4285
  665TIP3    H223555   1.919   1.999   5.680 -1.1950 -1.1193 -0.1338
  666TIP3   OH223556   6.266   3.739   1.526  0.1284  0.5364 -0.1644
  666TIP3    H123557   6.348   3.785   1.541 -0.3654  1.6590 -0.8521
  666TIP3    H223558   6.252   3.745   1.431 -1.3261  1.3813  0.0875
  667TIP3   OH223559   0.934   4.454   6.471 -0.4441  0.0248 -0.1748
  667TIP3    H123560   1.011   4.452   6.527  0.5080 -0.0604 -1.4659
  667TIP3    H223561   0.917   4.548   6.458  1.1380  0.0464 -2.1718
  668TIP3   OH223562   3.785   2.474   7.211  0.0397 -0.1504 -0.4140
  668TIP3    H123563   3.833   2.395   7.234  0.5008  0.6404  1.4522
  668TIP3    H223564   3.851   2.543   7.212 -0.2591  0.1981 -2.5369
  669TIP3   OH223565   3.263   3.913   7.655 -0.0256 -0.4903  0.1147
  669TIP3    H123566   3.205   3.897   7.581  0.2968 -0.2720 -0.1891
  669TIP3    H223567   3.312   3.831   7.665  0.6725 -0.1651 -0.5840
  670TIP3   OH223568   4.416   3.889   7.352  0.0833  0.8967  0.6018
  670TIP3    H123569   4.486   3.828   7.331  0.8865  2.0198 -0.0600
  670TIP3    H223570   4.363   3.893   7.272  0.3811  1.5122  0.4321
  671TIP3   OH223571   0.230   5.260   1.727 -0.0946  1.0718 -0.1916
  671TIP3    H123572   0.284   5.289   1.801  1.2427  0.7217 -1.0138
  671TIP3    H223573   0.293   5.234   1.660 -1.2959  1.6299 -1.5658
  672TIP3   OH223574   2.595   2.162   6.567 -0.0332 -0.2744 -0.4198
  672TIP3    H123575   2.522   2.141   6.509 -0.9277  1.3276  0.1016
  672TIP3    H223576   2.640   2.234   6.524 -0.5322  0.7294  0.6929
  673TIP3   OH223577   3.191   0.703   6.358 -0.3689  0.1367  0.1476
  673TIP3    H123578   3.215   0.633   6.298  2.9685  0.2686  1.2234
  673TIP3    H223579   3.132   0.662   6.422 -1.3328 -0.7688 -1.3104
  674TIP3   OH223580   3.300   1.238   6.036 -0.2667 -0.0410 -0.0507
  674TIP3    H123581   3.263   1.284   6.111 -0.3117 -1.0061  0.5294
  674TIP3    H223582   3.235   1.250   5.967 -0.7195 -0.0257  0.3697
  675TIP3   OH223583   3.595   5.752   1.615  0.3628  0.5797 -0.0506
  675TIP3    H123584   3.609   5.685   1.682  1.0105  0.2972 -0.4695
  675TIP3    H223585   3.599   5.705   1.532 -2.5411  0.5517 -0.2395
  676TIP3   OH223586   3.354   4.990   6.021 -0.3135 -0.3958 -0.0973
  676TIP3    H123587   3.291   5.055   5.988 -0.6201  0.4366  2.0863
  676TIP3    H223588   3.299   4.916   6.048 -0.2940 -0.0319  0.9594
  677TIP3   OH223589   2.882   0.851   7.579  0.4660 -0.0580  0.0346
  677TIP3    H123590   2.892   0.946   7.586 -0.0914  0.0278 -0.2844
  677TIP3    H223591   2.840   0.826   7.661 -1.2845  0.2532 -0.7470
  678TIP3   OH223592   3.867   4.998   0.375  0.2462  0.2276  0.1370
  678TIP3    H123593   3.896   4.993   0.284  3.4647  1.0950  1.0620
  678TIP3    H223594   3.948   4.998   0.426 -1.4516  1.6615  2.9224
  679TIP3   OH223595   0.669   0.300   7.403 -0.1332 -0.2607  0.3006
  679TIP3    H123596   0.695   0.310   7.494  1.0165 -0.8798  0.0469
  679TIP3    H223597   0.707   0.216   7.376 -0.7817 -0.2604 -0.6336
  680TIP3   OH223598   5.361   6.848   6.923 -0.1534  0.3863 -0.4577
  680TIP3    H123599   5.332   6.938   6.905 -0.3693  0.2155 -0.9668
  680TIP3    H223600   5.405   6.820   6.843  0.5799  0.2998 -0.0287
  681TIP3   OH223601   3.003   2.529   0.370 -0.1834 -0.3477  0.2127
  681TIP3    H123602   2.950   2.558   0.444  0.6732 -0.6873  0.9839
  681TIP3    H223603   2.943   2.480   0.314 -0.5219 -1.4395  1.4921
  682TIP3   OH223604   3.335   6.460   6.449  0.3044 -0.2065  0.7426
  682TIP3    H123605   3.300   6.542   6.484 -0.5508 -0.3501  0.2170
  682TIP3    H223606   3.307   6.393   6.510 -1.0224 -0.4297 -0.1039
  683TIP3   OH223607   3.698   4.628   1.803 -0.0318 -0.5416  0.4685
  683TIP3    H123608   3.635   4.693   1.833  0.0363 -0.7670  1.1108
  683TIP3    H223609   3.736   4.593   1.883 -0.8758 -2.1692  0.1897
  684TIP3   OH223610   2.773   0.337   6.598  0.2423 -0.1827  0.4087
  684TIP3    H123611   2.681   0.318   6.614 -0.7994  3.2967 -1.0105
  684TIP3    H223612   2.793   0.295   6.514  0.4462 -2.3246  1.5047
  685TIP3   OH223613   3.730   4.024   7.879  0.0970  0.3897  1.1096
  685TIP3    H123614   3.782   4.011   7.800 -0.7457 -3.2314  1.0553
  685TIP3    H223615   3.639   4.019   7.850 -0.2480  1.7872  1.9117
  686TIP3   OH223616   5.337   4.072   6.851  0.0337 -0.3711 -0.1812
  686TIP3    H123617   5.393   3.997   6.874 -0.3417  0.2718  3.1162
  686TIP3    H223618   5.248   4.040   6.862 -0.1313  0.4665  0.9561
  687TIP3   OH223619   4.037   1.415   5.862 -0.7023  0.6471 -0.2501
  687TIP3    H123620   3.985   1.370   5.929 -2.3840  1.0424 -1.2922
  687TIP3    H223621   4.003   1.504   5.861  1.9408  1.7288  1.0787
  688TIP3   OH223622   2.151   6.648   7.218  0.5516  0.2238  0.4157
  688TIP3    H123623   2.192   6.698   7.288 -1.7023  1.3097  1.0129
  688TIP3    H223624   2.144   6.710   7.145  0.5175 -0.1283  0.1159
  689TIP3   OH223625   1.779   2.028   7.623 -0.3678  0.0817 -0.1260
  689TIP3    H123626   1.814   2.019   7.711  0.1722  3.4022  0.0821
  689TIP3    H223627   1.693   2.068   7.635 -0.6451 -0.2073 -1.0575
  690TIP3   OH223628   1.402   2.834   7.432  0.6165 -0.1924 -0.6426
  690TIP3    H123629   1.484   2.821   7.480 -0.2078 -0.4829  0.7238
  690TIP3    H223630   1.379   2.747   7.400  0.0087 -0.3957  0.3523
  691TIP3   OH223631   2.130   6.363   7.301  0.0799  0.4588 -0.3730
  691TIP3    H123632   2.202   6.363   7.364 -1.7405  1.8858  1.7545
  691TIP3    H223633   2.120   6.455   7.276 -2.8366  0.7031  1.5289
  692TIP3   OH223634   5.164   1.379   1.108 -0.3587 -0.0494 -0.4572
  692TIP3    H123635   5.214   1.352   1.031 -0.1943  0.2763 -0.4652
  692TIP3    H223636   5.094   1.315   1.115 -1.4086  0.9013 -1.9042
  693TIP3   OH223637   4.547   6.054   5.813  0.5939 -0.2795 -0.0391
  693TIP3    H123638   4.576   5.964   5.794 -0.6977 -0.9638  1.0832
  693TIP3    H223639   4.466   6.042   5.863 -0.5868  1.5478 -1.4658
  694TIP3   OH223640   7.108   2.460   0.246  0.1920 -0.4051 -0.4152
  694TIP3    H123641   7.146   2.433   0.329  2.3063 -0.9605 -1.5072
  694TIP3    H223642   7.145   2.399   0.182 -1.5499 -0.1058 -1.7320
  695TIP3   OH223643   4.630   2.914   0.945 -0.3000 -0.1463  0.5954
  695TIP3    H123644   4.676   2.917   0.861 -0.9755  1.5455  0.2519
  695TIP3    H223645   4.569   2.988   0.941 -1.2714 -0.8433  2.0504
  696TIP3   OH223646   5.433   1.504   6.662 -0.2497 -0.5540 -0.4498
  696TIP3    H123647   5.418   1.409   6.655 -0.3362 -0.7376  1.7662
  696TIP3    H223648   5.481   1.514   6.745 -1.7708  1.5121  0.2159
  697TIP3   OH223649   1.895   2.760   7.761 -0.3131 -0.2316 -0.4130
  697TIP3    H123650   1.903   2.845   7.803 -1.3226  0.1321 -0.9399
  697TIP3    H223651   1.961   2.706   7.803  0.3359  0.8145 -0.0752
  698TIP3   OH223652   4.782   5.248   1.415  0.0182  0.5379  0.2741
  698TIP3    H123653   4.799   5.342   1.409  1.1658  0.2427 -1.3657
  698TIP3    H223654   4.686   5.241   1.410 -0.1509  1.6817  1.6367
  699TIP3   OH223655   4.767   3.176   1.125  0.3684  0.2315 -0.3763
  699TIP3    H123656   4.677   3.209   1.128 -0.0819 -1.0612  0.5730
  699TIP3    H223657   4.777   3.127   1.206  1.8014  0.0057 -0.6833
  700TIP3   OH223658   4.276   6.617   0.926 -0.3374 -0.2850 -0.0801
  700TIP3    H123659   4.299   6.617   0.833 -1.0860  0.1653 -0.2736
  700TIP3    H223660   4.349   6.573   0.969 -0.1562 -0.8275 -0.9240
  701TIP3   OH223661   6.207   6.832   7.518  0.1009 -0.1851  0.0543
  701TIP3    H123662   6.247   6.918   7.528  1.6030 -0.9246  0.7158
  701TIP3    H223663   6.173   6.831   7.428  0.5387  0.8986 -0.1268
  702TIP3   OH223664   1.805   1.132   8.048  0.5527 -0.1503  0.0352
  702TIP3    H123665   1.893   1.148   8.083  0.0228 -1.2932  1.9920
  702TIP3    H223666   1.768   1.064   8.106 -1.7638  0.6156 -0.4819
  703TIP3   OH223667   1.400   6.101   5.931  0.2276 -0.5948  0.4054
  703TIP3    H123668   1.358   6.019   5.957  2.1672 -0.8852  2.7252
  703TIP3    H223669   1.409   6.094   5.836 -3.8851 -0.9786 -0.0576
  704TIP3   OH223670   4.623   5.772   6.418  0.4654  0.0745 -0.2179
  704TIP3    H123671   4.643   5.679   6.413  0.3461 -0.0579  1.4131
  704TIP3    H223672   4.581   5.792   6.335 -0.9346 -1.6705  0.0498
  705TIP3   OH223673   3.306   2.727   7.786  0.2259 -0.4011  0.0938
  705TIP3    H123674   3.339   2.776   7.710  0.2412  0.1415  0.4490
  705TIP3    H223675   3.370   2.742   7.854 -0.6791  0.5621  0.7535
  706TIP3   OH223676   4.285   0.744   7.293 -0.5304 -0.4935  0.0176
  706TIP3    H123677   4.200   0.703   7.310 -0.8654  0.1996  0.0225
  706TIP3    H223678   4.349   0.676   7.315 -1.1091 -1.4696 -1.2910
  707TIP3   OH223679   0.776   0.486   0.098  0.7848 -0.0297  0.1418
  707TIP3    H123680   0.822   0.514   0.177  2.0076  0.6263 -0.8035
  707TIP3    H223681   0.813   0.539   0.028 -0.1400 -0.7651 -0.9156
  708TIP3   OH223682   3.091   0.003   5.491  0.2993 -0.1994 -0.0744
  708TIP3    H123683   3.001   0.035   5.496  0.3766 -0.1459  1.3017
  708TIP3    H223684   3.083  -0.086   5.458 -0.3402 -0.4626  0.7609
  709TIP3   OH223685   2.893   0.059   5.756 -0.5256  0.1811 -0.4013
  709TIP3    H123686   2.849   0.090   5.677  0.5024 -0.4757 -1.2596
  709TIP3    H223687   2.974   0.109   5.760 -0.9931  0.8559  0.7514
  710TIP3   OH223688   0.320   0.972   6.796 -0.6199  0.0532  0.2116
  710TIP3    H123689   0.301   0.947   6.887  1.2193 -1.1850  0.2813
  710TIP3    H223690   0.344   0.890   6.754 -1.0282  0.6995 -1.2932
  711TIP3   OH223691   3.510   5.107   7.042  0.3491 -0.2683 -0.0231
  711TIP3    H123692   3.443   5.061   6.993  1.0951 -0.0889 -1.2168
  711TIP3    H223693   3.559   5.037   7.086 -1.1898 -0.3472  1.6255
  712TIP3   OH223694   4.687   0.443   1.688 -0.2907  0.3755  0.6954
  712TIP3    H123695   4.687   0.521   1.632  1.4499  1.6700  2.4545
  712TIP3    H223696   4.655   0.474   1.772 -0.4594 -1.0307  1.1665
  713TIP3   OH223697   4.199   2.861   7.815 -0.0729  0.1766 -0.5391
  713TIP3    H123698   4.145   2.857   7.894 -2.1095  2.0177 -1.7970
  713TIP3    H223699   4.150   2.809   7.750  0.2220  0.9064 -1.3520
  714TIP3   OH223700   5.128   0.392   1.053 -0.3671 -0.1636 -0.3173
  714TIP3    H123701   5.173   0.477   1.050  0.2759 -0.3972  1.6980
  714TIP3    H223702   5.091   0.388   1.142 -2.1919 -1.0975 -1.0857
  715TIP3   OH223703   1.787   5.617   6.436 -0.0189 -0.2504 -0.3473
  715TIP3    H123704   1.721   5.685   6.420 -0.9531 -0.9295  0.6268
  715TIP3    H223705   1.752   5.565   6.508  2.2493  0.2569  1.1697
  716TIP3   OH223706   0.270   6.796   1.436  0.4044  0.0878 -0.2362
  716TIP3    H123707   0.245   6.884   1.408  0.6566  0.2124 -0.0623
  716TIP3    H223708   0.209   6.738   1.389 -0.2250  0.3975  0.1927
  717TIP3   OH223709   0.159   0.699   6.275 -0.9261  0.1058  0.0596
  717TIP3    H123710   0.113   0.616   6.277  0.2117 -0.6583 -2.5718
  717TIP3    H223711   0.251   0.676   6.286 -0.6515  1.0573 -0.1489
  718TIP3   OH223712   4.744   1.973   6.378 -0.2879  0.1048  0.1719
  718TIP3    H123713   4.765   1.936   6.463 -1.7025  3.1552  1.9568
  718TIP3    H223714   4.782   2.061   6.381 -0.1769  0.1771 -2.4381
  719TIP3   OH223715   6.877   1.789   7.197  0.1680  0.5443  0.5623
  719TIP3    H123716   6.864   1.703   7.236 -0.5175  0.3880  0.0006
  719TIP3    H223717   6.814   1.793   7.125  0.3075  1.4477  0.4781
  720TIP3   OH223718   5.209   2.210   6.599  0.2962 -0.1048 -0.1768
  720TIP3    H123719   5.211   2.194   6.505 -1.7199  0.9555 -0.4306
  720TIP3    H223720   5.150   2.285   6.609  1.1411  0.3236  1.8573
  721TIP3   OH223721   4.868   4.631   6.836 -1.4821  0.1065 -0.3696
  721TIP3    H123722   4.871   4.579   6.756 -1.5503  0.8242 -0.8485
  721TIP3    H223723   4.892   4.570   6.906  0.7139 -0.0107 -1.1947
  722TIP3   OH223724   3.208   6.543   7.850  0.2096 -0.2168 -0.1202
  722TIP3    H123725   3.221   6.632   7.820 -2.4457  0.4410  0.5413
  722TIP3    H223726   3.120   6.520   7.820  0.3594 -2.1306  0.8182
  723TIP3   OH223727   5.825   5.221   5.601 -0.5383  0.6776  0.5685
  723TIP3    H123728   5.870   5.199   5.682  0.9054 -0.8342 -0.6221
  723TIP3    H223729   5.869   5.299   5.569 -0.3842  0.6375  0.6816
  724TIP3   OH223730   4.104   0.264   6.535 -0.1923  0.2454 -0.6325
  724TIP3    H123731   4.117   0.357   6.516 -2.9144  0.8989  0.3887
  724TIP3    H223732   4.061   0.264   6.621  0.4402 -1.9941 -0.3020
  725TIP3   OH223733   1.425   0.636   7.902  0.2650  0.0824  0.4066
  725TIP3    H123734   1.513   0.657   7.932 -0.2539  2.7270  0.2081
  725TIP3    H223735   1.427   0.650   7.808 -0.5669  1.0548  0.5175
  726TIP3   OH223736   5.612   6.646   5.690 -0.1743 -0.5556  0.1704
  726TIP3    H123737   5.694   6.630   5.644 -0.8710 -1.4459 -0.7867
  726TIP3    H223738   5.550   6.584   5.652 -1.2479 -0.0287  1.0101
  727TIP3   OH223739   4.054   6.271   7.790  0.1364  0.3328  0.2797
  727TIP3    H123740   4.111   6.290   7.864  1.0202 -0.5239 -0.1666
  727TIP3    H223741   4.101   6.307   7.714 -0.0137 -0.1780 -0.0602
  728TIP3   OH223742   6.473   1.007   6.692  0.1834 -0.1119  0.0465
  728TIP3    H123743   6.484   1.101   6.700  0.8926 -0.3929  2.8408
  728TIP3    H223744   6.513   0.971   6.771  0.6652 -2.8201 -1.3651
  729TIP3   OH223745   4.995   6.432   6.530 -0.2439  0.2659  0.1195
  729TIP3    H123746   5.036   6.427   6.443  3.1681  2.3197  1.5118
  729TIP3    H223747   4.980   6.526   6.544  0.0011  0.0382  2.0477
  730TIP3   OH223748   4.687   0.427   6.636  0.5134  0.1892  0.5343
  730TIP3    H123749   4.667   0.425   6.542 -0.8958 -0.4503  0.8209
  730TIP3    H223750   4.731   0.510   6.650 -0.3788  0.8523 -0.4893
  731TIP3   OH223751   0.354   5.802   7.390 -0.0258 -0.6815  0.2494
  731TIP3    H123752   0.261   5.819   7.401  0.2945  0.4001  1.2615
  731TIP3    H223753   0.387   5.786   7.479  1.2354  1.4037  0.1781
  732TIP3   OH223754   5.992   2.166   0.003  0.3728  0.0968  0.2441
  732TIP3    H123755   5.898   2.185   0.007  0.2873 -0.3666  0.5846
  732TIP3    H223756   6.018   2.155   0.095  0.7962  0.4128  0.1612
  733TIP3   OH223757   5.768   2.295   7.448  0.1994 -0.1089 -0.0983
  733TIP3    H123758   5.680   2.260   7.463 -0.0641 -0.5947 -2.5906
  733TIP3    H223759   5.806   2.301   7.535 -1.8634 -1.0661  0.9098
  734TIP3   OH223760   3.472   1.409   7.812  0.1703 -0.0364 -0.8520
  734TIP3    H123761   3.516   1.492   7.834  0.9850 -0.8677  0.7064
  734TIP3    H223762   3.381   1.422   7.840  0.2131  0.4461 -0.9305
  735TIP3   OH223763   3.002   0.193   1.662  0.3899  0.5606 -0.5568
  735TIP3    H123764   3.080   0.145   1.691  1.6747  2.0628 -1.5032
  735TIP3    H223765   2.934   0.166   1.724  0.8058 -3.2117 -1.5977
  736TIP3   OH223766   6.127   6.686   5.796  0.5889 -0.5111  0.2517
  736TIP3    H123767   6.153   6.622   5.862  1.9517  0.1893  0.4060
  736TIP3    H223768   6.188   6.672   5.724 -0.1186 -0.4428 -0.3738
  737TIP3   OH223769   4.329   2.457   6.542  0.1713  0.4955 -0.5125
  737TIP3    H123770   4.281   2.406   6.607 -0.5547 -1.1194 -2.2461
  737TIP3    H223771   4.265   2.474   6.473  1.1724  1.3651 -1.2519
  738TIP3   OH223772   4.332   1.397   6.959  0.7013  0.6056 -0.2929
  738TIP3    H123773   4.394   1.393   6.886 -0.4188 -1.2803 -1.1762
  738TIP3    H223774   4.341   1.312   7.002  0.3015  1.1607  0.9114
  739TIP3   OH223775   4.178   3.216   6.565  0.1337  0.2638 -0.5626
  739TIP3    H123776   4.173   3.277   6.491  0.9377  1.4939  0.3746
  739TIP3    H223777   4.259   3.239   6.610  0.0890 -1.0467  0.2064
  740TIP3   OH223778   3.538   6.762   6.365 -0.8432 -0.6276 -0.2710
  740TIP3    H123779   3.621   6.732   6.403 -1.4091 -1.8884 -0.0010
  740TIP3    H223780   3.538   6.727   6.276 -1.1166 -0.6964 -0.2449
  741TIP3   OH223781   4.301   6.965   5.778  0.0623  0.3917  0.0580
  741TIP3    H123782   4.280   6.872   5.771 -1.6649  0.9181 -2.6298
  741TIP3    H223783   4.223   7.004   5.818  0.3257  0.8122  0.1626
  742TIP3   OH223784   4.888   0.474   5.804 -0.0950 -0.5158  0.0515
  742TIP3    H123785   4.796   0.502   5.812 -0.2000  0.0395 -2.5756
  742TIP3    H223786   4.924   0.531   5.736  2.5162 -0.0300  1.8043
  743TIP3   OH223787   4.699   3.698   7.855 -0.2630 -0.1409 -0.2344
  743TIP3    H123788   4.604   3.695   7.842 -0.2820  0.2524 -0.1922
  743TIP3    H223789   4.729   3.769   7.798 -0.0635  0.0963  0.1648
  744TIP3   OH223790   5.802   2.326   0.537  0.4414  0.1002 -0.1547
  744TIP3    H123791   5.820   2.334   0.630  0.4616  1.8826 -0.2806
  744TIP3    H223792   5.886   2.304   0.497  0.8611  1.2698  0.0537
  745TIP3   OH223793   3.995   6.638   7.806 -0.1561 -0.7523 -0.0798
  745TIP3    H123794   4.084   6.604   7.799  0.6645  1.7288 -2.2254
  745TIP3    H223795   4.000   6.704   7.875  0.4908  1.7688 -2.4720
  746TIP3   OH223796   5.058   3.075   6.485  0.5504  0.2544 -0.4026
  746TIP3    H123797   5.004   3.139   6.440  1.2855  3.1422  2.5778
  746TIP3    H223798   5.131   3.059   6.426  0.2397  2.0595 -1.3016
  747TIP3   OH223799   3.859   5.674   2.099  0.3614 -0.2273  0.4389
  747TIP3    H123800   3.948   5.651   2.126  0.8003 -0.4132 -1.0801
  747TIP3    H223801   3.832   5.603   2.041  0.2578  1.1102 -1.2204
  748TIP3   OH223802   1.068   6.925   1.469  0.4368  0.2768 -0.2029
  748TIP3    H123803   1.000   6.992   1.475  1.5440  1.4248 -0.2010
  748TIP3    H223804   1.056   6.872   1.548 -0.0472  0.8655  0.1292
  749TIP3   OH223805   3.355   0.257   0.551 -0.3312 -0.0689 -0.0341
  749TIP3    H123806   3.266   0.236   0.524 -0.5400 -1.0303  1.3276
  749TIP3    H223807   3.353   0.250   0.647  1.0190  0.6486  0.0563
  750TIP3   OH223808   6.327   2.197   1.244  0.4309 -0.3616  0.4877
  750TIP3    H123809   6.256   2.261   1.239  0.9974  0.3498  1.1991
  750TIP3    H223810   6.405   2.247   1.220  1.0733 -0.4258  2.3747
  751TIP3   OH223811   5.310   4.639   1.327  0.4747  0.1744 -0.5017
  751TIP3    H123812   5.383   4.577   1.324  0.0102 -0.3382 -1.5477
  751TIP3    H223813   5.351   4.724   1.345  1.2273 -0.2612 -0.1412
  752TIP3   OH223814   5.175   3.010   6.152 -0.0783 -0.1227  0.1977
  752TIP3    H123815   5.088   3.048   6.144 -0.4256 -0.8822  0.2673
  752TIP3    H223816   5.218   3.031   6.069 -0.4461 -0.0374  0.0247
  753TIP3   OH223817   3.227   1.599   7.675 -0.3371 -0.2315  0.0089
  753TIP3    H123818   3.171   1.553   7.738 -0.7003 -0.2026 -0.2932
  753TIP3    H223819   3.255   1.678   7.722  0.9621 -1.1510  0.8323
  754TIP3   OH223820   3.885   2.964   1.448  0.3068 -0.4734 -0.2273
  754TIP3    H123821   3.820   3.026   1.416 -0.2275 -2.4218 -3.1027
  754TIP3    H223822   3.950   3.018   1.494 -1.0497  1.9645 -1.1079
  755TIP3   OH223823   2.598   4.639   6.948 -0.2154  0.1935 -0.1685
  755TIP3    H123824   2.581   4.567   6.887  0.5966  0.6159 -0.9193
  755TIP3    H223825   2.580   4.718   6.897  1.3825  0.5735 -0.1754
  756TIP3   OH223826   5.999   5.414   7.080  0.0199  0.2035 -0.6405
  756TIP3    H123827   5.904   5.402   7.078  0.0606 -0.0039 -1.2716
  756TIP3    H223828   6.033   5.329   7.108  0.1135 -0.2204 -2.0001
  757TIP3   OH223829   4.716   3.171   1.712  0.4735 -0.8784 -0.1307
  757TIP3    H123830   4.753   3.162   1.800  1.2170 -0.3971 -0.3909
  757TIP3    H223831   4.658   3.095   1.702 -0.0135 -0.6611  0.9662
  758TIP3   OH223832   6.068   6.454   0.758  0.4013  0.3503 -0.0221
  758TIP3    H123833   6.112   6.441   0.674 -1.4339 -0.8435 -0.8338
  758TIP3    H223834   5.994   6.511   0.737  1.4671  2.2835  1.3133
  759TIP3   OH223835   1.338   3.147   6.534  0.2694  0.1816  0.7353
  759TIP3    H123836   1.263   3.174   6.480  0.5044 -1.1943 -0.3152
  759TIP3    H223837   1.300   3.088   6.599  0.4711 -0.7925 -0.0132
  760TIP3   OH223838   2.980   7.017   6.493  0.7143  0.2343  0.1378
  760TIP3    H123839   2.968   6.922   6.484 -0.0283  0.4239 -0.9145
  760TIP3    H223840   2.936   7.054   6.417  3.1199  1.2996 -0.7974
  761TIP3   OH223841   3.101   3.821   0.351 -0.3142  0.2023 -0.8406
  761TIP3    H123842   3.118   3.890   0.415 -1.3190 -0.2012 -0.1121
  761TIP3    H223843   3.186   3.801   0.313  0.1583  1.0421 -0.2348
  762TIP3   OH223844   6.085   6.436   6.877  0.4021 -0.4719  0.0691
  762TIP3    H123845   6.130   6.352   6.881 -0.0751 -0.6967  0.8783
  762TIP3    H223846   6.086   6.468   6.967  0.3922  0.2846 -0.2020
  763TIP3   OH223847   2.811   6.971   7.941 -0.0943  0.1061 -0.1439
  763TIP3    H123848   2.811   7.063   7.968 -0.8661  0.0602  0.0353
  763TIP3    H223849   2.826   6.974   7.846 -0.5137  0.4383 -0.1999
  764TIP3   OH223850   2.487   6.536   6.947  0.3830 -0.0067  0.4540
  764TIP3    H123851   2.522   6.450   6.926 -0.7296 -0.1676 -0.8279
  764TIP3    H223852   2.397   6.520   6.975  0.4946  0.6433  1.2252
  765TIP3   OH223853   6.968   4.520   7.309  0.1169  0.4952 -0.1362
  765TIP3    H123854   6.949   4.430   7.283  0.5028  0.9498 -2.0358
  765TIP3    H223855   6.893   4.546   7.363 -1.7595  0.2464 -2.5641
  766TIP3   OH223856   5.666   6.615   6.365 -0.4047  0.0399  0.2415
  766TIP3    H123857   5.686   6.522   6.374 -0.3123  0.1638  1.3932
  766TIP3    H223858   5.573   6.617   6.341 -0.4827 -0.3349  0.5141
  767TIP3   OH223859   5.118   4.708   6.646  0.2150 -0.7293 -0.3694
  767TIP3    H123860   5.117   4.645   6.718  0.2589  0.5561  0.7610
  767TIP3    H223861   5.026   4.733   6.634  0.0341 -1.9354 -1.6571
  768TIP3   OH223862   3.743   0.348   5.441  0.0087 -0.6833 -0.0627
  768TIP3    H123863   3.764   0.408   5.370 -1.0840  0.0026  0.1799
  768TIP3    H223864   3.813   0.360   5.505 -0.1933  0.3114 -0.0292
  769TIP3   OH223865   3.269   1.547   7.232 -0.1158 -0.1791 -0.2624
  769TIP3    H123866   3.255   1.452   7.224 -1.2247  0.1653 -2.8591
  769TIP3    H223867   3.355   1.561   7.193 -0.5360  0.0271 -1.1389
  770TIP3   OH223868   2.698   7.098   7.273  0.7877  0.4777 -0.7814
  770TIP3    H123869   2.642   7.024   7.250  0.8548  0.5134 -1.0686
  770TIP3    H223870   2.650   7.144   7.341  2.1355 -1.5457  1.5985
  771TIP3   OH223871   3.998   0.845   7.730 -0.0396 -0.3301  0.1546
  771TIP3    H123872   3.995   0.816   7.638  2.1615 -1.3931  0.3697
  771TIP3    H223873   3.918   0.895   7.742 -0.2062  0.1249 -2.4586
  772TIP3   OH223874   7.081   6.154   5.763  0.2146  1.1079 -0.3091
  772TIP3    H123875   7.016   6.209   5.721  0.3599  0.8282 -0.9190
  772TIP3    H223876   7.076   6.071   5.715 -0.4655  0.3641  1.0297
  773TIP3   OH223877   5.440   6.089   8.058  0.3379 -0.3957 -0.5133
  773TIP3    H123878   5.523   6.094   8.106 -0.0994 -0.0716  0.2327
  773TIP3    H223879   5.379   6.138   8.113 -0.2615 -0.3309 -1.2366
  774TIP3   OH223880   4.668   1.349   5.739 -0.9781 -0.1302  0.2984
  774TIP3    H123881   4.744   1.373   5.685 -0.8867  0.9387  0.8834
  774TIP3    H223882   4.640   1.265   5.705 -1.2641  0.7802 -1.8109
  775TIP3   OH223883   4.850   2.105   1.451  0.1449 -0.0724 -0.2075
  775TIP3    H123884   4.790   2.069   1.386 -0.1641 -0.1673  0.1339
  775TIP3    H223885   4.932   2.057   1.437  0.4178  0.6660 -1.2654
  776TIP3   OH223886   1.429   0.499   6.871  0.8134 -0.4785 -0.3212
  776TIP3    H123887   1.498   0.548   6.917  0.3835 -1.1589  1.0874
  776TIP3    H223888   1.348   0.543   6.896  0.5532 -1.0386 -0.1706
  777TIP3   OH223889   0.202   1.667   7.765  0.2602  0.3138 -0.2810
  777TIP3    H123890   0.130   1.691   7.824 -1.2427 -1.8574 -1.1524
  777TIP3    H223891   0.177   1.706   7.681  1.2852  1.5207 -0.0366
  778TIP3   OH223892   3.595   6.446   6.351 -0.2000 -0.1874 -0.0202
  778TIP3    H123893   3.629   6.359   6.370 -0.5527  0.1194  2.0819
  778TIP3    H223894   3.506   6.446   6.386 -0.2924  0.9316 -0.2236
  779TIP3   OH223895   4.545   5.156   7.397  1.1002  0.1382 -0.7400
  779TIP3    H123896   4.555   5.087   7.331 -0.1471 -1.7543  0.9565
  779TIP3    H223897   4.456   5.190   7.382  1.6463  1.2865 -1.4545
  780TIP3   OH223898   4.464   1.030   0.780 -0.1799  0.2045  0.0575
  780TIP3    H123899   4.395   0.981   0.735 -0.6981 -0.5015  1.5893
  780TIP3    H223900   4.486   1.102   0.720 -0.1652 -1.2678 -1.7288
  781TIP3   OH223901   1.277   4.907   7.542 -0.0559 -0.2193 -0.2635
  781TIP3    H123902   1.256   4.976   7.604  0.4606  0.2502 -0.6059
  781TIP3    H223903   1.236   4.935   7.460  0.5971 -0.0473 -0.5404
  782TIP3   OH223904   4.979   0.538   0.007  0.4156  0.0929 -0.6475
  782TIP3    H123905   4.948   0.447   0.015 -3.1039  1.2129 -0.5060
  782TIP3    H223906   5.003   0.547  -0.085 -0.2101 -0.7229 -0.8982
  783TIP3   OH223907   4.572   6.694   7.332  0.2994 -0.1712  0.7133
  783TIP3    H123908   4.660   6.659   7.343 -0.2146 -2.3202 -1.4423
  783TIP3    H223909   4.562   6.703   7.237 -1.4578  0.9662  0.9787
  784TIP3   OH223910   5.943   2.829   6.372  0.2414  0.0304 -0.0321
  784TIP3    H123911   5.918   2.886   6.445  0.0564 -0.5174  0.3323
  784TIP3    H223912   5.987   2.888   6.310  1.6090  0.2489  1.1291
  785TIP3   OH223913   2.795   1.468   0.846  0.0408 -0.3432 -0.4773
  785TIP3    H123914   2.854   1.426   0.908 -0.5773  0.5825  0.7778
  785TIP3    H223915   2.799   1.561   0.869 -3.1568 -0.4349  0.7564
  786TIP3   OH223916   4.584   6.516   7.030 -0.5879 -0.8393  0.8841
  786TIP3    H123917   4.561   6.522   6.938  0.5331 -3.0769  0.4205
  786TIP3    H223918   4.502   6.528   7.077 -1.4534 -1.3874 -0.4837
  787TIP3   OH223919   6.424   2.127   6.931 -0.2576 -0.6278 -0.5794
  787TIP3    H123920   6.431   2.180   6.851 -1.3400  0.2967 -0.0664
  787TIP3    H223921   6.504   2.148   6.980  0.1731 -0.8273 -1.1864
  788TIP3   OH223922   4.482   2.701   6.526 -0.2012  0.2768 -0.4141
  788TIP3    H123923   4.454   2.638   6.460  0.4740  1.3545 -1.7412
  788TIP3    H223924   4.576   2.683   6.538  0.1466  1.4536 -1.2885
  789TIP3   OH223925   6.841   0.042   7.066 -0.5502 -0.2179  0.2335
  789TIP3    H123926   6.909  -0.001   7.014 -0.8537  0.0139 -0.3529
  789TIP3    H223927   6.874   0.130   7.081 -0.3885 -0.3345  0.5790
  790TIP3   OH223928   3.411   3.082   7.908 -0.3648 -0.1679 -0.4688
  790TIP3    H123929   3.452   3.026   7.975 -1.8578  0.0843  0.6720
  790TIP3    H223930   3.320   3.053   7.905 -0.2666 -0.2900 -2.5401
  791TIP3   OH223931   5.541   1.994   6.316  0.0259 -0.0052 -0.0195
  791TIP3    H123932   5.617   2.052   6.309  0.5842 -0.6324  0.8422
  791TIP3    H223933   5.514   1.979   6.225  1.0651  0.0342 -0.3390
  792TIP3   OH223934   0.162   1.763   1.134  0.8064 -0.1007  0.6571
  792TIP3    H123935   0.171   1.681   1.183 -0.8441 -0.9395 -0.3821
  792TIP3    H223936   0.231   1.759   1.068 -0.9062 -1.9914 -1.1392
  793TIP3   OH223937   2.488   3.510   7.060  0.2253  0.3770 -0.0991
  793TIP3    H123938   2.482   3.511   7.155 -0.1326  0.1525 -0.1199
  793TIP3    H223939   2.482   3.602   7.034 -0.8766  0.3381  0.0146
  794TIP3   OH223940   4.310   6.332   1.550  0.0132  0.3842 -0.8379
  794TIP3    H123941   4.344   6.370   1.630 -0.1777  0.0517 -0.5971
  794TIP3    H223942   4.327   6.397   1.482 -0.4405  0.9491 -0.4044
  795TIP3   OH223943   1.040   3.076   7.200 -0.5185 -0.2534 -0.2958
  795TIP3    H123944   1.077   3.124   7.126 -1.1884  3.5180  1.7141
  795TIP3    H223945   0.945   3.079   7.185 -0.6287  0.1387  0.4550
  796TIP3   OH223946   4.856   1.323   0.640 -0.5454 -0.4856  0.0919
  796TIP3    H123947   4.907   1.391   0.686 -1.1274  0.9753 -1.3658
  796TIP3    H223948   4.879   1.242   0.685  1.0130  0.5182  1.1834
  797TIP3   OH223949   4.934   2.666   7.002 -0.0859 -0.0500 -0.6232
  797TIP3    H123950   4.877   2.698   7.071  1.0979 -0.3149  0.4905
  797TIP3    H223951   4.881   2.671   6.922 -0.9661  1.6806  0.0461
  798TIP3   OH223952   4.656   1.103   7.635  0.1146  0.0919 -0.1723
  798TIP3    H123953   4.649   1.188   7.680  0.3629  0.3087 -0.5437
  798TIP3    H223954   4.573   1.095   7.587  0.0324  0.0620 -0.0245
  799TIP3   OH223955   3.070   2.796   7.149  0.0409  0.2534  0.2281
  799TIP3    H123956   3.079   2.880   7.194 -1.0160  0.7761 -0.5301
  799TIP3    H223957   2.988   2.759   7.182  0.4821 -0.4680  0.5323
  800TIP3   OH223958   3.209   6.840   7.922  0.5670  0.2969 -0.1027
  800TIP3    H123959   3.177   6.760   7.965  0.4996  0.2451 -0.2493
  800TIP3    H223960   3.159   6.910   7.963  1.8697  0.4387  1.2755
  801TIP3   OH223961   5.138   0.955   5.978  0.0860 -0.9178  0.4631
  801TIP3    H123962   5.145   1.013   5.902  3.1489 -0.2726  1.1758
  801TIP3    H223963   5.048   0.966   6.008 -0.1917  1.3800 -1.0845
  802TIP3   OH223964   4.111   0.333   7.436 -0.2619 -0.5075 -0.1324
  802TIP3    H123965   4.191   0.385   7.432  0.2106 -1.0768  1.4453
  802TIP3    H223966   4.068   0.361   7.517 -1.1656 -0.9208 -0.4587
  803TIP3   OH223967   3.225   1.028   6.284 -0.1563 -0.0669 -0.1616
  803TIP3    H123968   3.219   0.969   6.358  1.4047  0.1594  0.1563
  803TIP3    H223969   3.205   1.114   6.321  0.3380  0.0049 -0.0621
  804TIP3   OH223970   5.139   0.411   5.853 -0.3558  0.2561 -0.0185
  804TIP3    H123971   5.045   0.412   5.870 -0.5335  2.1744 -0.9423
  804TIP3    H223972   5.172   0.488   5.900  1.0819 -1.4653  1.8882
  805TIP3   OH223973   1.872   2.580   1.246  0.2844 -0.0149 -0.0409
  805TIP3    H123974   1.856   2.668   1.211 -0.4599 -0.4327 -0.7586
  805TIP3    H223975   1.787   2.550   1.278  0.0362 -1.3880 -1.9088
  806TIP3   OH223976   4.268   5.335   6.671  0.1469 -0.4321  0.3824
  806TIP3    H123977   4.271   5.256   6.616  1.1112 -0.1857  0.0682
  806TIP3    H223978   4.309   5.403   6.617 -3.1323  0.9752 -0.4392
  807TIP3   OH223979   5.067   1.006   6.602 -0.0786  0.6157  0.1259
  807TIP3    H123980   5.014   0.939   6.559 -0.1397  0.3724  0.5770
  807TIP3    H223981   5.067   1.080   6.541 -2.1867  1.1905  0.8170
  808TIP3   OH223982   0.338   5.896   0.169  0.2386  0.4931  0.0332
  808TIP3    H123983   0.320   5.957   0.241  0.7161  0.6946 -0.0160
  808TIP3    H223984   0.419   5.929   0.129  0.2479  0.0919 -0.2829
  809TIP3   OH223985   6.064   6.932   0.374  0.5199 -0.0393 -0.6854
  809TIP3    H123986   6.041   6.957   0.463  2.1445 -4.6962  1.1817
  809TIP3    H223987   5.990   6.879   0.344  1.2406 -0.8773 -1.0038
  810TIP3   OH223988   1.006   1.510   7.526 -0.0454  0.4729  0.0564
  810TIP3    H123989   0.942   1.504   7.455 -0.1223  2.9724 -0.1307
  810TIP3    H223990   1.090   1.491   7.483 -0.3169  0.1322 -0.3275
  811TIP3   OH223991   0.539   2.196   0.049 -0.2274 -0.6374  0.0734
  811TIP3    H123992   0.524   2.182   0.143  0.8723 -1.2442  0.1731
  811TIP3    H223993   0.624   2.241   0.045 -0.8820  0.5481 -0.5727
  812TIP3   OH223994   1.736   5.074   6.155  0.0758  0.1174  0.2144
  812TIP3    H123995   1.708   5.048   6.067 -0.3516  1.7744 -0.1494
  812TIP3    H223996   1.793   5.002   6.184  1.1192  0.0595 -1.8508
  813TIP3   OH223997   6.883   2.223   7.925 -0.0153 -0.8375 -0.3413
  813TIP3    H123998   6.899   2.248   7.834  0.2803  1.7003  0.3454
  813TIP3    H223999   6.953   2.267   7.974 -0.3041 -1.9897  1.1340
  814TIP3   OH224000   3.806   1.535   5.991 -0.0511  0.3449  0.1330
  814TIP3    H124001   3.853   1.498   6.066  1.9177 -0.2879 -1.3533
  814TIP3    H224002   3.734   1.475   5.977  1.1544 -1.0744 -0.1442
  815TIP3   OH224003   6.720   6.135   6.448 -0.0466 -0.7487  0.1272
  815TIP3    H124004   6.650   6.200   6.459 -0.3477 -1.0516 -0.0031
  815TIP3    H224005   6.676   6.057   6.415  0.0861 -1.5248  1.7380
  816TIP3   OH224006   4.004   0.262   6.240 -0.0666 -0.7844  0.6750
  816TIP3    H124007   4.099   0.257   6.234  0.0919 -0.2847  2.3772
  816TIP3    H224008   3.981   0.201   6.310 -0.8088  0.4306  1.5137
  817TIP3   OH224009   5.680   0.897   6.869  0.4266  0.3351  0.4349
  817TIP3    H124010   5.715   0.934   6.950 -0.2649  1.0972  0.4005
  817TIP3    H224011   5.670   0.804   6.888  1.5185  0.2792  0.7714
  818TIP3   OH224012   1.685   1.539   0.767 -0.7814  0.1125  0.1491
  818TIP3    H124013   1.699   1.448   0.740 -0.8779 -0.8363  3.1494
  818TIP3    H224014   1.602   1.563   0.727 -1.4209 -1.5677  0.4211
  819TIP3   OH224015   4.479   1.937   6.957 -0.1187  0.6526  0.5180
  819TIP3    H124016   4.410   2.002   6.945 -1.1416 -0.2727  1.3388
  819TIP3    H224017   4.433   1.854   6.967  1.1337 -0.0490  0.5857
  820TIP3   OH224018   6.705   5.788   7.427  0.0268  0.1798  0.3414
  820TIP3    H124019   6.711   5.775   7.522 -1.6114  0.4077  0.4927
  820TIP3    H224020   6.772   5.853   7.408  0.8087 -0.3402  1.2422
  821TIP3   OH224021   5.684   2.405   6.232  0.8296 -0.3858  0.3574
  821TIP3    H124022   5.722   2.441   6.152 -1.0342  1.9890  0.4852
  821TIP3    H224023   5.715   2.463   6.302 -0.2210 -0.4770  0.9065
  822TIP3   OH224024   3.476   2.134   0.580 -0.0471 -0.5617  0.3547
  822TIP3    H124025   3.400   2.178   0.542 -0.7036 -0.7602  1.3939
  822TIP3    H224026   3.478   2.164   0.671  1.1025 -0.5882  0.3468
  823TIP3   OH224027   3.929   1.266   6.069  0.2235 -0.1225 -0.0706
  823TIP3    H124028   3.845   1.272   6.024  0.0462  1.9660  0.4778
  823TIP3    H224029   3.977   1.199   6.022 -1.1742 -0.2452 -1.3549
  824TIP3   OH224030   5.276   7.002   6.118 -0.3846 -0.0845 -0.0308
  824TIP3    H124031   5.267   6.985   6.212  0.7879  1.3693  0.3685
  824TIP3    H224032   5.357   7.052   6.111 -0.9198  0.5698 -1.7339
  825TIP3   OH224033   3.018   0.646   6.935  0.2381 -0.2217 -0.2169
  825TIP3    H124034   3.027   0.580   6.867 -0.4033 -0.0842 -0.4382
  825TIP3    H224035   2.942   0.698   6.909  0.7211  0.5925 -0.0326
  826TIP3   OH224036   5.806   0.938   5.950 -0.3305  0.8604  1.2156
  826TIP3    H124037   5.881   0.880   5.936 -0.0381  1.2844  1.0146
  826TIP3    H224038   5.730   0.880   5.942 -0.1624  0.9057 -1.4816
  827TIP3   OH224039   6.143   6.461   5.961  1.0406  0.3679 -0.0873
  827TIP3    H124040   6.201   6.486   6.033  0.0146 -0.3377  1.0060
  827TIP3    H224041   6.134   6.366   5.970  1.0388  0.2516 -1.2544
  828TIP3   OH224042   5.328   4.219   7.075 -0.4616 -0.7281 -0.2259
  828TIP3    H124043   5.358   4.154   7.011 -1.8776 -0.0127 -1.6550
  828TIP3    H224044   5.240   4.243   7.046 -0.3649  1.0804  0.8640
  829TIP3   OH224045   0.689   0.608   6.447  0.3424  0.5515  0.2192
  829TIP3    H124046   0.751   0.680   6.432  1.5387 -0.6384 -0.7139
  829TIP3    H224047   0.744   0.537   6.480 -0.6577 -0.2824  0.0920
  830TIP3   OH224048   5.297   1.422   7.728  0.0685  0.1644  0.1543
  830TIP3    H124049   5.239   1.497   7.741  0.1706  0.0402  1.3797
  830TIP3    H224050   5.239   1.346   7.730 -0.0563  0.2044 -1.2531
  831TIP3   OH224051   6.709   1.073   0.863  0.4199 -0.6675  0.3968
  831TIP3    H124052   6.705   1.023   0.945 -1.0049  1.8648  1.9277
  831TIP3    H224053   6.772   1.142   0.880 -0.0766  0.0335 -0.5551
  832TIP3   OH224054   2.951   3.135   7.481 -0.0633  0.2849 -0.6015
  832TIP3    H124055   2.989   3.222   7.493 -0.5253  0.2909  0.8643
  832TIP3    H224056   2.858   3.146   7.498 -0.2990 -0.2988 -1.4535
  833TIP3   OH224057   4.554   0.672   0.737  0.2208 -0.6693 -0.4677
  833TIP3    H124058   4.588   0.647   0.651  1.5570  1.2883 -0.5524
  833TIP3    H224059   4.629   0.712   0.782 -1.1530  0.8063  0.5804
  834TIP3   OH224060   0.516   0.638   0.840  0.5815 -0.4772 -0.0055
  834TIP3    H124061   0.537   0.688   0.761 -1.7439  0.7308  0.0913
  834TIP3    H224062   0.599   0.600   0.867  1.3661 -1.2739 -3.2664
  835TIP3   OH224063   3.489   1.433   5.990 -0.1297  0.0028 -0.2833
  835TIP3    H124064   3.437   1.356   5.967 -1.2948  0.5316  0.5152
  835TIP3    H224065   3.429   1.488   6.041  0.8856  1.1365 -0.2867
  836TIP3   OH224066   0.341   6.827   7.086 -0.6952 -0.3415 -0.2695
  836TIP3    H124067   0.428   6.786   7.090 -1.3314 -1.8285 -1.1803
  836TIP3    H224068   0.287   6.772   7.143 -1.0609  0.5306  0.2220
  837TIP3   OH224069   3.203   5.834   6.658  0.4130  0.2036  0.0664
  837TIP3    H124070   3.246   5.772   6.599  0.9319 -1.2340  1.9113
  837TIP3    H224071   3.109   5.821   6.643  0.5469  0.0673 -0.6497
  838TIP3   OH224072   1.919   5.962   7.971  0.3689  0.2075  0.2400
  838TIP3    H124073   1.965   5.893   7.923 -1.6084 -1.6291  0.8867
  838TIP3    H224074   1.839   5.977   7.920  0.2002  1.1194  0.7743
  839TIP3   OH224075   5.498   5.388   7.289  0.2712  0.1854 -0.7156
  839TIP3    H124076   5.461   5.328   7.354 -1.1899  0.6575 -1.0846
  839TIP3    H224077   5.495   5.474   7.332  1.7910  0.0919 -0.4123
  840TIP3   OH224078   5.308   3.850   7.755 -0.3087 -0.2263  0.0794
  840TIP3    H124079   5.239   3.820   7.696 -0.8292  0.1906  0.4705
  840TIP3    H224080   5.366   3.775   7.764 -0.7767 -0.6186 -0.1596
  841TIP3   OH224081   5.600   0.035   7.288 -0.7374 -0.1365 -0.2755
  841TIP3    H124082   5.615   0.118   7.332 -0.7822 -0.5312  0.4787
  841TIP3    H224083   5.565   0.059   7.202 -2.3456  0.5649  0.5701
  842TIP3   OH224084   3.319   6.629   6.927  0.8614 -0.9155 -0.1841
  842TIP3    H124085   3.274   6.554   6.887  2.1501 -2.2164  0.7590
  842TIP3    H224086   3.397   6.642   6.874  0.7280 -0.3253 -0.2473
  843TIP3   OH224087   3.227   2.947   6.787 -0.1762 -0.5723  0.5655
  843TIP3    H124088   3.223   2.984   6.698  1.8657  1.0131  1.1016
  843TIP3    H224089   3.154   2.988   6.833 -0.3257 -0.2266  0.0266
  844TIP3   OH224090   4.340   3.436   6.306 -0.2958 -0.1720  0.0295
  844TIP3    H124091   4.311   3.379   6.235 -0.6943 -0.3165  0.2988
  844TIP3    H224092   4.259   3.462   6.350 -0.1198  0.6884 -0.1543
  845TIP3   OH224093   2.401   4.410   0.966 -0.3476 -0.1511  0.1760
  845TIP3    H124094   2.333   4.476   0.973 -0.3334 -0.2377  1.3353
  845TIP3    H224095   2.361   4.340   0.914 -1.1793 -0.2386  0.9113
  846TIP3   OH224096   0.778   6.192   0.530 -0.5182  0.3914  0.1970
  846TIP3    H124097   0.783   6.099   0.553 -0.2121  0.4767  0.4864
  846TIP3    H224098   0.786   6.237   0.614  0.8516  0.7126 -0.0925
  847TIP3   OH224099   4.220   1.039   1.380 -0.2338 -0.0134 -0.8305
  847TIP3    H124100   4.136   1.075   1.352  0.4491  2.4814  0.2245
  847TIP3    H224101   4.237   1.080   1.465  2.0848 -0.4348 -1.0522
  848TIP3   OH224102   5.416   0.949   6.021 -0.4058  0.1091  0.0235
  848TIP3    H124103   5.324   0.950   5.995  0.1981 -1.3222 -2.3046
  848TIP3    H224104   5.463   0.920   5.943  2.0806  1.2209  1.0460
  849TIP3   OH224105   4.490   2.259   6.371 -0.6663 -0.2510 -0.1064
  849TIP3    H124106   4.462   2.308   6.448 -1.3218  0.8114 -0.9864
  849TIP3    H224107   4.513   2.327   6.307  1.6775 -1.1087 -0.2126
  850TIP3   OH224108   0.937   6.746   0.310 -0.2076 -0.2858  0.0980
  850TIP3    H124109   0.932   6.789   0.395  0.9804  0.9465 -0.4269
  850TIP3    H224110   0.851   6.760   0.271 -0.1878  0.6932  0.3872
  851TIP3   OH224111   3.898   4.211   6.489  0.1810 -0.9691 -0.0675
  851TIP3    H124112   3.895   4.284   6.550 -0.3471  0.8843 -2.2481
  851TIP3    H224113   3.881   4.250   6.403  1.6091 -3.3685 -1.5244
  852TIP3   OH224114   6.290   0.856   6.585  0.3653  0.3074  0.0430
  852TIP3    H124115   6.321   0.791   6.648  1.1500  0.5863 -0.0497
  852TIP3    H224116   6.353   0.927   6.591 -0.2157  0.8542 -0.2095
  853TIP3   OH224117   5.405   3.603   7.724 -0.4640  0.1654  0.6261
  853TIP3    H124118   5.497   3.577   7.715 -0.6413 -0.6430  1.1063
  853TIP3    H224119   5.357   3.520   7.724 -1.0347  0.4789  2.2988
  854TIP3   OH224120   3.631   0.749   8.082 -0.0685  0.1670  0.5141
  854TIP3    H124121   3.592   0.700   8.009  0.3037 -1.3914  1.3339
  854TIP3    H224122   3.572   0.822   8.096 -0.5641  0.0521 -0.8516
  855TIP3   OH224123   2.324   3.597   1.459 -0.1103 -0.2726 -0.0707
  855TIP3    H124124   2.357   3.609   1.370 -0.3379 -0.2890 -0.1574
  855TIP3    H224125   2.262   3.668   1.471  1.2455  0.8011  0.7153
  856TIP3   OH224126   2.672   6.625   1.573 -0.1138 -0.0328 -0.0235
  856TIP3    H124127   2.577   6.631   1.560 -0.3252 -0.8690  1.1031
  856TIP3    H224128   2.707   6.610   1.485 -1.0888 -0.5796 -0.3281
  857TIP3   OH224129   0.154   2.537   1.826 -0.0630  0.8424  0.2569
  857TIP3    H124130   0.244   2.510   1.840 -0.1322 -0.9386 -2.3465
  857TIP3    H224131   0.103   2.487   1.890  0.5671  0.1145  0.1890
  858TIP3   OH224132   6.602   0.972   5.754  0.8673 -0.4827  0.2009
  858TIP3    H124133   6.569   0.882   5.748  2.5214 -0.9111 -3.1779
  858TIP3    H224134   6.604   0.989   5.849 -2.6385 -2.7529  0.8017
  859TIP3   OH224135   2.558   1.339   7.787  0.0447 -0.5521  0.2686
  859TIP3    H124136   2.481   1.345   7.729 -0.1844 -0.8848  0.5398
  859TIP3    H224137   2.618   1.281   7.741  0.4830  0.3637 -0.3369
  860TIP3   OH224138   4.375   5.952   1.048  0.5699  0.1247 -0.0235
  860TIP3    H124139   4.281   5.958   1.032  0.6249  0.1578 -0.3367
  860TIP3    H224140   4.401   5.868   1.010  0.6814  0.1517 -0.0088
  861TIP3   OH224141   3.983   0.010   0.618 -0.1522 -0.3789  0.0085
  861TIP3    H124142   3.982   0.080   0.552 -2.0662  0.1148  0.5203
  861TIP3    H224143   4.016   0.052   0.697 -2.7259  0.3544  0.7179
  862TIP3   OH224144   6.789   6.150   7.281  0.0098  0.4078 -0.0146
  862TIP3    H124145   6.820   6.102   7.358  0.3558 -1.9464 -1.5508
  862TIP3    H224146   6.696   6.163   7.296  0.3385  1.1565  1.3991
  863TIP3   OH224147   6.866   7.043   7.342  0.0969 -0.6526  0.2226
  863TIP3    H124148   6.901   7.050   7.253  0.0894  1.5027  0.3461
  863TIP3    H224149   6.851   6.950   7.355  0.1896 -1.0113 -2.0023
  864TIP3   OH224150   3.847   1.224   6.336 -0.4144 -0.3179  0.4414
  864TIP3    H124151   3.885   1.251   6.252 -0.7858  0.7667  0.6200
  864TIP3    H224152   3.922   1.193   6.387 -0.1580 -0.7764 -0.2081
  865TIP3   OH224153   2.045   5.851   7.594 -0.2026 -0.3833 -0.0435
  865TIP3    H124154   2.111   5.863   7.663 -2.2760 -0.5873  2.0457
  865TIP3    H224155   2.014   5.761   7.606  0.7251 -1.0816 -2.4950
  866TIP3   OH224156   4.120   5.107   1.433 -0.0201 -0.4274 -0.5338
  866TIP3    H124157   4.173   5.033   1.463  0.3951  0.0463 -0.0914
  866TIP3    H224158   4.033   5.092   1.469  0.7692  0.7741  1.9804
  867TIP3   OH224159   5.210   0.650   5.987  0.0238  0.0375  0.5540
  867TIP3    H124160   5.140   0.713   5.970 -0.6506 -0.3743  1.7423
  867TIP3    H224161   5.274   0.699   6.040 -1.2062 -0.6792  2.7464
  868TIP3   OH224162   4.497   6.108   0.271  0.3546  0.0566 -0.3045
  868TIP3    H124163   4.421   6.051   0.282  1.3227 -1.3212 -0.5182
  868TIP3    H224164   4.567   6.063   0.319  0.5234  2.3999  1.7573
  869TIP3   OH224165   0.955   2.134   0.411 -0.2399 -0.9913 -0.3749
  869TIP3    H124166   0.990   2.107   0.496  2.0712 -0.3109 -1.0979
  869TIP3    H224167   0.950   2.053   0.360 -1.2246 -1.3298  0.2372
  870TIP3   OH224168   4.969   1.072   6.309  0.1216  0.1122  0.2979
  870TIP3    H124169   4.942   1.034   6.225 -0.4104  1.0998  0.0192
  870TIP3    H224170   5.064   1.059   6.311  0.2649  0.9005 -0.8737
  871TIP3   OH224171   5.740   0.372   1.528  0.3613  0.1870 -0.8046
  871TIP3    H124172   5.679   0.443   1.544  0.4063 -0.1897  1.1684
  871TIP3    H224173   5.748   0.327   1.613  1.9891 -0.8444 -1.4723
  872TIP3   OH224174   4.420   3.256   6.697 -0.4875  0.0110 -0.2593
  872TIP3    H124175   4.383   3.265   6.785 -2.0115  0.4530 -0.9319
  872TIP3    H224176   4.514   3.271   6.709 -0.6148 -0.4390  1.3683
  873TIP3   OH224177   5.346   5.765   6.437 -0.0583 -0.6494 -0.1088
  873TIP3    H124178   5.367   5.858   6.435 -1.4703 -0.2430  2.0710
  873TIP3    H224179   5.431   5.721   6.434  0.7371  0.7591  1.0420
  874TIP3   OH224180   2.359   1.377   6.343  0.7664  0.2614  0.3604
  874TIP3    H124181   2.450   1.408   6.342  0.6865  0.5692  1.3591
  874TIP3    H224182   2.353   1.316   6.270  2.0527 -0.5295  0.9050
  875TIP3   OH224183   2.120   1.236   7.009 -0.3160  0.3449 -0.4011
  875TIP3    H124184   2.214   1.253   7.014 -0.8562  3.4561  0.3278
  875TIP3    H224185   2.114   1.149   6.969  2.8139  0.7471 -1.9373
  876TIP3   OH224186   3.963   1.423   1.305  0.1268  0.0601 -0.7148
  876TIP3    H124187   4.043   1.370   1.306 -0.4696 -0.8462 -0.4422
  876TIP3    H224188   3.943   1.438   1.397 -0.1426  0.0840 -0.7774
  877TIP3   OH224189   6.456   0.220   7.007 -0.1762 -0.1580  0.5259
  877TIP3    H124190   6.492   0.294   7.056  4.1453 -1.2044 -0.7675
  877TIP3    H224191   6.487   0.143   7.055  0.1052 -1.1267 -1.1676
  878TIP3   OH224192   6.264   5.369   6.607 -0.4125  0.7739  0.3582
  878TIP3    H124193   6.241   5.340   6.695 -1.0926  0.3684  0.0533
  878TIP3    H224194   6.188   5.418   6.577 -0.1802  0.9183  0.0019
  879TIP3   OH224195   1.433   3.585   0.404  0.1915  0.5365  0.5689
  879TIP3    H124196   1.523   3.552   0.393 -0.6950 -1.2974 -1.5463
  879TIP3    H224197   1.430   3.663   0.348 -0.1358 -0.6590 -1.1296
  880TIP3   OH224198   1.951   3.592   6.506  0.6612 -0.0903  0.0821
  880TIP3    H124199   1.961   3.506   6.466  0.7957  0.0924 -0.2744
  880TIP3    H224200   1.930   3.650   6.434  1.6840  0.3825  0.1586
  881TIP3   OH224201   3.220   0.639   7.123 -0.2505 -0.1310 -0.3673
  881TIP3    H124202   3.272   0.718   7.112 -0.5854  0.0417 -0.6932
  881TIP3    H224203   3.165   0.634   7.045 -0.3559 -0.5891 -0.2671
  882TIP3   OH224204   1.362   7.098   7.383 -0.3159 -0.3267  0.0367
  882TIP3    H124205   1.339   7.065   7.469 -1.4788  1.2695  0.3521
  882TIP3    H224206   1.279   7.122   7.343  0.1609 -1.5969 -1.7770
  883TIP3   OH224207   6.745   0.233   6.395  0.4999  0.7264  0.3310
  883TIP3    H124208   6.825   0.249   6.345 -0.6603  1.0860 -1.4774
  883TIP3    H224209   6.707   0.320   6.409 -0.2432  0.4608  0.0149
  884TIP3   OH224210   0.881   1.258   6.503  0.9775 -0.6872  0.7555
  884TIP3    H124211   0.960   1.249   6.557  0.2146  0.9998  2.2051
  884TIP3    H224212   0.879   1.350   6.478 -1.0566 -0.4670  1.6123
  885TIP3   OH224213   4.567   6.264   7.608  0.5478  0.3943  0.1021
  885TIP3    H124214   4.587   6.283   7.516  2.2124 -0.3603  0.2923
  885TIP3    H224215   4.595   6.174   7.621  0.0105  0.3795  1.2687
  886TIP3   OH224216   4.889   6.308   5.989  0.8134  0.0248  0.1167
  886TIP3    H124217   4.807   6.304   5.939  0.5818 -0.0810  0.4970
  886TIP3    H224218   4.916   6.399   5.983  0.9769 -0.0585 -0.4968
  887TIP3   OH224219   4.265   6.043   0.042  0.0069  0.1780  0.0879
  887TIP3    H124220   4.334   5.979   0.059  0.2834  0.2871 -0.6377
  887TIP3    H224221   4.184   5.998   0.070  0.3595  0.0570  0.9399
  888TIP3   OH224222   6.033   6.330   8.113 -0.1893  0.3732  0.2950
  888TIP3    H124223   6.053   6.321   8.020  0.0059 -2.7439  0.5824
  888TIP3    H224224   5.939   6.349   8.116  0.2244  2.7363 -0.5777
  889TIP3   OH224225   5.289   1.064   7.501 -0.6471 -0.2570  0.4213
  889TIP3    H124226   5.231   1.041   7.574 -2.2746 -0.5407 -0.9459
  889TIP3    H224227   5.316   0.980   7.464 -0.1373 -0.1019  0.4276
  890TIP3   OH224228   2.221   7.075   0.924  0.3255  0.2456  0.8896
  890TIP3    H124229   2.279   7.127   0.869 -1.3349  1.0748 -0.1300
  890TIP3    H224230   2.190   7.137   0.991 -0.1406  0.0769  0.8344
  891TIP3   OH224231   4.397   1.010   7.525  0.0737  0.7963 -0.9612
  891TIP3    H124232   4.394   0.954   7.447 -2.9395  0.2793 -0.5631
  891TIP3    H224233   4.320   1.067   7.516 -0.5179  0.5073  1.7790
  892TIP3   OH224234   3.794   2.504   6.748 -0.2554  0.1401 -0.4249
  892TIP3    H124235   3.848   2.533   6.822  3.4641 -0.5317 -2.7217
  892TIP3    H224236   3.774   2.585   6.701  0.1000  0.2299 -0.4241
  893TIP3   OH224237   0.511   5.531   6.815 -0.4669 -0.1484  0.2616
  893TIP3    H124238   0.462   5.603   6.856 -0.5345 -0.2496  0.3580
  893TIP3    H224239   0.446   5.461   6.805 -1.0757  0.7245 -2.2486
  894TIP3   OH224240   2.667   3.751   6.437 -0.1536 -0.3694  0.6080
  894TIP3    H124241   2.743   3.789   6.392 -1.2466  0.7493 -0.3341
  894TIP3    H224242   2.608   3.825   6.451 -0.7837 -1.0975  1.9618
  895TIP3   OH224243   0.475   4.672   7.563  0.3004 -0.2802  0.2531
  895TIP3    H124244   0.528   4.726   7.505  0.0363 -1.3572 -1.0098
  895TIP3    H224245   0.441   4.603   7.507 -1.5835 -0.2082  1.2774
  896TIP3   OH224246   4.872   2.834   7.289 -0.0862 -0.3279  0.6630
  896TIP3    H124247   4.909   2.793   7.367 -1.7790  0.8622  2.1285
  896TIP3    H224248   4.850   2.923   7.317  1.4051  0.8872 -1.8203
  897TIP3   OH224249   4.424   6.672   7.576  0.5909  0.2240  0.2215
  897TIP3    H124250   4.462   6.729   7.642  1.6482 -1.5189  1.1401
  897TIP3    H224251   4.470   6.694   7.495  1.9392 -0.2531  0.8525
  898TIP3   OH224252   4.582   4.776   7.072 -0.5523 -0.3440  0.0215
  898TIP3    H124253   4.637   4.734   7.005 -0.6342 -0.9473  0.3276
  898TIP3    H224254   4.517   4.709   7.095  0.2711 -0.6040  1.6517
  899TIP3   OH224255   6.689   1.693   6.279 -0.5587  0.1973  0.6225
  899TIP3    H124256   6.751   1.696   6.206 -0.5852  1.2866  0.6261
  899TIP3    H224257   6.654   1.604   6.277  0.9820 -0.4337  0.6096
  900TIP3   OH224258   0.594   6.102   0.846  0.4030 -0.3941  0.3106
  900TIP3    H124259   0.625   6.067   0.930  0.6878 -1.6105 -0.2965
  900TIP3    H224260   0.660   6.168   0.822  1.7958 -1.9791 -0.2904
  901TIP3   OH224261   4.962   6.710   6.544  0.2131  0.1081  0.6858
  901TIP3    H124262   5.035   6.768   6.564  0.0295  0.2834  0.8437
  901TIP3    H224263   4.933   6.737   6.457  0.3179  0.0554  0.6343
  902TIP3   OH224264   1.577   0.410   0.771  0.4601  0.3719 -0.0207
  902TIP3    H124265   1.557   0.359   0.849  0.5307  0.9399  0.3706
  902TIP3    H224266   1.505   0.473   0.764  0.2311  0.0450 -0.6556
  903TIP3   OH224267   3.187   0.943   8.042 -0.1990  0.2786 -0.2313
  903TIP3    H124268   3.166   0.857   8.079  0.3889 -0.7438 -2.2155
  903TIP3    H224269   3.270   0.930   7.995 -0.4467  1.7510 -1.1169
  904TIP3   OH224270   6.240   2.470   0.172  0.2489 -0.1921  0.1676
  904TIP3    H124271   6.267   2.418   0.248 -1.2372 -0.4468  0.5407
  904TIP3    H224272   6.144   2.466   0.173  0.1431  1.7326 -0.3781
  905TIP3   OH224273   2.721   3.645   1.492 -0.0054  0.6868  0.1603
  905TIP3    H124274   2.762   3.619   1.575  0.5512  1.6570  0.1995
  905TIP3    H224275   2.795   3.668   1.435 -0.3473 -0.6345 -0.8445
  906TIP3   OH224276   6.052   2.701   7.398  0.1013 -0.5685 -0.4111
  906TIP3    H124277   6.116   2.639   7.361 -0.7238 -1.6754 -0.0029
  906TIP3    H224278   5.970   2.679   7.355 -0.1412  0.4406 -0.4661
  907TIP3   OH224279   4.749   3.101   7.396  0.2974  0.1135 -0.5860
  907TIP3    H124280   4.719   3.056   7.475 -2.0484  0.1776 -1.3869
  907TIP3    H224281   4.679   3.163   7.376  0.9059  0.1699 -2.6457
  908TIP3   OH224282   6.024   1.204   1.103 -0.4631  0.3989  0.0456
  908TIP3    H124283   6.009   1.223   1.010  0.0518 -1.9408 -0.5298
  908TIP3    H224284   6.086   1.132   1.103 -0.7029  0.1710  2.2288
  909TIP3   OH224285   4.591   6.234   6.981 -0.1996 -0.0965 -0.3436
  909TIP3    H124286   4.595   6.252   6.887 -0.7550  1.3036 -0.1016
  909TIP3    H224287   4.584   6.320   7.022 -1.8134 -0.7914  0.8885
  910TIP3   OH224288   5.892   0.493   7.612  0.3577  0.0153 -0.1397
  910TIP3    H124289   5.948   0.474   7.537  0.8294 -0.3060  0.2932
  910TIP3    H224290   5.875   0.408   7.652  1.7329  0.3906  1.2818
  911TIP3   OH224291   4.268   6.876   6.544  0.1863 -0.1681  0.2480
  911TIP3    H124292   4.317   6.920   6.613  1.8525  1.6188 -2.0280
  911TIP3    H224293   4.253   6.943   6.478 -1.7413 -1.7425 -0.9754
  912TIP3   OH224294   5.941   0.763   8.083 -0.4413 -0.3942  0.3181
  912TIP3    H124295   5.977   0.686   8.039 -0.6481 -0.1021 -0.3762
  912TIP3    H224296   5.959   0.748   8.176  1.0479 -0.4721  0.0333
  913TIP3   OH224297   3.602   6.229   7.874 -0.2667 -0.2906  0.0241
  913TIP3    H124298   3.526   6.189   7.832 -0.8446  0.7984  0.0117
  913TIP3    H224299   3.569   6.266   7.955  0.2955  0.0143  0.1213
  914TIP3   OH224300   1.177   1.936   6.455  0.2144  0.2619 -0.3993
  914TIP3    H124301   1.236   2.012   6.453 -1.0284  1.2735  0.3362
  914TIP3    H224302   1.155   1.920   6.363  1.8801 -0.3332 -0.7115
  915TIP3   OH224303   3.131   2.806   0.430  0.0728  0.2930 -0.1876
  915TIP3    H124304   3.180   2.795   0.349  0.0990 -0.9481 -0.0179
  915TIP3    H224305   3.155   2.730   0.483 -0.4077  0.7755  0.7374
  916TIP3   OH224306   5.029   1.061   5.337 -0.8325 -0.3402  0.2902
  916TIP3    H124307   5.077   1.097   5.263 -1.3043 -0.9444 -0.3121
  916TIP3    H224308   5.080   1.088   5.414 -0.2840  0.1928 -0.2554
  917TIP3   OH224309   6.170   4.812   6.917  0.3288  0.0564 -0.5261
  917TIP3    H124310   6.228   4.804   6.993  0.1314 -0.9881 -0.4901
  917TIP3    H224311   6.130   4.899   6.928  0.4507 -0.0004  0.4550
  918TIP3   OH224312   0.317   6.195   6.206  0.5309 -0.5445 -0.4844
  918TIP3    H124313   0.392   6.249   6.233 -0.4042  1.2088 -1.3405
  918TIP3    H224314   0.297   6.224   6.117 -1.5791 -0.5461 -0.0282
  919TIP3   OH224315   5.287   5.555   6.607  0.3284 -0.2652  0.1178
  919TIP3    H124316   5.356   5.591   6.663 -0.1349  0.1510  0.4166
  919TIP3    H224317   5.268   5.625   6.544  0.5932 -0.5994 -0.3398
  920TIP3   OH224318   6.177   6.959   6.777 -0.0002  0.8811 -0.2627
  920TIP3    H124319   6.209   6.902   6.707 -0.4002 -0.6472  0.7883
  920TIP3    H224320   6.228   7.039   6.767  0.1980  0.5613 -2.0880
  921TIP3   OH224321   5.617   0.154   0.182  0.6747  0.0057  0.4643
  921TIP3    H124322   5.611   0.247   0.161  0.5595  0.2847  1.6691
  921TIP3    H224323   5.640   0.152   0.275 -1.3651 -1.1609  0.9751
  922TIP3   OH224324   3.804   1.165   0.868  0.1373  0.2594  0.4251
  922TIP3    H124325   3.895   1.179   0.894  0.2508 -0.7843  0.5994
  922TIP3    H224326   3.753   1.223   0.924  0.6550  0.4585  0.6883
  923TIP3   OH224327   4.894   1.806   0.784 -0.0671  0.1521  0.0479
  923TIP3    H124328   4.986   1.785   0.767 -0.0068 -0.3993  1.0622
  923TIP3    H224329   4.894   1.900   0.804 -0.1162  0.8099 -2.7916
  924TIP3   OH224330   5.828   6.363   7.152  0.2246  0.0349 -0.3930
  924TIP3    H124331   5.780   6.410   7.221 -0.9076  0.5267 -1.5047
  924TIP3    H224332   5.885   6.429   7.113  0.4873 -0.1235 -0.2797
  925TIP3   OH224333   0.412   1.003   0.139 -0.3845  0.2074  0.5408
  925TIP3    H124334   0.502   1.010   0.169 -0.4509  0.3892  0.6918
  925TIP3    H224335   0.399   0.909   0.123 -0.2772  0.1438  0.8426
  926TIP3   OH224336   4.679   6.353   7.363 -0.0729  0.4597  0.6867
  926TIP3    H124337   4.728   6.422   7.317 -1.7692  0.4885 -1.1340
  926TIP3    H224338   4.734   6.275   7.354 -0.0386  0.6353 -0.7923
  927TIP3   OH224339   0.384   1.125   6.192 -0.0396  0.2525 -0.0133
  927TIP3    H124340   0.476   1.127   6.221 -0.2142 -0.5139  0.6351
  927TIP3    H224341   0.362   1.217   6.177  0.8896  0.4321 -0.3613
  928TIP3   OH224342   6.124   6.829   7.245 -0.2485  0.3911  0.4744
  928TIP3    H124343   6.179   6.899   7.209  0.1925 -1.2584 -2.1816
  928TIP3    H224344   6.178   6.750   7.238 -1.2140 -0.4495  2.2429
  929TIP3   OH224345   0.365   6.875   7.408 -0.4128  0.3326  0.0243
  929TIP3    H124346   0.349   6.781   7.413  0.4963  0.0659 -1.7062
  929TIP3    H224347   0.279   6.915   7.414 -0.8630 -0.6375  0.0150
  930TIP3   OH224348   2.252   3.993   0.011  0.0381 -0.3930 -0.1160
  930TIP3    H124349   2.238   4.045  -0.068 -0.8429 -0.0729  0.2473
  930TIP3    H224350   2.200   3.915  -0.001  0.0829 -0.4491  0.0474
  931TIP3   OH224351   3.907   3.165   7.097  0.2174  0.7648 -0.0160
  931TIP3    H124352   3.840   3.109   7.058  0.8602 -0.5737  0.8088
  931TIP3    H224353   3.966   3.186   7.024  0.1340  0.1407 -0.2628
  932TIP3   OH224354   0.553   0.573   1.975 -0.5965  0.1959 -0.6240
  932TIP3    H124355   0.547   0.574   1.880 -1.2619 -2.9684 -0.6659
  932TIP3    H224356   0.467   0.604   2.005 -1.7009 -2.2880 -1.1013
  933TIP3   OH224357   3.307   2.708   1.205  0.2977 -0.3200  0.1736
  933TIP3    H124358   3.216   2.704   1.175  0.9713 -1.5473 -1.7460
  933TIP3    H224359   3.340   2.792   1.172 -0.2865  0.4193  1.4040
  934TIP3   OH224360   3.839   1.794   6.083 -0.3084  0.3843 -0.1088
  934TIP3    H124361   3.932   1.793   6.106 -0.1123  0.6733 -0.8945
  934TIP3    H224362   3.822   1.708   6.046 -1.1132 -0.8704  3.0005
  935TIP3   OH224363   3.955   2.591   6.931  0.1769 -0.2985 -0.2285
  935TIP3    H124364   3.965   2.684   6.951  1.0398 -0.3557 -0.3870
  935TIP3    H224365   4.011   2.547   6.995 -0.5373 -0.7328  0.1026
  936TIP3   OH224366   1.916   3.193   1.891  0.5966  0.3601 -0.3723
  936TIP3    H124367   1.943   3.233   1.974  1.2041 -1.5068  0.3602
  936TIP3    H224368   1.985   3.218   1.829  0.4767  1.2261 -0.1612
  937TIP3   OH224369   5.446   2.202   7.072 -0.2951  0.8062  0.3173
  937TIP3    H124370   5.417   2.203   7.164  0.0069  1.8659  0.4091
  937TIP3    H224371   5.365   2.197   7.022 -0.6167  2.8300  0.5921
  938TIP3   OH224372   4.195   0.599   6.667  0.0209 -0.0336  0.5340
  938TIP3    H124373   4.232   0.633   6.748  0.5025  1.2829 -0.2209
  938TIP3    H224374   4.240   0.647   6.598 -0.6193 -0.9049 -0.5087
  939TIP3   OH224375   3.547   6.385   7.472 -0.1666 -1.2653  0.4167
  939TIP3    H124376   3.542   6.413   7.563 -0.0454  0.0890  0.0150
  939TIP3    H224377   3.620   6.436   7.435 -1.7133 -0.0416 -1.0397
  940TIP3   OH224378   3.879   5.479   1.150  0.2633  0.5388  0.1579
  940TIP3    H124379   3.799   5.427   1.153  0.3590  0.4346  0.9358
  940TIP3    H224380   3.934   5.434   1.086 -0.4424  0.8279 -0.6614
  941TIP3   OH224381   2.542   5.858   0.528  0.5320  0.2162 -0.3898
  941TIP3    H124382   2.558   5.779   0.477 -0.1496 -0.3498  0.2616
  941TIP3    H224383   2.539   5.928   0.463  0.1578 -0.4291 -1.0728
  942TIP3   OH224384   5.522   4.364   7.177 -0.1620 -0.4562  0.2126
  942TIP3    H124385   5.446   4.336   7.126 -0.7690  2.3532 -0.5287
  942TIP3    H224386   5.495   4.447   7.216  2.2299  0.1766  0.5927
  943TIP3   OH224387   5.903   7.106   6.759  0.0279  0.1874  0.2826
  943TIP3    H124388   5.956   7.032   6.789 -0.4054 -0.6663 -1.0343
  943TIP3    H224389   5.954   7.145   6.688  0.3445  1.2834  1.1005
  944TIP3   OH224390   5.512   6.594   7.015 -0.1356 -0.2050  0.3483
  944TIP3    H124391   5.448   6.663   7.002  0.4137  0.4606  1.1256
  944TIP3    H224392   5.593   6.627   6.975 -0.0867 -0.7412 -0.0081
  945TIP3   OH224393   2.022   5.734   0.720  0.5431  0.4589 -0.3860
  945TIP3    H124394   2.087   5.670   0.748  1.0459 -0.0642 -2.6236
  945TIP3    H224395   2.048   5.757   0.631 -1.9670  0.7314 -1.0810
  946TIP3   OH224396   1.525   0.441   7.170 -0.7449  0.9902  0.5960
  946TIP3    H124397   1.482   0.502   7.231 -0.9290  2.0193 -0.5426
  946TIP3    H224398   1.463   0.368   7.162 -0.4572  0.5468  2.0906
  947TIP3   OH224399   0.519   5.699   6.116 -0.0429  0.0488  0.3646
  947TIP3    H124400   0.431   5.726   6.143  0.6027  1.7399  0.8319
  947TIP3    H224401   0.545   5.764   6.050  1.0544 -0.1407  0.6058
  948TIP3   OH224402   2.257   5.408   0.528 -0.0394  0.1551  0.4114
  948TIP3    H124403   2.270   5.482   0.587 -0.6143 -1.2230  2.3217
  948TIP3    H224404   2.163   5.389   0.534 -0.3549  0.7908 -1.9604
  949TIP3   OH224405   0.118   1.242   5.922 -0.5504  0.2645 -0.3418
  949TIP3    H124406   0.060   1.285   5.859 -0.1012  2.2935  0.5708
  949TIP3    H224407   0.105   1.292   6.003  1.1854 -0.3535  0.3272
  950TIP3   OH224408   0.499   1.745   6.939  0.1373  0.6117 -0.0586
  950TIP3    H124409   0.500   1.707   7.027 -2.0434  1.5445  0.4048
  950TIP3    H224410   0.591   1.758   6.917  0.8772 -2.7925  0.6835
  951TIP3   OH224411   3.530   6.080   0.755 -0.0349  0.1573 -0.7876
  951TIP3    H124412   3.551   6.041   0.670  0.6999 -1.6149  0.1910
  951TIP3    H224413   3.583   6.032   0.817  1.4929  3.2414  0.3941
  952TIP3   OH224414   0.682   6.019   1.089 -0.0944 -0.0326 -0.4514
  952TIP3    H124415   0.651   5.930   1.104 -0.8636  0.8546  4.0069
  952TIP3    H224416   0.777   6.014   1.100 -0.1355 -0.2960 -0.2314
  953TIP3   OH224417   5.106   0.483   1.569 -0.0264 -0.3993  0.3321
  953TIP3    H124418   5.131   0.572   1.595 -0.7399  0.2783 -1.2206
  953TIP3    H224419   5.057   0.449   1.643 -0.3334  0.7633  0.6766
  954TIP3   OH224420   0.826   6.788   6.469  0.0604  0.2042  0.0830
  954TIP3    H124421   0.731   6.795   6.482 -0.1831 -2.6330  0.2621
  954TIP3    H224422   0.840   6.815   6.379 -0.5990  2.8192  0.7358
  955TIP3   OH224423   3.112   7.052   7.715 -0.0814 -0.1194  0.4187
  955TIP3    H124424   3.126   6.974   7.768 -0.3297 -0.7856 -0.4908
  955TIP3    H224425   3.154   7.122   7.765 -0.1440 -0.7662  1.3989
  956TIP3   OH224426   2.039   5.566   7.697 -0.1843  0.2332 -0.2289
  956TIP3    H124427   2.013   5.477   7.720  0.9790 -0.5114 -1.7382
  956TIP3    H224428   2.120   5.581   7.746 -1.1387  1.0253  1.1677
  957TIP3   OH224429   6.914   6.389   5.926  0.4413  0.0192 -0.1938
  957TIP3    H124430   6.836   6.358   5.972  1.0449 -1.2507 -0.0306
  957TIP3    H224431   6.914   6.341   5.844  1.6696 -0.8013  0.2903
  958TIP3   OH224432   1.283   0.195   6.625 -0.0350 -0.3945 -0.2165
  958TIP3    H124433   1.274   0.266   6.562 -1.0022 -1.8046 -1.7187
  958TIP3    H224434   1.276   0.115   6.572  2.4555 -1.6286  1.2186
  959TIP3   OH224435   5.589   1.381   7.498 -0.3071  0.0098 -0.0403
  959TIP3    H124436   5.638   1.411   7.421 -0.5562  0.0843 -0.1699
  959TIP3    H224437   5.624   1.434   7.570  1.8805 -1.9604  0.4129
  960TIP3   OH224438   0.901   4.632   0.371 -0.6285 -0.1357  0.4166
  960TIP3    H124439   0.943   4.711   0.406 -1.1759 -0.0058  0.7869
  960TIP3    H224440   0.852   4.596   0.445 -1.2440 -0.2364 -0.0377
  961TIP3   OH224441   1.323   0.745   1.042  0.4610  0.2824  0.1214
  961TIP3    H124442   1.248   0.755   1.101 -1.1550 -1.3980 -1.5807
  961TIP3    H224443   1.299   0.796   0.964  0.0545 -2.0768 -1.3388
  962TIP3   OH224444   0.564   6.773   6.482  0.3103 -0.5444  0.1414
  962TIP3    H124445   0.577   6.691   6.435  0.7058 -1.6794  2.1626
  962TIP3    H224446   0.536   6.746   6.569  2.0159  1.4079  1.3475
  963TIP3   OH224447   5.680   1.743   6.623  0.2271  0.2706 -0.5944
  963TIP3    H124448   5.692   1.836   6.606  1.4026  0.7417  2.3894
  963TIP3    H224449   5.595   1.722   6.585  0.4024  2.2987 -2.1932
  964TIP3   OH224450   6.987   4.309   7.598 -0.1031  0.7955 -0.5263
  964TIP3    H124451   7.023   4.363   7.528  0.1895  0.6897 -0.4561
  964TIP3    H224452   6.898   4.342   7.610 -0.3609  0.4107 -1.3600
  965TIP3   OH224453   0.044   6.681   1.661 -0.4541 -0.3420 -0.3483
  965TIP3    H124454  -0.026   6.627   1.699 -0.2678  0.0852  0.6159
  965TIP3    H224455   0.068   6.635   1.580 -2.6889  0.1629 -1.3343
  966TIP3   OH224456   6.128   6.011   6.885  0.3808 -0.3405  0.3900
  966TIP3    H124457   6.188   6.074   6.845  1.8700 -2.5127 -0.8759
  966TIP3    H224458   6.056   6.065   6.919  2.6517  2.2419  1.2774
  967TIP3   OH224459   2.798   0.157   7.603  0.4845  0.9898  0.2608
  967TIP3    H124460   2.723   0.168   7.545  0.6202 -1.9001 -0.5222
  967TIP3    H224461   2.874   0.166   7.545  0.7146  2.2690  0.7566
  968TIP3   OH224462   4.957   4.473   0.993  0.2136 -0.1150 -0.3922
  968TIP3    H124463   5.005   4.506   1.069 -1.7085  1.2518  0.2686
  968TIP3    H224464   4.993   4.386   0.978  1.0900 -0.1375  1.6724
  969TIP3   OH224465   5.845   5.251   7.811  0.2605  0.0662 -0.7951
  969TIP3    H124466   5.824   5.317   7.744  1.8602  0.4252 -0.9789
  969TIP3    H224467   5.909   5.194   7.768  2.8828  1.5031  1.0421
  970TIP3   OH224468   6.585   0.460   1.918 -0.5972 -0.7190 -0.5221
  970TIP3    H124469   6.672   0.443   1.954 -0.7014 -1.1166 -0.4623
  970TIP3    H224470   6.537   0.502   1.990 -0.7180 -1.2619 -0.2878
  971TIP3   OH224471   3.475   4.725   7.937 -0.0695 -0.3445  0.3448
  971TIP3    H124472   3.473   4.632   7.957  0.5576 -0.5607 -0.5644
  971TIP3    H224473   3.446   4.731   7.846  1.7405  0.1481 -0.2384
  972TIP3   OH224474   0.087   1.029   7.035 -0.1334 -0.7441 -0.6155
  972TIP3    H124475   0.137   0.972   7.093 -3.6422 -3.5895 -0.2054
  972TIP3    H224476   0.055   0.971   6.966 -1.8102  1.1799 -1.5372
  973TIP3   OH224477   5.707   6.419   5.975  0.3430  0.3692  0.9328
  973TIP3    H124478   5.787   6.429   5.922  0.3332 -0.2187  0.8086
  973TIP3    H224479   5.729   6.352   6.039 -0.5271 -0.8141 -0.0021
  974TIP3   OH224480   0.403   5.329   7.655 -0.2578  0.1389  0.2086
  974TIP3    H124481   0.491   5.291   7.664 -1.2360 -1.5594  3.3347
  974TIP3    H224482   0.417   5.423   7.666  1.1036 -0.1799  1.4930
  975TIP3   OH224483   5.850   1.939   7.523  0.0761  0.1637 -0.3379
  975TIP3    H124484   5.841   2.033   7.508 -1.3397  0.1122  0.1323
  975TIP3    H224485   5.944   1.926   7.535  0.3465  1.4219 -1.0110
  976TIP3   OH224486   4.824   6.505   7.968 -0.7091 -0.1322  0.1673
  976TIP3    H124487   4.759   6.439   7.944 -1.2138  0.8533 -1.2838
  976TIP3    H224488   4.799   6.534   8.055 -1.5395 -0.5536  0.0691
  977TIP3   OH224489   0.031   2.083   7.476 -0.1580 -0.1990 -0.2338
  977TIP3    H124490   0.090   2.157   7.460 -2.7208  2.2882  1.4155
  977TIP3    H224491   0.008   2.051   7.389 -0.3097  2.0189 -1.0302
  978TIP3   OH224492   3.260   2.656   6.533 -0.9477  0.3841 -0.0700
  978TIP3    H124493   3.327   2.715   6.498 -0.5680  0.7302  1.2371
  978TIP3    H224494   3.177   2.700   6.515 -0.7553  0.5543 -0.5472
  979TIP3   OH224495   3.099   1.277   5.861 -0.6900  0.6460  0.2418
  979TIP3    H124496   3.059   1.354   5.901 -1.9197 -0.0069  0.3130
  979TIP3    H224497   3.025   1.220   5.839  0.2100 -0.6774  0.5359
  980TIP3   OH224498   4.732   1.911   7.690  0.2303  0.7623 -0.5336
  980TIP3    H124499   4.759   1.876   7.775 -0.5063  1.7577  0.1295
  980TIP3    H224500   4.789   1.987   7.676  0.4135  0.5465 -0.9788
  981TIP3   OH224501   6.588   2.138   7.276 -0.5104 -0.1920  0.1441
  981TIP3    H124502   6.545   2.056   7.301 -1.0070 -0.5331 -1.7460
  981TIP3    H224503   6.565   2.199   7.346 -0.8683 -1.4207  1.1310
  982TIP3   OH224504   4.559   4.148   0.904 -0.5893 -0.6809  0.1676
  982TIP3    H124505   4.514   4.226   0.936 -0.1047 -0.1607 -0.4083
  982TIP3    H224506   4.638   4.182   0.860 -1.3203 -1.3510 -1.7264
  983TIP3   OH224507   6.218   0.955   7.344 -1.1200 -0.4113 -0.2532
  983TIP3    H124508   6.308   0.967   7.375 -0.1679 -0.8877 -2.7170
  983TIP3    H224509   6.164   0.984   7.418  1.0316  2.6998  0.2347
  984TIP3   OH224510   6.398   2.234   7.780 -0.8246  0.7726  0.8183
  984TIP3    H124511   6.366   2.284   7.705 -0.5700 -0.5429 -0.1929
  984TIP3    H224512   6.364   2.280   7.856 -1.6796  1.7293 -0.1278
  985TIP3   OH224513   6.698   1.273   7.341  0.3564  0.2993 -0.3064
  985TIP3    H124514   6.663   1.347   7.291  2.5337  1.8566  0.3862
  985TIP3    H224515   6.775   1.245   7.291  1.3012  0.4965  1.0050
  986TIP3   OH224516   0.101   5.629   5.989  0.6413  0.3590  0.8960
  986TIP3    H124517   0.147   5.692   5.934  0.2925 -0.0988  0.0646
  986TIP3    H224518   0.008   5.646   5.972  0.5505 -0.6200  0.3731
  987TIP3   OH224519   5.750   0.647   6.646 -0.3677  0.4314 -0.4800
  987TIP3    H124520   5.822   0.707   6.628  1.3193 -1.7537 -1.3139
  987TIP3    H224521   5.673   0.689   6.608  0.6638  2.2865 -0.5718
  988TIP3   OH224522   5.563   2.485   7.323 -0.1185  0.1100  0.1369
  988TIP3    H124523   5.595   2.454   7.238 -0.5167  1.2463 -0.4514
  988TIP3    H224524   5.531   2.406   7.367 -1.0345 -0.3452 -1.2736
  989TIP3   OH224525   3.972   0.878   7.456 -0.1357 -0.4266  0.0415
  989TIP3    H124526   3.986   0.797   7.406  0.5666 -0.4656  0.2969
  989TIP3    H224527   3.906   0.927   7.405 -1.6914 -1.8216  0.6668
  990TIP3   OH224528   3.915   1.768   7.393 -0.1801  0.2674  0.2741
  990TIP3    H124529   3.916   1.862   7.375 -1.2354  0.1379 -0.5009
  990TIP3    H224530   4.003   1.739   7.372 -0.2438  0.8426 -0.8326
  991TIP3   OH224531   6.593   3.843   1.539  0.0557  0.4528  0.1872
  991TIP3    H124532   6.573   3.891   1.620 -0.5986  1.0086 -0.2913
  991TIP3    H224533   6.610   3.912   1.475  0.9454  0.0058 -0.0517
  992TIP3   OH224534   6.306   0.393   6.863 -0.3028  0.3786  0.5594
  992TIP3    H124535   6.242   0.427   6.925 -0.8198  0.8654 -0.2303
  992TIP3    H224536   6.350   0.322   6.910 -1.7432 -0.2720  0.9484
  993TIP3   OH224537   1.087   1.686   0.606  0.5221 -0.0632 -0.0334
  993TIP3    H124538   1.145   1.730   0.668  1.2428 -0.9916 -0.0317
  993TIP3    H224539   1.105   1.593   0.619 -1.0033 -0.3704 -0.0035
  994TIP3   OH224540   4.495   3.226   0.977  0.5953 -0.0680  0.5344
  994TIP3    H124541   4.437   3.284   1.025 -2.7729 -1.7733 -1.3529
  994TIP3    H224542   4.526   3.279   0.903 -0.7420 -0.0071  0.0161
  995TIP3   OH224543   2.638   0.694   0.312 -0.3571  0.3862  0.5103
  995TIP3    H124544   2.722   0.722   0.274  0.1783 -0.1460  1.3165
  995TIP3    H224545   2.598   0.639   0.244  0.3424 -0.0873  0.4820
  996TIP3   OH224546   3.719   1.285   7.354 -0.2121 -0.0994 -0.3017
  996TIP3    H124547   3.667   1.342   7.412  1.5695  0.7022  0.5499
  996TIP3    H224548   3.798   1.265   7.405  0.2568 -1.4108 -1.5249
  997TIP3   OH224549   3.702   2.451   6.351 -0.2711  0.3017 -0.5405
  997TIP3    H124550   3.718   2.416   6.264 -1.6114  1.7332 -1.3753
  997TIP3    H224551   3.778   2.423   6.402 -0.4945 -2.4136 -1.5801
  998TIP3   OH224552   5.227   1.415   6.278  0.0570  0.1098  0.2712
  998TIP3    H124553   5.154   1.442   6.223 -0.4243  1.2608  1.4393
  998TIP3    H224554   5.188   1.355   6.342  0.3442 -0.1214  0.2331
  999TIP3   OH224555   6.108   2.477   6.027  0.3003 -0.3872  0.3077
  999TIP3    H124556   6.140   2.554   6.073  0.3971 -0.5114  0.4523
  999TIP3    H224557   6.181   2.449   5.973 -0.6420  1.2343 -1.8737
 1000TIP3   OH224558   4.739   0.810   0.045 -0.4394  0.0647  0.5372
 1000TIP3    H124559   4.810   0.748   0.025  0.6251  1.2538  0.5681
 1000TIP3    H224560   4.666   0.754   0.071  0.9885 -1.1272  2.1342
 1001TIP3   OH224561   4.655   5.837   7.468 -0.2196  0.2772  0.3685
 1001TIP3    H124562   4.595   5.901   7.430 -0.6167 -1.7541 -2.6190
 1001TIP3    H224563   4.742   5.869   7.445 -0.3628  0.6254  0.3148
 1002TIP3   OH224564   2.659   2.811   6.002  0.5988 -0.2116  0.4290
 1002TIP3    H124565   2.571   2.819   6.039  0.4450  2.8671 -0.5038
 1002TIP3    H224566   2.705   2.888   6.034  2.9703 -1.7422  0.8107
 1003TIP3   OH224567   5.390   2.200   1.411  0.2199  1.0847 -0.2275
 1003TIP3    H124568   5.344   2.182   1.494 -0.4646 -1.3691 -1.0880
 1003TIP3    H224569   5.467   2.250   1.437 -0.3200  0.9137  1.8333
 1004TIP3   OH224570   0.176   4.887   6.638 -0.0415 -0.6351 -0.1333
 1004TIP3    H124571   0.090   4.919   6.611  0.5710  0.3418 -0.9937
 1004TIP3    H224572   0.228   4.890   6.557  0.7902 -1.2225  0.3803
 1005TIP3   OH224573   2.507   1.376   6.760  0.1796  0.3336 -0.7356
 1005TIP3    H124574   2.530   1.284   6.763  1.4918  0.5200 -3.7276
 1005TIP3    H224575   2.430   1.381   6.704 -1.0087  0.8803  0.8984
 1006TIP3   OH224576   0.459   6.803   0.777  0.2158  0.2937 -0.4900
 1006TIP3    H124577   0.440   6.773   0.866 -0.2691  0.5228 -0.5099
 1006TIP3    H224578   0.488   6.725   0.730 -2.7779 -0.5659 -1.0260
 1007TIP3   OH224579   5.260   6.252   2.090 -0.0646  0.2504 -0.2761
 1007TIP3    H124580   5.195   6.201   2.041 -0.6659  1.4837 -0.7753
 1007TIP3    H224581   5.268   6.205   2.174  0.5547 -1.5446 -1.3027
 1008TIP3   OH224582   0.869   2.704   8.008  0.5240 -0.1259 -0.0457
 1008TIP3    H124583   0.934   2.716   7.939  0.5798 -1.9303 -0.3276
 1008TIP3    H224584   0.900   2.627   8.056 -0.7792 -0.2818  0.5473
 1009TIP3   OH224585   5.389   3.054   7.621  0.0444  1.0286 -0.3601
 1009TIP3    H124586   5.444   2.999   7.565  0.2474 -2.2543  2.8029
 1009TIP3    H224587   5.449   3.085   7.689 -1.2633  0.2918  1.1626
 1010TIP3   OH224588   4.025   1.681   6.333  0.2344  0.1157  0.1629
 1010TIP3    H124589   4.043   1.710   6.244 -1.1281  2.2522  0.5456
 1010TIP3    H224590   4.107   1.694   6.380  0.6540 -0.0226 -0.5247
 1011TIP3   OH224591   1.179   1.498   6.258 -0.2072  0.1116  0.0738
 1011TIP3    H124592   1.171   1.468   6.167 -0.3634 -1.2561  0.5231
 1011TIP3    H224593   1.261   1.461   6.289 -0.6195 -0.2351  0.7815
 1012TIP3   OH224594   5.901   2.906   0.761 -0.6790  0.0497 -0.1562
 1012TIP3    H124595   5.905   2.853   0.681 -4.0895 -2.4384  1.2006
 1012TIP3    H224596   5.982   2.885   0.807 -0.3349 -1.2536 -1.2941
 1013TIP3   OH224597   4.801   6.585   6.741  0.1768  0.6871 -0.3444
 1013TIP3    H124598   4.811   6.491   6.729 -0.9582  0.2691  1.7731
 1013TIP3    H224599   4.857   6.624   6.675 -2.5554 -1.4474 -4.0974
 1014TIP3   OH224600   6.944   6.342   1.244  0.3414  0.0664  0.1736
 1014TIP3    H124601   7.000   6.271   1.213 -0.6585 -0.0406 -1.4405
 1014TIP3    H224602   6.872   6.298   1.290  0.5709  0.1134  0.5795
 1015TIP3   OH224603   2.354   2.302   7.676 -0.0140 -0.1743 -0.3174
 1015TIP3    H124604   2.424   2.274   7.617  0.3640  0.3756 -0.1303
 1015TIP3    H224605   2.321   2.383   7.638 -0.0138 -0.0107  0.0274
 1016TIP3   OH224606   4.532   0.873   6.864  0.8084  0.0209  0.2053
 1016TIP3    H124607   4.612   0.894   6.815  2.3105  1.0535  3.0092
 1016TIP3    H224608   4.563   0.844   6.949 -1.8119 -0.3952  1.0603
 1017TIP3   OH224609   3.064   3.437   6.008  0.2827 -0.5683  0.0705
 1017TIP3    H124610   3.051   3.532   6.012  1.1679 -0.3785 -1.2073
 1017TIP3    H224611   2.999   3.407   5.944  0.5377 -0.7203 -0.1159
 1018TIP3   OH224612   0.986   1.537   6.446 -0.3074 -0.1800 -0.0147
 1018TIP3    H124613   1.046   1.565   6.515 -1.5833 -0.6460  1.3418
 1018TIP3    H224614   1.037   1.541   6.366  1.0744  0.8735  0.8912
 1019TIP3   OH224615   5.523   0.308   6.415 -0.4741  0.2961 -0.1397
 1019TIP3    H124616   5.579   0.248   6.366  0.1069  0.0779  0.7816
 1019TIP3    H224617   5.557   0.395   6.394 -1.6240  0.3515 -1.8605
 1020TIP3   OH224618   0.417   0.608   7.252 -0.3197  0.0606 -0.1400
 1020TIP3    H124619   0.373   0.543   7.307  1.3526 -0.0914  1.0485
 1020TIP3    H224620   0.401   0.578   7.162  0.0379 -1.7533  0.3757
 1021TIP3   OH224621   4.637   5.729   0.161  0.2452 -0.2968 -0.0734
 1021TIP3    H124622   4.713   5.787   0.155 -0.1049  0.1274 -0.4230
 1021TIP3    H224623   4.667   5.646   0.123 -0.8149  1.2265 -4.4954
 1022TIP3   OH224624   0.181   0.676   5.620 -0.3167 -0.2364 -0.5706
 1022TIP3    H124625   0.103   0.715   5.660  0.8550 -0.7737  2.4285
 1022TIP3    H224626   0.172   0.582   5.638  2.3355 -0.0177  2.4589
 1023TIP3   OH224627   6.776   4.307   0.120  0.1486 -0.3757  0.1202
 1023TIP3    H124628   6.689   4.334   0.150 -0.2608 -0.6166 -0.8149
 1023TIP3    H224629   6.835   4.375   0.154 -0.5520  0.3976 -0.1726
 1024TIP3   OH224630   5.238   5.151   0.086  0.3572 -0.0490 -0.2270
 1024TIP3    H124631   5.168   5.191   0.034 -0.8646  0.1838  1.5358
 1024TIP3    H224632   5.197   5.074   0.125  1.9528 -1.5571 -1.4747
 1025TIP3   OH224633   5.888   4.907   7.204 -0.6307  0.6596 -0.3753
 1025TIP3    H124634   5.823   4.947   7.261 -0.3742 -0.3664  0.6720
 1025TIP3    H224635   5.850   4.911   7.116 -1.7655  0.7448  0.1196
 1026TIP3   OH224636   5.487   6.261   7.341  0.0402  0.2528 -0.1441
 1026TIP3    H124637   5.561   6.202   7.354 -0.5117 -0.5557 -0.5587
 1026TIP3    H224638   5.472   6.301   7.426  1.7559  1.4001 -0.3631
 1027TIP3   OH224639   6.416   3.122   0.983  0.0505  0.0646  0.0298
 1027TIP3    H124640   6.351   3.159   0.924  0.1073  0.3776  0.1646
 1027TIP3    H224641   6.378   3.133   1.070 -0.1303 -0.5890  0.0342
 1028TIP3   OH224642   4.776   4.930   7.836  0.0744 -0.0379 -0.3335
 1028TIP3    H124643   4.708   4.904   7.899  0.0936  1.2370  0.2241
 1028TIP3    H224644   4.858   4.924   7.885  0.1485  0.4122 -0.4015
 1029TIP3   OH224645   6.311   5.535   7.391  0.1633  0.2031 -0.0570
 1029TIP3    H124646   6.288   5.562   7.302  0.9274 -1.0576 -0.6517
 1029TIP3    H224647   6.241   5.475   7.417 -0.5475  1.2731  0.5576
 1030TIP3   OH224648   1.700   1.785   0.919  0.5936  0.0988  0.2006
 1030TIP3    H124649   1.608   1.778   0.945  0.7118  0.0647  0.6128
 1030TIP3    H224650   1.710   1.719   0.850  0.3345  0.0346  0.2216
 1031TIP3   OH224651   5.457   2.628   7.931  0.0933  0.4304  0.3928
 1031TIP3    H124652   5.505   2.545   7.929 -1.2070 -0.3709  1.1192
 1031TIP3    H224653   5.371   2.604   7.967 -1.4025  1.5261 -2.3315
 1032TIP3   OH224654   0.338   3.262   7.216 -0.3516 -0.0612 -0.8928
 1032TIP3    H124655   0.325   3.351   7.184  3.0371  0.2541 -1.4888
 1032TIP3    H224656   0.326   3.268   7.311  1.7425  1.4073 -0.7157
 1033TIP3   OH224657   0.247   6.911   6.845 -0.9721 -0.4973 -0.0680
 1033TIP3    H124658   0.249   6.896   6.939  0.9656 -1.3054 -0.2169
 1033TIP3    H224659   0.269   7.004   6.835 -2.9267  0.0336  0.3392
 1034TIP3   OH224660   6.925   1.162   7.210 -0.0711 -0.3779 -0.7399
 1034TIP3    H124661   6.959   1.103   7.277 -2.6666 -0.8571  0.2473
 1034TIP3    H224662   6.895   1.104   7.140  1.8010  0.0704 -1.9238
 1035TIP3   OH224663   5.689   5.672   0.301 -0.0596  0.3064 -0.3206
 1035TIP3    H124664   5.763   5.611   0.309 -1.3958 -1.3250  0.0152
 1035TIP3    H224665   5.679   5.685   0.207  0.2004 -0.0400 -0.3983
 1036TIP3   OH224666   1.143   2.501   0.883 -0.1836  0.1031 -0.0849
 1036TIP3    H124667   1.215   2.488   0.822 -0.4609  0.3562 -0.4734
 1036TIP3    H224668   1.074   2.443   0.851  0.5835 -1.7394  1.5298
 1037TIP3   OH224669   7.071   2.420   7.980  0.1015  0.4482 -0.0522
 1037TIP3    H124670   7.088   2.379   7.895 -0.2911  1.7228 -0.7553
 1037TIP3    H224671   7.111   2.506   7.974 -0.6677  0.8749  0.7427
 1038TIP3   OH224672   6.557   1.913   6.342 -0.1062 -0.2302  0.1100
 1038TIP3    H124673   6.608   1.835   6.322 -0.5452 -0.4414 -0.1924
 1038TIP3    H224674   6.489   1.916   6.274 -1.7561 -1.0956  1.6836
 1039TIP3   OH224675   4.050   6.735   0.260 -0.1633  0.3528 -0.1695
 1039TIP3    H124676   3.996   6.697   0.329 -0.0226  1.7351  0.7188
 1039TIP3    H224677   4.067   6.663   0.200 -2.8788 -0.1354 -0.3840
 1040TIP3   OH224678   5.519   5.711   7.909  0.1400 -0.3503  0.0255
 1040TIP3    H124679   5.483   5.783   7.856  1.4451  0.4332  0.1981
 1040TIP3    H224680   5.521   5.745   7.998 -0.4693 -1.0705  0.3141
 1041TIP3   OH224681   4.932   7.094   6.541  0.0457  0.0463 -0.0500
 1041TIP3    H124682   4.858   7.051   6.498  0.2905  0.9944 -1.4650
 1041TIP3    H224683   5.005   7.081   6.481  0.5609  0.8220  0.4025
 1042TIP3   OH224684   5.322   5.942   0.243  0.0457  0.2255 -0.2280
 1042TIP3    H124685   5.316   5.937   0.339  2.0769  2.1020  0.0322
 1042TIP3    H224686   5.279   6.025   0.221  1.2412  0.7210 -0.7477
 1043TIP3   OH224687   5.210   5.152   6.827 -0.3608  0.3030  0.7152
 1043TIP3    H124688   5.146   5.114   6.767 -0.4656  0.2846  0.8388
 1043TIP3    H224689   5.195   5.246   6.821 -0.5308  0.2875  0.8902
 1044TIP3   OH224690   0.871   3.309   6.383 -0.5420  0.3844  0.0482
 1044TIP3    H124691   0.927   3.330   6.308 -1.0508 -0.4692 -0.5760
 1044TIP3    H224692   0.928   3.321   6.459  0.0693  0.9341 -0.4924
 1045TIP3   OH224693   5.536   4.428   0.130 -0.6179  0.5467 -0.6682
 1045TIP3    H124694   5.592   4.505   0.141 -0.2232  0.2333 -0.4469
 1045TIP3    H224695   5.491   4.419   0.214 -1.6304  1.2838 -1.1216
 1046TIP3   OH224696   0.480   2.132   0.304  0.5795 -0.0380  1.0761
 1046TIP3    H124697   0.480   2.165   0.394 -1.6806  1.6512  0.5085
 1046TIP3    H224698   0.432   2.049   0.309  1.9332 -0.7820  1.7037
 1047TIP3   OH224699   5.628   0.116   6.614 -0.0178 -0.3494 -0.3582
 1047TIP3    H124700   5.545   0.084   6.578  0.7526 -2.4325 -0.3298
 1047TIP3    H224701   5.645   0.197   6.566 -1.7977 -0.1728 -0.7335
 1048TIP3   OH224702   5.294   0.179   7.570  0.1448  0.4678  0.3357
 1048TIP3    H124703   5.367   0.200   7.628  0.8075 -0.2654 -0.2149
 1048TIP3    H224704   5.313   0.091   7.538 -1.5251 -0.1567  0.9828
 1049TIP3   OH224705   4.574   6.293   6.723 -0.0260  0.4161 -0.1645
 1049TIP3    H124706   4.665   6.282   6.698 -0.1781  0.9953 -0.9851
 1049TIP3    H224707   4.535   6.342   6.651 -0.6330  1.4561  0.8450
 1050TIP3   OH224708   4.721   0.354   6.923  0.0887 -0.0189 -0.1939
 1050TIP3    H124709   4.657   0.405   6.974  0.4603 -0.0087  0.2621
 1050TIP3    H224710   4.706   0.381   6.832 -1.4760 -1.0011 -0.2502
 1051TIP3   OH224711   1.308   5.866   6.309 -0.0159  0.2596 -0.2893
 1051TIP3    H124712   1.343   5.940   6.358 -0.2643  0.6107 -0.6451
 1051TIP3    H224713   1.327   5.790   6.365  1.5753  0.3995 -0.5978
 1052TIP3   OH224714   0.397   2.065   5.992  0.1026 -0.2124  0.0029
 1052TIP3    H124715   0.302   2.076   5.988  0.0468 -0.2351  1.3284
 1052TIP3    H224716   0.416   2.009   5.916 -0.9251 -0.1408 -0.3262
 1053TIP3   OH224717   2.995   2.692   6.904 -0.1720 -0.2365 -0.0500
 1053TIP3    H124718   3.020   2.608   6.868  1.2454 -0.0426  0.4691
 1053TIP3    H224719   3.037   2.696   6.990 -2.7530 -0.3017  1.2524
 1054TIP3   OH224720   1.792   5.661   2.243  0.1465 -0.1900  0.1400
 1054TIP3    H124721   1.770   5.745   2.203  0.9244 -0.0221  0.0487
 1054TIP3    H224722   1.819   5.605   2.170  4.7049  1.1166  0.6904
 1055TIP3   OH224723   6.086   2.900   1.386 -0.3332  0.1423 -0.7093
 1055TIP3    H124724   6.035   2.971   1.347  1.8591  2.5133  0.5851
 1055TIP3    H224725   6.059   2.899   1.478 -0.7250 -1.0786 -0.8271
 1056TIP3   OH224726   6.179   2.722   6.177 -0.6089 -0.1534  0.8264
 1056TIP3    H124727   6.097   2.770   6.161  0.1753  0.8845 -0.1278
 1056TIP3    H224728   6.247   2.789   6.177  0.6540 -1.3500 -1.6499
 1057TIP3   OH224729   6.807   5.530   0.022  0.3264 -0.6232 -0.2400
 1057TIP3    H124730   6.861   5.481   0.084  0.1494 -1.1179 -0.4744
 1057TIP3    H224731   6.786   5.467  -0.046  1.5995  0.2517 -1.4827
 1058TIP3   OH224732   0.797   4.590   6.168  0.0133  0.7023  0.1963
 1058TIP3    H124733   0.740   4.544   6.229 -0.4077  1.3343  0.2827
 1058TIP3    H224734   0.747   4.666   6.141  0.5546  0.9057 -0.2462
 1059TIP3   OH224735   0.116   1.431   7.527 -0.4399  0.0821  0.6292
 1059TIP3    H124736   0.127   1.393   7.614 -1.4472  1.3395  1.3257
 1059TIP3    H224737   0.143   1.523   7.538  0.2612  0.0362 -0.5939
 1060TIP3   OH224738   0.294   1.685   7.448 -0.2652 -0.6208 -0.5918
 1060TIP3    H124739   0.305   1.722   7.360  1.2368 -1.1326 -0.6481
 1060TIP3    H224740   0.332   1.597   7.442 -1.0986 -1.0526  0.3042
 1061TIP3   OH224741   4.083   2.434   0.889  0.1118  0.2651  0.4899
 1061TIP3    H124742   3.998   2.425   0.932 -0.3371 -0.6871 -0.5688
 1061TIP3    H224743   4.137   2.482   0.951 -0.9726  0.1930  1.4925
 1062TIP3   OH224744   6.365   1.809   0.424 -0.0796 -0.0657  0.1420
 1062TIP3    H124745   6.345   1.840   0.336  0.6637 -3.1035 -1.1453
 1062TIP3    H224746   6.457   1.832   0.438 -0.4574  1.2446  0.5023
 1063TIP3   OH224747   1.908   4.613   7.931 -0.1471 -0.4210  1.2028
 1063TIP3    H124748   1.821   4.584   7.908  0.3154  0.3736 -1.6651
 1063TIP3    H224749   1.915   4.702   7.896  1.9996 -0.6916  0.8173
 1064TIP3   OH224750   6.487   6.037   7.069 -0.0285  0.6968 -0.1673
 1064TIP3    H124751   6.418   6.032   7.135 -0.3215  2.7203 -0.2897
 1064TIP3    H224752   6.457   6.103   7.007  1.9200  1.5044 -0.3012
 1065TIP3   OH224753   6.473   2.950   6.071  0.6100 -0.6917 -0.1599
 1065TIP3    H124754   6.473   2.870   6.020  0.1992 -1.0916  0.4608
 1065TIP3    H224755   6.425   3.013   6.018  0.0386 -1.1512 -0.1866
 1066TIP3   OH224756   5.406   4.794   0.077  0.0186  0.1851  0.0829
 1066TIP3    H124757   5.360   4.719   0.114 -0.4457  0.2422 -0.3734
 1066TIP3    H224758   5.493   4.761   0.056 -0.1912 -0.2299 -0.1330
 1067TIP3   OH224759   6.444   6.367   7.834  0.7100 -0.1436  0.3899
 1067TIP3    H124760   6.488   6.398   7.755 -0.5609  2.4461  0.6415
 1067TIP3    H224761   6.508   6.380   7.904  1.0188 -0.3164  0.1411
 1068TIP3   OH224762   1.554   2.261   7.012 -0.4787 -0.1191 -0.8776
 1068TIP3    H124763   1.629   2.301   7.056 -0.2230 -0.6821 -0.8011
 1068TIP3    H224764   1.586   2.176   6.982 -0.9796 -0.2071 -1.1685
 1069TIP3   OH224765   1.301   2.051   7.188  0.1664 -0.3445  0.1692
 1069TIP3    H124766   1.393   2.048   7.162 -0.4240 -0.8260 -1.9362
 1069TIP3    H224767   1.255   2.002   7.119 -1.3622 -2.3636  2.5308
 1070TIP3   OH224768   1.390   3.206   0.191 -0.8097 -0.0047 -0.0952
 1070TIP3    H124769   1.393   3.132   0.131  1.6846 -0.0201 -0.0149
 1070TIP3    H224770   1.384   3.167   0.278  0.3638 -0.1376 -0.0621
 1071TIP3   OH224771   1.407   2.117   6.445  0.5424 -0.0356 -0.6802
 1071TIP3    H124772   1.500   2.095   6.443  0.2562 -1.0503 -3.2293
 1071TIP3    H224773   1.403   2.203   6.403  0.2878 -0.1141 -0.8124
 1072TIP3   OH224774   6.394   0.721   7.004 -0.2402  0.3796 -0.0429
 1072TIP3    H124775   6.421   0.801   7.050  0.1436  0.8224 -1.0340
 1072TIP3    H224776   6.321   0.747   6.949 -0.2986 -0.0207 -0.1586
 1073TIP3   OH224777   0.451   4.090   5.923  0.2109  0.1258  0.5046
 1073TIP3    H124778   0.539   4.063   5.894  0.1647  0.7845 -0.2787
 1073TIP3    H224779   0.453   4.186   5.919 -1.6573  0.1265 -3.0138
 1074TIP3   OH224780   2.006   6.943   7.854  0.5275  0.1799  0.1885
 1074TIP3    H124781   2.085   6.898   7.884  1.5003 -0.3388 -2.9443
 1074TIP3    H224782   1.936   6.909   7.910  1.9832 -1.8603  0.8307
 1075TIP3   OH224783   3.149   4.704   7.422  0.1781  0.1599 -0.0262
 1075TIP3    H124784   3.133   4.787   7.468  1.1009 -0.3612  1.2374
 1075TIP3    H224785   3.079   4.646   7.453  1.2352 -0.4205  1.3032
 1076TIP3   OH224786   6.963   2.202   6.701  0.0300 -0.0301 -0.4927
 1076TIP3    H124787   6.977   2.217   6.607  1.3373 -0.3121 -0.3518
 1076TIP3    H224788   6.869   2.216   6.714 -0.0312  0.7424 -1.7112
 1077TIP3   OH224789   1.649   3.019   6.642 -0.5813 -0.1376  0.0926
 1077TIP3    H124790   1.744   3.023   6.631 -0.4264 -1.5655  0.8637
 1077TIP3    H224791   1.615   3.013   6.553  0.0833 -0.4634 -0.1421
 1078TIP3   OH224792   2.175   4.366   1.281 -0.4315 -0.5998 -0.4340
 1078TIP3    H124793   2.080   4.365   1.292 -0.2593  0.0952  1.3490
 1078TIP3    H224794   2.201   4.275   1.293 -0.7775 -0.6262  0.1904
 1079TIP3   OH224795   5.733   4.062   0.313 -0.1338 -0.3802 -0.3293
 1079TIP3    H124796   5.800   4.004   0.349 -0.3221  0.1563  0.9312
 1079TIP3    H224797   5.777   4.146   0.301 -0.3461 -0.2694 -0.3462
 1080TIP3   OH224798   1.044   0.460   6.680 -0.6269  0.0514 -0.5257
 1080TIP3    H124799   1.051   0.367   6.703 -0.3441 -0.1924 -1.5919
 1080TIP3    H224800   1.004   0.460   6.593  0.2511  0.8893 -0.9337
 1081TIP3   OH224801   5.371   1.869   1.027 -0.2569  0.1387 -0.2978
 1081TIP3    H124802   5.324   1.940   0.984  0.2185  0.5043 -0.2199
 1081TIP3    H224803   5.462   1.899   1.030 -0.0180 -0.5619 -0.4534
 1082TIP3   OH224804   2.587   2.920   6.567 -0.5207 -0.2015  0.5085
 1082TIP3    H124805   2.647   2.912   6.493  1.4083  0.2472  1.9839
 1082TIP3    H224806   2.634   2.880   6.641 -2.0848  0.0466  1.6672
 1083TIP3   OH224807   0.033   6.758   7.815  0.5204 -0.0508  0.2888
 1083TIP3    H124808   0.076   6.757   7.901 -0.0671  1.3283  0.6081
 1083TIP3    H224809   0.099   6.795   7.756  0.6831 -0.3598  0.2757
 1084TIP3   OH224810   0.989   5.657   6.642 -0.2292  0.0677  0.1592
 1084TIP3    H124811   1.023   5.568   6.650 -2.9169 -1.1424 -1.1119
 1084TIP3    H224812   0.901   5.653   6.680 -0.5898  2.0316 -0.3824
 1085TIP3   OH224813   6.946   3.519   1.378  0.4980  0.1031 -0.1087
 1085TIP3    H124814   6.934   3.463   1.455  0.5769 -0.3331 -0.4142
 1085TIP3    H224815   6.946   3.608   1.414 -0.9936 -0.0166  0.2126
 1086TIP3   OH224816   3.485   1.494   7.044 -0.3761  0.0210  0.5227
 1086TIP3    H124817   3.525   1.574   7.010 -0.4539 -0.4502 -0.7094
 1086TIP3    H224818   3.547   1.425   7.023 -0.2977 -0.2418  1.6071
 1087TIP3   OH224819   6.587   6.284   6.702  0.3079  0.1655 -0.1132
 1087TIP3    H124820   6.646   6.241   6.764  1.2017  0.0822 -1.0130
 1087TIP3    H224821   6.499   6.269   6.738  0.8633  0.9907  1.6784
 1088TIP3   OH224822   2.009   2.057   2.086  0.6504  0.4181 -0.3737
 1088TIP3    H124823   2.009   2.144   2.045 -1.2783  0.7103  0.1742
 1088TIP3    H224824   2.000   2.075   2.179 -0.5772 -0.3838 -0.3262
 1089TIP3   OH224825   0.908   4.793   1.160  0.5908 -0.8379  0.0580
 1089TIP3    H124826   0.864   4.792   1.245  2.2371  1.2150  0.9744
 1089TIP3    H224827   0.886   4.879   1.123  1.0755 -1.1477 -0.9630
 1090TIP3   OH224828   2.799   3.908   6.962 -0.1343 -0.2147  0.0211
 1090TIP3    H124829   2.773   3.874   7.048  1.5750  1.1956  1.1492
 1090TIP3    H224830   2.864   3.846   6.929 -0.8564 -0.8038 -0.2924
 1091TIP3   OH224831   1.557   6.662   6.783 -0.3398  0.4620 -0.1524
 1091TIP3    H124832   1.550   6.664   6.688 -2.1255  1.5983 -0.0238
 1091TIP3    H224833   1.502   6.588   6.810  1.3807 -0.8117 -0.0816
 1092TIP3   OH224834   5.971   4.757   0.328  0.6043 -0.1058 -0.1855
 1092TIP3    H124835   5.879   4.735   0.315  0.3134  1.0774 -0.1141
 1092TIP3    H224836   5.974   4.852   0.327  1.4921 -0.0808  2.1855
 1093TIP3   OH224837   0.574   2.733   5.946  0.6241  0.6411  0.3855
 1093TIP3    H124838   0.551   2.640   5.945  1.1848  0.4986 -1.4929
 1093TIP3    H224839   0.494   2.779   5.922  0.7221  0.5262 -0.1824
 1094TIP3   OH224840   6.881   2.509   7.091 -0.8570  0.2513  0.8603
 1094TIP3    H124841   6.920   2.597   7.088 -0.5347  0.0838 -0.3299
 1094TIP3    H224842   6.795   2.522   7.131 -1.5721  1.4034 -0.9984
 1095TIP3   OH224843   5.123   5.184   7.117  0.1473 -0.3903  0.1666
 1095TIP3    H124844   5.072   5.260   7.145 -2.7229 -2.2164  0.0750
 1095TIP3    H224845   5.156   5.207   7.031  0.2248  1.1813  0.6074
 1096TIP3   OH224846   3.382   2.731   8.054 -0.3063  0.5717 -0.2431
 1096TIP3    H124847   3.430   2.812   8.070 -0.1608  1.0074 -2.7010
 1096TIP3    H224848   3.290   2.756   8.062 -0.2505  0.8556 -0.4810
 1097TIP3   OH224849   6.452   3.021   6.963 -0.5016  0.1526  0.3709
 1097TIP3    H124850   6.503   2.971   6.900 -0.0242 -0.4175  1.2019
 1097TIP3    H224851   6.400   3.082   6.909  0.8711  0.5778 -0.4942
 1098TIP3   OH224852   1.137   5.421   6.653 -0.0019  0.3493  0.0024
 1098TIP3    H124853   1.188   5.401   6.731  1.6680 -1.1577 -1.4135
 1098TIP3    H224854   1.095   5.338   6.630  0.2749  0.5255 -1.2015
 1099TIP3   OH224855   1.672   3.780   7.189 -0.2973  0.4089 -0.0675
 1099TIP3    H124856   1.730   3.843   7.233  0.1159 -0.7035  1.0266
 1099TIP3    H224857   1.593   3.779   7.242 -0.6699  0.6936 -0.6164
 1100TIP3   OH224858   6.713   4.578   6.141 -0.4632  0.3996  0.3845
 1100TIP3    H124859   6.672   4.570   6.055 -1.5603  1.1270  0.8332
 1100TIP3    H224860   6.743   4.669   6.145  2.3266 -0.4358 -0.4270
 1101TIP3   OH224861   1.431   0.856   6.242  0.3921  0.3691  0.5867
 1101TIP3    H124862   1.455   0.846   6.150 -1.1509  1.0403  0.0892
 1101TIP3    H224863   1.380   0.778   6.263  0.4989  0.3516  0.7820
 1102TIP3   OH224864   1.126   1.204   6.673  0.3138  0.3736 -0.4230
 1102TIP3    H124865   1.112   1.118   6.712 -2.2018  1.0611  0.2547
 1102TIP3    H224866   1.093   1.267   6.738 -1.7945  1.6268 -2.5955
 1103TIP3   OH224867   0.943   5.353   7.701 -0.6303 -0.5547  0.2259
 1103TIP3    H124868   0.913   5.417   7.635 -0.5658 -1.0525 -0.2939
 1103TIP3    H224869   0.968   5.406   7.776 -0.5004  0.0451 -0.2329
 1104TIP3   OH224870   2.148   1.787   1.324 -0.5357 -0.3085 -0.0645
 1104TIP3    H124871   2.142   1.825   1.236  2.0157 -1.1573 -0.6179
 1104TIP3    H224872   2.144   1.693   1.310 -0.9350 -0.4306  0.8249
 1105TIP3   OH224873   5.674   4.407   0.629 -0.0076 -0.0807 -0.2077
 1105TIP3    H124874   5.674   4.340   0.696  0.6238 -0.1350 -0.2603
 1105TIP3    H224875   5.627   4.368   0.555 -0.6396 -0.0458  0.1662
 1106TIP3   OH224876   2.540   4.028   8.063  0.3751  0.5832  0.1529
 1106TIP3    H124877   2.452   3.989   8.064 -0.2974  2.0006 -0.6936
 1106TIP3    H224878   2.527   4.115   8.101  1.5358  0.5746  0.5659
 1107TIP3   OH224879   0.755   1.831   6.998  0.1525  0.8430 -0.5534
 1107TIP3    H124880   0.745   1.854   7.090  0.3785 -2.6020  0.3940
 1107TIP3    H224881   0.848   1.806   6.989 -1.0810 -4.5570 -0.2005
 1108TIP3   OH224882   0.836   2.930   7.630  0.4375 -0.3091 -0.3511
 1108TIP3    H124883   0.909   2.918   7.691  0.4848  0.0481 -0.3371
 1108TIP3    H224884   0.771   2.979   7.679 -0.8215 -2.6717  0.4257
 1109TIP3   OH224885   1.418   1.357   6.331  0.7700 -0.0998  0.3730
 1109TIP3    H124886   1.458   1.382   6.414  2.2616  1.0189 -0.6542
 1109TIP3    H224887   1.392   1.266   6.343 -0.8252  0.6117  2.7188
 1110TIP3   OH224888   2.595   6.698   1.991 -0.2010 -0.2582 -0.6744
 1110TIP3    H124889   2.663   6.740   2.043 -1.0830 -0.8130  0.9813
 1110TIP3    H224890   2.566   6.765   1.930  0.9595  0.3612 -0.5562
 1111TIP3   OH224891   2.570   6.889   0.832  0.0738  0.1887 -0.5274
 1111TIP3    H124892   2.632   6.856   0.897 -0.5129 -1.3780 -0.7413
 1111TIP3    H224893   2.600   6.851   0.749 -1.1097 -0.4934 -0.6478
 1112TIP3   OH224894   6.305   3.233   6.876 -0.1032  0.2923 -0.4859
 1112TIP3    H124895   6.250   3.296   6.829 -0.7233 -0.0694 -0.2521
 1112TIP3    H224896   6.296   3.258   6.968  0.4057  0.4490 -0.4763
 1113TIP3   OH224897   6.933   5.152   1.094 -0.2369  0.1187  0.3105
 1113TIP3    H124898   6.998   5.197   1.148 -0.3833 -1.1495  1.5767
 1113TIP3    H224899   6.858   5.211   1.091 -0.2010  0.2330  1.4657
 1114TIP3   OH224900   6.415   3.518   6.724 -0.6736  0.3440 -0.0218
 1114TIP3    H124901   6.438   3.580   6.655  4.3929 -2.7333 -1.4182
 1114TIP3    H224902   6.380   3.442   6.678  0.5795 -0.8338  0.9079
 1115TIP3   OH224903   3.882   6.335   0.310 -0.0049  0.0709 -0.0766
 1115TIP3    H124904   3.807   6.284   0.279  0.6272 -0.5031 -0.7242
 1115TIP3    H224905   3.845   6.416   0.343 -0.8645  0.0179 -0.8800
 1116TIP3   OH224906   2.144   3.442   6.666 -0.0325 -0.6918 -0.3775
 1116TIP3    H124907   2.056   3.474   6.645  0.1219 -0.5229 -0.7724
 1116TIP3    H224908   2.199   3.475   6.595  0.3518 -0.7890 -0.1248
 1117TIP3   OH224909   0.269   0.909   7.564 -0.6381  0.2461 -0.0665
 1117TIP3    H124910   0.174   0.910   7.575 -0.7443  0.3890 -0.9363
 1117TIP3    H224911   0.294   0.817   7.570 -1.0279  0.0495 -1.4062
 1118TIP3   OH224912   6.629   0.975   6.032 -0.0207 -0.3885 -0.1817
 1118TIP3    H124913   6.718   0.971   6.068 -0.3148 -1.1969  0.4574
 1118TIP3    H224914   6.591   1.054   6.072  0.1280 -0.5028  0.1902
 1119TIP3   OH224915   1.637   5.898   5.900  0.0087  0.1411  0.3797
 1119TIP3    H124916   1.584   5.818   5.897 -0.9334  0.7406  0.5534
 1119TIP3    H224917   1.594   5.952   5.966  1.3556  0.2996  1.1484
 1120TIP3   OH224918   4.809   1.621   6.734 -0.4059 -0.2010  0.7058
 1120TIP3    H124919   4.875   1.637   6.801  0.4962  2.0321 -0.6968
 1120TIP3    H224920   4.823   1.530   6.708 -0.2103 -0.8336  2.8951
 1121TIP3   OH224921   2.580   1.725   6.557  0.3938  0.1348 -0.0585
 1121TIP3    H124922   2.578   1.777   6.637  0.3093  0.8146 -0.4930
 1121TIP3    H224923   2.630   1.779   6.495  0.2325 -0.2651 -0.5353
 1122TIP3   OH224924   5.572   2.692   0.896  0.6787  0.3660 -0.4865
 1122TIP3    H124925   5.508   2.755   0.929  0.1418 -1.1134  1.3909
 1122TIP3    H224926   5.525   2.609   0.894  1.5096 -0.0827 -2.5295
 1123TIP3   OH224927   6.453   2.094   8.028 -0.5169  0.3509  0.1599
 1123TIP3    H124928   6.444   2.069   7.936 -0.8148  1.2792 -0.0745
 1123TIP3    H224929   6.430   2.016   8.078  0.2351 -0.3398 -0.5598
 1124TIP3   OH224930   6.522   3.369   6.405  0.1625 -0.0948 -0.5690
 1124TIP3    H124931   6.441   3.364   6.455  0.3805  0.1230 -0.1943
 1124TIP3    H224932   6.494   3.390   6.316 -0.2253 -0.5046 -0.5444
 1125TIP3   OH224933   0.248   0.137   6.148 -0.0546  0.2746 -0.4666
 1125TIP3    H124934   0.202   0.216   6.120  1.2446  1.2933  0.2079
 1125TIP3    H224935   0.184   0.090   6.201 -0.8101  0.9084 -0.8026
 1126TIP3   OH224936   1.887   5.574   7.480 -0.3429 -0.5866 -0.4555
 1126TIP3    H124937   1.943   5.570   7.557  0.7861  0.7951 -1.1750
 1126TIP3    H224938   1.799   5.557   7.512  0.3372 -1.5784  0.8857
 1127TIP3   OH224939   4.654   3.503   0.380  0.1294  0.1048 -0.0969
 1127TIP3    H124940   4.662   3.449   0.301 -0.7153  0.8105 -0.6755
 1127TIP3    H224941   4.717   3.465   0.441  0.4037 -0.7912 -0.9164
 1128TIP3   OH224942   4.743   1.401   0.393  0.2540 -0.5205  0.1758
 1128TIP3    H124943   4.803   1.456   0.342  1.9736 -2.3250  0.2126
 1128TIP3    H224944   4.786   1.391   0.478 -0.8278 -0.5805  0.7215
 1129TIP3   OH224945   0.814   0.363   6.518 -0.0822  0.1469 -0.0954
 1129TIP3    H124946   0.858   0.309   6.583 -1.7588 -1.6620 -0.4028
 1129TIP3    H224947   0.768   0.300   6.462 -1.3362  1.8431 -1.0152
 1130TIP3   OH224948   4.548   0.547   0.230 -0.0634 -0.0007  0.2049
 1130TIP3    H124949   4.604   0.477   0.195  2.4527  0.1198  3.7228
 1130TIP3    H224950   4.471   0.500   0.264  1.2878 -1.0745  1.9085
 1131TIP3   OH224951   5.320   5.405   6.354 -0.5680  0.2981  0.8502
 1131TIP3    H124952   5.326   5.462   6.431  0.5095 -0.1468  1.0980
 1131TIP3    H224953   5.407   5.410   6.314 -1.3860  1.2622 -0.8717
 1132TIP3   OH224954   0.364   1.988   6.252  0.3103 -0.0670 -0.0180
 1132TIP3    H124955   0.444   1.967   6.299 -0.0410  1.5272  1.3491
 1132TIP3    H224956   0.393   2.026   6.169  0.9736 -0.0554  0.2220
 1133TIP3   OH224957   3.075   3.457   1.629  0.7950 -0.2186  0.1544
 1133TIP3    H124958   3.014   3.401   1.582 -0.3537  0.5967  0.6439
 1133TIP3    H224959   3.082   3.417   1.716  0.0886  0.2995  0.4563
 1134TIP3   OH224960   0.792   2.806   6.977  0.9654  0.2531  0.4589
 1134TIP3    H124961   0.851   2.730   6.979  2.4630  1.4118  0.4201
 1134TIP3    H224962   0.751   2.806   7.064  2.1749  0.3422  1.0411
 1135TIP3   OH224963   6.125   3.583   7.735  0.5893  0.0659  0.6967
 1135TIP3    H124964   6.113   3.601   7.828 -0.9356  1.3739  0.2850
 1135TIP3    H224965   6.152   3.667   7.698  0.4402 -0.2560 -0.1477
 1136TIP3   OH224966   1.542   3.193   5.745  0.0784 -0.8116 -0.1235
 1136TIP3    H124967   1.631   3.209   5.776 -0.3113 -0.4531  0.8458
 1136TIP3    H224968   1.537   3.098   5.734  0.8789 -0.7446 -1.1230
 1137TIP3   OH224969   1.804   1.397   1.299 -0.5364  0.1558  0.1503
 1137TIP3    H124970   1.845   1.470   1.345  1.2069 -0.3858 -0.5075
 1137TIP3    H224971   1.750   1.439   1.231 -0.5024  0.8602  0.5577
 1138TIP3   OH224972   5.984   3.397   6.879  0.2655 -0.0369 -0.5692
 1138TIP3    H124973   5.948   3.485   6.869 -0.1314 -0.3199 -1.7521
 1138TIP3    H224974   5.985   3.381   6.973 -1.3887  0.5220 -0.4537
 1139TIP3   OH224975   0.337   6.124   7.511  0.2823  0.2142  0.0284
 1139TIP3    H124976   0.328   6.218   7.526  2.6520  0.2729  1.2721
 1139TIP3    H224977   0.431   6.111   7.497  0.0176 -2.0274  0.2128
 1140TIP3   OH224978   6.633   4.604   7.772  0.0556  0.0220  0.2416
 1140TIP3    H124979   6.540   4.610   7.751 -0.0072 -0.5595  0.3635
 1140TIP3    H224980   6.669   4.688   7.741 -0.4024  0.0191 -0.3201
 1141TIP3   OH224981   0.351   6.092   0.357  0.0549  0.0971  0.0377
 1141TIP3    H124982   0.397   6.068   0.438 -2.2903  1.2192  1.7831
 1141TIP3    H224983   0.391   6.176   0.332  1.4816 -0.7436 -0.5521
 1142TIP3   OH224984   3.135   4.531   1.018  0.5146  0.3006  0.0539
 1142TIP3    H124985   3.180   4.530   0.933  1.3361  0.5477  0.4764
 1142TIP3    H224986   3.176   4.460   1.067  0.8986  0.9456  0.6749
 1143TIP3   OH224987   3.705   0.796   7.019 -0.3994  0.0931  0.0615
 1143TIP3    H124988   3.733   0.813   6.930 -2.8767 -0.5123 -0.8870
 1143TIP3    H224989   3.622   0.749   7.010  0.8705 -2.8415  2.6579
 1144TIP3   OH224990   0.493   0.218   6.062  0.1802  0.4928  0.2712
 1144TIP3    H124991   0.408   0.176   6.076  1.6959 -2.3715  1.3493
 1144TIP3    H224992   0.476   0.312   6.073 -2.6887 -0.0991  1.1752
 1145TIP3   OH224993   0.490   3.767   0.472 -0.2148 -0.0859  0.5638
 1145TIP3    H124994   0.513   3.819   0.548  4.0763  0.4629 -0.9968
 1145TIP3    H224995   0.532   3.682   0.487 -0.0876 -0.2722 -0.7371
 1146TIP3   OH224996   1.887   1.795   6.804 -0.1710 -0.0719  0.4139
 1146TIP3    H124997   1.843   1.813   6.721  1.6792  0.5108 -0.4821
 1146TIP3    H224998   1.826   1.740   6.853 -0.2492 -2.5503 -2.3630
 1147TIP3   OH224999   5.935   4.653   0.600 -0.2408 -0.0719  0.2235
 1147TIP3    H125000   5.954   4.677   0.509 -1.2808 -0.1747 -0.0183
 1147TIP3    H225001   5.977   4.567   0.611 -0.8932 -0.4796 -0.4309
 1148TIP3   OH225002   3.625   3.812   0.820  0.5811 -0.5182  0.2699
 1148TIP3    H125003   3.684   3.887   0.832  0.2433 -0.1735 -0.2110
 1148TIP3    H225004   3.550   3.831   0.877 -0.6927  0.7687 -1.8005
 1149TIP3   OH225005   2.411   2.264   0.964 -0.1950  0.1780 -0.5465
 1149TIP3    H125006   2.497   2.304   0.951  0.9915 -2.3252 -0.6375
 1149TIP3    H225007   2.391   2.280   1.057  2.7230 -3.5488  0.8430
 1150TIP3   OH225008   0.707   3.068   5.839  0.0769  0.0050 -0.0509
 1150TIP3    H125009   0.782   3.032   5.792  0.1840 -0.0413  0.1527
 1150TIP3    H225010   0.740   3.084   5.928 -0.1146  0.1177  0.0006
 1151TIP3   OH225011   1.169   0.220   0.390  0.3483  0.0353 -0.0366
 1151TIP3    H125012   1.079   0.253   0.387  0.6096  0.7914  0.1850
 1151TIP3    H225013   1.167   0.140   0.339 -0.9097 -1.0820  1.7071
 1152TIP3   OH225014   6.489   1.550   8.062  0.5679  0.1814 -0.0130
 1152TIP3    H125015   6.430   1.623   8.045  0.9999  0.3870 -0.6481
 1152TIP3    H225016   6.475   1.529   8.154 -0.9337 -0.1660 -0.3092
 1153TIP3   OH225017   3.872   4.122   7.634 -0.5298 -0.5665 -0.1766
 1153TIP3    H125018   3.865   4.050   7.570 -1.2455 -0.3082 -0.3908
 1153TIP3    H225019   3.854   4.201   7.583 -1.7073 -0.4047  0.4565
 1154TIP3   OH225020   1.540   1.942   7.079 -0.1562 -0.2957  0.0262
 1154TIP3    H125021   1.630   1.932   7.049  0.0680 -1.2787  1.0062
 1154TIP3    H225022   1.530   1.876   7.147 -2.4302 -1.9270 -1.8420
 1155TIP3   OH225023   0.837   2.177   7.904  0.2429  0.3234  0.4673
 1155TIP3    H125024   0.875   2.263   7.884 -0.4820  0.5494  0.0747
 1155TIP3    H225025   0.865   2.120   7.833 -1.0871  0.7628 -0.4138
 1156TIP3   OH225026   0.082   1.095   6.719 -0.0359  0.5270  0.0912
 1156TIP3    H125027   0.097   1.152   6.643 -1.0099 -0.6664 -1.0114
 1156TIP3    H225028   0.165   1.099   6.767  0.4738  1.5930 -0.8196
 1157TIP3   OH225029   1.742   5.626   7.827 -0.1334  0.3489 -0.4444
 1157TIP3    H125030   1.722   5.565   7.757  0.4945  1.4697 -1.6283
 1157TIP3    H225031   1.658   5.644   7.868 -0.8964  1.4405 -2.4023
 1158TIP3   OH225032   0.614   4.535   6.924  0.9237 -0.4898 -0.5996
 1158TIP3    H125033   0.590   4.482   7.000  0.7307  1.0573  0.4295
 1158TIP3    H225034   0.530   4.559   6.884  0.8074  2.0764  1.0553
 1159TIP3   OH225035   1.657   0.067   7.445  0.9032 -0.3846 -0.5294
 1159TIP3    H125036   1.586   0.078   7.507  0.6792  0.8233 -0.9960
 1159TIP3    H225037   1.628  -0.004   7.388  0.6277 -0.7411  0.0477
 1160TIP3   OH225038   1.704   5.096   0.767 -0.0461 -0.6165 -0.3763
 1160TIP3    H125039   1.756   5.133   0.696  2.2804  0.1350  1.6356
 1160TIP3    H225040   1.649   5.168   0.797 -0.1152 -0.5760 -0.6025
 1161TIP3   OH225041   1.423   2.422   6.447 -0.6030 -0.0146 -0.9004
 1161TIP3    H125042   1.504   2.472   6.439 -1.5053  1.7332  0.7376
 1161TIP3    H225043   1.384   2.427   6.359 -0.5590  1.9592 -0.8330
 1162TIP3   OH225044   1.021   3.020   5.739 -0.4680  0.6565  0.3536
 1162TIP3    H125045   1.067   2.959   5.796 -1.4241 -0.5653 -0.1619
 1162TIP3    H225046   1.023   3.103   5.786 -1.1361 -0.3057  2.1089
 1163TIP3   OH225047   1.716   1.992   2.532  0.2658 -0.4222 -0.0770
 1163TIP3    H125048   1.652   1.974   2.464  1.0537  1.0203 -1.2245
 1163TIP3    H225049   1.705   2.085   2.552  0.1763 -0.7746  1.6441
 1164TIP3   OH225050   1.313   4.066   8.049 -0.3268  0.0750  0.2556
 1164TIP3    H125051   1.255   4.000   8.011 -0.5062  0.0602  0.5514
 1164TIP3    H225052   1.336   4.123   7.976 -0.6255  0.0187  0.1150
 1165TIP3   OH225053   6.974   4.045   0.498  0.5577  0.4033 -0.2104
 1165TIP3    H125054   6.922   4.038   0.418 -1.1279 -0.4326  0.9054
 1165TIP3    H225055   6.985   4.139   0.512 -1.8957  0.6721  0.2526
 1166TIP3   OH225056   6.775   0.456   0.541 -0.6421 -0.1583 -0.7671
 1166TIP3    H125057   6.701   0.403   0.569 -0.4511 -0.4828 -0.8841
 1166TIP3    H225058   6.753   0.545   0.571 -1.6272 -0.0339 -1.8528
 1167TIP3   OH225059   0.211   1.456   1.041  1.0571  0.3622  0.3587
 1167TIP3    H125060   0.284   1.395   1.036  1.4943  0.9215 -0.1168
 1167TIP3    H225061   0.247   1.539   1.011  0.5126  0.8996  1.1834
 1168TIP3   OH225062   0.047   0.312   7.273  0.3315 -0.2173 -0.1399
 1168TIP3    H125063  -0.015   0.251   7.312 -0.8096  1.9304  1.4704
 1168TIP3    H225064   0.099   0.344   7.347  1.8246 -0.2117 -1.1615
 1169TIP3   OH225065   1.345   2.606   6.879 -0.0801 -0.0631 -0.1126
 1169TIP3    H125066   1.345   2.542   6.950 -1.2610  0.6387  0.5403
 1169TIP3    H225067   1.307   2.685   6.918  1.9012  1.2218 -0.7301
 1170TIP3   OH225068   0.331   2.182   2.009  0.5030 -0.2124 -0.3247
 1170TIP3    H125069   0.364   2.134   1.933 -0.5616 -0.9559 -0.3292
 1170TIP3    H225070   0.239   2.156   2.015  0.3921  0.4262  0.7715
 1171TIP3   OH225071   6.654   0.310   7.671 -0.6420 -0.0156  0.7455
 1171TIP3    H125072   6.708   0.347   7.741 -0.7091  2.4493 -0.4515
 1171TIP3    H225073   6.614   0.387   7.629 -1.2415 -1.5152 -1.4744
 1172TIP3   OH225074   0.094   6.453   1.105  0.3102  0.2131  0.1760
 1172TIP3    H125075   0.138   6.531   1.072 -0.2229  0.4124 -0.0802
 1172TIP3    H225076   0.159   6.410   1.159  1.8166 -1.0434 -2.5243
 1173TIP3   OH225077   2.109   1.673   6.608  0.0550 -0.5302  0.1732
 1173TIP3    H125078   2.073   1.761   6.619  1.2130 -0.0076 -0.1819
 1173TIP3    H225079   2.034   1.615   6.620 -1.3952  0.6259 -2.8282
 1174TIP3   OH225080   6.944   1.533   7.329 -0.1173 -0.5415  0.2050
 1174TIP3    H125081   6.852   1.533   7.353  0.0674  0.7904  0.9147
 1174TIP3    H225082   6.991   1.526   7.412  0.4647  1.4127  0.0624
 1175TIP3   OH225083   1.288   5.965   7.943  0.3861 -0.3915 -0.2324
 1175TIP3    H125084   1.249   6.050   7.923  0.3068 -0.1983  0.7179
 1175TIP3    H225085   1.381   5.976   7.922  0.3316 -0.1444 -0.3495
 1176TIP3   OH225086   6.475   0.319   1.200 -0.0206 -0.1892 -0.1875
 1176TIP3    H125087   6.525   0.284   1.274 -0.8831  0.1293  0.5708
 1176TIP3    H225088   6.396   0.264   1.197  0.5807 -0.9855 -1.6540
 1177TIP3   OH225089   3.209   3.251   0.065  0.3501 -0.4460  0.6213
 1177TIP3    H125090   3.187   3.336   0.103  0.9250  0.0983 -0.2648
 1177TIP3    H225091   3.124   3.214   0.039  0.3478  1.1458 -1.7352
 1178TIP3   OH225092   0.998   2.941   1.518 -0.0850  0.2291  0.2264
 1178TIP3    H125093   1.031   2.853   1.499 -0.2499  0.2336 -0.0929
 1178TIP3    H225094   1.057   2.975   1.585 -1.3750 -0.9668  2.0009
 1179TIP3   OH225095   0.682   1.981   6.782  0.4386  0.0839  0.3497
 1179TIP3    H125096   0.731   1.955   6.704  1.2658  0.2923  0.7907
 1179TIP3    H225097   0.719   1.928   6.852 -0.0294  0.1863  0.6771
 1180TIP3   OH225098   1.477   3.842   5.811  0.2058  0.5230  0.0649
 1180TIP3    H125099   1.533   3.848   5.888 -0.4424 -0.7280  0.6615
 1180TIP3    H225100   1.506   3.762   5.767 -1.6890 -0.6547  0.8853
 1181TIP3   OH225101   2.065   0.656   0.666  0.0747  0.1400 -0.1689
 1181TIP3    H125102   2.037   0.571   0.631  0.8062  0.1165 -0.7095
 1181TIP3    H225103   2.113   0.633   0.746 -2.1050  0.2318  1.2141
 1182TIP3   OH225104   0.435   3.353   0.812  0.1170 -0.3618  0.2624
 1182TIP3    H125105   0.385   3.422   0.856 -1.2986 -1.7996  0.9221
 1182TIP3    H225106   0.380   3.328   0.738  0.8776 -0.4304 -0.2840
 1183TIP3   OH225107   6.248   5.103   0.635  0.6643 -0.8826 -0.0766
 1183TIP3    H125108   6.239   5.195   0.611 -1.8421 -0.7024  1.4278
 1183TIP3    H225109   6.206   5.056   0.563 -0.1874 -0.7372  0.3293
 1184TIP3   OH225110   6.697   2.853   6.216 -0.0052  0.5383 -0.4233
 1184TIP3    H125111   6.646   2.916   6.165  0.9105  2.0030  0.4348
 1184TIP3    H225112   6.758   2.906   6.267  1.0041 -1.0621  0.0997
 1185TIP3   OH225113   7.045   3.216   6.382  0.1569  0.8025 -0.0283
 1185TIP3    H125114   6.961   3.260   6.366 -1.1572 -1.6736 -0.1114
 1185TIP3    H225115   7.101   3.242   6.309 -1.0679  1.1781 -0.8311
 1186TIP3   OH225116   7.092   3.169   6.668 -0.2819 -0.2350  0.7198
 1186TIP3    H125117   7.010   3.123   6.653 -0.1212 -0.8011  1.5383
 1186TIP3    H225118   7.105   3.222   6.589 -1.6464  0.1892  0.7822
 1187TIP3   OH225119   0.051   1.242   6.463  0.2700 -0.3927 -0.0032
 1187TIP3    H125120   0.128   1.282   6.422  0.1271 -0.4179 -0.2972
 1187TIP3    H225121   0.027   1.171   6.405 -1.6263  1.2988 -1.3643
 1188TIP3   OH225122   1.501   4.858   0.885  0.6798  0.1885  0.6536
 1188TIP3    H125123   1.573   4.912   0.853  1.4906 -0.5475  1.2100
 1188TIP3    H225124   1.474   4.807   0.809  0.5941  0.6259  0.3863
 1189TIP3   OH225125   1.396   2.752   7.839 -0.2162  0.2213 -0.2475
 1189TIP3    H125126   1.394   2.847   7.829  0.1342 -0.2235 -6.5970
 1189TIP3    H225127   1.489   2.730   7.842 -0.2051 -0.0418 -1.7989
 1190TIP3   OH225128   4.400   3.906   6.132  0.4483  0.0164  0.0182
 1190TIP3    H125129   4.412   3.931   6.040  2.1105  0.1137  0.2329
 1190TIP3    H225130   4.469   3.954   6.178 -1.4905  1.3364  1.5742
 1191TIP3   OH225131   2.914   5.347   0.820 -0.9344 -0.2099  0.6818
 1191TIP3    H125132   2.900   5.293   0.742 -1.7972  0.2982  0.4660
 1191TIP3    H225133   2.833   5.338   0.870 -1.9619  2.5469 -0.4050
 1192TIP3   OH225134   3.362   3.135   6.600  0.5396 -0.1444  0.5751
 1192TIP3    H125135   3.320   3.206   6.649 -0.5091 -0.6993  0.5142
 1192TIP3    H225136   3.412   3.178   6.531 -1.7697  0.4689 -0.7646
 1193TIP3   OH225137   2.825   3.325   7.895  0.4783 -0.9884  0.2721
 1193TIP3    H125138   2.907   3.316   7.847 -0.2935  1.5464 -1.5742
 1193TIP3    H225139   2.799   3.416   7.883 -1.1060 -0.9707  3.3210
 1194TIP3   OH225140   0.984   3.541   8.042  0.2634 -0.0441  0.3549
 1194TIP3    H125141   1.047   3.521   8.112  1.1216 -1.5055 -0.7927
 1194TIP3    H225142   0.993   3.635   8.028  0.4606  0.1776  1.8362
 1195TIP3   OH225143   2.227   4.837   0.199  0.7594  0.0920  0.4227
 1195TIP3    H125144   2.269   4.878   0.123 -0.1943  0.5523  0.1315
 1195TIP3    H225145   2.193   4.754   0.166 -0.6971  0.8202  0.0214
 1196TIP3   OH225146   0.670   6.185   0.272 -0.5046 -0.8109 -0.0595
 1196TIP3    H125147   0.649   6.093   0.258  0.6914 -1.5255  2.6221
 1196TIP3    H225148   0.720   6.187   0.353 -2.3456  2.4636  1.1027
 1197TIP3   OH225149   0.289   2.296   7.080 -0.0811 -1.0344  0.3700
 1197TIP3    H125150   0.266   2.309   6.989  1.8203 -0.5332 -0.0726
 1197TIP3    H225151   0.289   2.201   7.092 -1.1293 -1.0713  0.0767
 1198TIP3   OH225152   3.612   5.056   6.064  0.0494  0.2385  0.5749
 1198TIP3    H125153   3.672   5.050   5.990 -0.0846 -1.1940  0.5569
 1198TIP3    H225154   3.526   5.036   6.026  0.0830 -1.2035  1.2294
 1199TIP3   OH225155   6.852   4.327   0.819 -0.3450 -0.0233 -0.1868
 1199TIP3    H125156   6.787   4.263   0.847  2.2731 -2.2245  1.1411
 1199TIP3    H225157   6.893   4.287   0.742 -0.1162  1.0304 -0.6159
 1200TIP3   OH225158   4.550   3.652   0.148 -0.1650 -0.5913  0.4345
 1200TIP3    H125159   4.455   3.661   0.163 -0.1011 -1.0924  1.1270
 1200TIP3    H225160   4.582   3.601   0.222  0.6903 -0.2419  0.3105
 1201TIP3   OH225161   5.684   5.037   7.762 -0.0783  0.2798  0.1534
 1201TIP3    H125162   5.746   5.089   7.813  1.0819 -1.3040  0.3904
 1201TIP3    H225163   5.697   5.067   7.672  2.0354 -0.9722  0.0077
 1202TIP3   OH225164   4.198   3.248   7.667  0.5704 -0.5746  0.3955
 1202TIP3    H125165   4.233   3.170   7.624 -0.1549 -0.3456 -0.6143
 1202TIP3    H225166   4.112   3.261   7.627  0.5095  0.5016  0.8618
 1203TIP3   OH225167   1.093   4.423   1.205 -0.3069 -0.5995 -0.1767
 1203TIP3    H125168   1.116   4.434   1.297 -1.6896 -0.8091  0.2106
 1203TIP3    H225169   1.098   4.328   1.190 -3.0011 -0.9012  0.5140
 1204TIP3   OH225170   0.188   2.594   6.464  0.2255  0.3442  0.1596
 1204TIP3    H125171   0.155   2.526   6.522 -0.6095 -0.5067 -1.2637
 1204TIP3    H225172   0.109   2.639   6.433  0.7175  1.3733  0.3853
 1205TIP3   OH225173   0.419   3.100   1.224  0.3564 -0.7340  0.0012
 1205TIP3    H125174   0.365   3.165   1.178 -1.4318 -1.9428  0.3317
 1205TIP3    H225175   0.508   3.122   1.199 -0.2221  1.7256 -0.0601
 1206TIP3   OH225176   0.188   2.604   7.225  0.2856 -0.0441 -0.2326
 1206TIP3    H125177   0.244   2.654   7.284 -0.2265 -1.6441  1.6531
 1206TIP3    H225178   0.242   2.530   7.197 -0.4447 -0.8925  0.5775
 1207TIP3   OH225179   2.150   1.230   7.464 -0.1408 -0.0647 -0.2581
 1207TIP3    H125180   2.216   1.165   7.489 -1.5289 -0.9175  1.2592
 1207TIP3    H225181   2.193   1.315   7.479  0.6327 -0.6070  0.6640
 1208TIP3   OH225182   1.242   1.468   7.142  0.6103 -0.0724 -0.8031
 1208TIP3    H125183   1.155   1.459   7.103  0.9309  0.8472 -1.7672
 1208TIP3    H225184   1.279   1.380   7.141 -0.2295 -0.4307 -0.5767
 1209TIP3   OH225185   4.975   2.144   7.804  0.0415  0.2136 -0.0694
 1209TIP3    H125186   5.014   2.087   7.871 -0.7284 -0.8672 -0.5279
 1209TIP3    H225187   5.024   2.126   7.724 -2.0163 -1.9030 -0.8954
 1210TIP3   OH225188   6.827   2.607   6.481 -0.7832  0.3524 -0.1800
 1210TIP3    H125189   6.796   2.527   6.437 -0.7395 -0.8511  1.8971
 1210TIP3    H225190   6.912   2.624   6.442 -0.6912 -0.7545 -0.4940
 1211TIP3   OH225191   0.041   1.722   0.407 -0.4519 -0.1425  0.0030
 1211TIP3    H125192  -0.031   1.752   0.350  1.2772  0.5965 -1.8462
 1211TIP3    H225193   0.060   1.633   0.376  0.3578  0.1860 -0.4407
 1212TIP3   OH225194   4.790   3.405   0.612 -0.0283  0.1716  0.0119
 1212TIP3    H125195   4.792   3.462   0.688 -0.3604 -0.2350  0.3244
 1212TIP3    H225196   4.741   3.328   0.640 -0.4668  0.1725 -0.7127
 1213TIP3   OH225197   5.510   5.799   0.497  0.5319 -0.4589 -0.0094
 1213TIP3    H125198   5.556   5.778   0.416  2.0999  1.4746  0.3351
 1213TIP3    H225199   5.525   5.893   0.509  1.4372 -0.9606  3.1803
 1214TIP3   OH225200   6.161   5.395   7.957  0.1345  0.7071 -0.0685
 1214TIP3    H125201   6.222   5.433   8.020  0.5213 -0.3425  0.1960
 1214TIP3    H225202   6.074   5.415   7.992  0.3454 -1.2431  1.6487
 1215TIP3   OH225203   5.550   6.861   8.026  0.5323 -0.6950  0.3811
 1215TIP3    H125204   5.553   6.953   8.049  1.6074 -0.4397 -0.6680
 1215TIP3    H225205   5.457   6.838   8.028  0.2806  0.3478  0.8737
 1216TIP3   OH225206   1.602   1.038   5.496 -0.6106  0.1969  0.5545
 1216TIP3    H125207   1.584   0.993   5.579  0.0112 -1.6476 -0.2781
 1216TIP3    H225208   1.672   1.099   5.516 -0.0796 -0.6365  1.2699
 1217TIP3   OH225209   0.281   2.973   7.939  0.1824 -0.1462  0.5905
 1217TIP3    H125210   0.237   2.990   8.022  1.8094 -2.4038  1.9880
 1217TIP3    H225211   0.369   2.944   7.965  1.5114  1.3594 -2.0050
 1218TIP3   OH225212   0.841   2.242   0.667  0.2420 -0.0802 -0.2814
 1218TIP3    H125213   0.908   2.307   0.646 -0.3980  0.8827  0.6341
 1218TIP3    H225214   0.883   2.184   0.730 -0.3407  1.5738  1.6733
 1219TIP3   OH225215   0.842   4.869   1.418 -0.2893  0.2958  0.0296
 1219TIP3    H125216   0.937   4.878   1.415 -0.2215  0.0698  1.2474
 1219TIP3    H225217   0.815   4.925   1.491 -0.8195 -1.7113  1.4298
 1220TIP3   OH225218   5.437   6.956   0.378 -0.1316  0.0446  0.7156
 1220TIP3    H125219   5.343   6.975   0.372  0.1080  0.6749 -1.2231
 1220TIP3    H225220   5.456   6.903   0.301  1.3687  1.0003  0.4091
 1221TIP3   OH225221   6.597   0.285   8.092  0.1094  0.4086 -0.0685
 1221TIP3    H125222   6.560   0.197   8.082  0.4332  0.1496  0.9208
 1221TIP3    H225223   6.564   0.315   8.177  1.2995  0.6025  0.3326
 1222TIP3   OH225224   0.969   2.222   0.130  0.0740  0.2983  0.1155
 1222TIP3    H125225   0.990   2.214   0.223 -0.4283 -1.7199  0.0874
 1222TIP3    H225226   1.044   2.183   0.085 -0.4105 -0.2168 -0.2548
 1223TIP3   OH225227   2.291   3.374   1.007  0.3371  0.4742 -0.2715
 1223TIP3    H125228   2.338   3.419   0.937 -0.9212  0.4939 -1.1117
 1223TIP3    H225229   2.260   3.293   0.967 -0.2794  0.4278  0.2887
 1224TIP3   OH225230   0.834   1.955   6.342  0.2793  0.3237  0.5236
 1224TIP3    H125231   0.865   1.915   6.261  0.6820  0.0034  0.8255
 1224TIP3    H225232   0.915   1.981   6.388  0.0261  1.4153  0.3697
 1225TIP3   OH225233   6.610   0.674   0.214  0.0067 -0.1015  0.3239
 1225TIP3    H125234   6.586   0.591   0.255  1.3882 -0.3470  0.6533
 1225TIP3    H225235   6.693   0.657   0.171  0.3532  1.1426  0.4790
 1226TIP3   OH225236   5.257   3.847   0.196  0.4744  0.1018 -0.1185
 1226TIP3    H125237   5.168   3.884   0.192 -0.0851 -1.3250 -1.6092
 1226TIP3    H225238   5.299   3.881   0.117  1.1213  0.4143  0.3612
 1227TIP3   OH225239   5.857   2.351   6.863  0.2422  0.7077  0.0197
 1227TIP3    H125240   5.824   2.333   6.951 -1.3482 -1.7970 -1.0038
 1227TIP3    H225241   5.889   2.266   6.832  1.9435  1.8251 -1.3434
 1228TIP3   OH225242   6.705   2.355   6.424  1.2343  1.2892 -0.1494
 1228TIP3    H125243   6.640   2.360   6.354  1.5673  1.0224 -0.4747
 1228TIP3    H225244   6.702   2.264   6.453  1.4233  1.2897 -0.1257
 1229TIP3   OH225245   0.603   6.316   7.334 -0.5299 -0.3732 -0.2671
 1229TIP3    H125246   0.621   6.238   7.385  1.0987 -0.2225 -0.5610
 1229TIP3    H225247   0.627   6.292   7.244  1.7376  0.9925 -0.0708
 1230TIP3   OH225248   1.070   0.969   6.349  0.1583 -0.1565  0.0995
 1230TIP3    H125249   1.042   0.980   6.258 -1.2917 -0.2037  0.5209
 1230TIP3    H225250   1.071   1.058   6.384  1.4135 -0.0686 -0.1604
 1231TIP3   OH225251   1.783   4.026   5.861 -0.0536  0.1181  0.0326
 1231TIP3    H125252   1.858   4.055   5.913  0.4915 -0.2273 -0.5574
 1231TIP3    H225253   1.744   3.955   5.912  0.9359 -0.7361 -0.3986
 1232TIP3   OH225254   0.339   3.537   7.088  0.7556  0.0300  0.6311
 1232TIP3    H125255   0.415   3.568   7.137  0.9930 -1.8228  1.4783
 1232TIP3    H225256   0.268   3.596   7.113  1.0061 -0.5677  2.8155
 1233TIP3   OH225257   6.682   3.919   6.220 -0.4163  0.1082 -1.2196
 1233TIP3    H125258   6.721   3.970   6.149 -0.6988 -0.1033 -1.5299
 1233TIP3    H225259   6.732   3.837   6.221 -0.2012  0.2448 -0.9638
 1234TIP3   OH225260   5.586   5.572   7.014 -0.2800  0.2261 -0.8686
 1234TIP3    H125261   5.504   5.607   7.047 -0.2900 -1.1735  0.6332
 1234TIP3    H225262   5.650   5.642   7.032 -0.4094 -0.2361  1.5549
 1235TIP3   OH225263   2.182   3.677   0.477 -0.6603 -0.0223  0.1261
 1235TIP3    H125264   2.109   3.687   0.416 -1.2946 -0.0641  0.8775
 1235TIP3    H225265   2.194   3.582   0.484  0.5442  0.0032 -1.2641
 1236TIP3   OH225266   3.819   5.895   0.137 -0.3493 -0.3928  0.0727
 1236TIP3    H125267   3.818   5.851   0.223 -0.9833  0.4162  0.4871
 1236TIP3    H225268   3.820   5.823   0.074  1.8096 -0.9946  0.7682
 1237TIP3   OH225269   0.218   6.623   0.551 -0.0274  0.3411 -0.1535
 1237TIP3    H125270   0.153   6.554   0.539 -0.9080  1.1896 -0.3671
 1237TIP3    H225271   0.274   6.617   0.473 -0.6819  0.4735 -0.6392
 1238TIP3   OH225272   3.212   0.628   7.696  0.7707  0.2411 -0.2304
 1238TIP3    H125273   3.210   0.716   7.659  0.3945  0.0086 -0.7614
 1238TIP3    H225274   3.162   0.635   7.778  1.0081  0.5899 -0.1159
 1239TIP3   OH225275   3.725   3.801   6.712  0.7278 -0.3927  0.2730
 1239TIP3    H125276   3.718   3.762   6.625  1.1714  1.5873 -0.6823
 1239TIP3    H225277   3.766   3.887   6.697  0.8877 -0.0522  2.4362
 1240TIP3   OH225278   1.266   1.217   5.779 -0.0738  0.5029 -0.5285
 1240TIP3    H125279   1.345   1.175   5.814 -0.2955  0.7087  0.2195
 1240TIP3    H225280   1.199   1.149   5.784 -0.2031  0.6574 -0.1917
 1241TIP3   OH225281   1.179   1.759   7.660  0.1747  0.6294  0.1893
 1241TIP3    H125282   1.165   1.843   7.617 -0.3194  0.5331  0.1662
 1241TIP3    H225283   1.123   1.761   7.737  0.1508  0.3150  0.1814
 1242TIP3   OH225284   0.901   1.473   0.433  0.6095 -0.6803  0.0595
 1242TIP3    H125285   0.930   1.472   0.342 -0.6801  2.6404 -0.4518
 1242TIP3    H225286   0.983   1.473   0.484  1.4161  1.1273 -1.1949
 1243TIP3   OH225287   0.792   2.566   1.891  0.0427  0.3543  0.3307
 1243TIP3    H125288   0.733   2.639   1.908  0.3616  0.7281 -0.1637
 1243TIP3    H225289   0.819   2.537   1.978  0.2178  1.0784  0.5271
 1244TIP3   OH225290   1.380   0.216   6.884 -0.3062 -0.0042 -0.4405
 1244TIP3    H125291   1.335   0.221   6.800  0.1997  1.9819 -0.6223
 1244TIP3    H225292   1.418   0.303   6.896  0.4924 -0.5758  1.3651
 1245TIP3   OH225293   3.991   1.877   6.552 -0.0822  0.1184  0.0822
 1245TIP3    H125294   3.989   1.812   6.482  2.1329 -1.1490  1.1426
 1245TIP3    H225295   3.940   1.836   6.623  1.6017 -0.6390  0.8740
 1246TIP3   OH225296   4.276   1.448   6.394  0.8338 -0.1203  0.2125
 1246TIP3    H125297   4.363   1.436   6.433 -0.5074 -0.9665  3.1547
 1246TIP3    H225298   4.259   1.542   6.402  1.7092  0.1312 -0.8891
 1247TIP3   OH225299   2.406   2.846   6.124  0.1415  0.1472  0.2299
 1247TIP3    H125300   2.339   2.796   6.078 -1.0467  1.0523  0.9613
 1247TIP3    H225301   2.374   2.853   6.214  1.6640 -0.2134  0.8203
 1248TIP3   OH225302   1.447   3.217   6.216  0.1665  0.1568 -0.1757
 1248TIP3    H125303   1.530   3.215   6.168  0.3910 -1.3390  0.2207
 1248TIP3    H225304   1.460   3.154   6.287 -1.3321 -0.1494 -0.1629
 1249TIP3   OH225305   2.675   1.331   6.216 -0.1370  0.3597  0.5412
 1249TIP3    H125306   2.671   1.236   6.203  2.7002  0.1074  1.1710
 1249TIP3    H225307   2.685   1.341   6.311  0.2670  1.2639  0.4012
 1250TIP3   OH225308   0.883   0.559   0.336  0.5193  0.3060  0.1450
 1250TIP3    H125309   0.869   0.567   0.430  2.0257  0.3793  0.3817
 1250TIP3    H225310   0.979   0.552   0.327  0.3241 -0.7140 -1.2897
 1251TIP3   OH225311   0.404   2.461   0.765  0.5346  0.1612  0.0612
 1251TIP3    H125312   0.338   2.530   0.769  0.1243 -0.0815 -2.0483
 1251TIP3    H225313   0.487   2.507   0.760  0.3301  0.4920 -0.3006
 1252TIP3   OH225314   2.475   3.577   6.391  0.7776 -0.3678 -0.0510
 1252TIP3    H125315   2.543   3.644   6.399 -0.8799  0.9146  4.6091
 1252TIP3    H225316   2.405   3.620   6.342  0.5379  0.6706  1.1755
 1253TIP3   OH225317   5.799   5.596   0.797 -0.0057  0.5000 -0.0817
 1253TIP3    H125318   5.801   5.646   0.878 -1.2208  0.2578  0.1077
 1253TIP3    H225319   5.726   5.535   0.808  0.0632  0.2049 -1.1991
 1254TIP3   OH225320   3.587   0.544   6.348  0.5249 -0.5221  0.3102
 1254TIP3    H125321   3.677   0.509   6.346  1.0311  0.8127 -1.4580
 1254TIP3    H225322   3.570   0.573   6.258 -0.6057  1.8709  1.2376
 1255TIP3   OH225323   3.427   3.405   6.402  0.3732 -0.1736 -0.0870
 1255TIP3    H125324   3.416   3.499   6.414 -0.2638 -0.2413 -0.1552
 1255TIP3    H225325   3.519   3.395   6.378 -0.1250  0.6514 -2.4683
 1256TIP3   OH225326   6.237   2.076   6.317 -0.1252  0.1786 -0.8574
 1256TIP3    H125327   6.245   2.171   6.319 -0.8472  0.3269 -3.0745
 1256TIP3    H225328   6.248   2.053   6.224  1.5821 -2.0479 -0.1534
 1257TIP3   OH225329   0.782   6.449   6.929  0.0927 -0.7691 -0.0437
 1257TIP3    H125330   0.691   6.449   6.902  0.0337  0.7935  0.1503
 1257TIP3    H225331   0.779   6.462   7.024  0.5656  0.7194 -0.2250
 1258TIP3   OH225332   0.906   1.053   0.965  0.2615  0.0144  0.6841
 1258TIP3    H125333   0.861   1.110   1.028 -0.2218  0.0240  0.3285
 1258TIP3    H225334   0.990   1.033   1.007  0.3589  0.8405  0.8945
 1259TIP3   OH225335   1.892   4.297   0.109 -0.3449  0.5701  0.1252
 1259TIP3    H125336   1.915   4.246   0.186  2.2737  1.6712  0.1433
 1259TIP3    H225337   1.913   4.239   0.035  2.6388  1.5564  0.1443
 1260TIP3   OH225338   0.834   4.266   8.114 -0.0961  0.2422 -0.6595
 1260TIP3    H125339   0.825   4.280   8.208  2.1334 -0.1133 -0.3833
 1260TIP3    H225340   0.748   4.233   8.086 -1.3836  2.1267  0.8945
 1261TIP3   OH225341   4.207   2.817   6.503 -0.2312 -0.2882 -0.6010
 1261TIP3    H125342   4.200   2.787   6.594 -0.9362  1.4860 -0.0434
 1261TIP3    H225343   4.272   2.887   6.507 -0.3135 -0.1632 -1.4521
 1262TIP3   OH225344   1.453   0.775   0.091  0.1945 -0.7220 -0.4892
 1262TIP3    H125345   1.488   0.688   0.076 -2.3280 -2.2406  1.9410
 1262TIP3    H225346   1.367   0.775   0.050  0.3842  0.8324 -0.9458
 1263TIP3   OH225347   5.409   3.676   6.183 -0.4401  0.3970  0.1197
 1263TIP3    H125348   5.343   3.676   6.114  0.4531  0.0258 -0.7474
 1263TIP3    H225349   5.466   3.602   6.162  0.2339  0.6872  0.8831
 1264TIP3   OH225350   2.887   2.061   6.393  0.2889  0.2633 -0.1301
 1264TIP3    H125351   2.967   2.113   6.382 -0.3355  0.9826 -1.3924
 1264TIP3    H225352   2.882   2.046   6.488  2.3677 -0.5404 -0.1150
 1265TIP3   OH225353   1.318   5.822   7.010  0.1753  0.0510  0.0243
 1265TIP3    H125354   1.351   5.739   6.975  0.0253  0.6001 -1.4373
 1265TIP3    H225355   1.344   5.888   6.946  0.6669  1.2124  1.3869
 1266TIP3   OH225356   1.976   4.911   8.118  0.4280  0.1001 -0.0959
 1266TIP3    H125357   1.993   4.821   8.148 -1.5756 -0.2142  0.1510
 1266TIP3    H225358   1.948   4.957   8.197 -0.4116  0.4439 -0.5863
 1267TIP3   OH225359   3.191   3.035   5.784 -0.5473 -0.4576  0.7647
 1267TIP3    H125360   3.276   3.075   5.800 -0.4791 -0.2100 -0.2193
 1267TIP3    H225361   3.212   2.948   5.748 -0.7148 -0.4902  0.7456
 1268TIP3   OH225362   4.629   5.041   1.134 -0.3470  0.1329 -0.2106
 1268TIP3    H125363   4.690   4.969   1.118 -1.5824 -0.3575 -3.0904
 1268TIP3    H225364   4.677   5.119   1.106 -0.0510  0.0835  0.1537
 1269TIP3   OH225365   7.099   2.700   6.347 -0.3588 -0.1903  0.4429
 1269TIP3    H125366   7.058   2.784   6.327 -0.8000 -0.4384  0.2941
 1269TIP3    H225367   7.141   2.674   6.265  1.6377  0.9254  1.1020
 1270TIP3   OH225368   2.012   3.485   7.369 -0.4034 -0.2499 -0.1380
 1270TIP3    H125369   2.096   3.529   7.379 -0.6786 -0.3275  3.0366
 1270TIP3    H225370   1.973   3.525   7.292  1.2610  1.9416  0.1094
 1271TIP3   OH225371   4.808   0.520   1.231 -0.1224 -0.1893  0.0491
 1271TIP3    H125372   4.878   0.456   1.249 -0.5961 -0.5973  0.4555
 1271TIP3    H225373   4.736   0.493   1.289 -0.0553  1.1737  0.7902
 1272TIP3   OH225374   1.528   4.468   7.514  0.0220  0.5954 -0.2201
 1272TIP3    H125375   1.454   4.486   7.572 -0.2476 -1.1680  0.0130
 1272TIP3    H225376   1.524   4.537   7.448 -1.0150  1.3108  0.5716
 1273TIP3   OH225377   3.962   2.785   1.790  0.1009 -0.3207 -0.3682
 1273TIP3    H125378   4.025   2.850   1.758 -0.9187  0.5782 -0.5614
 1273TIP3    H225379   3.929   2.822   1.872 -0.0216 -0.8869 -0.1604
 1274TIP3   OH225380   2.729   4.995   7.747 -0.6099 -0.1245  0.2950
 1274TIP3    H125381   2.652   4.942   7.765 -2.5798  2.0748 -1.4079
 1274TIP3    H225382   2.724   5.014   7.654  0.4163  2.4956  0.7348
 1275TIP3   OH225383   4.070   2.190   1.483  0.0824 -0.5968 -0.2318
 1275TIP3    H125384   4.031   2.109   1.450  0.1340 -1.0031  0.6928
 1275TIP3    H225385   3.997   2.253   1.483 -0.0521 -0.7502 -0.5546
 1276TIP3   OH225386   3.204   2.158   7.935 -0.5120  1.1692  0.2010
 1276TIP3    H125387   3.270   2.108   7.983 -0.4637  1.3036  0.2764
 1276TIP3    H225388   3.122   2.111   7.950 -0.2506  0.3787 -0.8041
 1277TIP3   OH225389   2.191   3.527   0.013 -0.6275  0.6427  0.0203
 1277TIP3    H125390   2.183   3.610   0.060  1.3245  0.7919  0.1249
 1277TIP3    H225391   2.256   3.544  -0.055  0.9883 -1.2577  1.0538
 1278TIP3   OH225392   1.914   1.983   6.329 -0.1098 -0.3451  0.0708
 1278TIP3    H125393   2.003   2.016   6.328  0.3569 -1.5805 -1.1410
 1278TIP3    H225394   1.912   1.916   6.261 -2.0213 -0.1713 -0.0953
 1279TIP3   OH225395   2.867   4.793   7.298 -0.2686  0.2230 -0.1520
 1279TIP3    H125396   2.860   4.717   7.239 -0.0489  0.6917 -0.7936
 1279TIP3    H225397   2.940   4.772   7.356  1.1224  0.7944 -1.6301
 1280TIP3   OH225398   0.156   0.223   0.275  0.2100  0.2527  0.1082
 1280TIP3    H125399   0.217   0.186   0.338  0.5464  1.9148  0.7815
 1280TIP3    H225400   0.097   0.150   0.253  1.0170 -0.7407  1.1850
 1281TIP3   OH225401   0.456   1.989   7.211 -0.1705 -0.5977 -0.0882
 1281TIP3    H125402   0.520   1.973   7.280 -0.4324 -0.1159  0.2729
 1281TIP3    H225403   0.374   1.954   7.246 -0.0242 -1.6116 -0.7279
 1282TIP3   OH225404   2.624   5.602   6.496  0.0495  0.5436 -0.5193
 1282TIP3    H125405   2.613   5.592   6.402 -2.2438  1.6669 -0.3858
 1282TIP3    H225406   2.605   5.694   6.513 -1.9283 -0.1894  1.3538
 1283TIP3   OH225407   0.679   0.491   1.015  0.1284  0.3767 -0.1330
 1283TIP3    H125408   0.762   0.499   1.061 -0.0365  1.5738 -0.0344
 1283TIP3    H225409   0.618   0.460   1.081 -0.0919  2.0225  0.4536
 1284TIP3   OH225410   4.994   0.962   8.115  0.5226 -0.1441  0.5262
 1284TIP3    H125411   5.073   0.932   8.070  1.3506 -0.1779  1.9503
 1284TIP3    H225412   4.979   0.896   8.183 -0.5173  0.0639  0.5063
 1285TIP3   OH225413   2.658   3.030   7.190 -0.1440  0.0493 -0.7450
 1285TIP3    H125414   2.648   3.009   7.097 -2.4557  0.6723 -0.6647
 1285TIP3    H225415   2.622   3.118   7.198  1.5676  0.6557  0.4599
 1286TIP3   OH225416   6.371   3.307   7.144  0.0334 -0.1161 -0.0053
 1286TIP3    H125417   6.333   3.377   7.197 -1.1755 -1.0749  0.4052
 1286TIP3    H225418   6.372   3.231   7.201 -0.6335 -0.9795 -1.1117
 1287TIP3   OH225419   1.900   2.354   6.283  0.1149 -0.2519 -0.2890
 1287TIP3    H125420   1.877   2.281   6.224  0.7023 -0.3155 -0.4442
 1287TIP3    H225421   1.947   2.415   6.227 -1.5636  0.8935 -0.4729
 1288TIP3   OH225422   5.503   5.113   7.385  0.6513  0.1966 -0.0638
 1288TIP3    H125423   5.467   5.028   7.410  0.3500  0.3299 -0.0410
 1288TIP3    H225424   5.481   5.172   7.457 -0.2436  0.5839 -0.6407
 1289TIP3   OH225425   0.477   0.724   8.018 -0.6854  0.0591 -0.2471
 1289TIP3    H125426   0.476   0.631   8.041  2.3269  0.2403  0.8887
 1289TIP3    H225427   0.387   0.754   8.033 -1.1915 -2.1976  1.4216
 1290TIP3   OH225428   2.711   5.636   0.766  0.5340  0.4603  0.4339
 1290TIP3    H125429   2.650   5.578   0.720 -1.1826  3.1188 -0.7471
 1290TIP3    H225430   2.681   5.633   0.857 -0.1422  0.2181  0.2139
 1291TIP3   OH225431   3.836   4.247   7.213 -0.2851 -0.3018  0.3528
 1291TIP3    H125432   3.803   4.264   7.124 -2.3551  0.9518  1.3273
 1291TIP3    H225433   3.778   4.298   7.270  1.8461 -0.0457  2.3372
 1292TIP3   OH225434   3.376   2.816   6.008 -0.1798  0.2377 -0.7856
 1292TIP3    H125435   3.350   2.827   6.099  1.0872  0.1414 -0.4098
 1292TIP3    H225436   3.438   2.886   5.991  0.2971 -0.3007 -1.3024
 1293TIP3   OH225437   5.972   5.438   6.616 -0.2367  0.0792  0.3440
 1293TIP3    H125438   5.931   5.480   6.541 -0.5146 -2.0129 -0.7296
 1293TIP3    H225439   5.940   5.348   6.613  1.0647 -0.4631  1.9959
 1294TIP3   OH225440   3.555   3.114   7.009  0.8108  0.0220  0.1978
 1294TIP3    H125441   3.487   3.083   7.069 -0.5423  1.1918 -0.6806
 1294TIP3    H225442   3.581   3.036   6.960  0.9499 -0.6669  1.3462
 1295TIP3   OH225443   7.003   0.491   8.035  0.4096  0.4199  0.3940
 1295TIP3    H125444   7.036   0.525   7.952 -1.7245 -0.9798 -1.0512
 1295TIP3    H225445   7.082   0.473   8.086  1.8142 -0.4932 -2.0236
 1296TIP3   OH225446   1.663   2.063   6.382 -0.5753  0.0998  0.1916
 1296TIP3    H125447   1.754   2.064   6.352 -1.0243  2.0353 -1.1563
 1296TIP3    H225448   1.670   2.066   6.477  0.7672  0.2337  0.1060
 1297TIP3   OH225449   0.984   0.943   6.743  0.5089 -0.7290 -0.7192
 1297TIP3    H125450   0.903   0.986   6.716 -0.3199 -0.5649  1.9528
 1297TIP3    H225451   0.957   0.859   6.780  1.9070 -2.4396 -3.3985
 1298TIP3   OH225452   5.403   0.788   7.118 -0.4001 -0.5245  0.3966
 1298TIP3    H125453   5.435   0.782   7.208  1.4996  1.5666 -0.0679
 1298TIP3    H225454   5.428   0.705   7.078  1.0032 -0.4978  1.1548
 1299TIP3   OH225455   2.855   1.803   6.771 -0.7566  0.5799  0.3321
 1299TIP3    H125456   2.878   1.777   6.860  0.5561  0.7171  0.0439
 1299TIP3    H225457   2.821   1.723   6.731  1.6019 -0.2899 -0.0044
 1300TIP3   OH225458   0.475   3.599   0.033  0.9046 -0.0209 -0.0376
 1300TIP3    H125459   0.533   3.650  -0.023  0.8493  2.1845  1.8465
 1300TIP3    H225460   0.534   3.553   0.093  1.0466 -3.4202 -2.6353
 1301TIP3   OH225461   5.337   5.388   7.057  0.0992 -0.5904  0.1414
 1301TIP3    H125462   5.319   5.425   7.143  0.6324  0.3747 -0.1517
 1301TIP3    H225463   5.430   5.367   7.058  0.1877 -0.2448 -0.3163
 1302TIP3   OH225464   2.627   4.409   6.330 -0.2261  0.1542 -0.1208
 1302TIP3    H125465   2.666   4.496   6.322  0.5249 -0.0009  1.5044
 1302TIP3    H225466   2.549   4.412   6.275 -0.7447  2.1842  0.6567
 1303TIP3   OH225467   1.447   6.210   0.701 -0.2441 -0.0657  0.4287
 1303TIP3    H125468   1.420   6.220   0.792 -0.2582  0.0586  0.4108
 1303TIP3    H225469   1.528   6.260   0.693 -0.1019 -0.2893  0.4364
 1304TIP3   OH225470   6.530   4.340   6.680  0.9466 -0.7367  0.2716
 1304TIP3    H125471   6.500   4.271   6.623 -0.0453  1.3504 -1.8172
 1304TIP3    H225472   6.527   4.302   6.768 -1.2229 -2.7445 -0.6304
 1305TIP3   OH225473   4.336   2.008   0.172  0.6945  0.4283  0.0666
 1305TIP3    H125474   4.369   1.939   0.229  1.9623  0.7784 -0.2226
 1305TIP3    H225475   4.380   1.992   0.088 -0.1465  0.7029 -0.4323
 1306TIP3   OH225476   1.429   3.590   6.112 -0.1786  0.1177  0.2912
 1306TIP3    H125477   1.446   3.505   6.071 -0.2809 -0.3131  1.1226
 1306TIP3    H225478   1.476   3.653   6.058 -0.3213 -0.4401 -0.4863
 1307TIP3   OH225479   3.084   2.560   5.939  0.1278 -0.0746  0.7180
 1307TIP3    H125480   3.073   2.482   5.994  0.0414 -0.6671 -0.1295
 1307TIP3    H225481   2.995   2.587   5.917  0.1747 -0.0866  0.5172
 1308TIP3   OH225482   0.801   3.127   7.095 -0.1884 -0.3595 -0.5910
 1308TIP3    H125483   0.789   3.218   7.125  0.3075 -0.4298 -0.1782
 1308TIP3    H225484   0.718   3.105   7.055 -1.0332 -0.4070  1.1209
 1309TIP3   OH225485   2.983   2.795   6.224  0.2624 -0.1410  0.7041
 1309TIP3    H125486   2.990   2.757   6.136 -0.0827 -1.6327  1.2917
 1309TIP3    H225487   3.010   2.886   6.214  2.3560 -0.8659 -0.5324
 1310TIP3   OH225488   2.042   5.265   0.818 -0.1640 -0.0755  0.7062
 1310TIP3    H125489   2.077   5.315   0.892 -0.6771  1.7170 -0.2541
 1310TIP3    H225490   2.012   5.331   0.756  0.1800 -1.5692 -1.0842
 1311TIP3   OH225491   1.849   2.166   6.096 -0.2188  0.1563  0.4759
 1311TIP3    H125492   1.861   2.087   6.148  0.0480  0.6655  1.2007
 1311TIP3    H225493   1.849   2.136   6.006 -1.9354 -0.9037  0.8116
 1312TIP3   OH225494   1.694   3.342   1.803  0.2326 -0.1559 -0.2803
 1312TIP3    H125495   1.747   3.420   1.788 -0.2613  1.0766  3.8711
 1312TIP3    H225496   1.758   3.275   1.830  0.1428  0.1500  0.6966
 1313TIP3   OH225497   7.091   3.110   7.029 -0.0351  0.0308 -0.4841
 1313TIP3    H125498   7.047   3.103   6.944 -0.0151 -2.1343 -0.3607
 1313TIP3    H225499   7.051   3.040   7.081  1.0847  0.3212  0.7623
 1314TIP3   OH225500   3.581   1.819   6.596  0.0371  0.9960 -0.5027
 1314TIP3    H125501   3.561   1.846   6.507 -0.2808  1.1026 -0.3968
 1314TIP3    H225502   3.540   1.733   6.605 -0.5291  1.2983 -0.2249
 1315TIP3   OH225503   1.353   4.018   7.429 -0.4502 -0.8352 -0.2159
 1315TIP3    H125504   1.318   4.102   7.459 -1.0679 -1.2230  0.1661
 1315TIP3    H225505   1.286   3.983   7.370  0.1636 -0.6916 -1.0008
 1316TIP3   OH225506   4.782   2.412   7.234 -0.3666  0.3534  0.2039
 1316TIP3    H125507   4.740   2.478   7.179  0.3262  0.6219 -0.0127
 1316TIP3    H225508   4.760   2.329   7.193  1.1840  0.6164 -1.2275
 1317TIP3   OH225509   1.484   4.417   6.347  0.8686 -0.2585 -0.1184
 1317TIP3    H125510   1.523   4.424   6.260 -1.9572  1.2537 -1.3586
 1317TIP3    H225511   1.431   4.337   6.344 -0.0219  0.3263 -0.1327
 1318TIP3   OH225512   1.695   4.287   7.387  0.5894  0.1442 -0.6722
 1318TIP3    H125513   1.632   4.338   7.439  1.2050  1.0385 -0.7986
 1318TIP3    H225514   1.640   4.233   7.329 -0.1004 -0.6459  0.6780
 1319TIP3   OH225515   2.525   4.545   1.440 -0.7005  0.5866  0.2509
 1319TIP3    H125516   2.459   4.553   1.509  0.5370  0.7727  1.4137
 1319TIP3    H225517   2.488   4.479   1.380 -0.1053 -2.3692  3.0403
 1320TIP3   OH225518   4.964   3.613   1.137  0.6428  0.1193 -0.0948
 1320TIP3    H125519   4.887   3.670   1.139 -0.5110 -1.3939 -0.3938
 1320TIP3    H225520   4.944   3.543   1.199  0.6304 -1.6884 -2.0720
 1321TIP3   OH225521   2.509   5.672   7.591 -0.5336  0.2917 -0.0721
 1321TIP3    H125522   2.582   5.635   7.541 -0.0196  1.8035 -0.4597
 1321TIP3    H225523   2.549   5.738   7.647 -1.2187 -0.9290  1.8750
 1322TIP3   OH225524   2.292   3.835   0.664  0.4336  0.2075  0.3562
 1322TIP3    H125525   2.256   3.774   0.600  0.1849  0.2679  0.4362
 1322TIP3    H225526   2.381   3.804   0.681  0.2681 -0.1921  0.4806
 1323TIP3   OH225527   1.493   2.852   6.811  0.0085 -0.1475  0.5297
 1323TIP3    H125528   1.531   2.919   6.754 -3.1742  1.6568  0.4116
 1323TIP3    H225529   1.438   2.800   6.753  0.0000 -0.9152  1.2213
 1324TIP3   OH225530   1.257   1.510   6.793 -0.0538 -0.9233 -0.2982
 1324TIP3    H125531   1.256   1.596   6.751  2.1354 -1.1743 -0.9269
 1324TIP3    H225532   1.183   1.464   6.754 -1.3040  0.6794  0.0994
 1325TIP3   OH225533   2.631   4.591   0.429 -0.2758 -0.2100 -0.2995
 1325TIP3    H125534   2.620   4.497   0.415 -1.1044 -0.4817  1.9430
 1325TIP3    H225535   2.714   4.599   0.477  0.3625  0.3204 -1.4585
 1326TIP3   OH225536   6.629   0.011   6.820 -0.4119  0.1732 -0.1753
 1326TIP3    H125537   6.723   0.027   6.833 -0.3398  0.6432 -1.1682
 1326TIP3    H225538   6.621  -0.085   6.823 -0.2017  0.2113  1.7916
 1327TIP3   OH225539   2.935   2.469   7.885 -0.2621  0.2555  0.1422
 1327TIP3    H125540   3.029   2.487   7.895 -0.2346  0.6587 -0.7489
 1327TIP3    H225541   2.930   2.415   7.807 -0.7582  0.0949  0.2883
 1328TIP3   OH225542   6.506   6.631   6.646 -0.1842 -0.7075 -0.3364
 1328TIP3    H125543   6.431   6.571   6.642  0.5374 -1.5905 -0.7545
 1328TIP3    H225544   6.567   6.598   6.580  0.6974 -0.1712  0.2006
 1329TIP3   OH225545   4.546   2.964   1.599 -0.1776 -0.0575  0.1960
 1329TIP3    H125546   4.508   2.888   1.644  0.4813 -0.3484  0.2574
 1329TIP3    H225547   4.568   2.932   1.512 -0.3186  0.1881  0.0686
 1330TIP3   OH225548   0.568   2.414   2.120  0.4504  0.3640 -0.2039
 1330TIP3    H125549   0.565   2.323   2.091  0.5825  0.1136  0.5610
 1330TIP3    H225550   0.661   2.438   2.113  0.4227  0.4248 -0.3612
 1331TIP3   OH225551   2.418   2.360   6.457  0.0523 -0.2409  0.5474
 1331TIP3    H125552   2.411   2.321   6.545 -0.2651 -0.7859  0.2855
 1331TIP3    H225553   2.383   2.293   6.399 -0.5704  0.4825  0.0883
 1332TIP3   OH225554   1.287   4.407   0.705 -0.3508  0.1072 -0.1737
 1332TIP3    H125555   1.197   4.439   0.712  0.0482  1.4707 -1.1157
 1332TIP3    H225556   1.299   4.390   0.611 -0.0329 -1.2881  0.1060
 1333TIP3   OH225557   3.245   1.943   0.318  0.2382 -0.3903 -0.0833
 1333TIP3    H125558   3.295   2.005   0.372 -0.1463  0.3412 -0.5588
 1333TIP3    H225559   3.299   1.929   0.241  0.2865 -0.5883 -0.0143
 1334TIP3   OH225560   1.579   3.002   0.586 -0.3252  0.2149  0.4772
 1334TIP3    H125561   1.640   3.035   0.653  0.4044  0.0156 -0.0802
 1334TIP3    H225562   1.590   2.907   0.589 -0.1638  0.2183 -0.0476
 1335TIP3   OH225563   2.695   6.486   8.096  0.2223 -0.0532 -0.7626
 1335TIP3    H125564   2.772   6.436   8.070  1.0512  1.8032 -1.9545
 1335TIP3    H225565   2.727   6.575   8.109 -1.4124  0.3927  0.3820
 1336TIP3   OH225566   1.605   4.237   6.033 -0.6831  0.5702 -0.1424
 1336TIP3    H125567   1.599   4.188   5.952  2.3652  1.4841 -0.9887
 1336TIP3    H225568   1.553   4.316   6.017 -1.7824 -0.1986 -0.4308
 1337TIP3   OH225569   2.550   2.617   0.766  0.1323 -0.5782  0.5827
 1337TIP3    H125570   2.511   2.657   0.688  0.4063  1.5609  1.5050
 1337TIP3    H225571   2.497   2.650   0.839  2.2464  0.5768  1.6477
 1338TIP3   OH225572   1.333   1.897   1.602  0.0818 -0.6778  0.0921
 1338TIP3    H125573   1.377   1.812   1.597 -1.7193 -1.9503  3.7983
 1338TIP3    H225574   1.402   1.958   1.630  0.8233 -1.4618  0.0036
 1339TIP3   OH225575   2.098   3.613   5.837  0.1238 -0.5412 -0.1968
 1339TIP3    H125576   2.076   3.639   5.926 -0.4161 -0.6315 -0.2987
 1339TIP3    H225577   2.113   3.695   5.790  3.1477 -0.5646  0.6380
 1340TIP3   OH225578   1.863   3.920   7.325 -0.4613  0.7056  0.3912
 1340TIP3    H125579   1.846   3.900   7.417 -2.6469  1.1945  0.1347
 1340TIP3    H225580   1.951   3.958   7.324  0.1426 -0.5610  2.0734
 1341TIP3   OH225581   1.123   5.228   6.338  0.2741 -0.5932 -0.1182
 1341TIP3    H125582   1.216   5.251   6.343 -0.1673  1.2609  0.1596
 1341TIP3    H225583   1.094   5.229   6.429 -0.3991  0.5608 -0.3405
 1342TIP3   OH225584   1.563   1.810   0.538 -0.1391 -0.7418  0.3645
 1342TIP3    H125585   1.556   1.867   0.615 -1.5940 -0.1993 -0.1452
 1342TIP3    H225586   1.599   1.867   0.469 -1.1918 -0.5330 -0.0274
 1343TIP3   OH225587   4.378   4.125   7.026  0.5919  0.1391  0.0881
 1343TIP3    H125588   4.300   4.180   7.015  0.0620 -0.7986 -0.9768
 1343TIP3    H225589   4.342   4.039   7.049  1.3581 -0.1041  0.3772
 1344TIP3   OH225590   2.077   3.670   6.110 -0.1330 -0.4886 -0.0223
 1344TIP3    H125591   2.006   3.654   6.173 -1.2874  0.9378 -0.9247
 1344TIP3    H225592   2.087   3.765   6.110  2.4625 -0.7243  0.8006
 1345TIP3   OH225593   2.988   3.704   5.972  0.5345  0.0102 -0.4024
 1345TIP3    H125594   2.931   3.726   5.898  2.0497 -1.5230 -2.0707
 1345TIP3    H225595   3.061   3.766   5.966  1.8084 -1.5522 -1.5861
 1346TIP3   OH225596   1.732   3.590   6.046 -0.1544  0.0570 -0.0194
 1346TIP3    H125597   1.763   3.504   6.073 -1.9205 -0.5153  0.2159
 1346TIP3    H225598   1.700   3.577   5.956  0.1767  0.6226 -0.2268
 1347TIP3   OH225599   1.294   4.209   7.816 -0.1751  0.0570 -0.0090
 1347TIP3    H125600   1.272   4.231   7.726 -0.0649  1.3570  0.2596
 1347TIP3    H225601   1.303   4.294   7.859 -0.6488 -0.5533  1.3253
 1348TIP3   OH225602   0.541   3.606   1.471 -0.2439  0.1600 -0.0408
 1348TIP3    H125603   0.486   3.554   1.412  2.7165  0.0978 -2.8980
 1348TIP3    H225604   0.542   3.693   1.431 -1.3620  1.2289  2.1517
 1349TIP3   OH225605   4.680   0.493   7.324 -0.3556  0.1816 -0.2753
 1349TIP3    H125606   4.597   0.514   7.283  0.4558  1.4358 -1.3057
 1349TIP3    H225607   4.659   0.481   7.417 -1.4997  1.5984 -0.3453
 1350TIP3   OH225608   5.055   1.202   7.796  0.2535 -0.1104 -0.0874
 1350TIP3    H125609   4.965   1.233   7.784  0.5395  0.1527 -1.7665
 1350TIP3    H225610   5.079   1.231   7.884 -0.0788  3.0717 -0.9517
 1351TIP3   OH225611   3.993   3.202   0.780  0.1428  0.1055 -0.7500
 1351TIP3    H125612   4.070   3.243   0.821  0.1906  0.3534 -1.0843
 1351TIP3    H225613   4.017   3.109   0.772 -0.0600 -0.0440  0.2303
 1352TIP3   OH225614   1.669   1.235   5.824  0.1576  0.0460 -0.2228
 1352TIP3    H125615   1.592   1.189   5.857  0.9603 -1.1619 -0.0354
 1352TIP3    H225616   1.665   1.321   5.867 -0.9079 -0.1097  0.0247
 1353TIP3   OH225617   1.960   5.617   8.014  0.0811  0.8807  0.1011
 1353TIP3    H125618   1.907   5.588   7.940  0.5340  0.6155 -0.1227
 1353TIP3    H225619   1.896   5.643   8.081 -0.3285  1.2324 -0.4221
 1354TIP3   OH225620   1.783   0.954   7.339 -0.4874  0.0088  0.1718
 1354TIP3    H125621   1.804   1.047   7.333 -1.4196  0.3237  1.4703
 1354TIP3    H225622   1.709   0.951   7.400 -0.9446 -1.5080 -0.4577
 1355TIP3   OH225623   0.716   4.462   7.341 -0.0654  0.2668 -0.4480
 1355TIP3    H125624   0.770   4.518   7.397  2.0305 -1.2745 -0.8816
 1355TIP3    H225625   0.690   4.518   7.268  1.1116  0.9631 -0.3411
 1356TIP3   OH225626   3.446   2.753   0.699 -0.3368  0.5275 -0.5974
 1356TIP3    H125627   3.477   2.842   0.681  1.4497  0.8336  3.3397
 1356TIP3    H225628   3.354   2.764   0.724 -0.9075  0.8739 -2.7589
 1357TIP3   OH225629   1.957   0.331   7.908 -0.3506 -0.4428  0.1751
 1357TIP3    H125630   2.052   0.341   7.899 -0.5645 -0.7384 -2.6838
 1357TIP3    H225631   1.937   0.245   7.871 -1.5920 -1.0290  2.1055
 1358TIP3   OH225632   3.062   1.770   6.186 -0.4956 -0.4884 -0.7085
 1358TIP3    H125633   3.043   1.755   6.278 -0.1372  0.0370 -0.5460
 1358TIP3    H225634   2.980   1.750   6.140 -0.5851 -1.0433 -0.3115
 1359TIP3   OH225635   6.646   5.249   0.280  0.1700  0.4000  0.1803
 1359TIP3    H125636   6.586   5.209   0.343 -0.0859 -2.2438 -1.6570
 1359TIP3    H225637   6.642   5.192   0.203  3.5574  1.2340 -0.7223
 1360TIP3   OH225638   6.850   0.096   0.776  0.1576 -0.4619 -0.5174
 1360TIP3    H125639   6.879   0.137   0.694  0.4058  0.5284  0.0445
 1360TIP3    H225640   6.851   0.002   0.759  1.5283 -0.3291 -1.2290
 1361TIP3   OH225641   1.836   5.177   0.521 -0.4352 -0.1453 -0.3886
 1361TIP3    H125642   1.833   5.137   0.434  0.4512 -0.5261 -0.2499
 1361TIP3    H225643   1.923   5.216   0.526 -0.3405 -0.4554  0.4688
 1362TIP3   OH225644   3.511   1.860   0.732  0.2742  0.0851  0.1586
 1362TIP3    H125645   3.457   1.903   0.666  1.5445  0.6983 -0.5134
 1362TIP3    H225646   3.598   1.856   0.692  1.1817  0.9308  1.9856
 1363TIP3   OH225647   4.040   3.430   6.084  0.6067  0.1722 -0.2528
 1363TIP3    H125648   4.121   3.380   6.090  1.0075  0.9171  0.6981
 1363TIP3    H225649   4.065   3.511   6.040 -0.0352 -0.4291 -1.7638
 1364TIP3   OH225650   1.367   4.254   5.903 -0.2955  0.4616  0.5272
 1364TIP3    H125651   1.358   4.189   5.973 -2.2843  1.4551  1.2412
 1364TIP3    H225652   1.307   4.223   5.835  0.2737  0.4739  0.0193
 1365TIP3   OH225653   2.790   6.432   7.559 -0.0732 -0.3233 -0.0026
 1365TIP3    H125654   2.750   6.386   7.485  0.3952 -1.0154  0.1707
 1365TIP3    H225655   2.839   6.503   7.518  1.1581 -1.4139 -0.4560
 1366TIP3   OH225656   2.810   2.666   7.214  0.5343 -0.0345  0.1700
 1366TIP3    H125657   2.828   2.573   7.201  2.0717  0.3016 -0.2374
 1366TIP3    H225658   2.794   2.701   7.127  0.5967  0.1966  0.2493
 1367TIP3   OH225659   1.284   2.417   0.312  0.5476  0.1214  0.6644
 1367TIP3    H125660   1.372   2.448   0.292 -0.1449  0.4874 -2.0552
 1367TIP3    H225661   1.292   2.322   0.319  1.0279  0.0934 -0.2626
 1368TIP3   OH225662   4.918   1.872   7.325 -0.2201  0.0783 -0.4956
 1368TIP3    H125663   4.870   1.955   7.327 -1.2954 -0.5557  0.4549
 1368TIP3    H225664   4.906   1.839   7.236 -0.1991  0.7055 -0.7310
 1369TIP3   OH225665   0.202   0.756   8.007 -0.9398  0.2079 -0.1447
 1369TIP3    H125666   0.164   0.828   7.957  1.1429  1.1289 -0.4432
 1369TIP3    H225667   0.191   0.782   8.099 -1.5891  0.1720 -0.2107
 1370TIP3   OH225668   2.665   5.689   6.900  0.6766  0.0444  0.6874
 1370TIP3    H125669   2.621   5.773   6.885 -0.1558 -0.3647  0.8068
 1370TIP3    H225670   2.597   5.633   6.937  0.9318 -1.0311 -0.4454
 1371TIP3   OH225671   7.012   1.288   6.928 -0.2777  0.5149  0.4680
 1371TIP3    H125672   7.042   1.198   6.911 -0.6073  0.5916 -0.5356
 1371TIP3    H225673   6.980   1.286   7.018 -1.9605 -0.8191 -0.1376
 1372TIP3   OH225674   6.089   2.900   6.794 -0.1476 -0.2230 -0.6593
 1372TIP3    H125675   6.179   2.871   6.782  0.6520  1.9428 -0.2588
 1372TIP3    H225676   6.082   2.979   6.740 -0.9546  1.1695  1.3961
 1373TIP3   OH225677   1.118   5.278   1.407 -0.3066 -0.3783  0.5641
 1373TIP3    H125678   1.203   5.235   1.398  1.0792  1.9032  2.2208
 1373TIP3    H225679   1.061   5.230   1.348  2.1296 -1.9774 -0.5810
 1374TIP3   OH225680   1.290   3.381   1.230  0.4958  0.4986  0.6323
 1374TIP3    H125681   1.296   3.326   1.152  3.1402  0.2358  0.9976
 1374TIP3    H225682   1.200   3.416   1.227  0.3084 -0.0892 -2.1076
 1375TIP3   OH225683   0.698   3.780   6.279 -0.0410 -0.0940 -0.5711
 1375TIP3    H125684   0.692   3.867   6.318  1.7908 -0.6536  1.0136
 1375TIP3    H225685   0.612   3.741   6.294 -0.2271  0.7012  0.4767
 1376TIP3   OH225686   0.521   1.851   0.831 -0.4318 -0.4214  0.0966
 1376TIP3    H125687   0.604   1.820   0.866 -0.9912 -0.3633  1.5073
 1376TIP3    H225688   0.513   1.941   0.865 -0.6700 -0.1302 -0.7207
 1377TIP3   OH225689   1.656   2.180   0.129 -0.1071  0.0120 -0.5006
 1377TIP3    H125690   1.633   2.181   0.036  0.8513  0.0216 -0.7406
 1377TIP3    H225691   1.688   2.269   0.147 -3.8300  1.2372  0.7625
 1378TIP3   OH225692   6.703   6.064   7.597  0.4560 -0.5317  0.1850
 1378TIP3    H125693   6.673   5.998   7.659  2.2931 -1.0973  0.4922
 1378TIP3    H225694   6.797   6.048   7.588  0.6261  1.0052 -0.9843
 1379TIP3   OH225695   1.565   6.413   6.125  0.4747 -0.1805 -0.3853
 1379TIP3    H125696   1.501   6.444   6.190  1.7069 -0.2085  0.8650
 1379TIP3    H225697   1.530   6.443   6.041  0.1899  2.1991  0.5380
 1380TIP3   OH225698   2.665   2.403   0.909  0.5369  0.0797  0.0941
 1380TIP3    H125699   2.713   2.349   0.846  0.0723 -1.6293  1.1641
 1380TIP3    H225700   2.674   2.492   0.877  1.5029 -0.6199 -1.6082
 1381TIP3   OH225701   1.940   2.842   7.506 -0.3574 -0.2970  0.3035
 1381TIP3    H125702   1.943   2.937   7.521  0.0055  0.1585 -2.4132
 1381TIP3    H225703   1.960   2.804   7.591 -1.6542  2.0474  1.7200
 1382TIP3   OH225704   2.574   1.188   7.500  0.4547  0.3178 -0.5273
 1382TIP3    H125705   2.511   1.118   7.515  0.0671  0.3812 -1.8364
 1382TIP3    H225706   2.656   1.154   7.534  0.5360 -1.2533 -2.2600
 1383TIP3   OH225707   0.948   2.985   0.411 -0.6302 -0.0122  0.3523
 1383TIP3    H125708   1.024   3.021   0.365 -1.6110  0.4447 -0.9519
 1383TIP3    H225709   0.966   2.891   0.418  0.8400  0.3404  1.6165
 1384TIP3   OH225710   0.825   1.348   7.816 -0.2474  0.4323  0.2919
 1384TIP3    H125711   0.763   1.416   7.790  0.7656 -0.1049 -3.9475
 1384TIP3    H225712   0.774   1.267   7.812 -0.3312  0.4411  1.0506
 1385TIP3   OH225713   0.742   2.514   7.025 -0.2278 -0.2329 -0.1719
 1385TIP3    H125714   0.771   2.423   7.016  1.2979  0.0707  1.3082
 1385TIP3    H225715   0.704   2.536   6.940 -0.1844 -2.1117 -0.6911
 1386TIP3   OH225716   3.244   0.608   8.092  0.0761  0.2217  0.8770
 1386TIP3    H125717   3.222   0.599   8.185 -1.0252 -0.2533  0.5714
 1386TIP3    H225718   3.163   0.588   8.046  0.0619  2.4923 -0.1394
 1387TIP3   OH225719   0.796   2.405   0.390  0.1057  0.6285 -0.2526
 1387TIP3    H125720   0.830   2.316   0.396  0.6191  0.9675  2.9123
 1387TIP3    H225721   0.744   2.405   0.310  0.3745 -2.4295 -0.5094
 1388TIP3   OH225722   3.375   0.851   6.513  0.2670 -0.6368  0.6795
 1388TIP3    H125723   3.420   0.778   6.556 -1.0812 -0.9836  1.5200
 1388TIP3    H225724   3.300   0.810   6.469  0.2255  0.0645  0.1029
 1389TIP3   OH225725   6.547   1.896   1.478  0.3074  0.0367 -0.7379
 1389TIP3    H125726   6.549   1.974   1.422 -1.3158  0.0098 -0.8498
 1389TIP3    H225727   6.542   1.930   1.567  2.6452  0.0754 -0.5773
 1390TIP3   OH225728   3.979   2.132   6.304 -0.2342  0.1881  0.6846
 1390TIP3    H125729   3.922   2.086   6.244  1.0077 -0.3999 -0.0705
 1390TIP3    H225730   3.985   2.221   6.269  0.6911 -0.2230 -0.2211
 1391TIP3   OH225731   6.587   0.653   8.000  0.9666  0.0383  0.2440
 1391TIP3    H125732   6.624   0.590   7.938 -0.5253  1.9836 -2.7342
 1391TIP3    H225733   6.574   0.732   7.948 -2.5141  1.0133  2.4793
 1392TIP3   OH225734   6.519   3.414   6.126 -0.2941 -0.1828 -0.6141
 1392TIP3    H125735   6.450   3.392   6.063 -0.6749 -1.0917  0.0963
 1392TIP3    H225736   6.598   3.375   6.089 -0.8701 -2.3687  0.3749
 1393TIP3   OH225737   3.112   1.604   0.203  0.4353 -0.2599 -0.4432
 1393TIP3    H125738   3.095   1.682   0.256 -0.7707 -1.8560  1.5779
 1393TIP3    H225739   3.204   1.583   0.222  1.0853  1.2256 -1.7986
 1394TIP3   OH225740   3.442   3.321   8.033 -0.4525 -0.6046  0.2134
 1394TIP3    H125741   3.367   3.309   8.090 -1.3636  1.7344 -0.4429
 1394TIP3    H225742   3.438   3.248   7.972 -1.6618 -0.9929  0.7453
 1395TIP3   OH225743   1.884   5.324   6.200  0.4103  0.7897  0.5578
 1395TIP3    H125744   1.969   5.316   6.242 -0.0108  0.7312  1.4140
 1395TIP3    H225745   1.852   5.234   6.192  0.8525  0.7259 -0.6758
 1396TIP3   OH225746   3.060   3.479   1.145 -0.4763  0.0684  0.3348
 1396TIP3    H125747   2.966   3.465   1.141 -0.7989  1.6302  1.9262
 1396TIP3    H225748   3.094   3.403   1.191 -0.9656 -0.4520 -0.1543
 1397TIP3   OH225749   4.766   2.914   0.691  0.5304 -0.1457 -0.0714
 1397TIP3    H125750   4.752   2.853   0.618  0.7365 -0.4644  0.1575
 1397TIP3    H225751   4.818   2.985   0.653  0.4040 -0.1776 -0.3044
 1398TIP3   OH225752   4.797   2.725   6.765 -0.0921 -0.3215 -0.0929
 1398TIP3    H125753   4.778   2.656   6.703 -1.1508  1.0567 -1.3361
 1398TIP3    H225754   4.862   2.780   6.722  0.2344 -0.1587  0.5932
 1399TIP3   OH225755   6.644   0.495   6.433 -0.2248  0.1126 -0.0646
 1399TIP3    H125756   6.668   0.577   6.476 -0.6629  0.3611 -0.2915
 1399TIP3    H225757   6.587   0.451   6.497 -0.4220  0.2266 -0.1630
 1400TIP3   OH225758   2.954   3.506   0.769  0.0450  0.7284 -0.1655
 1400TIP3    H125759   2.942   3.418   0.735  2.1155 -0.0235  1.0068
 1400TIP3    H225760   2.990   3.556   0.695  1.0689  0.0171 -0.1467
 1401TIP3   OH225761   3.964   4.748   7.032  0.4784 -0.2900  0.5397
 1401TIP3    H125762   4.055   4.773   7.017  0.2532  1.6485  2.2981
 1401TIP3    H225763   3.967   4.654   7.045  1.7284 -0.8686 -3.2380
 1402TIP3   OH225764   1.006   0.362   7.644  0.5007  0.7987 -0.1611
 1402TIP3    H125765   1.013   0.341   7.550  1.1153 -2.2811  0.5197
 1402TIP3    H225766   1.090   0.401   7.666  1.3344 -0.8575 -0.3521
 1403TIP3   OH225767   0.222   1.845   7.229 -0.1906 -0.6376 -0.2396
 1403TIP3    H125768   0.228   1.804   7.143  0.9537 -0.3132 -0.3270
 1403TIP3    H225769   0.136   1.886   7.230 -0.5347 -1.3382 -0.9186
 1404TIP3   OH225770   5.409   3.615   0.490  0.0051  0.0895  0.4211
 1404TIP3    H125771   5.319   3.617   0.521  0.1797  2.2666  0.8550
 1404TIP3    H225772   5.402   3.598   0.396 -0.8086 -0.6426  0.6129
 1405TIP3   OH225773   1.609   2.991   6.335  0.0610  0.5645 -0.1670
 1405TIP3    H125774   1.647   2.905   6.322  0.9667  0.9762 -0.2970
 1405TIP3    H225775   1.649   3.046   6.267 -0.2012  1.1744  0.1607
 1406TIP3   OH225776   3.755   4.299   7.981  0.7246 -0.3098  0.3396
 1406TIP3    H125777   3.766   4.212   7.943  2.1350  0.3256 -0.7609
 1406TIP3    H225778   3.730   4.354   7.906  1.2170  0.4943  0.7582
 1407TIP3   OH225779   2.318   2.046   0.801 -0.2464  0.2151 -0.2740
 1407TIP3    H125780   2.406   2.025   0.771 -0.3275  0.7359 -0.8877
 1407TIP3    H225781   2.331   2.093   0.884  0.0030 -0.6480  0.1811
 1408TIP3   OH225782   1.500   0.012   0.167 -0.2939  0.3139  0.8589
 1408TIP3    H125783   1.522  -0.054   0.102 -0.4791  1.1543 -0.0670
 1408TIP3    H225784   1.482  -0.038   0.247 -0.4021 -0.7438  0.1798
 1409TIP3   OH225785   0.608   3.316   6.156 -0.9000  0.5428  0.6490
 1409TIP3    H125786   0.516   3.317   6.182 -1.0870 -1.6032  0.1667
 1409TIP3    H225787   0.631   3.223   6.155  1.3482  1.0781  1.0257
 1410TIP3   OH225788   0.960   1.853   6.134  0.4915  0.2147  0.2402
 1410TIP3    H125789   0.948   1.777   6.078  0.2548 -0.2678  0.9458
 1410TIP3    H225790   1.053   1.874   6.126  1.0812 -1.6391  1.9310
 1411TIP3   OH225791   6.978   0.986   6.808 -0.1564 -0.2610 -0.0118
 1411TIP3    H125792   7.055   1.018   6.762  0.2148 -1.3079 -0.1346
 1411TIP3    H225793   6.945   0.914   6.753 -1.5910  0.5971 -0.2960
 1412TIP3   OH225794   0.396   1.686   6.502  0.7535  0.1099 -0.0063
 1412TIP3    H125795   0.341   1.754   6.463  0.7917  1.0180  1.4682
 1412TIP3    H225796   0.369   1.684   6.594  2.4132 -0.2120  0.4811
 1413TIP3   OH225797   1.061   2.117   7.318  0.2224 -0.5261 -0.0726
 1413TIP3    H125798   1.147   2.091   7.285 -0.2481  0.1186 -1.8834
 1413TIP3    H225799   0.999   2.064   7.267 -0.4891 -0.2848  0.5283
 1414TIP3   OH225800   3.017   1.805   0.420  0.2085 -0.0044  0.2385
 1414TIP3    H125801   2.995   1.798   0.513  0.6840 -1.8255  0.2456
 1414TIP3    H225802   3.100   1.853   0.419 -1.1139  2.3389  0.5565
 1415TIP3   OH225803   2.255   1.933   6.568 -0.0694 -0.1419  0.3304
 1415TIP3    H125804   2.175   1.960   6.613  0.3284  2.1760 -0.3048
 1415TIP3    H225805   2.243   1.963   6.478  1.5530  0.3396  0.2594
 1416TIP3   OH225806   4.196   0.200   8.063  0.5873  0.2688 -0.0073
 1416TIP3    H125807   4.203   0.236   7.975  3.6930 -1.0866 -0.3712
 1416TIP3    H225808   4.247   0.259   8.118  0.8158 -0.3025  0.4095
 1417TIP3   OH225809   2.016   3.253   7.999  0.3338 -0.3081  0.5421
 1417TIP3    H125810   2.099   3.296   8.021  0.8716  0.1004 -2.0929
 1417TIP3    H225811   2.041   3.164   7.976 -0.2214 -0.7287  1.5133
 1418TIP3   OH225812   3.384   4.459   7.453 -0.3193 -0.3870  0.1734
 1418TIP3    H125813   3.304   4.419   7.417 -0.6902 -1.6043  2.2886
 1418TIP3    H225814   3.401   4.410   7.533  1.2839  1.3887  0.9417
 1419TIP3   OH225815   3.263   1.578   6.490  0.2019 -0.1843 -0.1963
 1419TIP3    H125816   3.270   1.671   6.512  0.2625 -0.0867 -0.6190
 1419TIP3    H225817   3.304   1.533   6.563 -0.0705  0.1110  0.1382
 1420TIP3   OH225818   2.963   5.471   6.237 -0.2197  0.2751 -0.0980
 1420TIP3    H125819   2.980   5.392   6.287 -1.0643 -0.6704 -1.2854
 1420TIP3    H225820   2.872   5.464   6.210 -0.3394  1.7156 -0.1055
 1421TIP3   OH225821   6.220   1.006   1.085 -0.1006  0.4145  0.0607
 1421TIP3    H125822   6.316   1.008   1.088 -0.0602  1.1345 -1.2414
 1421TIP3    H225823   6.200   0.944   1.015 -0.5852  0.3381  0.2686
 1422TIP3   OH225824   6.195   2.485   7.299 -0.4831  0.0816  0.1224
 1422TIP3    H125825   6.228   2.497   7.210  1.1384 -1.2319  0.5232
 1422TIP3    H225826   6.120   2.427   7.289 -2.8314  3.1128 -0.7948
 1423TIP3   OH225827   6.765   0.496   1.408 -0.3809  0.4407 -0.9773
 1423TIP3    H125828   6.797   0.527   1.323  1.6180 -0.0961 -0.4487
 1423TIP3    H225829   6.754   0.576   1.460 -0.1166  0.6448 -1.2314
 1424TIP3   OH225830   0.049   4.460   0.821  0.0171  0.0513 -0.0720
 1424TIP3    H125831   0.138   4.478   0.853 -0.8932  0.3399  2.4075
 1424TIP3    H225832   0.016   4.392   0.879 -1.9656  1.1397  0.1232
 1425TIP3   OH225833   3.625   0.390   6.955  0.6453 -0.0390 -0.2335
 1425TIP3    H125834   3.584   0.328   6.895  0.3905 -1.6438  1.5768
 1425TIP3    H225835   3.573   0.470   6.946  0.9406 -0.0722 -2.5272
 1426TIP3   OH225836   5.734   1.740   7.324  0.1779  0.0011  0.0382
 1426TIP3    H125837   5.789   1.761   7.249  0.9907 -1.6485  0.1627
 1426TIP3    H225838   5.772   1.791   7.396 -0.0158  0.8314 -0.4403
 1427TIP3   OH225839   2.588   3.335   0.455 -0.0952 -0.0383  0.7790
 1427TIP3    H125840   2.635   3.319   0.373  0.2665 -0.0202  0.9811
 1427TIP3    H225841   2.585   3.430   0.462 -2.1745 -0.0001 -0.3805
 1428TIP3   OH225842   5.729   0.472   0.453  0.3290 -0.1610 -0.4664
 1428TIP3    H125843   5.802   0.411   0.464  0.2573 -0.1703 -0.0453
 1428TIP3    H225844   5.760   0.534   0.388  0.0346 -1.2305 -1.6499
 1429TIP3   OH225845   2.692   4.372   5.845  0.9316 -0.3705  0.0606
 1429TIP3    H125846   2.782   4.349   5.820  0.6433 -2.1184  0.5827
 1429TIP3    H225847   2.666   4.304   5.906 -0.8091  0.0491 -0.1975
 1430TIP3   OH225848   2.696   2.068   1.031  0.3500  0.5127 -0.0785
 1430TIP3    H125849   2.688   2.017   1.112  0.1926 -0.1369 -0.4932
 1430TIP3    H225850   2.774   2.121   1.043  1.6602 -1.2759 -0.4025
 1431TIP3   OH225851   5.561   3.792   0.584  0.5810  0.0180  0.0818
 1431TIP3    H125852   5.654   3.773   0.567  0.1047 -0.4770 -2.2128
 1431TIP3    H225853   5.516   3.711   0.562 -0.6598  1.1574 -1.7372
 1432TIP3   OH225854   5.884   1.021   7.318  0.3247 -0.0128 -0.5056
 1432TIP3    H125855   5.802   1.062   7.345  0.3093 -1.6344  2.2165
 1432TIP3    H225856   5.936   1.018   7.399  1.6490 -2.1532 -1.3983
 1433TIP3   OH225857   4.009   2.033   7.494 -0.8002 -0.7738  0.1602
 1433TIP3    H125858   3.923   2.032   7.536 -0.9977  0.8979 -0.1718
 1433TIP3    H225859   4.071   2.032   7.567 -1.1414  2.1809  0.5529
 1434TIP3   OH225860   4.245   2.759   6.225 -0.7645 -0.1926 -0.1556
 1434TIP3    H125861   4.227   2.757   6.319 -0.6536 -2.2025 -0.1622
 1434TIP3    H225862   4.221   2.848   6.198 -1.5544  0.1546  1.6124
 1435TIP3   OH225863   2.886   3.596   6.952  0.5326 -0.8463  0.1019
 1435TIP3    H125864   2.952   3.549   6.901 -0.7052 -1.2231 -1.1852
 1435TIP3    H225865   2.852   3.531   7.013 -0.3252 -1.3078 -0.8568
 1436TIP3   OH225866   6.672   4.778   7.016 -0.0963 -0.1795  0.0984
 1436TIP3    H125867   6.757   4.767   6.974  0.4180 -1.1821  1.3585
 1436TIP3    H225868   6.609   4.769   6.945  0.8637  1.0706 -0.9264
 1437TIP3   OH225869   6.629   6.195   0.348 -0.1685 -0.3734  0.3378
 1437TIP3    H125870   6.688   6.233   0.413 -1.2201  0.1694  0.9964
 1437TIP3    H225871   6.544   6.191   0.393 -1.3854  1.8952 -1.6426
 1438TIP3   OH225872   5.106   0.437   7.840  0.4610 -0.2985  0.5770
 1438TIP3    H125873   5.151   0.459   7.758  1.1297  1.1204  1.3113
 1438TIP3    H225874   5.170   0.455   7.909 -0.4588 -0.4542  1.4900
 1439TIP3   OH225875   2.892   2.022   6.654 -0.6288 -0.4813  0.2103
 1439TIP3    H125876   2.958   2.042   6.721 -2.5915 -0.6399  2.2507
 1439TIP3    H225877   2.861   1.935   6.677 -2.2204 -0.0208 -0.1308
 1440TIP3   OH225878   4.573   5.825   0.738  0.2065  0.1131 -0.1059
 1440TIP3    H125879   4.580   5.732   0.719 -0.0924 -0.0501  0.5682
 1440TIP3    H225880   4.486   5.849   0.708 -0.0548 -0.0243  0.5226
 1441TIP3   OH225881   3.326   0.479   6.742  0.4203  0.3138 -0.5394
 1441TIP3    H125882   3.263   0.410   6.764  0.7354  0.5182  0.9903
 1441TIP3    H225883   3.337   0.471   6.647 -4.0005  2.0248 -1.3090
 1442TIP3   OH225884   4.391   1.783   5.721  0.7006 -0.4538 -0.1525
 1442TIP3    H125885   4.319   1.792   5.783  1.4759  0.7236  0.6171
 1442TIP3    H225886   4.469   1.769   5.776  1.3410  0.2415 -0.8572
 1443TIP3   OH225887   2.562   2.412   7.274 -0.1691  0.0144  0.1522
 1443TIP3    H125888   2.658   2.418   7.274 -0.1639 -0.0675  0.3903
 1443TIP3    H225889   2.536   2.446   7.189  0.0476  0.4350  0.2496
 1444TIP3   OH225890   4.380   1.113   6.956 -0.0079 -0.0078  0.0542
 1444TIP3    H125891   4.308   1.062   6.992 -0.5448  0.5965 -0.1454
 1444TIP3    H225892   4.446   1.049   6.933 -2.0475 -0.9654 -3.4139
 1445TIP3   OH225893   4.412   4.570   7.173 -0.2566  0.1363  0.5418
 1445TIP3    H125894   4.345   4.502   7.186 -0.9226  0.6526 -0.1681
 1445TIP3    H225895   4.429   4.603   7.261 -2.4167  1.3967  0.5324
 1446TIP3   OH225896   3.969   5.544   6.467 -0.1947 -0.2028  0.2033
 1446TIP3    H125897   4.018   5.527   6.387  1.6367  0.6444  1.1376
 1446TIP3    H225898   3.884   5.576   6.436  0.2635 -0.4637 -1.3944
 1447TIP3   OH225899   0.866   4.264   7.845 -0.5243 -0.0174 -0.1984
 1447TIP3    H125900   0.780   4.294   7.816 -0.8296 -0.9393 -0.2788
 1447TIP3    H225901   0.863   4.267   7.940 -0.3406  0.7834 -0.2189
 1448TIP3   OH225902   3.717   1.749   7.591  0.0247 -0.2291  0.0431
 1448TIP3    H125903   3.657   1.678   7.567 -0.9645 -0.0833  1.9707
 1448TIP3    H225904   3.786   1.746   7.525 -1.6022 -1.0220 -1.6546
 1449TIP3   OH225905   6.703   2.100   7.011  0.6828 -0.1593  0.2935
 1449TIP3    H125906   6.682   2.017   6.969  0.1360  0.4381 -0.6443
 1449TIP3    H225907   6.663   2.094   7.097 -1.3856  0.0184 -0.6090
 1450TIP3   OH225908   3.624   5.401   7.080 -0.1263 -0.0505 -0.1481
 1450TIP3    H125909   3.579   5.396   7.164  1.4562  1.2063  0.7923
 1450TIP3    H225910   3.684   5.326   7.080 -0.4770 -0.3331 -0.3715
 1451TIP3   OH225911   4.444   1.983   6.529 -0.3401 -0.7720 -0.6790
 1451TIP3    H125912   4.398   1.953   6.608 -1.0153 -0.3176 -0.8963
 1451TIP3    H225913   4.378   2.031   6.480  1.1899  2.6539  0.5033
 1452TIP3   OH225914   6.174   3.152   6.370  0.1196 -0.3899 -0.1895
 1452TIP3    H125915   6.175   3.170   6.276 -0.3176 -0.2949 -0.1764
 1452TIP3    H225916   6.255   3.102   6.385  0.2176 -0.3635 -0.6050
 1453TIP3   OH225917   5.997   4.105   6.866 -0.0303 -0.5696  0.7763
 1453TIP3    H125918   6.088   4.128   6.886 -0.3584 -0.8931  2.7815
 1453TIP3    H225919   5.957   4.188   6.839  1.1320 -0.6529 -1.2805
 1454TIP3   OH225920   0.759   1.821   0.970 -0.5209  0.3441 -0.1159
 1454TIP3    H125921   0.788   1.896   1.021  0.3350 -0.1695  0.1576
 1454TIP3    H225922   0.834   1.799   0.914 -1.1849  0.4435 -1.0672
 1455TIP3   OH225923   4.432   2.919   7.988  0.2035  0.4830  0.4901
 1455TIP3    H125924   4.390   2.990   8.037 -0.3957 -0.4736  1.3919
 1455TIP3    H225925   4.365   2.891   7.926  0.1631  0.1813  0.6707
 1456TIP3   OH225926   5.213   0.745   6.338 -0.5163  0.1866  0.1314
 1456TIP3    H125927   5.154   0.779   6.271  0.4179  1.2851 -0.1454
 1456TIP3    H225928   5.196   0.651   6.339 -1.1567  0.2800 -1.0334
 1457TIP3   OH225929   2.235   2.281   7.177 -0.5157 -0.2505  0.1179
 1457TIP3    H125930   2.319   2.257   7.214 -1.5496  1.2111  3.5836
 1457TIP3    H225931   2.246   2.372   7.148 -0.5780 -0.4159 -0.4246
 1458TIP3   OH225932   4.465   5.413   0.075 -0.1232  0.8243  0.3377
 1458TIP3    H125933   4.399   5.452   0.018  0.0881 -0.0747 -0.5293
 1458TIP3    H225934   4.443   5.320   0.078  1.9300  0.2298 -1.1641
 1459TIP3   OH225935   2.118   3.848   7.744 -0.5468 -0.5429 -0.1646
 1459TIP3    H125936   2.127   3.753   7.734  0.0825 -0.5055  0.0078
 1459TIP3    H225937   2.029   3.860   7.776 -1.0944 -0.9787 -1.4816
 1460TIP3   OH225938   0.948   0.920   7.196  0.0077  0.1017 -0.1224
 1460TIP3    H125939   0.985   0.848   7.246  1.7122  1.3378  0.4452
 1460TIP3    H225940   0.859   0.891   7.174  0.1690 -1.5561  1.3272
 1461TIP3   OH225941   4.158   2.868   0.168 -0.5809  0.3949 -0.1407
 1461TIP3    H125942   4.094   2.873   0.239  1.0196  2.7107  1.2201
 1461TIP3    H225943   4.183   2.959   0.153  3.6421 -0.5625  0.5534
 1462TIP3   OH225944   3.513   2.951   0.015 -0.5538  0.2081  0.1497
 1462TIP3    H125945   3.601   2.952   0.052 -0.4875  1.8577 -0.0291
 1462TIP3    H225946   3.459   2.995   0.081 -0.6685  2.0210 -1.1432
 1463TIP3   OH225947   4.099   2.725   5.627 -0.3347  0.0723 -0.7597
 1463TIP3    H125948   4.190   2.738   5.655 -0.4150 -0.7001 -0.1303
 1463TIP3    H225949   4.055   2.691   5.704 -0.8620 -0.8126 -1.4421
 1464TIP3   OH225950   3.010   2.427   6.876 -0.4437  0.1904 -0.8203
 1464TIP3    H125951   2.936   2.385   6.833  0.1230  0.4729 -2.0693
 1464TIP3    H225952   3.085   2.409   6.819  0.7765 -1.4497  1.1990
 1465TIP3   OH225953   5.468   6.498   6.547  0.1027  0.0444  0.0219
 1465TIP3    H125954   5.398   6.436   6.568 -0.9226  0.5742 -1.7320
 1465TIP3    H225955   5.549   6.449   6.560 -0.6987 -1.6905 -1.4068
 1466TIP3   OH225956   4.278   4.480   0.148 -0.1528 -0.0959 -0.2200
 1466TIP3    H125957   4.209   4.494   0.082 -0.1820  0.8766  0.0093
 1466TIP3    H225958   4.359   4.476   0.097 -0.3982 -1.4655 -0.5127
 1467TIP3   OH225959   5.681   0.430   1.832 -0.3205 -0.4469 -0.3296
 1467TIP3    H125960   5.601   0.448   1.882  0.6172  0.9406  0.7288
 1467TIP3    H225961   5.686   0.335   1.829 -1.0266 -0.5580  1.2485
 1468TIP3   OH225962   3.426   2.388   6.427  0.5253  0.5994 -0.0859
 1468TIP3    H125963   3.494   2.431   6.375  1.0420 -0.3771 -0.2193
 1468TIP3    H225964   3.349   2.443   6.415  1.0458  1.2178 -0.6571
 1469TIP3   OH225965   3.520   3.861   6.000 -0.0352  0.5537  0.6615
 1469TIP3    H125966   3.572   3.820   5.931 -0.2200 -0.9198  1.3821
 1469TIP3    H225967   3.460   3.919   5.953  0.0040 -0.2525 -0.4005
 1470TIP3   OH225968   5.949   4.522   6.482 -0.5610 -0.1672 -0.3398
 1470TIP3    H125969   5.889   4.498   6.553 -0.6703  0.1087 -0.3363
 1470TIP3    H225970   5.903   4.496   6.403  0.1404 -1.7273 -0.2604
 1471TIP3   OH225971   1.214   4.553   6.618  0.1661  0.1998 -0.9009
 1471TIP3    H125972   1.231   4.460   6.635  2.4363  1.0379  1.8074
 1471TIP3    H225973   1.283   4.579   6.557 -1.7331 -0.3287 -3.3540
 1472TIP3   OH225974   1.072   2.311   6.937  0.0331  0.3063 -0.1885
 1472TIP3    H125975   1.114   2.362   6.868  1.5440 -1.1661 -0.3947
 1472TIP3    H225976   1.137   2.308   7.007  0.1326 -1.7031 -0.3611
 1473TIP3   OH225977   0.878   2.648   6.650 -0.1992 -0.1307 -0.3430
 1473TIP3    H125978   0.919   2.712   6.591 -0.1763 -0.3828 -0.5989
 1473TIP3    H225979   0.931   2.653   6.730 -0.4693  0.4942 -0.2011
 1474TIP3   OH225980   2.891   0.736   6.233  0.3553  0.2250  0.2518
 1474TIP3    H125981   2.968   0.679   6.232  0.3379  0.1670  1.4743
 1474TIP3    H225982   2.920   0.816   6.189  0.9481 -0.0096  0.2132
 1475TIP3   OH225983   4.314   3.254   7.013  0.2049 -0.2270 -0.2322
 1475TIP3    H125984   4.229   3.273   6.972  0.4576  1.9267  0.2030
 1475TIP3    H225985   4.298   3.173   7.063 -1.8874  0.7011  0.6730
 1476TIP3   OH225986   4.733   6.519   6.380 -0.4467 -0.0129 -0.0237
 1476TIP3    H125987   4.719   6.450   6.445  0.6408  0.1719  0.4055
 1476TIP3    H225988   4.825   6.542   6.389 -0.4211  0.3782 -1.2755
 1477TIP3   OH225989   2.221   5.701   8.021  0.6245  0.1680  0.2851
 1477TIP3    H125990   2.134   5.669   8.045  0.5389  1.4405  1.7095
 1477TIP3    H225991   2.243   5.653   7.941 -1.4274 -0.0938 -0.1462
 1478TIP3   OH225992   4.049   1.392   6.545 -0.6289  0.1109  0.1665
 1478TIP3    H125993   4.053   1.297   6.537  0.2700 -0.0483  2.1700
 1478TIP3    H225994   4.126   1.423   6.499 -0.5911 -0.1738  0.0368
 1479TIP3   OH225995   0.864   3.120   0.801  0.1898  0.0292  0.5172
 1479TIP3    H125996   0.928   3.102   0.870 -0.4554  1.1701  1.4506
 1479TIP3    H225997   0.864   3.215   0.794 -2.1189  0.1129  1.2610
 1480TIP3   OH225998   3.241   1.868   2.118 -0.2943  0.0653  0.2765
 1480TIP3    H125999   3.157   1.845   2.079 -0.4212  2.2934 -0.8689
 1480TIP3    H226000   3.279   1.932   2.057  0.6526  1.7174  2.5194
 1481TIP3   OH226001   1.345   4.555   0.446  0.3298 -0.0997  0.4029
 1481TIP3    H126002   1.434   4.521   0.445  1.0144  1.6631  0.1826
 1481TIP3    H226003   1.352   4.642   0.486 -0.7636  1.5010 -2.7556
 1482TIP3   OH226004   2.652   2.211   6.269  0.0515  0.8134  0.7791
 1482TIP3    H126005   2.722   2.147   6.281 -0.7778 -0.1693  0.3763
 1482TIP3    H226006   2.683   2.289   6.316  0.2635 -0.4457  2.7866
 1483TIP3   OH226007   4.416   3.928   0.717  0.5015 -0.3370  0.4705
 1483TIP3    H126008   4.344   3.991   0.715  0.0073 -0.9087  0.0474
 1483TIP3    H226009   4.477   3.963   0.782  0.0197  0.3454  0.5587
 1484TIP3   OH226010   2.217   3.655   7.368 -0.0340  0.2638  0.4129
 1484TIP3    H126011   2.303   3.686   7.396  0.8568 -0.4786 -1.3449
 1484TIP3    H226012   2.196   3.708   7.291 -0.0648 -1.0871 -0.5465
 1485TIP3   OH226013   2.910   5.804   6.504 -0.4542  0.0867 -0.3636
 1485TIP3    H126014   2.878   5.893   6.487  0.6805  0.1368 -2.3396
 1485TIP3    H226015   2.944   5.774   6.420 -0.0719 -1.9270  0.4818
 1486TIP3   OH226016   5.717   2.182   1.334 -0.0768 -0.5674 -0.0117
 1486TIP3    H126017   5.691   2.095   1.303  1.7212 -1.2434  0.3230
 1486TIP3    H226018   5.761   2.166   1.417  0.4267  0.6471 -0.0376
 1487TIP3   OH226019   6.499   2.236   6.699 -0.2108 -0.2952 -0.0801
 1487TIP3    H126020   6.533   2.325   6.694 -1.2517  0.0865 -0.6352
 1487TIP3    H226021   6.560   2.184   6.647  0.4071  0.0887  0.2502
 1488TIP3   OH226022   5.691   2.488   7.865  0.3201  0.6090  0.1551
 1488TIP3    H126023   5.764   2.479   7.804 -0.3076  0.4587 -0.5887
 1488TIP3    H226024   5.726   2.536   7.940  1.3577 -0.0744  0.1106
 1489TIP3   OH226025   4.769   4.173   7.741  0.2349 -0.0009  0.1466
 1489TIP3    H126026   4.811   4.202   7.660  0.3251  0.0796  0.2206
 1489TIP3    H226027   4.826   4.208   7.811 -1.6889  2.9153  0.3207
 1490TIP3   OH226028   1.807   3.802   7.973 -0.0404  0.3154 -0.6620
 1490TIP3    H126029   1.732   3.771   8.025  2.0086 -1.8901  1.0469
 1490TIP3    H226030   1.772   3.878   7.926 -3.1174 -0.1020  0.7736
 1491TIP3   OH226031   1.185   3.060   7.947 -0.7426  0.4364 -0.2506
 1491TIP3    H126032   1.253   3.057   7.880 -0.5134  1.5707 -0.0815
 1491TIP3    H226033   1.232   3.050   8.030 -1.1976 -2.6501 -0.3182
 1492TIP3   OH226034   2.948   3.828   8.083  0.0006 -0.0268  0.0148
 1492TIP3    H126035   2.965   3.906   8.136  2.6402 -0.7448  0.3251
 1492TIP3    H226036   2.886   3.776   8.135  1.7784 -0.2549  1.9776
 1493TIP3   OH226037   4.261   1.862   6.694  0.1133 -0.2726  0.1862
 1493TIP3    H126038   4.242   1.791   6.755  0.5557 -0.6000 -0.0543
 1493TIP3    H226039   4.175   1.893   6.666 -0.0758 -1.3626 -0.4604
 1494TIP3   OH226040   3.554   0.984   6.703  0.4300  0.5042 -0.0424
 1494TIP3    H126041   3.500   0.945   6.634  0.8871 -0.2367  0.0196
 1494TIP3    H226042   3.583   1.067   6.665 -1.3511  1.2630  0.2018
 1495TIP3   OH226043   3.130   2.366   1.095  0.3256 -0.1257  0.3917
 1495TIP3    H126044   3.186   2.428   1.049  1.4366 -0.2595  1.5577
 1495TIP3    H226045   3.107   2.411   1.177  0.9971 -1.1654  1.1619
 1496TIP3   OH226046   1.031   4.512   0.781 -0.8586  0.1119  0.0683
 1496TIP3    H126047   0.983   4.509   0.864 -1.4429 -3.8816 -0.3273
 1496TIP3    H226048   0.967   4.546   0.718 -1.7818 -0.9495  0.4208
 1497TIP3   OH226049   4.886   1.263   7.340 -0.0174  0.4767 -0.4659
 1497TIP3    H126050   4.911   1.293   7.427  0.2099  0.7803 -0.6328
 1497TIP3    H226051   4.907   1.170   7.339 -1.0811  0.2273  0.1859
 1498TIP3   OH226052   2.710   2.401   6.462  0.7713 -0.4219  0.1038
 1498TIP3    H126053   2.683   2.455   6.536  0.2629 -2.2366  1.2767
 1498TIP3    H226054   2.793   2.440   6.432 -0.8972  2.5677 -0.7695
 1499TIP3   OH226055   2.449   2.774   7.962  0.1124  0.0928 -0.9058
 1499TIP3    H126056   2.526   2.718   7.955  0.1695  0.1201 -0.5272
 1499TIP3    H226057   2.388   2.724   8.015 -0.6464 -0.4827 -2.2981
 1500TIP3   OH226058   0.715   4.057   0.431 -0.3354 -0.4679  0.9277
 1500TIP3    H126059   0.701   4.151   0.441 -0.1533 -0.2011 -1.0804
 1500TIP3    H226060   0.641   4.017   0.475 -0.7666  0.6403  1.2300
 1501TIP3   OH226061   6.849   2.472   0.203 -0.2160  0.1923  0.1261
 1501TIP3    H126062   6.836   2.499   0.112 -1.5858 -1.0817 -0.0896
 1501TIP3    H226063   6.944   2.474   0.216  0.0607 -0.6650 -1.6705
 1502TIP3   OH226064   4.495   5.946   6.673 -0.1439  0.2614  0.4490
 1502TIP3    H126065   4.583   5.911   6.663 -0.7505 -1.1975  0.0432
 1502TIP3    H226066   4.506   6.041   6.674  1.6734  0.0592  2.8076
 1503TIP3   OH226067   4.786   2.238   6.281  0.0537 -0.2751  0.3904
 1503TIP3    H126068   4.729   2.294   6.335 -1.0998 -1.5742  0.5433
 1503TIP3    H226069   4.859   2.295   6.257 -0.4025  0.8998  1.6963
 1504TIP3   OH226070   5.665   1.137   0.392  0.2650  0.1014 -0.2890
 1504TIP3    H126071   5.680   1.044   0.408  1.1307  0.1902 -0.5371
 1504TIP3    H226072   5.636   1.142   0.301 -0.4166  0.0166 -0.0803
 1505TIP3   OH226073   3.479   5.407   7.310 -0.6752  0.4010 -0.4511
 1505TIP3    H126074   3.494   5.486   7.362  1.0582  0.6147 -1.2207
 1505TIP3    H226075   3.401   5.367   7.348 -2.3157  3.1256 -0.8096
 1506TIP3   OH226076   2.825   5.158   6.732  0.1374 -0.0854 -0.5145
 1506TIP3    H126077   2.920   5.149   6.726  0.1593 -0.3635  0.2889
 1506TIP3    H226078   2.811   5.246   6.767  0.1320 -0.6157  0.8157
 1507TIP3   OH226079   3.500   3.032   6.321 -0.3051  0.0073 -0.1998
 1507TIP3    H126080   3.589   3.054   6.348  0.5882 -1.7946 -1.5536
 1507TIP3    H226081   3.494   3.065   6.231 -0.5181 -1.0980 -0.5962
 1508TIP3   OH226082   3.706   2.129   6.544 -0.2264  0.1216 -0.0880
 1508TIP3    H126083   3.756   2.047   6.539  0.2951  0.4818 -0.7782
 1508TIP3    H226084   3.633   2.117   6.482 -1.0139 -0.4050  0.9220
 1509TIP3   OH226085   6.521   5.264   0.638  0.4649  0.3790 -0.4596
 1509TIP3    H126086   6.483   5.216   0.565  1.3717  0.5951 -1.0904
 1509TIP3    H226087   6.448   5.314   0.675 -0.0042  0.2686 -1.2182
 1510TIP3   OH226088   3.697   4.439   0.600 -0.2362  0.0196 -0.0912
 1510TIP3    H126089   3.721   4.414   0.689  1.9682  0.7789 -0.4333
 1510TIP3    H226090   3.654   4.524   0.610  0.7593  0.5039  0.2019
 1511TIP3   OH226091   2.240   3.424   0.627  0.0859 -0.5540  0.3602
 1511TIP3    H126092   2.322   3.433   0.676  1.1570  2.6686 -1.8251
 1511TIP3    H226093   2.255   3.351   0.568  0.9526 -0.7638  0.8302
 1512TIP3   OH226094   3.927   2.720   7.219  0.4830  0.1864 -0.4986
 1512TIP3    H126095   3.981   2.772   7.161  1.9730 -0.4647  0.2739
 1512TIP3    H226096   3.978   2.713   7.300 -2.0117  2.0026  1.3156
 1513TIP3   OH226097   3.321   2.086   6.795  0.4013  0.3114 -0.6164
 1513TIP3    H126098   3.336   2.154   6.861  0.2346  0.2812 -0.5470
 1513TIP3    H226099   3.408   2.061   6.767  0.4479  1.6396 -1.7525
 1514TIP3   OH226100   2.116   1.511   0.293 -0.3413 -0.0184 -0.4382
 1514TIP3    H126101   2.154   1.426   0.272 -1.5174 -0.9849  1.2054
 1514TIP3    H226102   2.129   1.521   0.387 -1.6480  0.8741 -0.3337
 1515TIP3   OH226103   5.798   1.224   5.880 -0.0468  0.2694 -0.4426
 1515TIP3    H126104   5.861   1.262   5.942 -0.6261  0.4520  0.0417
 1515TIP3    H226105   5.810   1.130   5.890 -1.7487  0.2331  1.6683
 1516TIP3   OH226106   5.433   6.447   6.173  0.1929 -0.6015 -0.0096
 1516TIP3    H126107   5.390   6.523   6.134 -1.6520 -1.6322 -0.0488
 1516TIP3    H226108   5.500   6.423   6.109  1.3480  1.4589  0.3834
 1517TIP3   OH226109   3.649   2.101   7.110  0.1590 -0.2492 -0.0998
 1517TIP3    H126110   3.736   2.065   7.092 -0.0243 -0.8075  0.1299
 1517TIP3    H226111   3.617   2.129   7.024  1.1406  1.2735  0.0204
 1518TIP3   OH226112   6.031   0.509   8.001  0.6288  0.1928 -0.1100
 1518TIP3    H126113   6.003   0.431   8.049 -2.0697  0.9287 -0.4085
 1518TIP3    H226114   6.039   0.478   7.910 -1.1209  0.3713 -0.3529
 1519TIP3   OH226115   0.117   4.953   7.816  0.1780  0.0228  0.0639
 1519TIP3    H126116   0.068   4.944   7.734 -0.6463  0.2926  0.5230
 1519TIP3    H226117   0.142   5.045   7.820  2.2037 -0.4330 -0.9887
 1520TIP3   OH226118   2.447   3.745   7.474  0.0033  0.3095 -0.1438
 1520TIP3    H126119   2.403   3.764   7.557  1.3412  0.8549  0.4566
 1520TIP3    H226120   2.433   3.823   7.421  0.5864  0.6508  0.1990
 1521TIP3   OH226121   0.385   6.614   7.420 -0.4589 -0.3879 -0.4857
 1521TIP3    H126122   0.345   6.534   7.454  1.0448 -1.3699 -1.0379
 1521TIP3    H226123   0.479   6.602   7.432 -0.2048  1.3153 -0.5396
 1522TIP3   OH226124   4.903   3.410   7.263 -0.1534  0.2216  0.0930
 1522TIP3    H126125   4.826   3.354   7.272  0.8074 -1.2637 -0.8077
 1522TIP3    H226126   4.940   3.387   7.178  1.2461  0.9673  0.4843
 1523TIP3   OH226127   4.776   3.967   5.826  0.1419  0.0135  0.5261
 1523TIP3    H126128   4.836   4.003   5.761  1.8325 -1.3859  1.2727
 1523TIP3    H226129   4.812   3.995   5.910 -0.4661 -0.5145  0.9687
 1524TIP3   OH226130   3.990   2.517   7.846 -0.1213 -0.0126 -0.2175
 1524TIP3    H126131   3.971   2.424   7.851  1.1852 -0.3191 -0.6387
 1524TIP3    H226132   3.905   2.559   7.833 -0.7537 -1.1130  0.3367
 1525TIP3   OH226133   2.085   2.217   5.739 -0.1071 -0.3350  0.3585
 1525TIP3    H126134   2.020   2.153   5.770 -0.8011 -0.4740 -1.3470
 1525TIP3    H226135   2.112   2.184   5.654  0.7841  0.7627  0.2131
 1526TIP3   OH226136   4.522   4.061   5.943  0.2421  0.1467 -0.4740
 1526TIP3    H126137   4.554   4.033   5.858 -1.9356 -1.1762 -0.9103
 1526TIP3    H226138   4.462   4.133   5.924 -1.7813 -1.4347 -0.2989
 1527TIP3   OH226139   2.991   4.321   5.786 -0.4168 -0.4120 -0.6219
 1527TIP3    H126140   3.018   4.251   5.846 -2.1320 -0.3226  0.3025
 1527TIP3    H226141   3.062   4.328   5.723  1.6933 -0.1826  1.6935
 1528TIP3   OH226142   4.624   3.734   1.403  0.0302 -0.5323  0.2338
 1528TIP3    H126143   4.666   3.683   1.472  0.4082 -1.0692 -0.3820
 1528TIP3    H226144   4.653   3.824   1.419  0.2389 -0.6781  0.6822
 1529TIP3   OH226145   0.152   1.221   0.753 -0.2867 -0.5836 -0.1643
 1529TIP3    H126146   0.187   1.158   0.690 -0.3199 -0.2303 -0.5308
 1529TIP3    H226147   0.187   1.191   0.838 -1.0845 -1.6652 -0.2027
 1530TIP3   OH226148   0.257   4.144   1.646 -0.0861  0.4364  0.3032
 1530TIP3    H126149   0.348   4.172   1.633  0.4305  0.1678  2.9661
 1530TIP3    H226150   0.228   4.194   1.722 -1.1306 -1.7574  1.3912
 1531TIP3   OH226151   2.920   2.570   6.423  0.2630  0.0400 -0.0231
 1531TIP3    H126152   2.964   2.596   6.504 -0.2709  0.5526  0.1033
 1531TIP3    H226153   2.968   2.615   6.354 -1.3780  2.3179  0.2854
 1532TIP3   OH226154   0.446   4.936   7.382 -0.1737 -0.6669 -0.5447
 1532TIP3    H126155   0.373   4.990   7.412 -0.1787 -0.2905 -1.2180
 1532TIP3    H226156   0.439   4.938   7.286  1.2413  0.1254 -0.6502
 1533TIP3   OH226157   1.986   3.098   7.686  0.0833  0.0465 -0.0205
 1533TIP3    H126158   1.964   3.177   7.635 -1.3969 -0.0590  0.4377
 1533TIP3    H226159   1.944   3.112   7.771 -0.6082 -1.4752 -0.1055
 1534TIP3   OH226160   6.370   3.953   6.312  0.5089 -0.3289  0.0911
 1534TIP3    H126161   6.297   3.928   6.255  0.9620 -2.1087  0.2521
 1534TIP3    H226162   6.448   3.925   6.265  1.0374  0.6370  0.3850
 1535TIP3   OH226163   2.164   2.035   7.038  0.1863 -0.4657 -0.3118
 1535TIP3    H126164   2.097   2.012   7.103 -1.2559 -0.0663 -1.6118
 1535TIP3    H226165   2.190   2.124   7.062  1.6439 -1.3338  1.3355
 1536TIP3   OH226166   1.858   1.692   1.219 -0.2236  0.1458  0.0311
 1536TIP3    H126167   1.881   1.639   1.143 -0.6205  0.5416 -0.3658
 1536TIP3    H226168   1.876   1.782   1.192 -0.6326  0.3148  0.3120
 1537TIP3   OH226169   3.746   1.554   6.856  0.2534  0.5328  0.1973
 1537TIP3    H126170   3.782   1.466   6.849 -0.8175  0.1050  0.0140
 1537TIP3    H226171   3.765   1.595   6.771 -0.2875  0.0800 -0.1440
 1538TIP3   OH226172   2.201   3.346   5.893 -0.0875 -0.5499  0.2762
 1538TIP3    H126173   2.187   3.404   5.818 -0.3856 -0.9330  0.0345
 1538TIP3    H226174   2.231   3.404   5.963  1.2669 -0.3447 -0.4596
 1539TIP3   OH226175   3.687   3.554   1.817 -0.5356  0.2227  0.4223
 1539TIP3    H126176   3.770   3.538   1.863  0.3861 -0.2796 -1.3699
 1539TIP3    H226177   3.663   3.643   1.841  0.5368  0.3729  0.9495
 1540TIP3   OH226178   1.695   0.516   6.965  0.1935  0.0640  0.3839
 1540TIP3    H126179   1.730   0.599   6.996 -2.7234  0.5746  2.5119
 1540TIP3    H226180   1.643   0.483   7.038 -1.8999 -1.7177 -1.8327
 1541TIP3   OH226181   2.820   3.751   6.193 -0.6857  0.6683 -0.5704
 1541TIP3    H126182   2.779   3.808   6.128 -2.2306 -1.1377 -1.2340
 1541TIP3    H226183   2.890   3.706   6.146 -0.6576  0.6592 -0.5204
 1542TIP3   OH226184   3.255   1.034   5.771 -0.3502 -0.5402 -0.1327
 1542TIP3    H126185   3.240   1.110   5.827 -0.0720  0.1517 -0.9861
 1542TIP3    H226186   3.179   1.030   5.714  0.0869 -0.3273 -0.7362
 1543TIP3   OH226187   5.529   1.429   7.869 -0.6683  0.6775 -0.9281
 1543TIP3    H126188   5.498   1.384   7.948  1.0089 -1.3620 -1.3598
 1543TIP3    H226189   5.463   1.409   7.803 -0.9948  0.5983 -0.5825
 1544TIP3   OH226190   0.374   1.670   1.000 -0.2205  0.4086 -0.9438
 1544TIP3    H126191   0.435   1.663   1.073 -1.0079  1.4815 -0.1747
 1544TIP3    H226192   0.397   1.752   0.957 -0.6800  0.4792 -1.0573
 1545TIP3   OH226193   2.741   1.099   0.504 -0.4604  0.4718 -0.3359
 1545TIP3    H126194   2.673   1.102   0.437  1.4503  1.7530 -2.2877
 1545TIP3    H226195   2.723   1.174   0.561 -0.3817  1.0936 -1.1317
 1546TIP3   OH226196   3.657   1.952   7.953 -0.3855  0.1290  0.0080
 1546TIP3    H126197   3.711   1.873   7.961  0.3935  0.8194  1.7127
 1546TIP3    H226198   3.717   2.024   7.972 -1.7738  0.9596  1.3221
 1547TIP3   OH226199   4.905   6.802   7.159  0.4395 -0.0925  0.4301
 1547TIP3    H126200   4.868   6.868   7.218  1.0673 -1.6154  2.5500
 1547TIP3    H226201   4.982   6.846   7.121 -0.3161  1.1109  0.2440
 1548TIP3   OH226202   0.537   3.714   7.187 -0.3031  0.2445  0.1100
 1548TIP3    H126203   0.628   3.742   7.185  0.0499 -0.5403  2.7538
 1548TIP3    H226204   0.509   3.728   7.278 -2.7173  0.1955 -0.5815
 1549TIP3   OH226205   6.366   4.617   7.739  0.8878  0.1852 -0.1067
 1549TIP3    H126206   6.288   4.562   7.733 -0.2492  1.6922  0.7421
 1549TIP3    H226207   6.338   4.703   7.710  2.5665  0.4623 -1.0059
 1550TIP3   OH226208   6.909   2.153   6.176 -0.4473  0.1119  0.4591
 1550TIP3    H126209   6.996   2.119   6.196 -0.1577  1.1932  1.0188
 1550TIP3    H226210   6.914   2.247   6.193 -1.2286  0.4767 -1.1590
 1551TIP3   OH226211   3.427   5.975   7.744  0.2461 -0.6907  0.4134
 1551TIP3    H126212   3.470   5.956   7.828  0.5173 -0.1614  0.3938
 1551TIP3    H226213   3.340   5.936   7.753 -0.5801  1.4422  1.8471
 1552TIP3   OH226214   3.028   6.433   1.502 -0.2054 -0.3117 -0.4311
 1552TIP3    H126215   3.060   6.507   1.452 -1.1384  0.3233 -0.1071
 1552TIP3    H226216   3.107   6.391   1.537  0.2743  1.2727  0.4321
 1553TIP3   OH226217   6.085   4.780   7.377  0.3232  0.0117  0.1816
 1553TIP3    H126218   6.044   4.859   7.342 -0.3581 -0.4200 -0.0029
 1553TIP3    H226219   6.143   4.750   7.307 -0.6888 -0.5896 -0.4155
 1554TIP3   OH226220   5.912   5.129   6.639 -0.0506 -0.0101  0.2180
 1554TIP3    H126221   5.981   5.069   6.669 -1.7991 -2.0872  0.1144
 1554TIP3    H226222   5.861   5.148   6.718 -0.3934  0.1700 -0.0467
 1555TIP3   OH226223   3.371   5.004   7.437  0.3460 -0.0833 -0.9607
 1555TIP3    H126224   3.375   4.909   7.448  1.8518  0.0280 -0.3795
 1555TIP3    H226225   3.289   5.030   7.479 -0.5953 -1.2308 -2.0635
 1556TIP3   OH226226   4.730   5.062   7.607  0.1393  0.1280  0.1879
 1556TIP3    H126227   4.638   5.078   7.627  0.2858  0.0119  0.9647
 1556TIP3    H226228   4.759   5.001   7.675  0.1960 -1.6602 -1.3651
 1557TIP3   OH226229   6.046   0.542   6.442 -0.9131 -0.0663 -0.6479
 1557TIP3    H126230   6.035   0.577   6.530  2.7475 -0.0944 -0.0970
 1557TIP3    H226231   6.010   0.610   6.384 -0.1886  1.5400  0.7346
 1558TIP3   OH226232   3.207   0.899   1.316 -0.2563  0.7267 -0.3427
 1558TIP3    H126233   3.172   0.944   1.392 -0.3922 -0.0795  0.0754
 1558TIP3    H226234   3.255   0.824   1.352  0.2620  0.7299 -1.0104
 1559TIP3   OH226235   5.060   1.761   1.530 -0.3645 -0.0601  0.0517
 1559TIP3    H126236   5.073   1.681   1.478  2.3936  0.6437 -0.4449
 1559TIP3    H226237   5.061   1.730   1.621  0.3641 -0.6605 -0.1463
 1560TIP3   OH226238   6.765   5.011   6.427 -0.2458  0.0553  0.1868
 1560TIP3    H126239   6.799   5.096   6.458 -0.7576  0.7044 -0.9827
 1560TIP3    H226240   6.763   5.020   6.331 -3.3211 -0.1124  0.1794
 1561TIP3   OH226241   3.867   5.405   1.899 -0.4567  0.0640 -0.1222
 1561TIP3    H126242   3.864   5.363   1.985  1.4152 -0.2611 -0.1934
 1561TIP3    H226243   3.960   5.406   1.876 -0.7828  1.5239 -1.4687
 1562TIP3   OH226244   2.309   3.203   6.781 -0.2988 -0.1087 -0.0383
 1562TIP3    H126245   2.266   3.285   6.756 -0.5559 -0.0924  0.4677
 1562TIP3    H226246   2.350   3.172   6.700 -1.4669 -0.2501 -0.5811
 1563TIP3   OH226247   4.866   5.580   6.466  0.2274  0.4946 -0.7190
 1563TIP3    H126248   4.780   5.555   6.433  1.6075 -0.8736 -3.4203
 1563TIP3    H226249   4.896   5.503   6.515 -0.2394  1.1293  0.5888
 1564TIP3   OH226250   4.255   4.828   7.000 -0.1281 -0.5008 -0.4204
 1564TIP3    H126251   4.271   4.885   6.924 -0.7671  1.6349  1.0023
 1564TIP3    H226252   4.288   4.878   7.074 -0.5218 -2.1094  0.8468
 1565TIP3   OH226253   2.340   3.940   0.359  0.3068 -0.1787  0.3217
 1565TIP3    H126254   2.348   3.914   0.451 -0.3666  0.8596  0.6808
 1565TIP3    H226255   2.281   4.015   0.360 -0.8644 -1.0478 -1.1300
 1566TIP3   OH226256   0.027   1.757   0.851  0.5866  0.3862  0.0850
 1566TIP3    H126257   0.091   1.761   0.779 -0.8474 -0.0696 -1.2434
 1566TIP3    H226258   0.077   1.782   0.929  2.4972 -0.4515 -0.8465
 1567TIP3   OH226259   3.661   2.822   6.174 -0.0991 -0.5824 -0.3003
 1567TIP3    H126260   3.734   2.822   6.112  1.2264 -0.3913  1.2189
 1567TIP3    H226261   3.599   2.884   6.137  1.1878  0.4060 -0.8537
 1568TIP3   OH226262   2.237   2.846   6.332 -0.2174  0.0776 -0.2095
 1568TIP3    H126263   2.147   2.822   6.309 -0.8408 -0.1843  2.3589
 1568TIP3    H226264   2.229   2.928   6.380  1.2270  1.6183 -2.5486
 1569TIP3   OH226265   0.000   0.845   7.686  0.3558  0.6659  0.1694
 1569TIP3    H126266  -0.064   0.819   7.752 -1.4562  1.6026 -1.1898
 1569TIP3    H226267  -0.035   0.925   7.648  1.3406  0.1227 -1.9755
 1570TIP3   OH226268   3.969   3.683   1.209 -0.3919  0.0951  0.5231
 1570TIP3    H126269   3.879   3.673   1.179 -0.1422  0.0420 -0.2279
 1570TIP3    H226270   4.000   3.763   1.167 -0.3018  0.4691  1.3068
 1571TIP3   OH226271   5.670   4.267   6.781  0.6268  0.0200  0.5792
 1571TIP3    H126272   5.603   4.299   6.721  1.6353  1.1841  0.0547
 1571TIP3    H226273   5.722   4.206   6.730  0.5533 -0.1429  0.7005
 1572TIP3   OH226274   5.922   3.251   6.646 -0.3335  0.2438  0.0675
 1572TIP3    H126275   6.001   3.205   6.673  0.3146  0.9616 -0.5677
 1572TIP3    H226276   5.896   3.302   6.723 -2.1325 -2.6033  1.3921
 1573TIP3   OH226277   2.319   1.754   1.710 -0.0527 -0.1031  0.1321
 1573TIP3    H126278   2.368   1.679   1.744 -1.0321 -1.6115 -1.6726
 1573TIP3    H226279   2.229   1.741   1.739 -0.5630 -0.5329 -1.6034
 1574TIP3   OH226280   1.972   6.879   7.575 -0.1615 -0.0562  0.1569
 1574TIP3    H126281   1.979   6.784   7.586 -3.7267 -0.3015  1.0178
 1574TIP3    H226282   1.985   6.914   7.663  0.6179  0.2262 -0.0686
 1575TIP3   OH226283   1.488   4.819   1.827 -0.2196  0.3861  0.4845
 1575TIP3    H126284   1.395   4.809   1.846 -0.5145  0.2378 -1.0052
 1575TIP3    H226285   1.532   4.782   1.903 -1.3772  0.3973  1.1697
 1576TIP3   OH226286   2.568   1.381   8.057  0.3409 -0.0347 -0.4175
 1576TIP3    H126287   2.581   1.476   8.063 -4.1239  0.7281 -0.5215
 1576TIP3    H226288   2.564   1.364   7.963  1.6017 -0.3944 -0.4030
 1577TIP3   OH226289   4.082   1.012   8.003 -0.1429  0.4671 -0.1978
 1577TIP3    H126290   4.100   1.018   7.909  0.2966  1.8642 -0.0365
 1577TIP3    H226291   4.084   0.919   8.022 -1.6092  0.0936 -1.8387
 1578TIP3   OH226292   1.965   4.721   6.992  0.0813  0.5085  0.2876
 1578TIP3    H126293   1.963   4.679   6.906 -1.3421  0.6674  0.2312
 1578TIP3    H226294   2.016   4.801   6.978  3.7704 -1.6842  0.6541
 1579TIP3   OH226295   2.838   3.038   6.093 -0.3646 -0.2745  0.1084
 1579TIP3    H126296   2.872   3.097   6.161 -0.9369 -0.3611  0.4811
 1579TIP3    H226297   2.887   3.060   6.014 -0.0193  0.1512  0.4410
 1580TIP3   OH226298   1.711   3.058   1.744 -0.5890  0.7046  0.5441
 1580TIP3    H126299   1.780   3.089   1.803  0.1538  0.0749  0.0320
 1580TIP3    H226300   1.666   2.989   1.793  0.0751  0.1315  0.3690
 1581TIP3   OH226301   2.420   1.197   7.056  0.8588 -0.1225 -0.1413
 1581TIP3    H126302   2.472   1.215   7.134  0.8048 -1.4816  0.2200
 1581TIP3    H226303   2.454   1.114   7.022 -0.0654 -0.2660 -0.7484
 1582TIP3   OH226304   6.193   0.838   0.837  0.0128  0.7380  1.2080
 1582TIP3    H126305   6.102   0.833   0.865 -0.3863 -1.6647 -0.3958
 1582TIP3    H226306   6.191   0.816   0.744  2.4331 -1.4212  1.6079
 1583TIP3   OH226307   4.380   2.998   6.635 -0.1916  0.3702  0.0112
 1583TIP3    H126308   4.374   3.089   6.661  0.2790  0.4656 -0.2102
 1583TIP3    H226309   4.473   2.976   6.643  0.0511  0.5571 -2.1001
 1584TIP3   OH226310   4.013   5.759   6.076  0.0421  0.0487  0.7041
 1584TIP3    H126311   3.989   5.699   6.006 -0.1177  0.1140  0.7019
 1584TIP3    H226312   3.982   5.717   6.156 -2.1786  1.2090  0.4847
 1585TIP3   OH226313   2.580   5.039   0.909  0.2813  0.3385 -0.1000
 1585TIP3    H126314   2.551   5.055   0.999 -0.2899 -1.0291 -0.0284
 1585TIP3    H226315   2.504   5.062   0.855 -0.6180 -2.1685  0.0163
 1586TIP3   OH226316   0.924   0.935   0.250 -0.3648 -0.5704 -0.3048
 1586TIP3    H126317   0.950   0.998   0.183 -2.0349 -0.6765 -1.0732
 1586TIP3    H226318   0.993   0.868   0.249 -0.3314 -0.5112 -1.8358
 1587TIP3   OH226319   2.552   2.205   6.023 -0.0932  0.4926  0.1224
 1587TIP3    H126320   2.631   2.184   5.974 -0.2209 -0.6272  0.3705
 1587TIP3    H226321   2.583   2.229   6.110 -0.0263 -0.1994  0.2981
 1588TIP3   OH226322   5.509   3.898   7.306  0.2472 -0.0280  0.3762
 1588TIP3    H126323   5.573   3.916   7.375  1.2468  0.9256 -0.7615
 1588TIP3    H226324   5.425   3.892   7.351  1.1348 -1.2731  1.9047
 1589TIP3   OH226325   2.082   2.569   0.464 -0.2918 -0.0822 -0.7120
 1589TIP3    H126326   2.108   2.608   0.381 -1.8329 -0.8049 -1.5616
 1589TIP3    H226327   2.040   2.487   0.440  0.7012 -1.0871  0.9019
 1590TIP3   OH226328   1.409   6.686   7.174 -0.4578  0.0426 -0.1449
 1590TIP3    H126329   1.477   6.688   7.242  1.2133  0.3790 -1.7857
 1590TIP3    H226330   1.427   6.605   7.126 -1.9635 -0.4576  0.1225
 1591TIP3   OH226331   3.095   1.052   1.527 -0.1460 -0.0037  0.6534
 1591TIP3    H126332   3.132   1.023   1.611  1.2812  0.8121  0.3184
 1591TIP3    H226333   3.021   1.108   1.552 -0.7240 -1.0467  1.3393
 1592TIP3   OH226334   3.579   0.677   6.585  0.3572 -0.0510  0.6945
 1592TIP3    H126335   3.613   0.614   6.649 -0.7398 -0.2492  1.0848
 1592TIP3    H226336   3.583   0.630   6.502  1.2865  0.0209  0.6893
 1593TIP3   OH226337   5.930   0.230   1.021 -0.1537  0.8539 -0.3705
 1593TIP3    H126338   5.893   0.228   1.109  1.8357  0.6748  0.4966
 1593TIP3    H226339   5.957   0.139   1.005  1.2615  1.2597 -0.3611
 1594TIP3   OH226340   4.159   1.116   7.425  0.2007 -0.1008  0.8278
 1594TIP3    H126341   4.122   1.176   7.360  1.4939 -0.3049 -0.1203
 1594TIP3    H226342   4.086   1.060   7.450 -0.0333 -0.8869 -1.4465
 1595TIP3   OH226343   4.046   3.424   5.584  0.0403 -0.7185  0.4772
 1595TIP3    H126344   4.116   3.377   5.629 -0.6002 -2.6443 -0.4536
 1595TIP3    H226345   4.054   3.514   5.613  1.5005 -1.3579  2.1131
 1596TIP3   OH226346   4.223   5.315   5.820  0.0286  0.0640 -0.2513
 1596TIP3    H126347   4.261   5.386   5.768 -0.0934 -0.4014 -0.9956
 1596TIP3    H226348   4.155   5.356   5.872  0.7408  0.6929  0.1819
 1597TIP3   OH226349   6.968   4.702   6.983  0.1450  0.5320  0.1304
 1597TIP3    H126350   6.999   4.649   7.056 -2.2875 -0.2552  0.6347
 1597TIP3    H226351   6.952   4.639   6.913 -0.8505  0.8324  0.0762
 1598TIP3   OH226352   2.993   1.007   6.493 -0.3839 -0.4587  0.5320
 1598TIP3    H126353   2.964   1.016   6.584  0.9163 -1.7543  1.0886
 1598TIP3    H226354   2.935   0.940   6.457 -0.2883 -0.6177  0.6723
 1599TIP3   OH226355   3.625   4.047   7.311  0.7402 -0.0499 -0.2846
 1599TIP3    H126356   3.535   4.023   7.332  0.1971 -0.8126 -3.2683
 1599TIP3    H226357   3.623   4.143   7.304 -0.3812 -0.2189 -2.5608
 1600TIP3   OH226358   3.452   4.279   0.601  0.3778 -0.6060  0.4973
 1600TIP3    H126359   3.445   4.311   0.691 -0.8440  0.1819  0.1395
 1600TIP3    H226360   3.535   4.315   0.570  0.0058  0.5271  0.7790
 1601TIP3   OH226361   0.275   1.744   6.741 -0.6075  0.1298  0.4225
 1601TIP3    H126362   0.334   1.761   6.814 -2.8031  1.0425  2.0553
 1601TIP3    H226363   0.201   1.804   6.755 -1.9775 -1.0409 -1.4774
 1602TIP3   OH226364   6.594   3.035   1.254  0.1607 -0.0654  0.6701
 1602TIP3    H126365   6.686   3.020   1.234  0.2035 -2.2506  2.3283
 1602TIP3    H226366   6.549   2.956   1.223 -0.9615  0.3647  1.1715
 1603TIP3   OH226367   5.998   5.153   7.445 -0.1932  0.3500 -0.0513
 1603TIP3    H126368   5.925   5.216   7.441  0.0040  0.5967  0.1830
 1603TIP3    H226369   6.013   5.129   7.353 -2.9593 -2.5069  0.1715
 1604TIP3   OH226370   6.024   5.088   0.804 -0.5085  0.4759  0.2285
 1604TIP3    H126371   6.042   5.010   0.857 -1.5470  0.4939  0.6324
 1604TIP3    H226372   6.097   5.094   0.743 -0.3240 -0.6956  0.3337
 1605TIP3   OH226373   0.199   0.375   6.529  0.2020  0.5255  0.2165
 1605TIP3    H126374   0.276   0.419   6.492 -0.1027  0.3906 -0.5938
 1605TIP3    H226375   0.182   0.421   6.611  1.5521  0.1289  0.7299
 1606TIP3   OH226376   5.101   2.800   6.288 -0.1093  0.2172 -0.1533
 1606TIP3    H126377   5.023   2.772   6.239  0.0596 -1.5195  0.5443
 1606TIP3    H226378   5.132   2.878   6.240 -2.7017  1.4215  0.0206
 1607TIP3   OH226379   3.528   3.599   7.416  0.1328 -0.3604  0.3102
 1607TIP3    H126380   3.584   3.531   7.454  2.0786  0.7356 -0.5225
 1607TIP3    H226381   3.583   3.641   7.350 -0.6171  2.7987  1.6099
 1608TIP3   OH226382   6.935   3.749   7.143 -0.0319  0.0040  0.4350
 1608TIP3    H126383   6.982   3.711   7.068  0.5508 -0.1244  0.8595
 1608TIP3    H226384   6.929   3.843   7.122  1.9443  0.3167  1.1608
 1609TIP3   OH226385   5.905   4.391   6.862  0.2237  0.1526 -0.5040
 1609TIP3    H126386   5.813   4.366   6.851  0.3606 -0.2352 -0.7869
 1609TIP3    H226387   5.902   4.480   6.897 -0.2321  0.7565 -2.0433
 1610TIP3   OH226388   0.826   3.852   0.238  0.3132 -0.1841 -0.3234
 1610TIP3    H126389   0.830   3.766   0.281  2.0999  0.2853  0.5001
 1610TIP3    H226390   0.779   3.907   0.301  0.2602 -0.2406 -0.3125
 1611TIP3   OH226391   1.751   3.829   7.576  0.1646  0.1487  0.4266
 1611TIP3    H126392   1.666   3.796   7.547  0.3348 -1.6274  1.8637
 1611TIP3    H226393   1.783   3.763   7.637  3.0091  0.3441 -0.8000
 1612TIP3   OH226394   6.056   6.892   6.232 -0.1621 -0.3002 -0.5269
 1612TIP3    H126395   6.067   6.895   6.137 -1.7765  1.3021 -0.6904
 1612TIP3    H226396   6.045   6.984   6.257 -2.3229 -0.9183  0.8716
 1613TIP3   OH226397   0.537   2.528   7.222  0.8976 -0.7486 -0.3571
 1613TIP3    H126398   0.587   2.490   7.150  0.2618  0.9541 -1.7200
 1613TIP3    H226399   0.588   2.605   7.249 -0.5316  0.5377 -1.2233
 1614TIP3   OH226400   6.887   6.007   6.620 -0.3563  0.2564  0.0641
 1614TIP3    H126401   6.830   6.068   6.573 -0.4204  1.9357  2.2590
 1614TIP3    H226402   6.975   6.025   6.586 -0.1830  2.5459  1.6673
 1615TIP3   OH226403   2.337   1.988   7.461  0.7980 -0.1393  0.1469
 1615TIP3    H126404   2.375   2.065   7.419  0.1904  0.5334  0.8179
 1615TIP3    H226405   2.374   1.989   7.550 -0.2617  0.1526  0.5933
 1616TIP3   OH226406   0.382   2.686   6.840  0.1752  0.2295  0.2933
 1616TIP3    H126407   0.398   2.719   6.928 -0.3613  1.1220  0.0569
 1616TIP3    H226408   0.469   2.673   6.803  0.3867  3.0679 -0.2518
 1617TIP3   OH226409   0.014   5.487   7.845  0.1505 -0.2888 -0.1698
 1617TIP3    H126410  -0.029   5.402   7.841 -1.0340  0.3227 -1.2205
 1617TIP3    H226411   0.035   5.507   7.753 -1.0401  1.2263 -0.1477
 1618TIP3   OH226412   1.645   2.619   7.251 -0.1430 -0.1208 -0.0652
 1618TIP3    H126413   1.667   2.532   7.218  0.7484 -0.6528  1.8665
 1618TIP3    H226414   1.554   2.612   7.279  0.5325 -1.0352  1.9678
 1619TIP3   OH226415   1.613   4.615   8.121  0.1903  0.3777  0.1967
 1619TIP3    H126416   1.657   4.532   8.101 -0.0792  0.3863 -0.4471
 1619TIP3    H226417   1.522   4.600   8.096  0.3418  1.2081 -0.9042
 1620TIP3   OH226418   0.734   4.270   1.436  0.3500 -0.3337  0.3160
 1620TIP3    H126419   0.732   4.303   1.346 -1.0299 -0.7226  0.1934
 1620TIP3    H226420   0.815   4.218   1.440  0.8315  0.3296 -0.4569
 1621TIP3   OH226421   6.732   4.193   7.000  0.4984 -0.4678 -0.2878
 1621TIP3    H126422   6.820   4.187   7.038  0.5076  0.7248 -0.0840
 1621TIP3    H226423   6.694   4.270   7.042 -1.6797 -2.5897  1.7257
 1622TIP3   OH226424   0.264   3.459   6.838 -0.4804  0.6840  0.4822
 1622TIP3    H126425   0.299   3.462   6.927  0.3180  1.0893  0.1550
 1622TIP3    H226426   0.227   3.371   6.830 -0.1524  0.4911  1.0598
 1623TIP3   OH226427   6.056   0.764   0.214 -0.6533  0.0007  0.1872
 1623TIP3    H126428   6.018   0.842   0.255 -0.2158  1.2984 -1.7915
 1623TIP3    H226429   6.150   0.780   0.214 -0.5788 -0.4323 -0.4050
 1624TIP3   OH226430   4.203   3.723   7.406 -0.4543  0.3906 -0.2632
 1624TIP3    H126431   4.262   3.768   7.346 -0.5751 -0.1265 -0.7846
 1624TIP3    H226432   4.255   3.651   7.441 -0.3983  0.6666  0.2195
 1625TIP3   OH226433   0.949   1.614   8.011 -0.1359 -0.0044  0.0854
 1625TIP3    H126434   0.999   1.573   7.940  1.7293 -0.1640  1.4406
 1625TIP3    H226435   0.940   1.705   7.984  0.1394 -0.1710 -0.5881
 1626TIP3   OH226436   6.176   2.757   5.826 -0.5882  0.4727 -0.0642
 1626TIP3    H126437   6.083   2.773   5.810 -0.4887  1.8067  0.5807
 1626TIP3    H226438   6.194   2.672   5.785 -2.3321 -0.2942  0.7027
 1627TIP3   OH226439   6.998   4.529   7.834  0.3408  0.4406  0.1342
 1627TIP3    H126440   6.993   4.450   7.780  2.7419  0.5136 -0.2396
 1627TIP3    H226441   6.959   4.504   7.918  0.2530 -0.8660 -0.2959
 1628TIP3   OH226442   5.199   6.123   5.723  0.0342  0.1026 -0.0711
 1628TIP3    H126443   5.159   6.067   5.657  1.3751 -0.0452 -0.7580
 1628TIP3    H226444   5.186   6.212   5.689 -0.8449  0.1341  0.3351
 1629TIP3   OH226445   6.372   2.840   6.601 -0.2331  0.3290  0.3947
 1629TIP3    H126446   6.383   2.800   6.515 -0.9845  0.3674  0.2734
 1629TIP3    H226447   6.365   2.934   6.584 -0.1449  0.3573  0.5170
 1630TIP3   OH226448   0.594   3.150   7.493  0.2314  0.2291  0.5953
 1630TIP3    H126449   0.586   3.224   7.553  1.9420  0.2327  0.8352
 1630TIP3    H226450   0.632   3.080   7.546 -4.6888 -2.0517  1.3482
 1631TIP3   OH226451   2.897   3.427   6.706  0.6823 -0.6612 -0.3759
 1631TIP3    H126452   2.819   3.425   6.762  1.4086 -1.4558  0.6434
 1631TIP3    H226453   2.865   3.452   6.620 -0.7370 -1.1835 -0.0105
 1632TIP3   OH226454   6.896   6.663   5.978 -0.2300  0.1913  0.2920
 1632TIP3    H126455   6.968   6.707   6.023 -0.2396 -0.5143  1.0186
 1632TIP3    H226456   6.932   6.578   5.953  0.0713  0.9378 -1.9133
 1633TIP3   OH226457   5.760   4.644   1.099  0.1756  0.4792 -0.1506
 1633TIP3    H126458   5.728   4.657   1.009 -1.5199 -0.0652  0.3548
 1633TIP3    H226459   5.835   4.586   1.089 -1.7801 -2.0000 -1.0002
 1634TIP3   OH226460   0.075   1.891   6.856  0.2824  0.3812  0.1237
 1634TIP3    H126461  -0.003   1.837   6.854  0.8786 -0.4534 -2.3194
 1634TIP3    H226462   0.047   1.973   6.897 -1.5292 -0.3862  0.4394
 1635TIP3   OH226463   6.520   0.469   0.364  0.4370  0.5674  0.2935
 1635TIP3    H126464   6.453   0.412   0.325 -0.3633  1.4941  0.2914
 1635TIP3    H226465   6.559   0.416   0.433 -2.3489  1.0336  2.2925
 1636TIP3   OH226466   2.665   3.167   7.551  0.5377 -0.2130  0.7822
 1636TIP3    H126467   2.629   3.079   7.566  0.5421 -0.2891  0.3590
 1636TIP3    H226468   2.647   3.214   7.632 -0.7314 -0.1750  0.4973
 1637TIP3   OH226469   5.849   2.952   7.255 -0.1626 -0.3886  0.3053
 1637TIP3    H126470   5.871   2.935   7.164  2.1821 -1.7102  1.0668
 1637TIP3    H226471   5.826   2.866   7.291 -1.9551  0.2579  0.7636
 1638TIP3   OH226472   5.510   3.169   6.002 -0.4453 -0.1145 -0.7509
 1638TIP3    H126473   5.539   3.246   5.953  0.5171 -0.6381 -1.0371
 1638TIP3    H226474   5.433   3.137   5.954 -0.5871  0.4202 -0.8766
 1639TIP3   OH226475   2.858   0.837   6.724 -0.2192 -0.3513 -0.1061
 1639TIP3    H126476   2.819   0.800   6.645 -1.7031  2.1414 -0.5922
 1639TIP3    H226477   2.787   0.840   6.788  0.6312 -1.1106  0.8942
 1640TIP3   OH226478   6.919   2.855   6.915 -0.2666 -0.8421 -0.2485
 1640TIP3    H126479   6.842   2.798   6.918 -0.2873 -0.8065 -0.0981
 1640TIP3    H226480   6.991   2.799   6.945 -0.0656 -1.1438 -1.2838
 1641TIP3   OH226481   4.075   3.404   6.382  0.2122 -0.6420 -0.5417
 1641TIP3    H126482   4.066   3.498   6.366  1.2158 -0.7746 -2.0028
 1641TIP3    H226483   4.084   3.366   6.294  2.4232 -1.8130  0.1813
 1642TIP3   OH226484   7.030   4.056   7.447 -0.3101 -0.4173  0.1442
 1642TIP3    H126485   7.073   4.089   7.526 -0.8580 -0.0727  0.3061
 1642TIP3    H226486   6.986   3.976   7.475 -0.1083 -0.5521  0.0753
 1643TIP3   OH226487   2.026   4.129   6.608  0.2143 -0.4631 -0.0670
 1643TIP3    H126488   2.028   4.116   6.513  0.3645 -4.1718  0.4005
 1643TIP3    H226489   1.981   4.052   6.642 -0.4319  1.1255  2.8705
 1644TIP3   OH226490   4.087   3.755   0.373 -0.2519 -0.1604 -0.0274
 1644TIP3    H126491   4.177   3.748   0.341 -0.3013 -0.1431 -0.1717
 1644TIP3    H226492   4.070   3.849   0.378 -0.1367 -0.1593  0.3580
 1645TIP3   OH226493   6.217   1.351   7.993 -0.2008 -0.2964  0.5088
 1645TIP3    H126494   6.175   1.272   7.960 -0.4708  0.3530 -0.7157
 1645TIP3    H226495   6.308   1.342   7.965 -0.1893 -0.2546  0.5328
 1646TIP3   OH226496   5.022   3.652   6.035  0.0478  0.8145  0.8867
 1646TIP3    H126497   5.021   3.582   6.100  1.1514  0.0343  0.0806
 1646TIP3    H226498   5.072   3.722   6.077  3.2376 -0.7428 -0.1382
 1647TIP3   OH226499   0.058   0.452   0.133  0.0252  0.1307 -0.6172
 1647TIP3    H126500   0.118   0.399   0.185  0.1924  1.2930  0.4023
 1647TIP3    H226501  -0.017   0.468   0.190 -0.8945 -0.6065 -1.5933
 1648TIP3   OH226502   1.127   3.174   0.592  0.0421  0.1116  0.6041
 1648TIP3    H126503   1.212   3.215   0.605  0.0251  1.4151 -2.8600
 1648TIP3    H226504   1.064   3.245   0.606 -0.1856  0.3708 -1.5756
 1649TIP3   OH226505   6.038   0.588   6.716 -0.2204  0.2650  0.8297
 1649TIP3    H126506   6.032   0.560   6.807 -0.0807  2.0973  1.4298
 1649TIP3    H226507   6.111   0.650   6.715  0.7630 -0.8828 -0.8351
 1650TIP3   OH226508   5.824   2.501   6.024 -0.3097 -0.0344  0.4387
 1650TIP3    H126509   5.917   2.489   6.009 -0.5455 -1.5246  0.0176
 1650TIP3    H226510   5.800   2.576   5.970  0.7903  0.8408  1.1616
 1651TIP3   OH226511   5.837   5.439   0.041 -0.1750  0.0864  0.0677
 1651TIP3    H126512   5.835   5.413   0.133  0.5499  1.2681  0.4420
 1651TIP3    H226513   5.860   5.532   0.044 -1.9942  0.5864 -1.2383
 1652TIP3   OH226514   6.250   0.112   7.232 -0.1788  0.6056  0.2576
 1652TIP3    H126515   6.284   0.194   7.197  0.6034  1.4241  2.8460
 1652TIP3    H226516   6.165   0.135   7.270 -1.4496 -0.4599 -1.8346
 1653TIP3   OH226517   5.472   2.579   7.648 -0.1956  0.2868 -0.1441
 1653TIP3    H126518   5.462   2.484   7.650 -2.8906  0.5339  0.1022
 1653TIP3    H226519   5.524   2.600   7.725 -0.1035 -0.9500  0.1351
 1654TIP3   OH226520   2.503   1.639   6.227 -0.5492  0.6878  0.3647
 1654TIP3    H126521   2.436   1.655   6.293  0.1844 -3.1685  2.1837
 1654TIP3    H226522   2.586   1.648   6.274  0.0317 -0.1173 -0.4840
 1655TIP3   OH226523   0.039   4.744   6.084 -0.7397  0.6233 -0.1351
 1655TIP3    H126524  -0.040   4.745   6.029  0.1974 -1.7449 -1.5865
 1655TIP3    H226525   0.102   4.798   6.036 -0.3940 -0.2532 -0.6764
 1656TIP3   OH226526   6.464   3.107   6.286 -0.1188  0.2360 -0.1771
 1656TIP3    H126527   6.507   3.187   6.258 -3.9169  2.2336 -0.6544
 1656TIP3    H226528   6.451   3.057   6.206  1.0921 -0.2708 -0.0603
 1657TIP3   OH226529   0.613   3.422   7.042 -0.1575 -0.6863 -0.8510
 1657TIP3    H126530   0.596   3.328   7.036 -1.9848 -0.4378  0.1185
 1657TIP3    H226531   0.527   3.463   7.030  0.5797  0.8559 -1.0336
 1658TIP3   OH226532   1.072   4.515   7.124  0.0615 -0.2211 -0.1145
 1658TIP3    H126533   0.992   4.563   7.100 -0.3010 -0.1368  1.2499
 1658TIP3    H226534   1.127   4.521   7.046 -1.5175 -0.8387 -1.3081
 1659TIP3   OH226535   6.643   2.279   8.113  0.1547  0.5291 -0.4946
 1659TIP3    H126536   6.726   2.257   8.070  0.4195 -2.4011  1.4035
 1659TIP3    H226537   6.584   2.206   8.091 -1.4454  1.7809 -0.4954
 1660TIP3   OH226538   4.345   1.536   1.407 -0.7722 -0.2820 -0.3686
 1660TIP3    H126539   4.431   1.505   1.376 -1.4050 -1.3919 -1.0395
 1660TIP3    H226540   4.346   1.630   1.389 -0.2466 -0.5269 -1.6844
 1661TIP3   OH226541   6.330   2.971   7.584  0.3114  0.1171 -0.3719
 1661TIP3    H126542   6.238   2.968   7.560  0.4016 -0.3035 -0.6681
 1661TIP3    H226543   6.348   2.884   7.620  0.1414  0.7623  1.3543
 1662TIP3   OH226544   3.560   5.077   7.694  0.2150  0.2217  0.2005
 1662TIP3    H126545   3.541   5.061   7.602 -1.3694  1.0431  0.3672
 1662TIP3    H226546   3.542   4.993   7.737  3.0244 -0.8051 -0.4934
 1663TIP3   OH226547   2.191   6.629   1.949  0.3452  0.2217 -0.6976
 1663TIP3    H126548   2.131   6.683   2.000 -0.7825  0.3100 -2.0814
 1663TIP3    H226549   2.269   6.622   2.003 -0.2818  1.5078  0.4017
 1664TIP3   OH226550   7.112   4.363   1.088  0.5171 -0.4048 -0.5539
 1664TIP3    H126551   7.022   4.395   1.090  0.2325 -1.0333 -2.1561
 1664TIP3    H226552   7.106   4.273   1.120  0.8092  0.0434  0.7719
 1665TIP3   OH226553   0.933   2.604   6.275  0.0740 -0.1975  0.0019
 1665TIP3    H126554   0.913   2.696   6.258 -0.9661 -0.1081  1.6308
 1665TIP3    H226555   0.861   2.556   6.235  0.8078 -0.3515 -1.1772
 1666TIP3   OH226556   3.588   2.846   6.873  0.2140  0.2734 -0.7775
 1666TIP3    H126557   3.650   2.855   6.800 -0.1293  0.6846 -1.0287
 1666TIP3    H226558   3.642   2.824   6.948  0.6310  0.3305 -1.0577
 1667TIP3   OH226559   4.988   5.321   0.431 -0.0737  0.5174 -0.1624
 1667TIP3    H126560   4.931   5.248   0.408  1.3006 -1.3485  2.2184
 1667TIP3    H226561   5.076   5.286   0.429  0.4977  1.6087  2.6092
 1668TIP3   OH226562   4.621   1.969   0.751 -0.2277 -0.2956  0.0577
 1668TIP3    H126563   4.708   2.004   0.770  1.4123 -1.8911 -3.9579
 1668TIP3    H226564   4.603   1.909   0.824  2.6839 -1.0312  0.2445
 1669TIP3   OH226565   5.131   3.590   6.310 -0.1508  0.3091 -0.0757
 1669TIP3    H126566   5.078   3.528   6.260  0.5953 -0.9743  0.7243
 1669TIP3    H226567   5.222   3.563   6.294  0.1057 -0.0795  1.9227
 1670TIP3   OH226568   4.287   4.105   2.136 -0.2410 -0.4331 -0.5668
 1670TIP3    H126569   4.214   4.095   2.197 -0.1577  0.7652 -0.2655
 1670TIP3    H226570   4.254   4.067   2.054 -1.0305 -0.3466 -0.2972
 1671TIP3   OH226571   5.202   5.514   7.306 -0.2159  1.1565 -0.3894
 1671TIP3    H126572   5.149   5.550   7.377 -2.2359  0.4332 -1.4953
 1671TIP3    H226573   5.230   5.591   7.256 -1.9346  1.4506 -0.9562
 1672TIP3   OH226574   0.314   6.570   0.136  0.4097 -0.7080  0.2113
 1672TIP3    H126575   0.409   6.566   0.125  0.6453 -0.6005  2.0250
 1672TIP3    H226576   0.294   6.664   0.139  0.1274 -0.7230 -1.0357
 1673TIP3   OH226577   6.126   2.002   6.864 -0.4098  0.3307 -0.2124
 1673TIP3    H126578   6.163   2.050   6.939 -0.6381 -0.9268  0.7213
 1673TIP3    H226579   6.033   1.996   6.884 -0.5416  0.3649 -0.8206
 1674TIP3   OH226580   4.889   6.775   7.663  0.1557  0.1805 -0.0136
 1674TIP3    H126581   4.908   6.700   7.607 -0.9812 -0.4311  0.3984
 1674TIP3    H226582   4.954   6.841   7.639  0.6976 -0.6735 -0.8930
 1675TIP3   OH226583   4.478   7.073   1.890  0.0725 -0.7823 -0.2193
 1675TIP3    H126584   4.524   7.017   1.828 -1.7734 -0.9497 -1.4865
 1675TIP3    H226585   4.506   7.043   1.976  2.2808 -0.8825 -0.9458
 1676TIP3   OH226586   5.245   3.455   5.947  0.0536  0.3659 -0.0459
 1676TIP3    H126587   5.206   3.540   5.965 -1.2511 -0.4429  1.0916
 1676TIP3    H226588   5.259   3.453   5.852 -2.1579  0.9147 -0.4124
 1677TIP3   OH226589   6.676   2.845   5.838 -0.4301 -0.3803  0.2820
 1677TIP3    H126590   6.705   2.782   5.772 -1.7844 -0.6329 -0.0855
 1677TIP3    H226591   6.601   2.803   5.880  0.3604 -0.1888  1.9387
 1678TIP3   OH226592   2.829   4.253   0.669 -0.0611  0.7157 -0.0789
 1678TIP3    H126593   2.769   4.277   0.740  1.4168  0.2583  1.3522
 1678TIP3    H226594   2.909   4.302   0.687  1.5201 -1.9919  0.5167
 1679TIP3   OH226595   1.619   4.002   6.541  1.0394  0.0959  0.2514
 1679TIP3    H126596   1.592   4.074   6.598 -0.0909 -1.3277  1.5743
 1679TIP3    H226597   1.676   3.948   6.596  1.0287 -0.5712 -0.3815
 1680TIP3   OH226598   4.170   1.529   7.332 -0.7083  0.0344 -0.7716
 1680TIP3    H126599   4.162   1.578   7.250 -1.5726  0.2642 -0.5545
 1680TIP3    H226600   4.251   1.560   7.371 -0.1054 -0.3443 -1.7217
 1681TIP3   OH226601   3.315   4.247   6.861  0.4715  0.4994  0.7605
 1681TIP3    H126602   3.363   4.177   6.906  1.2048  0.6159  0.1628
 1681TIP3    H226603   3.225   4.236   6.891  0.6506 -0.4561  0.9863
 1682TIP3   OH226604   0.799   3.551   6.144  0.0648 -0.1567  0.2135
 1682TIP3    H126605   0.763   3.462   6.145 -0.9843  0.2744  0.4768
 1682TIP3    H226606   0.744   3.600   6.204 -0.2913  1.0574 -1.0808
 1683TIP3   OH226607   4.988   6.491   7.561  0.3779 -0.1994 -0.6758
 1683TIP3    H126608   4.957   6.404   7.586  0.8467 -0.3643 -0.6722
 1683TIP3    H226609   5.083   6.485   7.565  0.3888  0.9235  1.3890
 1684TIP3   OH226610   5.666   2.547   0.410 -0.4820 -0.3278 -0.4798
 1684TIP3    H126611   5.608   2.596   0.469 -1.1218  0.0017 -1.3810
 1684TIP3    H226612   5.721   2.495   0.469 -0.4083  0.7857  0.4573
 1685TIP3   OH226613   6.572   3.472   7.312  0.0710 -0.5487  0.4402
 1685TIP3    H126614   6.617   3.407   7.259  0.9008  0.5055 -0.1785
 1685TIP3    H226615   6.498   3.501   7.258 -0.1483 -0.7948  0.6095
 1686TIP3   OH226616   6.516   4.998   6.545 -0.1253 -0.1347 -0.0766
 1686TIP3    H126617   6.608   5.012   6.523 -0.2039  0.9162  0.2347
 1686TIP3    H226618   6.478   4.962   6.465  0.4555 -0.1307 -0.3627
 1687TIP3   OH226619   6.741   2.429   5.889  0.9124 -0.0532  0.2256
 1687TIP3    H126620   6.731   2.471   5.975 -0.6607  0.4608 -0.1869
 1687TIP3    H226621   6.659   2.448   5.844  1.2057 -1.4365 -0.9149
 1688TIP3   OH226622   6.303   3.479   5.589 -0.0764 -0.2978  0.3974
 1688TIP3    H126623   6.313   3.574   5.585 -1.3286 -0.1325  0.7794
 1688TIP3    H226624   6.392   3.446   5.602  0.5354  0.7356 -1.0183
 1689TIP3   OH226625   5.237   1.955   6.768 -0.4485  0.1478  0.0369
 1689TIP3    H126626   5.228   2.046   6.740  0.5691 -0.3126 -1.9406
 1689TIP3    H226627   5.220   1.904   6.688 -0.4875 -1.3586  0.9906
 1690TIP3   OH226628   5.601   2.755   6.973  0.7429 -0.3511  0.2483
 1690TIP3    H126629   5.616   2.680   7.029  1.1791 -0.2868  0.2214
 1690TIP3    H226630   5.549   2.815   7.026 -1.5991 -1.6454 -0.5226
 1691TIP3   OH226631   5.126   3.958   5.884 -0.3457  0.5550 -0.4403
 1691TIP3    H126632   5.055   3.960   5.947 -1.3949 -0.9509 -1.5308
 1691TIP3    H226633   5.163   4.046   5.885 -2.0081  1.2490  0.3844
 1692TIP3   OH226634   6.111   2.858   0.415  0.2074 -0.0617  0.8708
 1692TIP3    H126635   6.051   2.926   0.385  0.8545 -0.6184 -1.8794
 1692TIP3    H226636   6.059   2.777   0.412  1.0473 -0.5813 -1.7347
 1693TIP3   OH226637   3.762   3.124   6.374  0.0787  0.6434 -0.4969
 1693TIP3    H126638   3.816   3.048   6.349 -0.2886  0.7978 -1.7939
 1693TIP3    H226639   3.781   3.190   6.307  0.6711  1.8357  0.8334
 1694TIP3   OH226640   5.427   4.105   6.053 -0.1094 -0.4223  0.1599
 1694TIP3    H126641   5.350   4.138   6.006  0.1172 -0.7453 -0.4321
 1694TIP3    H226642   5.441   4.170   6.123 -0.4482  0.0507 -0.2065
 1695TIP3   OH226643   0.506   0.249   0.677  0.0555  0.3853 -0.0764
 1695TIP3    H126644   0.573   0.314   0.695 -1.2566  1.9694 -0.6886
 1695TIP3    H226645   0.480   0.267   0.586  0.4256 -1.7100 -0.6151
 1696TIP3   OH226646   5.857   2.938   5.477  0.7325  0.0124  0.5079
 1696TIP3    H126647   5.803   2.905   5.548 -0.7677 -0.0628 -0.6494
 1696TIP3    H226648   5.902   2.861   5.443 -0.5045 -0.3814 -0.2696
 1697TIP3   OH226649   1.776   5.251   6.554  0.0468 -0.9221  0.3512
 1697TIP3    H126650   1.711   5.290   6.496  1.0600  2.0098  1.1090
 1697TIP3    H226651   1.725   5.197   6.614 -1.3528 -1.2001 -1.0487
 1698TIP3   OH226652   6.393   3.094   8.000 -0.2279 -0.0876 -0.0986
 1698TIP3    H126653   6.343   3.174   7.985 -0.0596  0.0865  0.2606
 1698TIP3    H226654   6.478   3.124   8.032 -0.5049 -0.4384  0.9994
 1699TIP3   OH226655   3.576   4.090   6.523 -0.5799  0.1618 -0.3107
 1699TIP3    H126656   3.608   4.025   6.459  1.9423  1.6659 -0.6442
 1699TIP3    H226657   3.624   4.069   6.603  2.3200  3.1879 -1.1408
 1700TIP3   OH226658   4.720   4.263   0.408  0.0339 -0.3557 -0.5641
 1700TIP3    H126659   4.741   4.209   0.484 -1.8290  0.4164  0.5435
 1700TIP3    H226660   4.803   4.306   0.385  0.6160 -0.5680  1.0572
 1701TIP3   OH226661   0.576   4.337   6.497  0.1917  0.6054  0.1364
 1701TIP3    H126662   0.639   4.348   6.568 -0.3260  0.6874  0.5842
 1701TIP3    H226663   0.629   4.345   6.417  1.3259 -2.6848  0.5065
 1702TIP3   OH226664   0.411   2.392   6.787 -0.3454 -0.4782  0.6675
 1702TIP3    H126665   0.457   2.407   6.705  2.1480 -0.6662  1.9927
 1702TIP3    H226666   0.394   2.480   6.822 -0.2576 -0.4293  0.5844
 1703TIP3   OH226667   2.524   4.669   7.218  0.1361 -0.2933 -0.1874
 1703TIP3    H126668   2.558   4.746   7.263 -0.3884  0.1390 -0.5208
 1703TIP3    H226669   2.548   4.682   7.127  1.1828 -1.1599 -0.0438
 1704TIP3   OH226670   3.855   0.445   6.381  0.3219 -0.4238 -0.4804
 1704TIP3    H126671   3.861   0.378   6.313 -3.7116  0.6283 -2.0292
 1704TIP3    H226672   3.896   0.522   6.343  0.0502 -0.4709 -0.8736
 1705TIP3   OH226673   5.291   3.733   5.940 -0.2826 -0.0989 -0.2434
 1705TIP3    H126674   5.264   3.820   5.912  0.3169 -0.0809 -0.7893
 1705TIP3    H226675   5.347   3.701   5.869  0.3339 -0.5179  0.4146
 1706TIP3   OH226676   6.324   1.487   6.189 -0.3812 -0.2562 -0.6431
 1706TIP3    H126677   6.308   1.577   6.162  0.0819 -0.1238 -0.4774
 1706TIP3    H226678   6.266   1.435   6.134  0.0318  0.0692 -1.3930
 1707TIP3   OH226679   1.099   6.839   0.919 -0.4438  0.1923  0.2079
 1707TIP3    H126680   1.108   6.934   0.913 -0.0461  0.0323 -2.1510
 1707TIP3    H226681   1.020   6.826   0.972  1.4862  1.7641  3.6416
 1708TIP3   OH226682   5.103   0.502   6.515  0.1107 -0.0076  0.2236
 1708TIP3    H126683   5.176   0.476   6.459  0.4702  1.2489  0.0816
 1708TIP3    H226684   5.049   0.424   6.523  1.3374 -0.8740  0.1188
 1709TIP3   OH226685   6.229   0.826   6.316  0.1434 -0.4840  0.8092
 1709TIP3    H126686   6.260   0.788   6.398  0.6372  1.1143  1.3729
 1709TIP3    H226687   6.133   0.825   6.323  0.0808 -3.0936  0.1272
 1710TIP3   OH226688   3.961   2.320   0.415 -0.2033  0.6931 -0.1496
 1710TIP3    H126689   3.960   2.296   0.508 -2.5556 -1.6373 -0.7189
 1710TIP3    H226690   4.015   2.253   0.374  1.3546  2.0784 -0.4304
 1711TIP3   OH226691   1.483   4.417   7.180  0.1458  0.0435 -0.0766
 1711TIP3    H126692   1.441   4.459   7.105 -0.0570  0.9182  0.5222
 1711TIP3    H226693   1.548   4.481   7.210  0.0433 -0.1853  0.6484
 1712TIP3   OH226694   2.304   0.583   7.703  0.3563  0.3602 -0.4247
 1712TIP3    H126695   2.399   0.581   7.695  0.6546 -3.0534  2.5405
 1712TIP3    H226696   2.287   0.640   7.778  0.1866 -0.4478  0.1571
 1713TIP3   OH226697   5.669   1.141   7.395 -0.7580  0.3949 -0.0090
 1713TIP3    H126698   5.635   1.200   7.462  1.9670  2.8728 -0.7181
 1713TIP3    H226699   5.631   1.172   7.313 -0.4530  0.2651 -0.2026
 1714TIP3   OH226700   0.310   1.438   0.639 -0.3466 -0.3890 -0.5506
 1714TIP3    H126701   0.253   1.366   0.664 -2.2016  1.5687  1.0342
 1714TIP3    H226702   0.364   1.453   0.717 -1.3939  1.2485 -0.1209
 1715TIP3   OH226703   6.152   2.417   1.490 -0.1196 -0.9067 -0.0425
 1715TIP3    H126704   6.073   2.439   1.538 -0.0540 -1.0233  0.1182
 1715TIP3    H226705   6.120   2.382   1.407 -0.2199  2.0867 -1.3489
 1716TIP3   OH226706   6.613   0.511   6.148  0.2323  0.6061  0.3665
 1716TIP3    H126707   6.652   0.497   6.234  0.3834  0.2000  0.2325
 1716TIP3    H226708   6.521   0.485   6.159  0.4462 -0.2251  0.1911
 1717TIP3   OH226709   5.114   6.767   7.486  0.3926  0.2417  0.3307
 1717TIP3    H126710   5.190   6.731   7.441 -0.9080 -0.1912 -1.6329
 1717TIP3    H226711   5.149   6.809   7.564  2.5853 -0.2895 -0.3354
 1718TIP3   OH226712   0.326   2.502   6.222 -0.1942  1.0803 -0.0379
 1718TIP3    H126713   0.302   2.548   6.142 -0.9884  0.8231  0.0435
 1718TIP3    H226714   0.259   2.527   6.285  0.0594  0.7740  0.3562
 1719TIP3   OH226715   7.089   5.489   7.073 -0.0230  0.1181 -0.1906
 1719TIP3    H126716   7.035   5.465   7.149 -0.3071  0.5664 -0.2476
 1719TIP3    H226717   7.034   5.548   7.022  0.3208  0.1407 -0.5395
 1720TIP3   OH226718   5.078   5.652   7.679 -0.3493 -0.0827 -0.3764
 1720TIP3    H126719   5.170   5.669   7.657 -0.4380 -0.2800 -0.9207
 1720TIP3    H226720   5.054   5.577   7.624 -0.5697 -0.6134  0.4461
 1721TIP3   OH226721   3.372   5.131   6.315  0.3739  0.0835 -0.5467
 1721TIP3    H126722   3.280   5.145   6.338  0.8130  1.3146  0.5104
 1721TIP3    H226723   3.372   5.049   6.266 -1.0034 -0.9939  1.2141
 1722TIP3   OH226724   1.753   3.624   6.730 -0.0862  0.2830 -0.3554
 1722TIP3    H126725   1.761   3.538   6.772  0.9350  1.2291  1.3942
 1722TIP3    H226726   1.802   3.614   6.648  0.6841 -0.5812  0.1972
 1723TIP3   OH226727   1.189   0.093   0.134  0.1967 -0.5563 -0.2266
 1723TIP3    H126728   1.221   0.137   0.056  1.0087 -0.6262  0.0631
 1723TIP3    H226729   1.265   0.047   0.169 -0.6432 -2.2199 -0.5494
 1724TIP3   OH226730   5.357   1.707   7.188  0.3512 -0.3051  0.1146
 1724TIP3    H126731   5.366   1.650   7.264 -0.2710  0.3840  0.7199
 1724TIP3    H226732   5.263   1.725   7.182  0.4139 -0.2296 -0.7201
 1725TIP3   OH226733   0.082   4.458   7.125  0.0572 -0.3932  0.4819
 1725TIP3    H126734   0.115   4.378   7.167 -0.6449 -0.7138  0.4345
 1725TIP3    H226735   0.019   4.493   7.187 -0.7760 -0.7176 -0.1769
 1726TIP3   OH226736   4.678   2.763   8.018  0.0365 -0.0956 -0.1451
 1726TIP3    H126737   4.602   2.819   8.001  0.2209 -0.2104 -1.3971
 1726TIP3    H226738   4.739   2.784   7.947  0.6363 -0.9362  0.1215
 1727TIP3   OH226739   5.885   3.375   7.175 -0.0801 -0.0090  0.8006
 1727TIP3    H126740   5.813   3.437   7.190 -0.0953  0.1184  0.2107
 1727TIP3    H226741   5.953   3.403   7.235 -0.4972 -0.0828  1.3115
 1728TIP3   OH226742   6.707   5.856   7.746  0.4849 -0.0173 -0.1422
 1728TIP3    H126743   6.778   5.837   7.807 -0.9662 -2.1774  0.9223
 1728TIP3    H226744   6.628   5.829   7.792 -0.8610  0.6378 -2.0239
 1729TIP3   OH226745   5.619   2.316   1.020 -0.0796  0.1742  0.2939
 1729TIP3    H126746   5.556   2.385   0.998  1.3074  1.4702  0.3576
 1729TIP3    H226747   5.661   2.347   1.100  0.0539 -1.0951  0.7273
 1730TIP3   OH226748   0.812   2.820   6.088  0.2724  0.1268 -0.8017
 1730TIP3    H126749   0.746   2.807   6.020 -0.2774  1.9305 -0.6436
 1730TIP3    H226750   0.847   2.907   6.070  1.3404 -0.0936  0.1922
 1731TIP3   OH226751   0.055   0.825   6.625 -0.2867 -0.4857  0.5597
 1731TIP3    H126752   0.118   0.808   6.555 -0.8854  1.4242 -0.4536
 1731TIP3    H226753   0.084   0.908   6.663 -0.4891 -1.0691  2.0122
 1732TIP3   OH226754   5.407   6.347   7.089 -0.5638  0.5675 -0.7675
 1732TIP3    H126755   5.412   6.329   7.183 -0.5844  1.1461 -0.6529
 1732TIP3    H226756   5.431   6.439   7.081  1.5545 -0.0359 -1.5636
 1733TIP3   OH226757   4.926   0.698   6.247  0.0507 -0.0794  0.4008
 1733TIP3    H126758   4.872   0.743   6.182  1.4181  0.0299 -0.6765
 1733TIP3    H226759   4.955   0.618   6.203  0.9296 -0.0371  0.9012
 1734TIP3   OH226760   4.810   3.176   7.101 -0.0143  0.0180 -0.3078
 1734TIP3    H126761   4.842   3.094   7.063 -0.3273  0.3340 -1.2638
 1734TIP3    H226762   4.816   3.162   7.195  2.4210 -0.1455 -0.4331
 1735TIP3   OH226763   2.332   2.349   7.989 -0.1829 -0.1742  0.1324
 1735TIP3    H126764   2.363   2.332   7.900 -1.3065 -1.0093 -0.1067
 1735TIP3    H226765   2.386   2.292   8.044  0.4941  0.3218 -0.0110
 1736TIP3   OH226766   2.224   0.857   8.077  0.0531 -0.6639  0.8395
 1736TIP3    H126767   2.302   0.849   8.023 -0.7554 -0.4807 -0.3853
 1736TIP3    H226768   2.186   0.941   8.052 -1.1883 -1.3019  0.5020
 1737TIP3   OH226769   4.238   2.067   6.365  0.0562 -0.2548 -0.0613
 1737TIP3    H126770   4.148   2.086   6.337 -0.0099  0.3488  0.5512
 1737TIP3    H226771   4.265   1.995   6.309 -0.9010 -0.6183 -0.0694
 1738TIP3   OH226772   7.063   4.353   6.212 -0.0351 -0.1805  0.3570
 1738TIP3    H126773   7.052   4.384   6.122  0.7642 -0.6748  0.0835
 1738TIP3    H226774   7.053   4.431   6.266 -0.8153  0.0654 -0.1470
 1739TIP3   OH226775   5.539   3.345   7.653  0.2333  0.2550  0.0181
 1739TIP3    H126776   5.548   3.267   7.706 -1.1407 -0.8121 -1.2559
 1739TIP3    H226777   5.491   3.316   7.575  1.7465  1.8678 -1.5808
 1740TIP3   OH226778   0.554   4.183   0.875  0.5379  0.0225 -0.2421
 1740TIP3    H126779   0.622   4.251   0.880 -0.7202  1.3355 -0.6516
 1740TIP3    H226780   0.582   4.117   0.938  4.0631 -1.2052 -2.8916
 1741TIP3   OH226781   4.160   4.461   0.931 -0.2584 -0.0515 -0.3303
 1741TIP3    H126782   4.179   4.431   0.842 -0.7647 -0.9439 -0.1400
 1741TIP3    H226783   4.078   4.510   0.922  0.7870  1.6510 -0.7141
 1742TIP3   OH226784   1.506   3.624   7.614  0.0647 -0.3211  0.0436
 1742TIP3    H126785   1.587   3.588   7.578  1.8719  2.4946  1.1682
 1742TIP3    H226786   1.495   3.580   7.698  2.0437  1.3048  1.2204
 1743TIP3   OH226787   6.509   4.229   7.826 -0.0798  0.3224  0.5733
 1743TIP3    H126788   6.557   4.189   7.899 -1.5596 -1.8214  0.4081
 1743TIP3    H226789   6.476   4.312   7.862  0.2615 -0.1206  1.9398
 1744TIP3   OH226790   2.525   1.686   7.417  0.2044 -0.0211  0.2277
 1744TIP3    H126791   2.558   1.776   7.427  2.7598 -1.0203  1.1041
 1744TIP3    H226792   2.519   1.653   7.506  0.4688 -1.1318 -0.1616
 1745TIP3   OH226793   2.044   0.483   0.362 -0.2474 -0.2553  0.5856
 1745TIP3    H126794   2.139   0.476   0.352 -0.1927  0.2787  0.6985
 1745TIP3    H226795   2.025   0.576   0.347 -0.8780 -0.5502 -0.5117
 1746TIP3   OH226796   5.907   2.599   0.774  0.3312  0.5850 -0.6954
 1746TIP3    H126797   5.885   2.510   0.804  0.0717  1.1934  0.9415
 1746TIP3    H226798   5.877   2.656   0.844  2.3496  1.8325 -0.8362
 1747TIP3   OH226799   3.372   4.348   6.375  0.1897 -0.5183 -0.0061
 1747TIP3    H126800   3.425   4.367   6.452  0.1448 -3.2522  0.7731
 1747TIP3    H226801   3.434   4.310   6.313 -0.4083 -1.6781  0.0852
 1748TIP3   OH226802   0.004   3.993   6.822  0.4187 -0.5370 -0.3489
 1748TIP3    H126803  -0.013   4.087   6.827  1.9187 -0.2920  0.5245
 1748TIP3    H226804  -0.048   3.963   6.748  0.8319  1.2065 -1.3680
 1749TIP3   OH226805   1.846   0.892   6.856 -0.0645 -0.1462 -0.0187
 1749TIP3    H126806   1.828   0.903   6.763 -1.0938 -1.4498  0.0148
 1749TIP3    H226807   1.942   0.890   6.861 -0.0019 -0.3707 -1.0868
 1750TIP3   OH226808   4.673   5.026   6.277  0.3737 -0.0466 -0.0665
 1750TIP3    H126809   4.656   5.085   6.350  1.9733  1.2006 -0.6798
 1750TIP3    H226810   4.742   5.069   6.226 -0.2514 -1.2029 -1.9562
 1751TIP3   OH226811   1.233   0.428   0.819 -0.1002  0.1623  0.2082
 1751TIP3    H126812   1.176   0.439   0.895 -0.2628 -0.9169  0.2560
 1751TIP3    H226813   1.302   0.369   0.850  0.1436  0.1716 -0.3169
 1752TIP3   OH226814   4.048   0.912   0.885  0.2499  0.1589 -0.1713
 1752TIP3    H126815   4.059   0.992   0.937 -0.6795 -0.2579  0.7026
 1752TIP3    H226816   3.975   0.931   0.826 -0.5975 -0.3282  0.6789
 1753TIP3   OH226817   6.490   1.839   7.115 -0.1136  0.8343  0.1181
 1753TIP3    H126818   6.405   1.831   7.072 -0.5021 -1.0210  1.1930
 1753TIP3    H226819   6.470   1.856   7.207  0.5385 -3.1362  1.1114
 1754TIP3   OH226820   5.758   2.275   5.882 -0.2199 -0.0201  0.5633
 1754TIP3    H126821   5.763   2.353   5.938 -1.4416  0.3990  0.0982
 1754TIP3    H226822   5.850   2.251   5.868  0.1392  0.3995  1.9975
 1755TIP3   OH226823   5.505   0.632   7.312  0.0561 -0.3149  0.2911
 1755TIP3    H126824   5.594   0.664   7.301  0.6880 -2.8456 -2.5055
 1755TIP3    H226825   5.506   0.587   7.397  1.6738 -0.9943 -0.0807
 1756TIP3   OH226826   5.997   2.641   6.788 -0.6799 -0.3183 -0.1938
 1756TIP3    H126827   5.904   2.651   6.769 -0.6025  0.3837 -0.2439
 1756TIP3    H226828   6.033   2.729   6.775  0.3391 -0.9938 -2.1249
 1757TIP3   OH226829   6.469   5.468   6.980 -0.3547  0.4648 -0.1869
 1757TIP3    H126830   6.488   5.561   6.972  0.7488  0.2431 -0.1539
 1757TIP3    H226831   6.525   5.426   6.916  0.3852 -0.3258  0.9579
 1758TIP3   OH226832   6.172   1.711   7.579 -0.6716  0.7383  0.0292
 1758TIP3    H126833   6.094   1.670   7.617 -1.2523  0.5271 -1.3568
 1758TIP3    H226834   6.245   1.672   7.627 -1.3116 -0.5492 -0.0178
 1759TIP3   OH226835   0.309   5.817   0.608 -0.0320 -0.4744 -0.0419
 1759TIP3    H126836   0.396   5.847   0.583  0.3551 -0.4944  1.2489
 1759TIP3    H226837   0.293   5.857   0.693 -1.2246 -0.6081 -0.1858
 1760TIP3   OH226838   2.338   3.655   0.957  0.1481 -0.0145  0.5977
 1760TIP3    H126839   2.421   3.693   0.931 -1.0848  1.7486 -0.8607
 1760TIP3    H226840   2.302   3.617   0.877 -2.1842  2.6302  0.3158
 1761TIP3   OH226841   2.542   4.212   5.999 -0.0897 -0.3091 -0.1922
 1761TIP3    H126842   2.505   4.217   5.911 -0.4792 -2.2847 -0.1489
 1761TIP3    H226843   2.466   4.220   6.058  0.0168 -0.3672 -0.0465
 1762TIP3   OH226844   0.953   0.255   1.712  0.3095  0.7070 -0.4724
 1762TIP3    H126845   0.888   0.307   1.759  0.2490  0.0063  0.2199
 1762TIP3    H226846   0.943   0.166   1.747  0.2348  0.1656 -1.8126
 1763TIP3   OH226847   6.278   6.478   6.664 -0.0215  0.2532 -0.0797
 1763TIP3    H126848   6.186   6.454   6.651 -0.0633 -0.2452  1.1033
 1763TIP3    H226849   6.317   6.403   6.709  0.7658  0.7980  0.1626
 1764TIP3   OH226850   1.034   2.779   1.942 -0.0437  0.3063 -0.2748
 1764TIP3    H126851   0.995   2.694   1.921 -0.3920  0.3167  0.3133
 1764TIP3    H226852   0.973   2.819   2.005  1.1765  0.1070  1.0662
 1765TIP3   OH226853   6.687   5.613   0.734 -0.5638  0.2924 -0.6902
 1765TIP3    H126854   6.603   5.581   0.768 -0.9222  1.7770 -0.1310
 1765TIP3    H226855   6.672   5.706   0.718  2.0472  1.4853  3.0568
 1766TIP3   OH226856   0.011   2.391   7.150 -0.0015 -0.0901 -0.0285
 1766TIP3    H126857   0.081   2.437   7.104 -0.0654 -0.3853 -0.4197
 1766TIP3    H226858  -0.068   2.440   7.128  0.0006 -0.0975 -0.0544
 1767TIP3   OH226859   0.310   4.520   0.891 -0.1234 -0.2383 -0.5269
 1767TIP3    H126860   0.367   4.519   0.814  2.2522  0.3499  1.1446
 1767TIP3    H226861   0.331   4.438   0.937  1.5488  1.2869  1.5640
 1768TIP3   OH226862   0.138   4.719   7.370  0.1218 -0.3019  0.4482
 1768TIP3    H126863   0.152   4.766   7.288  0.5961  1.4920  1.5231
 1768TIP3    H226864   0.215   4.664   7.381  0.2979 -0.1491 -0.0384
 1769TIP3   OH226865   1.442   1.892   0.109 -0.3685  0.1232 -0.0836
 1769TIP3    H126866   1.369   1.861   0.163 -1.6395 -0.2341 -1.9622
 1769TIP3    H226867   1.519   1.875   0.162 -1.7291  1.9457  2.6148
 1770TIP3   OH226868   6.870   4.714   5.914 -0.7094  0.0046 -0.6607
 1770TIP3    H126869   6.858   4.627   5.876  0.7017 -0.7360  0.5195
 1770TIP3    H226870   6.876   4.773   5.839  1.0953 -1.3013 -1.5909
 1771TIP3   OH226871   6.690   3.191   6.715  0.0960 -0.4096  0.3713
 1771TIP3    H126872   6.706   3.261   6.779  1.0776 -0.0186 -0.2873
 1771TIP3    H226873   6.766   3.133   6.724 -0.8950 -1.6334  1.1927
 1772TIP3   OH226874   1.069   4.134   1.683  0.1415  0.2697 -0.0412
 1772TIP3    H126875   1.083   4.071   1.754 -1.0097  0.2825  0.2053
 1772TIP3    H226876   1.157   4.166   1.661  0.5774 -0.3079  0.8517
 1773TIP3   OH226877   1.166   0.718   1.281  0.1430  0.2946  0.7899
 1773TIP3    H126878   1.189   0.772   1.356 -1.0333 -2.6735  3.4101
 1773TIP3    H226879   1.226   0.644   1.286  0.4948  0.3902 -1.6347
 1774TIP3   OH226880   3.397   6.311   0.740 -0.9991  0.6675  0.5719
 1774TIP3    H126881   3.393   6.343   0.830 -0.9907  0.3475  0.6857
 1774TIP3    H226882   3.432   6.222   0.748 -0.9835  0.6459  0.2513
 1775TIP3   OH226883   0.338   5.092   0.162  0.0890 -0.2402  0.4001
 1775TIP3    H126884   0.313   5.038   0.087  0.3153  0.5693 -0.2709
 1775TIP3    H226885   0.430   5.070   0.177 -0.0475 -0.6426  0.6436
 1776TIP3   OH226886   4.712   3.194   6.854  0.3817 -0.0638 -0.1156
 1776TIP3    H126887   4.736   3.184   6.946 -0.0032 -1.2777 -0.1461
 1776TIP3    H226888   4.746   3.280   6.830  1.2199 -0.0966  0.9320
 1777TIP3   OH226889   6.564   4.477   1.962  0.0805 -0.7310 -0.7346
 1777TIP3    H126890   6.616   4.537   2.016  0.0651 -0.1804 -1.3238
 1777TIP3    H226891   6.474   4.487   1.996  0.2467 -1.2092 -0.1402
 1778TIP3   OH226892   0.824   4.926   0.676 -0.3041 -0.0557 -0.3580
 1778TIP3    H126893   0.914   4.912   0.703  0.2393  1.9371 -1.0852
 1778TIP3    H226894   0.804   4.851   0.620  1.4348  0.2759 -1.4736
 1779TIP3   OH226895   6.264   0.146   1.140  0.2304  0.5498 -0.0005
 1779TIP3    H126896   6.185   0.106   1.176  1.4478 -1.2870  0.6778
 1779TIP3    H226897   6.324   0.073   1.127  2.1130  2.0412  0.2460
 1780TIP3   OH226898   0.975   3.360   6.624 -0.7902 -0.6063 -0.0962
 1780TIP3    H126899   0.889   3.390   6.654 -1.2771 -1.2050 -0.8703
 1780TIP3    H226900   1.031   3.368   6.701 -1.2002  1.1077  0.0342
 1781TIP3   OH226901   6.465   5.157   6.249  0.1674 -0.3532  0.1319
 1781TIP3    H126902   6.441   5.192   6.163  0.7681 -0.2581  0.0054
 1781TIP3    H226903   6.512   5.076   6.230  0.6899 -0.1012  0.3627
 1782TIP3   OH226904   5.405   4.977   0.311  0.1344 -0.3792  0.0989
 1782TIP3    H126905   5.427   4.974   0.217 -1.0281  0.5184 -0.2087
 1782TIP3    H226906   5.437   4.894   0.345  0.0137 -0.9868 -1.2256
 1783TIP3   OH226907   5.368   0.872   6.793 -0.6117 -0.2274  0.4167
 1783TIP3    H126908   5.419   0.873   6.874  0.1600 -2.4425  0.0053
 1783TIP3    H226909   5.418   0.926   6.732  1.6657 -2.9016 -0.1841
 1784TIP3   OH226910   3.983   4.949   6.120  0.3936 -0.4230  0.1620
 1784TIP3    H126911   3.934   5.002   6.184  0.5065 -0.6986  0.4762
 1784TIP3    H226912   3.928   4.872   6.105  0.3085 -0.2978 -0.1690
 1785TIP3   OH226913   6.643   3.595   6.899 -0.2188  0.3976 -0.2511
 1785TIP3    H126914   6.608   3.535   6.833  1.2553 -2.2732  1.3172
 1785TIP3    H226915   6.737   3.598   6.881 -0.1481  1.5056  0.2772
 1786TIP3   OH226916   2.475   2.829   6.892  0.1667 -0.5910 -0.1299
 1786TIP3    H126917   2.547   2.878   6.932 -0.3305  0.9574 -1.0855
 1786TIP3    H226918   2.451   2.880   6.814  0.4806 -3.0257 -1.8815
 1787TIP3   OH226919   6.768   5.212   5.754 -0.2666 -0.5413 -0.0917
 1787TIP3    H126920   6.826   5.284   5.778  0.2833 -0.3292 -2.0000
 1787TIP3    H226921   6.724   5.241   5.674 -1.5204 -1.5216  0.2152
 1788TIP3   OH226922   1.592   2.878   1.542 -0.1971 -0.5454 -0.5163
 1788TIP3    H126923   1.675   2.845   1.576  0.1490 -0.3106 -1.1265
 1788TIP3    H226924   1.605   2.973   1.535 -0.9928 -0.3380  0.6931
 1789TIP3   OH226925   5.449   2.714   7.397  0.2800 -0.2783  0.6813
 1789TIP3    H126926   5.476   2.627   7.369  1.9337  0.1067  1.0109
 1789TIP3    H226927   5.443   2.708   7.493  0.8728  0.0868  0.7461
 1790TIP3   OH226928   3.635   5.485   7.661 -0.1689 -0.0964  0.5520
 1790TIP3    H126929   3.561   5.430   7.689 -0.4680 -0.3126 -0.6634
 1790TIP3    H226930   3.697   5.423   7.623 -0.2764  0.3429 -0.3409
 1791TIP3   OH226931   0.866   4.664   6.995  0.3804  0.1143  0.0119
 1791TIP3    H126932   0.779   4.628   6.977  0.9756 -0.8697 -0.9312
 1791TIP3    H226933   0.904   4.681   6.909  1.1159  0.5818  0.4198
 1792TIP3   OH226934   2.805   4.965   8.016 -0.4886  0.3363 -0.4799
 1792TIP3    H126935   2.773   5.043   8.063  1.6511  1.3410 -0.6286
 1792TIP3    H226936   2.793   4.986   7.924 -0.7601  0.1221 -0.4928
 1793TIP3   OH226937   3.422   2.231   1.075 -0.0552  0.0187 -1.2206
 1793TIP3    H126938   3.388   2.174   1.143  1.4408  0.2253 -0.2676
 1793TIP3    H226939   3.368   2.310   1.081  0.3018  0.1847 -0.0012
 1794TIP3   OH226940   1.021   2.182   7.668 -0.2948  0.0852 -0.1368
 1794TIP3    H126941   0.987   2.107   7.619 -1.4677 -0.6647  1.7865
 1794TIP3    H226942   0.986   2.258   7.622 -2.4203 -0.6285  0.2552
 1795TIP3   OH226943   6.809   4.089   1.199  0.1993  0.0506  0.3164
 1795TIP3    H126944   6.855   4.143   1.264  0.8662  0.3789 -0.4114
 1795TIP3    H226945   6.812   4.141   1.119 -0.7893 -0.2665  0.0721
 1796TIP3   OH226946   5.027   1.338   7.548  0.0910 -0.2012 -0.1842
 1796TIP3    H126947   5.028   1.292   7.632  0.4958 -0.9194 -0.5817
 1796TIP3    H226948   5.120   1.347   7.525 -0.0425 -0.5209 -0.8395
 1797TIP3   OH226949   5.640   5.134   7.152 -0.2914 -0.6687 -0.7399
 1797TIP3    H126950   5.607   5.122   7.241 -0.1758  1.3114 -0.4105
 1797TIP3    H226951   5.569   5.103   7.095 -0.7689 -0.9823  0.0220
 1798TIP3   OH226952   5.804   3.428   0.388  0.0053 -0.0497 -0.3438
 1798TIP3    H126953   5.864   3.468   0.325  0.0449  1.6486  0.7247
 1798TIP3    H226954   5.739   3.383   0.335  1.2782 -0.4987 -1.5469
 1799TIP3   OH226955   0.122   3.010   0.053 -0.0124 -0.0138 -0.4521
 1799TIP3    H126956   0.059   2.948   0.018  1.4696 -0.0117 -3.2278
 1799TIP3    H226957   0.146   2.975   0.139 -1.8688 -1.3369 -0.4618
 1800TIP3   OH226958   2.702   4.648   6.121  0.4451  0.4576  0.2571
 1800TIP3    H126959   2.702   4.743   6.121  2.1348  0.4587  0.3254
 1800TIP3    H226960   2.786   4.623   6.158  1.2239 -1.0523 -2.3877
 1801TIP3   OH226961   1.644   3.264   7.548 -0.0330 -0.0279 -0.3432
 1801TIP3    H126962   1.698   3.241   7.472 -0.5014 -2.7612  0.0703
 1801TIP3    H226963   1.555   3.244   7.521 -0.2957 -0.1794  0.6163
 1802TIP3   OH226964   2.027   6.389   6.044 -0.2375  0.2002 -0.2508
 1802TIP3    H126965   2.019   6.460   5.980 -1.8315  0.0110 -0.2806
 1802TIP3    H226966   1.941   6.347   6.044 -0.2182  0.1188  1.9145
 1803TIP3   OH226967   5.876   3.645   6.817 -0.5976 -0.0757  0.5650
 1803TIP3    H126968   5.932   3.672   6.744 -0.9653 -0.2986  0.2008
 1803TIP3    H226969   5.859   3.726   6.865  0.3541 -0.0667  0.8994
 1804TIP3   OH226970   7.003   4.583   6.315 -0.4238  0.2912  0.5115
 1804TIP3    H126971   7.036   4.642   6.248  0.0294  1.2967  1.6117
 1804TIP3    H226972   6.910   4.606   6.324 -0.4929  0.1281  0.2041
 1805TIP3   OH226973   6.987   6.574   6.872  0.1121  0.3487  0.2214
 1805TIP3    H126974   6.980   6.500   6.812  0.4759  1.5352 -1.3166
 1805TIP3    H226975   6.946   6.543   6.953  0.6662 -1.6778 -0.2395
 1806TIP3   OH226976   1.789   6.998   0.089  0.0751 -0.2087  0.1507
 1806TIP3    H126977   1.733   6.991   0.166  0.1658  0.3111  0.2615
 1806TIP3    H226978   1.874   6.965   0.118  0.0413 -0.2542  0.1978
 1807TIP3   OH226979   2.717   5.263   6.387 -0.5117  0.3034  0.1144
 1807TIP3    H126980   2.664   5.342   6.380 -0.7462  0.1772  0.4570
 1807TIP3    H226981   2.681   5.203   6.321 -1.5309 -0.2005  1.0961
 1808TIP3   OH226982   4.477   0.671   6.132  0.0450  0.0840 -0.2654
 1808TIP3    H126983   4.562   0.716   6.138  0.1383 -0.2102  0.7812
 1808TIP3    H226984   4.446   0.690   6.044  1.4406 -0.2226 -0.8436
 1809TIP3   OH226985   4.182   5.942   0.771 -0.6699 -0.2585  0.4447
 1809TIP3    H126986   4.264   5.947   0.722 -0.9586 -0.6359 -0.0790
 1809TIP3    H226987   4.142   6.028   0.759  0.1613  0.3134  1.6184
 1810TIP3   OH226988   3.500   5.075   0.271  0.3075 -0.2385  0.4251
 1810TIP3    H126989   3.577   5.116   0.310  0.5818 -1.3297  1.0500
 1810TIP3    H226990   3.532   4.990   0.239 -0.6856 -0.8097  0.9297
 1811TIP3   OH226991   5.426   3.892   7.040 -0.4341  0.3839 -0.8449
 1811TIP3    H126992   5.449   3.898   7.133 -2.2775  1.1000 -0.4064
 1811TIP3    H226993   5.476   3.818   7.008 -0.4759 -0.4566  0.9571
 1812TIP3   OH226994   6.702   5.453   7.664  0.7933  0.2400  0.1323
 1812TIP3    H126995   6.764   5.439   7.593 -0.1751 -2.7611 -0.1886
 1812TIP3    H226996   6.637   5.514   7.628  0.9280 -0.3661 -1.1578
 1813TIP3   OH226997   3.449   4.723   7.389  0.0837 -0.1173  0.1748
 1813TIP3    H126998   3.535   4.687   7.365  1.2424  1.1614  2.2745
 1813TIP3    H226999   3.391   4.647   7.390  1.6704 -1.3549  0.8508
 1814TIP3   OH227000   3.228   4.662   7.161 -0.2336 -0.7931 -0.2761
 1814TIP3    H127001   3.202   4.654   7.253 -2.8429  0.9209 -0.7832
 1814TIP3    H227002   3.154   4.626   7.112  0.2007  0.2273 -1.7284
 1815TIP3   OH227003   0.501   6.008   0.569 -0.0935 -0.5138 -0.2365
 1815TIP3    H127004   0.486   6.059   0.648  3.9947  2.2524 -1.0639
 1815TIP3    H227005   0.581   5.958   0.588  0.8461  0.0496 -2.4712
 1816TIP3   OH227006   1.660   2.995   7.727  0.1556  0.1563  0.4021
 1816TIP3    H127007   1.632   2.925   7.668  0.6199  1.0361 -0.9136
 1816TIP3    H227008   1.722   3.046   7.674  0.4050  1.0962  1.5952
 1817TIP3   OH227009   6.840   3.463   1.077 -0.3382  0.0145  0.0936
 1817TIP3    H127010   6.833   3.522   1.152 -1.6672 -1.3998  1.1187
 1817TIP3    H227011   6.751   3.455   1.044 -0.0094 -0.6353 -0.6615
 1818TIP3   OH227012   1.588   4.659   7.273 -0.1684  0.8223 -0.3560
 1818TIP3    H127013   1.569   4.724   7.340 -2.6787 -1.1271  0.8663
 1818TIP3    H227014   1.607   4.711   7.195 -0.6767  3.0355  0.9409
 1819TIP3   OH227015   4.499   4.137   1.302 -0.1613 -0.2188  0.0854
 1819TIP3    H127016   4.510   4.226   1.334  0.3939 -0.0497 -0.5553
 1819TIP3    H227017   4.447   4.093   1.369 -1.0674  0.7930  0.0640
 1820TIP3   OH227018   6.903   6.816   7.711  0.4951  0.0265  0.4503
 1820TIP3    H127019   6.846   6.771   7.774  0.5002 -0.1593  0.3219
 1820TIP3    H227020   6.992   6.790   7.736  0.6026  1.3594  1.4728
 1821TIP3   OH227021   1.527   0.027   7.806  0.3482  0.2083 -0.1866
 1821TIP3    H127022   1.434   0.039   7.823  0.2101  2.1657 -2.0978
 1821TIP3    H227023   1.566   0.011   7.893 -1.3722  2.0820  0.9651
 1822TIP3   OH227024   1.094   3.681   7.800  0.5470  0.4534 -0.9515
 1822TIP3    H127025   1.143   3.751   7.844 -2.0125  0.7012  1.6848
 1822TIP3    H227026   1.117   3.602   7.849 -0.5085  0.3410 -0.6178
 1823TIP3   OH227027   6.105   6.892   5.990 -0.2362  0.0179 -0.0649
 1823TIP3    H127028   6.135   6.837   5.918  1.7596 -0.6037  1.1819
 1823TIP3    H227029   6.131   6.981   5.964 -0.1304 -0.1167 -0.4264
 1824TIP3   OH227030   1.796   5.373   6.932  0.0052 -0.4387 -0.1515
 1824TIP3    H127031   1.712   5.334   6.958 -0.2085 -0.8809 -1.4590
 1824TIP3    H227032   1.798   5.458   6.977 -0.9023 -0.6468  0.2984
 1825TIP3   OH227033   6.011   0.182   7.354 -0.4320 -0.1176  0.5599
 1825TIP3    H127034   5.988   0.162   7.445 -2.7125  1.0918  0.3033
 1825TIP3    H227035   5.983   0.106   7.304 -3.1509  0.9341  0.3823
 1826TIP3   OH227036   0.243   4.162   0.232 -0.3939 -0.0651  1.0161
 1826TIP3    H127037   0.234   4.094   0.299 -1.8384 -0.0805  0.8251
 1826TIP3    H227038   0.161   4.211   0.237  0.9624  2.2179  1.7413
 1827TIP3   OH227039   4.732   0.753   6.662 -0.0196 -0.2555 -0.1686
 1827TIP3    H127040   4.794   0.742   6.590  2.7438 -0.1420  2.0680
 1827TIP3    H227041   4.771   0.821   6.716 -1.6369 -0.8389  1.7976
 1828TIP3   OH227042   0.234   4.325   7.412 -0.0987  0.2984  0.2022
 1828TIP3    H127043   0.279   4.241   7.421 -1.6236 -0.5171  0.3456
 1828TIP3    H227044   0.208   4.348   7.501 -0.7922  0.2874  0.0080
 1829TIP3   OH227045   3.645   3.938   1.531 -0.4176 -0.1930  0.1114
 1829TIP3    H127046   3.663   3.844   1.541  1.6806 -0.0572 -1.8938
 1829TIP3    H227047   3.693   3.979   1.603  0.5624 -0.5023 -0.3532
 1830TIP3   OH227048   5.523   4.867   6.862 -0.4040 -0.3817 -0.1632
 1830TIP3    H127049   5.456   4.926   6.898  0.9294  0.9997  0.1017
 1830TIP3    H227050   5.477   4.818   6.795 -0.6619  3.8081 -3.2678
 1831TIP3   OH227051   6.491   3.419   0.575 -0.8739 -0.1567 -0.0357
 1831TIP3    H127052   6.532   3.469   0.505  1.8077 -0.0098  1.5764
 1831TIP3    H227053   6.507   3.471   0.654  0.1551 -2.5286  1.3580
 1832TIP3   OH227054   4.231   4.008   6.582 -0.1309 -0.1322  0.4983
 1832TIP3    H127055   4.305   4.061   6.553 -0.7067  0.2173 -0.3532
 1832TIP3    H227056   4.175   4.069   6.629 -0.1583 -0.2682  0.6413
 1833TIP3   OH227057   1.948   4.219   7.540  0.4304 -0.0500 -0.6015
 1833TIP3    H127058   1.880   4.246   7.479 -0.2570 -0.8534 -0.2024
 1833TIP3    H227059   2.014   4.289   7.535 -1.1923  1.5760  0.2559
 1834TIP3   OH227060   6.356   6.554   1.400 -0.0185  0.2352  0.0404
 1834TIP3    H127061   6.319   6.523   1.317 -1.2257  0.7515  0.3839
 1834TIP3    H227062   6.438   6.597   1.374 -0.1905  0.0584 -0.8368
 1835TIP3   OH227063   0.375   4.295   7.879  0.3205  0.0516  1.1882
 1835TIP3    H127064   0.434   4.305   7.804  1.9673  0.3311  2.4791
 1835TIP3    H227065   0.419   4.342   7.950 -1.3847  0.0981  2.2355
 1836TIP3   OH227066   3.274   3.650   6.752  0.3818 -0.0219 -0.4549
 1836TIP3    H127067   3.264   3.704   6.673 -0.9954  1.5804  0.7686
 1836TIP3    H227068   3.340   3.695   6.804 -0.4476  0.2545  0.3710
 1837TIP3   OH227069   1.727   3.658   0.579 -0.0754 -0.2076 -0.6829
 1837TIP3    H127070   1.699   3.661   0.488  0.5710 -1.5109 -0.9192
 1837TIP3    H227071   1.653   3.695   0.628 -0.4411  0.4340 -1.7158
 1838TIP3   OH227072   2.016   6.549   1.768  0.3243  0.0997 -0.7609
 1838TIP3    H127073   2.081   6.578   1.832  0.2354 -0.1219 -0.5713
 1838TIP3    H227074   1.949   6.617   1.769  0.0659 -0.1656 -0.2417
 1839TIP3   OH227075   2.332   3.949   6.882  0.4696 -0.0444  0.3726
 1839TIP3    H127076   2.417   3.986   6.860  0.4772 -0.1667  0.1880
 1839TIP3    H227077   2.287   4.018   6.931  1.5355 -0.8051  2.4825
 1840TIP3   OH227078   3.290   5.580   1.219 -0.0252  0.2174 -0.3017
 1840TIP3    H127079   3.286   5.666   1.176  0.6966  0.9395  1.0445
 1840TIP3    H227080   3.199   5.555   1.232 -0.2420  0.9228 -0.4279
 1841TIP3   OH227081   2.205   1.821   0.448  0.1279  0.0840 -0.5722
 1841TIP3    H127082   2.152   1.835   0.369  0.4248  0.3987 -0.7214
 1841TIP3    H227083   2.145   1.839   0.520  0.4288  1.9977 -0.7539
 1842TIP3   OH227084   1.318   5.560   7.389  0.0998  0.2698  0.0691
 1842TIP3    H127085   1.358   5.562   7.302  0.2632 -0.4962  0.1214
 1842TIP3    H227086   1.392   5.553   7.449 -0.0618 -0.3660  0.2031
 1843TIP3   OH227087   4.421   4.425   1.286 -0.0293 -0.3747  0.1494
 1843TIP3    H127088   4.376   4.429   1.370  0.1279  0.2873  0.2030
 1843TIP3    H227089   4.514   4.422   1.309  0.0087 -0.3328  0.0006
 1844TIP3   OH227090   0.911   5.144   1.298 -1.0535  0.7293 -0.1106
 1844TIP3    H127091   0.986   5.086   1.284 -0.1269  1.9567 -0.2899
 1844TIP3    H227092   0.847   5.116   1.232 -0.4449  0.1939 -0.4813
 1845TIP3   OH227093   6.551   7.069   0.217 -0.6405  0.4094  0.3801
 1845TIP3    H127094   6.514   7.003   0.159 -0.8670  0.7944  0.0789
 1845TIP3    H227095   6.607   7.020   0.277  0.5385  0.1259 -0.9050
 1846TIP3   OH227096   0.027   3.449   7.216  0.6666  0.0950  0.0331
 1846TIP3    H127097  -0.037   3.424   7.283  0.8022  1.6320  0.7548
 1846TIP3    H227098   0.002   3.399   7.139  0.3075 -1.4534  1.1376
 1847TIP3   OH227099   2.781   3.735   6.730 -0.0325 -0.4348  0.7233
 1847TIP3    H127100   2.808   3.673   6.797 -0.5016 -0.4957  0.8643
 1847TIP3    H227101   2.699   3.699   6.696  0.5578 -0.7597 -0.3585
 1848TIP3   OH227102   5.615   6.026   7.759  0.4987 -0.2625 -0.5106
 1848TIP3    H127103   5.527   5.997   7.783  1.0268 -1.3682  0.1294
 1848TIP3    H227104   5.621   6.007   7.665  0.0662 -0.2015 -0.5523
 1849TIP3   OH227105   6.319   0.345   6.397 -0.1227  0.0747  0.5284
 1849TIP3    H127106   6.337   0.332   6.304 -1.2760  3.0933 -0.1992
 1849TIP3    H227107   6.228   0.319   6.408 -0.8139  2.2645  0.1933
 1850TIP3   OH227108   6.773   4.600   6.527 -0.2636 -0.3010  0.0373
 1850TIP3    H127109   6.806   4.524   6.575 -0.0829  0.4085  1.0390
 1850TIP3    H227110   6.791   4.675   6.584 -0.5582  0.4852 -0.8848
 1851TIP3   OH227111   5.134   0.947   7.698 -0.0640 -0.1239 -0.1895
 1851TIP3    H127112   5.081   0.890   7.643  0.3880 -1.8356  1.0975
 1851TIP3    H227113   5.071   1.001   7.746 -0.4889  0.6298 -1.5858
 1852TIP3   OH227114   5.761   4.747   7.824  0.0397 -0.1533 -0.1276
 1852TIP3    H127115   5.726   4.826   7.785 -1.0283  0.6262  2.2887
 1852TIP3    H227116   5.716   4.675   7.781  0.0487  0.6038 -1.4003
 1853TIP3   OH227117   6.009   4.024   0.731  0.3355 -0.8261 -0.5855
 1853TIP3    H127118   5.937   4.028   0.668 -0.7034  0.1768  0.6357
 1853TIP3    H227119   6.007   3.934   0.763 -2.8548  0.1076  2.1971
 1854TIP3   OH227120   0.728   4.335   0.470  0.5302 -0.3957  0.2273
 1854TIP3    H127121   0.635   4.350   0.452 -0.2940 -2.0613  2.8243
 1854TIP3    H227122   0.749   4.394   0.542  2.2345  1.9091 -2.0827
 1855TIP3   OH227123   0.186   6.192   5.964  0.1374  0.4919  0.0846
 1855TIP3    H127124   0.169   6.116   6.019  1.6510  0.9012  1.1472
 1855TIP3    H227125   0.109   6.199   5.908 -0.2805 -1.4612  0.3836
 1856TIP3   OH227126   6.311   6.650   7.223 -0.5206 -0.1146  0.4002
 1856TIP3    H127127   6.325   6.564   7.261  2.0661  0.5124  0.9290
 1856TIP3    H227128   6.349   6.645   7.136  0.0151  0.6226  0.5871
 1857TIP3   OH227129   2.294   5.344   7.672 -0.8058 -0.1285 -0.7265
 1857TIP3    H127130   2.367   5.349   7.611  0.3290  0.1771  0.6216
 1857TIP3    H227131   2.236   5.278   7.635  0.6491 -1.1183 -1.2965
 1858TIP3   OH227132   6.735   4.071   6.439 -0.8099  0.4769 -0.2506
 1858TIP3    H127133   6.730   4.155   6.395  1.9103  0.2861 -0.9875
 1858TIP3    H227134   6.737   4.007   6.368 -1.2961 -0.1336  0.2751
 1859TIP3   OH227135   3.975   0.436   7.969  0.1859 -0.2536  0.5197
 1859TIP3    H127136   3.968   0.457   8.063 -0.9870  1.6486  0.0319
 1859TIP3    H227137   3.890   0.462   7.932  1.1903  0.4631 -1.3397
 1860TIP3   OH227138   1.516   2.338   6.743 -0.4987  0.6305 -0.6368
 1860TIP3    H127139   1.454   2.289   6.688  0.5613 -1.1388 -0.2931
 1860TIP3    H227140   1.504   2.301   6.831 -0.3334  1.6433 -0.1811
 1861TIP3   OH227141   0.760   2.791   0.972  0.1081  0.1465  0.1207
 1861TIP3    H127142   0.741   2.789   1.066  0.6365  1.8607  0.2832
 1861TIP3    H227143   0.849   2.759   0.965 -0.5841 -1.7888  0.0033
 1862TIP3   OH227144   0.634   1.191   8.045  0.4765 -0.4270 -0.5774
 1862TIP3    H127145   0.623   1.138   7.966  2.7813 -1.2060 -0.4259
 1862TIP3    H227146   0.634   1.127   8.117  0.3674  0.0701 -0.1333
 1863TIP3   OH227147   1.068   3.359   1.438  0.0599 -0.2142 -0.0189
 1863TIP3    H127148   1.043   3.283   1.385  0.2062 -1.0111  1.0497
 1863TIP3    H227149   0.986   3.392   1.473  0.1796 -1.0149  1.0371
 1864TIP3   OH227150   0.598   2.524   1.417  0.5423 -0.0872 -0.5184
 1864TIP3    H127151   0.668   2.462   1.434  1.5016  0.9569 -0.5629
 1864TIP3    H227152   0.557   2.493   1.336  0.7191 -0.8921 -0.3048
 1865TIP3   OH227153   5.156   2.690   7.707  0.1760  0.2148 -0.4235
 1865TIP3    H127154   5.149   2.661   7.798  0.3089 -0.0110 -0.4819
 1865TIP3    H227155   5.241   2.656   7.678 -1.0341 -2.0668 -1.4460
 1866TIP3   OH227156   1.754   3.152   0.746  0.6051 -0.7239 -0.3876
 1866TIP3    H127157   1.769   3.240   0.711  0.7180  0.3695  2.2707
 1866TIP3    H227158   1.715   3.167   0.833 -0.4313 -3.3205 -0.3607
 1867TIP3   OH227159   0.175   2.002   0.501 -0.3254  0.4567  0.0340
 1867TIP3    H127160   0.112   2.061   0.543  1.0668  0.3364  2.3415
 1867TIP3    H227161   0.200   1.940   0.569  2.2203  0.4459 -0.8613
 1868TIP3   OH227162   6.439   5.615   0.866 -0.5073 -0.0468  0.2160
 1868TIP3    H127163   6.363   5.577   0.910 -1.4415  0.8715 -0.5486
 1868TIP3    H227164   6.411   5.704   0.844  0.9778  0.4748  0.3694
 1869TIP3   OH227165   1.749   5.539   6.729  0.1876  0.5288  0.4630
 1869TIP3    H127166   1.801   5.618   6.740  1.3453 -0.2283  0.4700
 1869TIP3    H227167   1.807   5.468   6.756 -0.3546 -0.4633 -0.9289
 1870TIP3   OH227168   3.043   6.134   1.552 -0.0477  0.0214 -0.0413
 1870TIP3    H127169   2.996   6.204   1.508  0.3210  1.0625  1.1917
 1870TIP3    H227170   3.074   6.173   1.633 -0.3323 -1.7349  0.9448
 1871TIP3   OH227171   2.710   2.947   0.769 -0.0773  0.4673 -0.2207
 1871TIP3    H127172   2.774   2.932   0.700  1.9313  1.1471  1.4521
 1871TIP3    H227173   2.655   3.018   0.735  0.1724  0.0318 -1.5680
 1872TIP3   OH227174   5.459   0.340   7.782  0.5597 -0.0597 -0.4521
 1872TIP3    H127175   5.545   0.380   7.798  0.3520 -0.1241  0.8923
 1872TIP3    H227176   5.406   0.368   7.856 -0.5944 -0.0021 -1.2970
 1873TIP3   OH227177   6.260   7.069   0.075 -0.1308  0.5662  0.2881
 1873TIP3    H127178   6.276   6.993   0.131  1.2610  1.2848  0.8967
 1873TIP3    H227179   6.170   7.058   0.044  0.3281 -1.7598 -0.3271
 1874TIP3   OH227180   5.393   3.318   7.996  0.1756 -1.1413 -0.3661
 1874TIP3    H127181   5.331   3.325   7.924 -0.2189 -0.2371  0.0583
 1874TIP3    H227182   5.411   3.408   8.022 -0.1431 -1.4758  1.0627
 1875TIP3   OH227183   0.180   2.267   6.256  0.0204 -0.2616  0.2274
 1875TIP3    H127184   0.141   2.244   6.172  1.2389 -2.7252  0.2992
 1875TIP3    H227185   0.261   2.314   6.233  0.7672 -1.6361 -0.0123
 1876TIP3   OH227186   6.194   3.573   0.350  0.0217  0.1440  0.7425
 1876TIP3    H127187   6.122   3.581   0.288  0.5096  1.4089  0.3196
 1876TIP3    H227188   6.255   3.513   0.308  0.5625  1.3525 -0.2311
 1877TIP3   OH227189   3.744   3.966   0.213  0.7400 -0.0616 -0.0667
 1877TIP3    H127190   3.722   3.984   0.304  1.5090  1.0318 -0.0875
 1877TIP3    H227191   3.824   4.017   0.197  1.1171 -0.9496 -1.0891
 1878TIP3   OH227192   3.568   2.128   6.308  0.1811 -0.0418 -0.7432
 1878TIP3    H127193   3.523   2.193   6.254  0.2498 -1.2742 -2.3290
 1878TIP3    H227194   3.648   2.109   6.259  0.3587 -1.0002 -0.0782
 1879TIP3   OH227195   1.791   3.415   6.950 -0.2745  0.0520  0.3874
 1879TIP3    H127196   1.708   3.371   6.930 -0.0229 -0.7289  1.0093
 1879TIP3    H227197   1.858   3.356   6.916  0.0020  1.2148 -1.1166
 1880TIP3   OH227198   6.989   5.541   6.784 -0.5249 -0.4134 -0.1418
 1880TIP3    H127199   6.924   5.530   6.715 -0.0448 -0.1907 -0.6324
 1880TIP3    H227200   6.942   5.587   6.854 -1.1438 -1.0714 -0.1185
 1881TIP3   OH227201   6.560   4.225   0.619  0.0061 -0.7233 -0.6509
 1881TIP3    H127202   6.565   4.132   0.641  1.1632 -0.6898 -0.7709
 1881TIP3    H227203   6.490   4.259   0.674  1.1999 -1.1528  1.1607
 1882TIP3   OH227204   4.069   0.779   0.096  0.3065  0.0156  0.2752
 1882TIP3    H127205   4.078   0.753   0.004  1.1256  0.4519  0.2291
 1882TIP3    H227206   4.012   0.712   0.135  0.0084 -0.2008 -0.5311
 1883TIP3   OH227207   4.411   6.493   1.740  0.5796  0.1783 -0.8553
 1883TIP3    H127208   4.462   6.571   1.717  2.2381 -0.8828 -0.9012
 1883TIP3    H227209   4.415   6.490   1.835  0.2903  0.2956 -0.8399
 1884TIP3   OH227210   1.863   3.680   1.731 -0.3084 -0.6399  0.0819
 1884TIP3    H127211   1.824   3.655   1.648 -0.6159 -2.2459  0.6887
 1884TIP3    H227212   1.954   3.652   1.724  0.4276  1.7707 -0.7637
 1885TIP3   OH227213   1.677   0.672   7.965 -0.0457  0.1393  0.5558
 1885TIP3    H127214   1.707   0.597   8.017  0.4611 -1.5005 -2.0374
 1885TIP3    H227215   1.757   0.719   7.942 -0.1971  0.3733  0.5104
 1886TIP3   OH227216   0.433   4.490   0.654 -0.5987  0.5956  0.0369
 1886TIP3    H127217   0.433   4.409   0.602 -0.5135  0.0635  0.8591
 1886TIP3    H227218   0.508   4.539   0.621  0.1017 -0.2221  0.3925
 1887TIP3   OH227219   1.257   3.869   6.768  0.3424 -0.3549 -0.2361
 1887TIP3    H127220   1.308   3.828   6.837 -0.9968 -1.1197  0.3311
 1887TIP3    H227221   1.167   3.840   6.785 -0.4053  1.6015 -0.7323
 1888TIP3   OH227222   3.563   1.185   7.929  0.1080 -0.8824  0.0765
 1888TIP3    H127223   3.652   1.202   7.960  0.4219 -3.1688  0.5193
 1888TIP3    H227224   3.530   1.270   7.901  1.7697  0.3017  1.6426
 1889TIP3   OH227225   5.374   4.800   6.645  0.6589 -0.4304 -0.0921
 1889TIP3    H127226   5.402   4.729   6.587  1.3897 -1.6413  1.6911
 1889TIP3    H227227   5.278   4.790   6.649  0.7638 -1.4001  0.2261
 1890TIP3   OH227228   6.534   6.396   7.043 -0.3694  0.4210  0.6253
 1890TIP3    H127229   6.506   6.381   7.134 -2.5334  1.4644  0.1571
 1890TIP3    H227230   6.462   6.361   6.990  1.0138 -0.4472 -0.7126
 1891TIP3   OH227231   0.596   3.867   6.653  0.0756  0.5312 -0.1307
 1891TIP3    H127232   0.584   3.944   6.597  1.5595  0.2677 -0.8503
 1891TIP3    H227233   0.556   3.795   6.603 -0.8974  0.7481  0.3297
 1892TIP3   OH227234   0.573   4.151   6.825 -0.1922 -0.6628  0.1855
 1892TIP3    H127235   0.654   4.100   6.834  0.4979  0.5114  0.7559
 1892TIP3    H227236   0.505   4.095   6.863  0.1528 -2.0929 -1.2083
 1893TIP3   OH227237   2.086   5.216   6.359  0.3663 -0.5264  0.0339
 1893TIP3    H127238   2.078   5.273   6.436  0.7943 -0.3648 -0.0383
 1893TIP3    H227239   2.095   5.128   6.396 -0.9973 -0.6378  0.1306
 1894TIP3   OH227240   0.522   5.696   8.021 -0.3057  0.3995 -0.3766
 1894TIP3    H127241   0.470   5.646   8.083 -1.1026  1.9566  0.2372
 1894TIP3    H227242   0.496   5.662   7.935 -1.0503 -0.0190  0.0099
 1895TIP3   OH227243   5.545   3.635   1.232 -0.4363  0.2014 -0.7114
 1895TIP3    H127244   5.597   3.555   1.238 -0.7753 -0.0625 -1.2632
 1895TIP3    H227245   5.482   3.629   1.304 -0.5010 -0.0562 -0.7893
 1896TIP3   OH227246   0.836   1.206   7.533 -1.1444 -0.3222 -0.5131
 1896TIP3    H127247   0.839   1.301   7.522  4.1987 -0.3401 -0.1318
 1896TIP3    H227248   0.795   1.193   7.619 -2.1318  1.6107 -0.6697
 1897TIP3   OH227249   1.231   5.316   0.610  0.0549 -0.0017 -1.0484
 1897TIP3    H127250   1.297   5.251   0.635 -0.4850  0.3727  1.4440
 1897TIP3    H227251   1.162   5.306   0.675  1.0150  4.6370  0.8566
 1898TIP3   OH227252   4.472   4.623   7.461  0.0439  0.2933  0.0533
 1898TIP3    H127253   4.477   4.669   7.545 -1.9909 -0.6314  0.7010
 1898TIP3    H227254   4.547   4.564   7.462 -0.9219 -0.9614  1.9961
 1899TIP3   OH227255   6.204   2.166   1.616  0.2106 -0.3410 -0.2045
 1899TIP3    H127256   6.286   2.121   1.595  0.1231  0.1172 -1.5611
 1899TIP3    H227257   6.204   2.243   1.560 -1.0439 -0.2086 -0.0344
 1900TIP3   OH227258   3.711   2.597   7.592 -0.2835 -0.0396  0.1397
 1900TIP3    H127259   3.769   2.627   7.663 -0.2943 -0.1590  0.2011
 1900TIP3    H227260   3.763   2.531   7.546  0.6809  1.8667 -1.5486
 1901TIP3   OH227261   0.653   5.772   2.082  0.0585 -0.0474 -0.1543
 1901TIP3    H127262   0.670   5.780   1.988  0.5748  1.5804  0.0706
 1901TIP3    H227263   0.621   5.858   2.108  0.5031 -0.3174  1.2953
 1902TIP3   OH227264   3.556   5.328   6.403  0.3622 -0.6902  0.9391
 1902TIP3    H127265   3.499   5.256   6.377 -0.5548  0.0087  0.9498
 1902TIP3    H227266   3.573   5.376   6.322 -0.7256  0.2456  1.2412
 1903TIP3   OH227267   5.619   4.175   1.780 -0.6538 -0.3527 -0.3740
 1903TIP3    H127268   5.627   4.255   1.729 -2.8321 -0.6989 -1.3243
 1903TIP3    H227269   5.708   4.138   1.781  0.4939  2.3055  0.5559
 1904TIP3   OH227270   2.118   5.434   0.058  0.5598  0.1267 -0.2401
 1904TIP3    H127271   2.076   5.482  -0.014 -3.6338 -1.3698  1.0747
 1904TIP3    H227272   2.158   5.358   0.016  1.0569  1.0192 -1.4050
 1905TIP3   OH227273   0.926   1.156   7.015 -0.1793 -0.2776  0.1904
 1905TIP3    H127274   0.923   1.082   7.076 -0.7850 -1.3360 -1.0855
 1905TIP3    H227275   0.853   1.140   6.955  0.2692  0.8664 -0.6785
 1906TIP3   OH227276   2.311   4.712   5.979  0.2751  0.5533  0.3974
 1906TIP3    H127277   2.356   4.796   5.969  0.7195  0.3555  0.7480
 1906TIP3    H227278   2.380   4.646   5.970 -0.1733  0.1937 -0.5407
 1907TIP3   OH227279   2.210   3.810   6.685 -0.0368  0.2027  0.1169
 1907TIP3    H127280   2.135   3.869   6.675 -0.2998 -0.1439  0.0688
 1907TIP3    H227281   2.249   3.836   6.769 -0.9053 -0.4122  0.7167
 1908TIP3   OH227282   4.187   5.282   0.467 -0.1078 -0.2852  0.2749
 1908TIP3    H127283   4.214   5.250   0.553 -2.2479 -1.1534  0.6708
 1908TIP3    H227284   4.194   5.377   0.473  3.1777 -0.4654  0.1891
 1909TIP3   OH227285   3.493   2.442   0.361  0.2647 -0.1495 -1.1836
 1909TIP3    H127286   3.450   2.451   0.446  0.2147 -2.0926 -0.9815
 1909TIP3    H227287   3.570   2.498   0.367  1.3441 -1.7795  0.8988
 1910TIP3   OH227288   6.428   0.231   0.243 -0.0975 -0.1190  0.1451
 1910TIP3    H127289   6.338   0.246   0.214  0.1378 -0.2611 -0.6507
 1910TIP3    H227290   6.441   0.137   0.231  1.7031  0.5816 -4.1428
 1911TIP3   OH227291   0.320   4.499   6.444 -0.1173 -0.1232  0.0666
 1911TIP3    H127292   0.243   4.487   6.499 -0.1562 -0.6489 -0.1038
 1911TIP3    H227293   0.387   4.442   6.482  0.3255  0.6468  0.4677
 1912TIP3   OH227294   6.074   5.499   1.487 -0.0682  0.0271 -0.2777
 1912TIP3    H127295   6.125   5.426   1.451  0.6732 -0.1872  1.1241
 1912TIP3    H227296   6.104   5.576   1.439 -0.7498 -0.5736 -1.6644
 1913TIP3   OH227297   6.891   2.983   6.685 -0.4255  0.0078  0.6002
 1913TIP3    H127298   6.875   2.910   6.625 -0.6384  1.0352 -0.5830
 1913TIP3    H227299   6.920   2.940   6.766  0.7795 -1.3415 -0.5055
 1914TIP3   OH227300   5.105   4.368   8.068  0.0386 -0.0111 -0.4288
 1914TIP3    H127301   5.041   4.306   8.035  0.3099  0.4051 -1.7551
 1914TIP3    H227302   5.099   4.361   8.163 -0.4656 -1.5111 -0.5670
 1915TIP3   OH227303   3.408   4.773   0.885  0.5670 -0.2240  0.0306
 1915TIP3    H127304   3.435   4.848   0.938 -0.0731 -0.7487  1.1058
 1915TIP3    H227305   3.358   4.718   0.945  1.1858 -1.6100 -0.7193
 1916TIP3   OH227306   5.815   3.397   7.544  0.4377  0.5619  0.2451
 1916TIP3    H127307   5.853   3.355   7.621  0.4923 -2.0271 -1.1235
 1916TIP3    H227308   5.722   3.373   7.547  0.8692 -1.5653 -1.6763
 1917TIP3   OH227309   0.010   3.656   1.180 -0.3452 -0.1217  0.3165
 1917TIP3    H127310   0.076   3.709   1.225  1.0578 -0.3308 -1.4512
 1917TIP3    H227311  -0.073   3.702   1.196  0.6822  1.9403 -0.1713
 1918TIP3   OH227312   0.766   0.118   1.120 -0.3471 -0.0948  0.2594
 1918TIP3    H127313   0.705   0.048   1.096  0.0938 -0.5534  0.4476
 1918TIP3    H227314   0.711   0.195   1.135 -0.7941 -0.2789 -0.4190
 1919TIP3   OH227315   5.167   0.538   6.806  0.3507 -0.2146  0.4552
 1919TIP3    H127316   5.090   0.497   6.843  1.0378 -3.3641 -1.4065
 1919TIP3    H227317   5.135   0.585   6.729  0.2679 -1.6619 -0.4154
 1920TIP3   OH227318   6.962   5.802   1.859 -0.5883  0.4617  0.1986
 1920TIP3    H127319   6.953   5.758   1.775  0.1560  1.0539 -0.1885
 1920TIP3    H227320   6.911   5.883   1.850  0.4034  1.0647 -0.0663
 1921TIP3   OH227321   4.318   4.032   0.095  0.1399 -0.5027 -0.1013
 1921TIP3    H127322   4.270   3.990   0.166  0.9162 -0.0393  0.6953
 1921TIP3    H227323   4.378   4.092   0.138  1.0416 -0.6561 -1.1254
 1922TIP3   OH227324   6.654   5.721   6.468  0.4487  0.3977  0.1130
 1922TIP3    H127325   6.601   5.726   6.547  2.1017  1.9665  1.1752
 1922TIP3    H227326   6.620   5.790   6.411  0.0804  0.0991 -0.0312
 1923TIP3   OH227327   1.210   4.227   7.555  0.3697  0.2983  0.2065
 1923TIP3    H127328   1.180   4.293   7.493 -0.7722  0.2219  0.6558
 1923TIP3    H227329   1.137   4.165   7.561  0.6032  0.1079  1.3412
 1924TIP3   OH227330   5.484   6.061   0.922 -0.4399 -0.0644 -0.5122
 1924TIP3    H127331   5.483   5.973   0.960 -2.5436  0.2705  0.3012
 1924TIP3    H227332   5.400   6.069   0.876  0.1766  1.1390 -1.4802
 1925TIP3   OH227333   1.994   5.053   0.977  0.2903  0.1039 -0.4581
 1925TIP3    H127334   2.035   5.087   1.057 -0.4318 -1.1087  0.4375
 1925TIP3    H227335   1.998   5.126   0.915  1.0931  0.9662  0.5981
 1926TIP3   OH227336   1.695   0.297   0.561  0.5656  0.0269  0.2287
 1926TIP3    H127337   1.758   0.231   0.590  0.1753  0.3526  1.8211
 1926TIP3    H227338   1.661   0.336   0.641  0.0698  1.5043 -0.6802
 1927TIP3   OH227339   5.918   3.846   7.917 -0.0998 -0.2369 -0.1336
 1927TIP3    H127340   5.900   3.927   7.964 -0.0723  1.0455 -2.2716
 1927TIP3    H227341   6.001   3.862   7.872  1.1562 -2.3461  1.3388
 1928TIP3   OH227342   6.258   2.400   7.022  0.6942 -0.1176 -0.3775
 1928TIP3    H127343   6.215   2.390   6.937  0.0215  0.0326 -0.0591
 1928TIP3    H227344   6.333   2.457   7.005 -0.1408  0.9213 -0.6420
 1929TIP3   OH227345   3.774   4.918   8.012  0.1046  0.2862  0.4567
 1929TIP3    H127346   3.770   4.889   7.921  0.5153 -1.6344  1.0246
 1929TIP3    H227347   3.685   4.904   8.045  0.4897 -1.2037  0.9533
 1930TIP3   OH227348   6.911   1.936   0.398  0.9106 -0.2791  0.1726
 1930TIP3    H127349   6.989   1.928   0.342  0.6287  1.4099 -0.5047
 1930TIP3    H227350   6.886   2.028   0.390 -1.3073 -0.8546  0.2092
 1931TIP3   OH227351   1.878   3.615   7.122  0.3963  0.3905 -0.5906
 1931TIP3    H127352   1.845   3.547   7.062  0.6320 -0.7259  0.5405
 1931TIP3    H227353   1.806   3.679   7.127 -0.9764 -1.2219  0.6023
 1932TIP3   OH227354   1.977   4.561   0.864 -0.0991  0.4848 -0.3911
 1932TIP3    H127355   2.071   4.570   0.880  0.0580 -0.8769 -0.4545
 1932TIP3    H227356   1.936   4.612   0.933  0.6582 -1.2629  1.4206
 1933TIP3   OH227357   3.885   4.271   6.870 -0.7503 -0.1142 -0.4595
 1933TIP3    H127358   3.791   4.289   6.874 -0.7278  0.0406 -0.6555
 1933TIP3    H227359   3.927   4.356   6.879 -0.6322 -0.1601 -0.5764
 1934TIP3   OH227360   6.579   2.469   7.919 -0.3638  0.6531  0.8083
 1934TIP3    H127361   6.567   2.421   8.001 -0.2558  1.3508  1.2383
 1934TIP3    H227362   6.517   2.429   7.858  0.4815 -0.7418  0.8423
 1935TIP3   OH227363   5.439   2.774   1.245  0.3658  0.1451  0.3095
 1935TIP3    H127364   5.524   2.819   1.250  0.8462 -0.6516 -0.5649
 1935TIP3    H227365   5.389   2.825   1.181  0.1931  0.5916  0.7950
 1936TIP3   OH227366   1.093   1.840   7.048  0.8864 -0.1482 -0.2966
 1936TIP3    H127367   1.122   1.778   7.115  0.4984  0.1726  0.1645
 1936TIP3    H227368   1.154   1.826   6.975  1.9656  0.2261  0.5143
 1937TIP3   OH227369   6.660   5.883   1.639  0.5611  0.0694  0.4939
 1937TIP3    H127370   6.702   5.931   1.711  2.7543  1.6708 -1.7824
 1937TIP3    H227371   6.714   5.902   1.562 -0.8076 -2.8975 -1.2939
 1938TIP3   OH227372   0.482   6.748   6.747 -0.1684 -0.5072 -0.8955
 1938TIP3    H127373   0.417   6.811   6.778  1.8716  1.5467 -0.6270
 1938TIP3    H227374   0.433   6.667   6.732 -2.9050  1.2073 -1.4650
 1939TIP3   OH227375   2.835   5.644   5.852  0.7017 -0.1597 -0.4508
 1939TIP3    H127376   2.768   5.580   5.832  1.1192 -0.2989 -1.4831
 1939TIP3    H227377   2.848   5.691   5.769  0.6252  1.0326  0.2014
 1940TIP3   OH227378   6.942   3.330   7.383 -0.5261  0.0494 -0.3641
 1940TIP3    H127379   6.889   3.337   7.304  1.2542 -1.8369 -1.8008
 1940TIP3    H227380   6.921   3.244   7.419 -0.0224  0.1633  0.2200
 1941TIP3   OH227381   1.317   5.624   6.435  0.2975  0.7488  0.4200
 1941TIP3    H127382   1.342   5.545   6.482 -0.1376 -0.0044 -0.5926
 1941TIP3    H227383   1.265   5.593   6.361  0.2770  1.9658 -0.0981
 1942TIP3   OH227384   6.930   3.819   1.363 -0.2707  0.3213  0.2799
 1942TIP3    H127385   6.868   3.804   1.435 -0.0183 -0.9210  0.2429
 1942TIP3    H227386   6.988   3.888   1.395 -1.3601  1.1501  0.5079
 1943TIP3   OH227387   5.665   3.665   6.602 -0.3367 -0.0018  0.3281
 1943TIP3    H127388   5.636   3.756   6.608  1.3317  0.4956  1.0386
 1943TIP3    H227389   5.715   3.650   6.682  0.6090 -1.1008 -0.4527
 1944TIP3   OH227390   4.213   5.780   1.246  0.6166 -0.3775  0.1238
 1944TIP3    H127391   4.155   5.850   1.215  0.2489 -0.3703  0.8120
 1944TIP3    H227392   4.292   5.825   1.277  0.7409 -0.3373 -0.2575
 1945TIP3   OH227393   4.053   5.937   1.041  0.5468  0.0609 -0.1786
 1945TIP3    H127394   4.060   5.885   0.961 -2.1297 -0.5288 -0.0972
 1945TIP3    H227395   4.040   6.027   1.010 -1.5270 -0.3048 -0.4932
 1946TIP3   OH227396   3.937   3.805   6.910 -0.2403  0.2279 -0.3972
 1946TIP3    H127397   3.901   3.821   6.997 -0.6178  2.4809 -0.9413
 1946TIP3    H227398   3.861   3.796   6.853 -0.0125  2.5471 -1.1207
 1947TIP3   OH227399   5.757   3.952   7.153  0.3570  0.4915  0.4197
 1947TIP3    H127400   5.666   3.935   7.176  0.1617  0.3213 -0.4624
 1947TIP3    H227401   5.754   4.031   7.098  0.6255 -0.0988 -0.4518
 1948TIP3   OH227402   1.408   3.183   6.850 -0.8738 -0.3068  0.1722
 1948TIP3    H127403   1.435   3.203   6.761 -0.7619 -1.5181 -0.0671
 1948TIP3    H227404   1.476   3.124   6.883 -1.5519 -0.8146  0.6553
 1949TIP3   OH227405   1.876   4.013   7.735  0.2836  0.4695  0.2557
 1949TIP3    H127406   1.899   4.073   7.664 -0.8809  1.5333  0.7564
 1949TIP3    H227407   1.827   3.943   7.691 -0.2594  1.0198 -0.0202
 1950TIP3   OH227408   3.587   5.638   7.874  0.7813  0.0112 -0.4504
 1950TIP3    H127409   3.606   5.731   7.868 -3.4887  0.9975 -0.0196
 1950TIP3    H227410   3.613   5.602   7.790  0.6427  1.9581 -1.3472
 1951TIP3   OH227411   4.841   0.198   1.391 -0.0987  0.6987  0.0376
 1951TIP3    H127412   4.810   0.169   1.477 -0.4469  0.4078 -0.1894
 1951TIP3    H227413   4.765   0.190   1.333  0.8709 -1.8110 -0.9445
 1952TIP3   OH227414   4.193   3.738   6.237 -0.2361 -0.4047  0.1378
 1952TIP3    H127415   4.257   3.800   6.202 -0.1175  0.3755  1.6611
 1952TIP3    H227416   4.164   3.687   6.161  2.8246 -1.3888 -0.4387
 1953TIP3   OH227417   4.959   5.722   7.019 -0.2017  0.0721 -0.2752
 1953TIP3    H127418   5.016   5.731   6.943 -0.1988 -1.8641 -0.5176
 1953TIP3    H227419   4.879   5.768   6.995  0.6093  1.3568 -0.5818
 1954TIP3   OH227420   4.511   5.777   6.155 -0.0438 -0.5250 -0.3873
 1954TIP3    H127421   4.468   5.727   6.086 -0.9593 -0.8406  0.3966
 1954TIP3    H227422   4.504   5.868   6.126 -0.2489 -0.6740 -0.8148
 1955TIP3   OH227423   1.188   2.292   6.181  0.1727 -0.6019  0.3798
 1955TIP3    H127424   1.269   2.340   6.166 -0.0852  0.0885  1.1334
 1955TIP3    H227425   1.160   2.264   6.094  0.6968  0.0145  0.0116
 1956TIP3   OH227426   0.854   3.489   7.267 -0.2800 -0.2337 -0.2454
 1956TIP3    H127427   0.772   3.460   7.229 -0.2207 -0.6490 -0.0572
 1956TIP3    H227428   0.835   3.501   7.360 -0.0105 -0.7563 -0.1266
 1957TIP3   OH227429   2.667   4.619   2.031 -0.2687  0.1118  0.1002
 1957TIP3    H127430   2.686   4.690   1.970 -1.4031  0.3642  0.0268
 1957TIP3    H227431   2.726   4.635   2.104  0.4009  0.3831 -0.4921
 1958TIP3   OH227432   4.058   2.895   0.812 -0.2922  0.3269 -0.3865
 1958TIP3    H127433   4.080   2.817   0.761 -0.7579  0.3803 -0.6711
 1958TIP3    H227434   3.978   2.871   0.859  0.1125  0.2882  0.3034
 1959TIP3   OH227435   1.346   2.602   7.311  0.5787 -0.3100  0.4365
 1959TIP3    H127436   1.332   2.539   7.382 -0.4608 -2.9251 -1.9688
 1959TIP3    H227437   1.267   2.598   7.258  1.4366  1.3479 -1.0532
 1960TIP3   OH227438   4.438   5.220   5.950 -0.9554 -0.1956  0.0592
 1960TIP3    H127439   4.472   5.159   5.884  0.7388  0.1529  0.5616
 1960TIP3    H227440   4.348   5.238   5.923 -0.5223 -0.6109 -1.7470
 1961TIP3   OH227441   4.958   1.607   0.429 -0.6513  0.3319 -0.0568
 1961TIP3    H127442   4.959   1.524   0.476  0.1095 -0.0649 -0.7655
 1961TIP3    H227443   5.046   1.614   0.390 -1.2716  0.6347 -1.4332
 1962TIP3   OH227444   2.523   2.556   6.237 -0.0597  0.2219  0.3272
 1962TIP3    H127445   2.503   2.517   6.323  1.4388  0.1125  0.6432
 1962TIP3    H227446   2.615   2.580   6.243  0.5698 -1.5289 -1.9204
 1963TIP3   OH227447   3.830   5.251   7.912  0.0140  0.0992 -0.0044
 1963TIP3    H127448   3.735   5.250   7.927  0.0217 -0.7134 -0.0146
 1963TIP3    H227449   3.861   5.167   7.945  0.5610 -0.1546 -1.1461
 1964TIP3   OH227450   0.923   0.120   6.036 -0.0341  0.4548 -0.4684
 1964TIP3    H127451   0.903   0.032   6.004  0.9598  0.6427 -1.6682
 1964TIP3    H227452   1.003   0.145   5.989 -0.4956  2.1266 -0.4009
 1965TIP3   OH227453   2.394   3.085   7.792 -0.1629  0.4381 -0.1102
 1965TIP3    H127454   2.477   3.038   7.798 -0.4891 -0.5231 -2.6704
 1965TIP3    H227455   2.402   3.155   7.857  2.9476  0.8187 -0.8129
 1966TIP3   OH227456   3.851   3.505   5.803  0.1694  0.2838 -0.1711
 1966TIP3    H127457   3.840   3.442   5.732  1.7090 -1.4684  1.1076
 1966TIP3    H227458   3.929   3.555   5.779  1.7410 -1.4947  1.1101
 1967TIP3   OH227459   5.305   2.068   1.959 -0.4182 -0.0210 -1.2196
 1967TIP3    H127460   5.263   2.152   1.978  0.2051 -0.1936  1.0510
 1967TIP3    H227461   5.266   2.007   2.021 -0.0801 -1.1738 -2.1258
 1968TIP3   OH227462   2.754   4.287   7.076  0.5988  0.5658  0.0953
 1968TIP3    H127463   2.665   4.300   7.108  0.5619  1.2749 -0.2975
 1968TIP3    H227464   2.806   4.275   7.156  0.5594  2.6629  0.4463
 1969TIP3   OH227465   2.980   6.589   7.438  0.0686 -0.5376 -0.2100
 1969TIP3    H127466   3.026   6.564   7.358 -1.4323 -0.8516 -0.9912
 1969TIP3    H227467   3.014   6.675   7.459 -0.6189  0.2173 -2.0535
 1970TIP3   OH227468   5.634   3.099   6.412  0.1708 -0.4569 -0.6190
 1970TIP3    H127469   5.714   3.065   6.452  0.2702  1.7545  1.1906
 1970TIP3    H227470   5.564   3.067   6.468  0.2242  1.7445  0.7703
 1971TIP3   OH227471   0.113   2.644   7.935 -0.1243  0.0390 -0.9827
 1971TIP3    H127472   0.150   2.675   7.853 -0.7455  1.9106 -0.5707
 1971TIP3    H227473   0.181   2.661   8.000 -0.4601  0.5097 -0.7558
 1972TIP3   OH227474   6.069   5.954   6.507  0.0180  0.4948  0.1538
 1972TIP3    H127475   6.048   5.906   6.587  0.3398  0.3827  0.1728
 1972TIP3    H227476   6.065   6.046   6.533 -1.4096  0.4989 -0.0903
 1973TIP3   OH227477   0.593   1.636   7.185  0.0422  0.1262 -0.5950
 1973TIP3    H127478   0.573   1.550   7.148 -0.1355  0.8278 -2.1724
 1973TIP3    H227479   0.686   1.633   7.203  0.2969  0.0227 -1.8478
 1974TIP3   OH227480   2.529   4.373   7.280 -0.1555  0.1715 -0.0670
 1974TIP3    H127481   2.464   4.381   7.349  1.4124  2.6448  1.1991
 1974TIP3    H227482   2.530   4.460   7.238  3.1890  0.5938  0.7688
 1975TIP3   OH227483   0.926   6.354   7.582  0.2324 -0.8994 -0.6784
 1975TIP3    H127484   0.917   6.399   7.498  0.8156 -0.7220 -0.6464
 1975TIP3    H227485   0.843   6.372   7.627  1.1362  1.6274  0.0480
 1976TIP3   OH227486   0.382   5.146   1.059  0.3930  0.3738 -0.4513
 1976TIP3    H127487   0.288   5.130   1.050  0.1281  0.8187  1.2742
 1976TIP3    H227488   0.416   5.141   0.969 -1.2192 -0.0818 -1.0607
 1977TIP3   OH227489   2.426   2.643   6.604 -0.1035  0.2764 -0.1530
 1977TIP3    H127490   2.344   2.624   6.558 -1.4613  1.4162  1.7357
 1977TIP3    H227491   2.453   2.728   6.571  0.1090  0.0871 -0.4709
 1978TIP3   OH227492   3.203   5.963   1.394  0.0357 -0.3951 -0.3107
 1978TIP3    H127493   3.242   5.893   1.447 -0.5160 -0.1066  0.4938
 1978TIP3    H227494   3.152   6.015   1.457 -1.2356 -0.4794 -1.2490
 1979TIP3   OH227495   3.177   6.216   0.542  0.1751 -0.2248  0.0332
 1979TIP3    H127496   3.254   6.256   0.582 -0.1155  0.5617 -0.1856
 1979TIP3    H227497   3.203   6.197   0.452 -0.2023  0.9929 -0.3500
 1980TIP3   OH227498   3.836   6.753   6.169  0.3405 -0.7880 -0.3789
 1980TIP3    H127499   3.849   6.846   6.152 -0.0304 -1.0589 -2.3104
 1980TIP3    H227500   3.755   6.731   6.123  1.0009 -2.2844 -0.8735
 1981TIP3   OH227501   0.263   5.448   6.183  0.2458 -0.2034 -0.0825
 1981TIP3    H127502   0.172   5.446   6.212  0.0027  0.2230 -0.8139
 1981TIP3    H227503   0.288   5.356   6.178 -0.0420 -0.3114  0.4533
 1982TIP3   OH227504   3.023   6.774   6.864 -0.2164  0.3345 -0.3416
 1982TIP3    H127505   3.035   6.788   6.958 -0.6668 -0.1080 -0.2196
 1982TIP3    H227506   3.100   6.815   6.824 -0.7735  1.8781  0.1097
 1983TIP3   OH227507   2.579   1.338   1.100  0.1815  0.2402 -0.4268
 1983TIP3    H127508   2.615   1.282   1.032  1.3631 -0.3948  0.6905
 1983TIP3    H227509   2.656   1.373   1.145 -0.5855  0.4133  0.7733
 1984TIP3   OH227510   0.546   4.699   6.621 -0.6367  0.1956 -0.3963
 1984TIP3    H127511   0.494   4.750   6.559  0.5467 -0.2511 -1.7933
 1984TIP3    H227512   0.519   4.608   6.605 -1.3366  0.1982  0.7299
 1985TIP3   OH227513   4.747   1.064   6.549 -0.5910  0.4106 -0.4631
 1985TIP3    H127514   4.697   0.994   6.506  0.8246 -0.5522 -0.5712
 1985TIP3    H227515   4.831   1.063   6.505  0.0826  0.9503  0.7946
 1986TIP3   OH227516   3.732   3.840   5.834 -0.0574  0.0565 -0.4554
 1986TIP3    H127517   3.822   3.855   5.804 -0.4073 -0.5501 -1.8282
 1986TIP3    H227518   3.707   3.757   5.795 -1.7363  0.9315 -1.2689
 1987TIP3   OH227519   6.171   3.547   6.112 -0.2923 -0.1994  0.7895
 1987TIP3    H127520   6.209   3.460   6.103 -0.5400 -0.1704 -0.5981
 1987TIP3    H227521   6.176   3.585   6.024 -0.4139  1.0912  1.3298
 1988TIP3   OH227522   0.619   1.853   7.381 -0.0801 -0.1415 -0.3715
 1988TIP3    H127523   0.619   1.796   7.458  0.3600  0.1635 -0.1477
 1988TIP3    H227524   0.608   1.793   7.307  0.5267 -0.5330 -0.1492
 1989TIP3   OH227525   4.991   2.802   7.541  0.4007 -0.0638  0.3295
 1989TIP3    H127526   5.024   2.892   7.538 -0.6265  0.3342  0.7834
 1989TIP3    H227527   5.051   2.757   7.601 -0.4243  0.9026  1.9234
 1990TIP3   OH227528   0.149   5.855   5.856 -0.3591 -0.5307 -0.5187
 1990TIP3    H127529   0.180   5.929   5.908 -0.6028 -0.6200 -0.2467
 1990TIP3    H227530   0.184   5.871   5.768 -2.6761  1.3563 -1.1519
 1991TIP3   OH227531   5.143   5.892   7.147  0.3677  0.4847 -0.3615
 1991TIP3    H127532   5.135   5.987   7.136 -0.8271  0.3914 -0.3246
 1991TIP3    H227533   5.118   5.856   7.062  0.8685  0.2053 -0.3899
 1992TIP3   OH227534   3.733   6.093   6.804  0.1724 -0.1201  1.0108
 1992TIP3    H127535   3.701   6.004   6.785 -0.3678  0.2211  0.3076
 1992TIP3    H227536   3.714   6.142   6.724 -1.3183  1.1248  2.1087
 1993TIP3   OH227537   5.350   4.051   6.564  0.2250  0.1877 -0.0568
 1993TIP3    H127538   5.315   4.065   6.652  2.0824 -1.0460  0.9078
 1993TIP3    H227539   5.444   4.039   6.577  0.5064 -0.0767 -2.2026
 1994TIP3   OH227540   6.200   3.354   0.526 -0.1805 -0.2112 -0.4634
 1994TIP3    H127541   6.165   3.403   0.451  0.1693  0.2261 -0.3372
 1994TIP3    H227542   6.291   3.383   0.534 -0.3532  0.0978  0.4280
 1995TIP3   OH227543   2.118   3.729   7.084  0.1449 -0.2399  0.3633
 1995TIP3    H127544   2.089   3.814   7.050  0.1795  0.1325  1.2433
 1995TIP3    H227545   2.036   3.684   7.108  0.2357  0.5691  2.2784
 1996TIP3   OH227546   3.133   3.818   7.436  0.4748 -0.7316 -0.1664
 1996TIP3    H127547   3.128   3.757   7.362 -1.1314  0.8582 -1.4375
 1996TIP3    H227548   3.046   3.859   7.439  0.1010 -1.6430  3.4044
 1997TIP3   OH227549   2.018   5.411   6.590 -0.0612  0.1649 -0.0792
 1997TIP3    H127550   2.022   5.495   6.544 -1.7427 -0.1247 -0.7865
 1997TIP3    H227551   1.925   5.388   6.590 -0.2416  0.4835  4.1034
 1998TIP3   OH227552   1.156   3.574   7.554  0.3263 -0.4431 -0.1455
 1998TIP3    H127553   1.157   3.486   7.591 -1.9317 -0.0279  0.9281
 1998TIP3    H227554   1.170   3.632   7.629  0.9881  0.1796 -0.7323
 1999TIP3   OH227555   1.347   5.559   0.568 -0.0298  0.3650 -0.5687
 1999TIP3    H127556   1.339   5.593   0.479  0.9997  1.9212 -0.0867
 1999TIP3    H227557   1.326   5.466   0.560 -3.1589  1.1017 -1.9019
 2000TIP3   OH227558   5.204   2.825   1.538  0.3705 -0.4233  0.2245
 2000TIP3    H127559   5.139   2.896   1.536  2.2942  1.3864  0.3431
 2000TIP3    H227560   5.172   2.762   1.474 -0.8899  1.0151 -0.6118
 2001TIP3   OH227561   5.362   2.987   6.815 -0.1166  0.7218  0.1696
 2001TIP3    H127562   5.358   3.012   6.908 -0.4727  0.6308  0.1772
 2001TIP3    H227563   5.297   2.918   6.805  0.1964  0.4569 -0.0659
 2002TIP3   OH227564   3.523   5.257   7.989  0.3198 -0.4443  0.0610
 2002TIP3    H127565   3.478   5.178   8.017  0.1716 -1.0232 -1.7640
 2002TIP3    H227566   3.453   5.320   7.972  0.2989 -0.6436 -0.6314
 2003TIP3   OH227567   6.022   3.486   1.469  0.6552 -0.3360 -0.2932
 2003TIP3    H127568   6.111   3.466   1.439  1.4028  1.3883  0.6606
 2003TIP3    H227569   6.021   3.458   1.560 -0.0761 -1.1946 -0.5678
 2004TIP3   OH227570   2.470   3.448   0.782  0.0707  0.2329 -0.6131
 2004TIP3    H127571   2.511   3.513   0.724  0.4738  0.4650 -0.0775
 2004TIP3    H227572   2.531   3.441   0.856 -0.8040  0.4889  0.1390
 2005TIP3   OH227573   1.186   2.113   0.003  0.3112 -0.2766  0.4351
 2005TIP3    H127574   1.183   2.018   0.006  0.1903 -0.2890  0.0188
 2005TIP3    H227575   1.194   2.133  -0.090  0.0280  0.1321  0.5002
 2006TIP3   OH227576   1.011   3.956   5.969  0.4041 -0.2564 -0.0959
 2006TIP3    H127577   0.950   4.030   5.967  1.2094  0.4017 -0.7952
 2006TIP3    H227578   1.093   3.992   5.936  1.0212 -1.2752  0.3041
 2007TIP3   OH227579   3.035   1.485   6.000 -0.1719 -0.4770 -0.5862
 2007TIP3    H127580   2.978   1.561   6.009 -0.0890 -0.4883  0.0918
 2007TIP3    H227581   3.083   1.481   6.083  0.7730 -0.4953 -1.1232
 2008TIP3   OH227582   1.844   0.289   0.325 -0.6175 -0.5142 -0.2152
 2008TIP3    H127583   1.800   0.293   0.410  0.9705 -2.3559  0.7366
 2008TIP3    H227584   1.910   0.358   0.328 -1.1376 -0.0124 -0.2958
 2009TIP3   OH227585   1.874   3.742   0.802  0.4708  0.7927  0.1617
 2009TIP3    H127586   1.848   3.752   0.711 -2.5763 -1.1230  0.7652
 2009TIP3    H227587   1.947   3.680   0.800 -1.5905 -1.6662 -0.7474
 2010TIP3   OH227588   2.808   3.340   7.037  0.3088  0.5911 -0.7114
 2010TIP3    H127589   2.797   3.381   7.122 -1.2436  0.3800 -0.7884
 2010TIP3    H227590   2.723   3.299   7.019  1.2626 -1.1278 -1.4218
 2011TIP3   OH227591   2.503   6.485   7.894  0.0725  0.2217  0.4145
 2011TIP3    H127592   2.577   6.448   7.943  0.3484  0.1004 -0.0858
 2011TIP3    H227593   2.467   6.410   7.845 -1.2896 -0.0322  1.7656
 2012TIP3   OH227594   5.308   2.045   7.582  0.3147 -0.4112  0.2780
 2012TIP3    H127595   5.372   2.016   7.516  0.6675 -0.4961  0.6590
 2012TIP3    H227596   5.229   1.994   7.562 -0.1256  0.8009 -1.1453
 2013TIP3   OH227597   2.989   3.001   0.163  0.5861 -0.0433  0.6932
 2013TIP3    H127598   2.951   3.088   0.161  0.3428 -0.1600  0.3657
 2013TIP3    H227599   2.933   2.952   0.224  1.0873  0.2010  1.3572
 2014TIP3   OH227600   0.075   1.227   0.133  1.0717 -0.0707 -0.1857
 2014TIP3    H127601   0.066   1.148   0.186 -1.3053 -1.3213 -2.3565
 2014TIP3    H227602   0.111   1.196   0.050 -0.2479  1.0343 -1.1941
 2015TIP3   OH227603   1.166   5.014   1.257  0.3149  0.1015 -0.3391
 2015TIP3    H127604   1.252   5.045   1.284 -0.6442  1.8080  0.8517
 2015TIP3    H227605   1.183   4.960   1.180  2.1566  2.9486 -2.0106
 2016TIP3   OH227606   1.738   2.365   7.209 -0.2603 -0.3502 -0.3572
 2016TIP3    H127607   1.822   2.384   7.168 -1.1293 -0.6356 -2.3562
 2016TIP3    H227608   1.757   2.297   7.274  0.8535 -1.3970 -1.7373
 2017TIP3   OH227609   7.004   5.181   0.819 -0.3112 -0.9610 -0.1758
 2017TIP3    H127610   6.962   5.264   0.795  1.7749  0.7189  1.7957
 2017TIP3    H227611   6.986   5.172   0.913  2.3399 -1.0166  0.3484
 2018TIP3   OH227612   2.819   2.391   7.144  0.0177 -0.6276  0.2866
 2018TIP3    H127613   2.855   2.354   7.063 -0.2250 -0.6440  0.1867
 2018TIP3    H227614   2.790   2.314   7.194 -1.2896 -0.5360 -0.2945
 2019TIP3   OH227615   1.537   4.858   7.494 -0.3638  0.4234 -0.1726
 2019TIP3    H127616   1.575   4.854   7.581 -1.8360  0.6754  0.5040
 2019TIP3    H227617   1.444   4.878   7.509 -0.8834 -0.6676 -1.7215
 2020TIP3   OH227618   0.839   3.983   1.659 -0.5660  0.6429 -0.1227
 2020TIP3    H127619   0.775   4.033   1.709 -0.0604 -0.0356  1.2484
 2020TIP3    H227620   0.923   4.006   1.698 -0.1395  0.2268 -0.7786
 2021TIP3   OH227621   2.645   5.600   0.359  0.3177 -0.0185 -0.2307
 2021TIP3    H127622   2.630   5.554   0.441  0.8554 -1.2896 -0.8342
 2021TIP3    H227623   2.570   5.575   0.304 -0.1287  0.9638 -0.0758
 2022TIP3   OH227624   1.396   6.846   0.617 -0.7427  0.0298 -0.0630
 2022TIP3    H127625   1.456   6.795   0.562  1.1210  0.7411  1.2638
 2022TIP3    H227626   1.342   6.781   0.660 -1.0625 -0.6210 -1.4130
 2023TIP3   OH227627   2.908   5.745   1.158  0.5765 -0.2870  0.5389
 2023TIP3    H127628   2.827   5.769   1.113  0.1008 -1.2020  0.8808
 2023TIP3    H227629   2.965   5.821   1.149  0.2952 -0.2736 -1.1590
 2024TIP3   OH227630   2.333   4.421   7.497 -0.1246  0.0775  0.8171
 2024TIP3    H127631   2.383   4.463   7.567  0.5649 -0.3641  0.5952
 2024TIP3    H227632   2.335   4.328   7.520  2.0882 -0.3713 -1.0016
 2025TIP3   OH227633   5.533   4.003   0.979 -0.4511 -0.0657  0.2026
 2025TIP3    H127634   5.592   4.027   1.051 -1.7814 -0.4387  1.4355
 2025TIP3    H227635   5.475   3.938   1.016 -0.0384 -1.5954 -1.7435
 2026TIP3   OH227636   4.165   6.305   8.025 -0.5944  0.0265  0.3398
 2026TIP3    H127637   4.202   6.218   8.039 -1.4710 -0.4031 -0.0355
 2026TIP3    H227638   4.233   6.365   8.057  0.8769 -0.7266 -1.2810
 2027TIP3   OH227639   3.065   6.234   7.211  0.2077  0.9496  0.0997
 2027TIP3    H127640   3.067   6.323   7.244  0.1441  0.9179  0.1877
 2027TIP3    H227641   3.031   6.241   7.122  4.3860  1.5748 -1.5818
 2028TIP3   OH227642   2.408   6.250   7.034 -0.2134 -0.1129  0.1227
 2028TIP3    H127643   2.339   6.311   7.057 -1.0418 -1.2375  0.6237
 2028TIP3    H227644   2.419   6.194   7.111  1.0097 -0.1755 -0.0764
 2029TIP3   OH227645   4.446   0.027   0.228 -0.1145 -0.2827 -0.4623
 2029TIP3    H127646   4.508   0.065   0.165 -0.9073  2.5590  0.3881
 2029TIP3    H227647   4.501  -0.026   0.286  1.1420  0.0202 -1.3333
 2030TIP3   OH227648   3.540   4.306   7.688 -0.5760 -0.0494  0.4419
 2030TIP3    H127649   3.620   4.318   7.637 -1.5583  0.4069 -1.0129
 2030TIP3    H227650   3.527   4.211   7.691 -1.2124 -0.0354 -1.2954
 2031TIP3   OH227651   2.687   3.855   5.985 -0.5625 -0.2878 -0.1240
 2031TIP3    H127652   2.763   3.885   5.935 -2.0463  1.4710 -1.4219
 2031TIP3    H227653   2.617   3.916   5.961 -1.7796 -0.4520  2.8385
 2032TIP3   OH227654   3.702   0.347   1.798  0.0958 -0.3170  0.1984
 2032TIP3    H127655   3.642   0.371   1.869  1.0888  0.5207  0.7630
 2032TIP3    H227656   3.702   0.251   1.798 -0.5685 -0.3219  0.7690
 2033TIP3   OH227657   4.615   2.572   6.999  0.2141 -0.0325  0.3433
 2033TIP3    H127658   4.595   2.549   6.908  1.6614  1.8136 -0.4870
 2033TIP3    H227659   4.622   2.668   6.999  2.1362 -0.1316  1.9809
 2034TIP3   OH227660   3.251   7.010   7.260 -0.3021  0.0241 -0.2331
 2034TIP3    H127661   3.257   6.938   7.324  1.6891 -0.4906 -0.9660
 2034TIP3    H227662   3.218   7.084   7.311  0.9822 -0.4566  1.3466
 2035TIP3   OH227663   2.941   5.738   7.128 -0.1868  0.1279  0.3743
 2035TIP3    H127664   2.995   5.812   7.099 -0.9797  0.5193 -0.1259
 2035TIP3    H227665   2.851   5.763   7.104 -0.5433 -0.6963  0.8249
 2036TIP3   OH227666   2.345   6.802   0.195 -0.5619 -0.3070 -0.3250
 2036TIP3    H127667   2.303   6.871   0.143  0.7485  0.3431 -0.5322
 2036TIP3    H227668   2.394   6.750   0.132  0.0513 -0.2420  0.0912
 2037TIP3   OH227669   3.893   5.007   6.988 -0.0221  0.4088 -0.4446
 2037TIP3    H127670   3.826   4.988   6.923 -1.2264  0.8356  0.6334
 2037TIP3    H227671   3.911   4.922   7.029 -1.0828  0.5377  0.3341
 2038TIP3   OH227672   3.499   5.559   6.155 -0.0936  0.0978 -0.2486
 2038TIP3    H127673   3.404   5.570   6.155 -0.1843 -0.6040  0.4999
 2038TIP3    H227674   3.514   5.477   6.108  0.0740 -0.2912  0.4816
 2039TIP3   OH227675   4.160   4.135   1.006 -0.0407 -0.1698 -0.0242
 2039TIP3    H127676   4.121   4.207   1.056  0.8697 -0.1720  0.7005
 2039TIP3    H227677   4.253   4.138   1.028  0.0958 -1.2170 -0.4320
 2040TIP3   OH227678   4.386   5.715   5.904 -0.1360 -0.2098 -0.1319
 2040TIP3    H127679   4.352   5.642   5.956 -1.0005  0.9723  1.0063
 2040TIP3    H227680   4.460   5.678   5.855  0.9000 -1.2969  2.1781
 2041TIP3   OH227681   2.923   4.660   1.273 -0.0751 -0.3540  0.6990
 2041TIP3    H127682   2.887   4.734   1.322 -0.8412  0.1768 -0.6395
 2041TIP3    H227683   3.011   4.648   1.310 -0.6044  0.0725  2.1358
 2042TIP3   OH227684   0.135   2.574   6.880 -0.0098 -0.2799  0.5926
 2042TIP3    H127685   0.205   2.624   6.839  0.8860 -1.3308  0.8106
 2042TIP3    H227686   0.107   2.628   6.954  1.1341 -0.2246  0.9929
 2043TIP3   OH227687   1.186   3.694   1.006 -0.4206 -0.3071  0.2859
 2043TIP3    H127688   1.241   3.628   0.964  0.3780 -0.7757  2.0076
 2043TIP3    H227689   1.242   3.771   1.013 -0.3933 -0.3794  0.8903
 2044TIP3   OH227690   2.696   5.943   7.207  0.0854 -0.5210  0.1462
 2044TIP3    H127691   2.716   6.031   7.177  1.1729 -0.2251  1.6845
 2044TIP3    H227692   2.672   5.953   7.300 -4.6017 -1.2199 -0.8320
 2045TIP3   OH227693   3.889   3.400   0.623  0.3628 -0.3192 -0.5449
 2045TIP3    H127694   3.932   3.349   0.692  1.0761 -1.4789 -1.8334
 2045TIP3    H227695   3.839   3.335   0.573 -1.0628  0.6836 -0.4505
 2046TIP3   OH227696   4.908   7.114   6.800  0.3249  0.0665 -0.5779
 2046TIP3    H127697   4.916   7.122   6.705 -0.2046  1.2661 -0.5283
 2046TIP3    H227698   4.824   7.155   6.821  0.6130  0.1570  0.4523
 2047TIP3   OH227699   3.201   0.040   1.756 -0.7539 -0.2843 -0.5147
 2047TIP3    H127700   3.292   0.054   1.729 -0.4962 -0.9934 -0.0248
 2047TIP3    H227701   3.197  -0.053   1.777 -1.4362 -0.1198  0.0811
 2048TIP3   OH227702   0.710   3.432   6.551  0.2873  0.2960  0.4645
 2048TIP3    H127703   0.762   3.395   6.480 -1.2880  1.9098 -1.5820
 2048TIP3    H227704   0.661   3.358   6.586 -1.0830 -0.0450 -2.0627
 2049TIP3   OH227705   0.863   5.778   6.965  0.3497  0.4661 -0.3298
 2049TIP3    H127706   0.851   5.835   7.041 -0.9318 -0.9944  0.6083
 2049TIP3    H227707   0.955   5.753   6.969 -0.0011 -0.6859  1.5843
 2050TIP3   OH227708   0.818   0.260   8.023 -0.3351 -0.1906 -0.3861
 2050TIP3    H127709   0.825   0.342   7.974  0.6337 -0.0716 -0.0463
 2050TIP3    H227710   0.813   0.193   7.956 -3.2583  0.2938 -0.7061
 2051TIP3   OH227711   2.601   3.777   2.234 -0.9654 -0.1294 -0.6573
 2051TIP3    H127712   2.521   3.725   2.225 -0.8240 -0.4024 -0.3364
 2051TIP3    H227713   2.587   3.828   2.314 -0.1808 -1.3137  0.2572
 2052TIP3   OH227714   1.493   1.963   6.186 -0.2914 -0.2169  0.2734
 2052TIP3    H127715   1.526   1.984   6.273 -2.2414  0.5306  0.8530
 2052TIP3    H227716   1.515   1.871   6.174  0.4730 -0.1859  1.3192
 2053TIP3   OH227717   5.644   1.194   0.118  0.6876 -0.5671  0.6915
 2053TIP3    H127718   5.712   1.256   0.090 -0.6299  1.2981  1.5190
 2053TIP3    H227719   5.578   1.200   0.049  0.8123 -1.4839  0.4933
 2054TIP3   OH227720   5.177   4.669   7.621 -0.0805 -0.5187 -0.5959
 2054TIP3    H127721   5.210   4.742   7.569  1.6799  0.4044  1.7586
 2054TIP3    H227722   5.109   4.707   7.676 -0.3949 -1.0202 -0.6331
 2055TIP3   OH227723   6.253   3.176   7.758 -0.0958 -0.4292  0.4341
 2055TIP3    H127724   6.317   3.117   7.718 -0.3088  0.0085 -0.5804
 2055TIP3    H227725   6.184   3.118   7.791 -1.4254 -0.6653 -2.5764
 2056TIP3   OH227726   3.071   2.519   0.091  0.2315 -0.0952  0.1055
 2056TIP3    H127727   3.129   2.488   0.021 -1.0397 -0.6665 -0.7175
 2056TIP3    H227728   3.124   2.581   0.140  1.4870 -0.4803 -0.7397
 2057TIP3   OH227729   0.286   4.017   6.804  0.1929 -0.0953  0.5454
 2057TIP3    H127730   0.194   4.030   6.826  0.4167  1.5607  0.5701
 2057TIP3    H227731   0.304   3.926   6.829 -1.3967 -0.3978  0.6327
 2058TIP3   OH227732   1.855   3.228   1.516 -0.2613  0.7816 -0.4245
 2058TIP3    H127733   1.762   3.247   1.520 -0.0734  1.2814  2.3061
 2058TIP3    H227734   1.896   3.312   1.494 -0.3004  1.0169  0.4023
 2059TIP3   OH227735   6.238   1.113   6.509 -0.2887  0.4341  0.1641
 2059TIP3    H127736   6.224   1.072   6.424 -1.3453  2.2627 -0.5800
 2059TIP3    H227737   6.259   1.041   6.568 -2.3313 -1.1897 -1.0413
 2060TIP3   OH227738   2.237   5.803   6.694  0.1706 -0.6739  0.2488
 2060TIP3    H127739   2.161   5.792   6.637 -0.2575  1.5489  0.3431
 2060TIP3    H227740   2.306   5.835   6.637 -0.0483  0.8529  0.8197
 2061TIP3   OH227741   6.797   3.403   0.045  0.2940  0.8354 -0.2527
 2061TIP3    H127742   6.840   3.323   0.075 -0.1830 -0.4033 -2.7843
 2061TIP3    H227743   6.849   3.474   0.084  1.4016 -0.6643  1.0698
 2062TIP3   OH227744   2.666   5.672   7.264 -1.0070  0.0079  0.3311
 2062TIP3    H127745   2.572   5.657   7.253 -1.1615 -1.0226  2.6456
 2062TIP3    H227746   2.678   5.766   7.250 -2.6663  0.4485  1.6590
 2063TIP3   OH227747   5.706   6.826   7.355  0.2013 -0.0228 -0.1103
 2063TIP3    H127748   5.638   6.821   7.422 -1.4359  1.4819 -1.6059
 2063TIP3    H227749   5.740   6.737   7.349  0.0559 -0.2981  2.3574
 2064TIP3   OH227750   4.410   1.388   0.875 -0.6042  0.3158 -0.4297
 2064TIP3    H127751   4.340   1.450   0.897 -1.0694 -0.5886  0.7022
 2064TIP3    H227752   4.374   1.337   0.803 -1.8088 -1.2431  1.2137
 2065TIP3   OH227753   3.308   4.512   6.672 -0.9351  0.1619  0.6098
 2065TIP3    H127754   3.305   4.584   6.736  0.5435  1.0793 -0.3104
 2065TIP3    H227755   3.388   4.464   6.694 -1.0543 -0.2274  0.1888
 2066TIP3   OH227756   0.656   3.172   1.001  0.0393  0.0279  0.5342
 2066TIP3    H127757   0.683   3.201   0.914  1.4243 -0.8702  0.6536
 2066TIP3    H227758   0.652   3.252   1.053 -0.8773  0.5845 -0.3515
 2067TIP3   OH227759   0.607   2.334   7.617 -0.4037  0.2173 -0.8530
 2067TIP3    H127760   0.553   2.355   7.541 -0.8946  0.8510 -0.3354
 2067TIP3    H227761   0.650   2.252   7.594 -1.1735 -0.0135 -1.4980
 2068TIP3   OH227762   0.980   5.755   6.388 -0.4872  0.0638 -0.1938
 2068TIP3    H127763   1.027   5.706   6.320  4.0324  1.2455  1.8432
 2068TIP3    H227764   0.976   5.695   6.462 -2.1886  0.0183 -0.3160
 2069TIP3   OH227765   0.954   7.027   7.027  0.8602  0.1125 -0.0887
 2069TIP3    H127766   0.887   7.059   6.968 -1.1049  1.6198  2.8138
 2069TIP3    H227767   1.015   7.100   7.036 -0.6160  1.1393  2.1877
 2070TIP3   OH227768   5.604   2.865   7.917  0.0813 -0.2356 -0.3287
 2070TIP3    H127769   5.660   2.863   7.995 -0.0547 -1.0538 -0.2465
 2070TIP3    H227770   5.562   2.779   7.916 -2.3436  0.8870  0.4450
 2071TIP3   OH227771   2.847   3.907   7.688 -0.0736 -0.4517 -0.0451
 2071TIP3    H127772   2.914   3.954   7.736 -0.6632  0.3606 -0.0020
 2071TIP3    H227773   2.784   3.975   7.661  0.0960 -0.9180 -1.6991
 2072TIP3   OH227774   2.947   4.564   1.899  0.2531 -0.7190 -0.1086
 2072TIP3    H127775   2.867   4.516   1.877 -1.2644  1.0126  1.4996
 2072TIP3    H227776   2.970   4.534   1.986 -0.9160  1.6748  1.0631
 2073TIP3   OH227777   3.480   3.804   6.864 -0.2957 -0.4843  0.7191
 2073TIP3    H127778   3.553   3.853   6.826 -1.7756  1.2877  0.1020
 2073TIP3    H227779   3.516   3.717   6.880  1.5019 -0.1031 -1.0294
 2074TIP3   OH227780   3.036   0.645   7.906 -0.5611  0.4782 -0.2746
 2074TIP3    H127781   3.009   0.554   7.897 -0.1992  0.4115 -0.7060
 2074TIP3    H227782   2.966   0.695   7.862 -0.7186  0.4042 -0.1090
 2075TIP3   OH227783   3.210   2.763   5.799  0.2618  0.3650  0.3476
 2075TIP3    H127784   3.140   2.721   5.850 -0.3447  1.4439  0.4160
 2075TIP3    H227785   3.281   2.775   5.862  0.3862 -0.4167  0.3657
 2076TIP3   OH227786   3.424   0.129   0.155 -0.6676 -0.1268  0.8687
 2076TIP3    H127787   3.450   0.172   0.073 -1.0570  0.9973  1.3349
 2076TIP3    H227788   3.493   0.064   0.170 -1.5077 -1.5913 -1.2957
 2077TIP3   OH227789   2.194   2.588   6.458  0.4197  0.1489 -0.3801
 2077TIP3    H127790   2.179   2.524   6.388 -0.1162  0.9140 -0.9728
 2077TIP3    H227791   2.220   2.668   6.413 -0.8809  0.9336  0.2267
 2078TIP3   OH227792   2.083   6.210   6.822  0.1179 -0.2569  0.1496
 2078TIP3    H127793   2.132   6.128   6.822 -1.5132 -1.2577  1.0568
 2078TIP3    H227794   2.011   6.194   6.760  0.4258  0.8832 -0.5116
 2079TIP3   OH227795   4.561   4.899   6.678  0.2411 -0.0513 -0.5467
 2079TIP3    H127796   4.508   4.945   6.613 -1.1284 -3.0654 -1.6722
 2079TIP3    H227797   4.522   4.923   6.762 -0.2359  1.0900 -1.0817
 2080TIP3   OH227798   0.299   5.164   7.472  0.0607 -0.7656 -0.2613
 2080TIP3    H127799   0.316   5.198   7.385  0.3170  1.9183  0.7913
 2080TIP3    H227800   0.346   5.223   7.531 -0.5729 -2.1852  1.7352
 2081TIP3   OH227801   3.853   0.978   0.665 -0.2040  0.0852 -0.0257
 2081TIP3    H127802   3.783   0.925   0.703 -0.0068  0.7927  1.3501
 2081TIP3    H227803   3.851   1.060   0.714  3.5479 -1.0026  2.1258
 2082TIP3   OH227804   5.239   0.805   7.991 -0.5568 -0.2549 -0.2698
 2082TIP3    H127805   5.266   0.746   8.062  0.6898  0.0470 -0.4750
 2082TIP3    H227806   5.214   0.746   7.919 -1.1929 -0.5535  0.1947
 2083TIP3   OH227807   2.435   5.856   6.525 -0.6294 -0.6580 -0.4144
 2083TIP3    H127808   2.448   5.810   6.442  0.1628 -0.5988 -0.3295
 2083TIP3    H227809   2.486   5.936   6.516 -0.3297 -0.7746  0.2314
 2084TIP3   OH227810   4.955   5.488   7.461  0.1276 -0.3268 -0.2288
 2084TIP3    H127811   4.976   5.430   7.388 -0.5885 -1.7397  0.6728
 2084TIP3    H227812   4.864   5.467   7.483  0.4033 -0.0673  1.2074
 2085TIP3   OH227813   6.707   6.828   5.997 -0.5612  0.0407  0.3561
 2085TIP3    H127814   6.729   6.921   6.001 -0.8040  0.1183 -0.0495
 2085TIP3    H227815   6.792   6.784   5.988 -0.5290  0.3184 -0.8522
 2086TIP3   OH227816   4.857   7.084   0.259  0.0702  1.0819  0.1612
 2086TIP3    H127817   4.887   7.039   0.181  0.0847 -0.1116  0.8461
 2086TIP3    H227818   4.919   7.156   0.271  1.2540  0.0759  0.1972
 2087TIP3   OH227819   1.384   4.656   6.423 -0.4117 -0.3034 -0.1696
 2087TIP3    H127820   1.423   4.573   6.394  0.0928  0.0598 -0.5410
 2087TIP3    H227821   1.319   4.676   6.357 -0.4799 -0.3664 -0.1213
 2088TIP3   OH227822   2.049   6.789   0.006  0.4784 -0.5171 -0.1135
 2088TIP3    H127823   2.100   6.717  -0.031  0.6877  1.2459 -3.5201
 2088TIP3    H227824   1.959   6.769  -0.021  0.4232  0.0436 -0.3466
 2089TIP3   OH227825   1.788   2.087   6.923 -0.0322  0.4260  0.3333
 2089TIP3    H127826   1.841   2.157   6.884 -0.0856  0.1703 -0.1946
 2089TIP3    H227827   1.852   2.030   6.966  0.4358 -1.3521 -2.5416
 2090TIP3   OH227828   2.164   0.785   1.430  0.5463 -0.2048  0.6606
 2090TIP3    H127829   2.219   0.773   1.352  0.8245  1.9979  0.4926
 2090TIP3    H227830   2.074   0.778   1.396  0.6840 -2.3628  0.6917
 2091TIP3   OH227831   1.687   2.958   0.258  0.2297 -0.7223 -0.4916
 2091TIP3    H127832   1.733   2.943   0.176 -0.6211  0.9875 -1.3020
 2091TIP3    H227833   1.716   3.045   0.286  0.7947 -1.4375  1.2191
 2092TIP3   OH227834   4.878   4.818   6.109 -0.2574  0.6840  0.4836
 2092TIP3    H127835   4.935   4.753   6.067 -0.5884 -1.1746  2.7659
 2092TIP3    H227836   4.916   4.902   6.086  1.3815 -0.3859 -0.8870
 2093TIP3   OH227837   1.458   5.260   7.380 -0.0846  0.3132  0.3061
 2093TIP3    H127838   1.367   5.284   7.364  0.6362  3.0134 -0.0139
 2093TIP3    H227839   1.481   5.304   7.461  1.3940  1.0130 -0.4625
 2094TIP3   OH227840   1.264   3.511   6.538 -0.3132 -0.1306  0.6102
 2094TIP3    H127841   1.225   3.444   6.481 -0.4541  0.5583 -0.1157
 2094TIP3    H227842   1.251   3.477   6.626 -1.3332 -0.5696  0.3045
 2095TIP3   OH227843   5.048   5.078   6.640  0.8128 -0.4072  0.5357
 2095TIP3    H127844   5.056   5.134   6.563  0.5263 -0.1473  0.6955
 2095TIP3    H227845   4.986   5.010   6.615 -0.3541  0.4818  1.0116
 2096TIP3   OH227846   2.638   2.274   0.239  0.0361 -0.3321  0.1358
 2096TIP3    H127847   2.599   2.348   0.286  0.2476 -1.7060  2.5956
 2096TIP3    H227848   2.692   2.230   0.305 -1.6392 -3.8315 -0.6824
 2097TIP3   OH227849   5.638   3.994   6.562  0.4119 -0.3325 -0.6741
 2097TIP3    H127850   5.699   4.023   6.494 -0.1845  1.5583 -0.4341
 2097TIP3    H227851   5.693   3.986   6.641  0.7510 -0.7141 -0.9475
 2098TIP3   OH227852   1.222   4.674   1.352 -0.7649 -0.4513  0.5613
 2098TIP3    H127853   1.152   4.726   1.313 -0.3397  0.4849  1.0255
 2098TIP3    H227854   1.274   4.737   1.402 -0.3156 -1.3439  1.2410
 2099TIP3   OH227855   5.055   4.696   1.498  0.1590  0.1431 -0.2366
 2099TIP3    H127856   5.113   4.677   1.424  0.2247 -0.3740 -0.0527
 2099TIP3    H227857   5.084   4.638   1.568 -2.2822 -2.1319 -0.9979
 2100TIP3   OH227858   1.890   4.183   7.149 -0.1633 -0.3676 -0.5271
 2100TIP3    H127859   1.893   4.279   7.142 -0.8773 -0.3667 -0.8593
 2100TIP3    H227860   1.813   4.166   7.203 -0.0274 -0.7548 -0.4560
 2101TIP3   OH227861   5.465   4.061   1.298  0.0563 -0.3708  0.2035
 2101TIP3    H127862   5.494   4.151   1.307  0.6806 -0.4865 -0.5533
 2101TIP3    H227863   5.522   4.011   1.357  0.1045 -0.3426  0.1804
 2102TIP3   OH227864   0.014   1.584   7.068 -0.1525 -0.3733 -0.2693
 2102TIP3    H127865   0.080   1.515   7.079  1.5044  1.1796 -0.3189
 2102TIP3    H227866  -0.026   1.591   7.155  1.4998  0.3960  0.4640
 2103TIP3   OH227867   1.338   4.493   8.002 -0.2276 -0.0137 -0.3008
 2103TIP3    H127868   1.359   4.434   8.074  0.0800  0.7264  0.2191
 2103TIP3    H227869   1.247   4.518   8.017  0.0692  0.7362  0.2557
 2104TIP3   OH227870   3.263   0.156   7.374  0.2540 -0.3051  0.6594
 2104TIP3    H127871   3.310   0.233   7.343  1.2428 -0.9397  0.5385
 2104TIP3    H227872   3.180   0.189   7.406  0.2237  0.6614 -0.4165
 2105TIP3   OH227873   2.723   6.698   6.628 -0.1614  0.2748  0.0528
 2105TIP3    H127874   2.682   6.728   6.547 -1.6815 -3.1469 -0.5079
 2105TIP3    H227875   2.656   6.712   6.695 -1.1484 -2.3497 -0.3284
 2106TIP3   OH227876   4.219   5.234   0.956  0.7929 -0.3320 -0.0086
 2106TIP3    H127877   4.188   5.177   1.026 -2.0773  1.4695  0.2859
 2106TIP3    H227878   4.290   5.285   0.996  0.4360 -0.6210  1.0018
 2107TIP3   OH227879   5.131   5.896   8.004 -0.5401 -0.4609 -0.6389
 2107TIP3    H127880   5.135   5.899   8.100 -0.2522 -0.2178 -0.6569
 2107TIP3    H227881   5.058   5.838   7.984  0.6132 -2.0749 -0.2731
 2108TIP3   OH227882   2.633   5.861   1.612  0.0598  0.6249 -0.3570
 2108TIP3    H127883   2.668   5.801   1.677 -1.3314  0.7952  0.5708
 2108TIP3    H227884   2.709   5.910   1.581  1.1377 -1.2860 -0.8129
 2109TIP3   OH227885   1.209   5.338   7.232 -0.0402  0.3105 -0.0632
 2109TIP3    H127886   1.202   5.423   7.276  0.5357  0.2087  0.2305
 2109TIP3    H227887   1.124   5.326   7.189 -0.6763  0.3230  1.1720
 2110TIP3   OH227888   0.590   4.039   6.414  0.7005 -0.5059  0.1362
 2110TIP3    H127889   0.622   4.130   6.415  0.9240 -0.5913  1.3301
 2110TIP3    H227890   0.531   4.036   6.339 -1.3771  1.3455  1.6120
 2111TIP3   OH227891   1.411   4.242   0.437 -0.1852 -0.2057  0.1996
 2111TIP3    H127892   1.350   4.211   0.370  0.5649 -0.1566 -0.5200
 2111TIP3    H227893   1.413   4.172   0.502 -0.4148 -0.5569 -0.1708
 2112TIP3   OH227894   1.166   3.499   0.185 -0.4239 -0.1610  0.0895
 2112TIP3    H127895   1.134   3.545   0.262  0.5135 -0.0866  0.4375
 2112TIP3    H227896   1.174   3.408   0.212 -1.2913 -0.3561 -0.2943
 2113TIP3   OH227897   3.431   0.038   6.634 -0.5875  0.7217  0.5021
 2113TIP3    H127898   3.429  -0.058   6.642  0.2819  0.4383 -2.0283
 2113TIP3    H227899   3.340   0.065   6.645 -1.4824 -0.8189 -2.6386
 2114TIP3   OH227900   1.907   4.990   6.558 -0.0267  0.4539  0.6272
 2114TIP3    H127901   1.877   5.074   6.521  0.5801  0.0393 -0.8305
 2114TIP3    H227902   1.826   4.942   6.574 -0.2425 -0.5164 -2.9721
 2115TIP3   OH227903   0.614   5.883   0.083  0.1362  0.5870 -0.9049
 2115TIP3    H127904   0.700   5.922   0.073 -0.3917  1.9883 -0.0340
 2115TIP3    H227905   0.613   5.810   0.020  1.2733  1.7002 -2.2277
 2116TIP3   OH227906   1.806   1.157   6.258  0.2753 -0.0880  0.1968
 2116TIP3    H127907   1.781   1.065   6.254  0.5991 -0.1188 -1.5726
 2116TIP3    H227908   1.755   1.200   6.189  2.1286  0.5505 -0.8157
 2117TIP3   OH227909   1.454   5.346   1.115  0.3838 -0.1361 -0.5693
 2117TIP3    H127910   1.439   5.424   1.168 -1.3630  0.6153 -2.0967
 2117TIP3    H227911   1.366   5.311   1.097  1.0591 -1.6145 -1.1165
 2118TIP3   OH227912   2.233   0.340   7.856  0.7702  0.2699 -0.3760
 2118TIP3    H127913   2.231   0.334   7.761  0.6039  0.1414 -0.3646
 2118TIP3    H227914   2.218   0.432   7.875  0.9816  0.3273 -0.4789
 2119TIP3   OH227915   1.932   4.999   7.208 -0.7554  0.3185  0.5346
 2119TIP3    H127916   1.874   5.037   7.275  0.6635  1.2205  1.2782
 2119TIP3    H227917   1.969   5.074   7.163 -0.9119 -0.2754 -0.5945
 2120TIP3   OH227918   4.075   3.560   6.959  0.4678 -0.1302  0.1651
 2120TIP3    H127919   4.033   3.644   6.941  0.5937 -0.2187 -0.5598
 2120TIP3    H227920   4.117   3.535   6.876  0.5684 -0.8285  0.4168
 2121TIP3   OH227921   2.152   4.068   7.060 -0.4311  0.1482  1.2834
 2121TIP3    H127922   2.073   4.087   7.111  0.7417  3.5075  1.9449
 2121TIP3    H227923   2.184   4.154   7.032  0.5975 -1.4183 -2.6777
 2122TIP3   OH227924   2.349   4.219   6.514  0.1156  0.1613  0.1745
 2122TIP3    H127925   2.335   4.128   6.487 -0.0864  0.5144 -0.9740
 2122TIP3    H227926   2.442   4.223   6.538  0.1887 -0.2855 -0.0272
 2123TIP3   OH227927   1.524   4.775   6.122  0.4685  0.0675 -0.0181
 2123TIP3    H127928   1.445   4.742   6.164 -0.4814  1.8224 -0.4250
 2123TIP3    H227929   1.585   4.701   6.126 -1.2995 -1.4236 -0.0352
 2124TIP3   OH227930   4.725   3.634   6.592  0.1813  0.1247 -0.2732
 2124TIP3    H127931   4.761   3.681   6.517 -0.6603  0.9968 -0.1390
 2124TIP3    H227932   4.654   3.581   6.556  0.7490 -0.6000 -0.3302
 2125TIP3   OH227933   6.157   5.884   5.813 -0.8850  0.1059  0.1064
 2125TIP3    H127934   6.103   5.945   5.863 -0.2773  1.6866 -1.1115
 2125TIP3    H227935   6.246   5.898   5.846 -0.7510 -0.1543 -0.1453
 2126TIP3   OH227936   1.106   0.142   7.042  0.4737 -0.3869  0.6954
 2126TIP3    H127937   1.164   0.134   6.966  2.9083  0.4122  2.4225
 2126TIP3    H227938   1.070   0.230   7.035  1.7601  0.1896  1.1818
 2127TIP3   OH227939   2.274   3.738   0.181  0.4454 -0.0320 -0.1827
 2127TIP3    H127940   2.293   3.818   0.229 -0.0390  0.4567 -0.7992
 2127TIP3    H227941   2.351   3.683   0.195  0.5104  0.2902  0.7556
 2128TIP3   OH227942   0.047   0.923   1.302  0.1123 -0.3377  0.1765
 2128TIP3    H127943   0.066   0.983   1.231 -0.5064  0.3871  0.6154
 2128TIP3    H227944   0.091   0.841   1.277  0.6040  0.1642 -0.6189
 2129TIP3   OH227945   3.496   3.375   0.253  0.1886 -0.1665 -0.2758
 2129TIP3    H127946   3.550   3.436   0.203 -1.1705  1.7398  0.5280
 2129TIP3    H227947   3.527   3.383   0.343 -1.7462  1.3541  0.2891
 2130TIP3   OH227948   3.427   4.458   7.945  0.5381 -0.3555  0.1862
 2130TIP3    H127949   3.448   4.395   8.014  1.5941 -1.3809 -1.0679
 2130TIP3    H227950   3.474   4.427   7.868  0.2789  1.4111 -0.7192
 2131TIP3   OH227951   5.341   4.457   7.432  0.2122 -0.1178 -0.0878
 2131TIP3    H127952   5.280   4.385   7.440  1.0988 -0.8456  0.2534
 2131TIP3    H227953   5.320   4.515   7.505  0.3999 -0.7325  0.4598
 2132TIP3   OH227954   0.212   6.206   6.848  0.5140  0.3658 -0.1399
 2132TIP3    H127955   0.255   6.291   6.851  0.3270  0.4801 -0.6640
 2132TIP3    H227956   0.225   6.175   6.758 -0.5410  0.4285 -0.3195
 2133TIP3   OH227957   4.495   5.514   6.619  0.5603 -0.2366  0.4918
 2133TIP3    H127958   4.569   5.518   6.680 -0.4302 -1.6100  1.8100
 2133TIP3    H227959   4.530   5.467   6.543  1.3020 -0.0579  0.7114
 2134TIP3   OH227960   6.521   0.550   0.710  0.2257  0.0870  0.5385
 2134TIP3    H127961   6.433   0.514   0.695 -0.2594 -0.2639  3.7961
 2134TIP3    H227962   6.507   0.644   0.723  0.4153  0.1370  0.3776
 2135TIP3   OH227963   6.221   0.737   7.945 -0.0168  0.1600  0.2743
 2135TIP3    H127964   6.272   0.715   7.868 -0.4626  1.0961 -0.3014
 2135TIP3    H227965   6.183   0.654   7.974  0.0564 -0.1740 -0.5840
 2136TIP3   OH227966   4.996   5.419   0.163 -0.3187  0.1728  0.4724
 2136TIP3    H127967   4.975   5.351   0.226  0.2705 -0.0844  0.3901
 2136TIP3    H227968   4.923   5.417   0.100 -1.2933  0.9413  1.5574
 2137TIP3   OH227969   5.663   6.816   6.579 -0.7778  0.0604 -0.1410
 2137TIP3    H127970   5.667   6.732   6.533 -0.8807  0.1667 -0.3489
 2137TIP3    H227971   5.754   6.846   6.582 -0.7387 -0.0688 -0.0474
 2138TIP3   OH227972   6.248   5.397   0.697 -0.2627 -0.3729  0.0920
 2138TIP3    H127973   6.152   5.396   0.705 -0.4369  1.3389 -1.2036
 2138TIP3    H227974   6.266   5.478   0.649  1.9371 -0.0324  1.4299
 2139TIP3   OH227975   6.671   5.215   6.020  0.1934 -0.0055 -0.5704
 2139TIP3    H127976   6.673   5.176   5.933  0.3652  0.1596 -0.6413
 2139TIP3    H227977   6.579   5.215   6.045  0.1510 -0.1028 -0.7293
 2140TIP3   OH227978   4.119   2.991   1.700  0.0762  0.4029 -0.3258
 2140TIP3    H127979   4.168   3.028   1.773  1.4939 -1.7207 -0.1600
 2140TIP3    H227980   4.144   3.045   1.625  0.6363  0.9608  0.2517
 2141TIP3   OH227981   4.240   2.222   6.086  0.5929  0.3671  0.2199
 2141TIP3    H127982   4.265   2.179   6.005 -1.4554  0.4808 -0.4891
 2141TIP3    H227983   4.269   2.162   6.155  1.2462 -0.2918 -0.6276
 2142TIP3   OH227984   2.580   4.108   7.335  0.0234  0.5501 -0.9321
 2142TIP3    H127985   2.643   4.143   7.398  0.6284 -0.4185 -0.9951
 2142TIP3    H227986   2.541   4.186   7.294 -1.1995  1.2429  1.4395
 2143TIP3   OH227987   2.966   0.025   7.172  0.7507  0.4586 -0.0905
 2143TIP3    H127988   2.960   0.003   7.079  2.8281 -0.3131 -0.0741
 2143TIP3    H227989   2.877   0.012   7.205 -0.2122  1.5824 -2.1221
 2144TIP3   OH227990   7.096   5.801   0.246 -0.7401 -0.2942  0.9823
 2144TIP3    H127991   7.147   5.838   0.318 -0.6236 -1.0391  1.2879
 2144TIP3    H227992   7.044   5.874   0.213  1.7362  0.8612 -0.4066
 2145TIP3   OH227993   4.093   5.162   6.872  0.1946 -0.3998 -0.0038
 2145TIP3    H127994   4.162   5.149   6.937  0.5587  0.8915 -0.1203
 2145TIP3    H227995   4.018   5.112   6.905  0.8681 -1.0004  0.6212
 2146TIP3   OH227996   2.084   3.770   8.050 -0.1668  0.3944  0.1722
 2146TIP3    H127997   2.128   3.728   7.975  1.3016  0.7368  0.8235
 2146TIP3    H227998   1.992   3.774   8.024  0.2438  0.0584 -1.4198
 2147TIP3   OH227999   3.723   0.520   7.854 -0.6871  0.6088  0.1587
 2147TIP3    H128000   3.644   0.493   7.901 -0.8175  0.6685 -0.0266
 2147TIP3    H228001   3.691   0.572   7.781 -0.4990  0.2880 -0.1541
 2148TIP3   OH228002   4.471   4.164   6.526 -0.4513  0.3512 -0.2991
 2148TIP3    H128003   4.499   4.109   6.599 -0.0172  0.5619 -0.3054
 2148TIP3    H228004   4.552   4.184   6.478 -0.7079  0.3722 -0.7258
 2149TIP3   OH228005   3.087   1.032   6.944  0.3649  0.7099  0.2937
 2149TIP3    H128006   3.050   0.954   6.985 -0.3775  1.1531  0.4921
 2149TIP3    H228007   3.030   1.103   6.974 -0.1017  1.0604 -1.3984
 2150TIP3   OH228008   2.632   6.628   6.068  0.3076  0.1690  0.0501
 2150TIP3    H128009   2.537   6.626   6.054  0.4451 -2.1275 -0.6427
 2150TIP3    H228010   2.666   6.673   5.990 -0.0627 -0.6427 -0.5861
 2151TIP3   OH228011   2.535   6.761   6.815 -0.2866  0.0153  0.6329
 2151TIP3    H128012   2.549   6.680   6.864  2.0059 -0.0341 -0.0561
 2151TIP3    H228013   2.469   6.808   6.866 -0.4527 -1.5579  1.9190
 2152TIP3   OH228014   4.115   3.487   7.210  0.3589  0.0627  0.7680
 2152TIP3    H128015   4.155   3.569   7.239 -0.4590  0.5554  0.5148
 2152TIP3    H228016   4.096   3.500   7.117 -0.8998  0.0401  1.0183
 2153TIP3   OH228017   6.432   4.456   7.960 -0.0205 -0.3406 -0.1824
 2153TIP3    H128018   6.423   4.521   7.891 -0.4082 -2.1768 -1.8945
 2153TIP3    H228019   6.356   4.471   8.017 -2.9892 -2.4702 -3.3446
 2154TIP3   OH228020   0.279   0.928   6.462 -0.3171  0.0195 -0.1535
 2154TIP3    H128021   0.335   0.999   6.433  0.0547 -1.0762 -2.1816
 2154TIP3    H228022   0.325   0.889   6.536  0.8344  0.1164 -0.8175
 2155TIP3   OH228023   1.542   5.359   7.090 -0.4846  0.0941 -0.1054
 2155TIP3    H128024   1.584   5.408   7.160 -2.0624  0.3552  0.6915
 2155TIP3    H228025   1.453   5.344   7.121 -0.5391 -1.7976 -1.0701
 2156TIP3   OH228026   4.336   5.717   6.731 -0.1872  0.2470 -0.1653
 2156TIP3    H128027   4.398   5.647   6.711 -1.5026 -0.6517 -1.1734
 2156TIP3    H228028   4.383   5.797   6.710 -0.0624 -0.4981 -3.0441
 2157TIP3   OH228029   5.694   6.759   6.865  0.3127  0.2116 -0.1136
 2157TIP3    H128030   5.655   6.794   6.785 -0.9341 -3.8830 -1.4145
 2157TIP3    H228031   5.780   6.728   6.838  0.7583  0.7343  0.6621
 2158TIP3   OH228032   1.459   3.366   5.956  0.6346  0.5686 -0.7066
 2158TIP3    H128033   1.516   3.326   5.890  0.8818 -1.5417  0.7254
 2158TIP3    H228034   1.425   3.292   6.006 -2.0424  1.9310 -0.4467
 2159TIP3   OH228035   1.479   4.635   0.698  0.2884 -0.9851  0.0941
 2159TIP3    H128036   1.574   4.628   0.688  0.1862  0.0764 -1.9165
 2159TIP3    H228037   1.451   4.548   0.725  1.7208 -1.5468 -0.2042
 2160TIP3   OH228038   1.129   2.621   0.135  0.2373 -0.0632 -0.0216
 2160TIP3    H128039   1.176   2.546   0.173  1.4351  0.8808  0.3827
 2160TIP3    H228040   1.048   2.626   0.185  0.1375 -1.0929 -0.0545
 2161TIP3   OH228041   5.480   4.144   0.236 -0.3346 -0.4128  0.0591
 2161TIP3    H128042   5.498   4.236   0.216 -1.0923 -0.9277 -3.2346
 2161TIP3    H228043   5.566   4.104   0.248  0.0126  0.6070  1.0226
 2162TIP3   OH228044   5.078   3.389   7.015  0.3107  0.4163  0.2308
 2162TIP3    H128045   5.059   3.474   7.054 -0.3904  0.0779  0.6178
 2162TIP3    H228046   5.034   3.391   6.930 -1.1995 -0.2277  0.9739
 2163TIP3   OH228047   4.600   5.750   1.093  0.1727  0.6762 -0.0704
 2163TIP3    H128048   4.617   5.663   1.058 -1.1875  0.6666 -0.7061
 2163TIP3    H228049   4.657   5.808   1.041  0.2652  0.3115 -0.3759
 2164TIP3   OH228050   3.671   3.531   6.003  0.0467  0.2832 -0.0797
 2164TIP3    H128051   3.632   3.445   5.987 -1.7821  1.2676 -1.0938
 2164TIP3    H228052   3.736   3.541   5.933 -0.7850  0.3321 -0.8571
 2165TIP3   OH228053   1.201   3.695   1.585  0.1548  0.2099 -0.0804
 2165TIP3    H128054   1.143   3.691   1.509  0.1252 -1.0288 -0.0063
 2165TIP3    H228055   1.282   3.733   1.552 -0.4065  1.1777 -0.3667
 2166TIP3   OH228056   3.764   4.805   6.406 -0.3769 -0.4537 -0.2952
 2166TIP3    H128057   3.761   4.761   6.322  0.5194  0.6169 -0.9146
 2166TIP3    H228058   3.728   4.742   6.468 -0.0663 -1.6505 -1.3080
 2167TIP3   OH228059   1.927   5.277   2.250 -1.0064  0.0693 -0.3859
 2167TIP3    H128060   1.965   5.293   2.336  0.6196  0.6619 -1.2034
 2167TIP3    H228061   1.993   5.308   2.188 -1.7651 -1.2323 -1.8687
 2168TIP3   OH228062   5.333   5.644   5.975  0.6699  0.1106  0.2110
 2168TIP3    H128063   5.289   5.608   6.052  1.7220  0.0298  0.7781
 2168TIP3    H228064   5.316   5.580   5.906  0.7825 -0.4408  0.6932
 2169TIP3   OH228065   6.058   0.291   6.688  0.2671  0.2843  0.1486
 2169TIP3    H128066   6.002   0.368   6.702  0.7349  0.6784 -0.1500
 2169TIP3    H228067   6.136   0.308   6.741  0.3096 -0.0515  0.1936
 2170TIP3   OH228068   5.258   5.371   5.907 -0.0328  0.3107  0.0048
 2170TIP3    H128069   5.203   5.349   5.982 -0.0979 -0.8637 -0.3805
 2170TIP3    H228070   5.236   5.306   5.841 -0.0832  1.4398 -1.0969
 2171TIP3   OH228071   3.255   2.856   7.428  0.3444 -0.2586 -0.1214
 2171TIP3    H128072   3.295   2.816   7.351  1.0491 -0.9082  0.5705
 2171TIP3    H228073   3.296   2.811   7.502 -1.6759 -0.9478  0.6105
 2172TIP3   OH228074   3.246   6.704   6.549  0.2064  0.0299 -0.3996
 2172TIP3    H128075   3.298   6.784   6.557 -1.4290  0.9300  1.6700
 2172TIP3    H228076   3.161   6.733   6.515 -0.5849 -0.7135  0.8744
 2173TIP3   OH228077   7.105   5.168   6.695 -0.1423  0.1477  0.0712
 2173TIP3    H128078   7.100   5.157   6.790  0.1611 -0.6309 -0.0028
 2173TIP3    H228079   7.181   5.224   6.680  0.3881 -0.5275  0.2268
 2174TIP3   OH228080   5.013   3.097   8.052 -0.2087  0.3064 -0.3142
 2174TIP3    H128081   5.017   3.156   8.127 -0.7331 -0.0379 -0.0039
 2174TIP3    H228082   5.089   3.119   7.999  1.6226 -1.1653  1.6090
 2175TIP3   OH228083   4.197   3.863   6.868  0.0152 -0.3669  0.0677
 2175TIP3    H128084   4.223   3.927   6.802  0.8353 -1.2687 -0.4881
 2175TIP3    H228085   4.102   3.858   6.859 -0.2171  1.7534  1.0233
 2176TIP3   OH228086   2.247   7.081   0.595  0.1977 -0.0418  0.3641
 2176TIP3    H128087   2.220   6.993   0.620 -2.2238  0.3838 -0.6242
 2176TIP3    H228088   2.268   7.074   0.502  2.0098  0.0069  0.7435
 2177TIP3   OH228089   4.053   2.765   7.459  0.2349 -0.1659 -0.5713
 2177TIP3    H128090   4.104   2.703   7.511  0.6134  0.6637  0.0399
 2177TIP3    H228091   3.972   2.777   7.509  0.9575  1.2951  0.2773
 2178TIP3   OH228092   5.665   6.070   1.183  0.0759  0.0804  0.3788
 2178TIP3    H128093   5.639   6.077   1.275 -0.4129  0.1514  0.2369
 2178TIP3    H228094   5.593   6.022   1.141  0.4307 -0.2022  0.0896
 2179TIP3   OH228095   3.867   4.643   7.417  0.1443  0.0618  0.1762
 2179TIP3    H128096   3.875   4.737   7.436  0.5150  0.2657 -0.9068
 2179TIP3    H228097   3.800   4.638   7.348 -0.4587 -0.5489  0.7978
 2180TIP3   OH228098   7.084   0.617   7.300 -0.2815  0.1043  0.7243
 2180TIP3    H128099   7.177   0.628   7.321 -0.5506  0.5151  1.7413
 2180TIP3    H228100   7.071   0.522   7.299 -0.5035  0.0457  3.6682
 2181TIP3   OH228101   2.801   1.621   6.314  0.3424 -0.0339  0.5409
 2181TIP3    H128102   2.868   1.621   6.383  1.5411  2.6289 -0.5623
 2181TIP3    H228103   2.801   1.531   6.281 -0.3719 -1.4225  4.0620
 2182TIP3   OH228104   4.407   5.016   2.157  0.4623  0.3533 -0.1210
 2182TIP3    H128105   4.453   4.938   2.189 -0.5627 -0.0777  0.3308
 2182TIP3    H228106   4.380   4.993   2.068 -0.1668  0.0510  0.1477
 2183TIP3   OH228107   7.116   3.832   7.973 -0.6578 -0.5214  0.0932
 2183TIP3    H128108   7.208   3.842   7.947 -1.1303  0.3657 -1.2520
 2183TIP3    H228109   7.120   3.827   8.069  0.8704 -1.4145  0.0066
 2184TIP3   OH228110   1.601   4.791   1.158  0.4112 -0.3442  0.3967
 2184TIP3    H128111   1.569   4.858   1.219 -0.8098 -1.5547  1.1150
 2184TIP3    H228112   1.564   4.816   1.073  0.1107 -0.0260  0.6219
 2185TIP3   OH228113   4.432   5.833   0.024 -0.6019  0.1220 -0.0578
 2185TIP3    H128114   4.504   5.786   0.066  0.1185  0.6089 -0.7288
 2185TIP3    H228115   4.475   5.888  -0.042 -1.5043  1.1405  0.2007
 2186TIP3   OH228116   4.034   3.560   0.012  0.0096  0.0031 -0.3073
 2186TIP3    H128117   4.073   3.531  -0.071 -0.2757  0.7742 -0.7177
 2186TIP3    H228118   3.984   3.638  -0.011  0.3005  0.4940  0.6708
 2187TIP3   OH228119   2.712   5.011   6.483  0.2936 -0.3985  0.0101
 2187TIP3    H128120   2.633   5.006   6.428 -0.2100 -1.9108  0.8226
 2187TIP3    H228121   2.730   5.105   6.491 -1.8843  0.0170  0.4356
 2188TIP3   OH228122   2.203   3.031   0.610  0.3672  0.4654 -0.2917
 2188TIP3    H128123   2.254   3.093   0.557 -1.4349  0.5853 -1.9164
 2188TIP3    H228124   2.116   3.032   0.571 -0.2306 -1.5767  0.9395
 2189TIP3   OH228125   1.380   3.109   7.781 -0.1332 -0.0189  0.2485
 2189TIP3    H128126   1.365   3.136   7.691 -1.2476 -0.3161  0.3436
 2189TIP3    H228127   1.471   3.079   7.782 -0.5242 -1.2790 -1.0773
 2190TIP3   OH228128   2.577   5.086   7.003 -0.1082  0.1433 -0.6346
 2190TIP3    H128129   2.535   5.113   6.922  0.6619  0.6665 -0.8665
 2190TIP3    H228130   2.671   5.097   6.987  0.0459  0.4485  0.3923
 2191TIP3   OH228131   3.212   4.230   7.345 -0.1393 -0.3649  0.0384
 2191TIP3    H128132   3.250   4.146   7.320 -0.9371 -0.8878  0.5685
 2191TIP3    H228133   3.173   4.215   7.431  0.1431  0.6800  0.3697
 2192TIP3   OH228134   2.361   1.468   7.153  0.2093  0.7621  0.0050
 2192TIP3    H128135   2.366   1.374   7.169  3.1520  0.9414  0.4792
 2192TIP3    H228136   2.329   1.476   7.063  0.2413 -0.6979 -0.1437
 2193TIP3   OH228137   2.395   5.575   7.318 -0.2622  0.2344  0.6041
 2193TIP3    H128138   2.439   5.539   7.395 -1.5758 -0.3275  1.1194
 2193TIP3    H228139   2.309   5.531   7.318 -0.0797 -0.1678 -1.4678
 2194TIP3   OH228140   3.159   4.526   6.427 -0.2964 -0.1752 -0.3304
 2194TIP3    H128141   3.204   4.521   6.512 -0.5587 -0.3279 -0.1976
 2194TIP3    H228142   3.193   4.453   6.377  0.9378  0.7770 -0.8897
 2195TIP3   OH228143   1.891   5.422   7.257  0.8895 -0.0382 -0.1790
 2195TIP3    H128144   1.829   5.354   7.283 -0.2395  0.8539 -0.4819
 2195TIP3    H228145   1.892   5.483   7.330 -0.0598  0.9392 -0.9640
 2196TIP3   OH228146   3.058   4.927   0.004  0.0717 -0.2832  0.5443
 2196TIP3    H128147   3.090   5.007   0.044 -0.3262 -2.1218  4.8459
 2196TIP3    H228148   2.964   4.943  -0.009  0.0068 -0.0038  1.3250
 2197TIP3   OH228149   1.658   6.469   0.348  0.4027  0.8032  0.1529
 2197TIP3    H128150   1.599   6.400   0.318 -0.4223  2.1622 -1.4195
 2197TIP3    H228151   1.737   6.422   0.375 -0.5845 -0.8499  0.2326
 2198TIP3   OH228152   0.144   4.641   7.827  0.5517  0.4233 -0.2383
 2198TIP3    H128153   0.106   4.714   7.778 -1.1953  0.2119  0.7539
 2198TIP3    H228154   0.085   4.567   7.810  0.1312  0.2563  1.8630
 2199TIP3   OH228155   4.465   6.909   7.814 -0.1644  0.4832 -0.0526
 2199TIP3    H128156   4.536   6.929   7.752 -0.9792 -0.8130 -1.4410
 2199TIP3    H228157   4.490   6.824   7.851 -0.4960  0.5017  0.2161
 2200TIP3   OH228158   3.311   3.685   6.081  0.9082  0.2859 -0.2196
 2200TIP3    H128159   3.396   3.724   6.060  0.5963  1.0756 -0.0539
 2200TIP3    H228160   3.248   3.752   6.054  0.3343 -0.3829 -0.5347
 2201TIP3   OH228161   3.513   1.671   6.151  0.5594  0.3091  0.3268
 2201TIP3    H128162   3.433   1.711   6.117 -1.7191 -2.7153  1.8775
 2201TIP3    H228163   3.556   1.634   6.074 -1.3190 -0.9999 -0.1294
 2202TIP3   OH228164   2.370   1.813   1.027 -0.4684  0.1636 -0.2882
 2202TIP3    H128165   2.386   1.729   1.071  1.8099  0.5862 -0.2324
 2202TIP3    H228166   2.360   1.790   0.935  0.1229 -0.1984 -0.2692
 2203TIP3   OH228167   0.021   4.015   1.888 -0.5870  0.4572  0.0514
 2203TIP3    H128168  -0.050   3.973   1.936  0.3391 -0.7781  0.3553
 2203TIP3    H228169   0.041   3.954   1.816 -0.3352  1.1436 -0.4639
 2204TIP3   OH228170   3.550   4.795   7.069 -1.1507 -0.8248  0.1679
 2204TIP3    H128171   3.455   4.798   7.057 -0.8693 -0.6012 -2.2596
 2204TIP3    H228172   3.586   4.824   6.985  1.0605  3.0328  2.2745
 2205TIP3   OH228173   5.811   4.477   0.397  0.3722  0.6420  0.2965
 2205TIP3    H128174   5.729   4.515   0.364 -0.8274 -1.2047  1.0263
 2205TIP3    H228175   5.797   4.471   0.492  0.6351 -1.2656  0.2471
 2206TIP3   OH228176   1.523   3.747   6.798 -0.2611  0.9723  0.4542
 2206TIP3    H128177   1.603   3.698   6.782 -0.5808  0.7557 -0.5034
 2206TIP3    H228178   1.549   3.817   6.858  0.4842  0.4621  0.7265
 2207TIP3   OH228179   3.491   0.838   1.625  0.7098 -0.4429  0.3053
 2207TIP3    H128180   3.417   0.889   1.656  0.8651 -0.2640  0.3806
 2207TIP3    H228181   3.468   0.813   1.535  0.1298 -1.2063  0.6606
 2208TIP3   OH228182   4.441   4.957   7.226  0.2118  0.1361 -0.2412
 2208TIP3    H128183   4.488   4.930   7.147  1.4084  1.3365  0.0339
 2208TIP3    H228184   4.391   4.880   7.251  0.8587 -0.6968 -1.4169
 2209TIP3   OH228185   3.126   4.490   1.692  0.7326  0.2077 -0.2629
 2209TIP3    H128186   3.173   4.482   1.775  0.5935  0.5737 -0.1477
 2209TIP3    H228187   3.041   4.527   1.716 -0.4935 -2.5471 -0.1648
 2210TIP3   OH228188   1.598   3.221   8.036 -0.0426 -0.5138 -0.6540
 2210TIP3    H128189   1.674   3.260   8.078  0.4760 -0.9896 -1.1414
 2210TIP3    H228190   1.619   3.128   8.029 -0.8322 -0.7155 -0.4398
 2211TIP3   OH228191   4.331   6.747   0.175  0.3390 -0.7137  0.1482
 2211TIP3    H128192   4.272   6.773   0.246 -1.5634 -0.5187 -1.4283
 2211TIP3    H228193   4.345   6.829   0.126  0.8659 -1.0336 -0.2333
 2212TIP3   OH228194   5.984   5.583   6.873  0.1149  0.0322 -0.1523
 2212TIP3    H128195   6.008   5.554   6.785  1.1971 -1.5897  0.6467
 2212TIP3    H228196   6.013   5.511   6.931  1.2200  1.9037  1.7026
 2213TIP3   OH228197   4.293   5.329   7.956 -0.3583  0.2802  0.1120
 2213TIP3    H128198   4.344   5.385   7.897 -0.7187  1.6479  1.0870
 2213TIP3    H228199   4.205   5.366   7.954 -0.3773  0.3339  1.4944
 2214TIP3   OH228200   5.112   3.724   1.456  0.0262 -0.4698  0.5694
 2214TIP3    H128201   5.178   3.717   1.525  0.1587 -0.1833  0.4722
 2214TIP3    H228202   5.142   3.797   1.402 -1.3076  0.8077  1.5338
 2215TIP3   OH228203   4.438   5.407   1.479 -0.0813  0.4710  0.7488
 2215TIP3    H128204   4.456   5.335   1.420  3.8104  0.9203  1.2430
 2215TIP3    H228205   4.386   5.468   1.427  0.9625 -0.3693 -1.3488
 2216TIP3   OH228206   5.238   0.625   0.071 -0.2657  0.1808  0.0937
 2216TIP3    H128207   5.262   0.584   0.154  1.4635 -1.9607 -1.4387
 2216TIP3    H228208   5.143   0.636   0.077 -0.0463  0.9532  2.7421
 2217TIP3   OH228209   3.492   3.473   7.807 -0.5144  0.2400  0.5599
 2217TIP3    H128210   3.494   3.440   7.897  0.0505  0.8199  0.7580
 2217TIP3    H228211   3.434   3.412   7.761  0.7140 -1.2057  0.8743
 2218TIP3   OH228212   4.655   3.041   7.646  0.4286  0.4156  0.2470
 2218TIP3    H128213   4.690   3.019   7.732 -0.3078 -0.2725  0.3786
 2218TIP3    H228214   4.581   3.099   7.665 -0.5854 -0.8156  0.1741
 2219TIP3   OH228215   4.564   6.460   0.566 -0.2964 -0.0504 -0.1781
 2219TIP3    H128216   4.639   6.486   0.621  0.1916 -1.3287 -0.2215
 2219TIP3    H228217   4.543   6.538   0.516  1.0951  0.2871 -0.2527
 2220TIP3   OH228218   4.198   5.067   5.946  0.3497 -0.3267 -0.2396
 2220TIP3    H128219   4.116   5.042   5.990  1.4028 -2.0017  0.7995
 2220TIP3    H228220   4.181   5.156   5.914 -0.9046  0.4565  2.4313
 2221TIP3   OH228221   2.988   5.195   6.380  0.0264  0.3652  0.4569
 2221TIP3    H128222   2.896   5.221   6.387 -0.0943  0.1103 -0.1306
 2221TIP3    H228223   2.993   5.148   6.297  0.4449 -0.6443  1.0470
 2222TIP3   OH228224   1.311   2.148   6.736 -0.0572  0.4227  0.1064
 2222TIP3    H128225   1.270   2.079   6.788  2.7364 -0.3959  1.3186
 2222TIP3    H228226   1.272   2.139   6.649 -0.6935 -1.8308  0.5929
 2223TIP3   OH228227   4.641   5.228   6.892  0.0200  0.2637  0.3610
 2223TIP3    H128228   4.655   5.310   6.938  1.8585  0.1946 -0.0566
 2223TIP3    H228229   4.705   5.167   6.929  0.0799 -0.3919 -0.7715
 2224TIP3   OH228230   1.634   1.516   1.115  0.1334  0.3078 -0.4297
 2224TIP3    H128231   1.570   1.580   1.083  0.6054 -0.4560 -3.0028
 2224TIP3    H228232   1.607   1.433   1.076 -1.1946 -1.4224  3.8482
 2225TIP3   OH228233   2.550   5.446   6.261 -0.3469  0.6137  0.1168
 2225TIP3    H128234   2.468   5.485   6.292 -0.0110  0.5262  1.1064
 2225TIP3    H228235   2.523   5.365   6.219 -0.7415  0.4452  0.6896
 2226TIP3   OH228236   4.141   2.161   6.608  0.1409  0.5530 -0.4953
 2226TIP3    H128237   4.063   2.127   6.564  0.1873  0.5598 -0.5840
 2226TIP3    H228238   4.202   2.179   6.537  0.8905 -1.1302 -0.3101
 2227TIP3   OH228239   4.409   4.255   5.810  0.2590 -0.4802  0.1570
 2227TIP3    H128240   4.415   4.191   5.738 -2.0868 -2.6587  1.8264
 2227TIP3    H228241   4.349   4.322   5.777  1.4964  0.1172 -0.9859
 2228TIP3   OH228242   5.262   3.566   5.658  0.0054  0.0553 -0.2510
 2228TIP3    H128243   5.258   3.658   5.633  0.1098 -0.3162 -1.6842
 2228TIP3    H228244   5.345   3.556   5.704  0.7922  0.3086 -1.6122
 2229TIP3   OH228245   6.713   3.938   7.655  0.9694  0.4604 -0.1928
 2229TIP3    H128246   6.726   3.876   7.584  3.3770 -0.9032  1.3557
 2229TIP3    H228247   6.684   4.019   7.613 -1.2102 -1.3740 -2.3444
 2230TIP3   OH228248   3.764   2.048   6.133  0.2687  0.0834 -0.7934
 2230TIP3    H128249   3.785   1.954   6.130  0.5514  0.1329 -0.4316
 2230TIP3    H228250   3.741   2.070   6.043 -2.0781 -0.8596 -0.4639
 2231TIP3   OH228251   1.601   6.008   6.147 -0.1956  0.0116 -0.2386
 2231TIP3    H128252   1.657   6.085   6.138  1.2032 -0.8647  0.6819
 2231TIP3    H228253   1.534   6.034   6.210 -0.4088  0.8238 -0.7840
 2232TIP3   OH228254   4.874   6.028   7.897 -0.5731  0.0233  0.1147
 2232TIP3    H128255   4.902   6.082   7.823 -0.7192 -1.9798 -1.4522
 2232TIP3    H228256   4.929   6.056   7.970  1.6789 -0.0317 -1.5247
 2233TIP3   OH228257   2.977   0.032   0.830 -0.1965  0.0763  0.3072
 2233TIP3    H128258   2.925  -0.004   0.758  0.6868 -0.4976 -0.0535
 2233TIP3    H228259   2.992  -0.043   0.888 -2.0658  0.8263  1.8062
 2234TIP3   OH228260   3.602   5.811   6.771 -0.3069 -0.0955  0.4289
 2234TIP3    H128261   3.566   5.758   6.700  0.2348  1.9748 -1.4863
 2234TIP3    H228262   3.696   5.815   6.752 -0.0297 -0.1943  1.7396
 2235TIP3   OH228263   0.122   6.261   0.110 -0.1619  0.3997 -0.0095
 2235TIP3    H128264   0.098   6.169   0.099 -2.5773  1.0632 -0.5597
 2235TIP3    H228265   0.217   6.262   0.099 -0.0948 -2.0312  0.0386
 2236TIP3   OH228266   2.095   1.164   1.312  0.4527 -0.1333 -0.4135
 2236TIP3    H128267   2.183   1.184   1.282 -0.4480  0.3411 -2.8781
 2236TIP3    H228268   2.107   1.112   1.392  2.9534 -1.0027 -1.3321
 2237TIP3   OH228269   5.069   3.890   7.082 -0.0634  0.1335 -0.2242
 2237TIP3    H128270   5.022   3.966   7.117  2.6934  0.6070  2.6502
 2237TIP3    H228271   5.160   3.919   7.076  0.3262 -1.5835 -3.2273
 2238TIP3   OH228272   0.278   4.175   0.786  0.5231  0.0762  0.3411
 2238TIP3    H128273   0.344   4.158   0.853  1.1455 -0.1622 -0.3289
 2238TIP3    H228274   0.328   4.191   0.707 -0.2170  0.1862 -0.1056
 2239TIP3   OH228275   0.396   6.261   0.092  0.1239  0.6181 -0.2115
 2239TIP3    H128276   0.458   6.224   0.029  1.3609  1.7441  0.2981
 2239TIP3    H228277   0.438   6.343   0.121 -0.6434  0.3732  1.6919
 2240TIP3   OH228278   1.960   0.937   6.561 -0.2873 -0.2136  0.1284
 2240TIP3    H128279   2.041   0.955   6.608 -0.9954  0.7074  1.0042
 2240TIP3    H228280   1.987   0.930   6.469  0.9057 -0.7855  0.5144
 2241TIP3   OH228281   4.664   1.904   1.767  0.0714 -0.2605  0.4275
 2241TIP3    H128282   4.708   1.989   1.770 -2.8184  1.2781  1.4096
 2241TIP3    H228283   4.647   1.883   1.859 -0.1331 -1.4238  0.1343
 2242TIP3   OH228284   6.398   2.458   1.704  0.3868  0.4315 -0.1125
 2242TIP3    H128285   6.341   2.388   1.738  1.6388 -0.0910  0.9614
 2242TIP3    H228286   6.351   2.538   1.724  0.0470  0.0069  0.8499
 2243TIP3   OH228287   5.462   4.650   6.428  0.3116  0.4661  0.0966
 2243TIP3    H128288   5.427   4.694   6.350  0.5677 -0.2532 -0.4241
 2243TIP3    H228289   5.555   4.671   6.428  0.6125 -0.8003 -0.6530
 2244TIP3   OH228290   5.561   5.403   0.856 -0.0652  0.1606 -0.0181
 2244TIP3    H128291   5.495   5.414   0.787 -1.5121 -1.1643  1.1278
 2244TIP3    H228292   5.607   5.323   0.832 -0.1643  0.0297  0.2319
 2245TIP3   OH228293   5.534   5.351   5.964  0.7703  0.1694 -0.4295
 2245TIP3    H128294   5.553   5.257   5.964  0.7784  0.1714 -0.1810
 2245TIP3    H228295   5.451   5.358   5.918  1.6615  0.2189 -2.0830
 2246TIP3   OH228296   2.904   7.027   6.805 -0.2586 -0.1597  0.3555
 2246TIP3    H128297   2.917   6.934   6.822  0.3921  0.3354  2.6572
 2246TIP3    H228298   2.959   7.045   6.729 -0.0267 -1.5444  0.1831
 2247TIP3   OH228299   4.688   5.630   7.250 -0.1202 -0.0717 -0.3202
 2247TIP3    H128300   4.726   5.698   7.194  1.5281 -1.4991 -0.9663
 2247TIP3    H228301   4.712   5.656   7.339  1.7880 -0.5732 -0.6715
 2248TIP3   OH228302   4.670   3.748   6.857 -0.7211 -0.2478  0.0195
 2248TIP3    H128303   4.716   3.714   6.780  0.6261  2.7552 -0.5438
 2248TIP3    H228304   4.585   3.702   6.855 -0.7222 -0.2805 -3.2260
 2249TIP3   OH228305   2.780   1.969   7.584  0.1587 -0.0380  0.5510
 2249TIP3    H128306   2.836   1.917   7.525  1.7052  1.6220  0.5135
 2249TIP3    H228307   2.826   1.967   7.668 -0.1392  0.7061  0.7319
 2250TIP3   OH228308   0.455   5.753   6.621  0.2754 -0.4747  0.4416
 2250TIP3    H128309   0.511   5.716   6.552 -1.2184 -0.1209 -1.0002
 2250TIP3    H228310   0.379   5.695   6.624 -1.1832  1.3227 -0.5017
 2251TIP3   OH228311   1.971   7.091   7.408  1.0757 -0.2957 -0.6335
 2251TIP3    H128312   2.064   7.114   7.411  0.2897  2.9059  0.9598
 2251TIP3    H228313   1.963   7.015   7.465  2.1430  1.6957  2.2588
 2252TIP3   OH228314   3.915   6.037   1.687  0.1717  0.6997  0.0439
 2252TIP3    H128315   3.985   6.084   1.732  0.5545  1.5806 -1.4247
 2252TIP3    H228316   3.885   5.972   1.751  1.0465  1.5526  1.3697
 2253TIP3   OH228317   2.009   5.877   1.516 -0.1292 -0.1755 -0.3972
 2253TIP3    H128318   2.063   5.929   1.456  0.4281 -1.4469 -1.0278
 2253TIP3    H228319   2.002   5.931   1.595  3.1936 -0.5199  0.2016
 2254TIP3   OH228320   4.793   3.435   1.887 -0.7244  0.3781  0.8169
 2254TIP3    H128321   4.805   3.347   1.923  0.1178  0.1300 -0.0474
 2254TIP3    H228322   4.699   3.441   1.869 -0.6987 -0.5352  0.3743
 2255TIP3   OH228323   3.005   5.378   5.962  0.1706  0.3541  0.3853
 2255TIP3    H128324   2.928   5.334   5.998  1.5789 -1.1333  1.6138
 2255TIP3    H228325   3.036   5.433   6.034 -1.5286  3.4084 -1.1050
 2256TIP3   OH228326   4.014   6.518   6.097 -0.3230  0.3014 -0.0070
 2256TIP3    H128327   3.963   6.597   6.112 -1.6535 -0.1343 -2.0563
 2256TIP3    H228328   3.996   6.462   6.173 -1.0461  1.0934  0.4055
 2257TIP3   OH228329   5.545   6.879   7.584 -0.0583  0.1350  0.0733
 2257TIP3    H128330   5.491   6.958   7.580  0.2804  0.3936  0.5162
 2257TIP3    H228331   5.634   6.911   7.596 -0.1373 -0.3496  2.1483
 2258TIP3   OH228332   6.500   4.596   7.450  0.5460  0.0546  0.1366
 2258TIP3    H128333   6.435   4.547   7.399  0.2188  1.3826 -0.7435
 2258TIP3    H228334   6.521   4.538   7.523 -1.5335 -0.4588  0.3565
 2259TIP3   OH228335   4.492   6.111   6.126  0.2454  0.4275 -0.0306
 2259TIP3    H128336   4.433   6.067   6.064  0.3094  0.2790  0.0150
 2259TIP3    H228337   4.447   6.194   6.146 -0.5472 -0.2284  0.9561
 2260TIP3   OH228338   6.094   3.870   7.720 -0.2092 -0.1417  0.2677
 2260TIP3    H128339   6.028   3.878   7.652 -0.3146 -0.5091  0.3300
 2260TIP3    H228340   6.159   3.937   7.698 -0.2296 -0.2828 -0.2039
 2261TIP3   OH228341   6.005   4.109   7.198  0.5803  0.7891  0.4519
 2261TIP3    H128342   5.935   4.048   7.177 -0.0087  1.5757  0.1312
 2261TIP3    H228343   5.964   4.195   7.197  1.5022  1.2400  0.4719
 2262TIP3   OH228344   5.151   6.841   0.099 -0.3496 -0.0736 -0.4068
 2262TIP3    H128345   5.062   6.870   0.081 -1.0456 -1.5539  0.5859
 2262TIP3    H228346   5.152   6.820   0.192  1.3829  1.0853 -0.1293
 2263TIP3   OH228347   2.257   5.226   7.302  0.2545  0.4789  0.4170
 2263TIP3    H128348   2.185   5.285   7.321  0.6467  0.6892  1.2615
 2263TIP3    H228349   2.235   5.145   7.348 -0.5771 -0.2526 -1.2246
 2264TIP3   OH228350   5.687   5.686   6.274  0.6349  0.4502  0.2504
 2264TIP3    H128351   5.744   5.610   6.284 -0.9590 -0.8421 -0.2683
 2264TIP3    H228352   5.639   5.691   6.357 -1.0756 -0.6527 -0.6443
 2265TIP3   OH228353   4.940   2.794   6.077 -0.0140 -0.2978 -0.5540
 2265TIP3    H128354   4.947   2.753   5.991 -1.1844 -0.4621 -0.5779
 2265TIP3    H228355   4.855   2.766   6.110 -0.1801  0.9028  0.0654
 2266TIP3   OH228356   1.402   5.259   0.285 -0.4714  0.3516  0.3239
 2266TIP3    H128357   1.459   5.287   0.357 -2.4326  0.3414  1.9330
 2266TIP3    H228358   1.350   5.336   0.264 -0.4946  0.1132 -0.5094
 2267TIP3   OH228359   4.716   6.799   0.832  0.6583 -0.1697 -0.4683
 2267TIP3    H128360   4.689   6.882   0.794  2.6667 -0.3115 -2.2983
 2267TIP3    H228361   4.736   6.819   0.923 -0.1138  1.0596 -0.5578
 2268TIP3   OH228362   4.441   4.349   2.103  0.0528 -0.2218  0.3204
 2268TIP3    H128363   4.507   4.332   2.036 -0.7857 -1.1498 -0.2925
 2268TIP3    H228364   4.392   4.266   2.109  0.0103 -0.0848  1.9439
 2269TIP3   OH228365   5.610   5.011   5.533  0.4855  0.1711 -0.0226
 2269TIP3    H128366   5.657   4.928   5.525 -1.5531 -1.2351  1.9680
 2269TIP3    H228367   5.674   5.071   5.571  1.6482 -0.8121 -0.3945
 2270TIP3   OH228368   4.331   2.850   0.495 -0.1683 -0.1207  0.3383
 2270TIP3    H128369   4.238   2.870   0.498 -0.1981 -0.3441  0.8519
 2270TIP3    H228370   4.375   2.931   0.520 -0.2530 -0.3086  1.1029
 2271TIP3   OH228371   4.719   5.364   7.523 -0.5156 -0.5536  0.0040
 2271TIP3    H128372   4.708   5.270   7.531  2.3602 -1.0641 -1.6077
 2271TIP3    H228373   4.652   5.391   7.461 -2.9700 -1.1132  2.3276
 2272TIP3   OH228374   0.952   1.057   0.505  0.1270  0.3475  0.5117
 2272TIP3    H128375   0.993   1.139   0.475  0.5302  0.1688  0.5771
 2272TIP3    H228376   0.940   1.006   0.425  0.7337  0.0816  0.5949
 2273TIP3   OH228377   0.644   6.136   1.482  0.1112  0.0021 -0.4788
 2273TIP3    H128378   0.676   6.087   1.558  1.7925 -0.2014 -1.2900
 2273TIP3    H228379   0.597   6.071   1.430  0.1595 -0.1759 -0.3022
 2274TIP3   OH228380   5.004   4.587   5.617  0.1829  0.0047  0.0261
 2274TIP3    H128381   5.099   4.587   5.601  0.5816  0.4568  2.1173
 2274TIP3    H228382   4.982   4.680   5.625 -0.1687 -0.1514  0.9018
 2275TIP3   OH228383   5.724   2.642   6.406  0.2998 -0.4368  0.0367
 2275TIP3    H128384   5.798   2.700   6.391  0.1105 -0.0215  0.6771
 2275TIP3    H228385   5.685   2.673   6.488  0.7397 -2.0520  0.8725
 2276TIP3   OH228386   2.913   2.935   1.778 -0.5410  0.5589 -0.0708
 2276TIP3    H128387   2.997   2.894   1.757 -0.1861  0.7428  0.9472
 2276TIP3    H228388   2.854   2.862   1.796  0.0461  0.4678  1.5797
 2277TIP3   OH228389   4.102   1.641   1.197 -0.1544  0.1004  0.6276
 2277TIP3    H128390   4.120   1.657   1.289  2.7167 -1.6644  0.4291
 2277TIP3    H228391   4.063   1.554   1.195  0.6640 -0.2596  0.1041
 2278TIP3   OH228392   6.455   4.731   0.542 -0.4036 -0.1094  0.2712
 2278TIP3    H128393   6.452   4.641   0.509 -0.7766 -0.4123  1.1287
 2278TIP3    H228394   6.371   4.744   0.585 -0.2312  0.5471  0.4174
 2279TIP3   OH228395   6.028   3.008   7.898 -0.3713  0.2880 -0.6039
 2279TIP3    H128396   6.096   2.951   7.933  0.7359  1.5081 -0.7666
 2279TIP3    H228397   6.015   3.075   7.965 -1.4920  0.0145 -0.5272
 2280TIP3   OH228398   2.039   1.151   0.069  0.2907 -0.1542 -0.0365
 2280TIP3    H128399   2.044   1.246   0.052  0.1496  0.0453  1.0062
 2280TIP3    H228400   2.127   1.119   0.051  0.6216  0.3572  0.6200
 2281TIP3   OH228401   3.989   3.304   7.483 -0.3347  0.0332  0.6486
 2281TIP3    H128402   3.954   3.355   7.410  2.1273 -0.1698 -0.7597
 2281TIP3    H228403   3.954   3.217   7.471 -0.4056  0.1458  0.0100
 2282TIP3   OH228404   1.179   6.242   7.919 -0.1963 -0.4755 -0.1298
 2282TIP3    H128405   1.247   6.308   7.908 -0.4111  0.0404  1.4969
 2282TIP3    H228406   1.113   6.265   7.853  0.8265 -0.5190 -1.1854
 2283TIP3   OH228407   3.705   5.515   6.708 -0.0890  0.0834 -0.3751
 2283TIP3    H128408   3.630   5.503   6.650 -0.3871 -2.1601  0.4148
 2283TIP3    H228409   3.724   5.609   6.704 -2.3114  0.5225 -1.3356
 2284TIP3   OH228410   4.628   6.892   7.583  0.2931  0.0840 -0.0451
 2284TIP3    H128411   4.716   6.865   7.610 -0.2881 -0.7922  0.9796
 2284TIP3    H228412   4.628   6.879   7.488  0.9908 -0.7222  0.0534
 2285TIP3   OH228413   5.441   4.311   6.223  0.4753  0.3031 -0.0642
 2285TIP3    H128414   5.511   4.302   6.287 -0.6064 -0.4911  1.0303
 2285TIP3    H228415   5.455   4.397   6.183  0.6910  1.1450  1.7947
 2286TIP3   OH228416   4.109   2.301   7.463 -0.4249  0.5827  0.1003
 2286TIP3    H128417   4.026   2.325   7.504 -1.7745 -1.6826 -1.1750
 2286TIP3    H228418   4.140   2.225   7.513  1.2368  1.8228  0.9884
 2287TIP3   OH228419   6.618   5.672   7.153  0.3062 -0.4073  0.5405
 2287TIP3    H128420   6.608   5.753   7.103 -0.3121  0.2179  1.6488
 2287TIP3    H228421   6.639   5.702   7.242 -3.1703 -1.3450  1.7462
 2288TIP3   OH228422   0.364   5.004   5.933 -0.3226  0.6588  0.8411
 2288TIP3    H128423   0.432   4.998   5.866  0.0583  0.1084  1.2726
 2288TIP3    H228424   0.330   4.914   5.941 -0.3105  0.7040  1.4368
 2289TIP3   OH228425   3.383   4.787   0.407 -0.6027  0.0712 -0.2974
 2289TIP3    H128426   3.412   4.738   0.331 -1.4499  2.6125 -2.3328
 2289TIP3    H228427   3.459   4.790   0.465 -0.2425 -2.7137 -0.5739
 2290TIP3   OH228428   4.467   4.828   6.171  0.3048  0.8239  0.1897
 2290TIP3    H128429   4.429   4.765   6.110  0.6091  0.8294 -0.0036
 2290TIP3    H228430   4.560   4.828   6.151  0.2801  1.4731  0.0639
 2291TIP3   OH228431   5.949   4.634   6.958 -0.0436 -0.2434 -0.7201
 2291TIP3    H128432   5.878   4.681   7.001 -1.2513 -0.5905 -2.2692
 2291TIP3    H228433   6.015   4.701   6.940 -0.0439  0.1133  0.5618
 2292TIP3   OH228434   6.224   4.490   0.555 -0.3837 -0.7872 -0.4428
 2292TIP3    H128435   6.287   4.476   0.484 -1.1623  0.8509 -1.5052
 2292TIP3    H228436   6.253   4.433   0.626  1.2535 -1.3686 -1.5712
 2293TIP3   OH228437   4.027   5.984   6.777  0.3727 -0.5951 -0.7473
 2293TIP3    H128438   4.108   6.031   6.796  0.9424 -1.8148 -0.1197
 2293TIP3    H228439   3.958   6.048   6.791  1.1341  0.0241  0.2121
 2294TIP3   OH228440   1.408   1.743   6.471  0.7756  0.0122  0.1630
 2294TIP3    H128441   1.354   1.678   6.426  0.1010  0.2504  0.6240
 2294TIP3    H228442   1.362   1.826   6.458 -0.4877 -0.2073  2.9573
 2295TIP3   OH228443   6.520   5.106   6.857  0.2636 -0.0761 -0.0012
 2295TIP3    H128444   6.598   5.102   6.912  1.2724  0.7954 -1.3295
 2295TIP3    H228445   6.513   5.019   6.819  1.3910  0.2168 -0.9230
 2296TIP3   OH228446   4.812   4.581   6.565  0.3454 -0.0609 -0.3231
 2296TIP3    H128447   4.785   4.642   6.496  2.3187  0.8911 -0.2792
 2296TIP3    H228448   4.730   4.543   6.597 -0.5820 -0.9787 -3.5878
 2297TIP3   OH228449   5.321   3.948   6.317 -0.2917 -0.4867 -0.3094
 2297TIP3    H128450   5.409   3.928   6.287  0.1609 -0.1795  0.7798
 2297TIP3    H228451   5.333   3.987   6.404 -1.4142  0.6116 -0.6179
 2298TIP3   OH228452   2.490   4.294   0.033  0.2682  0.6645 -0.0758
 2298TIP3    H128453   2.505   4.305  -0.061  0.7509  1.9214  0.1365
 2298TIP3    H228454   2.401   4.327   0.046  0.4202  1.0490 -0.0009
 2299TIP3   OH228455   1.734   4.317   7.847  0.3343 -0.2799  0.6475
 2299TIP3    H128456   1.735   4.253   7.776  1.1931 -0.1957  0.5785
 2299TIP3    H228457   1.700   4.269   7.922 -1.2895 -0.1732  0.0068
 2300TIP3   OH228458   1.005   4.275   6.722  0.8272 -1.0410 -0.2095
 2300TIP3    H128459   0.935   4.340   6.717  0.1232 -1.9620 -3.8690
 2300TIP3    H228460   0.965   4.200   6.766 -0.5249 -1.5049 -2.1404
 2301TIP3   OH228461   6.189   4.448   8.102 -0.0069  0.7392 -0.0515
 2301TIP3    H128462   6.195   4.500   8.183 -0.3574 -1.7035  1.5816
 2301TIP3    H228463   6.098   4.418   8.100  0.0697  0.5514 -1.2569
 2302TIP3   OH228464   4.331   5.974   5.956  0.1415 -0.1844  0.1334
 2302TIP3    H128465   4.326   5.879   5.945 -1.3696  0.0322 -1.2359
 2302TIP3    H228466   4.250   6.007   5.917  0.0399  1.5786  1.7436
 2303TIP3   OH228467   5.008   1.501   6.120 -0.2077 -0.1517  0.0199
 2303TIP3    H128468   4.928   1.538   6.082 -1.4929 -0.9610  1.8519
 2303TIP3    H228469   5.007   1.409   6.093  0.3496 -0.0462 -0.3560
 2304TIP3   OH228470   5.580   1.229   7.156  0.1167  0.1092  0.3525
 2304TIP3    H128471   5.505   1.283   7.179 -0.2364 -0.7448  1.2277
 2304TIP3    H228472   5.561   1.198   7.067 -1.5796 -1.7875  1.3298
 2305TIP3   OH228473   5.425   0.597   6.715  0.0181 -0.4987  0.0908
 2305TIP3    H128474   5.477   0.615   6.794 -0.8414  1.3740  0.2501
 2305TIP3    H228475   5.335   0.591   6.746 -0.0122 -2.7989 -0.3314
 2306TIP3   OH228476   1.010   4.850   0.891  0.2517  0.1289  0.3437
 2306TIP3    H128477   1.085   4.888   0.937 -0.8661  1.0796  1.4351
 2306TIP3    H228478   0.980   4.780   0.949 -0.2633  0.3644  0.3663
 2307TIP3   OH228479   0.108   1.299   1.586 -0.3709  0.1605 -0.4178
 2307TIP3    H128480   0.182   1.269   1.533  0.0339 -0.9857  0.7756
 2307TIP3    H228481   0.147   1.349   1.657 -0.9064  1.5505 -1.0654
 2308TIP3   OH228482   0.054   6.068   6.523 -0.3374 -0.1182 -0.1549
 2308TIP3    H128483   0.138   6.112   6.538 -1.2546  1.5834  0.0599
 2308TIP3    H228484   0.053   6.051   6.429  0.8682 -1.4672  0.0527
 2309TIP3   OH228485   5.266   4.612   0.191  0.1694  0.3474 -0.0459
 2309TIP3    H128486   5.294   4.541   0.249  2.0414  0.5346 -0.6955
 2309TIP3    H228487   5.189   4.648   0.234 -0.1202 -1.3150  0.8965
 2310TIP3   OH228488   0.052   3.794   7.636 -0.2744  0.2224  0.2443
 2310TIP3    H128489   0.088   3.708   7.659 -0.1935  0.5550  1.3665
 2310TIP3    H228490  -0.018   3.774   7.574 -0.9437 -0.7316  1.2935
 2311TIP3   OH228491   4.323   3.942   7.968  0.1822 -0.3961  0.0063
 2311TIP3    H128492   4.311   3.943   8.063  1.1668 -1.7049  0.1450
 2311TIP3    H228493   4.397   4.001   7.953 -1.7701  2.0894 -0.2301
 2312TIP3   OH228494   6.780   4.203   1.677  0.2637 -0.2107 -0.5573
 2312TIP3    H128495   6.830   4.229   1.754 -1.5867 -1.1166  0.9816
 2312TIP3    H228496   6.806   4.112   1.661 -2.3504 -1.4010  1.5260
 2313TIP3   OH228497   4.947   4.878   6.898  0.8367 -0.2154  0.0488
 2313TIP3    H128498   4.934   4.918   6.812 -2.5104  0.9807  1.0379
 2313TIP3    H228499   4.917   4.788   6.887  0.7333 -0.1591 -0.1354
 2314TIP3   OH228500   0.601   6.046   7.448  0.3252  0.1510 -0.0714
 2314TIP3    H128501   0.578   5.964   7.404 -1.6199  0.1836  0.8322
 2314TIP3    H228502   0.691   6.033   7.479 -0.0784 -1.7612  0.3395
 2315TIP3   OH228503   5.124   3.821   5.657 -0.2723  0.5522 -0.3674
 2315TIP3    H128504   5.039   3.782   5.677  0.3647  0.0374  1.4204
 2315TIP3    H228505   5.140   3.881   5.731  0.3175  1.6279 -1.3600
 2316TIP3   OH228506   6.224   5.145   7.849  0.2928 -0.2193 -0.0786
 2316TIP3    H128507   6.306   5.170   7.807  0.5478  1.1474  1.1602
 2316TIP3    H228508   6.178   5.228   7.864 -0.0032 -0.7054  1.8519
 2317TIP3   OH228509   0.360   5.362   1.423  0.3673  0.3741 -0.7346
 2317TIP3    H128510   0.278   5.383   1.380  0.0014 -0.1995 -0.3254
 2317TIP3    H228511   0.342   5.282   1.473  0.8300  0.9114  0.3315
 2318TIP3   OH228512   0.245   5.077   6.902  0.3403 -0.7817  0.0413
 2318TIP3    H128513   0.254   5.070   6.807 -1.7771  1.3360 -0.3623
 2318TIP3    H228514   0.220   5.168   6.917  0.1024 -1.2274  2.6084
 2319TIP3   OH228515   5.553   4.722   7.122  0.1471 -0.0497  0.3500
 2319TIP3    H128516   5.463   4.698   7.145 -0.2433 -0.0344 -1.1108
 2319TIP3    H228517   5.543   4.780   7.047  1.4700 -1.6701 -1.1175
 2320TIP3   OH228518   5.258   6.240   6.234 -0.2552 -0.0483 -0.1438
 2320TIP3    H128519   5.288   6.187   6.160  0.5070  0.5400 -0.2626
 2320TIP3    H228520   5.314   6.318   6.232 -0.1181 -0.1084  1.1599
 2321TIP3   OH228521   3.431   5.834   7.191  0.3649  0.4728  0.1557
 2321TIP3    H128522   3.490   5.792   7.129  0.0054 -0.0985  0.1966
 2321TIP3    H228523   3.385   5.901   7.140  2.5303  2.3450  0.5906
 2322TIP3   OH228524   5.376   6.871   7.208 -0.3538 -0.3308 -0.0350
 2322TIP3    H128525   5.455   6.891   7.157 -0.6690 -1.7168 -1.1132
 2322TIP3    H228526   5.309   6.854   7.141 -0.6447 -2.6992  0.8250
 2323TIP3   OH228527   5.138   6.970   0.366 -0.1558 -0.3161 -0.7048
 2323TIP3    H128528   5.152   6.926   0.450 -1.4195  0.1999 -0.2056
 2323TIP3    H228529   5.048   6.946   0.341 -0.2018  0.4819 -1.3358
 2324TIP3   OH228530   6.216   3.846   6.108  0.3560  0.0678 -0.1521
 2324TIP3    H128531   6.177   3.872   6.024  0.4537 -1.7275 -0.7825
 2324TIP3    H228532   6.220   3.750   6.103  3.9000  0.1305  0.2699
 2325TIP3   OH228533   4.542   1.551   7.875  0.4901 -0.2220  0.0402
 2325TIP3    H128534   4.447   1.555   7.873  0.5401  0.4545 -2.1217
 2325TIP3    H228535   4.567   1.612   7.945 -0.5467  2.2839 -1.7083
 2326TIP3   OH228536   0.855   3.803   0.582 -0.3772 -0.1268  0.4968
 2326TIP3    H128537   0.839   3.755   0.500 -0.7839  0.6553  0.1117
 2326TIP3    H228538   0.773   3.795   0.630 -0.5661  0.4744  0.2792
 2327TIP3   OH228539   4.681   5.103   1.706  0.8376  0.1735  0.1754
 2327TIP3    H128540   4.729   5.052   1.640  0.0947 -0.9754  0.5078
 2327TIP3    H228541   4.730   5.091   1.787  1.5214  1.2561 -0.0618
 2328TIP3   OH228542   2.564   0.691   7.585  0.4728  0.2237 -0.1369
 2328TIP3    H128543   2.634   0.675   7.648  2.2596  0.5296 -1.9893
 2328TIP3    H228544   2.534   0.780   7.605 -1.0537 -0.7658  2.1849
 2329TIP3   OH228545   5.036   1.190   0.290  0.4925 -0.1469  0.0610
 2329TIP3    H128546   5.058   1.266   0.344 -1.4506 -0.4166  1.2846
 2329TIP3    H228547   5.035   1.117   0.352  0.8316 -0.9311 -0.8357
 2330TIP3   OH228548   3.788   3.690   7.976  0.2719  0.0535  0.7758
 2330TIP3    H128549   3.850   3.752   8.014  0.6744 -0.2903  0.6775
 2330TIP3    H228550   3.729   3.668   8.049  0.2083  0.4517  0.8436
 2331TIP3   OH228551   4.792   0.928   7.820  0.0692  0.2640 -0.1464
 2331TIP3    H128552   4.729   0.959   7.756  1.8884  0.5749 -1.8439
 2331TIP3    H228553   4.857   0.879   7.769  1.6503  0.6763  1.3982
 2332TIP3   OH228554   6.853   3.798   6.658  0.1208 -0.3328  0.2574
 2332TIP3    H128555   6.784   3.739   6.627 -0.1970  0.1244  0.0891
 2332TIP3    H228556   6.807   3.876   6.688  0.6156  0.3932 -0.8013
 2333TIP3   OH228557   0.280   3.296   1.100 -0.2028  0.5028  0.1753
 2333TIP3    H128558   0.196   3.338   1.123  0.0777  1.3452 -0.2888
 2333TIP3    H228559   0.256   3.228   1.038 -0.3770  1.9574 -1.4076
 2334TIP3   OH228560   6.950   6.014   0.186 -0.6823  0.5424  0.0699
 2334TIP3    H128561   6.865   5.971   0.199 -0.2696 -0.5857 -0.9695
 2334TIP3    H228562   6.928   6.098   0.146 -1.3002  0.2576 -0.1927
 2335TIP3   OH228563   0.689   6.967   0.730  0.3202 -0.1104 -0.3183
 2335TIP3    H128564   0.636   6.947   0.807  0.2560  0.4525 -0.2119
 2335TIP3    H228565   0.752   6.895   0.725  0.2896 -0.1806  0.2277
 2336TIP3   OH228566   3.565   2.229   7.580  0.2260 -0.0736 -0.7323
 2336TIP3    H128567   3.557   2.258   7.490 -0.9599  0.5148 -0.4387
 2336TIP3    H228568   3.585   2.136   7.574  2.4293  0.4290 -1.6414
 2337TIP3   OH228569   1.810   3.845   1.410  0.0604  0.0390  0.3487
 2337TIP3    H128570   1.743   3.781   1.432 -0.4790  0.2002 -0.7760
 2337TIP3    H228571   1.830   3.889   1.492 -0.1312 -1.0366  0.9694
 2338TIP3   OH228572   6.832   2.961   7.664 -0.4471 -0.5730 -0.0964
 2338TIP3    H128573   6.827   3.040   7.718 -0.7139 -0.6153 -0.0619
 2338TIP3    H228574   6.902   2.909   7.704  0.7584  0.3172 -1.0006
 2339TIP3   OH228575   1.515   5.645   7.978 -0.4210  0.1552  0.2136
 2339TIP3    H128576   1.445   5.596   8.021  0.1684 -0.8547  0.0395
 2339TIP3    H228577   1.543   5.710   8.042  0.2998 -1.1873  1.2657
 2340TIP3   OH228578   3.927   3.329   0.163 -0.4833 -0.0133 -0.3806
 2340TIP3    H128579   3.980   3.408   0.153  0.9901 -0.9529 -0.1584
 2340TIP3    H228580   3.874   3.325   0.084  1.9604 -0.6486 -2.0629
 2341TIP3   OH228581   1.773   5.773   7.241 -0.3233  0.1148 -0.4692
 2341TIP3    H128582   1.858   5.731   7.227  0.3263  1.5914 -1.0512
 2341TIP3    H228583   1.727   5.762   7.158  0.0400  0.9799 -0.7880
 2342TIP3   OH228584   1.121   1.746   6.651  0.0042  0.1284  0.1667
 2342TIP3    H128585   1.119   1.818   6.588 -1.9182  1.7656  2.0183
 2342TIP3    H228586   1.156   1.785   6.731 -1.6254 -0.7934  1.3668
 2343TIP3   OH228587   0.317   0.146   1.447  0.1641  0.1260  0.3188
 2343TIP3    H128588   0.339   0.239   1.455  0.4988  0.1380 -0.7420
 2343TIP3    H228589   0.341   0.109   1.532 -1.2197  1.2492  1.2257
 2344TIP3   OH228590   5.647   4.298   6.416 -0.8966 -0.2060 -0.7159
 2344TIP3    H128591   5.676   4.374   6.365 -1.1149  0.4074  0.0500
 2344TIP3    H228592   5.728   4.260   6.451 -0.6908 -1.0586 -2.1026
 2345TIP3   OH228593   0.243   5.189   6.584 -0.3453 -0.4056  0.9289
 2345TIP3    H128594   0.174   5.123   6.588 -1.7825  1.0171 -0.0942
 2345TIP3    H228595   0.276   5.184   6.495 -2.2673  2.0378  0.0339
 2346TIP3   OH228596   6.428   4.595   6.684 -0.2146 -0.3751  0.4740
 2346TIP3    H128597   6.337   4.584   6.712 -1.2624  0.7721 -2.2279
 2346TIP3    H228598   6.464   4.507   6.682 -1.6489 -0.9647  0.4664
 2347TIP3   OH228599   2.289   2.863   7.210  0.4862  0.9462 -0.2119
 2347TIP3    H128600   2.266   2.955   7.212 -0.0303  0.7976  3.2724
 2347TIP3    H228601   2.376   2.859   7.248  0.4071 -0.0263 -0.1190
 2348TIP3   OH228602   5.512   5.310   6.828  0.1839  0.2708 -0.0941
 2348TIP3    H128603   5.553   5.396   6.826  1.0780 -0.1368  0.5051
 2348TIP3    H228604   5.431   5.324   6.878 -0.0973  0.9299 -0.7158
 2349TIP3   OH228605   4.818   3.913   8.022 -0.2783  0.8649  0.4391
 2349TIP3    H128606   4.808   3.856   7.947  0.2850  2.1776 -0.6589
 2349TIP3    H228607   4.879   3.867   8.080 -0.2951  0.0997 -0.1517
 2350TIP3   OH228608   5.991   1.054   0.783  0.2515 -0.6187 -0.0279
 2350TIP3    H128609   6.070   1.098   0.754  0.2260 -0.9763 -0.6581
 2350TIP3    H228610   6.003   0.963   0.755  0.3408 -1.0264  1.3286
 2351TIP3   OH228611   0.590   6.576   0.062 -0.2029 -0.6618  0.3998
 2351TIP3    H128612   0.645   6.518   0.009  2.1724  0.0945  1.9726
 2351TIP3    H228613   0.614   6.664   0.034 -0.3902 -0.3089  1.3485
 2352TIP3   OH228614   5.369   3.125   0.052 -0.0642  0.2212  0.4258
 2352TIP3    H128615   5.328   3.044   0.021  2.0329 -0.9841  0.7011
 2352TIP3    H228616   5.401   3.168  -0.028 -1.1427  0.7712  0.2835
 2353TIP3   OH228617   0.017   2.013   1.140 -0.5623  0.0434  0.2729
 2353TIP3    H128618   0.086   2.009   1.074  0.6037  0.0397  1.4822
 2353TIP3    H228619   0.027   2.098   1.182 -2.6121  0.9230 -0.9195
 2354TIP3   OH228620   7.056   5.063   5.984 -0.7802 -0.0240 -0.5693
 2354TIP3    H128621   7.114   5.102   5.919 -1.5675  0.3236 -1.0617
 2354TIP3    H228622   6.980   5.033   5.934 -1.5232  0.5232  0.2248
 2355TIP3   OH228623   7.107   4.479   6.575  0.2088 -0.5497 -0.2833
 2355TIP3    H128624   7.085   4.560   6.528  1.5486  0.0966  0.1886
 2355TIP3    H228625   7.060   4.487   6.658  1.2708  0.2902  0.2437
 2356TIP3   OH228626   0.599   1.227   0.300 -0.4771  0.2783 -0.0187
 2356TIP3    H128627   0.629   1.137   0.290 -0.5998  0.0873  1.2891
 2356TIP3    H228628   0.613   1.248   0.392 -0.4756  1.5930 -0.2984
 2357TIP3   OH228629   5.210   4.211   5.942  0.2359  0.2940 -0.6524
 2357TIP3    H128630   5.156   4.239   6.016 -0.2783  1.5713 -1.4864
 2357TIP3    H228631   5.228   4.292   5.894  0.6751 -0.4984 -1.8479
 2358TIP3   OH228632   5.707   3.192   7.059 -0.0161 -0.7928 -0.3834
 2358TIP3    H128633   5.737   3.102   7.073 -0.7854 -1.1625 -1.0678
 2358TIP3    H228634   5.773   3.246   7.103  1.8740 -1.5812 -2.1327
 2359TIP3   OH228635   6.869   1.452   6.709 -0.0710  0.4950  0.2810
 2359TIP3    H128636   6.898   1.463   6.618 -0.5852  0.0019  0.0586
 2359TIP3    H228637   6.838   1.361   6.713 -2.6205  1.3575  0.2485
 2360TIP3   OH228638   3.833   5.180   0.753  0.4495 -0.6216  0.1284
 2360TIP3    H128639   3.801   5.107   0.807  0.1695 -0.5804  0.0147
 2360TIP3    H228640   3.887   5.138   0.686 -1.5392 -0.9236 -1.3088
 2361TIP3   OH228641   5.959   5.054   7.686  0.3304 -0.2251 -0.2173
 2361TIP3    H128642   5.970   5.107   7.607 -0.7339 -2.1695 -1.7166
 2361TIP3    H228643   6.046   5.016   7.700 -0.8693 -4.9815 -4.2905
 2362TIP3   OH228644   0.595   3.227   6.685 -0.3684 -0.0986 -0.1221
 2362TIP3    H128645   0.518   3.184   6.647 -0.5138 -0.3428  0.4356
 2362TIP3    H228646   0.628   3.164   6.749  0.8104 -0.3591 -0.9615
 2363TIP3   OH228647   2.083   4.447   7.375 -0.0999  0.2033  0.5697
 2363TIP3    H128648   2.158   4.450   7.434  1.2806  0.7285 -1.1488
 2363TIP3    H228649   2.083   4.533   7.333 -1.5679  0.1444  0.4399
 2364TIP3   OH228650   4.065   2.581   1.671  0.5636 -0.0080 -0.2262
 2364TIP3    H128651   4.146   2.538   1.699 -0.5367 -1.1766  1.1872
 2364TIP3    H228652   4.043   2.640   1.743 -0.2120 -0.1844 -0.3205
 2365TIP3   OH228653   1.943   2.047   2.366  0.1949  0.5573  0.3167
 2365TIP3    H128654   1.937   2.141   2.381 -1.7521  0.2852  1.3693
 2365TIP3    H228655   1.870   2.010   2.415  0.3050 -1.4120 -0.9558
 2366TIP3   OH228656   0.207   5.145   6.126 -0.2434 -0.0881 -1.4843
 2366TIP3    H128657   0.120   5.116   6.097 -0.4243  0.9271 -1.9861
 2366TIP3    H228658   0.266   5.118   6.057  0.2155 -2.8456 -0.0828
 2367TIP3   OH228659   0.135   4.884   0.362 -0.2928  0.0421  0.1640
 2367TIP3    H128660   0.119   4.791   0.352 -3.2287  0.4988  0.2019
 2367TIP3    H228661   0.109   4.903   0.453 -1.0888  1.1361 -0.2775
 2368TIP3   OH228662   4.149   4.197   6.773 -0.4370  0.0430 -0.0368
 2368TIP3    H128663   4.191   4.282   6.771  0.3086 -0.3318 -0.2898
 2368TIP3    H228664   4.066   4.212   6.819 -2.5806  1.8996 -4.2938
 2369TIP3   OH228665   6.449   1.505   6.704  0.2104  0.1316  0.2092
 2369TIP3    H128666   6.458   1.413   6.729  0.4476 -0.5043 -2.1482
 2369TIP3    H228667   6.355   1.522   6.711 -0.0282 -0.7185 -0.7716
 2370TIP3   OH228668   4.806   3.897   7.698 -0.0244 -0.3626  0.0257
 2370TIP3    H128669   4.775   3.865   7.614 -2.0138 -2.1132  1.3806
 2370TIP3    H228670   4.778   3.989   7.701 -0.3117 -0.4156 -1.0346
 2371TIP3   OH228671   6.111   3.939   5.868 -0.8251  0.2055  0.0689
 2371TIP3    H128672   6.130   3.992   5.791 -1.6347 -0.9944 -0.9768
 2371TIP3    H228673   6.016   3.931   5.869 -0.6242 -4.0174 -1.7625
 2372TIP3   OH228674   6.230   3.678   6.825 -0.1696 -0.6300  0.0319
 2372TIP3    H128675   6.308   3.626   6.807  0.0235 -0.5466  0.6438
 2372TIP3    H228676   6.186   3.685   6.740  0.9525  0.1019 -0.4850
 2373TIP3   OH228677   0.581   4.713   1.506 -0.2668  0.4010 -0.0189
 2373TIP3    H128678   0.496   4.702   1.464 -0.5030  0.1920  0.5079
 2373TIP3    H228679   0.636   4.755   1.439 -0.5563 -0.1648 -0.6183
 2374TIP3   OH228680   6.148   4.454   5.756 -0.1789 -0.3608  0.8868
 2374TIP3    H128681   6.147   4.527   5.817  2.0515  0.3452  0.1384
 2374TIP3    H228682   6.059   4.450   5.721 -0.2771  2.1947  0.7381
 2375TIP3   OH228683   4.069   2.646   0.735  0.4490 -0.0366  0.1796
 2375TIP3    H128684   4.058   2.575   0.798 -0.0953 -1.4032 -1.4183
 2375TIP3    H228685   4.126   2.609   0.667  0.1498  1.0393 -0.6712
 2376TIP3   OH228686   0.511   6.405   5.911  0.1709  0.0718 -0.1257
 2376TIP3    H128687   0.593   6.382   5.867 -0.5319 -1.4061 -0.7112
 2376TIP3    H228688   0.476   6.321   5.941 -0.0552  0.9275  2.0549
 2377TIP3   OH228689   2.447   1.632   0.327 -0.0383 -0.1277  0.3620
 2377TIP3    H128690   2.362   1.618   0.284  1.0495 -1.8830 -1.3125
 2377TIP3    H228691   2.425   1.662   0.415 -2.4053 -0.5294 -0.0565
 2378TIP3   OH228692   3.393   2.016   7.585 -0.6204 -0.2884 -0.6108
 2378TIP3    H128693   3.398   2.112   7.591  1.6544 -0.4583  1.1105
 2378TIP3    H228694   3.425   1.996   7.497 -0.1722  0.4870 -0.6316
 2379TIP3   OH228695   1.731   3.524   7.524  0.6169 -0.3547  0.0737
 2379TIP3    H128696   1.710   3.434   7.549 -1.8275  0.0474 -0.4544
 2379TIP3    H228697   1.731   3.523   7.428 -2.1113  0.7510  0.0124
 2380TIP3   OH228698   6.985   3.301   7.777  0.0618 -0.0627  0.3868
 2380TIP3    H128699   7.060   3.246   7.755  0.8281  1.7435 -1.5305
 2380TIP3    H228700   7.011   3.346   7.857  1.4238  1.3326 -0.8418
 2381TIP3   OH228701   5.708   4.562   5.710 -0.4653  0.6365  0.1414
 2381TIP3    H128702   5.729   4.648   5.674 -0.1268  0.4282 -0.1580
 2381TIP3    H228703   5.660   4.517   5.640  1.4754 -0.3141 -0.6075
 2382TIP3   OH228704   0.343   2.748   7.402  0.4268 -0.1599 -0.3420
 2382TIP3    H128705   0.389   2.734   7.484 -1.0088  0.9860  0.6842
 2382TIP3    H228706   0.340   2.843   7.392 -2.1686 -0.1806 -0.0959
 2383TIP3   OH228707   6.147   4.167   5.715  0.1808 -0.0127  0.4184
 2383TIP3    H128708   6.132   4.258   5.738  1.7904  0.3314  0.1577
 2383TIP3    H228709   6.059   4.133   5.694 -0.3158  1.7432 -0.5147
 2384TIP3   OH228710   0.483   4.626   6.024 -0.2142  0.3036 -0.2672
 2384TIP3    H128711   0.551   4.692   6.030 -1.0090  1.2915 -1.8242
 2384TIP3    H228712   0.421   4.648   6.094  0.4990  0.0554  0.4425
 2385TIP3   OH228713   6.939   4.094   0.028 -0.0029  0.3600 -0.4417
 2385TIP3    H128714   6.919   4.064  -0.060 -1.4202 -0.0451  0.0014
 2385TIP3    H228715   6.881   4.169   0.042 -0.1123  0.1494  0.2965
 2386TIP3   OH228716   0.923   6.831   0.573  0.1365 -0.0948  0.3749
 2386TIP3    H128717   1.002   6.876   0.604  0.0310 -1.3390  2.5951
 2386TIP3    H228718   0.941   6.738   0.590 -1.4710 -0.4631  0.1194
 2387TIP3   OH228719   1.241   5.726   0.757 -0.0967  0.1500  0.7732
 2387TIP3    H128720   1.262   5.685   0.841 -0.2796 -1.7419 -0.0874
 2387TIP3    H228721   1.273   5.664   0.691 -1.2540  0.9329 -0.5557
 2388TIP3   OH228722   0.002   6.973   6.518 -0.1941  0.2619  0.0640
 2388TIP3    H128723   0.083   7.019   6.538 -1.2579  1.9535  0.5391
 2388TIP3    H228724   0.021   6.881   6.540  1.7487  0.5482 -0.3491
 2389TIP3   OH228725   6.858   0.779   0.620 -0.3204  0.1380  0.3268
 2389TIP3    H128726   6.912   0.769   0.698 -1.0770 -3.0073  0.5293
 2389TIP3    H228727   6.920   0.772   0.547 -0.1616 -1.2442  0.5866
 2390TIP3   OH228728   2.315   6.356   6.673 -0.3183  0.0646 -0.2534
 2390TIP3    H128729   2.312   6.450   6.651  3.4012  1.1324  3.1715
 2390TIP3    H228730   2.236   6.340   6.723 -0.5265  1.6188 -0.0552
 2391TIP3   OH228731   5.717   5.601   7.664 -0.2461 -0.3426 -0.5643
 2391TIP3    H128732   5.634   5.554   7.654 -1.3851  1.9114 -2.0574
 2391TIP3    H228733   5.709   5.677   7.606  1.1120  2.3059  2.5948
 2392TIP3   OH228734   5.685   4.159   7.026 -0.0855 -0.3229  0.3431
 2392TIP3    H128735   5.620   4.212   7.072 -0.1300  0.1612 -0.2630
 2392TIP3    H228736   5.691   4.199   6.939  1.5396  0.0780  0.6213
 2393TIP3   OH228737   1.195   3.829   7.269 -0.2263  0.2435 -0.1314
 2393TIP3    H128738   1.191   3.734   7.282  1.6950 -0.0356 -1.3601
 2393TIP3    H228739   1.128   3.847   7.203  0.6180 -0.5116 -1.2000
 2394TIP3   OH228740   7.023   5.770   7.814  0.2452  0.3463  0.3591
 2394TIP3    H128741   7.017   5.679   7.785 -2.5620  0.8012 -0.5903
 2394TIP3    H228742   6.974   5.772   7.896 -0.5015  1.2036 -0.1097
 2395TIP3   OH228743   4.868   3.322   7.880 -0.8006  0.2283 -0.5530
 2395TIP3    H128744   4.835   3.234   7.899  2.5971 -1.0663 -0.2128
 2395TIP3    H228745   4.920   3.311   7.800 -0.0025  1.8367 -0.2692
 2396TIP3   OH228746   1.376   4.820   1.533 -0.3340 -0.5651  0.3552
 2396TIP3    H128747   1.379   4.834   1.627  1.6036  1.8253 -0.0242
 2396TIP3    H228748   1.464   4.789   1.510 -0.7032 -0.8558 -0.7240
 2397TIP3   OH228749   0.870   5.770   2.266 -0.1601  0.0906  0.2318
 2397TIP3    H128750   0.867   5.725   2.350  0.4556 -1.5105 -0.5758
 2397TIP3    H228751   0.797   5.732   2.216  0.1021  0.2962 -0.3081
 2398TIP3   OH228752   1.989   2.408   7.602 -0.0426 -0.2090  0.6029
 2398TIP3    H128753   2.075   2.450   7.599  0.4894 -1.3703 -0.8681
 2398TIP3    H228754   1.930   2.473   7.565  0.5148 -0.1422 -0.1693
 2399TIP3   OH228755   5.629   3.685   7.485 -0.6499 -0.2503 -0.0988
 2399TIP3    H128756   5.691   3.665   7.555 -0.3522 -0.2537 -0.3641
 2399TIP3    H228757   5.666   3.643   7.407  1.1426  3.1884 -1.1759
 2400TIP3   OH228758   6.206   2.142   7.110 -0.7046  0.3520 -1.0511
 2400TIP3    H128759   6.188   2.227   7.070  0.5722  1.2512  0.2488
 2400TIP3    H228760   6.294   2.120   7.081 -0.7083 -0.1294 -0.7062
 2401TIP3   OH228761   0.979   2.044   0.807 -0.1263  0.1362  0.0456
 2401TIP3    H128762   0.935   1.962   0.783 -1.6625  0.8019  0.5335
 2401TIP3    H228763   1.066   2.037   0.767 -0.4449 -1.4776 -0.4041
 2402TIP3   OH228764   5.526   6.983   6.333 -0.0145 -0.1351 -0.2720
 2402TIP3    H128765   5.437   6.950   6.343 -0.5328  1.5025  0.8546
 2402TIP3    H228766   5.578   6.935   6.397 -0.3225 -0.2674 -0.1266
 2403TIP3   OH228767   4.309   6.885   0.502  0.2749 -0.3815 -0.2817
 2403TIP3    H128768   4.354   6.908   0.583  2.9371 -1.5261 -1.4024
 2403TIP3    H228769   4.216   6.885   0.526  1.0442 -1.4748  2.9569
 2404TIP3   OH228770   2.875   6.550   6.781 -0.0033  0.0575 -0.2285
 2404TIP3    H128771   2.798   6.582   6.736  1.2453  1.6788 -1.2524
 2404TIP3    H228772   2.903   6.623   6.836 -0.4445 -1.2666  1.8384
 2405TIP3   OH228773   0.873   3.746   5.890 -0.0248  0.1477 -0.4257
 2405TIP3    H128774   0.893   3.837   5.912 -1.7593  0.9814 -2.1788
 2405TIP3    H228775   0.787   3.731   5.927  0.0617 -0.6447 -0.5392
 2406TIP3   OH228776   4.346   3.519   7.851  0.1015 -0.3531  0.5363
 2406TIP3    H128777   4.372   3.603   7.814 -0.1339 -0.9158 -0.9650
 2406TIP3    H228778   4.405   3.505   7.925  1.7241  0.0226 -0.6620
 2407TIP3   OH228779   5.354   2.537   1.360  0.7169  0.5676 -0.4320
 2407TIP3    H128780   5.393   2.619   1.330  1.2761  0.8638  1.0533
 2407TIP3    H228781   5.420   2.499   1.419 -0.9834  0.8078  1.7028
 2408TIP3   OH228782   3.751   6.514   6.927  0.3876 -0.3814 -0.1680
 2408TIP3    H128783   3.676   6.471   6.969 -0.4734  0.6605 -0.6131
 2408TIP3    H228784   3.813   6.443   6.912 -0.6843 -1.3480 -0.1721
 2409TIP3   OH228785   6.389   5.265   7.619  0.4474 -0.2452 -0.0523
 2409TIP3    H128786   6.305   5.309   7.611  0.5085  0.1486  1.4191
 2409TIP3    H228787   6.450   5.322   7.572 -0.1919 -0.8289 -1.6335
 2410TIP3   OH228788   4.445   4.653   5.955 -0.5151 -0.8337 -0.0849
 2410TIP3    H128789   4.430   4.691   5.868 -0.6054  0.0592  0.3122
 2410TIP3    H228790   4.532   4.615   5.950 -0.4488 -0.6334 -0.5181
 2411TIP3   OH228791   3.885   4.694   0.610  0.7829  1.0741 -0.6354
 2411TIP3    H128792   3.812   4.654   0.563  0.8849 -0.4674  0.4648
 2411TIP3    H228793   3.963   4.667   0.560  0.7674  0.8474 -0.5370
 2412TIP3   OH228794   0.436   4.321   1.070 -0.0695 -0.1884 -0.2268
 2412TIP3    H128795   0.488   4.267   1.011  2.3804  0.8402  0.9513
 2412TIP3    H228796   0.433   4.271   1.152  2.2044  1.3693  0.8683
 2413TIP3   OH228797   6.006   2.023   7.236  0.8514 -0.2020  0.1837
 2413TIP3    H128798   6.027   1.953   7.298  2.3995 -0.2883 -0.4295
 2413TIP3    H228799   6.089   2.045   7.195  0.4959  2.4260  0.7921
 2414TIP3   OH228800   1.409   1.692   7.105 -0.9864  0.0269  0.7915
 2414TIP3    H128801   1.497   1.673   7.135 -0.2287  0.4204 -1.0902
 2414TIP3    H228802   1.356   1.620   7.138  0.5260 -1.5866 -0.2216
 2415TIP3   OH228803   4.011   3.021   6.579 -0.4104  0.0186  0.4031
 2415TIP3    H128804   4.006   2.994   6.487 -0.7137 -0.9773  0.7102
 2415TIP3    H228805   4.064   3.101   6.578 -0.9349  0.3634 -0.7165
 2416TIP3   OH228806   3.651   4.605   6.800  0.3571 -0.7456  1.0943
 2416TIP3    H128807   3.581   4.575   6.858 -2.0849  1.2343 -0.7476
 2416TIP3    H228808   3.692   4.677   6.848 -2.7092  1.9669 -0.2295
 2417TIP3   OH228809   4.583   3.086   0.347  0.3477  0.7706 -0.4195
 2417TIP3    H128810   4.542   3.151   0.405 -0.9188 -0.1358 -0.2725
 2417TIP3    H228811   4.552   3.109   0.260 -1.2947 -0.4939 -0.1957
 2418TIP3   OH228812   5.153   5.711   1.055  0.0967 -0.1804  0.1341
 2418TIP3    H128813   5.120   5.654   0.986  0.4324 -1.6904  1.2101
 2418TIP3    H228814   5.232   5.668   1.087  0.4862  1.0024  0.8118
 2419TIP3   OH228815   0.253   3.012   7.161  0.1562 -0.0992  0.8252
 2419TIP3    H128816   0.158   3.020   7.170  0.2996  3.1753  0.0723
 2419TIP3    H228817   0.288   3.093   7.198  2.7390 -1.5976  1.8375
 2420TIP3   OH228818   5.217   4.821   7.390  1.0423  0.5076 -0.2732
 2420TIP3    H128819   5.182   4.797   7.304 -0.0520 -2.6613  0.9817
 2420TIP3    H228820   5.180   4.907   7.408  0.1063  0.5677 -2.3193
 2421TIP3   OH228821   5.131   3.618   0.922  0.4298 -0.5120  0.0654
 2421TIP3    H128822   5.100   3.616   1.012  2.8457 -0.0346  0.9501
 2421TIP3    H228823   5.153   3.710   0.906 -0.4714 -0.5042 -1.1928
 2422TIP3   OH228824   0.780   0.894   7.547 -0.5581 -0.2827 -0.3430
 2422TIP3    H128825   0.867   0.931   7.563 -0.6148  0.4065 -1.5676
 2422TIP3    H228826   0.720   0.967   7.565 -0.6829  0.2026 -2.5389
 2423TIP3   OH228827   4.379   4.916   1.293 -0.1347 -0.1328 -0.1651
 2423TIP3    H128828   4.474   4.919   1.277 -0.0933 -1.8822 -0.4488
 2423TIP3    H228829   4.371   4.878   1.380 -0.5458  1.6204  0.5617
 2424TIP3   OH228830   5.588   3.314   6.261  0.5078  0.2173  0.0879
 2424TIP3    H128831   5.622   3.233   6.298 -0.8935 -0.5764 -0.3054
 2424TIP3    H228832   5.550   3.287   6.177  0.5568  1.3846 -0.3147
 2425TIP3   OH228833   2.455   5.864   7.050  0.3474  0.3956  0.2700
 2425TIP3    H128834   2.505   5.891   7.127  0.5381  2.7547 -0.6312
 2425TIP3    H228835   2.487   5.921   6.980 -2.1639  0.5633 -0.7865
 2426TIP3   OH228836   2.643   0.979   5.941  0.4028  0.6642  0.4794
 2426TIP3    H128837   2.602   0.981   5.854  0.4697  0.7274  0.4489
 2426TIP3    H228838   2.648   0.886   5.963  0.2971  0.6534  0.4570
 2427TIP3   OH228839   5.407   5.482   7.769 -0.5492  0.1538 -0.6599
 2427TIP3    H128840   5.441   5.572   7.770  0.8239 -0.3674  0.7527
 2427TIP3    H228841   5.336   5.482   7.833 -0.9822  0.3757 -1.1295
 2428TIP3   OH228842   4.982   4.634   5.913 -0.6376  0.1343  0.2676
 2428TIP3    H128843   5.069   4.611   5.948 -0.2127  1.8086  0.3575
 2428TIP3    H228844   4.982   4.599   5.824 -1.2508 -3.0700  1.4737
 2429TIP3   OH228845   1.587   2.231   0.563 -0.1006 -0.8089  0.0952
 2429TIP3    H128846   1.559   2.299   0.502  0.3701 -0.7167 -0.0167
 2429TIP3    H228847   1.648   2.276   0.622 -1.4468 -0.6079  1.3535
 2430TIP3   OH228848   6.593   5.569   1.093 -0.4354 -0.2015  0.2557
 2430TIP3    H128849   6.549   5.577   1.009 -2.0319 -0.1634  1.0695
 2430TIP3    H228850   6.523   5.579   1.158  0.2782 -3.0216  1.5501
 2431TIP3   OH228851   0.185   3.890   0.077  0.0143  0.0285  0.8111
 2431TIP3    H128852   0.239   3.961   0.042  0.4571  0.5659  2.5627
 2431TIP3    H228853   0.238   3.850   0.145 -0.7523 -1.1623  0.7205
 2432TIP3   OH228854   0.819   5.806   1.397  0.3253  0.2247  0.0335
 2432TIP3    H128855   0.724   5.805   1.396  0.3366 -0.0770 -1.0297
 2432TIP3    H228856   0.843   5.757   1.476 -0.3842 -1.5933 -0.8533
 2433TIP3   OH228857   6.527   5.615   7.551 -0.1519  0.1024  0.7517
 2433TIP3    H128858   6.463   5.567   7.498 -1.0816  1.1815  0.8688
 2433TIP3    H228859   6.578   5.665   7.487  1.1819 -1.4378  0.5812
 2434TIP3   OH228860   6.109   3.324   0.220  0.7081 -0.0122 -0.3061
 2434TIP3    H128861   6.051   3.398   0.203  1.4879  1.0843  1.6412
 2434TIP3    H228862   6.187   3.341   0.168  1.1397  0.8866  0.6068
 2435TIP3   OH228863   6.007   5.797   6.320 -0.2382 -0.5040  0.2786
 2435TIP3    H128864   6.031   5.847   6.398 -1.2553 -0.7479  0.7617
 2435TIP3    H228865   6.031   5.853   6.247  0.1660 -0.0147  0.7783
 2436TIP3   OH228866   5.936   6.944   0.645  0.1778  0.2508  0.2929
 2436TIP3    H128867   5.854   6.931   0.598  1.5435  0.2345 -2.1245
 2436TIP3    H228868   5.911   6.938   0.738 -2.9566  2.7883 -0.2978
 2437TIP3   OH228869   0.599   1.500   7.808 -0.3946 -0.7113 -0.0486
 2437TIP3    H128870   0.544   1.578   7.807  0.3066 -0.2149 -0.0818
 2437TIP3    H228871   0.620   1.487   7.900 -0.8328 -1.0922  0.0002
 2438TIP3   OH228872   2.379   0.318   0.471 -0.1185  0.0428  0.5726
 2438TIP3    H128873   2.445   0.367   0.520  0.1372 -0.3818  0.6556
 2438TIP3    H228874   2.347   0.379   0.404 -0.7366  0.7528  1.5047
 2439TIP3   OH228875   6.428   4.677   5.689  0.3632 -0.0423 -0.4485
 2439TIP3    H128876   6.514   4.634   5.692 -0.0876 -0.8371  1.3492
 2439TIP3    H228877   6.365   4.607   5.698 -0.5095  0.5211 -2.0210
 2440TIP3   OH228878   3.344   4.801   6.809  0.3101 -0.1983 -0.2001
 2440TIP3    H128879   3.259   4.846   6.810 -0.2843 -1.2832 -0.8943
 2440TIP3    H228880   3.395   4.850   6.744 -1.2281 -2.0738 -2.9276
 2441TIP3   OH228881   6.451   5.016   5.679  0.2476 -0.0215  0.0982
 2441TIP3    H128882   6.503   5.085   5.639  1.7606 -1.0967  0.1380
 2441TIP3    H228883   6.360   5.040   5.662  0.7969  1.1808 -1.1873
 2442TIP3   OH228884   0.152   5.313   0.248 -0.6076 -0.3144  0.1874
 2442TIP3    H128885   0.130   5.279   0.335 -0.8453  2.4068  1.2330
 2442TIP3    H228886   0.230   5.262   0.222 -0.5711 -1.2161  1.9350
 2443TIP3   OH228887   1.087   5.341   8.030 -0.6894  0.0663  0.7097
 2443TIP3    H128888   1.018   5.301   8.083 -1.9977  1.0281 -0.2055
 2443TIP3    H228889   1.074   5.435   8.041  0.6654  0.2561  0.7421
 2444TIP3   OH228890   2.470   0.554   6.347  0.1359 -0.1612 -0.3098
 2444TIP3    H128891   2.457   0.649   6.345  0.4923 -0.1191 -0.6580
 2444TIP3    H228892   2.506   0.533   6.261 -1.4705 -0.8462 -0.8329
 2445TIP3   OH228893   1.950   6.147   7.239 -0.3165  0.3766  0.4857
 2445TIP3    H128894   1.924   6.108   7.323 -2.0531  0.6042  0.0694
 2445TIP3    H228895   2.015   6.213   7.263 -0.1059 -0.2016  1.5563
 2446TIP3   OH228896   0.783   3.656   6.741 -0.3831 -0.6018  0.7337
 2446TIP3    H128897   0.747   3.582   6.692  0.7117 -0.6747  0.0243
 2446TIP3    H228898   0.711   3.719   6.745 -1.0318 -1.3222  0.5559
 2447TIP3   OH228899   4.469   5.465   2.017  0.8552  1.0903  0.2103
 2447TIP3    H128900   4.420   5.447   1.937  0.8483  0.2751  0.3972
 2447TIP3    H228901   4.404   5.504   2.076  1.0121  2.3219 -0.3987
 2448TIP3   OH228902   0.552   4.004   0.643 -0.3277  0.6747  0.1312
 2448TIP3    H128903   0.568   3.917   0.680 -0.6720  0.1360 -0.9730
 2448TIP3    H228904   0.548   4.062   0.719 -0.4594 -0.3318  0.8996
 2449TIP3   OH228905   3.064   3.288   7.779 -0.5077 -0.3084  0.1700
 2449TIP3    H128906   3.114   3.313   7.702 -1.2287 -1.2630 -0.6229
 2449TIP3    H228907   3.116   3.219   7.821 -0.6246 -0.5297 -0.0480
 2450TIP3   OH228908   2.527   0.226   7.850  0.0015  0.0462 -0.0372
 2450TIP3    H128909   2.499   0.256   7.764 -0.2201  0.0505  0.0373
 2450TIP3    H228910   2.448   0.229   7.904 -0.2464 -1.6406 -0.2971
 2451TIP3   OH228911   4.924   3.637   5.772  0.3291  0.0734 -0.2573
 2451TIP3    H128912   4.842   3.686   5.779 -1.3631 -2.5006 -1.2500
 2451TIP3    H228913   4.962   3.640   5.860 -1.7753 -0.3117  0.6817
 2452TIP3   OH228914   6.115   6.190   6.649  0.0054  0.2842  0.4740
 2452TIP3    H128915   6.177   6.225   6.713  0.0902  0.3830  0.3379
 2452TIP3    H228916   6.065   6.266   6.620 -1.5322 -0.0953  2.0619
 2453TIP3   OH228917   5.320   0.050   6.596  0.3087  0.1319  0.0747
 2453TIP3    H128918   5.333   0.053   6.501  2.4176  1.0614  0.3545
 2453TIP3    H228919   5.310   0.142   6.621 -0.1342 -0.1060  0.7652
 2454TIP3   OH228920   6.862   5.202   7.078  0.1703  0.4946  0.3555
 2454TIP3    H128921   6.906   5.238   7.155  2.3714 -1.4015  0.0289
 2454TIP3    H228922   6.912   5.123   7.056 -0.8624  0.6068 -2.5924
 2455TIP3   OH228923   7.047   4.420   5.918  0.0162 -0.1597  0.8499
 2455TIP3    H128924   7.070   4.504   5.879  1.6086 -1.0680 -0.2323
 2455TIP3    H228925   6.958   4.403   5.888 -0.6760  1.5350  1.8216
 2456TIP3   OH228926   6.425   5.774   6.648 -0.5236 -0.7205 -0.4267
 2456TIP3    H128927   6.421   5.867   6.625 -1.7374 -0.3632  1.1236
 2456TIP3    H228928   6.377   5.768   6.730  0.1515 -2.6205 -0.1519
 2457TIP3   OH228929   5.388   0.140   2.033  0.1529 -0.1083  0.0134
 2457TIP3    H128930   5.378   0.235   2.043 -2.5207 -0.3959  0.3352
 2457TIP3    H228931   5.441   0.130   1.954  0.0483  1.6311 -0.3033
 2458TIP3   OH228932   0.179   4.306   6.693  0.5860  0.3514 -0.3784
 2458TIP3    H128933   0.208   4.229   6.645  0.0575  0.9589 -1.7046
 2458TIP3    H228934   0.112   4.345   6.638 -1.8935 -0.3216  2.0345
 2459TIP3   OH228935   5.553   6.177   1.424 -0.3287  0.4840  0.0651
 2459TIP3    H128936   5.464   6.145   1.411 -0.9135  1.8756  0.5949
 2459TIP3    H228937   5.542   6.268   1.454  1.2822  1.3852 -1.9308
 2460TIP3   OH228938   5.329   2.626   0.468  0.2053  0.0838  0.1650
 2460TIP3    H128939   5.375   2.549   0.434 -1.8767 -0.4127 -1.6595
 2460TIP3    H228940   5.273   2.592   0.537 -0.5786 -0.0374 -0.5181
 2461TIP3   OH228941   5.624   6.157   7.076  0.1742 -0.5689  0.1861
 2461TIP3    H128942   5.547   6.206   7.108  0.3167 -0.2342  0.0186
 2461TIP3    H228943   5.695   6.222   7.076  0.3991 -0.8158  0.1067
 2462TIP3   OH228944   0.389   1.318   8.116 -0.4773  0.2513  0.6830
 2462TIP3    H128945   0.401   1.322   8.211 -0.9297 -3.2262  0.9654
 2462TIP3    H228946   0.464   1.269   8.084 -0.8924  0.4334 -0.6072
 2463TIP3   OH228947   1.173   4.128   0.678 -0.1365  0.1338  0.2396
 2463TIP3    H128948   1.138   4.136   0.590  0.8186  0.5716 -0.1089
 2463TIP3    H228949   1.234   4.054   0.673 -2.6676 -2.1149  1.3906
 2464TIP3   OH228950   6.091   5.751   5.575  0.3354 -0.1619 -0.1244
 2464TIP3    H128951   6.144   5.675   5.600  0.4249 -0.2005 -0.4326
 2464TIP3    H228952   6.109   5.816   5.643 -1.9546 -1.4208  1.7639
 2465TIP3   OH228953   0.429   4.580   7.839  0.2232  0.2875  0.3750
 2465TIP3    H128954   0.459   4.607   7.752 -0.5684  2.7890  0.8488
 2465TIP3    H228955   0.333   4.583   7.833  0.1105 -2.0110  0.5964
 2466TIP3   OH228956   6.045   4.493   7.760 -0.1161  0.1032 -0.2570
 2466TIP3    H128957   5.965   4.459   7.799  0.4008 -2.4517 -1.3281
 2466TIP3    H228958   6.023   4.506   7.667  0.2036  1.0778 -0.2017
 2467TIP3   OH228959   4.753   3.243   6.552  0.3518 -0.2434  0.1671
 2467TIP3    H128960   4.812   3.255   6.477  0.5695 -0.4517  0.3066
 2467TIP3    H228961   4.806   3.262   6.628 -0.4452  2.0807  0.1647
 2468TIP3   OH228962   5.037   3.420   5.629 -0.1368 -0.1494 -0.2368
 2468TIP3    H128963   5.119   3.469   5.620 -0.0363 -0.5368 -1.3858
 2468TIP3    H228964   4.987   3.469   5.695  0.9818  0.1280  0.4122
 2469TIP3   OH228965   3.796   0.186   7.997 -0.7411  0.3788 -0.2734
 2469TIP3    H128966   3.750   0.258   8.040 -1.7128 -1.6677  2.2436
 2469TIP3    H228967   3.862   0.159   8.061  0.9731  0.3168 -2.0242
 2470TIP3   OH228968   6.856   4.772   0.293 -0.0250  0.3977  0.4571
 2470TIP3    H128969   6.896   4.703   0.345  3.3714  2.2817  0.4824
 2470TIP3    H228970   6.882   4.752   0.203  2.2583  2.3933  0.6279
 2471TIP3   OH228971   3.532   2.265   7.843  0.1510 -0.2536 -0.7505
 2471TIP3    H128972   3.542   2.248   7.749  2.5196 -2.6173 -0.1243
 2471TIP3    H228973   3.498   2.183   7.879 -2.2482  1.1424  0.2623
 2472TIP3   OH228974   6.313   6.619   6.107  0.1065  0.1189  0.3702
 2472TIP3    H128975   6.403   6.600   6.080  0.5077 -1.5553  2.7448
 2472TIP3    H228976   6.314   6.712   6.129  0.3388  0.9644 -2.9574
 2473TIP3   OH228977   6.761   0.389   7.907 -0.4888 -0.0070 -0.6362
 2473TIP3    H128978   6.696   0.357   7.970 -1.9572 -0.3087 -2.2556
 2473TIP3    H228979   6.836   0.416   7.961 -1.4151 -0.9417  1.1686
 2474TIP3   OH228980   5.185   1.567   6.722 -0.0506  0.5470 -0.0275
 2474TIP3    H128981   5.265   1.531   6.682 -0.8870 -1.4290 -0.0008
 2474TIP3    H228982   5.198   1.555   6.816 -1.0700 -1.3750 -0.1020
 2475TIP3   OH228983   3.502   4.238   8.109  0.1710 -0.2467 -0.0878
 2475TIP3    H128984   3.572   4.211   8.049 -1.5116  1.0547 -2.7407
 2475TIP3    H228985   3.451   4.158   8.123 -0.1326 -0.3054 -1.4359
 2476TIP3   OH228986   0.748   5.480   8.109  0.2755 -0.2517 -0.1609
 2476TIP3    H128987   0.792   5.402   8.143  0.3313  0.5301  1.6284
 2476TIP3    H228988   0.659   5.475   8.145 -0.0430 -0.0066 -0.8852
 2477TIP3   OH228989   6.290   7.014   7.078  0.4597  0.5920 -0.2084
 2477TIP3    H128990   6.298   7.033   6.984  1.1554  0.9066 -0.0893
 2477TIP3    H228991   6.287   7.100   7.120 -0.2029  0.4538  0.0350
 2478TIP3   OH228992   1.020   7.026   0.385 -0.5745 -0.0345  0.6134
 2478TIP3    H128993   0.949   7.006   0.324 -1.0742 -0.9261  1.4812
 2478TIP3    H228994   0.976   7.052   0.466  0.0889 -0.4377  1.1129
 2479TIP3   OH228995   1.394   6.401   6.796 -0.4537 -0.1996 -0.2544
 2479TIP3    H128996   1.452   6.338   6.753 -1.9580 -1.2687 -0.7473
 2479TIP3    H228997   1.397   6.376   6.888  1.5363  1.1084  0.0730
 2480TIP3   OH228998   5.966   0.122   0.191 -0.5028  0.3660 -0.5308
 2480TIP3    H128999   6.041   0.117   0.250 -0.7796 -0.0187 -0.2031
 2480TIP3    H229000   5.999   0.168   0.114  0.3266 -0.6392 -0.7863
 2481TIP3   OH229001   1.741   4.633   0.675  0.2394  0.5503 -0.2480
 2481TIP3    H129002   1.806   4.576   0.716 -0.8455  1.0190  2.1759
 2481TIP3    H229003   1.781   4.720   0.678  0.5561  0.4390 -1.0721
 2482TIP3   OH229004   4.337   0.198   6.967 -0.1870 -0.1595  0.5196
 2482TIP3    H129005   4.297   0.261   6.907  0.9867  0.3041  0.2010
 2482TIP3    H229006   4.363   0.251   7.042  2.8679  0.1977 -0.7106
 2483TIP3   OH229007   4.745   4.077   7.404  0.2125 -0.6901  0.0765
 2483TIP3    H129008   4.736   3.984   7.423  0.1571 -0.6051  0.4823
 2483TIP3    H229009   4.674   4.097   7.344  0.1217 -0.8750  0.1244
 2484TIP3   OH229010   0.401   4.059   6.210  0.2976  0.1970 -0.8498
 2484TIP3    H129011   0.393   4.029   6.120 -0.9490 -0.4065 -0.5584
 2484TIP3    H229012   0.342   4.134   6.216  0.2205  0.1127 -0.5032
 2485TIP3   OH229013   0.983   5.601   5.923 -0.5252  0.0841  0.5018
 2485TIP3    H129014   1.069   5.633   5.896 -0.7210 -0.1685 -0.4381
 2485TIP3    H229015   1.000   5.549   6.001  0.2249 -0.2434  0.1258
 2486TIP3   OH229016   0.308   0.038   7.692 -0.1635  0.2886 -0.5448
 2486TIP3    H129017   0.302   0.022   7.786 -1.5250 -0.1574 -0.7021
 2486TIP3    H229018   0.355   0.121   7.685 -1.2665  1.0277  0.5731
 2487TIP3   OH229019   5.275   1.603   7.440  0.6542  0.2674 -0.0633
 2487TIP3    H129020   5.281   1.517   7.480  1.6431 -1.0473 -2.9467
 2487TIP3    H229021   5.195   1.641   7.477  1.1366 -1.1608  2.5242
 2488TIP3   OH229022   0.046   5.891   1.198  0.0257 -0.6181  0.0556
 2488TIP3    H129023   0.049   5.825   1.129 -2.2459  0.3162 -0.9937
 2488TIP3    H229024   0.095   5.853   1.270  0.1453 -2.7495 -1.1172
 2489TIP3   OH229025   6.141   3.946   7.391  0.2049 -0.2157  0.0791
 2489TIP3    H129026   6.223   3.987   7.417 -1.2095  2.5276  0.4081
 2489TIP3    H229027   6.114   3.993   7.312 -1.0269 -1.1016 -0.0501
 2490TIP3   OH229028   6.829   1.180   7.912  0.4671  0.5640  0.2778
 2490TIP3    H129029   6.889   1.225   7.853 -0.5039  0.5768 -0.7340
 2490TIP3    H229030   6.882   1.115   7.956  0.8565 -0.6789 -1.9610
 2491TIP3   OH229031   1.846   0.204   5.913  0.5755  0.3453  0.0842
 2491TIP3    H129032   1.857   0.110   5.929 -0.3521  0.6696  2.9627
 2491TIP3    H229033   1.754   0.214   5.888  0.1232  0.6843  1.7909
 2492TIP3   OH229034   3.414   7.031   7.034  0.4418  0.0774  0.5643
 2492TIP3    H129035   3.368   6.992   7.108 -2.0101 -1.4067 -1.6479
 2492TIP3    H229036   3.391   7.124   7.037 -1.1095 -0.2954  0.6696
 2493TIP3   OH229037   0.275   4.924   8.066 -0.2887  0.4584  0.0581
 2493TIP3    H129038   0.256   4.925   7.972  0.1720  1.8974 -0.0359
 2493TIP3    H229039   0.332   4.848   8.078 -0.3659  0.2584 -0.8380
 2494TIP3   OH229040   0.444   6.434   6.813  0.5211 -0.1038 -0.1684
 2494TIP3    H129041   0.445   6.485   6.893 -4.2388 -1.6972  1.0498
 2494TIP3    H229042   0.488   6.352   6.836  1.5018  0.4726  0.0231
 2495TIP3   OH229043   5.168   3.547   0.150 -0.1866 -0.5862 -0.2911
 2495TIP3    H129044   5.190   3.607   0.221  0.7226 -1.5329  0.2399
 2495TIP3    H229045   5.204   3.588   0.072 -0.0469 -0.1724 -0.0098
 2496TIP3   OH229046   0.076   0.343   6.083  0.2623  0.6644 -0.4197
 2496TIP3    H129047   0.047   0.385   6.164  0.6480 -0.0574  0.0953
 2496TIP3    H229048   0.131   0.409   6.041  3.0178 -0.2293  1.6471
 2497TIP3   OH229049   6.292   4.849   7.160 -0.0829 -0.0552 -0.1746
 2497TIP3    H129050   6.323   4.926   7.208 -2.4518  0.2706  0.8799
 2497TIP3    H229051   6.367   4.790   7.160  1.4736  1.8492 -0.1807
 2498TIP3   OH229052   2.749   5.424   6.838  0.3161  0.1738  0.0395
 2498TIP3    H129053   2.669   5.476   6.827  0.1593 -0.5975 -2.9950
 2498TIP3    H229054   2.817   5.489   6.860 -0.5368  1.2492 -0.4415
 2499TIP3   OH229055   2.261   5.014   0.382  0.5254 -0.7710  0.3131
 2499TIP3    H129056   2.220   4.979   0.303 -1.1987 -0.6382  1.1357
 2499TIP3    H229057   2.264   5.108   0.368  0.8685 -0.8064  0.1218
 2500TIP3   OH229058   1.158   0.222   6.317  0.3308 -0.0623  0.1083
 2500TIP3    H129059   1.233   0.230   6.258 -0.4309  1.7601 -0.6426
 2500TIP3    H229060   1.158   0.303   6.369 -1.0599 -0.0625  0.1436
 2501TIP3   OH229061   4.071   0.536   1.161  0.3463  0.1737  0.6238
 2501TIP3    H129062   4.107   0.605   1.105 -1.8999 -0.1531 -1.3254
 2501TIP3    H229063   4.033   0.583   1.235 -1.7959  1.1374 -1.0423
 2502TIP3   OH229064   5.134   6.581   1.629  0.1762 -0.5187  0.3748
 2502TIP3    H129065   5.061   6.548   1.681 -1.3754  0.2690 -1.2711
 2502TIP3    H229066   5.105   6.666   1.597  1.8778 -0.1258 -0.1910
 2503TIP3   OH229067   5.638   1.679   7.926  0.3220 -0.0146  0.1293
 2503TIP3    H129068   5.637   1.601   7.871 -1.0561 -0.8554  1.3224
 2503TIP3    H229069   5.581   1.741   7.881 -0.1003 -0.3848  0.1496
 2504TIP3   OH229070   6.830   3.438   7.144 -0.1000 -0.5004  0.1206
 2504TIP3    H129071   6.882   3.466   7.070  0.3728 -2.4942 -0.3402
 2504TIP3    H229072   6.752   3.398   7.104 -2.0899  2.5203  0.7910
 2505TIP3   OH229073   5.751   2.157   6.261  0.4016 -0.0555  0.0940
 2505TIP3    H129074   5.693   2.228   6.236 -1.1334 -1.4563 -0.4560
 2505TIP3    H229075   5.823   2.160   6.198  0.6948  1.3887  0.4833
 2506TIP3   OH229076   0.562   0.891   7.044 -0.7471  0.9620 -0.0683
 2506TIP3    H129077   0.621   0.876   7.118 -0.9666  0.4644  0.0026
 2506TIP3    H229078   0.589   0.828   6.978 -1.4219  0.4979  0.0920
 2507TIP3   OH229079   1.074   3.092   6.614  0.5772  0.2839 -0.2133
 2507TIP3    H129080   1.054   3.059   6.702  1.1701  1.0322  0.2034
 2507TIP3    H229081   1.009   3.160   6.599  0.3527  0.0244 -0.4440
 2508TIP3   OH229082   7.025   5.222   7.297 -0.1662 -0.4151 -0.1166
 2508TIP3    H129083   7.097   5.252   7.352  0.5325 -1.0170 -0.6965
 2508TIP3    H229084   6.984   5.151   7.347 -0.6374  0.2279  0.4109
 2509TIP3   OH229085   5.148   5.533   6.181 -0.3332 -0.0862  0.1426
 2509TIP3    H129086   5.222   5.501   6.233  0.0704 -0.3818 -0.6226
 2509TIP3    H229087   5.101   5.455   6.154  0.9497 -0.0975 -2.1664
 2510TIP3   OH229088   7.112   6.001   7.724 -0.0263 -0.0560  0.2200
 2510TIP3    H129089   7.083   6.054   7.799 -1.3653 -0.0072 -0.3191
 2510TIP3    H229090   7.078   5.914   7.742 -1.3661  0.2107 -0.8675
 2511TIP3   OH229091   1.042   2.405   0.579 -0.2744  0.2040 -0.2644
 2511TIP3    H129092   1.049   2.499   0.561 -0.6119  0.3967  0.5829
 2511TIP3    H229093   1.030   2.365   0.493  1.4419  0.7771 -0.7962
 2512TIP3   OH229094   1.585   5.748   6.278 -0.3240 -0.3693 -0.2151
 2512TIP3    H129095   1.497   5.777   6.299  0.7437  1.5460  1.7587
 2512TIP3    H229096   1.625   5.822   6.233  1.8573  0.6453  3.2734
 2513TIP3   OH229097   5.441   0.682   0.428  0.4786 -0.6785  0.1763
 2513TIP3    H129098   5.458   0.628   0.506 -3.6761 -0.4234  1.3520
 2513TIP3    H229099   5.371   0.636   0.382 -1.1658  2.1884 -0.3037
 2514TIP3   OH229100   6.772   3.590   7.758  0.4189 -0.2744  0.3461
 2514TIP3    H129101   6.786   3.679   7.725 -0.2588 -1.5724 -3.7042
 2514TIP3    H229102   6.860   3.552   7.760  0.3304 -0.5845 -1.2352
 2515TIP3   OH229103   5.433   1.863   6.545  0.4156 -0.3698  0.1440
 2515TIP3    H129104   5.468   1.905   6.467 -1.5535 -0.6808 -0.9431
 2515TIP3    H229105   5.426   1.934   6.610  2.4623 -0.2054  0.1924
 2516TIP3   OH229106   0.571   0.315   1.675  0.0286  0.1444  0.3414
 2516TIP3    H129107   0.547   0.248   1.611  1.4258 -0.0561  0.0251
 2516TIP3    H229108   0.496   0.375   1.676 -0.0069  0.1356 -1.4638
 2517TIP3   OH229109   0.195   0.180   5.827 -0.6397 -0.3646  0.5770
 2517TIP3    H129110   0.228   0.182   5.738 -0.5326 -2.0452  0.5682
 2517TIP3    H229111   0.134   0.255   5.832  0.3440  0.5175 -0.4873
 2518TIP3   OH229112   2.933   2.247   7.730 -0.2405 -0.3511 -0.5786
 2518TIP3    H129113   3.003   2.269   7.791 -0.6797 -1.9736  0.5531
 2518TIP3    H229114   2.977   2.198   7.660 -0.0832 -0.5500 -0.3448
 2519TIP3   OH229115   2.311   0.852   0.954  0.1941  0.2395 -0.0367
 2519TIP3    H129116   2.313   0.947   0.968  0.5186  0.1977  0.2007
 2519TIP3    H229117   2.380   0.835   0.891  0.9029  0.0180  0.7947
 2520TIP3   OH229118   6.895   0.568   7.595 -0.1514 -0.2486 -0.0886
 2520TIP3    H129119   6.931   0.649   7.557  0.3440 -1.1809 -1.6630
 2520TIP3    H229120   6.961   0.539   7.657  0.0801  0.0849 -0.1727
 2521TIP3   OH229121   2.598   5.445   1.640 -0.1009  0.2794 -0.6267
 2521TIP3    H129122   2.632   5.451   1.730 -0.5566 -1.4535 -0.3262
 2521TIP3    H229123   2.621   5.357   1.612 -1.4518  0.2388 -1.6156
 2522TIP3   OH229124   0.524   4.522   1.262  0.1378 -0.1902 -0.3954
 2522TIP3    H129125   0.598   4.566   1.219  0.1718 -0.5312 -0.6872
 2522TIP3    H229126   0.481   4.474   1.192 -0.3193 -0.0508 -0.2075
 2523TIP3   OH229127   2.249   3.087   7.519 -0.2062 -0.0049 -0.3402
 2523TIP3    H129128   2.245   3.092   7.423  0.5552  1.6573 -0.3045
 2523TIP3    H229129   2.246   3.178   7.548 -1.4709 -0.5513  1.2780
 2524TIP3   OH229130   0.350   2.172   1.398  0.3520  0.4443 -0.2219
 2524TIP3    H129131   0.438   2.152   1.428 -0.1500  0.5492  1.3955
 2524TIP3    H229132   0.319   2.241   1.457  0.3105  2.6660 -2.7261
 2525TIP3   OH229133   3.877   5.221   7.637  0.9151  0.6336 -0.4158
 2525TIP3    H129134   3.804   5.174   7.596  0.7380 -0.3689  1.0113
 2525TIP3    H229135   3.865   5.206   7.731  3.4572 -0.3107 -0.1981
 2526TIP3   OH229136   1.521   6.551   7.517  0.9112 -0.2616  0.0101
 2526TIP3    H129137   1.445   6.537   7.574  0.8404  2.6223  0.7454
 2526TIP3    H229138   1.594   6.561   7.578  0.9432  2.2219 -0.3635
 2527TIP3   OH229139   0.367   4.097   7.599 -0.1352  0.1758  0.1110
 2527TIP3    H129140   0.272   4.084   7.598 -0.1344 -0.1732  1.7479
 2527TIP3    H229141   0.402   4.012   7.627  0.5680  0.6713  0.7504
 2528TIP3   OH229142   6.758   5.014   1.541 -0.6042 -0.2003 -0.0347
 2528TIP3    H129143   6.687   5.022   1.604  1.9415  2.7723  2.6135
 2528TIP3    H229144   6.757   5.098   1.494  1.8602  0.3272  0.8294
 2529TIP3   OH229145   6.783   5.434   7.179  0.1247 -0.4884  0.0919
 2529TIP3    H129146   6.702   5.484   7.166  1.3018  1.8364  1.2920
 2529TIP3    H229147   6.787   5.375   7.105 -2.4308 -0.3022 -0.2456
 2530TIP3   OH229148   5.452   3.977   8.117 -0.3260  0.1835  0.1146
 2530TIP3    H129149   5.455   4.053   8.175 -1.1545 -0.4582  1.0132
 2530TIP3    H229150   5.524   3.922   8.146  0.8845  1.0802 -1.1786
 2531TIP3   OH229151   3.150   5.936   7.752 -0.2399 -0.7149  0.1956
 2531TIP3    H129152   3.068   5.979   7.727  0.7317 -0.0116 -1.8612
 2531TIP3    H229153   3.162   5.961   7.844 -2.0823 -0.4391  0.3819
 2532TIP3   OH229154   1.822   4.701   1.699  0.4022  0.2106 -0.2469
 2532TIP3    H129155   1.744   4.649   1.682 -0.2576  1.6974 -1.9137
 2532TIP3    H229156   1.860   4.662   1.778 -1.4037 -1.2216 -0.0488
 2533TIP3   OH229157   1.284   5.900   6.041  0.4755 -0.0370  0.5601
 2533TIP3    H129158   1.281   5.889   6.136 -1.8940  0.7495  0.5956
 2533TIP3    H229159   1.259   5.815   6.006 -0.2450  0.1405  0.6501
 2534TIP3   OH229160   6.657   5.051   0.065  0.3716 -0.2807 -0.6331
 2534TIP3    H129161   6.593   5.022  -0.000  0.9232 -0.4147 -1.1171
 2534TIP3    H229162   6.659   4.981   0.130 -0.3277 -0.0555 -0.3634
 2535TIP3   OH229163   1.466   4.707   6.752 -1.0619 -0.0830  0.1082
 2535TIP3    H129164   1.527   4.770   6.716  0.5883  0.6701  3.9810
 2535TIP3    H229165   1.479   4.628   6.700  2.0924  0.5584 -0.1690
 2536TIP3   OH229166   2.945   5.835   6.038  0.0053 -0.6600  0.0602
 2536TIP3    H129167   2.883   5.777   5.993  0.2592 -1.3062  0.5365
 2536TIP3    H229168   2.951   5.912   5.981 -0.2512 -1.1483 -0.6432
 2537TIP3   OH229169   4.462   5.036   7.643  0.2985 -0.2695 -0.0954
 2537TIP3    H129170   4.372   5.058   7.665 -0.6056 -3.3388 -0.3723
 2537TIP3    H229171   4.473   5.069   7.554 -0.2760  0.8470  0.2400
 2538TIP3   OH229172   6.173   4.358   6.952 -0.4242  0.4523 -0.3123
 2538TIP3    H129173   6.206   4.346   6.863 -0.6769 -0.7499 -0.2506
 2538TIP3    H229174   6.102   4.421   6.943  0.2501  1.1628 -0.7950
 2539TIP3   OH229175   5.820   3.848   6.377 -0.2868  0.2885  0.3587
 2539TIP3    H129176   5.912   3.866   6.393 -1.0054  1.9657  2.8498
 2539TIP3    H229177   5.805   3.762   6.416  0.6717 -0.9523 -1.9318
 2540TIP3   OH229178   1.315   3.696   0.019  0.0652 -0.3699 -0.1351
 2540TIP3    H129179   1.226   3.714  -0.012  0.8297  0.9148 -1.6554
 2540TIP3    H229180   1.306   3.618   0.074 -2.2106  0.5402  0.8420
 2541TIP3   OH229181   5.301   1.333   7.467 -0.0634  0.3634  0.5479
 2541TIP3    H129182   5.382   1.362   7.509 -0.2874  1.1993  0.4269
 2541TIP3    H229183   5.305   1.238   7.468  0.3346  0.3929  1.6703
 2542TIP3   OH229184   2.977   4.922   6.538  0.1120  0.3715 -0.1980
 2542TIP3    H129185   2.892   4.961   6.520  0.0569  0.0566 -0.6218
 2542TIP3    H229186   2.999   4.951   6.626 -0.5021  0.3331 -0.0322
 2543TIP3   OH229187   2.333   3.362   7.501 -0.1196 -0.0356  0.2130
 2543TIP3    H129188   2.408   3.336   7.554  0.0794 -0.3909 -0.2447
 2543TIP3    H229189   2.371   3.391   7.418 -0.5519 -1.1019 -0.3667
 2544TIP3   OH229190   6.155   0.077   0.398  0.0969 -0.0885 -0.3336
 2544TIP3    H129191   6.189   0.056   0.485  1.9031  1.4765 -0.6234
 2544TIP3    H229192   6.161  -0.005   0.350 -0.1570 -0.7722  0.7636
 2545TIP3   OH229193   3.586   3.712   6.212  0.0973  0.2548 -0.1897
 2545TIP3    H129194   3.511   3.768   6.188  0.7206  1.4204  0.5213
 2545TIP3    H229195   3.602   3.659   6.134 -0.3196  1.3030 -1.0020
 2546TIP3   OH229196   0.854   6.284   6.335 -0.7739  0.4998 -0.2897
 2546TIP3    H129197   0.948   6.300   6.331 -0.3241 -0.6884  3.2665
 2546TIP3    H229198   0.814   6.371   6.340  0.4397  0.9798  1.7501
 2547TIP3   OH229199   1.183   6.422   7.500 -0.4031 -0.2029 -0.1868
 2547TIP3    H129200   1.156   6.501   7.453 -1.5579 -1.4198 -1.5859
 2547TIP3    H229201   1.103   6.388   7.540  0.3346  0.1034  1.6471
 2548TIP3   OH229202   2.296   4.920   7.135 -0.1439 -0.2567 -0.8111
 2548TIP3    H129203   2.362   4.964   7.080  1.4424 -0.8651  0.5586
 2548TIP3    H229204   2.212   4.952   7.101  0.8985  2.3772 -1.0787
 2549TIP3   OH229205   6.976   4.453   6.860  0.2064 -0.2029  0.3106
 2549TIP3    H129206   6.909   4.423   6.798  0.5624  0.7736 -0.5579
 2549TIP3    H229207   7.033   4.377   6.872 -2.4241 -1.8465  2.9598
 2550TIP3   OH229208   4.676   1.700   0.007 -0.2562  0.2328 -0.3205
 2550TIP3    H129209   4.733   1.673   0.079  1.5574  2.5169 -0.8059
 2550TIP3    H229210   4.593   1.721   0.049  0.5658  0.8905  1.0330
 2551TIP3   OH229211   5.275   1.860   7.941 -0.2260 -0.3833  0.0232
 2551TIP3    H129212   5.325   1.941   7.932 -0.2268 -0.5013 -1.1800
 2551TIP3    H229213   5.239   1.863   8.029 -2.3704  2.1495 -0.8773
 2552TIP3   OH229214   6.878   5.465   7.455  0.2115 -0.2550 -0.1611
 2552TIP3    H129215   6.879   5.446   7.361  1.4847 -1.0691 -0.0017
 2552TIP3    H229216   6.968   5.494   7.474  0.3783 -1.5412  1.0861
 2553TIP3   OH229217   0.709   6.332   7.751  0.5717  0.2450 -0.2545
 2553TIP3    H129218   0.615   6.346   7.746  0.8273  1.6601 -1.4615
 2553TIP3    H229219   0.719   6.236   7.752 -0.8424  0.0805 -0.5660
 2554TIP3   OH229220   1.748   6.113   7.805  0.2112  0.2298  0.0880
 2554TIP3    H129221   1.720   6.119   7.714  0.4812  0.5242  0.0216
 2554TIP3    H229222   1.770   6.203   7.829  2.2844 -0.1440 -0.2621
 2555TIP3   OH229223   3.831   3.099   7.360  0.3029  0.1748  0.1227
 2555TIP3    H129224   3.893   3.142   7.301 -1.0059  1.3403 -0.4328
 2555TIP3    H229225   3.764   3.063   7.302 -0.4749  0.4622  0.8331
 2556TIP3   OH229226   0.358   5.601   7.196 -0.5973  0.0620 -0.0574
 2556TIP3    H129227   0.377   5.650   7.116  0.2747 -0.2648 -0.0666
 2556TIP3    H229228   0.374   5.663   7.267  2.3603 -0.6936  0.0210
 2557TIP3   OH229229   0.678   4.975   7.110  0.3753  0.2876  0.0137
 2557TIP3    H129230   0.662   5.060   7.151 -0.3872 -0.3850  1.1298
 2557TIP3    H229231   0.591   4.937   7.099  0.4921  0.6821 -2.7776
 2558TIP3   OH229232   5.389   3.055   6.540 -0.1125  0.3281  0.2620
 2558TIP3    H129233   5.381   3.039   6.634 -3.0372 -1.3067 -0.1952
 2558TIP3    H229234   5.352   3.142   6.527  0.3120  0.5635  0.6389
 2559TIP3   OH229235   3.679   4.956   7.407  0.5302  0.3043  0.0987
 2559TIP3    H129236   3.651   5.048   7.408 -0.8299 -0.1080  1.8088
 2559TIP3    H229237   3.598   4.906   7.410  1.3095 -0.9463  0.6126
 2560TIP3   OH229238   1.289   7.077   6.507 -0.1709  0.5873 -0.5765
 2560TIP3    H129239   1.197   7.083   6.483 -0.2610 -0.9386 -0.6957
 2560TIP3    H229240   1.295   6.995   6.557  1.3177  0.0773 -1.5552
 2561TIP3   OH229241   6.524   1.354   0.426  0.0058 -0.5807 -0.0481
 2561TIP3    H129242   6.604   1.302   0.418  0.1344 -0.5053  0.7079
 2561TIP3    H229243   6.539   1.411   0.501 -0.2779  0.3047 -0.6510
 2562TIP3   OH229244   2.575   2.499   6.991  0.5828 -0.2254 -0.1978
 2562TIP3    H129245   2.639   2.501   6.920  0.7773  1.2131  0.0185
 2562TIP3    H229246   2.511   2.433   6.963  2.7225 -2.4936  0.0757
 2563TIP3   OH229247   1.141   0.482   5.994 -0.0344 -0.4371 -0.1575
 2563TIP3    H129248   1.209   0.534   5.951  0.9315  0.7187  2.5930
 2563TIP3    H229249   1.061   0.504   5.948  0.9658  0.6793 -1.3936
 2564TIP3   OH229250   0.558   3.890   6.941 -0.5664  0.0224  0.1766
 2564TIP3    H129251   0.522   3.805   6.968 -0.1061 -0.0212  0.6655
 2564TIP3    H229252   0.565   3.884   6.846 -0.3868 -0.5464  0.2228
 2565TIP3   OH229253   5.875   4.209   6.547 -0.1580 -0.1830 -0.3257
 2565TIP3    H129254   5.947   4.211   6.610  0.2184  0.7694 -0.7650
 2565TIP3    H229255   5.918   4.193   6.463 -0.6801 -1.6457 -0.3242
 2566TIP3   OH229256   2.328   3.144   0.842 -0.1414  0.1560  0.0062
 2566TIP3    H129257   2.271   3.113   0.772 -0.7106  1.9717 -0.3619
 2566TIP3    H229258   2.417   3.136   0.807 -0.3893  0.5283 -0.7099
 2567TIP3   OH229259   0.873   4.951   7.718  0.1040  0.2377 -0.3171
 2567TIP3    H129260   0.889   4.903   7.636 -0.0779 -0.6759  0.1738
 2567TIP3    H229261   0.778   4.964   7.719 -0.0905 -1.1593  0.5134
 2568TIP3   OH229262   3.744   1.584   1.171  0.3243  0.4614  0.4415
 2568TIP3    H129263   3.727   1.627   1.255  0.2368  1.6953 -0.1815
 2568TIP3    H229264   3.806   1.514   1.191  2.4163  2.4490  1.1270
 2569TIP3   OH229265   2.795   4.148   6.192 -0.2277 -0.2604  0.2612
 2569TIP3    H129266   2.847   4.213   6.144 -1.1056 -0.5557 -1.1453
 2569TIP3    H229267   2.706   4.182   6.188 -0.5655 -1.1435  0.2025
 2570TIP3   OH229268   0.532   3.375   7.905  0.3535  0.1176 -0.6765
 2570TIP3    H129269   0.463   3.355   7.969  0.6085 -0.9760 -0.7307
 2570TIP3    H229270   0.578   3.450   7.943 -1.0481  1.0504 -0.7867
 2571TIP3   OH229271   7.061   0.020   5.905 -0.5006 -0.4990 -0.3424
 2571TIP3    H129272   7.018  -0.012   5.826  0.0640  3.6251 -2.5093
 2571TIP3    H229273   6.995   0.075   5.947  0.0695 -0.5539  0.6228
 2572TIP3   OH229274   6.775   5.484   0.476 -0.2484 -0.4256 -0.0379
 2572TIP3    H129275   6.722   5.479   0.555 -0.9152 -0.0713 -0.4595
 2572TIP3    H229276   6.844   5.548   0.497 -1.1316  0.5825 -0.1499
 2573TIP3   OH229277   2.817   3.732   7.452 -0.4588  0.1355  0.3291
 2573TIP3    H129278   2.736   3.757   7.408 -1.2306 -2.5578  0.1291
 2573TIP3    H229279   2.826   3.793   7.525 -3.5755 -0.5992  1.3741
 2574TIP3   OH229280   4.709   0.912   7.409  0.0335 -0.4209  0.2773
 2574TIP3    H129281   4.785   0.960   7.376  1.6200 -1.1311  2.7792
 2574TIP3    H229282   4.650   0.979   7.442 -0.2685  0.1039 -1.2606
 2575TIP3   OH229283   5.939   1.835   0.121  0.5285 -0.5334  0.0708
 2575TIP3    H129284   6.021   1.844   0.073 -0.1859 -0.5557 -1.2017
 2575TIP3    H229285   5.951   1.759   0.177  0.8233 -1.5377 -1.3095
 2576TIP3   OH229286   5.745   5.373   7.065 -0.0833 -0.0194  0.3656
 2576TIP3    H129287   5.688   5.312   7.113 -1.7486 -0.7426 -2.4050
 2576TIP3    H229288   5.688   5.448   7.045  0.9178  0.7900  0.5111
 2577TIP3   OH229289   2.107   3.548   7.823  0.3090  0.0891 -0.1540
 2577TIP3    H129290   2.098   3.458   7.852 -1.3308  0.9444  2.1871
 2577TIP3    H229291   2.028   3.565   7.771 -0.0966  0.5761  0.6054
 2578TIP3   OH229292   6.044   1.849   0.677 -0.1902  0.6048 -0.3399
 2578TIP3    H129293   6.090   1.775   0.637 -1.1600 -0.3837  0.3473
 2578TIP3    H229294   5.968   1.810   0.720 -1.1702  2.1109 -0.6650
 2579TIP3   OH229295   2.546   6.042   6.844  0.1518  0.3438 -0.0511
 2579TIP3    H129296   2.503   6.128   6.845  0.8565  0.7273 -1.2805
 2579TIP3    H229297   2.630   6.058   6.801  0.2678 -0.9824 -0.3280
 2580TIP3   OH229298   2.273   1.042   0.640  0.0314 -0.2073 -0.0813
 2580TIP3    H129299   2.224   1.068   0.562  2.0765  0.4749 -1.1839
 2580TIP3    H229300   2.271   0.947   0.639  0.3761 -0.2083 -1.2046
 2581TIP3   OH229301   4.281   6.293   1.084  0.0824 -0.6950 -0.5717
 2581TIP3    H129302   4.344   6.304   1.156 -0.1553  0.5672 -0.5494
 2581TIP3    H229303   4.335   6.282   1.006  0.4116 -4.6346  0.0741
 2582TIP3   OH229304   1.326   4.201   7.221  0.2810  0.2153 -0.0565
 2582TIP3    H129305   1.244   4.227   7.265 -0.2371 -0.0605 -0.8469
 2582TIP3    H229306   1.380   4.280   7.223  0.5316  0.0159  1.6756
 2583TIP3   OH229307   2.251   6.812   0.635 -0.3920  0.4190  0.7104
 2583TIP3    H129308   2.276   6.775   0.720 -0.1358 -1.5662 -0.1931
 2583TIP3    H229309   2.334   6.837   0.595 -0.3198 -0.7644  0.1118
 2584TIP3   OH229310   0.770   0.252   6.222  0.3616 -0.2378  0.1477
 2584TIP3    H129311   0.684   0.211   6.221  0.1451  0.2044  0.1909
 2584TIP3    H229312   0.824   0.196   6.168 -0.3813  0.3815 -1.2690
 2585TIP3   OH229313   0.732   5.553   6.194 -0.2685  0.0870 -0.4710
 2585TIP3    H129314   0.670   5.599   6.138 -1.4189 -0.8924 -0.0267
 2585TIP3    H229315   0.738   5.465   6.156 -0.1003 -0.1934  0.1879
 2586TIP3   OH229316   3.571   5.907   7.522  0.2438  0.4439  0.4963
 2586TIP3    H129317   3.533   5.912   7.609  0.3760 -3.3549  0.8851
 2586TIP3    H229318   3.663   5.932   7.534  0.5214 -1.0840  1.6790
 2587TIP3   OH229319   6.679   5.892   0.643 -0.4242 -0.2569  0.1697
 2587TIP3    H129320   6.764   5.885   0.599 -0.0063 -0.4373  1.0010
 2587TIP3    H229321   6.616   5.899   0.571  0.1753 -1.4006 -0.4850
 2588TIP3   OH229322   0.130   6.284   0.845  0.1245  0.0490  0.0338
 2588TIP3    H129323   0.152   6.203   0.890  0.1375  0.1115  0.1396
 2588TIP3    H229324   0.111   6.258   0.755  2.6858  0.2541 -0.5892
 2589TIP3   OH229325   0.231   4.077   7.991  0.7020  0.1329  0.1158
 2589TIP3    H129326   0.160   4.102   8.051 -0.3539  0.4539 -1.2338
 2589TIP3    H229327   0.252   4.157   7.944  0.0181 -0.5921 -1.4571
 2590TIP3   OH229328   7.041   3.885   0.162 -0.1834  0.3252 -0.3747
 2590TIP3    H129329   7.016   3.971   0.128  2.5822  1.2036 -0.3365
 2590TIP3    H229330   7.137   3.885   0.160 -0.0846 -2.0446  1.4174
 2591TIP3   OH229331   6.321   3.013   0.149  0.4826 -0.6348 -0.1250
 2591TIP3    H129332   6.322   2.918   0.144 -3.8785 -0.7400 -0.7115
 2591TIP3    H229333   6.278   3.041   0.068 -1.6831  1.5931  1.7261
 2592TIP3   OH229334   2.195   6.157   6.246  0.5516  0.6079  0.0142
 2592TIP3    H129335   2.280   6.196   6.267  0.7640  0.3379 -0.3303
 2592TIP3    H229336   2.196   6.149   6.150  0.8342 -0.9634  0.1421
 2593TIP3   OH229337   6.628   0.760   6.540 -0.2087 -0.5955  0.7230
 2593TIP3    H129338   6.577   0.707   6.602 -1.2651 -1.4699 -0.8612
 2593TIP3    H229339   6.564   0.820   6.501  0.8110  1.2765  1.8412
 2594TIP3   OH229340   1.152   2.855   7.338 -0.4312 -0.3833  0.4616
 2594TIP3    H129341   1.230   2.881   7.386  0.2176 -1.2978 -0.0851
 2594TIP3    H229342   1.120   2.936   7.299  0.4155 -0.0517  0.4435
 2595TIP3   OH229343   6.138   3.095   6.628 -0.5035  0.2604 -0.0415
 2595TIP3    H129344   6.132   3.128   6.538  0.7563 -1.7127 -0.8748
 2595TIP3    H229345   6.231   3.097   6.649 -0.7307  0.1236  1.0141
 2596TIP3   OH229346   6.870   3.482   6.659 -0.1519 -0.0972 -0.0541
 2596TIP3    H129347   6.823   3.546   6.606  0.0503 -0.3888 -0.5965
 2596TIP3    H229348   6.869   3.402   6.606  0.2516 -0.3301  0.2829
 2597TIP3   OH229349   2.907   0.315   7.248 -0.3144 -0.0394  0.2381
 2597TIP3    H129350   2.815   0.328   7.223 -0.7649 -1.1057  1.2739
 2597TIP3    H229351   2.928   0.228   7.213  0.5783  0.5874 -0.7834
 2598TIP3   OH229352   6.147   4.475   6.306  0.1317 -0.0946 -0.0154
 2598TIP3    H129353   6.070   4.454   6.252 -0.2430  0.7965  0.1650
 2598TIP3    H229354   6.112   4.487   6.394  0.6109 -0.5849  0.2426
 2599TIP3   OH229355   1.786   0.633   6.153  0.1043  0.4851  0.5100
 2599TIP3    H129356   1.875   0.627   6.186  1.0067  0.0009 -1.9123
 2599TIP3    H229357   1.738   0.565   6.201  1.9060 -1.7245 -0.7232
 2600TIP3   OH229358   5.743   5.126   0.021  0.0101 -0.1333  0.6598
 2600TIP3    H129359   5.794   5.064   0.073  1.6527  0.4069 -0.2626
 2600TIP3    H229360   5.658   5.083   0.010  1.3537 -2.5995 -0.6258
 2601TIP3   OH229361   1.373   6.969   7.087  0.2296  0.0151  0.5612
 2601TIP3    H129362   1.388   6.882   7.125 -0.3877 -0.6323 -0.6497
 2601TIP3    H229363   1.303   6.956   7.023  1.2803  1.0546 -0.8577
 2602TIP3   OH229364   5.244   5.861   7.415 -0.5600  0.5555 -0.3402
 2602TIP3    H129365   5.323   5.913   7.406 -1.5904  2.3202  0.5180
 2602TIP3    H229366   5.208   5.856   7.327  1.8231 -2.4772 -1.2215
 2603TIP3   OH229367   3.704   0.230   0.273  0.0236  0.4595 -0.4029
 2603TIP3    H129368   3.687   0.146   0.230  2.7275 -0.3688  0.0595
 2603TIP3    H229369   3.691   0.295   0.203  2.4209 -0.7220 -2.0126
 2604TIP3   OH229370   2.631   6.655   0.648 -0.0186 -0.4300 -0.3254
 2604TIP3    H129371   2.562   6.617   0.702 -0.5497 -1.2997 -1.6100
 2604TIP3    H229372   2.708   6.601   0.665  0.0203 -0.2201  0.1613
 2605TIP3   OH229373   6.253   0.017   7.831 -0.3455  0.0009  0.5348
 2605TIP3    H129374   6.304   0.055   7.902 -1.3168  4.5064 -1.0057
 2605TIP3    H229375   6.170  -0.007   7.871  0.1376 -0.0590  1.5026
 2606TIP3   OH229376   0.726   1.043   6.610 -0.1081 -0.7415 -0.0920
 2606TIP3    H129377   0.773   1.125   6.597 -0.0651 -0.5676  1.0835
 2606TIP3    H229378   0.638   1.069   6.636 -0.3210 -1.0662 -0.4847
 2607TIP3   OH229379   3.338   6.583   1.407  0.0218 -0.1348 -0.0473
 2607TIP3    H129380   3.267   6.630   1.363 -0.5660 -0.1635  0.8629
 2607TIP3    H229381   3.377   6.529   1.338 -1.2980 -0.6619 -0.3926
 2608TIP3   OH229382   1.724   3.153   6.902  0.2614  0.0600 -0.2459
 2608TIP3    H129383   1.700   3.111   6.819 -0.9836  0.9855 -0.3814
 2608TIP3    H229384   1.787   3.094   6.942  0.3902 -0.7130 -1.5634
 2609TIP3   OH229385   4.933   2.086   1.137  0.1978 -0.1664  0.3040
 2609TIP3    H129386   5.005   2.149   1.144  0.0509 -0.0715  1.0122
 2609TIP3    H229387   4.948   2.025   1.209  0.5044 -1.1153 -0.5651
 2610TIP3   OH229388   3.044   4.199   7.568  0.6181 -0.4835 -0.2880
 2610TIP3    H129389   2.949   4.206   7.567  0.6268 -0.4732 -1.1705
 2610TIP3    H229390   3.062   4.124   7.624  0.0591 -1.0213 -0.8261
 2611TIP3   OH229391   2.693   0.415   1.740  0.2086  0.0097  0.1736
 2611TIP3    H129392   2.647   0.424   1.824  0.0394  0.3502  0.0436
 2611TIP3    H229393   2.756   0.486   1.740  0.8785 -0.5736  0.4383
 2612TIP3   OH229394   5.442   4.896   7.515  0.5738 -0.0454 -0.0578
 2612TIP3    H129395   5.471   4.835   7.583 -1.0889 -0.0897  0.6319
 2612TIP3    H229396   5.383   4.844   7.460 -0.9141  0.9518  0.5779
 2613TIP3   OH229397   6.230   1.167   1.490  0.0118  0.4845  0.1665
 2613TIP3    H129398   6.166   1.211   1.435 -0.4651 -0.3276  0.0598
 2613TIP3    H229399   6.236   1.078   1.453 -1.0899 -0.3951  2.0700
 2614TIP3   OH229400   1.892   4.868   6.169 -0.2004  0.6918  0.0380
 2614TIP3    H129401   1.964   4.814   6.203 -1.1813  0.0101  1.0286
 2614TIP3    H229402   1.932   4.915   6.095  0.7380 -1.1967 -0.7094
 2615TIP3   OH229403   5.498   0.761   0.768  0.0136 -0.3430 -0.0592
 2615TIP3    H129404   5.418   0.757   0.820  0.5878  1.6228  1.0296
 2615TIP3    H229405   5.532   0.672   0.769 -0.6878 -0.6109  1.8315
 2616TIP3   OH229406   5.570   3.302   6.595 -1.2139 -0.8115  0.5341
 2616TIP3    H129407   5.595   3.268   6.509 -2.2919 -0.9008  0.2473
 2616TIP3    H229408   5.481   3.335   6.582 -0.2472  2.0224  0.8420
 2617TIP3   OH229409   1.584   5.536   7.274 -0.1212  0.5878  0.2938
 2617TIP3    H129410   1.598   5.534   7.369 -0.2867 -1.5633  0.2923
 2617TIP3    H229411   1.638   5.609   7.244 -0.0767  1.3072  2.0329
 2618TIP3   OH229412   1.081   0.000   1.182  0.1680 -0.6068 -0.8586
 2618TIP3    H129413   1.114  -0.014   1.093 -0.8822 -2.3065 -0.9943
 2618TIP3    H229414   1.137  -0.054   1.237  0.3422 -0.1253 -0.5552
 2619TIP3   OH229415   1.625   6.316   7.631  0.1849  0.4256 -0.1131
 2619TIP3    H129416   1.646   6.346   7.543 -0.1600 -0.5725 -0.5471
 2619TIP3    H229417   1.535   6.285   7.625  0.1730  0.3182  0.5765
 2620TIP3   OH229418   3.683   4.871   5.785 -0.6774  0.0399 -0.8295
 2620TIP3    H129419   3.643   4.789   5.815 -1.5475  0.1598 -1.6324
 2620TIP3    H229420   3.768   4.845   5.751 -1.3919 -0.6991 -2.0852
 2621TIP3   OH229421   0.422   0.264   7.083  0.0489  0.6990  0.2797
 2621TIP3    H129422   0.428   0.330   7.014  1.5500  1.2417  0.9071
 2621TIP3    H229423   0.353   0.296   7.141  0.5844  1.5719  0.4352
 2622TIP3   OH229424   6.563   4.922   6.164  0.8702  0.6689  0.0754
 2622TIP3    H129425   6.648   4.884   6.185 -0.5637 -2.2626  0.8850
 2622TIP3    H229426   6.543   4.890   6.076  0.0734  0.3253  0.3767
 2623TIP3   OH229427   6.331   6.206   6.146  0.0474 -0.5636  0.4262
 2623TIP3    H129428   6.391   6.156   6.091 -1.1788 -0.6949 -0.8074
 2623TIP3    H229429   6.250   6.210   6.096 -0.3425  1.3898  1.1673
 2624TIP3   OH229430   2.007   4.960   7.648  0.3089  0.1310 -0.1029
 2624TIP3    H129431   1.931   4.903   7.655 -1.0327  1.8292 -0.4576
 2624TIP3    H229432   2.036   4.973   7.738  0.0783 -0.4016  0.0481
 2625TIP3   OH229433   2.520   3.508   7.361  0.2430 -0.5267  0.5614
 2625TIP3    H129434   2.567   3.496   7.443  0.3231 -1.2254  0.4208
 2625TIP3    H229435   2.468   3.587   7.374  0.2451 -0.6441  1.2874
 2626TIP3   OH229436   7.061   6.974   7.154 -0.1574 -0.0648 -0.5800
 2626TIP3    H129437   7.051   6.881   7.172 -0.7833  0.1843  0.3584
 2626TIP3    H229438   7.048   6.981   7.059  1.9040 -1.1905 -0.9569
 2627TIP3   OH229439   1.174   5.927   0.497  0.1313  0.0218 -0.1661
 2627TIP3    H129440   1.114   5.873   0.548 -0.7735  0.9667 -0.2275
 2627TIP3    H229441   1.120   5.964   0.427  1.4030 -1.4450 -1.9724
 2628TIP3   OH229442   0.165   1.566   2.052 -0.2621  0.2378 -0.0860
 2628TIP3    H129443   0.214   1.636   2.095  0.1814  0.1953 -0.5113
 2628TIP3    H229444   0.231   1.501   2.029 -0.8373 -0.8728  1.3507
 2629TIP3   OH229445   0.978   2.995   6.868 -0.7537 -0.2679  0.3089
 2629TIP3    H129446   1.002   3.067   6.925  0.6682  0.4216 -1.0914
 2629TIP3    H229447   0.889   2.971   6.894 -0.6753  0.9934  1.7878
 2630TIP3   OH229448   1.555   0.336   6.139 -0.3897  0.3458  0.1837
 2630TIP3    H129449   1.555   0.414   6.084  0.4338  0.8456  0.8785
 2630TIP3    H229450   1.463   0.310   6.144 -0.5897  0.8825 -0.5933
 2631TIP3   OH229451   4.987   3.640   7.024 -0.5511 -0.0128  0.4666
 2631TIP3    H129452   5.027   3.719   7.062 -0.0129  0.5628 -1.2727
 2631TIP3    H229453   4.956   3.667   6.938 -0.5337 -1.6462 -0.0742
 2632TIP3   OH229454   6.348   6.622   6.905 -0.1334 -0.1464  0.5602
 2632TIP3    H129455   6.303   6.558   6.849  0.3996  0.7686 -0.9167
 2632TIP3    H229456   6.441   6.600   6.897  0.0665  0.9290 -0.1037
 2633TIP3   OH229457   3.632   5.722   0.958 -0.0052  0.1900  0.7373
 2633TIP3    H129458   3.670   5.635   0.969 -2.1751 -0.9479 -0.4022
 2633TIP3    H229459   3.630   5.735   0.863  3.3270  2.9110  0.9481
 2634TIP3   OH229460   1.963   6.005   5.793 -0.7510  0.3215  0.2570
 2634TIP3    H129461   1.934   5.950   5.866 -0.7877 -3.9180 -2.7679
 2634TIP3    H229462   1.891   6.067   5.781 -2.7082 -1.7152  1.0775
 2635TIP3   OH229463   1.511   5.461   6.679 -1.0788  0.4650 -0.1328
 2635TIP3    H129464   1.599   5.480   6.713 -0.8839 -1.8316  0.7217
 2635TIP3    H229465   1.527   5.433   6.589 -1.0193  0.8504 -0.2432
 2636TIP3   OH229466   1.211   1.517   0.354 -1.0920 -0.4825 -0.3151
 2636TIP3    H129467   1.281   1.468   0.395 -1.4155 -0.5704  0.1361
 2636TIP3    H229468   1.227   1.509   0.260  0.5339  1.0175 -0.1926
 2637TIP3   OH229469   1.978   3.245   7.217 -1.0716 -0.2728  0.1762
 2637TIP3    H129470   1.946   3.286   7.136  2.6278  0.4665 -1.0096
 2637TIP3    H229471   1.965   3.312   7.284 -0.0931  0.8486 -0.7162
 2638TIP3   OH229472   0.519   1.491   0.800  0.1443 -0.8924 -0.1624
 2638TIP3    H129473   0.516   1.487   0.895 -2.1352 -0.6231 -0.1934
 2638TIP3    H229474   0.612   1.504   0.779  0.6454 -0.8146  2.0063
 2639TIP3   OH229475   5.940   5.203   5.903 -1.0569  0.3772  0.0535
 2639TIP3    H129476   6.018   5.245   5.937 -1.0613  1.5574 -1.3541
 2639TIP3    H229477   5.915   5.140   5.971 -0.4414  1.8798  1.7058
 2640TIP3   OH229478   1.778   0.479   5.870  0.5590 -0.0376  0.3628
 2640TIP3    H129479   1.696   0.483   5.920  0.7793  1.3457  0.6151
 2640TIP3    H229480   1.821   0.399   5.901 -0.1646 -0.1685  1.0370
 2641TIP3   OH229481   2.947   6.337   6.950 -0.1686 -0.0992  0.2156
 2641TIP3    H129482   2.964   6.266   6.887  0.7967  0.1144  0.2296
 2641TIP3    H229483   2.889   6.397   6.903 -0.3027 -0.4682 -0.0995
 2642TIP3   OH229484   3.239   3.563   0.217 -0.4179 -0.3007  0.0260
 2642TIP3    H129485   3.318   3.563   0.163  0.1105 -2.4934  0.7544
 2642TIP3    H229486   3.167   3.554   0.155  0.0021  0.0596 -0.5143
 2643TIP3   OH229487   0.630   2.606   6.738  0.2405 -0.0173  0.0648
 2643TIP3    H129488   0.611   2.552   6.662  0.5904  0.7678 -0.5854
 2643TIP3    H229489   0.716   2.645   6.720  0.2540  0.3012  0.7763
 2644TIP3   OH229490   3.992   3.710   7.580  0.1491  0.4423  0.3729
 2644TIP3    H129491   4.017   3.692   7.671 -0.0854 -2.9211 -0.1709
 2644TIP3    H229492   4.074   3.705   7.531 -0.0297  0.0687  0.1065
 2645TIP3   OH229493   6.642   6.681   6.368 -0.7521 -0.3980  0.0826
 2645TIP3    H129494   6.651   6.586   6.376 -2.0689 -0.5125  0.3827
 2645TIP3    H229495   6.583   6.693   6.293  0.5736  0.2417 -0.8850
 2646TIP3   OH229496   4.432   4.377   1.027  0.4352  0.6615 -0.5695
 2646TIP3    H129497   4.345   4.404   0.999  0.4041  0.0468 -1.0799
 2646TIP3    H229498   4.441   4.413   1.115 -1.5551 -1.8539  0.7387
 2647TIP3   OH229499   5.680   5.977   0.025 -0.4436  0.2703  0.0548
 2647TIP3    H129500   5.728   6.020   0.096  0.0326  1.3182 -0.8888
 2647TIP3    H229501   5.657   5.891   0.060 -1.3289  1.2531  1.9434
 2648TIP3   OH229502   3.651   6.923   7.158 -0.1727 -0.4984  0.3612
 2648TIP3    H129503   3.583   6.968   7.107  0.3599  0.1644  0.2308
 2648TIP3    H229504   3.703   6.994   7.196  1.4288 -0.9939 -0.8583
 2649TIP3   OH229505   2.662   2.558   6.677  0.0160  0.7445  0.2645
 2649TIP3    H129506   2.707   2.640   6.697 -0.5180  1.2493 -0.5880
 2649TIP3    H229507   2.570   2.583   6.670 -0.5784 -0.4787  3.1591
 2650TIP3   OH229508   5.373   1.841   0.330  0.0077  0.0548  0.4818
 2650TIP3    H129509   5.372   1.916   0.391 -1.4856 -1.0078  1.8245
 2650TIP3    H229510   5.453   1.794   0.351  0.4445  0.7277  0.3352
 2651TIP3   OH229511   4.178   0.582   6.043 -0.1115 -0.3885 -0.0546
 2651TIP3    H129512   4.153   0.629   5.964  0.4577 -2.3634 -1.4514
 2651TIP3    H229513   4.273   0.595   6.050 -0.1511 -0.2667  0.2882
 2652TIP3   OH229514   3.860   5.765   6.720  0.4233  0.1035 -0.5157
 2652TIP3    H129515   3.910   5.838   6.756  0.9460 -1.0073  1.0982
 2652TIP3    H229516   3.923   5.693   6.715 -0.4138 -0.6227 -0.8009
 2653TIP3   OH229517   0.482   5.963   7.891 -0.2005  0.4821  0.4725
 2653TIP3    H129518   0.388   5.978   7.881 -0.4897 -1.5107  0.0762
 2653TIP3    H229519   0.489   5.888   7.949  1.1624  0.6621  0.5713
 2654TIP3   OH229520   1.689   2.134   7.957  0.0332  0.5425 -0.5196
 2654TIP3    H129521   1.755   2.079   7.913  0.4444  0.9065 -0.3506
 2654TIP3    H229522   1.633   2.071   8.003 -0.4860  0.1418 -1.6758
 2655TIP3   OH229523   5.169   0.473   6.237 -0.2181  0.4329  0.3260
 2655TIP3    H129524   5.242   0.458   6.177  0.4367  0.0032  1.2255
 2655TIP3    H229525   5.092   0.445   6.187  0.3553 -0.2664 -0.1901
 2656TIP3   OH229526   2.464   0.745   7.330 -0.2440 -0.3283 -0.6332
 2656TIP3    H129527   2.385   0.797   7.345  1.2283  1.6976  0.3441
 2656TIP3    H229528   2.494   0.721   7.418  1.0624  0.2320 -0.9106
 2657TIP3   OH229529   3.997   0.889   0.436  0.0585  0.2597 -0.4396
 2657TIP3    H129530   3.947   0.810   0.415  1.3905 -1.2808  1.9287
 2657TIP3    H229531   3.967   0.913   0.524  1.2460  1.1364 -0.2703
 2658TIP3   OH229532   2.127   5.669   1.193  0.4544  0.3462  0.0743
 2658TIP3    H129533   2.056   5.681   1.257 -0.0777  0.9861 -0.6372
 2658TIP3    H229534   2.197   5.626   1.243 -0.5497 -0.5801  0.7045
 2659TIP3   OH229535   1.550   0.526   0.128  0.1313  0.4467  0.3303
 2659TIP3    H129536   1.527   0.460   0.194  0.7104  0.3168  0.4077
 2659TIP3    H229537   1.628   0.491   0.085 -0.9311 -0.0244 -1.2451
 2660TIP3   OH229538   2.571   6.387   6.553  0.8939 -0.2815  0.1876
 2660TIP3    H129539   2.555   6.444   6.477  2.5087 -1.6235 -1.1925
 2660TIP3    H229540   2.492   6.395   6.606  0.1325  1.4163 -1.1601
 2661TIP3   OH229541   3.800   2.393   8.046 -0.5908 -0.1786 -0.0913
 2661TIP3    H129542   3.733   2.442   7.997 -0.3811  0.1471 -0.0536
 2661TIP3    H229543   3.856   2.461   8.084 -0.8288 -0.4320  0.7032
 2662TIP3   OH229544   2.390   5.562   5.991 -0.1701  0.0966 -0.8073
 2662TIP3    H129545   2.465   5.621   6.001  0.5932 -0.5248 -2.6596
 2662TIP3    H229546   2.313   5.619   5.996  0.4959  0.9588 -0.4505
 2663TIP3   OH229547   1.171   2.370   7.387 -0.3696 -0.4031 -0.3940
 2663TIP3    H129548   1.128   2.287   7.369  0.7304 -0.5306 -2.5874
 2663TIP3    H229549   1.105   2.436   7.364 -0.6191 -0.6271 -0.3309
 2664TIP3   OH229550   2.319   1.315   0.214 -0.4712  0.9306 -0.4023
 2664TIP3    H129551   2.328   1.275   0.127  0.4992 -1.5220  0.7696
 2664TIP3    H229552   2.408   1.315   0.249 -1.0944  0.3685  1.2330
 2665TIP3   OH229553   3.580   4.640   6.516  0.0779  0.1326  0.7281
 2665TIP3    H129554   3.491   4.643   6.481  0.0295  1.7556  0.9574
 2665TIP3    H229555   3.569   4.608   6.606 -0.5093  2.0719  1.3895
 2666TIP3   OH229556   3.159   4.648   0.763 -0.3847 -0.3513  0.5457
 2666TIP3    H129557   3.125   4.736   0.745 -1.3049 -0.5634  1.1965
 2666TIP3    H229558   3.254   4.659   0.765 -0.3890  0.2024 -1.5095
 2667TIP3   OH229559   0.040   5.275   6.934 -0.4743 -0.3067 -0.3871
 2667TIP3    H129560  -0.034   5.263   6.995 -0.2532 -0.9084 -0.2301
 2667TIP3    H229561   0.055   5.369   6.932 -3.4122  0.1874 -2.9721
 2668TIP3   OH229562   5.688   2.373   0.217 -0.2426 -0.4390  0.5576
 2668TIP3    H129563   5.779   2.381   0.188 -0.2273 -1.0203  0.4336
 2668TIP3    H229564   5.671   2.452   0.268  0.2530 -0.2085  0.3612
 2669TIP3   OH229565   2.453   6.239   6.152  0.1688 -0.0351 -0.4944
 2669TIP3    H129566   2.426   6.295   6.079 -1.1087  0.5200  0.3821
 2669TIP3    H229567   2.515   6.177   6.113  0.1260  0.7651 -1.8757
 2670TIP3   OH229568   6.363   5.589   6.418 -0.6561  0.3810  0.0485
 2670TIP3    H129569   6.415   5.510   6.433  0.4385  0.7400 -1.6492
 2670TIP3    H229570   6.371   5.639   6.499 -0.2920 -0.6530  0.6583
 2671TIP3   OH229571   3.156   1.968   0.680  0.3384 -0.1022 -0.4762
 2671TIP3    H129572   3.147   1.874   0.698  0.2181 -0.0665 -0.3463
 2671TIP3    H229573   3.244   1.990   0.710  0.1379 -0.0442  0.0698
 2672TIP3   OH229574   2.183   0.645   6.612  0.0188  0.0507 -0.0490
 2672TIP3    H129575   2.160   0.614   6.699  1.1141  1.5137  0.7906
 2672TIP3    H229576   2.099   0.654   6.567 -0.4407 -2.2867  0.2716
 2673TIP3   OH229577   6.447   1.294   6.481 -0.8674  0.0248  0.1161
 2673TIP3    H129578   6.366   1.242   6.476  0.0771 -1.5849  1.0822
 2673TIP3    H229579   6.495   1.257   6.555  0.7173  1.0354 -0.3749
 2674TIP3   OH229580   0.534   6.272   6.454 -0.2708 -0.3921  0.5794
 2674TIP3    H129581   0.541   6.339   6.385 -0.2694  1.5126  2.3934
 2674TIP3    H229582   0.624   6.249   6.475 -0.2724 -1.0363 -0.0954
 2675TIP3   OH229583   1.074   5.955   6.872 -0.0700 -0.4888  0.3079
 2675TIP3    H129584   1.111   5.882   6.823 -0.0948  0.0929 -0.5873
 2675TIP3    H229585   1.142   5.979   6.934 -0.3207 -1.7035  1.0673
 2676TIP3   OH229586   2.008   6.790   0.516 -0.6788  0.3844  0.1482
 2676TIP3    H129587   2.021   6.733   0.440 -0.8910 -0.8300  1.0040
 2676TIP3    H229588   2.092   6.787   0.562 -1.5817 -1.6493  1.7808
 2677TIP3   OH229589   1.440   6.089   6.372 -0.1127  0.6891  0.7046
 2677TIP3    H129590   1.411   6.179   6.385  0.6425  1.2481 -1.2920
 2677TIP3    H229591   1.528   6.087   6.409 -0.5209  0.4765  1.6892
 2678TIP3   OH229592   2.764   3.575   0.388  0.0197 -0.0485 -0.3266
 2678TIP3    H129593   2.736   3.517   0.318 -0.3589  0.7879 -0.8742
 2678TIP3    H229594   2.757   3.663   0.351  1.3979  0.2966  0.2158
 2679TIP3   OH229595   5.074   0.142   0.970 -0.6646  0.6184  0.0703
 2679TIP3    H129596   5.091   0.236   0.979  0.1922  0.4003  0.7608
 2679TIP3    H229597   5.109   0.103   1.050  2.0527 -0.6872 -1.7045
 2680TIP3   OH229598   0.415   0.037   6.835 -0.1991 -0.1268  0.0353
 2680TIP3    H129599   0.448   0.063   6.921 -0.1330  0.6247 -0.2081
 2680TIP3    H229600   0.481   0.072   6.774 -2.3359  3.0435 -0.5919
 2681TIP3   OH229601   4.013   5.393   7.460  0.2283  0.3098  0.3944
 2681TIP3    H129602   3.937   5.349   7.498 -0.3956 -0.4631 -1.6946
 2681TIP3    H229603   4.060   5.429   7.535 -2.3635  1.0777  1.7080
 2682TIP3   OH229604   3.147   0.209   0.192  0.5980  0.3014 -0.1921
 2682TIP3    H129605   3.242   0.214   0.203  0.6371  0.0988 -0.4134
 2682TIP3    H229606   3.130   0.117   0.172  0.5122  0.5905 -1.5021
 2683TIP3   OH229607   0.841   6.113   6.880 -0.6720  0.5478 -0.9117
 2683TIP3    H129608   0.897   6.036   6.893  0.0984  1.0174 -1.4312
 2683TIP3    H229609   0.864   6.145   6.793  0.5967  2.6336  0.1302
 2684TIP3   OH229610   3.989   6.934   6.519  0.0399  0.2651  0.4947
 2684TIP3    H129611   3.924   6.939   6.589  0.5523  4.4107  0.8120
 2684TIP3    H229612   4.072   6.918   6.564  0.0522  0.6848  0.6186
 2685TIP3   OH229613   5.093   0.851   6.836 -0.2697  0.0600  0.4294
 2685TIP3    H129614   5.185   0.832   6.820 -0.3267 -1.6231  1.8652
 2685TIP3    H229615   5.070   0.919   6.772  1.9870  0.6060  0.1671
 2686TIP3   OH229616   4.051   6.334   6.321 -0.7334  0.1666  0.0732
 2686TIP3    H129617   4.013   6.246   6.330  1.7546 -1.0425 -0.5572
 2686TIP3    H229618   4.061   6.365   6.411 -2.8015  0.3437  0.2560
 2687TIP3   OH229619   5.887   3.180   7.764  0.0749  0.0269  0.3411
 2687TIP3    H129620   5.921   3.096   7.794  0.9891  0.0643 -0.5644
 2687TIP3    H229621   5.943   3.245   7.807  0.6723  0.1082 -0.5401
 2688TIP3   OH229622   4.982   0.176   0.367  0.1373 -0.4076 -0.3123
 2688TIP3    H129623   5.002   0.208   0.455  1.0768  0.4319 -0.8261
 2688TIP3    H229624   5.047   0.218   0.310  1.0116 -2.7240 -1.0963
 2689TIP3   OH229625   6.293   4.869   0.177  0.0138  0.2244 -0.2417
 2689TIP3    H129626   6.290   4.879   0.082 -1.6390 -0.0317 -0.2327
 2689TIP3    H229627   6.293   4.775   0.192  1.0510  0.2579  0.0027
 2690TIP3   OH229628   6.982   1.454   0.337  0.4323 -0.1966  0.3550
 2690TIP3    H129629   7.076   1.436   0.327  0.5889 -0.4456  2.1168
 2690TIP3    H229630   6.971   1.542   0.302  0.8745 -1.0686 -2.0712
 2691TIP3   OH229631   2.642   4.745   6.577 -0.2804  0.3199  0.2084
 2691TIP3    H129632   2.673   4.827   6.538  0.4036 -0.4002 -0.7832
 2691TIP3    H229633   2.722   4.701   6.606 -0.5726 -0.3616 -0.0051
 2692TIP3   OH229634   2.843   6.398   0.350  0.1417 -0.5493  0.0218
 2692TIP3    H129635   2.751   6.423   0.341  0.0139 -0.2374  1.9019
 2692TIP3    H229636   2.844   6.336   0.423  1.2027 -1.9203 -1.1300
 2693TIP3   OH229637   2.955   4.341   6.173  0.2706 -0.1462 -0.2551
 2693TIP3    H129638   2.937   4.419   6.226 -0.7031  0.1263 -0.9788
 2693TIP3    H229639   2.964   4.374   6.084  1.0074 -0.7237 -0.3999
 2694TIP3   OH229640   1.500   4.844   7.809 -0.0128 -0.0986  0.2701
 2694TIP3    H129641   1.473   4.904   7.878  1.5352  2.4991 -1.3095
 2694TIP3    H229642   1.592   4.866   7.792 -0.5125 -0.2332 -3.0229
 2695TIP3   OH229643   5.389   6.906   1.066 -1.0070 -0.2596  0.6934
 2695TIP3    H129644   5.472   6.952   1.078 -0.6954 -0.8520  0.8054
 2695TIP3    H229645   5.375   6.859   1.148 -1.9361  0.6081  1.0417
 2696TIP3   OH229646   2.998   0.243   6.014  0.2783 -0.2489  0.1241
 2696TIP3    H129647   2.978   0.336   6.021  0.2117 -0.1318 -1.4433
 2696TIP3    H229648   3.092   0.240   5.993 -0.2938 -0.4279 -2.4758
 2697TIP3   OH229649   2.751   2.908   6.340 -0.3331  0.3724  0.0597
 2697TIP3    H129650   2.805   2.829   6.345 -0.0521  0.5342 -0.4141
 2697TIP3    H229651   2.787   2.957   6.266 -1.7160  0.0517 -0.8275
 2698TIP3   OH229652   2.242   5.540   6.755 -0.1526  0.7041  0.5642
 2698TIP3    H129653   2.247   5.635   6.746 -0.3538  0.7310  0.7376
 2698TIP3    H229654   2.167   5.514   6.702  0.8616  0.4646 -0.7728
 2699TIP3   OH229655   2.067   3.941   0.759  0.1021 -0.0424  0.5343
 2699TIP3    H129656   2.042   3.984   0.677  0.6246 -0.0232  0.3878
 2699TIP3    H229657   2.153   3.904   0.742  0.6346  0.7923  1.3962
 2700TIP3   OH229658   0.632   6.855   7.080 -0.1310  0.4404 -0.5198
 2700TIP3    H129659   0.712   6.863   7.132 -1.0397 -0.8127  1.1258
 2700TIP3    H229660   0.589   6.939   7.091 -0.4834  0.0697  1.0834
 2701TIP3   OH229661   4.045   4.486   7.054  0.2602 -0.3065  0.1782
 2701TIP3    H129662   4.119   4.474   6.994 -1.0409 -0.5767 -1.4441
 2701TIP3    H229663   4.080   4.469   7.141  1.5580 -2.8816 -0.8034
 2702TIP3   OH229664   3.932   5.434   6.985  0.1727  0.5990 -0.0115
 2702TIP3    H129665   3.941   5.447   7.079  0.2430  2.8017 -0.3151
 2702TIP3    H229666   3.840   5.410   6.973  0.1880  0.2169  0.6081
 2703TIP3   OH229667   6.705   3.715   7.476 -0.1587 -0.1601  0.2465
 2703TIP3    H129668   6.737   3.635   7.435 -1.9975 -0.6302 -0.3102
 2703TIP3    H229669   6.681   3.773   7.403 -0.1133  0.3742  0.6477
 2704TIP3   OH229670   1.828   4.308   1.607 -0.4048 -0.0988 -0.3949
 2704TIP3    H129671   1.865   4.264   1.683  1.5897  1.3988 -0.4573
 2704TIP3    H229672   1.776   4.380   1.644 -0.5410 -0.1853 -0.4163
 2705TIP3   OH229673   6.506   0.747   0.477 -0.0994 -0.0215  0.5139
 2705TIP3    H129674   6.504   0.651   0.472 -0.8434  0.0142  0.0169
 2705TIP3    H229675   6.566   0.766   0.549  2.8078 -0.7923 -1.6226
 2706TIP3   OH229676   4.540   0.186   7.808 -0.0116  0.4048 -0.3845
 2706TIP3    H129677   4.524   0.178   7.714 -1.3266  0.6383 -0.1829
 2706TIP3    H229678   4.496   0.267   7.833  2.7206  1.8895 -0.0737
 2707TIP3   OH229679   3.038   3.934   1.183 -0.5049  0.1262 -0.2085
 2707TIP3    H129680   3.112   3.941   1.123  1.1630  1.8039  1.9730
 2707TIP3    H229681   3.006   4.023   1.192 -1.8813 -0.3752  0.0237
 2708TIP3   OH229682   2.383   4.031   0.961 -0.5961 -0.2490  0.0678
 2708TIP3    H129683   2.464   4.069   0.926 -0.6588 -0.6835 -0.5731
 2708TIP3    H229684   2.402   3.937   0.967 -0.5463 -0.1668  1.3321
 2709TIP3   OH229685   4.208   5.617   6.972 -0.2119 -0.2244  0.4460
 2709TIP3    H129686   4.236   5.688   6.914  0.5494 -0.3509  0.6614
 2709TIP3    H229687   4.226   5.649   7.060 -2.3111  0.3814  0.6851
 2710TIP3   OH229688   3.555   0.636   0.852  0.3702 -0.3596  0.0409
 2710TIP3    H129689   3.520   0.547   0.848 -0.7010  0.0272  0.8002
 2710TIP3    H229690   3.524   0.678   0.772 -0.4407 -0.1812  0.4530
 2711TIP3   OH229691   4.679   0.081   6.890  0.1278 -0.2719  0.0715
 2711TIP3    H129692   4.588   0.054   6.898  0.2851 -0.4363  1.3936
 2711TIP3    H229693   4.676   0.177   6.897 -0.0635 -0.1954 -1.0571
 2712TIP3   OH229694   3.922   6.849   7.984  0.3358 -0.3775 -0.0880
 2712TIP3    H129695   3.873   6.797   8.047 -0.8166 -0.2221 -0.8340
 2712TIP3    H229696   3.855   6.900   7.937  1.0830 -1.0824 -1.9744
 2713TIP3   OH229697   2.767   6.395   6.216  0.0155 -0.5032  0.0605
 2713TIP3    H129698   2.778   6.307   6.178 -1.1289 -0.8809  0.5636
 2713TIP3    H229699   2.707   6.439   6.155  0.9822  0.1171 -0.4630
 2714TIP3   OH229700   3.351   2.579   6.886  0.3117  0.1296 -0.2913
 2714TIP3    H129701   3.311   2.503   6.844  0.2691  0.9279 -1.7338
 2714TIP3    H229702   3.428   2.544   6.931  1.0104 -0.6054 -1.9784
 2715TIP3   OH229703   2.392   6.992   6.293 -0.4268 -0.8347 -0.2474
 2715TIP3    H129704   2.438   7.076   6.298  0.3331 -1.2235 -0.7041
 2715TIP3    H229705   2.318   7.009   6.235 -1.7687  0.1964  1.6663
 2716TIP3   OH229706   5.614   4.276   1.139  0.0329 -0.1967 -0.1261
 2716TIP3    H129707   5.519   4.263   1.132 -0.0618  0.5625 -0.3676
 2716TIP3    H229708   5.647   4.255   1.052  0.1575 -1.0357  0.1251
 2717TIP3   OH229709   6.577   6.366   1.228 -0.3302 -0.9578  0.0141
 2717TIP3    H129710   6.495   6.317   1.236 -0.0912 -1.4777 -0.6367
 2717TIP3    H229711   6.631   6.333   1.300 -0.5826 -0.8329  0.2626
 2718TIP3   OH229712   1.557   7.073   5.700  0.4508 -0.1541  0.0546
 2718TIP3    H129713   1.582   7.139   5.765 -0.9762 -0.2712  0.7522
 2718TIP3    H229714   1.631   7.012   5.697  0.2086 -0.5896  2.1794
 2719TIP3   OH229715   1.202   6.528   6.644 -0.6117  0.6611 -0.3236
 2719TIP3    H129716   1.270   6.496   6.702  1.7588 -0.0613 -3.3812
 2719TIP3    H229717   1.120   6.508   6.690  1.1244 -0.9844  2.1737
 2720TIP3   OH229718   6.630   6.810   0.626  0.2114  0.5502 -1.0275
 2720TIP3    H129719   6.554   6.868   0.623  0.4528  0.8381 -1.6429
 2720TIP3    H229720   6.609   6.740   0.564  1.1268  1.4730 -2.3959
 2721TIP3   OH229721   3.342   6.435   7.188 -0.0016  0.1046  0.6068
 2721TIP3    H129722   3.313   6.515   7.143  1.7833  0.3369 -0.1576
 2721TIP3    H229723   3.376   6.465   7.272 -1.0014 -0.0698  1.0915
 2722TIP3   OH229724   5.475   4.091   7.519  0.2871 -0.4530  0.1069
 2722TIP3    H129725   5.558   4.044   7.514  0.5953  0.0466  0.5624
 2722TIP3    H229726   5.474   4.130   7.606  1.2771  2.7045 -1.2373
 2723TIP3   OH229727   1.962   2.215   1.003 -0.4562 -0.1576 -0.7953
 2723TIP3    H129728   2.013   2.246   1.078  0.5531 -1.6968 -0.8196
 2723TIP3    H229729   1.994   2.267   0.929 -0.7172  0.6415 -0.3436
 2724TIP3   OH229730   1.195   6.920   6.186 -0.9603  0.2012  0.0264
 2724TIP3    H129731   1.178   6.858   6.256 -2.4195  0.6964  0.1323
 2724TIP3    H229732   1.148   6.884   6.110 -1.5097  0.9807 -0.0064
 2725TIP3   OH229733   0.126   1.475   0.281  0.4809 -0.0979 -0.1255
 2725TIP3    H129734   0.148   1.413   0.211 -0.2418 -2.0102  1.3127
 2725TIP3    H229735   0.209   1.517   0.302  1.3620 -1.9787  0.2153
 2726TIP3   OH229736   4.277   1.714   6.467  0.2839 -0.0962 -0.3802
 2726TIP3    H129737   4.274   1.774   6.541  1.0109 -0.3681 -0.1176
 2726TIP3    H229738   4.368   1.719   6.437  0.5333 -1.5835  0.0841
 2727TIP3   OH229739   1.299   1.821   6.880  0.1154 -0.9212  0.0804
 2727TIP3    H129740   1.370   1.820   6.815  0.6220  0.8691  0.5531
 2727TIP3    H229741   1.342   1.800   6.963 -0.2139 -1.4978  0.1051
 2728TIP3   OH229742   1.628   5.836   0.036  0.3817  0.2008  0.0941
 2728TIP3    H129743   1.696   5.874   0.091  0.5239  0.1715 -0.0589
 2728TIP3    H229744   1.610   5.904  -0.029 -0.4606  0.6068  0.7453
 2729TIP3   OH229745   1.613   0.410   6.693 -0.0667  0.1368  0.0235
 2729TIP3    H129746   1.694   0.399   6.743 -0.2370  0.5562  0.4001
 2729TIP3    H229747   1.548   0.438   6.759 -0.3128  0.6191 -0.4196
 2730TIP3   OH229748   3.334   2.548   0.976  0.6351 -0.1535 -0.1757
 2730TIP3    H129749   3.402   2.543   0.909  0.7862  0.9475 -0.1088
 2730TIP3    H229750   3.368   2.610   1.040  0.0902 -0.5145  0.4700
 2731TIP3   OH229751   4.714   7.012   6.400  0.2158 -0.1311  0.0434
 2731TIP3    H129752   4.639   7.015   6.460  0.8923 -2.8744  1.1227
 2731TIP3    H229753   4.698   7.084   6.339 -2.4032  0.4318  1.2761
 2732TIP3   OH229754   0.740   4.871   0.017  0.7105  0.0519 -0.5386
 2732TIP3    H129755   0.802   4.914  -0.042 -0.0766  0.4823 -1.0660
 2732TIP3    H229756   0.678   4.827  -0.041  0.3690 -0.1510 -0.0197
 2733TIP3   OH229757   3.772   5.064   6.286  0.1465 -0.0573  0.0834
 2733TIP3    H129758   3.789   4.970   6.299 -1.6521 -0.4592 -0.2686
 2733TIP3    H229759   3.702   5.066   6.221  0.1394  1.5482  0.1285
 2734TIP3   OH229760   4.015   5.796   0.539  0.4461  0.0888 -0.4626
 2734TIP3    H129761   4.042   5.819   0.628 -0.9671  0.3746 -0.0858
 2734TIP3    H229762   4.024   5.878   0.490  3.2951 -0.5929 -1.1192
 2735TIP3   OH229763   0.122   5.576   0.327 -0.0964 -0.1114  0.0819
 2735TIP3    H129764   0.067   5.639   0.282 -0.2317 -0.6317 -0.4831
 2735TIP3    H229765   0.119   5.497   0.272  0.5527 -0.4094  0.4661
 2736TIP3   OH229766   2.754   4.709   8.118  0.9180 -0.4834  0.0295
 2736TIP3    H129767   2.759   4.800   8.087 -2.5759 -0.5074 -0.8378
 2736TIP3    H229768   2.786   4.657   8.044  0.7407 -0.0830 -0.3323
 2737TIP3   OH229769   3.208   5.703   0.998 -0.1348 -0.4190 -0.5145
 2737TIP3    H129770   3.167   5.617   1.012 -2.7672  1.0476  1.3456
 2737TIP3    H229771   3.161   5.740   0.923 -1.2926  0.6768  0.7176
 2738TIP3   OH229772   2.765   0.780   7.280  0.3294 -0.0979 -0.2744
 2738TIP3    H129773   2.683   0.754   7.321  0.1310  0.4251 -0.3360
 2738TIP3    H229774   2.816   0.699   7.274  0.9384  0.0550  2.2664
 2739TIP3   OH229775   3.163   4.550   7.934  0.5559 -0.2771 -0.4604
 2739TIP3    H129776   3.247   4.506   7.926  0.2799 -0.7605 -0.7796
 2739TIP3    H229777   3.136   4.534   8.024  0.0844 -1.4709 -0.7935
 2740TIP3   OH229778   3.876   1.930   7.068  0.2185 -0.1928  0.1585
 2740TIP3    H129779   3.886   1.909   6.976  0.0230 -0.7555  0.2615
 2740TIP3    H229780   3.965   1.931   7.103  0.2156 -1.1000  0.2034
 2741TIP3   OH229781   0.355   5.672   0.344  0.0319 -0.1506 -0.5955
 2741TIP3    H129782   0.367   5.738   0.275 -2.5568 -0.4731 -1.4078
 2741TIP3    H229783   0.261   5.657   0.346  0.0752 -0.2838  2.9402
 2742TIP3   OH229784   6.334   0.407   6.129  0.2218 -0.1573  0.2924
 2742TIP3    H129785   6.333   0.488   6.078  0.0429 -0.4474 -0.1626
 2742TIP3    H229786   6.339   0.337   6.064 -3.1383 -0.6766  0.4608
 2743TIP3   OH229787   2.198   5.871   6.297 -0.4559 -0.1515  0.2042
 2743TIP3    H129788   2.266   5.827   6.247 -0.1484 -0.0842  0.5659
 2743TIP3    H229789   2.194   5.959   6.261 -0.1439 -0.0629  0.3835
 2744TIP3   OH229790   4.382   1.222   7.870  0.0883  0.5631  0.9659
 2744TIP3    H129791   4.308   1.197   7.815  0.0185  0.1470  1.2472
 2744TIP3    H229792   4.447   1.256   7.808  0.4336 -0.9056  0.5049
 2745TIP3   OH229793   1.292   1.133   6.461  0.2200 -0.5381  0.2756
 2745TIP3    H129794   1.262   1.150   6.551  3.8047 -0.4392  1.5285
 2745TIP3    H229795   1.347   1.055   6.469  0.1954 -0.7942 -1.9377
 2746TIP3   OH229796   2.241   5.314   6.982 -0.8337 -0.8547 -0.4190
 2746TIP3    H129797   2.249   5.393   6.927 -0.2789 -0.5163  0.1345
 2746TIP3    H229798   2.257   5.346   7.070 -0.9477 -1.5398 -0.1524
 2747TIP3   OH229799   4.650   0.630   7.869 -0.1386 -0.1070  0.4385
 2747TIP3    H129800   4.573   0.647   7.922  0.2096 -0.9759  1.2398
 2747TIP3    H229801   4.701   0.710   7.872 -1.7531  1.0488 -1.3962
 2748TIP3   OH229802   2.425   3.133   6.545  0.2452 -0.0816  0.1805
 2748TIP3    H129803   2.491   3.064   6.540  0.5546  0.1864  0.6532
 2748TIP3    H229804   2.474   3.214   6.545 -0.1759  0.2012 -1.9580
 2749TIP3   OH229805   3.019   3.194   7.060 -0.5322  0.3586  0.0527
 2749TIP3    H129806   3.086   3.224   6.998 -1.0046  1.7964  0.2291
 2749TIP3    H229807   2.949   3.259   7.054 -2.1946 -1.4248 -0.5441
 2750TIP3   OH229808   6.631   6.970   7.562  0.7527 -0.1878 -0.3981
 2750TIP3    H129809   6.691   7.019   7.506  1.1333 -1.1421 -0.8446
 2750TIP3    H229810   6.623   7.024   7.641  1.6376  0.2978 -0.6255
 2751TIP3   OH229811   7.041   0.224   6.856 -0.5774  0.5455  0.1112
 2751TIP3    H129812   7.123   0.184   6.885 -0.7201  0.2435  0.0923
 2751TIP3    H229813   7.052   0.235   6.761 -0.1196  1.5149  0.2650
 2752TIP3   OH229814   6.485   4.940   8.003 -0.6333  0.3699 -0.9616
 2752TIP3    H129815   6.396   4.905   8.001 -1.4301  2.3493 -1.3946
 2752TIP3    H229816   6.511   4.944   7.911 -1.1923  2.3951 -1.0711
 2753TIP3   OH229817   2.132   4.015   7.451 -0.0337  0.2063 -0.2438
 2753TIP3    H129818   2.117   3.964   7.531 -0.3696 -0.4766 -0.7305
 2753TIP3    H229819   2.110   4.105   7.475  0.3487  0.0846  0.5703
 2754TIP3   OH229820   5.628   3.739   7.971 -0.2897 -0.3728  0.0037
 2754TIP3    H129821   5.672   3.761   7.889 -2.4080 -1.0536 -1.3484
 2754TIP3    H229822   5.660   3.804   8.033  1.5552 -0.0060 -1.2806
 2755TIP3   OH229823   2.232   1.512   7.380 -0.3349  1.0227 -0.0139
 2755TIP3    H129824   2.167   1.582   7.384 -0.6451  0.8248 -1.3993
 2755TIP3    H229825   2.273   1.522   7.294 -0.5962 -0.6707 -0.3643
 2756TIP3   OH229826   3.455   5.512   0.796 -0.3314  0.3140 -0.0703
 2756TIP3    H129827   3.365   5.544   0.804 -0.4310  0.5135 -1.8384
 2756TIP3    H229828   3.459   5.471   0.710  1.0117 -0.5634  0.3836
 2757TIP3   OH229829   3.289   6.191   7.492  0.1341  0.1511  0.1599
 2757TIP3    H129830   3.361   6.240   7.529 -0.3759  0.7990  0.3055
 2757TIP3    H229831   3.210   6.238   7.520 -0.3297 -0.3641 -0.2512
 2758TIP3   OH229832   2.587   1.080   6.178  0.0603  0.2551  0.1898
 2758TIP3    H129833   2.635   1.031   6.111  0.7585  1.5782 -0.3002
 2758TIP3    H229834   2.495   1.056   6.164  0.1760  0.6773 -1.3782
 2759TIP3   OH229835   2.528   5.054   1.179  0.1195 -0.7024 -0.0016
 2759TIP3    H129836   2.542   5.116   1.250  1.4032 -1.7509  0.6989
 2759TIP3    H229837   2.526   4.968   1.222 -0.0304 -1.2648 -1.1144
 2760TIP3   OH229838   3.148   3.066   1.577 -0.3269 -0.1131 -0.5607
 2760TIP3    H129839   3.094   3.054   1.499 -0.2815 -0.5012 -0.5322
 2760TIP3    H229840   3.149   2.981   1.619  0.1854 -0.0707 -0.4819
 2761TIP3   OH229841   4.369   1.364   8.121  0.4471 -0.1099 -0.4783
 2761TIP3    H129842   4.297   1.318   8.163 -0.5229  0.6426 -1.3112
 2761TIP3    H229843   4.393   1.307   8.047  0.5382 -0.2288 -0.3577
 2762TIP3   OH229844   4.319   3.007   7.149 -0.0524 -0.1084  0.1149
 2762TIP3    H129845   4.360   2.970   7.071  0.0396 -1.7472  0.9295
 2762TIP3    H229846   4.390   3.012   7.213 -0.3833  0.1630  0.4590
 2763TIP3   OH229847   2.684   3.821   7.960 -0.2144 -0.5732  0.2158
 2763TIP3    H129848   2.717   3.863   7.880 -0.5765 -1.5860 -0.4755
 2763TIP3    H229849   2.624   3.885   7.997 -1.0508 -0.6263 -1.0328
 2764TIP3   OH229850   0.038   0.457   6.310 -0.3538 -0.2029 -0.7704
 2764TIP3    H129851   0.051   0.383   6.369  1.9563  1.0410  0.3603
 2764TIP3    H229852  -0.018   0.517   6.358  0.5912  0.2966 -0.2737
 2765TIP3   OH229853   2.268   6.863   7.373  0.4655  0.1776  0.4547
 2765TIP3    H129854   2.258   6.891   7.464 -0.8565 -1.2036  0.7459
 2765TIP3    H229855   2.276   6.945   7.324 -0.8786  1.0047  1.5824
 2766TIP3   OH229856   2.091   5.553   0.313 -0.4176  0.4808 -0.1330
 2766TIP3    H129857   2.175   5.582   0.277  0.0864  1.1342  1.4795
 2766TIP3    H229858   2.057   5.491   0.249  1.4068  0.0463 -0.7093
 2767TIP3   OH229859   2.515   5.743   6.273 -0.2575  0.0488 -0.3196
 2767TIP3    H129860   2.576   5.723   6.202 -0.5967 -1.0866 -0.3045
 2767TIP3    H229861   2.428   5.733   6.233 -0.4547  2.0893 -0.4600
 2768TIP3   OH229862   0.780   1.491   1.389 -0.0815  0.5237 -0.0294
 2768TIP3    H129863   0.847   1.519   1.327  0.5610 -1.1050 -0.0796
 2768TIP3    H229864   0.737   1.573   1.415  0.2564  1.3336 -1.8860
 2769TIP3   OH229865   5.556   6.458   1.561 -0.1584 -0.1741 -0.2607
 2769TIP3    H129866   5.605   6.523   1.610  1.1393 -1.2266 -0.1316
 2769TIP3    H229867   5.470   6.498   1.547  0.0005  0.7866  1.4291
 2770TIP3   OH229868   3.878   1.327   6.756  0.4988 -0.1883  0.2591
 2770TIP3    H129869   3.924   1.343   6.673  1.5084 -2.7813  0.2508
 2770TIP3    H229870   3.941   1.352   6.824  1.2888 -1.9721  0.2298
 2771TIP3   OH229871   4.265   4.613   1.131  0.0736  0.6473  0.4920
 2771TIP3    H129872   4.316   4.552   1.184  1.1942  1.0047 -0.1628
 2771TIP3    H229873   4.222   4.557   1.065 -2.2730  0.0419  2.4368
 2772TIP3   OH229874   2.496   6.560   6.374  0.3259 -0.4189  0.0707
 2772TIP3    H129875   2.519   6.652   6.366 -0.3865 -0.0008  2.4876
 2772TIP3    H229876   2.418   6.550   6.319  0.0723  0.5425  0.2469
 2773TIP3   OH229877   2.178   3.368   0.234  0.2490 -0.2703  0.3549
 2773TIP3    H129878   2.172   3.275   0.213 -0.9493  0.0636 -0.8518
 2773TIP3    H229879   2.192   3.411   0.150  0.6425  0.6618  0.8853
 2774TIP3   OH229880   0.933   6.833   6.721 -0.1731 -0.2375  0.3052
 2774TIP3    H129881   0.852   6.855   6.768 -0.6062  1.4431 -1.1742
 2774TIP3    H229882   0.904   6.811   6.633  0.9271 -0.2438 -0.0558
 2775TIP3   OH229883   6.866   6.809   6.794  0.0163  0.2923 -0.0242
 2775TIP3    H129884   6.899   6.732   6.840 -2.4356 -1.1778 -0.6267
 2775TIP3    H229885   6.887   6.791   6.702  1.5267  1.4628  0.0752
 2776TIP3   OH229886   3.913   3.792   6.452  0.6325 -0.3557 -0.5374
 2776TIP3    H129887   3.973   3.728   6.490  0.9782 -0.1472 -0.7307
 2776TIP3    H229888   3.943   3.876   6.487  1.6888 -0.0178 -2.1985
 2777TIP3   OH229889   6.892   4.764   6.718  0.5169  0.5971  0.3747
 2777TIP3    H129890   6.940   4.814   6.784  0.0012  1.3464  0.1817
 2777TIP3    H229891   6.921   4.800   6.635  0.5351  0.2169  0.2163
 2778TIP3   OH229892   0.281   0.166   1.156 -0.1761 -0.3612 -0.4721
 2778TIP3    H129893   0.251   0.157   1.246 -0.5364  2.0360 -0.3149
 2778TIP3    H229894   0.240   0.092   1.110  2.3505 -3.3437  1.8217
 2779TIP3   OH229895   3.098   0.928   6.069 -0.3589  0.3673 -0.4668
 2779TIP3    H129896   3.164   0.867   6.035  0.0226  1.9433 -2.6654
 2779TIP3    H229897   3.144   0.977   6.137  0.4465  0.7476 -1.2730
 2780TIP3   OH229898   3.164   1.933   7.180  0.4544 -0.0650 -0.5094
 2780TIP3    H129899   3.204   1.885   7.107  0.4666  0.6971 -1.0100
 2780TIP3    H229900   3.173   2.025   7.155  1.0903  0.2230  0.7842
 2781TIP3   OH229901   3.677   5.229   7.404  0.1465  0.0669 -0.0789
 2781TIP3    H129902   3.605   5.285   7.377  0.6304  0.8198  0.1943
 2781TIP3    H229903   3.728   5.215   7.324  0.1889  0.2513 -0.0836
 2782TIP3   OH229904   2.095   4.688   6.152  0.2006  0.3410  0.8043
 2782TIP3    H129905   2.017   4.642   6.120 -1.1114  1.1500  2.7748
 2782TIP3    H229906   2.155   4.686   6.078 -1.9401  0.3153 -0.9982
 2783TIP3   OH229907   2.788   3.044   1.113 -0.4381  0.4583  0.2151
 2783TIP3    H129908   2.791   3.068   1.206 -1.6926  0.7793  0.1802
 2783TIP3    H229909   2.765   2.951   1.112 -0.3892  0.4461  0.2275
 2784TIP3   OH229910   5.063   5.972   5.522 -0.2014 -0.2629  0.1838
 2784TIP3    H129911   5.143   5.942   5.479  0.3014  0.0770  0.8708
 2784TIP3    H229912   4.994   5.915   5.487  0.2039 -0.0075 -1.0311
 2785TIP3   OH229913   5.825   5.248   0.485  0.6936  0.1964 -0.1293
 2785TIP3    H129914   5.780   5.235   0.568 -0.0964  0.8648 -0.4406
 2785TIP3    H229915   5.758   5.233   0.419  1.5297 -1.1593 -0.6732
 2786TIP3   OH229916   2.043   4.668   6.521 -0.1014  0.9032 -0.2133
 2786TIP3    H129917   1.949   4.671   6.506 -0.2591 -1.3396  0.0658
 2786TIP3    H229918   2.061   4.741   6.580 -1.5248  1.8629 -0.9444
 2787TIP3   OH229919   3.707   3.519   6.384  0.2158  0.3131  0.0610
 2787TIP3    H129920   3.763   3.451   6.346 -0.3759  0.8261 -1.7486
 2787TIP3    H229921   3.699   3.585   6.315 -1.6341  0.8231  0.7481
 2788TIP3   OH229922   0.335   3.751   6.112 -0.0307 -0.9569 -0.8633
 2788TIP3    H129923   0.276   3.676   6.107 -1.0174 -0.0686 -3.2299
 2788TIP3    H229924   0.282   3.825   6.083  0.2214  1.1237  3.6907
 2789TIP3   OH229925   6.337   4.374   6.474  0.7079 -0.4538 -0.5862
 2789TIP3    H129926   6.276   4.389   6.402  0.8623 -0.9160 -0.8132
 2789TIP3    H229927   6.420   4.410   6.443  0.5090  0.3537 -0.2009
 2790TIP3   OH229928   0.756   2.898   1.417  0.6384  0.2643 -0.1194
 2790TIP3    H129929   0.730   2.987   1.443  1.1637  0.6160 -0.7718
 2790TIP3    H229930   0.850   2.894   1.436  0.3917 -0.5294  0.9425
 2791TIP3   OH229931   5.186   5.453   2.015 -0.3590 -0.1150 -0.1006
 2791TIP3    H129932   5.094   5.477   2.024 -0.3332  0.8543 -2.2063
 2791TIP3    H229933   5.225   5.525   1.965  1.5963 -0.4142  0.9460
 2792TIP3   OH229934   5.025   1.247   8.120  0.6936  0.2529  0.1694
 2792TIP3    H129935   4.951   1.248   8.181  0.5349  0.5509 -0.0315
 2792TIP3    H229936   5.042   1.154   8.104 -0.1851  0.2025 -0.4633
 2793TIP3   OH229937   3.821   4.061   6.690  0.1115 -0.1638  0.0596
 2793TIP3    H129938   3.857   4.107   6.614  0.7196 -1.2866 -0.3346
 2793TIP3    H229939   3.864   4.102   6.765  0.1298  0.3819 -0.2463
 2794TIP3   OH229940   3.087   6.474   0.232  0.5437 -0.1329 -0.1064
 2794TIP3    H129941   3.052   6.445   0.148 -0.2227  1.1813 -0.2574
 2794TIP3    H229942   3.010   6.483   0.288  0.7922  1.1997  0.0456
 2795TIP3   OH229943   0.882   6.949   7.459  0.4419  0.3421 -0.9586
 2795TIP3    H129944   0.850   6.874   7.408  0.9336  0.4792 -1.4728
 2795TIP3    H229945   0.823   6.953   7.534 -1.2533  1.0327 -2.2648
 2796TIP3   OH229946   5.526   0.756   7.883 -1.1092 -0.5051  0.0086
 2796TIP3    H129947   5.586   0.682   7.875  1.9576  1.9837 -1.0236
 2796TIP3    H229948   5.548   0.796   7.967 -1.1132  0.5987 -0.5088
 2797TIP3   OH229949   5.804   3.922   6.813  0.0221  0.3186 -0.5840
 2797TIP3    H129950   5.884   3.972   6.831  0.3971 -0.2032 -0.7684
 2797TIP3    H229951   5.745   3.944   6.885  0.9112 -0.5037  0.4280
 2798TIP3   OH229952   4.167   6.554   0.596 -0.6377 -0.1515  0.4626
 2798TIP3    H129953   4.188   6.495   0.523  0.0961  0.8044 -0.1062
 2798TIP3    H229954   4.119   6.626   0.556  0.9769  1.0782  0.6916
 2799TIP3   OH229955   3.428   5.308   7.677  0.3413  0.4119  0.3647
 2799TIP3    H129956   3.378   5.286   7.600 -0.4488  1.3454  0.6016
 2799TIP3    H229957   3.466   5.225   7.706  1.1548  0.1605 -1.3714
 2800TIP3   OH229958   3.886   3.197   7.856 -0.2542  0.0955 -0.2103
 2800TIP3    H129959   3.848   3.284   7.847 -0.3684 -0.0088 -0.7530
 2800TIP3    H229960   3.849   3.147   7.783  0.6920 -0.0829 -0.5754
 2801TIP3   OH229961   4.340   6.494   0.006 -0.1160  0.1927  0.1935
 2801TIP3    H129962   4.348   6.554  -0.068 -1.7823 -0.2931 -0.3957
 2801TIP3    H229963   4.354   6.550   0.083  0.0865  0.9944 -0.4161
 2802TIP3   OH229964   1.592   4.108   7.196 -0.4051 -0.2045 -0.1819
 2802TIP3    H129965   1.499   4.129   7.205 -0.7236 -1.3678 -0.6990
 2802TIP3    H229966   1.602   4.081   7.105  0.2162 -1.1592  0.1628
 2803TIP3   OH229967   3.479   1.861   6.351  0.0156 -0.8546 -0.0218
 2803TIP3    H129968   3.514   1.947   6.327  1.3909 -1.1141  1.0336
 2803TIP3    H229969   3.504   1.804   6.279  0.0679 -0.6165 -0.1927
 2804TIP3   OH229970   2.039   5.527   6.076  0.3325 -0.2446 -0.6899
 2804TIP3    H129971   1.956   5.508   6.120  0.2618  1.5052 -0.0261
 2804TIP3    H229972   2.060   5.447   6.028 -0.5359 -1.5470  1.0463
 2805TIP3   OH229973   6.445   6.860   6.115  0.1920 -0.0087 -0.2442
 2805TIP3    H129974   6.538   6.850   6.093  0.4564 -1.3125  1.3430
 2805TIP3    H229975   6.422   6.946   6.082  2.0686  0.4879 -0.3278
 2806TIP3   OH229976   1.242   0.638   6.216  0.0073 -0.3654  0.3996
 2806TIP3    H129977   1.246   0.693   6.137 -0.8886  0.2520  0.7645
 2806TIP3    H229978   1.206   0.555   6.186 -0.5236 -0.0621  0.1809
 2807TIP3   OH229979   5.509   2.812   6.524 -0.1627  0.1379  0.4829
 2807TIP3    H129980   5.443   2.743   6.515  0.6243 -0.4766 -0.7299
 2807TIP3    H229981   5.458   2.893   6.531 -1.0642 -0.3999  0.2640
 2808TIP3   OH229982   6.807   6.385   6.266 -0.3242 -0.2844 -0.0910
 2808TIP3    H129983   6.746   6.361   6.196  0.7635 -2.5584 -0.2893
 2808TIP3    H229984   6.756   6.372   6.347 -0.7396 -0.2152 -0.3374
 2809TIP3   OH229985   0.017   1.063   7.362 -0.3361 -0.3002  0.2237
 2809TIP3    H129986   0.060   1.135   7.314  0.1679 -0.5729  0.2665
 2809TIP3    H229987   0.016   1.092   7.453 -0.4839 -0.1833  0.1878
 2810TIP3   OH229988   6.584   6.404   6.441  0.6281  0.1976 -0.2789
 2810TIP3    H129989   6.575   6.356   6.523 -0.6123  1.6288  0.4599
 2810TIP3    H229990   6.503   6.385   6.394  0.2033  1.3848 -0.0566
 2811TIP3   OH229991   2.592   6.151   6.394 -0.3051  0.4689 -0.5998
 2811TIP3    H129992   2.539   6.164   6.315 -4.5869 -0.0801  2.0056
 2811TIP3    H229993   2.573   6.228   6.448  1.8573  0.4133  0.2726
 2812TIP3   OH229994   1.352   5.402   7.766  0.1101 -0.0034 -0.2012
 2812TIP3    H129995   1.293   5.475   7.785  0.5572  0.6682 -1.3662
 2812TIP3    H229996   1.420   5.439   7.711 -0.1312 -1.4797 -1.5401
 2813TIP3   OH229997   3.013   5.085   1.429 -0.5229 -0.1095 -0.7281
 2813TIP3    H129998   3.050   5.099   1.516  0.0638 -0.6142 -0.8951
 2813TIP3    H229999   3.072   5.023   1.387 -2.2025 -1.8470 -0.5800
 2814TIP3   OH230000   3.669   1.233   5.985 -0.0515  0.5060 -0.6875
 2814TIP3    H130001   3.589   1.277   6.012 -0.1616 -0.9689  1.5532
 2814TIP3    H230002   3.641   1.165   5.923 -0.2580  1.3712 -1.5552
 2815TIP3   OH230003   0.071   0.559   6.778  0.3281  0.1052 -0.2328
 2815TIP3    H130004   0.087   0.652   6.758 -1.5283  1.1968  3.0358
 2815TIP3    H230005  -0.018   0.543   6.745  0.6163 -0.4954 -0.7225
 2816TIP3   OH230006   5.783   0.737   7.305  0.2223  0.3835 -0.3136
 2816TIP3    H130007   5.798   0.826   7.337 -1.0906 -0.1353  1.8539
 2816TIP3    H230008   5.845   0.684   7.354 -1.3825 -0.3354  1.0023
 2817TIP3   OH230009   6.326   4.066   6.772 -0.0151 -0.5789 -0.0245
 2817TIP3    H130010   6.344   3.978   6.805  1.1410  0.2145  1.5478
 2817TIP3    H230011   6.372   4.070   6.687  1.5803 -0.8610  0.8033
 2818TIP3   OH230012   5.146   6.496   0.016 -0.4531  0.2446 -0.0319
 2818TIP3    H130013   5.075   6.558   0.031  0.4754  1.4210 -0.4142
 2818TIP3    H230014   5.115   6.441  -0.055 -0.5037  1.5179 -1.0074
 2819TIP3   OH230015   4.379   0.193   0.822  0.1154  0.6824  0.0699
 2819TIP3    H130016   4.439   0.266   0.841  2.0730 -0.2503 -2.2860
 2819TIP3    H230017   4.375   0.144   0.905  2.3296  0.9922  0.4085
 2820TIP3   OH230018   3.790   5.720   7.473 -0.0861 -1.1391 -0.3926
 2820TIP3    H130019   3.699   5.727   7.445  0.7018 -0.5946 -2.8821
 2820TIP3    H230020   3.842   5.751   7.399  2.1929 -2.5280  0.5450
 2821TIP3   OH230021   6.067   3.737   7.096  0.0938 -0.2158 -0.2946
 2821TIP3    H130022   6.120   3.817   7.091  2.2356 -1.5560  0.1990
 2821TIP3    H230023   6.101   3.682   7.026  0.9690 -2.0163  1.4909
 2822TIP3   OH230024   5.369   3.683   6.668 -0.0280 -0.6558 -0.4400
 2822TIP3    H130025   5.450   3.634   6.651 -0.7313 -2.3686  0.9833
 2822TIP3    H230026   5.323   3.630   6.734 -1.1185  1.5918  0.6421
 2823TIP3   OH230027   5.953   3.396   6.427  0.0280 -0.5745  0.3265
 2823TIP3    H130028   5.922   3.368   6.513 -2.0827 -0.2245 -0.2878
 2823TIP3    H230029   5.879   3.443   6.389  1.9407  1.8890 -0.5003
 2824TIP3   OH230030   2.729   1.525   7.178  0.1066  0.1633 -0.5179
 2824TIP3    H130031   2.734   1.430   7.190 -0.2180 -0.0111 -1.6945
 2824TIP3    H230032   2.810   1.547   7.131 -0.2864  0.3213 -1.1286
 2825TIP3   OH230033   4.191   3.025   7.392 -0.0134 -0.4032  0.6991
 2825TIP3    H130034   4.210   2.987   7.306  1.8831  0.0795  0.8925
 2825TIP3    H230035   4.118   2.973   7.426 -0.7510 -0.6439 -1.1709
 2826TIP3   OH230036   5.765   5.091   6.291  0.1927  0.1053  0.3337
 2826TIP3    H130037   5.806   5.051   6.214 -3.5982  0.6893 -2.1837
 2826TIP3    H230038   5.825   5.161   6.317  2.2553 -1.0473 -1.1794
 2827TIP3   OH230039   1.838   6.553   7.532 -0.5772 -0.0457 -0.0276
 2827TIP3    H130040   1.922   6.589   7.505  0.7448 -0.9456  2.6385
 2827TIP3    H230041   1.815   6.491   7.463  0.5818  0.7402 -1.1384
 2828TIP3   OH230042   4.070   4.262   1.488  0.3154  0.8655 -0.4330
 2828TIP3    H130043   4.015   4.310   1.550  1.0168 -0.6724  1.4401
 2828TIP3    H230044   4.041   4.171   1.495  1.1772  0.4897 -1.5139
 2829TIP3   OH230045   4.801   5.453   7.023 -0.3030  0.3746 -0.1379
 2829TIP3    H130046   4.839   5.534   7.059  2.3105 -0.4455 -0.9689
 2829TIP3    H230047   4.830   5.384   7.083  0.4232 -0.4112 -1.3792
 2830TIP3   OH230048   3.771   3.110   6.646  0.2404  0.2451 -0.0377
 2830TIP3    H130049   3.836   3.044   6.671  0.4613  1.2406  2.0998
 2830TIP3    H230050   3.787   3.125   6.553 -0.9262 -3.9455 -1.0056
 2831TIP3   OH230051   4.639   7.058   7.172  0.3000  0.2323  1.1549
 2831TIP3    H130052   4.684   7.090   7.249 -1.2565  2.1065  1.3389
 2831TIP3    H230053   4.619   7.136   7.121  0.1542 -0.8532 -0.5203
 2832TIP3   OH230054   4.103   4.533   7.311  0.4242 -0.1088  0.2670
 2832TIP3    H130055   4.141   4.617   7.288  1.0890  0.1697  2.2622
 2832TIP3    H230056   4.019   4.555   7.352 -0.4207 -0.5517 -1.1861
 2833TIP3   OH230057   5.571   0.540   6.279  0.2925  0.3514  0.7187
 2833TIP3    H130058   5.565   0.609   6.344  2.3042 -1.9077  3.4425
 2833TIP3    H230059   5.635   0.571   6.216  0.0379  1.6078  1.0737
 2834TIP3   OH230060   1.223   0.633   6.982 -0.0901 -0.0364  0.3426
 2834TIP3    H130061   1.269   0.698   7.036 -0.6976 -0.7719  1.7836
 2834TIP3    H230062   1.220   0.672   6.895  1.7052  0.7938  0.6302
 2835TIP3   OH230063   5.723   6.255   2.051 -0.1981 -0.0927 -0.1595
 2835TIP3    H130064   5.785   6.194   2.010 -0.2926  0.2281 -0.7800
 2835TIP3    H230065   5.679   6.202   2.118  1.2331 -0.1336  0.7504
 2836TIP3   OH230066   0.432   5.446   0.736 -0.5216  0.0917  0.3928
 2836TIP3    H130067   0.443   5.364   0.688 -1.7743  0.6564 -0.9233
 2836TIP3    H230068   0.476   5.511   0.681  0.7414  0.2531  1.5862
 2837TIP3   OH230069   2.779   4.966   0.691  0.0930 -0.3977  0.0381
 2837TIP3    H130070   2.696   4.967   0.740 -0.6285  0.1420 -1.1599
 2837TIP3    H230071   2.797   4.873   0.676 -0.4852 -0.5087  0.0168
 2838TIP3   OH230072   1.876   1.206   7.383  0.1056  0.4893 -0.1934
 2838TIP3    H130073   1.863   1.295   7.350 -0.8603  0.3249 -0.2648
 2838TIP3    H230074   1.971   1.197   7.390  0.1633  2.2290  1.7468
 2839TIP3   OH230075   6.458   1.113   7.391  0.6138  0.3700 -0.5678
 2839TIP3    H130076   6.550   1.136   7.402  0.6054 -0.3320  0.9824
 2839TIP3    H230077   6.415   1.196   7.369  1.5062  0.8125 -0.6403
 2840TIP3   OH230078   0.367   4.365   5.956  0.2629  0.3500  0.3444
 2840TIP3    H130079   0.301   4.333   6.017 -0.9230  0.0885 -1.0614
 2840TIP3    H230080   0.406   4.441   6.000 -1.5536  1.0214  0.8136
 2841TIP3   OH230081   6.912   5.038   0.306  0.3369  0.4364 -0.3657
 2841TIP3    H130082   6.865   4.956   0.293 -2.4326  2.3398 -3.1352
 2841TIP3    H230083   6.979   5.039   0.238  0.3163  0.5012 -0.3855
 2842TIP3   OH230084   3.639   0.213   7.159  0.0824 -0.0463  0.7275
 2842TIP3    H130085   3.661   0.268   7.083  0.6497 -0.8277  0.3167
 2842TIP3    H230086   3.545   0.195   7.150 -0.4459  2.1194  1.6998
 2843TIP3   OH230087   2.392   4.370   6.208  0.2143  0.2391  0.0687
 2843TIP3    H130088   2.365   4.302   6.270 -0.0023 -0.6877 -1.0244
 2843TIP3    H230089   2.336   4.444   6.228  0.7235  0.2459  1.5478
 2844TIP3   OH230090   6.548   1.331   7.711 -0.0062 -0.0379  0.3479
 2844TIP3    H130091   6.468   1.304   7.667 -0.4259  0.0725  1.0425
 2844TIP3    H230092   6.530   1.319   7.804  1.3730 -1.6602  0.4410
 2845TIP3   OH230093   2.780   2.817   0.356  0.3635  0.2894  0.0722
 2845TIP3    H130094   2.774   2.754   0.284 -0.6595  0.9570 -0.4426
 2845TIP3    H230095   2.846   2.780   0.414  1.4683 -0.0850 -1.3862
 2846TIP3   OH230096   1.665   2.528   1.715  0.1920  0.0400 -0.2341
 2846TIP3    H130097   1.625   2.586   1.651 -3.3907 -1.1931  0.7955
 2846TIP3    H230098   1.656   2.574   1.798 -1.2678 -1.2711  0.3538
 2847TIP3   OH230099   4.362   3.899   0.391 -0.3039 -0.2069  0.3468
 2847TIP3    H130100   4.339   3.888   0.483 -0.6892  3.3030  0.7603
 2847TIP3    H230101   4.458   3.896   0.390 -0.2281  1.2141  1.1451
 2848TIP3   OH230102   6.088   1.462   0.858  0.3677 -0.1906 -0.2919
 2848TIP3    H130103   6.162   1.408   0.887  0.7611  0.5182  0.0330
 2848TIP3    H230104   6.062   1.511   0.936 -1.1951 -1.2800 -0.1063
 2849TIP3   OH230105   6.075   0.985   7.584  0.5780  0.4039  0.4216
 2849TIP3    H130106   6.108   1.012   7.669  0.4355 -1.1522  0.9831
 2849TIP3    H230107   6.017   0.911   7.602 -0.2991  0.7236 -0.9225
 2850TIP3   OH230108   1.505   4.801   7.017  0.7528 -0.0549  0.0676
 2850TIP3    H130109   1.582   4.857   7.013  0.1139  0.7691 -0.9378
 2850TIP3    H230110   1.511   4.746   6.939  0.2601  0.1072 -0.0888
 2851TIP3   OH230111   5.632   4.242   8.054 -0.1186  0.1228 -0.1256
 2851TIP3    H130112   5.579   4.303   8.104 -0.3410 -1.6204  1.8261
 2851TIP3    H230113   5.572   4.203   7.991 -0.1778  1.2039 -0.7551
 2852TIP3   OH230114   4.291   0.470   1.816  0.4329 -0.2393  0.0613
 2852TIP3    H130115   4.328   0.413   1.884 -1.3707 -0.1206  1.1764
 2852TIP3    H230116   4.305   0.559   1.848 -0.4163 -0.1829  0.3106
 2853TIP3   OH230117   4.354   0.889   0.135 -0.0026  0.1618  0.2944
 2853TIP3    H130118   4.267   0.849   0.127  0.2520 -0.5426  0.9476
 2853TIP3    H230119   4.369   0.895   0.229  1.0871 -0.7126  0.1937
 2854TIP3   OH230120   2.922   6.176   6.675  0.0870 -0.2950  0.0346
 2854TIP3    H130121   2.878   6.117   6.614  0.6580 -0.1388 -0.5293
 2854TIP3    H230122   2.961   6.244   6.620  0.6590 -0.1852  0.5649
 2855TIP3   OH230123   7.089   4.801   0.836 -0.5436 -0.4077  0.4131
 2855TIP3    H130124   7.131   4.716   0.848 -0.2667 -0.3255  0.0088
 2855TIP3    H230125   7.032   4.789   0.760  0.9133  0.3091 -0.8130
 2856TIP3   OH230126   6.363   2.680   7.678 -0.6342 -0.2006 -0.0630
 2856TIP3    H130127   6.388   2.679   7.771 -0.8014 -0.4653 -0.0227
 2856TIP3    H230128   6.324   2.594   7.662 -0.8200 -0.0686 -0.3228
 2857TIP3   OH230129   1.395   2.029   5.729 -0.1224 -0.3727 -0.1813
 2857TIP3    H130130   1.416   1.977   5.652  1.4990 -3.6696  2.3292
 2857TIP3    H230131   1.481   2.056   5.763 -0.7374 -0.1826  1.2411
 2858TIP3   OH230132   6.873   4.958   7.951  0.4782 -0.0268  0.0953
 2858TIP3    H130133   6.873   4.907   8.032 -2.0725  1.0759  0.8381
 2858TIP3    H230134   6.806   4.916   7.896  0.3947  0.7593 -0.4180
 2859TIP3   OH230135   2.891   5.537   6.589 -0.0067 -0.5134  0.0798
 2859TIP3    H130136   2.814   5.487   6.561 -0.7767  0.6277  0.1298
 2859TIP3    H230137   2.879   5.623   6.550  1.1292 -0.2503  0.3029
 2860TIP3   OH230138   5.875   1.363   0.089 -0.1673  0.1671  0.4805
 2860TIP3    H130139   5.933   1.412   0.031 -0.8887  1.6775  1.0076
 2860TIP3    H230140   5.922   1.283   0.109  0.5778  0.1485 -1.2802
 2861TIP3   OH230141   3.670   4.460   0.312  0.0563  0.0672 -0.4376
 2861TIP3    H130142   3.691   4.434   0.402  1.2513  1.5010 -0.2909
 2861TIP3    H230143   3.675   4.556   0.313  0.0434  0.0882 -2.0359
 2862TIP3   OH230144   2.173   4.783   6.741  0.9466  0.0171  0.1812
 2862TIP3    H130145   2.204   4.726   6.811  1.7115 -1.2657 -1.1817
 2862TIP3    H230146   2.112   4.843   6.784  1.0784 -1.0288  1.8532
 2863TIP3   OH230147   5.405   0.115   7.103  0.1133  0.2457 -0.5291
 2863TIP3    H130148   5.361   0.185   7.150 -0.4058  0.2535 -1.0241
 2863TIP3    H230149   5.351   0.100   7.025  1.2122  0.5540 -1.3635
 2864TIP3   OH230150   5.360   5.949   6.738 -0.7768 -0.0468 -0.4613
 2864TIP3    H130151   5.366   6.033   6.784 -0.1797  0.7535 -1.9553
 2864TIP3    H230152   5.447   5.936   6.700 -1.4734 -0.2604 -2.0506
 2865TIP3   OH230153   3.387   6.837   7.470 -0.2315  0.3988  0.0510
 2865TIP3    H130154   3.444   6.778   7.420 -0.1029 -1.2387  2.0601
 2865TIP3    H230155   3.442   6.913   7.488  0.9392 -0.6201  0.8895
 2866TIP3   OH230156   6.114   6.752   6.947 -0.2932 -0.0622  0.2227
 2866TIP3    H130157   6.197   6.706   6.961 -1.0732 -1.6142 -0.0567
 2866TIP3    H230158   6.137   6.830   6.897  0.7885 -1.3843 -1.3993
 2867TIP3   OH230159   5.491   0.419   0.565 -0.0407  0.3891 -0.0592
 2867TIP3    H130160   5.490   0.424   0.661 -0.4090 -0.9441  0.0086
 2867TIP3    H230161   5.582   0.435   0.541  0.0076  0.9823  0.4977
 2868TIP3   OH230162   3.791   5.475   0.686 -0.0090 -0.0605  0.2770
 2868TIP3    H130163   3.714   5.480   0.629  0.8608 -2.1536 -1.1737
 2868TIP3    H230164   3.801   5.381   0.703  0.3143  0.4697  3.1305
 2869TIP3   OH230165   1.037   4.486   7.721  0.0986 -0.1849 -0.0963
 2869TIP3    H130166   0.995   4.402   7.706 -1.6344  0.7388 -0.5468
 2869TIP3    H230167   1.060   4.486   7.813  0.4658 -1.3097 -0.1894
 2870TIP3   OH230168   1.727   0.377   7.392  0.0996 -0.6865  0.0563
 2870TIP3    H130169   1.703   0.466   7.366  0.1309 -0.6718  0.0781
 2870TIP3    H230170   1.660   0.351   7.455  1.4895  0.2559  1.9530
 2871TIP3   OH230171   4.308   0.317   6.245 -0.9508  0.1308 -0.2630
 2871TIP3    H130172   4.323   0.407   6.273 -0.4046 -0.1591  0.3727
 2871TIP3    H230173   4.391   0.289   6.207  0.4843 -1.7522  4.0332
 2872TIP3   OH230174   2.333   5.524   1.302 -0.1736 -0.1837 -0.0168
 2872TIP3    H130175   2.372   5.575   1.373  0.5097  1.1154 -1.3179
 2872TIP3    H230176   2.407   5.480   1.261 -0.4556 -0.2057 -0.4982
 2873TIP3   OH230177   3.768   2.015   7.659  0.2390  0.5806 -0.0605
 2873TIP3    H130178   3.729   1.933   7.628 -1.3866  0.8419  1.2325
 2873TIP3    H230179   3.738   2.023   7.749  3.0478  0.9673  0.9051
 2874TIP3   OH230180   6.116   0.267   7.837  0.2195 -0.5471 -0.0512
 2874TIP3    H130181   6.038   0.229   7.796  1.1042 -1.7425 -0.6740
 2874TIP3    H230182   6.184   0.200   7.825  2.1970  1.8093 -2.3411
 2875TIP3   OH230183   5.407   0.408   6.102  0.1511  0.1634  0.6063
 2875TIP3    H130184   5.485   0.437   6.149  0.7917  1.0424 -0.9748
 2875TIP3    H230185   5.439   0.351   6.032 -0.5167  1.3045 -0.6632
 2876TIP3   OH230186   3.856   5.779   7.081 -0.5361 -0.6123  0.0265
 2876TIP3    H130187   3.771   5.757   7.043 -0.4262 -0.4606 -0.3103
 2876TIP3    H230188   3.904   5.696   7.084 -2.0798 -1.4613  3.8085
 2877TIP3   OH230189   2.293   2.203   6.656 -0.2326 -0.5343 -0.0418
 2877TIP3    H130190   2.218   2.249   6.618  1.2047  1.4574 -0.5426
 2877TIP3    H230191   2.284   2.112   6.625 -1.1835  0.1919 -1.9604
 2878TIP3   OH230192   4.224   5.463   0.208  0.3430 -0.8528  0.1374
 2878TIP3    H130193   4.309   5.434   0.239  1.0183 -0.7636 -1.5834
 2878TIP3    H230194   4.173   5.383   0.198  0.3430 -0.9391  0.7839
 2879TIP3   OH230195   6.230   6.081   0.981  0.5266  0.1285  0.2057
 2879TIP3    H130196   6.321   6.049   0.977  0.4725 -0.1941  1.3044
 2879TIP3    H230197   6.231   6.146   1.051 -0.0775  0.2020  0.1434
 2880TIP3   OH230198   3.739   6.527   6.564 -0.2790 -0.0385 -0.0625
 2880TIP3    H130199   3.832   6.504   6.571  0.0012  1.0500 -0.0214
 2880TIP3    H230200   3.720   6.522   6.470  0.0580  0.5629 -0.1713
 2881TIP3   OH230201   5.339   6.014   1.376  0.3149 -0.5360  0.4810
 2881TIP3    H130202   5.322   5.924   1.404 -1.0605 -0.8116 -1.0817
 2881TIP3    H230203   5.272   6.030   1.309  1.9284  0.8865 -0.8409
 2882TIP3   OH230204   5.540   6.080   0.434 -0.2791  0.0223  1.5726
 2882TIP3    H130205   5.614   6.051   0.382  0.0825 -0.5508  2.3963
 2882TIP3    H230206   5.503   6.154   0.385 -0.8800 -1.4565 -0.2834
 2883TIP3   OH230207   5.059   3.284   0.101  0.2478  0.1664  0.8193
 2883TIP3    H130208   5.111   3.249   0.173  1.0342  0.5352  0.4401
 2883TIP3    H230209   5.088   3.375   0.092  2.6391 -0.8014 -2.1690
 2884TIP3   OH230210   1.387   1.478   8.053 -0.4975  0.4452  0.6442
 2884TIP3    H130211   1.351   1.390   8.040  1.6059 -0.6209  1.8330
 2884TIP3    H230212   1.401   1.485   8.147 -0.3579  1.9487  0.5225
 2885TIP3   OH230213   5.487   1.782   7.492  0.1204 -0.1292  0.0924
 2885TIP3    H130214   5.393   1.779   7.471 -0.0012  2.4732  0.1871
 2885TIP3    H230215   5.530   1.764   7.408 -0.4274 -1.4050  0.0595
 2886TIP3   OH230216   3.880   6.250   6.958 -0.5442  0.0432 -0.6693
 2886TIP3    H130217   3.902   6.207   7.041  0.0533  1.2115 -0.1906
 2886TIP3    H230218   3.834   6.184   6.907 -1.2720 -0.5700  0.7590
 2887TIP3   OH230219   3.005   1.097   5.606  0.1613  0.5539  0.7355
 2887TIP3    H130220   2.946   1.088   5.682 -1.0255 -0.0996 -0.2501
 2887TIP3    H230221   2.979   1.180   5.566  0.9339  1.0047  1.1526
 2888TIP3   OH230222   4.996   5.281   1.622 -0.4027 -0.3116 -0.3643
 2888TIP3    H130223   5.009   5.256   1.714 -0.3271 -1.0312 -0.5682
 2888TIP3    H230224   4.910   5.244   1.600 -1.3518  1.5715  0.0005
 2889TIP3   OH230225   4.780   4.378   7.425 -0.1218 -0.3921 -0.0823
 2889TIP3    H130226   4.841   4.307   7.407 -1.1463 -1.5738  0.9602
 2889TIP3    H230227   4.697   4.349   7.386 -0.3310  0.5970 -0.3723
 2890TIP3   OH230228   1.198   5.062   7.911  0.2648 -0.3440 -0.4513
 2890TIP3    H130229   1.196   5.107   7.827 -1.6077 -0.6222 -0.5973
 2890TIP3    H230230   1.283   5.083   7.949  0.3477  1.3621 -1.5570
 2891TIP3   OH230231   1.838   1.202   6.522  0.4596  0.7484 -0.4249
 2891TIP3    H130232   1.867   1.115   6.549 -0.8114  0.7481  1.0320
 2891TIP3    H230233   1.824   1.195   6.427 -0.2494 -0.8133 -0.2094
 2892TIP3   OH230234   5.348   7.009   7.780  0.7207  0.3967 -0.0218
 2892TIP3    H130235   5.418   7.073   7.768  0.8838  0.6496  2.0211
 2892TIP3    H230236   5.347   6.993   7.875 -1.0700 -0.6469 -0.2019
 2893TIP3   OH230237   3.948   0.060   6.408  0.2067 -0.0005 -0.9050
 2893TIP3    H130238   3.978  -0.020   6.452 -1.1583  1.1852  2.3570
 2893TIP3    H230239   3.977   0.131   6.465 -1.2583  1.6302 -2.1517
 2894TIP3   OH230240   0.369   3.083   6.682  0.1135 -0.0073 -0.8771
 2894TIP3    H130241   0.293   3.115   6.731  0.5722  0.2936 -0.3528
 2894TIP3    H230242   0.415   3.026   6.744 -0.9614 -2.1233 -1.9510
 2895TIP3   OH230243   4.491   5.961   7.055  0.2391  0.4552  0.1399
 2895TIP3    H130244   4.510   6.054   7.066  1.5406  0.1826  0.2180
 2895TIP3    H230245   4.455   5.934   7.140  1.6604  0.4609  0.7640
 2896TIP3   OH230246   4.499   6.293   0.919  0.8632 -0.2158  0.0944
 2896TIP3    H130247   4.494   6.377   0.965 -1.3361 -0.5099  0.4749
 2896TIP3    H230248   4.542   6.234   0.981  0.5938  0.1341  0.6249
 2897TIP3   OH230249   2.203   6.085   5.957 -0.1392  0.3461  0.0444
 2897TIP3    H130250   2.156   6.035   5.890 -1.3829  3.3841 -1.4282
 2897TIP3    H230251   2.293   6.052   5.952 -0.0884  0.7909 -3.4805
 2898TIP3   OH230252   5.951   6.007   2.143 -0.5820  0.4703 -0.1616
 2898TIP3    H130253   5.981   5.990   2.233  1.4792 -0.4108 -0.9922
 2898TIP3    H230254   5.882   5.943   2.128  0.5857 -0.8521  0.0411
 2899TIP3   OH230255   1.715   5.955   0.546  0.1587 -0.0097  0.6380
 2899TIP3    H130256   1.625   5.926   0.559 -1.1507  3.5720  0.3009
 2899TIP3    H230257   1.750   5.966   0.635 -0.6342  1.0153  0.8427
 2900TIP3   OH230258   3.878   1.611   6.597  0.2888  0.1949 -0.1312
 2900TIP3    H130259   3.935   1.539   6.570 -1.0962 -0.7033 -0.7542
 2900TIP3    H230260   3.814   1.619   6.526 -0.6628  0.8225  0.7746
 2901TIP3   OH230261   0.583   1.919   6.457 -0.3494 -0.4542 -0.2933
 2901TIP3    H130262   0.674   1.912   6.428  0.0353  0.1337  0.7573
 2901TIP3    H230263   0.558   1.829   6.480 -0.7378 -0.9750 -2.6322
 2902TIP3   OH230264   5.515   1.471   6.949  0.2158  0.4613  1.2372
 2902TIP3    H130265   5.498   1.434   7.036  0.4649 -0.7723  0.7722
 2902TIP3    H230266   5.465   1.552   6.947  0.8907  0.9290  2.8545
 2903TIP3   OH230267   3.390   3.212   1.351 -0.0784 -0.8678  0.0323
 2903TIP3    H130268   3.461   3.231   1.290  0.4063 -1.5976  0.3674
 2903TIP3    H230269   3.421   3.244   1.435 -0.3721 -0.6800  0.0675
 2904TIP3   OH230270   1.502   3.424   0.067 -0.2422 -0.2330  0.3683
 2904TIP3    H130271   1.514   3.378  -0.016 -1.9927  0.9906 -0.6055
 2904TIP3    H230272   1.459   3.360   0.124  0.9895 -1.0842  0.3565
 2905TIP3   OH230273   1.137   5.852   7.296 -0.5474  0.0886 -0.1590
 2905TIP3    H130274   1.206   5.797   7.334  0.3811  0.5670 -1.1290
 2905TIP3    H230275   1.181   5.935   7.275 -0.8501 -0.3856 -2.8926
 2906TIP3   OH230276   3.610   0.012   7.708 -0.2141  0.1524  0.2340
 2906TIP3    H130277   3.584   0.014   7.616  0.6034  1.3516  0.0127
 2906TIP3    H230278   3.546  -0.045   7.750 -0.4233 -0.6462 -1.1293
 2907TIP3   OH230279   1.488   1.121   0.201 -0.7410 -0.2876  0.2660
 2907TIP3    H130280   1.559   1.165   0.247 -3.1506  3.2224  0.8062
 2907TIP3    H230281   1.532   1.065   0.136  2.4865  2.0508  0.3482
 2908TIP3   OH230282   5.076   0.164   6.955  0.0693  0.1046 -0.2402
 2908TIP3    H130283   5.003   0.109   6.927  0.7641 -1.1448  0.3924
 2908TIP3    H230284   5.033   0.241   6.993 -0.9211 -0.3208 -0.4670
 2909TIP3   OH230285   2.075   2.237   6.457 -0.5039 -0.2513  0.8052
 2909TIP3    H130286   2.139   2.188   6.405  0.5864  1.3853  0.5831
 2909TIP3    H230287   2.009   2.263   6.394 -0.1557  0.1132  0.5888
 2910TIP3   OH230288   5.085   1.753   7.097 -0.8136 -0.6547 -0.2448
 2910TIP3    H130289   4.997   1.778   7.068 -0.2191  1.2496 -0.4939
 2910TIP3    H230290   5.099   1.665   7.061 -2.2277 -0.5683 -1.0273
 2911TIP3   OH230291   0.052   3.089   7.755  0.4635 -0.3800 -0.0099
 2911TIP3    H130292   0.116   3.127   7.696  1.5717 -1.9469  0.1519
 2911TIP3    H230293   0.104   3.054   7.828 -0.8089  0.8470  1.5301
 2912TIP3   OH230294   0.050   5.040   1.469  0.0170 -0.0226  0.0581
 2912TIP3    H130295   0.093   4.964   1.507  1.1811 -0.1897 -1.5286
 2912TIP3    H230296  -0.018   5.064   1.532  0.4584 -1.6078  1.1545
 2913TIP3   OH230297   6.045   5.329   0.943 -0.0251 -0.6087  0.1089
 2913TIP3    H130298   6.087   5.249   0.910  2.2054  0.6936 -0.2628
 2913TIP3    H230299   6.012   5.372   0.864  1.9452  0.6035 -0.0765
 2914TIP3   OH230300   5.250   6.194   6.507  0.1137 -0.4705  0.3736
 2914TIP3    H130301   5.235   6.196   6.412 -1.3270 -0.7456  0.5731
 2914TIP3    H230302   5.184   6.132   6.540 -0.6321  1.0109  1.7454
 2915TIP3   OH230303   4.905   3.804   0.418 -0.2287  0.8064  0.2850
 2915TIP3    H130304   4.922   3.710   0.426  2.1869  1.1889 -0.0114
 2915TIP3    H230305   4.946   3.843   0.495 -0.9360  1.6672  0.2386
 2916TIP3   OH230306   3.095   6.875   1.303 -0.1479 -0.5927 -0.2312
 2916TIP3    H130307   3.033   6.922   1.359  0.0706 -0.8872  0.2600
 2916TIP3    H230308   3.180   6.913   1.323 -0.1233 -0.3987 -0.6856
 2917TIP3   OH230309   1.292   0.418   6.471  0.5896 -0.4741 -0.1832
 2917TIP3    H130310   1.309   0.432   6.564  0.4205 -2.6941  0.1947
 2917TIP3    H230311   1.263   0.504   6.439  0.0068  0.1495  1.9396
 2918TIP3   OH230312   3.665   4.617   7.244 -0.3925  0.4098 -0.3379
 2918TIP3    H130313   3.648   4.546   7.183  0.2827 -0.2037  0.1920
 2918TIP3    H230314   3.642   4.696   7.194 -1.4602 -0.1802 -0.8122
 2919TIP3   OH230315   4.008   6.856   0.608  0.5707 -0.1627  0.3456
 2919TIP3    H130316   3.982   6.948   0.596  1.2501  0.2540  1.9509
 2919TIP3    H230317   3.997   6.841   0.702  0.9470 -1.5884  0.1618
 2920TIP3   OH230318   1.862   0.398   6.790  0.1287 -0.4178 -0.4213
 2920TIP3    H130319   1.834   0.442   6.870  2.2386 -0.8343  0.5783
 2920TIP3    H230320   1.861   0.468   6.724 -0.0790  0.3071  0.3350
 2921TIP3   OH230321   1.315   1.069   1.291  0.4422  0.0511 -0.0111
 2921TIP3    H130322   1.356   1.061   1.378 -0.7066 -2.4774  0.3757
 2921TIP3    H230323   1.357   1.000   1.239 -0.4639  0.0903 -0.7978
 2922TIP3   OH230324   0.327   6.032   1.507  0.3014  0.3958  0.3394
 2922TIP3    H130325   0.377   5.965   1.554  0.3881  0.4761  0.3627
 2922TIP3    H230326   0.337   6.008   1.415 -1.5466 -0.9375  0.4647
 2923TIP3   OH230327   4.832   5.831   5.486  0.3285 -0.4934  0.3718
 2923TIP3    H130328   4.783   5.878   5.553 -2.3219  1.1813 -2.5914
 2923TIP3    H230329   4.823   5.739   5.510 -3.6782 -0.1800  0.4074
 2924TIP3   OH230330   2.086   4.377   7.924  0.4402 -0.0336  0.0835
 2924TIP3    H130331   2.042   4.458   7.952  0.4621  0.5107 -1.3902
 2924TIP3    H230332   2.017   4.311   7.922  0.1211  0.3015 -0.0932
 2925TIP3   OH230333   6.144   3.919   6.482  0.6449 -0.5178  0.1344
 2925TIP3    H130334   6.235   3.919   6.452  0.2982  0.7429 -0.9532
 2925TIP3    H230335   6.113   4.008   6.465 -0.7180 -0.8624  0.7401
 2926TIP3   OH230336   5.117   5.288   7.652  0.3825  0.0571  0.3162
 2926TIP3    H130337   5.028   5.318   7.634  0.8245  1.3524  0.2531
 2926TIP3    H230338   5.107   5.194   7.670 -1.1225  0.3866  1.3143
 2927TIP3   OH230339   5.431   0.026   1.312 -0.1635 -0.2651 -0.0769
 2927TIP3    H130340   5.367   0.026   1.240  1.6173 -0.3297 -1.7018
 2927TIP3    H230341   5.490  -0.046   1.292  1.1195  0.5230  0.7574
 2928TIP3   OH230342   1.573   0.030   6.947 -0.3683  0.2277 -0.0817
 2928TIP3    H130343   1.512   0.098   6.918 -0.2224  1.3196  2.0564
 2928TIP3    H230344   1.517  -0.033   6.993 -0.0689  0.5972  0.8003
 2929TIP3   OH230345   1.910   0.200   6.559  0.0645 -0.2060  0.1892
 2929TIP3    H130346   1.904   0.276   6.618  0.9149 -0.7148  0.9463
 2929TIP3    H230347   1.837   0.211   6.498 -0.2016  0.8854  0.6915
 2930TIP3   OH230348   5.689   6.840   1.808 -0.0025 -0.1758  0.2509
 2930TIP3    H130349   5.675   6.933   1.792  1.9980  0.2911  1.0897
 2930TIP3    H230350   5.670   6.828   1.901 -0.0099 -0.5706  0.2011
 2931TIP3   OH230351   4.434   6.606   6.814 -0.2070  0.3204  0.3632
 2931TIP3    H130352   4.410   6.680   6.869 -1.6262  1.4772 -1.7077
 2931TIP3    H230353   4.469   6.646   6.734 -0.3214 -1.2523 -0.4943
 2932TIP3   OH230354   5.889   4.640   0.044  0.0509 -0.1815 -0.0794
 2932TIP3    H130355   5.893   4.549   0.075  0.2437 -0.8327 -1.9580
 2932TIP3    H230356   5.973   4.678   0.070  0.4321 -0.8701 -0.2921
 2933TIP3   OH230357   2.201   5.890   7.821  0.2064 -0.2501 -0.6265
 2933TIP3    H130358   2.192   5.983   7.846 -1.8311 -0.2545 -1.2533
 2933TIP3    H230359   2.203   5.843   7.904 -1.8772  0.1354 -0.3081
 2934TIP3   OH230360   3.787   5.641   6.262  0.2465 -0.3499  0.2303
 2934TIP3    H130361   3.719   5.597   6.211 -0.6963 -1.7362  2.6095
 2934TIP3    H230362   3.761   5.733   6.263 -1.4204 -0.8072  0.7930
 2935TIP3   OH230363   5.139   5.588   0.743  0.5367 -0.2758 -0.6517
 2935TIP3    H130364   5.064   5.612   0.689  1.2030 -1.0246 -1.9438
 2935TIP3    H230365   5.126   5.495   0.762  0.0221  0.1035  0.9758
 2936TIP3   OH230366   2.164   5.051   6.558 -0.6811  0.0477  0.2101
 2936TIP3    H130367   2.161   5.101   6.640  0.3501 -1.3423  1.1066
 2936TIP3    H230368   2.083   5.002   6.556 -0.6251 -0.0540  0.4838
 2937TIP3   OH230369   2.029   3.508   0.814 -0.4340  1.4239 -0.5182
 2937TIP3    H130370   2.086   3.470   0.748 -0.5308  1.9945 -0.9387
 2937TIP3    H230371   2.037   3.450   0.890  0.1128  1.0827 -0.8372
 2938TIP3   OH230372   5.754   3.006   0.088  0.3754 -0.4158 -0.4910
 2938TIP3    H130373   5.739   3.067   0.016 -0.3856  1.1155  0.9199
 2938TIP3    H230374   5.850   2.998   0.092  0.5183  1.0432 -0.4372
 2939TIP3   OH230375   4.443   5.449   7.724  0.0869 -0.4239 -0.0144
 2939TIP3    H130376   4.367   5.469   7.669  0.1378  0.3151  0.1866
 2939TIP3    H230377   4.510   5.511   7.697 -0.2838  0.7367  1.7059
 2940TIP3   OH230378   6.982   4.616   0.485 -0.3852  0.3143  0.3830
 2940TIP3    H130379   7.078   4.624   0.490 -0.4177  0.2658  1.0960
 2940TIP3    H230380   6.950   4.681   0.547 -0.8093  0.1698  0.3114
 2941TIP3   OH230381   0.144   5.135   5.833  0.4315  0.4237 -0.2287
 2941TIP3    H130382   0.163   5.228   5.819  2.5775  0.0396 -0.0087
 2941TIP3    H230383   0.229   5.094   5.845 -0.5120 -1.5229  0.1249
 2942TIP3   OH230384   5.260   6.882   6.361 -0.4280  0.2890 -0.5395
 2942TIP3    H130385   5.172   6.919   6.353 -0.3351  0.2197 -1.9564
 2942TIP3    H230386   5.258   6.835   6.445 -1.2809  1.4745  0.1242
 2943TIP3   OH230387   4.192   4.723   6.167 -1.0552  0.2304 -0.3086
 2943TIP3    H130388   4.145   4.806   6.177 -1.0305  0.1411  0.5691
 2943TIP3    H230389   4.123   4.658   6.152 -1.1787  0.1947  0.3838
 2944TIP3   OH230390   6.576   0.065   7.726 -0.3743 -0.3240 -0.2087
 2944TIP3    H130391   6.599   0.148   7.683  0.2764 -0.2766  0.2266
 2944TIP3    H230392   6.580   0.085   7.819 -1.8626 -0.4062 -0.1038
 2945TIP3   OH230393   2.041   0.254   6.958  0.4474 -0.1105 -0.1123
 2945TIP3    H130394   1.988   0.305   6.896 -0.3867 -0.8368 -0.0021
 2945TIP3    H230395   2.008   0.165   6.949  1.5134 -0.5245  0.1193
 2946TIP3   OH230396   2.806   5.296   7.112 -1.0422  0.6806  0.4684
 2946TIP3    H130397   2.809   5.372   7.170  4.2774  1.8883 -1.0507
 2946TIP3    H230398   2.760   5.327   7.034 -0.9208  1.6453  0.7749
 2947TIP3   OH230399   4.416   6.668   5.764 -0.2177 -1.1374 -0.1842
 2947TIP3    H130400   4.466   6.735   5.717  0.7833 -0.2383  2.1185
 2947TIP3    H230401   4.329   6.671   5.724  0.1065  0.8141 -0.8039
 2948TIP3   OH230402   6.394   0.517   0.080 -0.5067  0.5188 -0.1360
 2948TIP3    H130403   6.433   0.532  -0.006 -0.6965 -1.3820 -0.5667
 2948TIP3    H230404   6.420   0.594   0.132 -1.2226  2.1504 -2.1532
 2949TIP3   OH230405   6.479   1.239   7.978  0.5952  0.3753 -0.0916
 2949TIP3    H130406   6.448   1.149   7.981  0.3848  0.4000 -1.5179
 2949TIP3    H230407   6.527   1.250   8.061  2.1073 -1.5801 -0.6704
 2950TIP3   OH230408   0.706   3.347   1.219  0.2295 -0.1920  0.1384
 2950TIP3    H130409   0.746   3.426   1.183  0.8027 -0.5421 -0.0017
 2950TIP3    H230410   0.764   3.323   1.292 -0.2942 -0.1282  0.5793
 2951TIP3   OH230411   5.344   1.253   6.614  0.5916  0.1814 -0.3937
 2951TIP3    H130412   5.261   1.251   6.565  0.6956 -0.4225 -0.5457
 2951TIP3    H230413   5.397   1.185   6.574  0.9529  0.1820  0.0825
 2952TIP3   OH230414   4.065   6.497   0.130  0.1963 -0.0044 -0.1523
 2952TIP3    H130415   3.975   6.467   0.147  0.2329 -0.4093 -0.6840
 2952TIP3    H230416   4.092   6.449   0.052  0.4281  1.0373 -0.7310
 2953TIP3   OH230417   5.436   2.441   6.504 -0.1529 -0.5947 -1.0295
 2953TIP3    H130418   5.503   2.403   6.448 -0.4759 -1.1821 -1.0225
 2953TIP3    H230419   5.361   2.455   6.446  0.4789  1.5164 -1.3976
 2954TIP3   OH230420   5.050   0.190   7.725  0.1238  0.5142 -0.2131
 2954TIP3    H130421   5.050   0.272   7.775 -1.1133  0.0824  0.5217
 2954TIP3    H230422   5.126   0.197   7.667  0.7572  1.6334  0.7301
 2955TIP3   OH230423   1.815   0.074   7.131  0.4202 -0.2102  0.2356
 2955TIP3    H130424   1.736   0.106   7.087  0.4043  0.7529  0.9503
 2955TIP3    H230425   1.801  -0.021   7.140 -0.9911  0.0614  1.0436
 2956TIP3   OH230426   4.784   4.733   7.295 -0.2805  0.2985 -0.0547
 2956TIP3    H130427   4.794   4.828   7.284 -0.4002  0.2347 -0.7367
 2956TIP3    H230428   4.704   4.711   7.247  1.5740 -0.6429 -2.8982
 2957TIP3   OH230429   0.587   0.128   6.632  0.4605  0.0349 -0.0769
 2957TIP3    H130430   0.537   0.120   6.551  1.1822  0.0344 -0.5234
 2957TIP3    H230431   0.675   0.096   6.610  0.4463 -0.6989  0.9071
 2958TIP3   OH230432   0.679   6.920   6.789  0.1468  0.0874  0.0078
 2958TIP3    H130433   0.605   6.873   6.749  0.3549  0.1245 -0.4252
 2958TIP3    H230434   0.678   6.893   6.881  1.8911 -2.8536 -0.7783
 2959TIP3   OH230435   5.446   1.520   6.375  0.1377 -0.1210 -0.3722
 2959TIP3    H130436   5.367   1.471   6.352  1.1677 -2.2317  0.4777
 2959TIP3    H230437   5.446   1.522   6.470  0.8873  0.2354 -0.3781
 2960TIP3   OH230438   2.446   4.861   6.827  0.6146 -0.1514 -0.2571
 2960TIP3    H130439   2.397   4.787   6.863 -2.1607  1.5181 -0.4665
 2960TIP3    H230440   2.448   4.926   6.897 -0.2923  1.0738 -1.3525
 2961TIP3   OH230441   2.324   6.499   1.109 -0.5224  0.1086 -0.2202
 2961TIP3    H130442   2.318   6.434   1.038 -1.4990  0.0644 -0.1097
 2961TIP3    H230443   2.237   6.498   1.149 -0.3603  1.0525  0.1676
 2962TIP3   OH230444   2.467   6.311   0.138  0.0237  0.5470  0.2930
 2962TIP3    H130445   2.547   6.335   0.091 -0.0980 -0.9837 -0.7170
 2962TIP3    H230446   2.406   6.286   0.069 -0.6652 -0.2319  1.1817
 2963TIP3   OH230447   2.463   6.653   0.019  0.2166 -0.3114 -0.1229
 2963TIP3    H130448   2.452   6.697  -0.065 -0.4317 -1.6895 -0.7765
 2963TIP3    H230449   2.532   6.588   0.003  0.7614  0.0536  0.6775
 2964TIP3   OH230450   5.634   0.027   6.938  0.2464 -0.0579 -0.1001
 2964TIP3    H130451   5.667  -0.049   6.988  1.1575  0.8077  0.6393
 2964TIP3    H230452   5.544   0.038   6.968  0.4560 -0.1889  0.5991
 2965TIP3   OH230453   5.618   5.301   6.496  0.7646 -0.2023  0.1832
 2965TIP3    H130454   5.614   5.227   6.557  0.6212 -1.7865 -1.6739
 2965TIP3    H230455   5.668   5.267   6.422 -0.6503  1.0629 -1.3750
 2966TIP3   OH230456   2.289   1.453   6.890 -0.0596  0.0623  0.3598
 2966TIP3    H130457   2.233   1.454   6.813 -0.1817  0.4339  0.4549
 2966TIP3    H230458   2.359   1.392   6.868 -0.8645 -0.9205  0.5063
 2967TIP3   OH230459   5.252   1.212   6.972 -0.6386  0.0010  0.1697
 2967TIP3    H130460   5.237   1.150   7.043  0.2255  1.1288  1.3498
 2967TIP3    H230461   5.320   1.172   6.918 -1.0987 -0.7285  0.1298
 2968TIP3   OH230462   1.263   6.469   0.051 -0.0526  0.4875 -0.1013
 2968TIP3    H130463   1.254   6.429   0.138  1.1102 -0.3612 -0.3690
 2968TIP3    H230464   1.185   6.525   0.043 -0.1244  0.6625  1.5258
 2969TIP3   OH230465   0.012   7.102   6.259  0.5213  0.1748  0.0654
 2969TIP3    H130466   0.066   7.042   6.208 -1.0646  0.0023 -1.4481
 2969TIP3    H230467  -0.015   7.050   6.335  1.6351 -0.0554  0.3129
 2970TIP3   OH230468   5.058   4.426   7.580 -0.3314  0.2921 -0.1980
 2970TIP3    H130469   5.101   4.512   7.578  0.4199 -0.0793  0.0105
 2970TIP3    H230470   5.009   4.426   7.662 -0.3027  0.5069 -0.1786
 2971TIP3   OH230471   7.065   6.542   0.426 -0.2167 -0.0442  1.0425
 2971TIP3    H130472   7.052   6.447   0.435  2.5060 -0.2181  3.9533
 2971TIP3    H230473   7.024   6.579   0.504  0.3479  0.9958  0.8483
 2972TIP3   OH230474   0.315   2.297   6.495  0.9140 -0.1052 -0.5169
 2972TIP3    H130475   0.265   2.351   6.555  0.9576  0.1585 -0.7142
 2972TIP3    H230476   0.261   2.292   6.416  0.5904 -0.9413 -0.2425
 2973TIP3   OH230477   5.706   5.861   6.752  0.1124 -0.6085  0.0441
 2973TIP3    H130478   5.793   5.848   6.714 -0.4505 -1.5139 -0.9408
 2973TIP3    H230479   5.700   5.956   6.766  0.9655 -0.4600 -0.5878
 2974TIP3   OH230480   3.485   0.002   7.459  0.0985  0.4298 -0.0106
 2974TIP3    H130481   3.414   0.062   7.438 -0.7722  0.0072  1.6564
 2974TIP3    H230482   3.545   0.008   7.384 -2.1116  0.1451 -1.8594
 2975TIP3   OH230483   6.086   3.670   6.597  0.2389 -0.0621 -0.3246
 2975TIP3    H130484   6.074   3.617   6.518 -0.7945 -0.1124 -0.1451
 2975TIP3    H230485   6.115   3.756   6.564  1.0833 -0.4706 -0.6689
 2976TIP3   OH230486   3.213   5.610   6.949 -0.6475  0.3225 -0.6322
 2976TIP3    H130487   3.129   5.604   6.995 -0.0822 -0.9790  0.2566
 2976TIP3    H230488   3.242   5.700   6.966 -1.6407  0.6483 -0.5720
 2977TIP3   OH230489   0.294   3.971   0.427  0.9200 -0.2543  0.1605
 2977TIP3    H130490   0.313   3.880   0.406 -2.5635 -0.4240 -2.8356
 2977TIP3    H230491   0.242   3.967   0.507  2.3750 -0.7397  1.0836
 2978TIP3   OH230492   0.447   6.324   7.802 -0.0739 -0.0929  0.4103
 2978TIP3    H130493   0.388   6.252   7.781 -0.4105 -0.2852  1.9361
 2978TIP3    H230494   0.390   6.401   7.811 -0.0334 -0.1622  1.3179
 2979TIP3   OH230495   4.279   0.895   6.624 -0.1181 -0.3537 -0.0625
 2979TIP3    H130496   4.201   0.931   6.584 -0.4271 -0.5293  0.3795
 2979TIP3    H230497   4.317   0.967   6.675  1.9320  0.7781 -3.0438
 2980TIP3   OH230498   2.905   4.665   6.571 -0.7610  0.1097  0.4880
 2980TIP3    H130499   2.955   4.746   6.578 -2.1038  0.8979  1.2120
 2980TIP3    H230500   2.925   4.617   6.651 -2.4671  1.2075  1.6138
 2981TIP3   OH230501   4.938   1.353   7.097  0.2082 -0.6789  0.1032
 2981TIP3    H130502   4.922   1.319   7.186 -1.1376 -1.0647 -0.2773
 2981TIP3    H230503   4.856   1.338   7.051  0.8990 -0.4473 -1.2095
 2982TIP3   OH230504   5.564   3.642   6.924 -0.3076  0.2145 -0.2623
 2982TIP3    H130505   5.470   3.623   6.917 -0.0107 -1.5411  0.1329
 2982TIP3    H230506   5.606   3.557   6.912  1.2600  1.0662 -0.8630
 2983TIP3   OH230507   4.826   4.997   7.370  0.2671 -0.7795 -0.0675
 2983TIP3    H130508   4.786   5.015   7.455  0.6025 -0.1096 -0.0521
 2983TIP3    H230509   4.919   5.015   7.382  0.4520 -1.5197 -0.3399
 2984TIP3   OH230510   0.638   7.041   5.865 -0.3566  0.0101 -0.2714
 2984TIP3    H130511   0.655   7.134   5.853 -2.6815  0.8241  2.0897
 2984TIP3    H230512   0.716   7.007   5.909 -0.9322  1.6688  2.1502
 2985TIP3   OH230513   1.556   6.489   0.949  0.2679  0.0909 -0.8396
 2985TIP3    H130514   1.599   6.500   0.864  1.3480  2.3731 -0.0264
 2985TIP3    H230515   1.619   6.441   1.003  0.5527  0.7622 -0.5792
 2986TIP3   OH230516   6.331   6.718   5.617 -0.3753 -0.0668 -0.1842
 2986TIP3    H130517   6.401   6.659   5.643 -0.6567 -0.8848 -1.2610
 2986TIP3    H230518   6.374   6.802   5.602  0.2378 -0.3481  0.0028
 2987TIP3   OH230519   0.348   6.106   0.942  0.5172 -0.1777 -0.1008
 2987TIP3    H130520   0.352   6.194   0.979 -1.0885 -0.1839  0.1211
 2987TIP3    H230521   0.431   6.097   0.894  1.1579  1.0508  0.7325
 2988TIP3   OH230522   4.973   2.971   6.919 -0.0505 -0.0311  0.4438
 2988TIP3    H130523   4.972   2.886   6.963 -0.4765 -0.5045 -0.4747
 2988TIP3    H230524   4.993   2.951   6.828 -0.0759  0.8660  0.2357
 2989TIP3   OH230525   1.003   0.298   2.020 -0.3124  0.6920 -0.6885
 2989TIP3    H130526   0.948   0.368   1.984 -1.3798 -0.2543 -0.9157
 2989TIP3    H230527   0.967   0.218   1.982 -0.9256 -0.2503  1.8430
 2990TIP3   OH230528   1.629   1.401   1.492 -0.4707 -0.1064  0.1042
 2990TIP3    H130529   1.717   1.381   1.523  0.2749  1.2749 -1.0442
 2990TIP3    H230530   1.598   1.321   1.451 -0.2398 -0.9789  1.6180
 2991TIP3   OH230531   1.653   2.930   8.050 -0.7366 -0.5931 -0.0355
 2991TIP3    H130532   1.748   2.938   8.063 -0.8919 -0.3398  0.9545
 2991TIP3    H230533   1.644   2.904   7.958  0.2211  1.1941 -0.6738
 2992TIP3   OH230534   3.335   5.853   6.889  0.3576 -0.3026  0.4321
 2992TIP3    H130535   3.429   5.850   6.869  0.3551  2.3575 -0.1442
 2992TIP3    H230536   3.292   5.842   6.804  0.2250  2.4243  0.1241
 2993TIP3   OH230537   5.369   7.051   7.424  0.7651 -0.3628 -0.6819
 2993TIP3    H130538   5.345   6.977   7.368  0.6443  0.5347 -1.8390
 2993TIP3    H230539   5.459   7.071   7.399  1.3957 -1.2481  0.8898
 2994TIP3   OH230540   6.048   2.780   0.081  0.1344  0.2212 -0.3539
 2994TIP3    H130541   6.111   2.770   0.009 -0.7381 -0.4467 -1.0426
 2994TIP3    H230542   6.035   2.874   0.089  0.3456  0.3087 -0.9861
 2995TIP3   OH230543   0.566   2.285   6.041 -0.7518  0.7101 -0.5964
 2995TIP3    H130544   0.527   2.352   5.984  0.3558 -0.0987 -2.3413
 2995TIP3    H230545   0.524   2.203   6.015  1.3521 -0.0152 -1.8302
 2996TIP3   OH230546   0.662   5.667   6.440  0.0373  0.0917  0.2065
 2996TIP3    H130547   0.586   5.611   6.425 -0.1660 -0.4315  2.9976
 2996TIP3    H230548   0.719   5.651   6.365 -0.1078 -3.7259  0.8561
 2997TIP3   OH230549   0.769   4.317   6.303  0.0277  0.3216  0.5884
 2997TIP3    H130550   0.841   4.366   6.342  0.1773 -0.4677  1.3307
 2997TIP3    H230551   0.806   4.276   6.225 -0.8986  3.9276 -1.8945
 2998TIP3   OH230552   5.280   3.166   0.681  0.6541 -0.5351  0.2918
 2998TIP3    H130553   5.257   3.247   0.726  1.6512 -0.9365  1.5479
 2998TIP3    H230554   5.341   3.193   0.613  0.1840 -0.0970  0.0426
 2999TIP3   OH230555   6.734   6.308   0.582  0.3475 -0.1285 -0.0086
 2999TIP3    H130556   6.718   6.389   0.629  0.5492  0.6706 -1.2730
 2999TIP3    H230557   6.664   6.249   0.610 -1.5482  1.4526 -1.2462
 3000TIP3   OH230558   4.689   0.635   5.881  0.0657 -0.2740 -0.5066
 3000TIP3    H130559   4.705   0.700   5.949  0.3806  0.1909 -1.0199
 3000TIP3    H230560   4.634   0.680   5.817 -1.2794 -1.0981  0.0448
 3001TIP3   OH230561   0.270   6.546   7.775  0.3409  0.3546 -0.5491
 3001TIP3    H130562   0.231   6.551   7.861  0.4524  1.4586 -0.5544
 3001TIP3    H230563   0.301   6.635   7.757  3.1501 -0.5201 -0.3930
 3002TIP3   OH230564   0.243   5.739   6.213  0.4321  0.5791  0.5318
 3002TIP3    H130565   0.229   5.680   6.139 -0.5645  0.0125  1.1676
 3002TIP3    H230566   0.190   5.703   6.283  3.7779 -0.6668  2.5136
 3003TIP3   OH230567   6.857   2.662   0.891  0.2526  0.1166  0.2788
 3003TIP3    H130568   6.838   2.671   0.985  0.1589  1.0657  0.1714
 3003TIP3    H230569   6.803   2.728   0.849  2.2569  1.4889 -0.2101
 3004TIP3   OH230570   6.947   1.753   6.860  0.8387  1.1601  0.1979
 3004TIP3    H130571   6.859   1.774   6.892  0.7841  0.3649  0.5806
 3004TIP3    H230572   6.944   1.775   6.767 -0.6101 -1.4111 -0.3981
 3005TIP3   OH230573   4.483   0.694   1.230 -0.9075 -0.1791 -0.0396
 3005TIP3    H130574   4.475   0.758   1.159  1.6072  1.7852  1.3676
 3005TIP3    H230575   4.405   0.707   1.283 -0.6325  1.4531 -0.0154
 3006TIP3   OH230576   0.522   0.408   6.633 -0.5211  0.2036 -0.0819
 3006TIP3    H130577   0.510   0.400   6.538 -0.5413  1.2843 -0.1742
 3006TIP3    H230578   0.560   0.324   6.660 -1.6915 -0.5908 -0.8570
 3007TIP3   OH230579   3.192   6.112   0.247 -0.0752 -0.0600  0.3710
 3007TIP3    H130580   3.100   6.101   0.224 -0.2030 -0.5162  1.0856
 3007TIP3    H230581   3.238   6.112   0.163 -0.8484  1.3868 -0.0584
 3008TIP3   OH230582   0.910   0.888   1.362 -0.3699  0.0049 -0.6415
 3008TIP3    H130583   0.910   0.882   1.267 -0.0869  1.5776 -0.7559
 3008TIP3    H230584   0.822   0.919   1.385 -0.0921  0.6569 -0.4620
 3009TIP3   OH230585   6.792   7.078   6.172  0.8948  0.2099 -0.0165
 3009TIP3    H130586   6.821   7.061   6.261  1.7892 -0.8683 -0.5069
 3009TIP3    H230587   6.824   7.166   6.152  1.7595 -0.0401  0.2797
 3010TIP3   OH230588   7.109   6.454   7.525 -0.0620 -0.5448  0.0269
 3010TIP3    H130589   7.077   6.395   7.457  0.3363 -1.2820  0.4675
 3010TIP3    H230590   7.098   6.542   7.488  3.4008 -1.0461 -2.4179
 3011TIP3   OH230591   0.901   3.436   6.930 -0.6502 -0.7297  0.3980
 3011TIP3    H130592   0.911   3.531   6.928 -2.1968 -0.5753 -0.8720
 3011TIP3    H230593   0.814   3.421   6.965 -1.2032 -1.5973 -1.2625
 3012TIP3   OH230594   3.884   0.226   1.153 -0.0901 -0.3309 -0.1716
 3012TIP3    H130595   3.830   0.302   1.133  1.8451  1.3440  0.7878
 3012TIP3    H230596   3.821   0.155   1.168 -1.9909  1.4166  0.3254
 3013TIP3   OH230597   0.075   5.806   7.506  0.0460  0.8632  0.1124
 3013TIP3    H130598   0.092   5.816   7.599 -0.1154  1.8641  0.0427
 3013TIP3    H230599   0.088   5.893   7.470 -1.4806  0.8417 -0.5394
 3014TIP3   OH230600   0.152   4.733   7.080  0.0550 -0.7822 -0.3551
 3014TIP3    H130601   0.152   4.746   6.985  1.6294 -1.5936 -0.4985
 3014TIP3    H230602   0.130   4.641   7.091 -0.7868 -0.5219  0.0976
 3015TIP3   OH230603   6.392   2.606   6.743 -0.2911  0.4376 -0.0385
 3015TIP3    H130604   6.460   2.553   6.702 -0.6184  0.7722 -1.0307
 3015TIP3    H230605   6.396   2.690   6.697 -1.1956  0.5502  0.0706
 3016TIP3   OH230606   2.925   6.117   0.117  0.5110 -0.5360  0.8630
 3016TIP3    H130607   2.833   6.115   0.144 -0.2228  4.2797 -0.8626
 3016TIP3    H230608   2.927   6.071   0.034 -0.1846 -1.3338  1.2816
 3017TIP3   OH230609   5.293   6.699   6.117  0.1194 -0.3334  0.4390
 3017TIP3    H130610   5.263   6.779   6.160  0.1369 -0.1553  0.1182
 3017TIP3    H230611   5.214   6.647   6.104  0.5515 -2.1122  4.2102
 3018TIP3   OH230612   0.387   6.797   8.059  0.2335  0.4405 -0.0353
 3018TIP3    H130613   0.403   6.778   7.966 -1.2232 -0.3504 -0.1460
 3018TIP3    H230614   0.350   6.716   8.094  0.7210  0.7535  1.2302
 3019TIP3   OH230615   6.379   5.896   5.989 -0.0044  0.3008  0.0746
 3019TIP3    H130616   6.354   5.877   6.079  0.5908 -0.2913  0.1181
 3019TIP3    H230617   6.441   5.969   5.997 -0.5016  0.7250  0.0846
 3020TIP3   OH230618   0.005   5.532   7.541 -0.4185  0.4456  0.4894
 3020TIP3    H130619   0.059   5.484   7.479 -0.7564  0.0400  0.5119
 3020TIP3    H230620   0.023   5.624   7.521 -0.1061  0.3155  0.1601
 3021TIP3   OH230621   5.621   1.774   2.043  0.3746  0.1250 -0.1949
 3021TIP3    H130622   5.598   1.864   2.019 -2.2582 -0.9615 -2.0751
 3021TIP3    H230623   5.552   1.747   2.104  0.1223 -1.1903 -1.0383
 3022TIP3   OH230624   0.144   2.347   7.402  0.0965 -0.2711  0.1195
 3022TIP3    H130625   0.118   2.421   7.458  3.3774  0.9715  0.0952
 3022TIP3    H230626   0.108   2.368   7.316  1.5556  1.6799 -0.0455
 3023TIP3   OH230627   0.110   4.061   7.655 -0.7153 -0.3958  0.1452
 3023TIP3    H130628   0.097   4.096   7.743  2.2660  0.1553  0.4435
 3023TIP3    H230629   0.111   3.966   7.667  2.8215 -0.2803  1.2922
 3024TIP3   OH230630   2.337   1.713   6.446  0.0564 -0.4176 -0.6600
 3024TIP3    H130631   2.277   1.778   6.483  0.9766 -0.3488  0.7073
 3024TIP3    H230632   2.417   1.722   6.497  0.4581 -2.0966 -0.9908
 3025TIP3   OH230633   3.301   6.644   0.273  0.0880  0.1844 -0.1739
 3025TIP3    H130634   3.265   6.724   0.310 -0.5000 -1.2657  2.5352
 3025TIP3    H230635   3.225   6.587   0.260  0.6849 -0.5641 -0.4444
 3026TIP3   OH230636   5.991   3.276   8.004 -0.3659 -0.2788  0.4108
 3026TIP3    H130637   6.074   3.320   8.023  0.3278 -1.6630  0.6411
 3026TIP3    H230638   5.931   3.347   7.980  0.8458  0.7450  0.3664
 3027TIP3   OH230639   4.171   6.884   6.189  0.5169  0.0947  0.7215
 3027TIP3    H130640   4.142   6.879   6.280 -0.3542  0.0029  0.4361
 3027TIP3    H230641   4.091   6.894   6.138  1.0859  1.4125  0.0549
 3028TIP3   OH230642   5.813   0.578   7.098  0.1349 -0.0983  0.0812
 3028TIP3    H130643   5.795   0.652   7.156  0.2804  0.0218 -0.0301
 3028TIP3    H230644   5.892   0.538   7.134 -0.8317 -1.1496  1.1008
 3029TIP3   OH230645   6.380   6.374   7.268 -0.1195 -0.3778  0.3939
 3029TIP3    H130646   6.307   6.321   7.237 -1.8739  1.0326  1.9572
 3029TIP3    H230647   6.417   6.324   7.341  1.1912 -1.5894 -1.0606
 3030TIP3   OH230648   5.993   0.466   7.366 -0.2146 -0.4118 -0.7553
 3030TIP3    H130649   5.999   0.371   7.356  0.0711 -0.7130  1.9590
 3030TIP3    H230650   6.083   0.497   7.359 -0.0226 -0.6128  0.8026
 3031TIP3   OH230651   2.605   4.283   6.565  0.2423 -0.3642 -0.3715
 3031TIP3    H130652   2.656   4.339   6.507  0.3946 -1.3121 -1.1589
 3031TIP3    H230653   2.659   4.276   6.644  0.0926  0.8134 -0.1538
 3032TIP3   OH230654   0.306   3.726   6.842  0.2570  0.4881  0.7461
 3032TIP3    H130655   0.261   3.721   6.926 -0.9074  0.0128  0.1025
 3032TIP3    H230656   0.307   3.635   6.809  2.2933  0.3669  1.0634
 3033TIP3   OH230657   5.529   2.925   7.188  0.5503  0.1059  0.3058
 3033TIP3    H130658   5.526   3.011   7.230  0.3603  0.0196  0.4668
 3033TIP3    H230659   5.511   2.863   7.258 -0.4164  0.0001 -0.0253
 3034TIP3   OH230660   1.077   6.691   0.044  0.2241 -0.5298 -0.2984
 3034TIP3    H130661   1.144   6.758   0.058  0.6392 -1.1183  0.6298
 3034TIP3    H230662   1.012   6.708   0.112  0.3179 -1.0507 -0.0768
 3035TIP3   OH230663   2.864   0.728   0.176  0.2837  0.1200  0.2406
 3035TIP3    H130664   2.955   0.757   0.173  0.1134  0.5255 -1.2376
 3035TIP3    H230665   2.867   0.637   0.147  0.2640  0.0061  0.5909
 3036TIP3   OH230666   0.395   6.519   7.069  0.6681  0.0112 -0.0816
 3036TIP3    H130667   0.369   6.499   7.159 -0.2543  0.6736 -0.1839
 3036TIP3    H230668   0.312   6.542   7.026  1.5009  2.9450 -0.2440
 3037TIP3   OH230669   6.162   1.022   8.045  0.3104 -0.7626 -0.0639
 3037TIP3    H130670   6.072   1.055   8.053  0.1516 -1.2757  0.2524
 3037TIP3    H230671   6.155   0.947   7.986  0.6177 -0.4716 -0.4776
 3038TIP3   OH230672   4.718   1.568   7.601  0.1255  0.2383  0.0117
 3038TIP3    H130673   4.703   1.640   7.662  0.2040  0.9293 -0.7791
 3038TIP3    H230674   4.769   1.606   7.530 -1.0425 -0.2420 -1.1084
 3039TIP3   OH230675   5.875   6.218   7.657  0.2810  0.4115 -0.4150
 3039TIP3    H130676   5.928   6.264   7.722  0.6232 -2.9098  1.7906
 3039TIP3    H230677   5.936   6.196   7.587  0.7139  0.8999 -0.1928
 3040TIP3   OH230678   0.594   7.056   7.892  0.2930 -0.4747  0.2932
 3040TIP3    H130679   0.544   6.983   7.929 -0.0650 -0.5079 -0.2513
 3040TIP3    H230680   0.569   7.132   7.945  2.3247 -1.1343  2.3113
 3041TIP3   OH230681   4.112   6.052   7.597 -0.3770 -0.2253  0.3636
 3041TIP3    H130682   4.183   6.072   7.535 -1.3299 -0.9915 -0.9849
 3041TIP3    H230683   4.146   6.081   7.681  1.4809 -0.3877 -0.2963
 3042TIP3   OH230684   6.313   6.348   6.390  0.1567 -0.3727 -0.4278
 3042TIP3    H130685   6.331   6.278   6.327  3.5919 -1.5419  1.7122
 3042TIP3    H230686   6.236   6.317   6.439 -0.9832 -0.6013 -2.2949
 3043TIP3   OH230687   0.365   4.166   6.560  0.1346  0.0087  0.0490
 3043TIP3    H130688   0.440   4.190   6.505  0.5796 -0.9312  0.2338
 3043TIP3    H230689   0.405   4.135   6.642 -0.4544 -0.7173  0.0644
 3044TIP3   OH230690   5.431   6.841   0.783 -0.2018 -0.5491  0.0095
 3044TIP3    H130691   5.417   6.871   0.873 -0.0239 -3.1688  0.9237
 3044TIP3    H230692   5.523   6.860   0.765 -1.0293  3.0332 -0.8282
 3045TIP3   OH230693   6.210   0.040   0.663  0.0128 -0.3806 -0.3936
 3045TIP3    H130694   6.181  -0.032   0.720 -0.2383 -0.5460 -0.7327
 3045TIP3    H230695   6.181   0.119   0.709 -2.5937 -0.5892 -1.5991
 3046TIP3   OH230696   6.364   1.795   7.989  0.1944 -0.2306 -0.2981
 3046TIP3    H130697   6.399   1.827   7.905 -0.7983 -0.4738 -0.8122
 3046TIP3    H230698   6.274   1.828   7.991  1.5733  3.7212  2.7926
 3047TIP3   OH230699   0.363   6.544   6.564  0.0883  0.1371 -0.0891
 3047TIP3    H130700   0.392   6.495   6.641 -1.7516 -0.2354  0.3880
 3047TIP3    H230701   0.427   6.522   6.496  0.0859 -1.8403  0.5154
 3048TIP3   OH230702   1.200   0.765   6.454  0.1823  0.0771  0.2569
 3048TIP3    H130703   1.214   0.709   6.378 -2.4144 -1.4371  0.8333
 3048TIP3    H230704   1.155   0.842   6.419  2.2930  1.1075 -0.2763
 3049TIP3   OH230705   4.654   4.838   1.933 -0.1072  0.7970  0.4835
 3049TIP3    H130706   4.708   4.866   2.007  0.7602  0.6586 -0.0910
 3049TIP3    H230707   4.715   4.831   1.859 -1.0212  1.2636 -0.3326
 3050TIP3   OH230708   6.287   3.788   7.986 -0.1384 -0.4637  0.3176
 3050TIP3    H130709   6.243   3.862   7.945  1.7537  0.9577  0.7828
 3050TIP3    H230710   6.351   3.758   7.921 -0.8012 -1.6230  0.1804
 3051TIP3   OH230711   1.636   5.890   6.843 -0.0501 -0.4641 -0.3976
 3051TIP3    H130712   1.551   5.929   6.826 -0.1871 -0.9908 -0.9248
 3051TIP3    H230713   1.699   5.949   6.802  0.1407  1.8369  2.9677
 3052TIP3   OH230714   2.619   5.719   6.008 -0.2034  0.5657 -0.6139
 3052TIP3    H130715   2.631   5.811   5.986 -0.0636  0.4834 -0.8979
 3052TIP3    H230716   2.695   5.675   5.968  1.1394  0.6569  1.7797
 3053TIP3   OH230717   5.814   6.432   6.766 -0.1309 -0.9513  0.2842
 3053TIP3    H130718   5.892   6.416   6.821 -1.6777 -1.6088  2.3609
 3053TIP3    H230719   5.827   6.521   6.733  0.3915 -0.1202  2.5802
 3054TIP3   OH230720   0.602   7.077   6.161 -0.1041 -0.0675  0.1355
 3054TIP3    H130721   0.545   7.088   6.084 -0.9832 -0.1955  0.7537
 3054TIP3    H230722   0.691   7.087   6.127 -0.5017  0.2772 -0.8277
 3055TIP3   OH230723   5.913   4.701   1.676  0.1242 -0.1517  0.3779
 3055TIP3    H130724   5.879   4.635   1.735  1.2437 -2.2094 -1.2139
 3055TIP3    H230725   5.852   4.700   1.602  0.8274 -0.2789 -0.2040
 3056TIP3   OH230726   5.844   7.050   7.299 -0.3430 -0.5245 -0.6369
 3056TIP3    H130727   5.769   7.103   7.274 -1.6372 -1.9467  0.1402
 3056TIP3    H230728   5.806   6.974   7.344  1.6691 -0.0310  2.0167
 3057TIP3   OH230729   4.961   1.950   8.090 -0.1352  0.5262  0.2545
 3057TIP3    H130730   5.027   1.900   8.137 -0.8035  1.7183  2.5147
 3057TIP3    H230731   4.896   1.973   8.156 -1.9974  0.7890 -1.5863
 3058TIP3   OH230732   5.144   6.903   6.630 -0.1974  0.1209 -0.3461
 3058TIP3    H130733   5.200   6.981   6.631  1.0563 -0.7670  1.6454
 3058TIP3    H230734   5.193   6.838   6.681 -2.2827 -1.2283 -0.0293
 3059TIP3   OH230735   4.338   0.581   6.367 -0.2135 -0.2580  0.3522
 3059TIP3    H130736   4.389   0.616   6.294 -2.0233 -0.5353 -1.0942
 3059TIP3    H230737   4.400   0.575   6.439  1.1916  1.6934 -0.6559
 3060TIP3   OH230738   4.751   4.416   8.042 -0.5129  0.2675  0.5001
 3060TIP3    H130739   4.816   4.401   7.972  1.3467 -0.2066  2.2759
 3060TIP3    H230740   4.707   4.497   8.016  0.3244  0.2373 -1.1089
 3061TIP3   OH230741   0.937   6.414   7.325  0.2903  0.2213  0.1822
 3061TIP3    H130742   0.894   6.349   7.270 -1.6336  1.2653  0.4011
 3061TIP3    H230743   0.995   6.461   7.265 -0.2744  0.0293 -0.5294
 3062TIP3   OH230744   6.455   1.143   0.793 -0.3823  0.4019  0.4779
 3062TIP3    H130745   6.530   1.112   0.845  0.5724  0.6663 -0.7026
 3062TIP3    H230746   6.490   1.152   0.704 -2.4146 -1.6052 -0.5563
 3063TIP3   OH230747   1.812   3.353   0.004 -0.1761  0.4169 -0.6099
 3063TIP3    H130748   1.842   3.444   0.014  0.9385  0.0183 -0.2002
 3063TIP3    H230749   1.887   3.307  -0.034 -1.1399 -0.0973 -1.8998
 3064TIP3   OH230750   0.917   0.050   7.849  0.5284 -0.3660 -0.2901
 3064TIP3    H130751   0.943   0.067   7.758  1.0832 -2.8854 -0.6202
 3064TIP3    H230752   0.842  -0.009   7.842  1.4375 -1.6908  0.9166
 3065TIP3   OH230753   6.841   6.632   5.623  0.0018  0.1899  0.0934
 3065TIP3    H130754   6.898   6.650   5.698  0.4585 -0.6769 -0.0385
 3065TIP3    H230755   6.847   6.711   5.568  0.3041  0.4925  0.5617
 3066TIP3   OH230756   6.632   4.404   7.104 -0.4904 -0.4092 -0.1371
 3066TIP3    H130757   6.685   4.463   7.158  1.8009 -0.0959 -2.5999
 3066TIP3    H230758   6.553   4.454   7.085  0.6896  1.2853 -0.7785
 3067TIP3   OH230759   4.273   4.497   7.614 -0.0135 -0.0105  0.2007
 3067TIP3    H130760   4.290   4.570   7.555 -0.1823  1.7158  2.2425
 3067TIP3    H230761   4.328   4.426   7.580  1.7928  1.7031 -0.5663
 3068TIP3   OH230762   6.852   0.445   2.019  0.2960 -0.5393  0.3802
 3068TIP3    H130763   6.868   0.423   1.927 -0.4761 -1.2525  0.4122
 3068TIP3    H230764   6.937   0.434   2.061  0.4698 -1.0133 -0.0918
 3069TIP3   OH230765   6.239   6.628   6.360 -0.2197  0.2710  0.0768
 3069TIP3    H130766   6.299   6.556   6.381  0.2440  0.5899 -0.1513
 3069TIP3    H230767   6.227   6.621   6.265  0.2879  0.8492 -0.0342
 3070TIP3   OH230768   4.771   4.000   6.564 -0.4429 -0.3124  0.2325
 3070TIP3    H130769   4.746   4.003   6.656  0.1154  3.1028  0.3247
 3070TIP3    H230770   4.867   3.994   6.566 -0.2161  2.5778 -0.0681
 3071TIP3   OH230771   4.249   6.198   7.394 -0.3572 -0.3681  0.1775
 3071TIP3    H130772   4.301   6.278   7.392  0.2180 -0.7567 -2.4680
 3071TIP3    H230773   4.196   6.201   7.314 -1.9759 -1.5724  1.1646
 3072TIP3   OH230774   4.917   5.365   6.645 -0.2487  0.1334  0.2505
 3072TIP3    H130775   4.921   5.282   6.596 -0.9450  0.0454  0.3376
 3072TIP3    H230776   5.005   5.376   6.681  0.2107  0.0994 -0.8604
 3073TIP3   OH230777   3.736   4.549   7.848  0.1042 -0.3003 -0.0109
 3073TIP3    H130778   3.829   4.568   7.836  0.0833 -1.1903 -1.7327
 3073TIP3    H230779   3.696   4.633   7.870  1.4660 -0.0869  1.7254
 3074TIP3   OH230780   6.137   0.993   0.355  0.4575  0.3878 -0.1834
 3074TIP3    H130781   6.133   0.962   0.446  1.1551  1.9820  0.4149
 3074TIP3    H230782   6.202   0.938   0.313  0.7192  0.1690  0.5067
 3075TIP3   OH230783   0.013   4.172   5.959 -0.3493 -0.3816 -0.2303
 3075TIP3    H130784  -0.035   4.108   5.907 -0.1614 -0.9599  0.3103
 3075TIP3    H230785  -0.022   4.257   5.930 -0.1787 -0.6933 -1.3557
 3076TIP3   OH230786   0.705   3.590   7.991 -0.3975  0.0649 -0.3426
 3076TIP3    H130787   0.761   3.607   7.915  0.1729 -0.1439  0.0317
 3076TIP3    H230788   0.765   3.574   8.063 -0.9390  0.1547  0.1371
 3077TIP3   OH230789   6.188   4.503   7.285 -0.0629 -0.1287  0.3278
 3077TIP3    H130790   6.095   4.482   7.280 -0.1422  0.3606 -0.2511
 3077TIP3    H230791   6.224   4.435   7.342 -0.3561 -1.6745 -1.2818
 3078TIP3   OH230792   4.185   3.742   6.518 -0.2358  0.0508 -0.0590
 3078TIP3    H130793   4.204   3.736   6.424 -1.6007  0.7249 -0.4019
 3078TIP3    H230794   4.214   3.830   6.542 -3.5468  1.4063 -0.7760
 3079TIP3   OH230795   0.256   5.386   5.858  0.1406  0.3301  0.6236
 3079TIP3    H130796   0.273   5.373   5.951 -0.5248  0.0685  0.7131
 3079TIP3    H230797   0.239   5.480   5.849  3.0955  0.8916  0.2814
 3080TIP3   OH230798   6.958   0.203   6.197  0.1976 -0.2433  0.5032
 3080TIP3    H130799   7.009   0.268   6.148  0.9825 -0.8738  0.4669
 3080TIP3    H230800   7.014   0.125   6.198 -1.0208 -1.1500 -0.0571
 3081TIP3   OH230801   6.073   2.657   7.799 -0.2089 -0.0760 -0.2324
 3081TIP3    H130802   6.117   2.738   7.827 -0.7928  0.1277  0.0987
 3081TIP3    H230803   6.017   2.685   7.726 -1.7013  0.1380  0.9858
 3082TIP3   OH230804   1.051   2.731   6.844  0.5093  0.5386  0.1070
 3082TIP3    H130805   1.036   2.823   6.865 -0.7023  0.7420 -1.5502
 3082TIP3    H230806   1.109   2.700   6.914  0.1408  2.2921  1.2315
 3083TIP3   OH230807   2.039   6.343   6.533 -0.2032 -0.7232 -0.5879
 3083TIP3    H130808   2.003   6.431   6.544 -1.6132 -0.9819 -2.8107
 3083TIP3    H230809   2.123   6.358   6.488  0.1696 -0.4536  0.1788
 3084TIP3   OH230810   4.500   2.386   1.326 -1.0908 -0.2887 -0.1380
 3084TIP3    H130811   4.538   2.300   1.346 -0.7620 -0.0379  0.3380
 3084TIP3    H230812   4.412   2.382   1.364 -1.5899 -0.9138 -1.3491
 3085TIP3   OH230813   3.071   1.172   0.961 -0.1403  0.1005  0.4474
 3085TIP3    H130814   2.978   1.161   0.942 -0.4524  2.3856  0.4204
 3085TIP3    H230815   3.104   1.226   0.888  1.5326 -1.8661 -0.2869
 3086TIP3   OH230816   2.355   2.814   0.580  0.4503  0.0616  0.1337
 3086TIP3    H130817   2.320   2.895   0.616  1.4112 -0.0913  1.4486
 3086TIP3    H230818   2.298   2.745   0.614  0.3249  0.0774 -0.0435
 3087TIP3   OH230819   1.372   1.233   7.139  0.3937 -0.1083 -0.2156
 3087TIP3    H130820   1.398   1.205   7.051  2.6058 -1.0214  0.6870
 3087TIP3    H230821   1.455   1.252   7.183 -0.7083  0.6706  1.5624
 3088TIP3   OH230822   4.079   1.692   6.827 -0.5217 -0.1152 -0.1244
 3088TIP3    H130823   4.036   1.668   6.909 -0.6768  0.1954 -0.1120
 3088TIP3    H230824   4.023   1.656   6.759  0.2762 -1.4762 -0.0802
 3089TIP3   OH230825   4.213   4.836   7.301  0.1018  0.1227  0.8073
 3089TIP3    H130826   4.213   4.892   7.379  1.7639 -0.9773  1.6322
 3089TIP3    H230827   4.121   4.814   7.287 -0.2504  0.5969  2.2852
 3090TIP3   OH230828   0.798   1.169   1.179  1.0430  0.0535  0.0656
 3090TIP3    H130829   0.718   1.118   1.185  1.7300 -0.8733  1.6053
 3090TIP3    H230830   0.816   1.197   1.268  2.4450  0.2344 -0.2582
 3091TIP3   OH230831   1.698   6.146   6.483 -0.3738 -0.7564  0.0630
 3091TIP3    H130832   1.770   6.154   6.547 -0.3697  1.0644 -0.1291
 3091TIP3    H230833   1.742   6.124   6.401  0.4098  3.4090 -0.7838
 3092TIP3   OH230834   3.077   0.928   7.349  0.3747  0.1464  0.0882
 3092TIP3    H130835   3.026   0.874   7.409 -0.2411 -0.3012 -0.8252
 3092TIP3    H230836   3.012   0.964   7.288  1.3120 -1.5238 -1.9345
 3093TIP3   OH230837   5.131   0.565   7.281 -0.6373 -0.2369 -0.0824
 3093TIP3    H130838   5.157   0.593   7.194 -0.7818 -0.3152 -0.1513
 3093TIP3    H230839   5.178   0.483   7.296 -0.4199 -0.0945  0.0137
 3094TIP3   OH230840   5.025   2.074   2.038  0.4255 -0.3748  0.3346
 3094TIP3    H130841   5.063   2.031   1.961 -0.4807  0.8751 -0.8538
 3094TIP3    H230842   4.958   2.014   2.069 -1.1371  0.3154 -1.5777
 3095TIP3   OH230843   6.177   1.853   1.539 -0.8483  0.0777 -0.1621
 3095TIP3    H130844   6.156   1.898   1.621  1.6845 -1.1251  1.2136
 3095TIP3    H230845   6.148   1.763   1.554  3.2205 -1.1391  1.0383
 3096TIP3   OH230846   1.082   1.861   0.096 -0.2467 -0.0175  0.2679
 3096TIP3    H130847   0.998   1.889   0.133 -1.4854 -2.6612 -0.4154
 3096TIP3    H230848   1.129   1.823   0.169 -1.2254 -1.9783 -0.0978
 3097TIP3   OH230849   4.354   0.672   6.868  0.0767 -0.0761  0.6214
 3097TIP3    H130850   4.387   0.620   6.941 -1.0408  0.4396  1.5236
 3097TIP3    H230851   4.415   0.745   6.862 -0.0069  0.0565  1.2751
 3098TIP3   OH230852   0.539   1.948   1.242  0.2197  0.3982  0.4611
 3098TIP3    H130853   0.459   1.994   1.218 -1.2506 -2.2523  0.0965
 3098TIP3    H230854   0.571   1.994   1.319 -2.3739  0.7053  1.3969
 3099TIP3   OH230855   4.468   3.193   0.135 -0.2475 -0.4901 -0.6970
 3099TIP3    H130856   4.387   3.244   0.137  0.5641  0.8543 -1.8832
 3099TIP3    H230857   4.502   3.205   0.046  1.9329  0.0243  0.1818
 3100TIP3   OH230858   1.012   3.754   6.829  0.2342  0.2090 -0.1213
 3100TIP3    H130859   0.932   3.731   6.781  0.3813 -1.2041  0.2988
 3100TIP3    H230860   0.988   3.748   6.921  0.4377  1.2290  0.0136
 3101TIP3   OH230861   2.363   3.850   5.774  0.9526  0.2018  0.3013
 3101TIP3    H130862   2.304   3.922   5.752 -0.3639 -0.8731  0.1822
 3101TIP3    H230863   2.392   3.869   5.863  1.1566  1.2231  0.0242
 3102TIP3   OH230864   5.494   0.963   6.270  0.1848  0.0065 -0.3984
 3102TIP3    H130865   5.521   0.873   6.289  3.8274  1.1026  0.0533
 3102TIP3    H230866   5.480   0.963   6.175 -1.8060 -1.4679 -0.1473
 3103TIP3   OH230867   2.251   6.611   6.240 -0.8383  0.1153  0.0919
 3103TIP3    H130868   2.270   6.549   6.169  0.4193  0.5539  0.0279
 3103TIP3    H230869   2.255   6.697   6.199  0.1750  0.3920  0.7245
 3104TIP3   OH230870   1.860   3.704   6.257 -0.0264 -0.4154 -0.1773
 3104TIP3    H130871   1.863   3.792   6.219  0.0305 -0.0693  0.6251
 3104TIP3    H230872   1.785   3.662   6.215  0.6329 -0.3743 -1.4048
 3105TIP3   OH230873   1.445   6.698   6.537  0.8121 -0.1786  0.1408
 3105TIP3    H130874   1.359   6.701   6.579  0.1821  0.9369 -1.1847
 3105TIP3    H230875   1.432   6.742   6.453  2.3267 -1.3163 -0.7125
 3106TIP3   OH230876   3.127   4.792   7.805  0.5761  0.1600 -0.4639
 3106TIP3    H130877   3.140   4.706   7.845  2.6685  0.4157 -0.5780
 3106TIP3    H230878   3.114   4.852   7.879  0.7223  0.0155 -0.3227
 3107TIP3   OH230879   1.612   5.171   0.084  0.4117 -0.0059 -0.5861
 3107TIP3    H130880   1.545   5.203   0.144  1.0825  0.8310 -0.2714
 3107TIP3    H230881   1.582   5.199  -0.002  1.0010  1.5206 -0.3100
 3108TIP3   OH230882   1.641   1.982   5.838 -0.5982  0.0736 -0.2287
 3108TIP3    H130883   1.627   1.906   5.894 -0.5072  0.6885  0.6305
 3108TIP3    H230884   1.734   1.979   5.816 -0.8145 -0.6731 -1.1001
 3109TIP3   OH230885   3.261   6.914   6.831  0.1226 -0.1304  0.1585
 3109TIP3    H130886   3.304   6.935   6.749 -0.4666 -1.5500 -0.5373
 3109TIP3    H230887   3.309   6.963   6.897  2.1750 -0.9002 -0.7252
 3110TIP3   OH230888   2.498   0.266   6.638 -0.3027 -0.0702 -0.4111
 3110TIP3    H130889   2.533   0.232   6.555 -2.3992  0.7706 -1.6595
 3110TIP3    H230890   2.471   0.188   6.686  0.8701 -0.5577 -0.5072
 3111TIP3   OH230891   3.873   1.174   7.572 -0.5265 -0.7065  0.1616
 3111TIP3    H130892   3.903   1.250   7.622  1.4096 -0.3682 -1.4567
 3111TIP3    H230893   3.837   1.115   7.639 -2.3692  1.7290  1.3927
 3112TIP3   OH230894   0.698   1.102   6.887  0.2917 -0.1446 -0.0758
 3112TIP3    H130895   0.659   1.189   6.890 -0.6497 -0.5444 -0.3031
 3112TIP3    H230896   0.623   1.042   6.895  0.6980 -0.9394 -1.9290
 3113TIP3   OH230897   3.616   6.228   0.236 -0.1528  0.0957 -0.0769
 3113TIP3    H130898   3.562   6.270   0.303  1.0702  0.1168  0.9122
 3113TIP3    H230899   3.570   6.147   0.215 -0.1042 -0.3146  1.4056
 3114TIP3   OH230900   4.539   1.346   6.746  0.4370 -0.1351 -0.4308
 3114TIP3    H130901   4.510   1.281   6.682  2.0772 -0.7122 -0.6060
 3114TIP3    H230902   4.564   1.421   6.694 -2.1995  0.9861 -0.1857
 3115TIP3   OH230903   6.399   4.571   7.047  0.4155  0.0358 -0.1395
 3115TIP3    H130904   6.332   4.570   7.115  1.4637  1.9623  0.9448
 3115TIP3    H230905   6.351   4.550   6.967 -0.7593 -2.5829  1.1932
 3116TIP3   OH230906   6.047   5.675   7.574 -0.3947 -0.0409  0.0017
 3116TIP3    H130907   5.998   5.669   7.656 -0.4914 -1.2436 -0.1323
 3116TIP3    H230908   6.128   5.720   7.597 -1.1400  1.0969  0.4201
 3117TIP3   OH230909   1.318   1.359   7.778  0.3307 -0.2274 -0.7139
 3117TIP3    H130910   1.381   1.430   7.768  1.4350 -1.1831 -0.5828
 3117TIP3    H230911   1.233   1.402   7.775  0.9819  1.0520 -1.0602
 3118TIP3   OH230912   1.879   1.822   6.536 -0.0955 -0.4951 -0.3474
 3118TIP3    H130913   1.896   1.887   6.469  0.4943  1.0845  1.2937
 3118TIP3    H230914   1.811   1.766   6.499  1.4077 -0.7179 -2.9373
 3119TIP3   OH230915   5.930   0.845   6.600  0.2379 -0.0772 -0.4978
 3119TIP3    H130916   5.944   0.859   6.506  0.3515  0.9612 -0.3218
 3119TIP3    H230917   5.997   0.897   6.643 -1.0133  0.9720  0.2114
 3120TIP3   OH230918   2.823   2.638   1.166 -0.2182 -0.1943 -0.1040
 3120TIP3    H130919   2.815   2.606   1.256 -0.2611  0.2239  0.0384
 3120TIP3    H230920   2.751   2.700   1.156  0.3996  0.5158 -0.1142
 3121TIP3   OH230921   1.535   1.696   6.168 -0.2945  0.3978  0.0024
 3121TIP3    H130922   1.604   1.697   6.101  0.2079  0.1277  0.5085
 3121TIP3    H230923   1.559   1.624   6.225 -0.3136  1.0844  0.8891
 3122TIP3   OH230924   6.677   3.354   7.590 -0.2173  0.2024  0.4585
 3122TIP3    H130925   6.718   3.283   7.540  0.1368 -0.5304  1.7881
 3122TIP3    H230926   6.715   3.348   7.677 -1.3429  1.0482  1.0244
 3123TIP3   OH230927   4.643   2.953   6.705 -0.1557  0.6758 -0.3260
 3123TIP3    H130928   4.664   3.028   6.761 -1.1105 -1.0546  2.4259
 3123TIP3    H230929   4.720   2.896   6.709 -1.0138 -0.4128  0.8645
 3124TIP3   OH230930   4.361   2.404   7.453 -0.0073  0.5568  0.0402
 3124TIP3    H130931   4.377   2.495   7.424  0.6654  0.5838  0.4752
 3124TIP3    H230932   4.267   2.392   7.444  0.0405  0.9244 -1.1280
 3125TIP3   OH230933   3.782   0.647   0.163  0.0999 -0.3108  0.0179
 3125TIP3    H130934   3.719   0.657   0.235  0.7012  1.4057  0.3140
 3125TIP3    H230935   3.749   0.703   0.093  2.0186  1.7334  0.6892
 3126TIP3   OH230936   4.518   6.185   8.106 -0.1985 -0.3359 -0.0472
 3126TIP3    H130937   4.515   6.272   8.146 -1.1117 -0.2094 -0.3706
 3126TIP3    H230938   4.442   6.140   8.141 -1.3682 -0.0093 -2.0938
 3127TIP3   OH230939   2.911   0.376   6.828 -0.0811 -0.3248 -0.1825
 3127TIP3    H130940   2.848   0.439   6.862 -1.4244 -1.6047 -0.2385
 3127TIP3    H230941   2.884   0.361   6.738  1.7545  0.8941 -0.9667
 3128TIP3   OH230942   4.638   2.714   0.516 -0.5068 -0.2228  0.1139
 3128TIP3    H130943   4.547   2.744   0.520  0.0282  1.3262  0.8765
 3128TIP3    H230944   4.639   2.652   0.442 -1.6663  1.5510 -1.4510
 3129TIP3   OH230945   3.267   1.795   2.373  0.5881 -0.8159  0.1912
 3129TIP3    H130946   3.263   1.833   2.285 -2.8175 -0.1130  0.5604
 3129TIP3    H230947   3.334   1.728   2.367  0.8079 -0.4200 -2.8100
 3130TIP3   OH230948   4.909   6.608   0.116  0.2488 -0.0130 -0.3630
 3130TIP3    H130949   4.938   6.668   0.185  1.2465 -0.3365 -0.4999
 3130TIP3    H230950   4.818   6.589   0.138 -0.1048  1.6079 -0.3550
 3131TIP3   OH230951   0.954   0.547   5.818 -0.0780 -0.2462  0.0589
 3131TIP3    H130952   0.995   0.633   5.825  0.2735 -0.3541 -0.6350
 3131TIP3    H230953   0.932   0.538   5.725  3.4142 -2.5176 -0.6421
 3132TIP3   OH230954   2.497   3.924   1.771 -0.4751 -1.0377 -0.1984
 3132TIP3    H130955   2.555   3.881   1.834 -0.6375  0.1830  0.7850
 3132TIP3    H230956   2.507   4.017   1.788 -2.5292 -0.7943 -0.1762
 3133TIP3   OH230957   0.620   3.752   0.751 -0.4682  0.1115 -0.1145
 3133TIP3    H130958   0.535   3.722   0.781  0.8911 -3.0928  0.7494
 3133TIP3    H230959   0.683   3.699   0.800  1.9737  0.8369 -2.3523
 3134TIP3   OH230960   3.899   0.165   7.065 -0.2199 -0.5509 -0.2393
 3134TIP3    H130961   3.949   0.172   7.147 -1.1854  0.2873  0.2878
 3134TIP3    H230962   3.808   0.175   7.092 -0.5500 -0.4031 -1.4032
 3135TIP3   OH230963   3.126   6.985   6.006  0.1067  0.2917  0.3262
 3135TIP3    H130964   3.153   7.075   5.988 -1.1277  0.7571  0.7936
 3135TIP3    H230965   3.208   6.937   6.013  0.7824  1.4144  0.2677
 3136TIP3   OH230966   1.672   2.903   7.289 -0.5333  0.3155 -0.0820
 3136TIP3    H130967   1.594   2.957   7.277 -1.5615 -1.0175  0.5165
 3136TIP3    H230968   1.639   2.818   7.318  1.0230 -0.8076 -1.4705
 3137TIP3   OH230969   1.802   5.828   0.329 -0.2749  0.1841 -0.1010
 3137TIP3    H130970   1.785   5.895   0.263 -0.5285 -0.0474 -0.2733
 3137TIP3    H230971   1.782   5.870   0.412  0.7232  0.6957 -0.1180
 3138TIP3   OH230972   4.181   4.091   0.358 -0.0626  0.0119  0.3999
 3138TIP3    H130973   4.251   4.026   0.358 -0.0171  0.0612  0.8053
 3138TIP3    H230974   4.123   4.065   0.430 -0.9575 -0.5689 -0.5235
 3139TIP3   OH230975   2.786   5.767   7.703 -0.1553  0.3486 -0.5922
 3139TIP3    H130976   2.863   5.714   7.685  0.5920  1.7076 -1.5421
 3139TIP3    H230977   2.793   5.789   7.796  0.3633  0.0617 -0.5623
 3140TIP3   OH230978   4.252   3.366   0.076  0.3366  0.1809 -0.3039
 3140TIP3    H130979   4.298   3.445   0.105  1.3876  0.3238 -2.3450
 3140TIP3    H230980   4.217   3.388  -0.010  0.2535 -1.4394 -0.6983
 3141TIP3   OH230981   3.409   2.326   0.059 -0.6523 -0.0083 -0.3842
 3141TIP3    H130982   3.326   2.327   0.107  0.2780 -0.9680  1.2866
 3141TIP3    H230983   3.413   2.240   0.019 -0.4030 -0.0066 -0.3652
 3142TIP3   OH230984   2.378   0.843   6.214 -0.0663  0.3299  0.4366
 3142TIP3    H130985   2.298   0.880   6.176 -0.2491 -0.7056 -0.2183
 3142TIP3    H230986   2.356   0.829   6.306 -1.6131 -2.4997 -0.2911
 3143TIP3   OH230987   1.228   1.929   6.112  0.4630  0.0778  0.1643
 3143TIP3    H130988   1.316   1.926   6.150 -0.2401 -1.0803  1.7718
 3143TIP3    H230989   1.223   2.014   6.070  1.3703  1.3381  2.5097
 3144TIP3   OH230990   3.760   2.497   0.310  0.3677  0.6023 -0.1357
 3144TIP3    H130991   3.820   2.565   0.278  0.6229 -1.0829 -3.5709
 3144TIP3    H230992   3.817   2.435   0.354  0.5403  1.1821  0.4643
 3145TIP3   OH230993   1.822   3.310   6.633 -0.2106 -0.5282 -0.3672
 3145TIP3    H130994   1.823   3.328   6.539 -2.5860  2.0104  0.0457
 3145TIP3    H230995   1.729   3.300   6.654  0.2523 -0.3371  1.8599
 3146TIP3   OH230996   5.459   3.543   8.094  0.4107 -0.6020 -0.4542
 3146TIP3    H130997   5.532   3.601   8.074  0.9512 -1.1691 -0.1499
 3146TIP3    H230998   5.381   3.594   8.072  0.9207 -0.3806 -1.7948
 3147TIP3   OH230999   3.431   0.926   7.901  0.3180  0.1067  0.1305
 3147TIP3    H131000   3.459   0.902   7.812 -0.5208  0.4033 -0.2202
 3147TIP3    H231001   3.476   1.009   7.919  0.0379  0.3403 -0.2418
 3148TIP3   OH231002   4.605   0.846   6.370 -0.3219 -0.8195 -0.0808
 3148TIP3    H131003   4.626   0.796   6.291 -0.6783 -0.2963 -0.5059
 3148TIP3    H231004   4.536   0.795   6.413 -0.2478 -1.0134 -0.1918
 3149TIP3   OH231005   6.734   1.096   1.656 -0.2917 -0.1141  0.2404
 3149TIP3    H131006   6.668   1.102   1.725  0.2115  2.3239  0.5326
 3149TIP3    H231007   6.707   1.160   1.590 -0.3326 -1.8583 -1.5058
 3150TIP3   OH231008   1.496   0.928   6.516  0.0384  0.1457  0.1133
 3150TIP3    H131009   1.587   0.949   6.496  0.3526 -1.4100 -0.1444
 3150TIP3    H231010   1.461   0.891   6.435 -0.7240  0.3910  0.3228
 3151TIP3   OH231011   2.049   1.882   0.219 -0.1017  0.3343  0.4904
 3151TIP3    H131012   2.003   1.958   0.184 -0.2545  0.6767  1.4205
 3151TIP3    H231013   1.984   1.812   0.217  0.1485  0.1205 -0.7155
 3152TIP3   OH231014   2.628   1.253   7.245 -0.3999 -0.3913  0.2354
 3152TIP3    H131015   2.600   1.242   7.336  0.0087 -0.0058  0.4140
 3152TIP3    H231016   2.714   1.212   7.242  1.1125  2.6057  0.9003
 3153TIP3   OH231017   4.607   2.186   6.676  0.1845  0.0274 -0.1069
 3153TIP3    H131018   4.676   2.194   6.610  0.2106 -1.6650 -0.3273
 3153TIP3    H231019   4.540   2.132   6.634 -0.1927 -0.3399  0.9427
 3154TIP3   OH231020   2.530   6.101   7.537 -0.3277 -0.4705  0.2332
 3154TIP3    H131021   2.537   6.191   7.505  0.7177  0.8391  3.8892
 3154TIP3    H231022   2.619   6.066   7.531  0.4340  0.6618  3.9387
 3155TIP3   OH231023   2.960   2.046   8.046  0.0109 -0.6877 -0.2395
 3155TIP3    H131024   2.936   1.988   8.119  1.0021 -1.9711 -0.9266
 3155TIP3    H231025   2.922   2.131   8.070 -0.2314 -1.2547  1.4599
 3156TIP3   OH231026   1.945   2.952   6.906 -1.0235 -0.7203 -0.2989
 3156TIP3    H131027   1.884   2.882   6.928 -0.2047 -2.1786 -2.4776
 3156TIP3    H231028   1.947   2.953   6.810  3.0036 -1.3509 -0.3292
 3157TIP3   OH231029   6.489   4.053   6.564  0.0654  0.2176 -0.4028
 3157TIP3    H131030   6.583   4.038   6.568 -0.1470 -1.2255 -0.5413
 3157TIP3    H231031   6.462   4.014   6.481 -0.8138 -0.2844  0.1133
 3158TIP3   OH231032   3.183   5.175   5.891  0.5410  0.0512 -0.1294
 3158TIP3    H131033   3.117   5.245   5.895  2.0021  1.4239  0.7591
 3158TIP3    H231034   3.249   5.208   5.830  1.5979 -0.2285  0.8490
 3159TIP3   OH231035   3.908   0.457   7.588  0.5234  0.1637 -0.3892
 3159TIP3    H131036   3.833   0.470   7.645  0.2698 -1.1422 -0.4096
 3159TIP3    H231037   3.882   0.495   7.504  0.1847  0.4153 -0.1689
 3160TIP3   OH231038   2.354   1.807   7.133 -0.1467  0.5748 -0.0970
 3160TIP3    H131039   2.374   1.896   7.161 -2.3194  0.5245  1.7154
 3160TIP3    H231040   2.268   1.812   7.091 -0.2155 -0.6360 -0.1375
 3161TIP3   OH231041   4.977   3.990   0.199  0.0434  0.5398 -0.3446
 3161TIP3    H131042   4.940   3.917   0.149 -1.8124  1.7723 -0.8149
 3161TIP3    H231043   4.916   4.003   0.271  0.8746  1.0255  0.2758
 3162TIP3   OH231044   3.040   5.657   7.692  0.2326  0.1230  0.5314
 3162TIP3    H131045   3.095   5.728   7.727 -0.1142  0.4542  0.4052
 3162TIP3    H231046   3.032   5.677   7.599 -0.5133  0.3490  0.6412
 3163TIP3   OH231047   4.296   5.001   6.758  0.2419 -0.1799 -0.3808
 3163TIP3    H131048   4.227   5.063   6.782  0.8547 -0.1736  1.4316
 3163TIP3    H231049   4.297   5.002   6.662 -0.9464  1.2809 -0.3929
 3164TIP3   OH231050   3.279   1.919   1.179  0.1981 -0.1604  0.4117
 3164TIP3    H131051   3.250   1.918   1.270  0.2686 -1.2403  0.4294
 3164TIP3    H231052   3.361   1.869   1.180 -0.0292 -0.5541 -0.3160
 3165TIP3   OH231053   0.525   2.955   0.885 -0.4835 -0.4499 -0.0076
 3165TIP3    H131054   0.601   2.899   0.898 -0.3146 -0.5681 -1.3776
 3165TIP3    H231055   0.552   3.041   0.918  0.1527 -0.5593 -0.2408
 3166TIP3   OH231056   5.337   1.030   7.900 -0.3185  0.3282  0.5208
 3166TIP3    H131057   5.289   1.021   7.818  1.1710 -2.6960 -0.0762
 3166TIP3    H231058   5.315   0.951   7.950  1.1567  0.6846  1.7723
 3167TIP3   OH231059   5.589   6.677   0.282  0.1943  0.0793  0.3721
 3167TIP3    H131060   5.541   6.650   0.361  0.9580  1.1996  1.2298
 3167TIP3    H231061   5.528   6.659   0.211 -0.1826 -1.7651  1.1121
 3168TIP3   OH231062   3.278   5.518   1.646  0.2719 -0.3987 -0.1840
 3168TIP3    H131063   3.212   5.477   1.591  0.0194 -2.4013  1.5602
 3168TIP3    H231064   3.361   5.496   1.604 -0.0232  0.3320 -1.1925
 3169TIP3   OH231065   5.137   2.865   0.901  0.0570  0.0288 -0.6790
 3169TIP3    H131066   5.045   2.871   0.929  0.0479  1.3155 -0.9411
 3169TIP3    H231067   5.139   2.791   0.841 -0.6653 -0.4708 -0.1034
 3170TIP3   OH231068   3.062   2.037   5.920 -0.4705 -0.4520 -0.2179
 3170TIP3    H131069   3.094   1.952   5.890  0.3019  0.1289 -1.0688
 3170TIP3    H231070   3.118   2.059   5.994 -1.3145 -1.1272  0.6428
 3171TIP3   OH231071   3.437   5.876   6.038  0.0683  0.3908 -0.1289
 3171TIP3    H131072   3.439   5.780   6.042 -2.2715  0.2808 -0.7317
 3171TIP3    H231073   3.523   5.900   6.004  1.2421 -1.4006  1.3979
 3172TIP3   OH231074   4.631   1.363   7.286  0.2010 -0.6980  0.5548
 3172TIP3    H131075   4.612   1.305   7.213  3.0149 -2.0222  0.8078
 3172TIP3    H231076   4.714   1.331   7.321  1.1139  2.6078  1.5990
 3173TIP3   OH231077   1.788   2.402   7.970  0.5423  0.7059 -0.1685
 3173TIP3    H131078   1.865   2.385   7.916  1.1016  0.3628  0.7241
 3173TIP3    H231079   1.731   2.327   7.955  1.7529 -0.5916  1.5527
 3174TIP3   OH231080   3.272   2.102   6.079 -0.9338  0.0151 -0.1841
 3174TIP3    H131081   3.347   2.151   6.046  0.1566 -0.2710  1.8426
 3174TIP3    H231082   3.303   2.012   6.086 -1.5708 -0.1655  0.3350
 3175TIP3   OH231083   1.828   2.739   1.531  0.5592 -0.1425 -0.5215
 3175TIP3    H131084   1.922   2.758   1.530  0.2985  1.2135 -1.0898
 3175TIP3    H231085   1.822   2.645   1.516  1.8419 -0.2951 -0.1179
 3176TIP3   OH231086   5.955   4.091   7.607 -0.5038  0.0002  0.0500
 3176TIP3    H131087   5.957   4.145   7.528 -1.0644  1.1961  0.8314
 3176TIP3    H231088   5.913   4.147   7.673 -0.9886 -1.3545  0.9103
 3177TIP3   OH231089   4.049   5.246   0.217 -0.1077  0.5791 -0.2343
 3177TIP3    H131090   4.029   5.153   0.204  0.3103  0.6108 -1.1902
 3177TIP3    H231091   4.090   5.250   0.303 -0.5180 -0.0606  0.0007
 3178TIP3   OH231092   4.684   3.891   1.778  0.3654 -0.1956  0.3637
 3178TIP3    H131093   4.755   3.944   1.742 -0.2500 -0.7274 -1.6897
 3178TIP3    H231094   4.720   3.803   1.784 -0.5470 -0.7726 -2.0827
 3179TIP3   OH231095   5.031   2.720   0.695 -0.1920  0.1847  0.5624
 3179TIP3    H131096   5.034   2.667   0.615 -0.0302 -0.3260  0.9076
 3179TIP3    H231097   5.047   2.810   0.664 -0.0298 -0.0214  0.0343
 3180TIP3   OH231098   2.869   1.111   0.803  0.1972  0.0803  0.1662
 3180TIP3    H131099   2.907   1.086   0.718  1.0376 -1.6011  1.0234
 3180TIP3    H231100   2.775   1.096   0.793  0.1667  0.8545 -0.7954
 3181TIP3   OH231101   0.065   3.331   0.397  0.3576  0.1646 -0.9127
 3181TIP3    H131102   0.053   3.306   0.305  1.2124  2.7538 -1.7503
 3181TIP3    H231103   0.048   3.425   0.399  0.1406  0.0927  1.6311
 3182TIP3   OH231104   0.170   2.864   1.146  0.0307  0.6263 -0.3842
 3182TIP3    H131105   0.241   2.928   1.141 -0.7162  1.4489 -0.3957
 3182TIP3    H231106   0.176   2.829   1.235 -0.0579  1.2771 -0.1233
 3183TIP3   OH231107   6.864   0.735   7.856 -0.1198  0.0109  0.1719
 3183TIP3    H131108   6.824   0.806   7.905 -0.5981 -0.9900  1.2616
 3183TIP3    H231109   6.806   0.724   7.780  0.5533  1.4730 -0.5700
 3184TIP3   OH231110   1.628   4.129   7.652 -0.9276  0.3783 -0.2415
 3184TIP3    H131111   1.684   4.097   7.582 -0.1500 -1.4732  1.1723
 3184TIP3    H231112   1.562   4.183   7.608  0.3295  0.3359 -2.2177
 3185TIP3   OH231113   5.509   1.856   7.757  0.1443 -0.0578  0.0425
 3185TIP3    H131114   5.424   1.848   7.801 -1.0552  1.0892 -1.9313
 3185TIP3    H231115   5.495   1.815   7.671  0.4808  3.1849 -1.6507
 3186TIP3   OH231116   5.887   5.714   0.031 -0.2924 -0.0600 -0.0352
 3186TIP3    H131117   5.948   5.763   0.086  2.8204 -1.2601 -2.3036
 3186TIP3    H231118   5.902   5.748  -0.058  0.8724 -3.9889 -1.4237
 3187TIP3   OH231119   4.080   2.501   1.266 -0.2257 -0.0261  0.2583
 3187TIP3    H131120   4.162   2.496   1.315  1.5382 -1.8859 -2.7848
 3187TIP3    H231121   4.034   2.575   1.305  2.5814  0.6468  2.4609
 3188TIP3   OH231122   5.701   2.236   8.068  0.0380 -0.5157 -0.2193
 3188TIP3    H131123   5.673   2.328   8.072  0.5008 -0.4300  1.3985
 3188TIP3    H231124   5.696   2.213   7.975  0.5292  1.3323 -0.7113
 3189TIP3   OH231125   2.844   1.038   7.902 -0.1055 -0.1253 -0.1018
 3189TIP3    H131126   2.852   1.059   7.995  1.6627  0.5660 -0.3942
 3189TIP3    H231127   2.821   0.945   7.900 -0.3617 -0.0881  1.0215
 3190TIP3   OH231128   0.584   2.071   0.974 -0.2423  0.2754 -0.1383
 3190TIP3    H131129   0.553   2.047   1.061 -1.6758  1.0958 -0.4023
 3190TIP3    H231130   0.679   2.078   0.983 -0.1993 -1.4202  0.9048
 3191TIP3   OH231131   6.189   0.566   1.351  0.0363 -0.4335 -0.0067
 3191TIP3    H131132   6.113   0.613   1.385  0.6733  0.5341  0.1185
 3191TIP3    H231133   6.161   0.475   1.346 -1.1298 -0.0841  0.0283
 3192TIP3   OH231134   5.279   1.478   1.441  0.0974 -0.5699  0.0585
 3192TIP3    H131135   5.327   1.559   1.420 -1.8263  0.1838 -1.6206
 3192TIP3    H231136   5.347   1.413   1.455  1.6686  1.1157  0.5144
 3193TIP3   OH231137   4.730   1.657   1.659  0.0570 -0.1997 -0.8179
 3193TIP3    H131138   4.720   1.746   1.692  0.3952 -0.3478 -0.3111
 3193TIP3    H231139   4.683   1.657   1.576  1.4019  0.8883 -1.5895
 3194TIP3   OH231140   3.845   1.475   1.561  0.0532  0.9043  0.0357
 3194TIP3    H131141   3.826   1.381   1.568 -0.6912  0.9427 -1.2854
 3194TIP3    H231142   3.831   1.509   1.649 -0.8887 -0.0009  0.2456
 3195TIP3   OH231143   3.726   5.634   8.099 -0.0032 -0.7741 -0.2628
 3195TIP3    H131144   3.789   5.562   8.099  0.6325 -0.2184 -1.1741
 3195TIP3    H231145   3.697   5.642   8.008 -1.1025 -0.7595  0.0714
 3196TIP3   OH231146   4.050   3.233   6.886 -0.6904  0.4385 -0.8130
 3196TIP3    H131147   4.037   3.153   6.835 -3.2792 -0.6218  1.4066
 3196TIP3    H231148   4.019   3.303   6.829  0.1654 -0.2764 -2.1921
 3197TIP3   OH231149   3.238   5.887   7.464 -0.3030  0.3949  0.1913
 3197TIP3    H131150   3.213   5.898   7.555 -0.6191  0.1083  0.1401
 3197TIP3    H231151   3.155   5.880   7.417 -0.1208 -2.7473  0.2803
 3198TIP3   OH231152   3.066   2.007   6.873 -0.3069 -0.5172  0.2508
 3198TIP3    H131153   3.074   1.913   6.888  0.2205 -0.3803  0.8349
 3198TIP3    H231154   3.156   2.036   6.856 -0.3939 -0.0291  0.6179
 3199TIP3   OH231155   6.279   5.737   7.931 -0.0771  0.0462 -0.2153
 3199TIP3    H131156   6.269   5.665   7.994 -0.3660 -0.6831 -1.0935
 3199TIP3    H231157   6.370   5.764   7.941  0.2162 -0.8785 -0.3416
 3200TIP3   OH231158   3.911   0.222   6.785 -0.5068  0.6770 -1.2987
 3200TIP3    H131159   3.916   0.167   6.863  1.6361 -2.5464 -3.6143
 3200TIP3    H231160   3.818   0.221   6.761 -0.7373 -0.5573 -0.3839
 3201TIP3   OH231161   6.095   6.619   7.708 -0.0665 -0.9047  0.4899
 3201TIP3    H131162   6.022   6.663   7.751  1.4297  1.1313  1.0133
 3201TIP3    H231163   6.145   6.689   7.667  0.5105 -2.4517 -1.5987
 3202TIP3   OH231164   4.736   5.502   0.013  0.7121  0.0275 -0.5541
 3202TIP3    H131165   4.674   5.442   0.056  0.6373 -0.8289 -1.8217
 3202TIP3    H231166   4.768   5.453  -0.063  1.0509  1.4095 -1.3208
 3203TIP3   OH231167   5.074   5.978   6.403 -0.6725  0.1494 -0.2570
 3203TIP3    H131168   4.984   5.996   6.430 -0.5112 -0.1987  0.5113
 3203TIP3    H231169   5.072   5.886   6.374 -0.7681  0.4147 -1.1269
 3204TIP3   OH231170   4.885   6.476   7.049 -0.0419 -0.0468 -0.3234
 3204TIP3    H131171   4.969   6.435   7.030  0.2332  0.5897 -0.4626
 3204TIP3    H231172   4.824   6.402   7.057 -0.0033 -0.3742 -2.8037
 3205TIP3   OH231173   3.619   2.700   6.422  0.1556 -0.4435 -0.9608
 3205TIP3    H131174   3.606   2.745   6.338  1.0703  1.2236 -0.2410
 3205TIP3    H231175   3.645   2.611   6.398  1.1715  0.2378 -2.4540
 3206TIP3   OH231176   4.574   1.506   6.488  0.7854 -0.8294  0.2155
 3206TIP3    H131177   4.541   1.582   6.537 -0.0435 -0.8048 -0.3742
 3206TIP3    H231178   4.633   1.543   6.422 -0.5972 -0.5689 -0.9013
 3207TIP3   OH231179   5.720   3.973   7.501  0.3702 -0.1538  0.1474
 3207TIP3    H131180   5.786   4.026   7.545 -0.6280  1.1531  0.0859
 3207TIP3    H231181   5.752   3.883   7.509  1.4454  0.3285  1.3507
 3208TIP3   OH231182   5.980   6.584   7.110 -0.5705 -0.4192 -0.1246
 3208TIP3    H131183   6.015   6.644   7.044 -1.9982 -0.3751 -0.8726
 3208TIP3    H231184   5.959   6.640   7.185  0.8241 -0.4308  0.2815
 3209TIP3   OH231185   1.197   0.765   6.734 -0.3708  0.0990 -0.5384
 3209TIP3    H131186   1.217   0.729   6.647 -0.8951 -0.0284 -0.6059
 3209TIP3    H231187   1.119   0.819   6.720 -1.0728 -0.7555  0.0583
 3210TIP3   OH231188   3.071   2.276   6.372  0.3642  0.1128 -0.2187
 3210TIP3    H131189   3.054   2.301   6.281  1.4881  0.3722 -0.3693
 3210TIP3    H231190   3.056   2.357   6.421 -0.1424 -0.0008 -0.1832
 3211TIP3   OH231191   0.593   6.237   8.021 -0.9064  0.2491 -1.0188
 3211TIP3    H131192   0.556   6.245   7.933  0.5375  1.2016 -1.5532
 3211TIP3    H231193   0.674   6.186   8.008  1.0584  3.1738 -0.7757
 3212TIP3   OH231194   6.669   4.795   7.339 -0.0898  0.1675  0.1470
 3212TIP3    H131195   6.593   4.742   7.361  0.0718 -0.0480  0.1899
 3212TIP3    H231196   6.668   4.800   7.244  0.5596 -0.9134  0.0647
 3213TIP3   OH231197   0.497   0.668   1.711 -0.0400  0.1758 -0.6801
 3213TIP3    H131198   0.474   0.634   1.625 -0.4616 -0.5945 -0.2714
 3213TIP3    H231199   0.507   0.763   1.698 -1.1955  0.2192 -1.3489
 3214TIP3   OH231200   4.162   2.397   6.740 -0.1422 -0.0571  0.3334
 3214TIP3    H131201   4.148   2.310   6.701  1.8962 -0.1148 -0.3541
 3214TIP3    H231202   4.081   2.416   6.787 -0.6421 -2.3037  0.4375
 3215TIP3   OH231203   6.476   0.910   6.330 -0.2157  0.4532  1.0028
 3215TIP3    H131204   6.478   1.004   6.313  0.1226  0.4575  1.0486
 3215TIP3    H231205   6.392   0.881   6.296  0.8603  0.2795 -1.5790
 3216TIP3   OH231206   6.548   1.849   0.689 -0.3685 -0.4991 -0.0117
 3216TIP3    H131207   6.630   1.832   0.642 -0.3485 -0.4608  0.0092
 3216TIP3    H231208   6.552   1.793   0.766 -0.4734 -0.6823 -0.1384
 3217TIP3   OH231209   7.050   5.012   7.054 -0.1832 -0.1573 -0.2488
 3217TIP3    H131210   7.142   4.987   7.052  0.4191  2.0123 -1.3799
 3217TIP3    H231211   7.005   4.936   7.091  2.1153 -1.0237  0.8488
 3218TIP3   OH231212   4.741   1.241   7.954 -0.0357 -0.4321 -0.3657
 3218TIP3    H131213   4.781   1.315   7.907  0.6126 -0.9217 -0.5932
 3218TIP3    H231214   4.677   1.282   8.012  0.1892  0.2987 -0.6202
 3219TIP3   OH231215   3.338   6.431   1.620  0.2801 -0.0318  0.1498
 3219TIP3    H131216   3.424   6.447   1.660  1.2614 -1.1456 -1.4463
 3219TIP3    H231217   3.347   6.464   1.531 -0.7571 -0.6862 -0.2020
 3220TIP3   OH231218   5.385   6.628   0.122  0.9216 -0.3732  0.2986
 3220TIP3    H131219   5.336   6.580   0.056  1.8640 -0.0217 -0.6725
 3220TIP3    H231220   5.318   6.673   0.174  0.1139 -1.5907  0.3370
 3221TIP3   OH231221   0.403   1.281   7.701  0.7374 -0.2765 -0.1237
 3221TIP3    H131222   0.456   1.355   7.733  0.9287  0.5410 -2.2526
 3221TIP3    H231223   0.465   1.209   7.693  1.4750  0.5363 -2.1140
 3222TIP3   OH231224   4.486   1.754   0.567 -0.0825 -0.2894  0.2883
 3222TIP3    H131225   4.477   1.781   0.658 -0.2139  0.6930 -0.0163
 3222TIP3    H231226   4.567   1.703   0.564  1.5685  2.2642  0.3455
 3223TIP3   OH231227   1.595   0.541   1.417  0.2586  0.1758  0.7623
 3223TIP3    H131228   1.669   0.482   1.425  1.0286  0.6729 -2.1630
 3223TIP3    H231229   1.524   0.497   1.465  1.6357 -1.6600  1.1635
 3224TIP3   OH231230   3.633   1.909   0.372 -0.1016 -0.1017 -0.8157
 3224TIP3    H131231   3.632   1.995   0.415 -1.9080  0.7303 -2.4488
 3224TIP3    H231232   3.714   1.910   0.320 -0.0299  0.5557 -0.7045
 3225TIP3   OH231233   5.790   0.078   7.937 -0.4370 -0.1496  0.9949
 3225TIP3    H131234   5.848   0.002   7.934 -1.5427 -1.0162  1.0780
 3225TIP3    H231235   5.811   0.128   7.858  0.1433 -0.6677  0.8208
 3226TIP3   OH231236   4.241   3.903   7.130  0.0552  0.0919 -0.7050
 3226TIP3    H131237   4.159   3.949   7.149  0.1456 -0.0305 -0.0074
 3226TIP3    H231238   4.233   3.877   7.039 -0.1949  1.0940 -0.9768
 3227TIP3   OH231239   0.094   0.662   1.176  0.7727  0.2115 -0.8147
 3227TIP3    H131240   0.146   0.612   1.238 -0.9794 -1.8867 -0.9917
 3227TIP3    H231241   0.135   0.645   1.091  0.6314 -0.2889 -0.7788
 3228TIP3   OH231242   0.576   2.447   6.254 -0.3755  0.3041 -0.4439
 3228TIP3    H131243   0.581   2.408   6.167 -0.5674 -1.1744  0.1964
 3228TIP3    H231244   0.482   2.463   6.267 -0.4567 -0.4331 -0.0997
 3229TIP3   OH231245   5.041   4.964   8.013 -0.0714  0.6019  0.5514
 3229TIP3    H131246   5.060   4.949   8.105  1.5040 -0.7305  0.0323
 3229TIP3    H231247   5.081   5.049   7.994  2.7559 -0.7234  0.2618
 3230TIP3   OH231248   3.376   6.367   0.365 -0.0612  0.0810  0.5492
 3230TIP3    H131249   3.296   6.318   0.345 -0.1995  0.6730 -0.3971
 3230TIP3    H231250   3.354   6.457   0.342  0.7469  0.3105  0.6913
 3231TIP3   OH231251   0.041   3.386   1.209 -0.5409 -0.1608 -0.5718
 3231TIP3    H131252  -0.004   3.470   1.217  1.2688  0.7878 -0.1474
 3231TIP3    H231253   0.055   3.358   1.300  1.0100  0.2508 -0.6804
 3232TIP3   OH231254   0.113   2.397   0.483  0.5326  0.2767 -0.1032
 3232TIP3    H131255   0.150   2.460   0.544  0.2436  0.1317  0.2181
 3232TIP3    H231256   0.163   2.317   0.498  0.7125  0.3452 -0.3198
 3233TIP3   OH231257   1.552   6.930   7.653 -0.1073 -0.1724  0.3232
 3233TIP3    H131258   1.624   6.955   7.595 -1.0257  0.1464 -0.6955
 3233TIP3    H231259   1.532   7.010   7.702  0.0514 -0.1833  0.4041
 3234TIP3   OH231260   5.078   2.614   7.943 -0.1945 -0.1252 -0.1091
 3234TIP3    H131261   5.022   2.683   7.980 -1.3893 -1.5787  0.8127
 3234TIP3    H231262   5.017   2.557   7.896  1.1655  1.1772 -3.6653
 3235TIP3   OH231263   0.344   0.505   0.040 -0.3509  0.2153  0.6405
 3235TIP3    H131264   0.374   0.499   0.130  0.5421  3.1288  0.5886
 3235TIP3    H231265   0.260   0.550   0.046 -1.1103 -1.1253  0.1537
 3236TIP3   OH231266   1.895   2.828   1.180  0.2228 -0.1499  0.4672
 3236TIP3    H131267   1.838   2.868   1.246 -0.3437  0.2342 -0.2549
 3236TIP3    H231268   1.960   2.895   1.160  1.1642 -0.7168  1.5589
 3237TIP3   OH231269   4.898   7.047   0.905 -1.1714  0.3679 -0.5663
 3237TIP3    H131270   4.819   7.099   0.890 -1.5292  0.6047  1.9903
 3237TIP3    H231271   4.959   7.107   0.947 -0.6405 -0.5726  0.0218
 3238TIP3   OH231272   6.380   6.783   0.091 -0.4294 -0.3353 -0.3772
 3238TIP3    H131273   6.327   6.805   0.015  1.1792  0.7661 -1.2174
 3238TIP3    H231274   6.456   6.738   0.054 -1.1804 -2.7042  0.8792
 3239TIP3   OH231275   1.798   0.745   7.122 -0.3015  0.0934 -0.3079
 3239TIP3    H131276   1.870   0.682   7.113  0.6346  1.2430 -0.9397
 3239TIP3    H231277   1.841   0.828   7.139 -1.5536  0.5346  0.7641
 3240TIP3   OH231278   3.099   1.795   5.802  0.0238  1.2892  0.3338
 3240TIP3    H131279   3.100   1.830   5.713 -0.6592  2.4195  0.7560
 3240TIP3    H231280   3.020   1.741   5.806  1.3812 -0.8049 -0.4929
 3241TIP3   OH231281   0.027   2.300   7.738 -0.1556 -0.3152  0.0904
 3241TIP3    H131282   0.090   2.255   7.682 -1.7536 -0.3661 -1.7042
 3241TIP3    H231283  -0.002   2.375   7.686 -0.8190  0.2881  1.3052
 3242TIP3   OH231284   3.646   3.523   0.840  0.1859 -0.0173  0.0038
 3242TIP3    H131285   3.738   3.505   0.821  0.1768 -0.1672  0.0993
 3242TIP3    H231286   3.635   3.616   0.821  0.2906 -0.0608 -0.2799
 3243TIP3   OH231287   3.562   0.745   7.379  0.2201  0.2669  0.3608
 3243TIP3    H131288   3.607   0.829   7.372 -0.6602  0.8643  1.6551
 3243TIP3    H231289   3.470   0.767   7.363  0.2793 -0.8237 -1.5831
 3244TIP3   OH231290   6.729   5.936   7.092  0.0906  0.4763 -0.4233
 3244TIP3    H131291   6.643   5.972   7.069  0.2989  1.4619  0.3078
 3244TIP3    H231292   6.766   5.999   7.154  1.3430  0.0449 -0.7178
 3245TIP3   OH231293   6.943   4.050   6.207  0.3339 -0.1762 -0.1787
 3245TIP3    H131294   6.888   4.040   6.129  0.6759  0.1740 -0.4678
 3245TIP3    H231295   7.000   4.123   6.186 -1.4675  1.7813  1.5158
 3246TIP3   OH231296   1.468   3.805   0.261 -0.1368 -0.0665  0.0642
 3246TIP3    H131297   1.522   3.882   0.240  0.0923  0.5653  2.8150
 3246TIP3    H231298   1.379   3.831   0.236  0.3238  0.0768 -1.4899
 3247TIP3   OH231299   6.713   5.332   1.643 -0.6605  0.5562 -0.3265
 3247TIP3    H131300   6.722   5.376   1.728  0.1604 -1.0623  0.4275
 3247TIP3    H231301   6.631   5.283   1.650 -0.1010 -0.3428 -0.1317
 3248TIP3   OH231302   1.666   5.739   1.406  0.6325 -0.1943  0.1406
 3248TIP3    H131303   1.637   5.799   1.337  1.5110  2.4763  1.9755
 3248TIP3    H231304   1.586   5.715   1.452  0.0595 -1.8729 -1.6834
 3249TIP3   OH231305   2.541   4.324   0.611 -0.3848  0.0351 -0.0630
 3249TIP3    H131306   2.484   4.273   0.552 -0.1838  0.2119 -0.4152
 3249TIP3    H231307   2.629   4.305   0.581 -0.2031 -0.9822  1.0925
 3250TIP3   OH231308   1.582   3.519   6.367 -0.1793  0.3309  0.0611
 3250TIP3    H131309   1.528   3.514   6.288  0.2166  1.6643 -0.3208
 3250TIP3    H231310   1.560   3.604   6.405  0.2933  0.0793  0.8998
 3251TIP3   OH231311   0.353   2.710   8.108 -0.1506  0.7023  0.6654
 3251TIP3    H131312   0.343   2.745   8.197 -2.2040  0.0629  0.7238
 3251TIP3    H231313   0.377   2.619   8.120  2.2124  1.2780  0.5253
 3252TIP3   OH231314   0.226   3.081   2.270 -0.0930  0.1375 -0.2527
 3252TIP3    H131315   0.314   3.051   2.293 -0.4786 -0.6800  0.1401
 3252TIP3    H231316   0.236   3.176   2.260  0.4571  0.2840  1.5568
 3253TIP3   OH231317   0.451   2.706   0.999  0.5276  0.0482  0.3997
 3253TIP3    H131318   0.514   2.736   1.064  0.6342  1.2902 -0.2505
 3253TIP3    H231319   0.416   2.787   0.961  0.0642 -0.6543 -0.6899
 3254TIP3   OH231320   4.628   3.965   0.148 -0.3170  0.0449  0.4116
 3254TIP3    H131321   4.650   3.922   0.065 -1.8425 -0.4402  0.2319
 3254TIP3    H231322   4.604   3.892   0.206  0.8448  0.3726  1.3179
 3255TIP3   OH231323   3.445   1.534   1.181  0.0774  0.4304 -0.2453
 3255TIP3    H131324   3.416   1.600   1.118  0.9911  0.1330 -0.9770
 3255TIP3    H231325   3.494   1.584   1.247 -1.5430  0.8489  0.6602
 3256TIP3   OH231326   3.963   7.061   1.293  0.1062 -0.0286 -0.1582
 3256TIP3    H131327   3.881   7.012   1.293  0.2253 -0.2295 -0.0644
 3256TIP3    H231328   3.976   7.084   1.385 -0.5610  1.2088 -0.3621
 3257TIP3   OH231329   0.410   4.411   7.088 -0.2351 -0.1834 -0.5404
 3257TIP3    H131330   0.407   4.316   7.087  1.1912 -0.2402 -2.0565
 3257TIP3    H231331   0.366   4.437   7.007 -2.0843  0.5058  0.6766
 3258TIP3   OH231332   6.752   5.713   0.294 -0.0259  0.2644  0.5540
 3258TIP3    H131333   6.822   5.703   0.359  1.4365  0.7568 -0.9265
 3258TIP3    H231334   6.764   5.639   0.235 -1.4489 -0.2667  0.9278
 3259TIP3   OH231335   5.194   6.271   0.658 -0.0903  0.2051 -0.3874
 3259TIP3    H131336   5.242   6.266   0.576  0.9843  1.0907  0.1630
 3259TIP3    H231337   5.222   6.193   0.707 -0.7828 -0.3590 -0.8722
 3260TIP3   OH231338   1.209   3.214   0.985 -0.0235 -0.3833  0.2571
 3260TIP3    H131339   1.266   3.196   0.911 -0.3139  0.8442 -0.2610
 3260TIP3    H231340   1.221   3.138   1.043  1.0332 -0.8144 -0.5165
 3261TIP3   OH231341   4.660   6.189   6.349  0.0667  0.4842 -0.4707
 3261TIP3    H131342   4.595   6.141   6.299  1.6957 -3.7832  1.2702
 3261TIP3    H231343   4.710   6.238   6.284 -0.4456 -1.7102 -2.5608
 3262TIP3   OH231344   1.079   5.796   8.006  0.0426 -0.3312 -0.0048
 3262TIP3    H131345   1.099   5.724   8.066  1.5001  0.2033  0.1540
 3262TIP3    H231346   1.155   5.854   8.011  0.0106 -0.0574 -2.0353
 3263TIP3   OH231347   6.503   0.893   7.213  0.3633  0.2724 -0.3247
 3263TIP3    H131348   6.471   0.968   7.262 -1.8968 -1.3119  0.7376
 3263TIP3    H231349   6.583   0.866   7.259  0.4338  1.2014  0.0977
 3264TIP3   OH231350   0.491   5.469   1.749  0.0462 -0.4897  0.1751
 3264TIP3    H131351   0.579   5.467   1.710 -0.5406 -0.5522 -1.1729
 3264TIP3    H231352   0.491   5.395   1.810  1.1851 -0.0242  0.7657
 3265TIP3   OH231353   3.892   1.120   1.758 -0.1781  0.4007  1.1476
 3265TIP3    H131354   3.982   1.092   1.774 -0.1351 -1.4511 -1.9854
 3265TIP3    H231355   3.838   1.055   1.802 -0.0056  0.3574  1.2937
 3266TIP3   OH231356   3.639   6.834   0.642 -0.3399  0.1049  0.2097
 3266TIP3    H131357   3.604   6.842   0.553 -0.9970  1.7841  0.6042
 3266TIP3    H231358   3.705   6.765   0.636  0.3754  0.9551 -1.8105
 3267TIP3   OH231359   5.702   1.411   6.300 -0.0566  0.4676  0.3710
 3267TIP3    H131360   5.672   1.334   6.349 -0.0387 -0.2770 -0.7845
 3267TIP3    H231361   5.633   1.476   6.313 -0.3810  0.0372  0.8113
 3268TIP3   OH231362   5.945   1.697   0.414  0.3440 -0.5075 -0.0355
 3268TIP3    H131363   5.881   1.687   0.484  1.3321 -0.8328  0.8319
 3268TIP3    H231364   5.986   1.611   0.405 -0.4802 -0.7478 -1.7133
 3269TIP3   OH231365   2.597   1.605   7.665 -0.0880 -0.0100  0.4986
 3269TIP3    H131366   2.692   1.611   7.672 -0.0511 -0.5865  0.5390
 3269TIP3    H231367   2.578   1.513   7.683 -0.6940  0.2090  0.9916
 3270TIP3   OH231368   3.758   1.814   6.820  0.0096  0.2045  0.0701
 3270TIP3    H131369   3.715   1.734   6.850  0.6199 -0.1100  0.1278
 3270TIP3    H231370   3.722   1.829   6.732 -1.8770  1.2097  0.9837
 3271TIP3   OH231371   6.486   5.976   0.972  0.2547  0.0529 -0.1762
 3271TIP3    H131372   6.447   5.925   0.902  0.3486  1.4002 -1.2285
 3271TIP3    H231373   6.458   5.932   1.053 -2.4036  0.2736 -0.9351
 3272TIP3   OH231374   2.018   4.876   1.654  0.1827  0.0026 -0.7652
 3272TIP3    H131375   1.958   4.803   1.639  0.4380 -0.0015 -1.7549
 3272TIP3    H231376   1.987   4.915   1.736 -0.0364 -1.1290 -0.2913
 3273TIP3   OH231377   6.936   2.176   0.228 -0.3358 -0.7135  0.6623
 3273TIP3    H131378   6.948   2.236   0.302  2.0263 -0.6621  0.2751
 3273TIP3    H231379   6.875   2.223   0.170 -0.2767  0.3170  1.4109
 3274TIP3   OH231380   0.088   6.248   1.427 -0.5468 -0.4945 -0.2176
 3274TIP3    H131381   0.143   6.304   1.373  2.2441 -1.6815  1.2859
 3274TIP3    H231382   0.141   6.169   1.440 -1.5626 -0.6615  3.3432
 3275TIP3   OH231383   5.184   1.800   6.561  0.2820  0.2405 -0.3220
 3275TIP3    H131384   5.278   1.806   6.543  0.2498  2.9213  0.2741
 3275TIP3    H231385   5.174   1.716   6.607  1.9907 -1.2065 -2.4717
 3276TIP3   OH231386   2.999   3.222   0.650 -0.2821 -0.2456 -0.1434
 3276TIP3    H131387   3.079   3.252   0.693 -0.2947  1.2976 -1.1732
 3276TIP3    H231388   3.013   3.241   0.557 -0.9740 -1.9325 -0.6063
 3277TIP3   OH231389   0.209   1.260   7.046 -0.3701 -0.4207  0.0705
 3277TIP3    H131390   0.176   1.285   7.132  1.4632  1.2634  0.3048
 3277TIP3    H231391   0.159   1.181   7.024 -2.0978  0.1227  1.8856
 3278TIP3   OH231392   0.708   2.407   0.083 -0.5675 -0.1476  0.0669
 3278TIP3    H131393   0.788   2.445   0.045 -1.1908  1.7237  0.5797
 3278TIP3    H231394   0.636   2.455   0.041 -1.3317  0.0883  1.5927
 3279TIP3   OH231395   7.063   1.504   0.897  0.2708 -0.1230 -0.1188
 3279TIP3    H131396   7.100   1.590   0.875 -0.2663  0.6453  1.9456
 3279TIP3    H231397   7.105   1.480   0.980  1.4530 -2.5143 -1.3339
 3280TIP3   OH231398   3.338   0.836   0.324  0.2018  0.2599 -0.4634
 3280TIP3    H131399   3.311   0.926   0.338 -1.4482  0.0290 -1.9802
 3280TIP3    H231400   3.285   0.806   0.250  2.4839 -1.1928 -1.5644
 3281TIP3   OH231401   0.382   4.536   7.335  0.2140  0.0388 -0.0286
 3281TIP3    H131402   0.421   4.502   7.255 -0.3850  0.4881 -0.5182
 3281TIP3    H231403   0.327   4.466   7.368 -1.7142  0.8192 -1.5096
 3282TIP3   OH231404   0.981   6.337   1.602 -0.6911  0.6155 -0.0076
 3282TIP3    H131405   1.011   6.246   1.607  0.6940  1.1935  2.6523
 3282TIP3    H231406   1.056   6.385   1.566 -1.2286  0.8093 -0.8865
 3283TIP3   OH231407   2.468   7.104   6.718  0.5335  0.3308  0.2717
 3283TIP3    H131408   2.455   7.012   6.742  0.9506  1.0528  3.5029
 3283TIP3    H231409   2.543   7.102   6.658 -1.3762 -1.6952 -2.1577
 3284TIP3   OH231410   4.139   2.905   6.803  0.4114 -0.0652 -0.3125
 3284TIP3    H131411   4.214   2.846   6.790  0.4036  0.0567 -0.9213
 3284TIP3    H231412   4.120   2.939   6.716  1.7967  2.4968  0.3311
 3285TIP3   OH231413   4.464   5.372   1.069 -0.1971 -0.7983 -0.5502
 3285TIP3    H131414   4.552   5.345   1.093 -0.2518 -1.9583 -1.6580
 3285TIP3    H231415   4.431   5.418   1.147  0.9667 -1.3321  0.2578
 3286TIP3   OH231416   2.475   3.034   1.092  0.8094  0.2213  0.3025
 3286TIP3    H131417   2.457   3.117   1.049  0.0574 -0.7713 -1.3417
 3286TIP3    H231418   2.514   2.979   1.024  0.3473 -1.1146  1.0895
 3287TIP3   OH231419   4.031   2.732   1.441  0.4663 -0.1916 -0.2858
 3287TIP3    H131420   4.026   2.689   1.527  1.4668  0.2981  0.0179
 3287TIP3    H231421   3.985   2.815   1.453 -0.4486 -0.6449 -0.5611
 3288TIP3   OH231422   2.359   1.726   7.969  0.0916  0.2306 -0.1973
 3288TIP3    H131423   2.435   1.671   7.954 -0.8685 -1.3843  0.7428
 3288TIP3    H231424   2.388   1.815   7.946  1.4025 -0.7698 -2.5797
 3289TIP3   OH231425   6.581   3.029   0.247 -0.4023  0.1825  0.0292
 3289TIP3    H131426   6.490   3.036   0.220 -0.8969 -0.3554  1.5031
 3289TIP3    H231427   6.605   3.118   0.273 -0.8150  0.1375  0.5749
 3290TIP3   OH231428   4.234   0.986   7.762 -0.5120 -0.7199  0.0059
 3290TIP3    H131429   4.306   0.983   7.699  0.1343 -0.6870  0.7385
 3290TIP3    H231430   4.176   0.915   7.735  0.1070 -1.1462 -0.2237
 3291TIP3   OH231431   6.410   1.494   0.194  0.2143 -0.0383  0.4764
 3291TIP3    H131432   6.441   1.471   0.281 -0.2085 -0.8064  0.4370
 3291TIP3    H231433   6.353   1.420   0.169  0.5230  0.0609 -0.5401
 3292TIP3   OH231434   4.531   1.691   6.702 -0.5060  0.1155 -0.4144
 3292TIP3    H131435   4.620   1.692   6.736 -0.4508 -1.3501 -0.5034
 3292TIP3    H231436   4.479   1.734   6.770 -0.1690 -1.5493  0.9349
 3293TIP3   OH231437   5.065   2.417   0.726  0.2876  0.1587 -0.1326
 3293TIP3    H131438   5.054   2.476   0.652  2.7421  0.9107  0.0804
 3293TIP3    H231439   5.016   2.459   0.797  0.7443  1.1531 -0.3984
 3294TIP3   OH231440   2.910   6.551   0.694  0.4941  0.2365 -0.3310
 3294TIP3    H131441   3.002   6.554   0.666  0.1133 -2.0500 -1.9669
 3294TIP3    H231442   2.911   6.494   0.770  0.3115 -0.6644 -0.9889
 3295TIP3   OH231443   2.868   0.869   7.057  0.4810 -0.9581 -1.0666
 3295TIP3    H131444   2.802   0.925   7.016  0.6275 -1.5505 -2.1265
 3295TIP3    H231445   2.830   0.846   7.142  1.5949  2.9566  0.5599
 3296TIP3   OH231446   3.836   2.353   6.143  0.1908  0.0879 -0.6511
 3296TIP3    H131447   3.839   2.307   6.059 -1.3996 -0.2995 -0.5130
 3296TIP3    H231448   3.835   2.446   6.119 -1.6112 -0.0366 -1.1327
 3297TIP3   OH231449   2.592   6.338   0.786 -0.1788 -0.1647 -0.8591
 3297TIP3    H131450   2.687   6.330   0.790 -0.1187  0.9200  0.1568
 3297TIP3    H231451   2.563   6.257   0.743  1.0010 -1.6794  1.1126
 3298TIP3   OH231452   4.831   2.725   1.281  0.5181  0.5583  0.0872
 3298TIP3    H131453   4.805   2.816   1.297 -0.7958  0.4664 -1.3877
 3298TIP3    H231454   4.890   2.730   1.206 -0.8042  0.0630 -1.0158
 3299TIP3   OH231455   5.545   0.647   5.911  0.4872  0.0839  0.1932
 3299TIP3    H131456   5.625   0.611   5.951 -0.5492 -1.1892  1.1619
 3299TIP3    H231457   5.506   0.702   5.979  0.9910  1.4306 -0.5875
 3300TIP3   OH231458   1.958   4.081   1.369  0.5849 -0.3882  0.8976
 3300TIP3    H131459   1.929   4.169   1.393 -0.3911 -0.5377  0.2694
 3300TIP3    H231460   1.889   4.023   1.401 -0.3639 -0.6474 -1.5653
 3301TIP3   OH231461   0.689   3.132   1.773 -0.0089 -0.0108 -0.3944
 3301TIP3    H131462   0.663   3.094   1.857  0.0895  0.5520 -0.1089
 3301TIP3    H231463   0.727   3.217   1.796 -1.7750  1.0169 -1.1759
 3302TIP3   OH231464   0.489   2.707   7.653  0.3033  0.5878  0.6600
 3302TIP3    H131465   0.496   2.736   7.744  1.9984 -0.9881  1.0632
 3302TIP3    H231466   0.553   2.636   7.645  0.5210  1.0050 -1.8775
 3303TIP3   OH231467   2.820   2.873   7.739 -0.5197 -0.2436 -0.7151
 3303TIP3    H131468   2.898   2.880   7.683  0.2728  1.7638  0.5644
 3303TIP3    H231469   2.855   2.850   7.826 -1.3653  0.4334 -0.1873
 3304TIP3   OH231470   4.242   3.097   8.060 -0.2191 -0.2049  0.1469
 3304TIP3    H131471   4.231   3.174   8.004 -1.6630 -1.1174 -0.8562
 3304TIP3    H231472   4.167   3.098   8.118  0.1690 -0.4380  0.6564
 3305TIP3   OH231473   0.561   0.126   0.206 -0.1147 -0.3932 -0.1417
 3305TIP3    H131474   0.543   0.192   0.139 -0.8932  0.0447  0.4790
 3305TIP3    H231475   0.504   0.053   0.183  0.7499 -0.8520 -0.8311
 3306TIP3   OH231476   3.917   2.215   0.675 -0.1339  0.8475  0.2106
 3306TIP3    H131477   3.866   2.253   0.747 -0.3600 -0.1993  0.6190
 3306TIP3    H231478   3.996   2.182   0.717  1.1678  2.9650 -0.5060
 3307TIP3   OH231479   6.805   2.697   1.156 -0.0204  0.1915  0.2254
 3307TIP3    H131480   6.744   2.659   1.219 -1.3553 -0.1012 -1.2348
 3307TIP3    H231481   6.802   2.791   1.174  0.0729  0.0496  1.0063
 3308TIP3   OH231482   3.079   1.344   0.733  0.3170  0.3518 -0.0363
 3308TIP3    H131483   2.995   1.334   0.689 -0.1865  0.9381  0.7970
 3308TIP3    H231484   3.143   1.313   0.668 -0.5699 -0.5946 -0.4706
 3309TIP3   OH231485   5.605   5.230   0.307  0.1861  0.6987  0.9979
 3309TIP3    H131486   5.581   5.180   0.385  0.6649  2.4337  2.2895
 3309TIP3    H231487   5.522   5.262   0.273 -0.0375 -0.1571  0.7259
 3310TIP3   OH231488   1.737   5.144   1.106  0.1552 -0.0366 -0.1286
 3310TIP3    H131489   1.816   5.090   1.097 -0.2171 -0.6859  0.4741
 3310TIP3    H231490   1.716   5.170   1.016  2.3533  2.0493 -0.0890
 3311TIP3   OH231491   1.496   3.301   7.111 -0.3955 -0.4172 -0.0251
 3311TIP3    H131492   1.430   3.369   7.093  1.9526  2.2259  0.8541
 3311TIP3    H231493   1.541   3.289   7.027 -1.0840 -1.1929 -0.2833
 3312TIP3   OH231494   0.130   3.868   1.277 -0.3221 -0.1148 -0.1996
 3312TIP3    H131495   0.217   3.906   1.291 -0.8207  1.4064 -1.0834
 3312TIP3    H231496   0.071   3.923   1.329 -1.0940  0.5866 -1.7670
 3313TIP3   OH231497   0.748   2.936   0.020 -0.1407 -0.4095  0.4634
 3313TIP3    H131498   0.789   2.864  -0.028  0.0890 -0.2476  0.4147
 3313TIP3    H231499   0.712   2.894   0.099  1.0961 -0.3878  1.0655
 3314TIP3   OH231500   4.337   1.157   6.661  0.2257  0.4984  0.0313
 3314TIP3    H131501   4.256   1.195   6.628  0.1537  0.1938 -0.1440
 3314TIP3    H231502   4.327   1.158   6.756 -0.7694 -1.2462 -0.0476
 3315TIP3   OH231503   5.765   4.777   1.339 -0.5131  0.3584 -0.5799
 3315TIP3    H131504   5.801   4.831   1.269  0.0254  0.3591 -0.3157
 3315TIP3    H231505   5.762   4.688   1.303  1.0535  0.1141 -0.1675
 3316TIP3   OH231506   1.376   1.997   1.271 -0.3492  0.5205 -0.3362
 3316TIP3    H131507   1.466   1.967   1.269 -0.3336  0.6510 -1.7906
 3316TIP3    H231508   1.373   2.060   1.343  1.2764  2.2464 -1.7391
 3317TIP3   OH231509   3.289   5.308   7.051 -0.4855  0.3076  0.2743
 3317TIP3    H131510   3.329   5.246   7.112  1.0055  2.3308  1.3948
 3317TIP3    H231511   3.214   5.343   7.098 -0.3658  0.5558  0.2831
 3318TIP3   OH231512   3.524   6.180   6.994  0.1339  0.2318 -0.0744
 3318TIP3    H131513   3.582   6.140   6.929  0.5639 -1.0871  1.1019
 3318TIP3    H231514   3.461   6.230   6.942 -0.7448 -2.3696 -1.6583
 3319TIP3   OH231515   1.309   2.023   7.475  0.5324  0.4183 -0.1507
 3319TIP3    H131516   1.325   2.052   7.385  0.4873 -0.6008 -0.5044
 3319TIP3    H231517   1.238   2.079   7.506  0.0218  0.2720 -1.0259
 3320TIP3   OH231518   2.293   2.556   7.201 -0.1517 -0.0360 -0.1369
 3320TIP3    H131519   2.214   2.584   7.248  0.1856 -0.5371  0.7473
 3320TIP3    H231520   2.365   2.583   7.258  0.2667 -0.6647 -0.3643
 3321TIP3   OH231521   1.360   0.649   7.319 -0.0435  0.5045 -0.1498
 3321TIP3    H131522   1.437   0.638   7.375  0.9606  0.4799 -1.5043
 3321TIP3    H231523   1.381   0.725   7.264 -0.1150 -0.7207 -1.9107
 3322TIP3   OH231524   4.539   4.752   7.705  0.3056 -0.1612 -0.2058
 3322TIP3    H131525   4.537   4.847   7.692  0.0474  0.0711  1.4211
 3322TIP3    H231526   4.631   4.728   7.689  0.7798  0.6460  1.1871
 3323TIP3   OH231527   5.798   3.691   7.710 -0.1843 -0.6363 -0.5928
 3323TIP3    H131528   5.854   3.613   7.705 -0.1948 -0.6531 -0.4204
 3323TIP3    H231529   5.828   3.738   7.787 -0.3573 -0.6056 -0.5440
 3324TIP3   OH231530   3.176   4.362   7.112  0.4127 -0.1124 -0.5199
 3324TIP3    H131531   3.197   4.314   7.192  0.0824  1.3448  0.4654
 3324TIP3    H231532   3.098   4.319   7.078  0.7530 -0.9557 -0.2474
 3325TIP3   OH231533   2.850   1.057   0.066  0.5955  0.6205  0.4291
 3325TIP3    H131534   2.804   1.120   0.122  2.1680  0.5716  1.7869
 3325TIP3    H231535   2.917   1.018   0.122  0.1034 -1.7938 -0.5834
 3326TIP3   OH231536   0.034   2.692   0.415  0.6338 -0.5290 -0.0318
 3326TIP3    H131537  -0.023   2.669   0.489  0.2848  0.0488 -0.1161
 3326TIP3    H231538   0.008   2.633   0.345  0.7546 -0.8723  0.2102
 3327TIP3   OH231539   5.818   4.347   7.198  0.6140  0.2349 -0.0153
 3327TIP3    H131540   5.727   4.328   7.177  1.5505 -1.5005 -2.7550
 3327TIP3    H231541   5.825   4.442   7.192 -1.0078  0.3955  0.3413
 3328TIP3   OH231542   3.254   4.505   6.089  0.4935 -0.2586 -0.1671
 3328TIP3    H131543   3.319   4.539   6.151  0.7144  0.7400 -0.9262
 3328TIP3    H231544   3.223   4.423   6.128  1.1157  0.0258  0.9274
 3329TIP3   OH231545   0.851   6.749   7.294  0.1137 -0.0565  0.4967
 3329TIP3    H131546   0.799   6.682   7.247 -1.7093  0.8933  1.1124
 3329TIP3    H231547   0.924   6.767   7.235  0.0804 -1.8468 -0.1459
 3330TIP3   OH231548   3.497   2.242   0.819  0.5616  0.0567  0.3868
 3330TIP3    H131549   3.519   2.328   0.785 -1.7173  0.4892 -0.0717
 3330TIP3    H231550   3.480   2.257   0.912  0.9722 -0.0512  0.4799
 3331TIP3   OH231551   2.266   7.118   7.215  0.0802  0.1537  0.4472
 3331TIP3    H131552   2.183   7.129   7.169 -1.2313 -3.1161  1.9171
 3331TIP3    H231553   2.295   7.207   7.233 -2.4874  1.3717 -1.1576
 3332TIP3   OH231554   1.143   6.789   2.124  0.0127  0.0194  0.5956
 3332TIP3    H131555   1.204   6.768   2.053 -0.3773  0.5788  0.0862
 3332TIP3    H231556   1.071   6.835   2.081 -0.1225  0.5684  1.3860
 3333TIP3   OH231557   4.703   2.468   2.411  0.4160  0.3063  0.3726
 3333TIP3    H131558   4.654   2.533   2.461 -1.1315 -2.2888  2.3805
 3333TIP3    H231559   4.794   2.482   2.437  0.1698  1.9539  0.4022
 3334TIP3   OH231560   2.896   2.642   0.610 -0.2116  0.0636 -0.3405
 3334TIP3    H131561   2.893   2.583   0.685 -0.4726 -1.2766 -1.3820
 3334TIP3    H231562   2.898   2.729   0.648 -0.6917 -0.5900  1.2255
 3335TIP3   OH231563   3.280   0.359   7.679 -0.3775 -0.0644 -0.0171
 3335TIP3    H131564   3.215   0.330   7.615 -0.7191 -0.1249  0.3503
 3335TIP3    H231565   3.267   0.454   7.685 -0.5319 -0.0946  0.1582
 3336TIP3   OH231566   5.535   2.436   1.560 -0.1704  0.6553 -0.1391
 3336TIP3    H131567   5.581   2.508   1.604 -1.6796  0.9300  1.0406
 3336TIP3    H231568   5.491   2.389   1.631 -0.7502 -0.3002 -1.1207
 3337TIP3   OH231569   4.404   3.698   1.005 -0.9875 -0.3994  0.2316
 3337TIP3    H131570   4.497   3.702   1.026 -1.0009  1.3945  0.0300
 3337TIP3    H231571   4.370   3.784   1.029 -2.0238 -0.0515 -2.2931
 3338TIP3   OH231572   5.967   6.286   0.262  0.1976  0.6465  0.2699
 3338TIP3    H131573   5.940   6.251   0.177  0.7325  1.5360 -0.2709
 3338TIP3    H231574   6.045   6.235   0.285  0.6810  1.1140 -0.2854
 3339TIP3   OH231575   1.920   6.272   0.177  0.3138 -0.1097 -0.0430
 3339TIP3    H131576   1.851   6.230   0.127  0.2852 -1.7309  1.3134
 3339TIP3    H231577   1.998   6.220   0.160  0.1508 -1.1273  2.1057
 3340TIP3   OH231578   1.143   3.239   0.298 -0.3764 -0.6145  0.1942
 3340TIP3    H131579   1.224   3.219   0.252  0.9591 -0.1243  2.2477
 3340TIP3    H231580   1.154   3.198   0.385 -1.2831  1.5034  1.3467
 3341TIP3   OH231581   5.781   3.276   1.146 -0.1126  0.2557 -0.1285
 3341TIP3    H131582   5.770   3.361   1.188  1.5420 -0.0923  1.0304
 3341TIP3    H231583   5.709   3.272   1.083  0.2475  2.8609 -0.7810
 3342TIP3   OH231584   1.766   0.708   7.614  0.2368  0.2182 -0.2993
 3342TIP3    H131585   1.751   0.742   7.703  0.2041  2.9115 -1.2812
 3342TIP3    H231586   1.788   0.616   7.627  0.1760  0.5516  2.5114
 3343TIP3   OH231587   0.972   2.578   7.202  0.0148  0.2282 -0.6187
 3343TIP3    H131588   0.955   2.644   7.269 -1.1042 -0.2060 -0.4611
 3343TIP3    H231589   0.886   2.559   7.164  0.5195 -0.1525 -1.5864
 3344TIP3   OH231590   4.447   3.780   7.787  0.1457 -0.2769 -0.0001
 3344TIP3    H131591   4.405   3.837   7.852  1.5208  2.2540 -1.2661
 3344TIP3    H231592   4.464   3.837   7.713  2.3488 -2.1630 -0.9990
 3345TIP3   OH231593   5.921   2.551   1.570 -0.4888  0.1779  0.0723
 3345TIP3    H131594   5.904   2.621   1.633 -0.5005  0.7638 -0.5738
 3345TIP3    H231595   5.861   2.569   1.497  0.9102  0.6762 -0.9893
 3346TIP3   OH231596   5.015   6.672   7.887 -0.1777  0.9183  0.6221
 3346TIP3    H131597   5.006   6.696   7.795  0.5382 -1.5275 -0.1059
 3346TIP3    H231598   4.945   6.609   7.903 -0.5121  1.5720  1.8721
 3347TIP3   OH231599   5.044   3.913   6.244 -0.2414  0.2277 -0.2198
 3347TIP3    H131600   5.018   3.949   6.160 -0.6853 -2.4081 -1.2581
 3347TIP3    H231601   5.140   3.916   6.244 -0.2758  1.2843 -0.3330
 3348TIP3   OH231602   4.830   4.313   6.758 -0.4614 -0.3453  0.3651
 3348TIP3    H131603   4.799   4.224   6.776  0.7915 -0.7342  0.7166
 3348TIP3    H231604   4.757   4.357   6.715  0.2233 -2.7471 -3.4962
 3349TIP3   OH231605   6.432   1.516   7.504  0.3031  0.3582 -0.4103
 3349TIP3    H131606   6.477   1.491   7.585  0.9237  2.8660  0.0541
 3349TIP3    H231607   6.347   1.549   7.533  0.4010  0.9669 -0.8212
 3350TIP3   OH231608   4.257   6.612   7.859 -0.0917  0.4871  0.1879
 3350TIP3    H131609   4.321   6.633   7.791 -0.1295 -1.5027 -0.5091
 3350TIP3    H231610   4.256   6.516   7.862 -2.5650  0.4802  0.6289
 3351TIP3   OH231611   2.298   1.124   0.906 -0.1048  0.1684  0.1507
 3351TIP3    H131612   2.246   1.203   0.918 -2.3464 -1.0877 -0.9330
 3351TIP3    H231613   2.278   1.096   0.817  1.6227 -0.9261  0.1020
 3352TIP3   OH231614   6.813   4.825   6.160  0.6325 -0.5559  0.2466
 3352TIP3    H131615   6.886   4.858   6.212  0.3098  2.2130 -0.9568
 3352TIP3    H231616   6.843   4.833   6.069 -0.7526 -0.3567 -0.2063
 3353TIP3   OH231617   4.084   3.995   7.831 -0.1701  0.2287 -0.1820
 3353TIP3    H131618   4.168   4.020   7.870  0.2422  1.6321 -1.8932
 3353TIP3    H231619   4.080   4.044   7.749 -2.3760 -0.3293 -0.4482
 3354TIP3   OH231620   1.554   1.219   7.944 -0.3255 -0.4874 -0.0965
 3354TIP3    H131621   1.633   1.210   7.997  0.4913 -0.8682 -1.3464
 3354TIP3    H231622   1.557   1.145   7.884 -0.4471  0.7447 -1.6700
 3355TIP3   OH231623   3.281   1.836   6.570  0.5250 -0.4150  0.6838
 3355TIP3    H131624   3.291   1.904   6.637  3.1663  0.4872 -0.5629
 3355TIP3    H231625   3.292   1.883   6.487  0.1310 -2.0038 -0.2757
 3356TIP3   OH231626   4.497   1.900   1.546  0.4353  0.2796  0.9076
 3356TIP3    H131627   4.550   1.889   1.625 -0.4006  0.2480  1.4703
 3356TIP3    H231628   4.534   1.838   1.483  1.9156  1.2170  0.8398
 3357TIP3   OH231629   4.259   5.680   7.961  0.5103  0.3899  0.5169
 3357TIP3    H131630   4.173   5.719   7.975  0.7250  0.4902  1.6277
 3357TIP3    H231631   4.311   5.711   8.035  1.1451 -0.6968  0.5332
 3358TIP3   OH231632   3.669   3.871   6.397  0.4411 -0.5727 -0.2111
 3358TIP3    H131633   3.751   3.826   6.416  0.8150  0.1674 -0.0645
 3358TIP3    H231634   3.618   3.808   6.346  0.8681 -1.2454  0.1906
 3359TIP3   OH231635   3.333   0.903   7.243  0.2448 -0.0607 -0.2767
 3359TIP3    H131636   3.347   0.995   7.263 -0.2244  0.0922 -0.6426
 3359TIP3    H231637   3.248   0.882   7.283  2.0590 -1.3325  3.1011
 3360TIP3   OH231638   2.660   0.946   0.715  0.4898  0.0265 -0.1289
 3360TIP3    H131639   2.649   0.852   0.701  0.3804  0.0583 -0.2623
 3360TIP3    H231640   2.680   0.981   0.628  0.3505  0.1508 -0.1119
 3361TIP3   OH231641   5.085   1.267   6.462 -0.4965  0.0899 -0.3112
 3361TIP3    H131642   5.053   1.200   6.402 -1.2703 -0.9046  1.1701
 3361TIP3    H231643   5.008   1.322   6.480 -0.2373  0.4642 -0.3455
 3362TIP3   OH231644   2.114   6.613   0.924  0.1907  0.3431  0.5647
 3362TIP3    H131645   2.123   6.523   0.956  0.0916 -1.1228 -3.2285
 3362TIP3    H231646   2.020   6.629   0.924 -0.2791 -1.5523 -3.4659
 3363TIP3   OH231647   5.041   1.543   8.095 -0.0094 -0.0102  0.0993
 3363TIP3    H131648   5.015   1.454   8.074 -0.3192  0.0842  0.0814
 3363TIP3    H231649   5.132   1.535   8.125 -0.6176 -0.5890  1.8950
 3364TIP3   OH231650   1.973   5.448   0.528  0.6724  0.0364 -0.2896
 3364TIP3    H131651   1.899   5.503   0.554  0.2031 -0.5204 -0.4199
 3364TIP3    H231652   2.009   5.490   0.450  0.3466  0.1855 -0.3579
 3365TIP3   OH231653   4.634   6.126   0.690 -0.1621  0.0298 -0.0726
 3365TIP3    H131654   4.595   6.176   0.761  0.0289 -0.7222  0.5738
 3365TIP3    H231655   4.564   6.069   0.659  0.5898 -1.8965  1.6195
 3366TIP3   OH231656   1.504   1.673   1.660  0.0163 -0.5296 -0.0490
 3366TIP3    H131657   1.566   1.646   1.728 -0.7399 -1.3942  0.3139
 3366TIP3    H231658   1.559   1.698   1.586  0.8941  1.3585  1.1915
 3367TIP3   OH231659   2.429   1.653   2.531 -0.0310  0.5222 -0.4159
 3367TIP3    H131660   2.356   1.663   2.470  0.2368 -1.2436 -1.0572
 3367TIP3    H231661   2.482   1.583   2.494  0.2345 -0.4716  1.7493
 3368TIP3   OH231662   6.880   3.969   7.907 -0.2611  0.4988 -0.1965
 3368TIP3    H131663   6.880   3.957   7.812 -0.0460  0.5798 -0.2052
 3368TIP3    H231664   6.956   3.920   7.938 -0.4882  0.2460 -0.0371
 3369TIP3   OH231665   5.376   4.949   1.194 -0.3765  0.0874  0.0309
 3369TIP3    H131666   5.404   4.890   1.124 -3.2228 -0.7298 -0.4986
 3369TIP3    H231667   5.387   5.037   1.157  1.1203 -0.1994 -0.2448
 3370TIP3   OH231668   0.385   3.733   0.895  0.4856  0.1240 -0.1434
 3370TIP3    H131669   0.294   3.759   0.906  0.2581 -0.1936 -1.2306
 3370TIP3    H231670   0.427   3.759   0.976 -0.7893 -0.6798  0.8027
 3371TIP3   OH231671   4.712   5.791   6.956 -0.8008 -0.1519 -0.7709
 3371TIP3    H131672   4.683   5.804   6.866  1.2830  0.8084 -1.3162
 3371TIP3    H231673   4.654   5.848   7.008 -2.1387 -0.8637 -1.4598
 3372TIP3   OH231674   1.524   2.783   0.374 -0.2180 -0.1071 -0.0393
 3372TIP3    H131675   1.582   2.848   0.335  0.4785  0.0719  1.2505
 3372TIP3    H231676   1.519   2.713   0.309  1.9464 -0.4196  0.0797
 3373TIP3   OH231677   4.365   6.835   6.952 -0.3627 -0.1405  0.6851
 3373TIP3    H131678   4.276   6.843   6.984 -0.5846 -0.0174  0.0426
 3373TIP3    H231679   4.393   6.925   6.934  0.1832 -0.1085  1.6799
 3374TIP3   OH231680   0.684   1.177   6.322  0.1345  0.0104  0.3174
 3374TIP3    H131681   0.712   1.127   6.245  1.0037  1.4276 -0.2892
 3374TIP3    H231682   0.765   1.204   6.364 -0.3332  0.9176  0.6412
 3375TIP3   OH231683   1.634   4.340   0.236  0.2926 -0.5573  0.7107
 3375TIP3    H131684   1.727   4.357   0.250  0.4804 -1.8028  0.9961
 3375TIP3    H231685   1.594   4.356   0.322  0.4088 -1.1079  0.8707
 3376TIP3   OH231686   1.832   1.852   7.434  0.2489 -0.2080  0.0922
 3376TIP3    H131687   1.803   1.771   7.476 -0.1329  0.7942  1.8106
 3376TIP3    H231688   1.823   1.919   7.502 -0.5396  1.5040 -1.6550
 3377TIP3   OH231689   1.883   1.136   0.326  0.2135  0.0978  0.0983
 3377TIP3    H131690   1.924   1.113   0.243 -0.5637  1.2840 -0.6281
 3377TIP3    H231691   1.839   1.056   0.354  0.3300 -0.2571 -0.7204
 3378TIP3   OH231692   1.761   6.252   6.068  0.0900 -0.6449  0.0419
 3378TIP3    H131693   1.694   6.313   6.098 -0.6319 -2.4641  2.2983
 3378TIP3    H231694   1.748   6.246   5.973 -0.1923  2.1952 -0.1201
 3379TIP3   OH231695   1.395   2.427   1.621  0.5122  0.0625  0.2250
 3379TIP3    H131696   1.419   2.519   1.629  1.0244 -0.0586  0.1173
 3379TIP3    H231697   1.325   2.414   1.685  0.7150  0.4323  0.5207
 3380TIP3   OH231698   5.554   2.308   6.817 -0.0817 -0.2259 -0.0545
 3380TIP3    H131699   5.511   2.288   6.900 -2.5071 -0.0905 -1.2250
 3380TIP3    H231700   5.636   2.349   6.842  0.8111 -3.2692  2.3125
 3381TIP3   OH231701   0.414   0.039   1.684 -0.2155  0.1120 -0.0468
 3381TIP3    H131702   0.462  -0.038   1.714 -1.4564 -0.3629  0.7589
 3381TIP3    H231703   0.394   0.087   1.765 -1.9821 -0.2274 -0.2512
 3382TIP3   OH231704   6.225   6.468   1.162 -0.1521 -0.4383  0.4363
 3382TIP3    H131705   6.132   6.477   1.144  0.1871 -0.9327 -1.7404
 3382TIP3    H231706   6.240   6.374   1.171  0.5969 -0.6217 -2.1859
 3383TIP3   OH231707   6.235   1.003   7.049  0.1598  0.5080 -0.3788
 3383TIP3    H131708   6.192   1.073   7.000  3.3127  3.2947  0.6136
 3383TIP3    H231709   6.195   1.005   7.136  0.7410  1.6096 -0.1307
 3384TIP3   OH231710   4.841   6.235   0.254 -0.4468  0.1960 -0.0663
 3384TIP3    H131711   4.769   6.178   0.279 -0.2356  1.1417  2.9238
 3384TIP3    H231712   4.817   6.321   0.290  0.9974  1.1010 -1.2004
 3385TIP3   OH231713   3.272   2.244   7.684 -0.4537  0.2166 -0.1037
 3385TIP3    H131714   3.263   2.339   7.679  2.7455  0.6317  0.5137
 3385TIP3    H231715   3.268   2.224   7.778  1.2452  0.0794 -0.0370
 3386TIP3   OH231716   3.870   1.202   7.993  0.5946 -0.8436  0.0730
 3386TIP3    H131717   3.931   1.149   8.044 -0.0645 -2.2968 -0.6219
 3386TIP3    H231718   3.925   1.265   7.947  1.7283 -2.8824 -1.4568
 3387TIP3   OH231719   1.905   1.734   1.557  0.4352  0.1307  0.2863
 3387TIP3    H131720   1.826   1.754   1.506 -0.9556 -2.6064  1.2697
 3387TIP3    H231721   1.946   1.661   1.511  1.5508  0.5015  0.6797
 3388TIP3   OH231722   2.216   2.141   1.127  0.1157  0.6178 -0.1680
 3388TIP3    H131723   2.160   2.063   1.122  0.9850  0.0826 -1.8760
 3388TIP3    H231724   2.302   2.106   1.151  0.2611  1.1866  0.1431
 3389TIP3   OH231725   0.808   3.602   0.366 -0.8165  0.3963 -0.1206
 3389TIP3    H131726   0.755   3.526   0.341 -1.6835  1.9648 -3.2815
 3389TIP3    H231727   0.897   3.566   0.377 -1.5550 -1.3723  0.3086
 3390TIP3   OH231728   1.415   3.852   7.087  0.3148  0.5280  0.2902
 3390TIP3    H131729   1.401   3.820   7.176  0.2984 -0.6126 -0.1222
 3390TIP3    H231730   1.501   3.894   7.090 -0.2186  1.5772  1.1436
 3391TIP3   OH231731   0.259   6.131   7.773 -0.6852  0.4090 -0.0184
 3391TIP3    H131732   0.168   6.112   7.751 -0.1322 -1.7040 -0.5421
 3391TIP3    H231733   0.310   6.085   7.706  0.8493 -0.8343  1.9550
 3392TIP3   OH231734   0.634   1.422   1.034  0.0305 -0.2004  0.3496
 3392TIP3    H131735   0.582   1.362   1.087 -0.5401  1.6662  1.9540
 3392TIP3    H231736   0.628   1.506   1.079  1.1400  0.9926 -1.6332
 3393TIP3   OH231737   3.984   4.957   6.455 -0.2258  0.5202  0.5890
 3393TIP3    H131738   4.059   5.001   6.495 -0.2113  1.7944 -0.7965
 3393TIP3    H231739   3.910   4.979   6.512 -0.1694  2.1697  0.0536
 3394TIP3   OH231740   5.808   6.986   7.600  0.3295  0.0902 -0.0309
 3394TIP3    H131741   5.888   6.971   7.550  0.3489 -0.1781  0.0769
 3394TIP3    H231742   5.814   7.077   7.629 -0.0511  0.4953 -1.1684
 3395TIP3   OH231743   4.397   5.154   0.019 -0.1297 -0.7066  0.0316
 3395TIP3    H131744   4.380   5.059   0.023 -0.7714 -0.5438  1.4029
 3395TIP3    H231745   4.349   5.183  -0.059 -2.5298 -1.0027  1.3486
 3396TIP3   OH231746   1.130   1.745   7.335  0.8452  0.2323  0.2261
 3396TIP3    H131747   1.158   1.826   7.376 -0.7954 -0.2753  2.4887
 3396TIP3    H231748   1.171   1.676   7.387  1.7979 -0.4119 -1.3423
 3397TIP3   OH231749   4.234   1.402   7.651  0.2251 -0.2943  0.2305
 3397TIP3    H131750   4.289   1.389   7.574 -0.3056  1.4520 -0.4658
 3397TIP3    H231751   4.182   1.480   7.631  0.8412  0.8456  2.7534
 3398TIP3   OH231752   1.857   5.959   7.436  0.1706  0.2655 -0.6036
 3398TIP3    H131753   1.832   5.889   7.376  0.9694  1.1252 -1.9526
 3398TIP3    H231754   1.939   5.930   7.474  1.9693  1.6737 -3.2525
 3399TIP3   OH231755   1.945   5.332   7.818  0.4358  0.2574  0.3581
 3399TIP3    H131756   1.859   5.344   7.858  0.2434 -1.0210  0.3601
 3399TIP3    H231757   1.930   5.264   7.752  1.2240  0.7691 -0.3432
 3400TIP3   OH231758   6.350   4.603   5.953  0.3123 -0.1929 -0.2068
 3400TIP3    H131759   6.433   4.555   5.945  1.1597  1.1505  0.4775
 3400TIP3    H231760   6.372   4.693   5.928 -0.9078  0.2034  0.1405
 3401TIP3   OH231761   2.562   6.042   1.240  0.2954  0.7032 -0.0959
 3401TIP3    H131762   2.498   6.071   1.175 -0.3033  0.8112  0.5257
 3401TIP3    H231763   2.509   6.015   1.315  0.9373 -0.1739  0.0565
 3402TIP3   OH231764   1.233   6.828   7.726  0.2641  0.2149 -0.4911
 3402TIP3    H131765   1.193   6.810   7.640 -1.0270  1.3394 -0.1576
 3402TIP3    H231766   1.257   6.921   7.722  2.1057 -0.2370 -0.3643
 3403TIP3   OH231767   6.111   1.934   8.019 -0.2761  0.7451  0.7334
 3403TIP3    H131768   6.043   1.926   7.952  1.2964  2.7627 -1.1815
 3403TIP3    H231769   6.085   2.008   8.072 -0.6860  0.1510  1.3692
 3404TIP3   OH231770   0.981   4.644   6.722  0.0951 -0.1816 -0.3074
 3404TIP3    H131771   0.938   4.695   6.653 -1.2727 -1.7422 -0.6374
 3404TIP3    H231772   1.070   4.631   6.689  0.0864  0.8913 -0.7945
 3405TIP3   OH231773   0.974   4.762   7.498  0.1898  0.1598  0.8780
 3405TIP3    H131774   1.005   4.832   7.441  0.4814  0.5857  1.5601
 3405TIP3    H231775   0.880   4.754   7.479  0.7893 -1.5485 -1.6531
 3406TIP3   OH231776   7.030   4.789   7.716 -0.2260  0.5540 -0.7932
 3406TIP3    H131777   7.000   4.874   7.748 -0.9157  1.0414 -2.6509
 3406TIP3    H231778   6.999   4.726   7.781  0.7435  1.7380  0.8810
 3407TIP3   OH231779   0.052   1.325   7.258 -0.4566 -0.4336  0.0440
 3407TIP3    H131780  -0.043   1.334   7.252 -0.3615  0.0832 -0.7657
 3407TIP3    H231781   0.074   1.355   7.346 -0.7628  1.9134 -0.6568
 3408TIP3   OH231782   2.603   5.281   1.341  0.4881 -0.4442  0.1553
 3408TIP3    H131783   2.655   5.267   1.420  1.3223 -2.0122 -0.6446
 3408TIP3    H231784   2.635   5.364   1.306  1.5341 -0.7378  0.3873
 3409TIP3   OH231785   6.619   0.943   0.302 -0.5118  0.0895  0.8308
 3409TIP3    H131786   6.704   0.937   0.346 -0.5042 -0.9430  0.6796
 3409TIP3    H231787   6.605   0.856   0.265 -0.5726  0.9085 -1.1170
 3410TIP3   OH231788   1.110   5.666   7.056  0.7543  0.1379 -0.3622
 3410TIP3    H131789   1.176   5.734   7.042  1.1098 -0.6438 -2.8062
 3410TIP3    H231790   1.155   5.584   7.037  0.1426 -0.7667  1.8960
 3411TIP3   OH231791   6.543   2.910   0.504 -0.3078  0.6787  0.0023
 3411TIP3    H131792   6.461   2.941   0.542 -1.4160 -0.3536 -1.4797
 3411TIP3    H231793   6.539   2.937   0.412 -0.6969 -2.5535 -1.0109
 3412TIP3   OH231794   3.133   2.856   8.080  0.7469 -0.5098  0.5202
 3412TIP3    H131795   3.067   2.803   8.035  0.3076  0.5528 -0.0941
 3412TIP3    H231796   3.087   2.891   8.156  0.2741  1.1281 -0.5052
 3413TIP3   OH231797   2.613   6.309   5.902 -0.4668  0.6381 -0.6544
 3413TIP3    H131798   2.698   6.316   5.857  0.5038  1.8336  1.2785
 3413TIP3    H231799   2.567   6.390   5.879 -1.2698 -0.1892 -2.0213
 3414TIP3   OH231800   0.974   2.448   8.096 -0.4553 -0.1438 -0.2159
 3414TIP3    H131801   0.973   2.360   8.133  1.4774  0.4283  1.2945
 3414TIP3    H231802   1.049   2.491   8.138 -1.4952  2.2941 -0.7528
 3415TIP3   OH231803   3.435   3.704   1.508  0.7844 -0.0989 -0.1808
 3415TIP3    H131804   3.415   3.741   1.594 -1.1253 -0.4609 -0.4287
 3415TIP3    H231805   3.529   3.686   1.510  1.2948  2.5294  0.7891
 3416TIP3   OH231806   3.545   0.312   1.266  1.0087  0.3743 -0.1144
 3416TIP3    H131807   3.474   0.366   1.301  0.3497  0.2742 -1.2825
 3416TIP3    H231808   3.585   0.271   1.343 -0.1589  0.4876  0.5504
 3417TIP3   OH231809   4.755   3.793   0.825 -0.4280 -0.0941  0.2751
 3417TIP3    H131810   4.781   3.741   0.900 -1.6442 -1.3500 -0.1604
 3417TIP3    H231811   4.659   3.793   0.827 -0.4686  0.3204 -0.9505
 3418TIP3   OH231812   1.297   0.255   6.059 -0.0905 -0.1955 -0.2120
 3418TIP3    H131813   1.307   0.197   5.984  0.5375 -0.9115  0.4157
 3418TIP3    H231814   1.218   0.306   6.040 -1.0172 -1.6807 -0.5023
 3419TIP3   OH231815   2.491   0.180   7.191  0.2061 -0.0359  0.2794
 3419TIP3    H131816   2.567   0.236   7.204  0.1896 -0.3737  1.9167
 3419TIP3    H231817   2.517   0.121   7.120  1.2763  0.1654  0.4936
 3420TIP3   OH231818   3.298   5.148   1.336  0.0801 -0.2734 -0.1658
 3420TIP3    H131819   3.308   5.152   1.431 -1.5886  2.5080 -0.0587
 3420TIP3    H231820   3.357   5.078   1.309  1.4078 -0.3733  2.7991
 3421TIP3   OH231821   0.918   0.285   0.592  0.6040 -0.1050 -0.2082
 3421TIP3    H131822   0.971   0.252   0.665 -0.4359  0.3012  0.7390
 3421TIP3    H231823   0.842   0.325   0.633  0.7505  1.5157 -1.4471
 3422TIP3   OH231824   6.556   4.330   0.986 -0.0684 -0.2338 -0.0976
 3422TIP3    H131825   6.604   4.250   0.961  1.1617  0.5247 -0.2039
 3422TIP3    H231826   6.572   4.339   1.080  0.9970  0.6578 -0.3474
 3423TIP3   OH231827   6.923   5.902   0.954 -0.0508  0.5569  0.0045
 3423TIP3    H131828   6.854   5.969   0.955 -0.8937 -0.2967 -0.0335
 3423TIP3    H231829   6.883   5.826   0.997  0.0033 -0.7578 -2.1879
 3424TIP3   OH231830   4.897   6.819   6.318  0.1496 -0.0768  0.0582
 3424TIP3    H131831   4.901   6.811   6.223  0.3311  0.7077 -0.0033
 3424TIP3    H231832   4.844   6.898   6.333  1.1104  0.4791  0.5808
 3425TIP3   OH231833   0.212   3.887   1.570 -0.5354 -1.1924  0.0281
 3425TIP3    H131834   0.227   3.973   1.611  1.5434 -2.0142  1.0485
 3425TIP3    H231835   0.130   3.856   1.609  0.8731 -1.5045  2.8680
 3426TIP3   OH231836   2.287   0.458   0.248 -0.2755  0.8409 -0.0336
 3426TIP3    H131837   2.372   0.469   0.206 -0.1476 -2.5823 -0.8372
 3426TIP3    H231838   2.224   0.469   0.177 -0.5085  2.8083  0.4517
 3427TIP3   OH231839   4.615   0.214   7.155 -0.1476  0.4356 -0.2042
 3427TIP3    H131840   4.587   0.304   7.137 -1.1154  0.2829  0.5324
 3427TIP3    H231841   4.671   0.221   7.232 -2.7231  0.0393  1.7750
 3428TIP3   OH231842   6.690   5.916   0.080  0.0875  0.2938  0.6876
 3428TIP3    H131843   6.668   5.887   0.168 -2.5665  1.3122  0.4011
 3428TIP3    H231844   6.607   5.944   0.042  1.5300  2.0563 -1.3236
 3429TIP3   OH231845   0.467   1.438   7.462  0.0899 -0.5213 -0.1830
 3429TIP3    H131846   0.426   1.372   7.405 -0.4939 -1.0109  0.8029
 3429TIP3    H231847   0.478   1.394   7.546  3.7903 -0.8345 -0.7256
 3430TIP3   OH231848   4.682   5.898   1.737 -0.0592 -0.3322 -0.2106
 3430TIP3    H131849   4.694   5.853   1.820  0.2469  1.1158  0.5378
 3430TIP3    H231850   4.603   5.951   1.749 -0.2855 -0.4766 -1.0042
 3431TIP3   OH231851   5.972   6.682   8.114  0.2007 -0.1088  0.4092
 3431TIP3    H131852   5.939   6.676   8.203 -0.5846 -0.7315  0.0828
 3431TIP3    H231853   6.031   6.608   8.105  1.7295  1.0190  1.0035
 3432TIP3   OH231854   1.574   0.178   5.892  0.1339  0.4038 -0.0425
 3432TIP3    H131855   1.491   0.151   5.851 -0.4282  2.8673 -0.5746
 3432TIP3    H231856   1.555   0.179   5.986 -0.2520  0.3407 -0.1170
 3433TIP3   OH231857   4.003   6.427   6.563 -0.0333 -0.2821 -0.8085
 3433TIP3    H131858   4.040   6.507   6.600 -2.3461  0.3634  0.1849
 3433TIP3    H231859   4.017   6.360   6.630 -0.0411 -0.2043 -0.7297
 3434TIP3   OH231860   6.183   4.620   0.211  0.3258  0.7616  0.3638
 3434TIP3    H131861   6.111   4.670   0.249 -0.2122 -0.2133  0.6564
 3434TIP3    H231862   6.216   4.567   0.283 -0.1075 -0.4299 -0.2945
 3435TIP3   OH231863   0.900   2.371   6.588  0.3578 -0.5182  0.3243
 3435TIP3    H131864   0.874   2.463   6.597  2.1195 -0.1989  2.4648
 3435TIP3    H231865   0.955   2.370   6.510 -0.0025  0.1672  0.0492
 3436TIP3   OH231866   0.549   4.511   0.156 -0.0261 -0.0262  0.3343
 3436TIP3    H131867   0.629   4.547   0.117 -0.2374  0.6699  0.5466
 3436TIP3    H231868   0.549   4.543   0.246  0.0156 -0.9319  0.6620
 3437TIP3   OH231869   6.309   4.109   1.182  0.4908  0.5836 -0.1773
 3437TIP3    H131870   6.232   4.109   1.240  0.7545  1.0841  0.1846
 3437TIP3    H231871   6.373   4.164   1.228  2.1579 -2.2027  0.9235
 3438TIP3   OH231872   2.502   0.899   2.211  0.3809  0.6468  0.6165
 3438TIP3    H131873   2.577   0.891   2.271  0.3166  3.0772  1.0391
 3438TIP3    H231874   2.490   0.810   2.177  3.3451  0.1672  0.6903
 3439TIP3   OH231875   5.963   4.315   7.452 -0.1735 -0.0826 -0.3439
 3439TIP3    H131876   5.938   4.326   7.360 -0.7236 -0.0219 -0.1904
 3439TIP3    H231877   5.962   4.404   7.487  0.0058 -0.1104 -0.2716
 3440TIP3   OH231878   1.142   2.758   8.023 -0.1480 -0.3896  0.3882
 3440TIP3    H131879   1.111   2.813   8.095 -0.8278 -1.2529  0.7618
 3440TIP3    H231880   1.188   2.685   8.065 -0.4367 -0.8346 -0.0545
 3441TIP3   OH231881   6.048   1.158   0.139 -0.0781  0.3451  0.4498
 3441TIP3    H131882   6.061   1.122   0.227  0.6348  0.2994  0.3283
 3441TIP3    H231883   6.124   1.127   0.090 -0.2621  0.7274 -0.0714
 3442TIP3   OH231884   0.771   4.148   6.078  0.3897 -0.0322 -0.5169
 3442TIP3    H131885   0.822   4.169   5.999 -0.5704 -0.2186 -1.2005
 3442TIP3    H231886   0.720   4.071   6.053 -0.6949  0.5211 -0.0669
 3443TIP3   OH231887   3.469   1.851   0.147 -0.0253 -0.1691  0.1520
 3443TIP3    H131888   3.500   1.760   0.155 -0.3732 -0.2077  1.0913
 3443TIP3    H231889   3.528   1.901   0.204 -1.0674 -0.0975  1.1741
 3444TIP3   OH231890   6.716   4.110   0.914  0.4184  0.3625  0.6066
 3444TIP3    H131891   6.741   4.061   0.835  1.5808  0.8436  0.6610
 3444TIP3    H231892   6.680   4.043   0.973 -1.3719  0.1621 -0.6933
 3445TIP3   OH231893   1.562   6.182   6.716 -0.5895  0.0111  0.3958
 3445TIP3    H131894   1.503   6.107   6.719 -2.4540  1.3851 -1.0419
 3445TIP3    H231895   1.595   6.182   6.626 -2.1425  2.0398 -0.2153
 3446TIP3   OH231896   2.063   5.625   6.436 -0.4413  0.2670  0.0047
 3446TIP3    H131897   2.103   5.700   6.392  0.3112 -0.8289 -1.1985
 3446TIP3    H231898   1.970   5.631   6.414 -0.2383  0.3327 -0.8340
 3447TIP3   OH231899   5.112   4.998   0.956 -0.4787 -0.0862 -0.7116
 3447TIP3    H131900   5.121   5.033   0.868  2.2509  0.8408 -0.0932
 3447TIP3    H231901   5.090   4.906   0.944 -1.7397  0.4029 -2.3268
 3448TIP3   OH231902   1.761   3.775   0.258 -0.4952  0.0464  0.2144
 3448TIP3    H131903   1.838   3.722   0.239 -0.9238 -0.2359 -0.7712
 3448TIP3    H231904   1.687   3.719   0.233 -0.9868  0.6728  0.2475
 3449TIP3   OH231905   3.702   2.181   0.433  0.2712  0.3296  0.1625
 3449TIP3    H131906   3.618   2.228   0.444  0.4907  0.6774  0.3839
 3449TIP3    H231907   3.757   2.216   0.503  0.8177  0.5891 -0.3923
 3450TIP3   OH231908   0.564   5.186   1.383  0.9233 -0.2646 -0.7595
 3450TIP3    H131909   0.626   5.217   1.316 -0.6632  2.5987 -0.9626
 3450TIP3    H231910   0.480   5.222   1.357 -0.3597 -1.8725  1.0129
 3451TIP3   OH231911   4.688   2.297   0.268 -0.0927  0.0923 -0.3903
 3451TIP3    H131912   4.682   2.392   0.255 -1.1113  0.2505  1.0867
 3451TIP3    H231913   4.605   2.274   0.309 -0.9745 -1.8771 -3.2094
 3452TIP3   OH231914   4.578   3.145   7.984 -0.1533 -0.5062  0.2029
 3452TIP3    H131915   4.543   3.194   7.910 -1.4621  0.2176  1.2806
 3452TIP3    H231916   4.535   3.059   7.979 -1.6181  0.1571  1.1432
 3453TIP3   OH231917   3.970   4.423   1.699  0.5498 -0.4241  0.1799
 3453TIP3    H131918   3.999   4.434   1.789  1.5311  2.7360 -0.4770
 3453TIP3    H231919   3.881   4.389   1.707 -0.0279  1.4795  2.3804
 3454TIP3   OH231920   4.960   1.203   1.097  0.1887  0.2774  0.1499
 3454TIP3    H131921   4.885   1.237   1.145  0.5317  0.1803  0.7632
 3454TIP3    H231922   4.966   1.111   1.124 -1.1437 -0.4815 -2.0171
 3455TIP3   OH231923   1.271   0.993   0.375 -0.0420 -0.0970  0.0781
 3455TIP3    H131924   1.197   1.044   0.342  0.3449  0.9888  0.8834
 3455TIP3    H231925   1.344   1.018   0.318 -0.1854 -0.8351 -0.4344
 3456TIP3   OH231926   4.198   1.882   0.766  0.1820  0.4616  0.0155
 3456TIP3    H131927   4.171   1.872   0.857  0.5946  1.4730  0.2540
 3456TIP3    H231928   4.239   1.968   0.762  1.3045 -0.0956 -0.8498
 3457TIP3   OH231929   3.124   1.243   8.109  0.0288 -0.0766  0.0590
 3457TIP3    H131930   3.126   1.149   8.123 -0.1576 -0.4145 -2.1508
 3457TIP3    H231931   3.034   1.269   8.127 -0.1597 -0.4751 -0.3226
 3458TIP3   OH231932   3.968   6.294   1.223  0.0131  0.0263 -0.4209
 3458TIP3    H131933   3.971   6.302   1.319 -0.5432 -0.7103 -0.3387
 3458TIP3    H231934   4.027   6.363   1.192 -2.9807  3.0569  0.2890
 3459TIP3   OH231935   6.967   3.567   0.187 -0.2662  0.1787  0.0886
 3459TIP3    H131936   6.968   3.652   0.142 -1.5799 -0.1819 -0.6445
 3459TIP3    H231937   7.059   3.549   0.206  0.4046 -0.0050 -3.0772
 3460TIP3   OH231938   3.641   5.299   1.475  0.2215  0.4058  0.1427
 3460TIP3    H131939   3.636   5.224   1.534 -0.2096  0.0829 -0.2959
 3460TIP3    H231940   3.556   5.302   1.432  0.4949  0.6888 -0.3928
 3461TIP3   OH231941   0.152   5.803   8.115 -0.1286  0.4556  0.0070
 3461TIP3    H131942   0.214   5.821   8.186  0.9558 -2.1636 -0.2328
 3461TIP3    H231943   0.075   5.856   8.137  0.6258  0.5750  2.5221
 3462TIP3   OH231944   2.611   3.059   0.267  0.2716  0.1712  0.5063
 3462TIP3    H131945   2.653   3.006   0.334  0.7016  0.5828  0.5646
 3462TIP3    H231946   2.546   3.001   0.227  0.3069 -0.1999  0.9940
 3463TIP3   OH231947   4.669   6.810   0.224 -1.1172  0.3059 -0.0564
 3463TIP3    H131948   4.659   6.854   0.140 -0.4311 -0.0228 -0.3131
 3463TIP3    H231949   4.645   6.876   0.289  0.3225  1.2030 -0.4067
 3464TIP3   OH231950   1.839   1.488   2.077  0.3290  0.3987  0.2880
 3464TIP3    H131951   1.852   1.396   2.099 -0.8336  0.0851 -0.2755
 3464TIP3    H231952   1.863   1.536   2.156 -1.0805 -0.5321  1.3028
 3465TIP3   OH231953   3.147   5.107   0.226  0.3288 -0.0966 -0.4440
 3465TIP3    H131954   3.210   5.138   0.292 -0.1808 -0.1191  0.0500
 3465TIP3    H231955   3.063   5.107   0.271 -0.0958  0.3234 -1.2286
 3466TIP3   OH231956   7.096   3.444   8.005 -0.2299  0.3707  1.2108
 3466TIP3    H131957   7.175   3.497   8.016  1.1273 -1.2859 -0.2680
 3466TIP3    H231958   7.083   3.404   8.091  1.8005 -0.9825  0.9383
 3467TIP3   OH231959   0.905   1.926   7.568  0.6515 -0.4496  0.4619
 3467TIP3    H131960   0.822   1.973   7.573  1.8363  1.6495  1.1110
 3467TIP3    H231961   0.884   1.836   7.595 -1.5929 -0.2201 -0.4799
 3468TIP3   OH231962   4.098   5.560   2.111 -0.2471  0.9222 -0.3389
 3468TIP3    H131963   4.190   5.564   2.137  0.1964 -0.3811 -1.6040
 3468TIP3    H231964   4.091   5.478   2.061 -1.8892  1.4459 -1.0040
 3469TIP3   OH231965   2.924   1.049   5.864  0.2247  0.4021  0.4517
 3469TIP3    H131966   2.844   1.005   5.892  0.1848  0.4209  0.3646
 3469TIP3    H231967   2.992   1.011   5.920  0.6277 -1.6803 -1.4116
 3470TIP3   OH231968   3.123   3.262   1.301  0.4018  0.0529 -0.1877
 3470TIP3    H131969   3.142   3.341   1.352  1.7717  0.0975 -0.7453
 3470TIP3    H231970   3.206   3.215   1.298 -0.2255 -1.0577 -0.4828
 3471TIP3   OH231971   5.790   2.630   1.067  0.3524  0.0496  0.3200
 3471TIP3    H131972   5.750   2.565   1.125  0.8326 -2.6467 -2.2165
 3471TIP3    H231973   5.717   2.668   1.018  0.2189  0.2919  0.7086
 3472TIP3   OH231974   6.365   6.871   7.800  0.0741 -0.3310  0.3924
 3472TIP3    H131975   6.329   6.894   7.714  1.6499 -1.7463 -0.6892
 3472TIP3    H231976   6.336   6.941   7.858 -2.1339 -0.0440 -1.0011
 3473TIP3   OH231977   2.840   1.983   0.610 -0.5673  0.1395  0.5478
 3473TIP3    H131978   2.795   1.900   0.621  1.1244 -1.0349 -1.0783
 3473TIP3    H231979   2.920   1.974   0.662 -0.0994  0.5250 -0.1023
 3474TIP3   OH231980   1.840   0.972   0.760  0.2620  0.5600  0.0921
 3474TIP3    H131981   1.922   0.962   0.809  0.2548 -1.0644 -0.1915
 3474TIP3    H231982   1.860   1.035   0.692  0.7797  1.5040  1.1098
 3475TIP3   OH231983   6.213   4.940   8.012  0.2316 -0.2901  0.6185
 3475TIP3    H131984   6.193   5.007   7.947  1.2263  0.4574  1.0689
 3475TIP3    H231985   6.149   4.871   7.995 -1.2710  1.0625  0.5996
 3476TIP3   OH231986   6.748   4.096   5.993 -0.1509  0.5913  0.5454
 3476TIP3    H131987   6.822   4.086   5.934 -0.7347  1.1525 -0.2921
 3476TIP3    H231988   6.686   4.152   5.946 -0.6644  0.9802  1.6441
 3477TIP3   OH231989   4.526   1.769   6.352  0.2693 -0.2933 -0.0117
 3477TIP3    H131990   4.556   1.833   6.416 -0.3589  0.3959 -0.3983
 3477TIP3    H231991   4.605   1.736   6.311  0.5955  0.2095  0.2125
 3478TIP3   OH231992   4.094   5.598   6.699 -0.2063  0.3386 -0.2495
 3478TIP3    H131993   4.172   5.653   6.693  1.4608 -2.0291 -1.0725
 3478TIP3    H231994   4.061   5.593   6.609 -2.0626  2.3143  0.2761
 3479TIP3   OH231995   1.227   6.056   1.290 -0.1154  0.1248 -0.1698
 3479TIP3    H131996   1.179   6.134   1.262 -0.1581  0.1631  0.0131
 3479TIP3    H231997   1.166   5.984   1.274 -0.1296  0.1445 -0.2023
 3480TIP3   OH231998   2.139   3.351   1.440  0.0313 -0.0071 -1.1378
 3480TIP3    H131999   2.143   3.361   1.344 -0.5524  0.3355 -1.1316
 3480TIP3    H232000   2.220   3.391   1.471 -0.0078  0.3315 -1.4598
 3481TIP3   OH232001   6.140   0.542   1.041 -0.7908  0.3375 -0.2457
 3481TIP3    H132002   6.187   0.544   1.125 -0.9075 -0.5130 -0.1587
 3481TIP3    H232003   6.049   0.526   1.065 -0.9536  0.9111 -0.4847
 3482TIP3   OH232004   1.187   3.817   0.703  0.4639  0.1619  0.2729
 3482TIP3    H132005   1.159   3.832   0.794 -0.1682  0.0479  0.0966
 3482TIP3    H232006   1.115   3.851   0.650  0.6631 -0.1270 -0.1841
 3483TIP3   OH232007   6.017   6.691   1.131  0.5135 -0.0202  0.3965
 3483TIP3    H132008   5.985   6.762   1.187  0.5935  0.8388 -0.6241
 3483TIP3    H232009   6.112   6.700   1.133  0.4529  1.6939 -1.9584
 3484TIP3   OH232010   5.196   3.678   8.016 -0.4570  0.0151  0.1238
 3484TIP3    H132011   5.137   3.664   7.942 -2.9731  0.8395  1.9217
 3484TIP3    H232012   5.225   3.768   8.007  1.2444 -0.6365 -1.2232
 3485TIP3   OH232013   3.685   5.095   6.534 -0.6767 -0.5791 -0.3973
 3485TIP3    H132014   3.738   5.092   6.455 -0.3850 -0.5944 -0.2021
 3485TIP3    H232015   3.640   5.179   6.530 -1.3970 -0.9878 -1.0508
 3486TIP3   OH232016   6.746   5.132   0.566  0.3465  0.5767 -0.4609
 3486TIP3    H132017   6.705   5.048   0.586  1.8791 -0.2961 -0.9093
 3486TIP3    H232018   6.683   5.198   0.598  1.0543 -0.7011  3.8737
 3487TIP3   OH232019   2.585   3.633   6.097 -0.1682 -0.5422 -0.6256
 3487TIP3    H132020   2.607   3.717   6.056  0.7477 -0.4105  0.1215
 3487TIP3    H232021   2.640   3.629   6.175 -1.4879 -1.0459  0.3092
 3488TIP3   OH232022   4.400   3.657   6.808  0.1990 -0.3075  0.0284
 3488TIP3    H132023   4.341   3.726   6.837 -1.3685 -1.6399  0.1334
 3488TIP3    H232024   4.341   3.588   6.775  1.7935 -0.4784 -2.5859
 3489TIP3   OH232025   5.781   5.760   7.008 -0.4980  0.8315 -0.3165
 3489TIP3    H132026   5.861   5.707   7.000 -1.0236  0.0927 -0.7378
 3489TIP3    H232027   5.759   5.785   6.919 -1.2660  0.2357 -0.2980
 3490TIP3   OH232028   1.760   1.577   2.358  0.2147  0.4569 -0.6499
 3490TIP3    H132029   1.773   1.559   2.451  0.8359  0.0700 -0.8133
 3490TIP3    H232030   1.833   1.634   2.333  0.8843 -0.6588 -1.2531
 3491TIP3   OH232031   2.019   0.310   7.219 -0.1083  0.3168 -0.1062
 3491TIP3    H132032   2.066   0.393   7.229 -2.5564  1.8693 -0.9029
 3491TIP3    H232033   2.033   0.285   7.128 -0.6447  0.7011 -0.3012
 3492TIP3   OH232034   3.319   2.837   6.269 -0.3857  0.2286 -0.1967
 3492TIP3    H132035   3.239   2.889   6.279 -0.6212 -0.5825  2.2615
 3492TIP3    H232036   3.389   2.895   6.299 -0.0466  0.8139 -2.0256
 3493TIP3   OH232037   2.950   4.345   7.305  0.1678 -0.1731  0.6408
 3493TIP3    H132038   2.949   4.413   7.373 -0.0337 -0.9805  1.4662
 3493TIP3    H232039   3.015   4.281   7.336 -0.8523 -1.1848  0.7294
 3494TIP3   OH232040   3.897   4.575   0.873  0.2730 -0.3242 -0.2812
 3494TIP3    H132041   3.908   4.614   0.786 -0.3507  0.1614 -0.1449
 3494TIP3    H232042   3.811   4.533   0.868 -0.7208  1.5369  0.8023
 3495TIP3   OH232043   3.736   2.882   0.502  0.0688  0.0920 -0.5347
 3495TIP3    H132044   3.695   2.914   0.583 -0.8058 -0.3011 -0.8159
 3495TIP3    H232045   3.667   2.888   0.436  0.1507 -1.5602 -0.7925
 3496TIP3   OH232046   6.293   5.895   6.243  0.5148 -0.5689  0.4542
 3496TIP3    H132047   6.213   5.937   6.211  1.4087  0.7892 -0.0476
 3496TIP3    H232048   6.267   5.856   6.326 -0.8607 -0.7831 -0.0478
 3497TIP3   OH232049   4.981   2.896   6.660  0.0547 -0.0059 -0.0451
 3497TIP3    H132050   5.069   2.860   6.675  0.3672  1.1394  0.9837
 3497TIP3    H232051   4.995   2.969   6.600 -0.4046 -0.7919 -1.1089
 3498TIP3   OH232052   6.606   2.322   1.931 -0.3819  0.2158  0.4701
 3498TIP3    H132053   6.618   2.228   1.942 -2.1517 -0.2276 -1.0714
 3498TIP3    H232054   6.514   2.338   1.956 -0.3001  1.4195  0.0618
 3499TIP3   OH232055   5.088   4.009   6.835 -0.5357  0.3262  0.3901
 3499TIP3    H132056   5.024   3.938   6.839 -2.6685  1.9827 -2.3676
 3499TIP3    H232057   5.060   4.070   6.904 -0.7750  0.1408  0.4604
 3500TIP3   OH232058   2.886   5.453   0.494  0.1661 -0.1610 -0.0781
 3500TIP3    H132059   2.981   5.444   0.505  0.0264 -0.4808  0.9184
 3500TIP3    H232060   2.849   5.371   0.527 -0.5057  0.2835  0.3012
 3501TIP3   OH232061   4.016   5.050   7.900 -0.0560 -0.2001  0.2341
 3501TIP3    H132062   4.069   5.007   7.967 -0.1551 -0.3213  0.2359
 3501TIP3    H232063   3.945   4.987   7.882  0.1662 -0.3221 -0.2316
 3502TIP3   OH232064   1.704   3.393   7.279  0.1619 -0.3412 -0.2037
 3502TIP3    H132065   1.724   3.447   7.202 -0.3926 -1.3581 -1.0841
 3502TIP3    H232066   1.630   3.339   7.251  0.4286 -1.2423  0.8093
 3503TIP3   OH232067   6.089   5.304   0.374  0.4236  0.3408  0.3114
 3503TIP3    H132068   6.116   5.231   0.317 -1.4297  0.6917 -1.0573
 3503TIP3    H232069   6.153   5.373   0.356 -2.2919  1.8332 -4.2644
 3504TIP3   OH232070   4.416   4.845   0.424 -0.1001 -0.2033 -0.1833
 3504TIP3    H132071   4.488   4.902   0.452  0.6231 -0.6944 -0.9889
 3504TIP3    H232072   4.339   4.902   0.422 -0.1501 -0.1203  2.5814
 3505TIP3   OH232073   5.331   5.348   0.258 -0.3327  0.1513 -0.4166
 3505TIP3    H132074   5.308   5.300   0.178 -1.1204 -0.5608  0.2219
 3505TIP3    H232075   5.313   5.439   0.237 -2.3424 -0.2272 -0.4523
 3506TIP3   OH232076   6.507   6.157   7.408 -0.3019 -0.1750 -0.6070
 3506TIP3    H132077   6.561   6.144   7.485 -0.8086  1.0206 -0.0314
 3506TIP3    H232078   6.421   6.122   7.432 -0.2221 -0.6157 -0.9516
 3507TIP3   OH232079   2.547   3.281   6.930 -0.1931 -0.6018  0.4109
 3507TIP3    H132080   2.495   3.344   6.981  0.1052  1.2754 -1.5362
 3507TIP3    H232081   2.483   3.240   6.871  0.0905 -0.0687 -0.2741
 3508TIP3   OH232082   0.816   1.784   6.632 -0.1043  0.1435  0.3174
 3508TIP3    H132083   0.827   1.862   6.577 -0.4019  0.2894  0.4607
 3508TIP3    H232084   0.905   1.756   6.652  0.0062  0.8777  0.8671
 3509TIP3   OH232085   2.412   1.529   1.007  0.3848  0.3108 -0.3880
 3509TIP3    H132086   2.465   1.467   1.056 -0.0219  0.5613  0.3785
 3509TIP3    H232087   2.446   1.525   0.918  1.9555  0.7900  0.1866
 3510TIP3   OH232088   2.523   4.559   5.938  0.1259  0.3197 -0.6356
 3510TIP3    H132089   2.578   4.592   6.009 -1.0850 -0.2738  0.5994
 3510TIP3    H232090   2.582   4.504   5.886  0.8168  0.0655  0.3945
 3511TIP3   OH232091   4.793   6.524   0.736  0.7763  0.0055 -0.0740
 3511TIP3    H132092   4.818   6.576   0.813  1.3276  0.8220 -0.7941
 3511TIP3    H232093   4.821   6.435   0.758 -2.0959 -0.4391  2.0481
 3512TIP3   OH232094   2.907   4.078   0.178 -0.1597 -0.1807  0.1224
 3512TIP3    H132095   3.001   4.085   0.194 -0.9364 -0.3548  5.8953
 3512TIP3    H232096   2.879   4.168   0.161  0.8028  0.0815 -0.1138
 3513TIP3   OH232097   6.417   5.058   1.311 -0.0002  0.2679 -0.4113
 3513TIP3    H132098   6.438   4.964   1.307 -0.9656  0.0244 -0.0509
 3513TIP3    H232099   6.350   5.064   1.380 -1.1052  1.0011 -1.5372
 3514TIP3   OH232100   5.241   5.595   0.157  0.2758 -0.5864 -0.3739
 3514TIP3    H132101   5.175   5.542   0.112  0.0316 -1.1798  0.6485
 3514TIP3    H232102   5.199   5.621   0.239  1.3653 -1.1172  0.3713
 3515TIP3   OH232103   3.092   5.494   5.714 -0.5232  0.4349  0.1914
 3515TIP3    H132104   3.173   5.544   5.727  1.1000 -2.0796  0.0503
 3515TIP3    H232105   3.045   5.504   5.797  1.4144 -0.6533  1.4696
 3516TIP3   OH232106   5.724   3.131   0.512 -0.0256  0.2316 -0.0410
 3516TIP3    H132107   5.752   3.186   0.586 -0.0804 -2.9165  2.4539
 3516TIP3    H232108   5.630   3.145   0.507  0.2455  1.9384 -0.8304
 3517TIP3   OH232109   2.648   5.747   1.336 -0.5603  0.4081 -0.0267
 3517TIP3    H132110   2.683   5.835   1.350 -1.7581  0.6332  1.8645
 3517TIP3    H232111   2.606   5.725   1.419  0.7627 -2.4652 -0.0532
 3518TIP3   OH232112   5.409   1.722   1.427 -0.2097  0.0016  0.5103
 3518TIP3    H132113   5.342   1.775   1.385  0.3560 -0.6145 -1.1939
 3518TIP3    H232114   5.388   1.726   1.520 -1.3871  1.4999  0.1885
 3519TIP3   OH232115   1.285   3.905   7.807  0.3198  0.3672 -0.3842
 3519TIP3    H132116   1.290   3.867   7.719 -1.0456 -0.2332 -0.2132
 3519TIP3    H232117   1.228   3.981   7.796 -1.8716 -1.0887  0.4128
 3520TIP3   OH232118   3.614   4.393   6.206 -0.2880  0.1376 -0.0140
 3520TIP3    H132119   3.635   4.484   6.226  1.8740 -0.1648 -0.7247
 3520TIP3    H232120   3.699   4.348   6.210 -1.2723 -1.7746 -0.0293
 3521TIP3   OH232121   5.060   4.272   0.196  0.5058 -0.7400  0.1496
 3521TIP3    H132122   5.029   4.189   0.158  1.7864 -1.7299  1.1883
 3521TIP3    H232123   5.108   4.245   0.274 -1.2538  1.1793  1.9586
 3522TIP3   OH232124   4.218   4.475   6.852 -0.0038 -0.1917  0.3299
 3522TIP3    H132125   4.306   4.462   6.889  0.0050 -2.0749 -0.2996
 3522TIP3    H232126   4.233   4.525   6.771  0.6128 -1.5125 -0.3836
 3523TIP3   OH232127   1.912   2.767   7.174 -0.3626  0.2161  0.0672
 3523TIP3    H132128   1.851   2.692   7.168  0.2219 -0.1875 -1.0055
 3523TIP3    H232129   1.856   2.840   7.200 -1.1196 -0.3843  0.1783
 3524TIP3   OH232130   1.645   4.397   6.592 -0.3223  0.5061 -0.4234
 3524TIP3    H132131   1.610   4.392   6.681 -0.0942 -1.7938 -0.4363
 3524TIP3    H232132   1.572   4.369   6.536  0.0560  0.2961 -0.8207
 3525TIP3   OH232133   2.195   5.326   7.927  0.2102  0.0952 -0.1068
 3525TIP3    H132134   2.112   5.349   7.886  0.1857 -1.2048 -0.8241
 3525TIP3    H232135   2.253   5.305   7.853  1.1098  0.7812  0.3970
 3526TIP3   OH232136   4.221   0.090   7.816 -0.1419  0.0317  0.3728
 3526TIP3    H132137   4.196   0.173   7.774  0.6750 -0.7200 -1.6427
 3526TIP3    H232138   4.185   0.022   7.758 -2.1752 -1.0704  2.8136
 3527TIP3   OH232139   5.409   4.719   0.440 -0.3702 -0.2922 -0.5271
 3527TIP3    H132140   5.314   4.722   0.445 -0.3296 -0.0142  0.0604
 3527TIP3    H232141   5.436   4.661   0.511 -0.0985 -0.3574 -0.6787
 3528TIP3   OH232142   6.120   6.021   8.029 -0.2355  0.3414 -0.3012
 3528TIP3    H132143   6.041   6.009   7.977 -0.6852  1.9569 -0.0181
 3528TIP3    H232144   6.178   6.073   7.973  0.7046 -0.9553 -0.5655
 3529TIP3   OH232145   4.251   0.728   1.357  0.5058 -0.2939  0.0399
 3529TIP3    H132146   4.163   0.694   1.377  0.5125 -0.1112  0.3762
 3529TIP3    H232147   4.241   0.823   1.361  0.2596 -0.2166 -1.8264
 3530TIP3   OH232148   5.110   5.700   0.376 -0.6338 -0.7911 -0.0483
 3530TIP3    H132149   5.111   5.793   0.398  1.3762 -0.6117 -0.7073
 3530TIP3    H232150   5.077   5.656   0.454 -0.6668  0.4043  0.6194
 3531TIP3   OH232151   5.905   4.294   1.149 -0.4488  0.2001  0.1808
 3531TIP3    H132152   5.957   4.368   1.180  0.0855 -0.7340  1.5644
 3531TIP3    H232153   5.817   4.330   1.135 -0.8032  0.6052  3.1209
 3532TIP3   OH232154   5.711   4.889   6.512 -0.0331 -0.2068  0.3584
 3532TIP3    H132155   5.749   4.915   6.428 -0.9469 -1.3954 -0.4351
 3532TIP3    H232156   5.654   4.962   6.536 -0.3380 -0.1858 -0.4162
 3533TIP3   OH232157   4.539   2.725   1.190  0.7745 -0.5679  0.7668
 3533TIP3    H132158   4.549   2.774   1.109 -1.5433 -1.2474  0.0241
 3533TIP3    H232159   4.451   2.747   1.221  1.0369 -1.5304  2.2595
 3534TIP3   OH232160   4.336   6.943   0.760  0.2332 -0.2981  0.1582
 3534TIP3    H132161   4.375   6.896   0.833 -0.2982  2.2027  2.1544
 3534TIP3    H232162   4.253   6.977   0.794  0.1793  1.3070 -1.4320
 3535TIP3   OH232163   4.251   4.410   0.678 -0.1970 -0.4540 -0.1542
 3535TIP3    H132164   4.272   4.503   0.675  0.5894 -0.4929  2.3711
 3535TIP3    H232165   4.240   4.384   0.587 -1.5238  2.3354 -0.8372
 3536TIP3   OH232166   0.621   1.367   6.867  0.2911  0.1824 -0.3810
 3536TIP3    H132167   0.527   1.386   6.864  0.5362  1.3537 -1.4300
 3536TIP3    H232168   0.652   1.389   6.779  0.9899 -3.3886 -1.1029
 3537TIP3   OH232169   5.994   4.165   0.260  0.2169 -1.0253 -0.0356
 3537TIP3    H132170   6.083   4.137   0.238  0.4967  0.6685 -1.1231
 3537TIP3    H232171   6.002   4.205   0.347 -0.0098 -3.3192  1.0920
 3538TIP3   OH232172   5.211   4.178   0.381 -0.2541 -0.7608 -0.9395
 3538TIP3    H132173   5.197   4.093   0.423 -0.8004 -0.9076 -1.4046
 3538TIP3    H232174   5.293   4.168   0.333  0.6128 -0.4429  0.4569
 3539TIP3   OH232175   5.502   5.674   6.761  0.4802  0.0448  0.1653
 3539TIP3    H132176   5.563   5.742   6.733  1.2485 -0.3226  0.9075
 3539TIP3    H232177   5.509   5.673   6.857 -0.3777 -0.2886  0.2263
 3540TIP3   OH232178   1.715   1.248   0.664 -0.1926  0.3661  0.2190
 3540TIP3    H132179   1.679   1.187   0.600 -2.5503  2.2057 -0.2537
 3540TIP3    H232180   1.807   1.258   0.637 -0.4388 -0.9576 -1.2179
 3541TIP3   OH232181   6.979   6.099   6.904  0.5857 -0.1400 -0.7932
 3541TIP3    H132182   6.957   6.077   6.814 -1.5014 -0.3297 -0.2564
 3541TIP3    H232183   6.912   6.162   6.930  0.9384 -0.3937  0.7711
 3542TIP3   OH232184   0.561   2.462   1.137 -0.1606 -0.2375  0.4279
 3542TIP3    H132185   0.542   2.491   1.048 -0.9801 -1.1598  0.2948
 3542TIP3    H232186   0.633   2.400   1.127 -0.7076 -0.8567  0.3333
 3543TIP3   OH232187   6.383   5.843   1.187  0.7339  0.1166  0.2482
 3543TIP3    H132188   6.440   5.896   1.242  1.1319 -0.5245  0.4605
 3543TIP3    H232189   6.317   5.808   1.247 -0.2035  1.2635 -0.0795
 3544TIP3   OH232190   6.610   6.854   6.802 -0.3184  0.1321 -0.4881
 3544TIP3    H132191   6.703   6.835   6.793 -0.1534 -0.6638  2.3852
 3544TIP3    H232192   6.565   6.781   6.760  0.3406 -0.5136 -0.0631
 3545TIP3   OH232193   4.974   3.752   0.044 -0.1239  0.2331 -0.5222
 3545TIP3    H132194   4.943   3.674  -0.003  1.4722 -1.3690  0.9804
 3545TIP3    H232195   5.062   3.766   0.011  0.4493 -0.0099  0.8546
 3546TIP3   OH232196   1.907   4.672   7.315  0.8020  0.1715  0.3679
 3546TIP3    H132197   1.933   4.721   7.237  0.5453 -2.7785 -1.6551
 3546TIP3    H232198   1.812   4.661   7.305  1.1651 -2.6353 -0.4109
 3547TIP3   OH232199   5.252   4.421   5.780  0.0066  0.4135 -0.2044
 3547TIP3    H132200   5.249   4.480   5.856 -1.4966  1.7852 -1.3124
 3547TIP3    H232201   5.211   4.470   5.709  2.5079 -0.3758 -2.2798
 3548TIP3   OH232202   0.880   5.862   7.616  0.5376  0.4804 -0.4922
 3548TIP3    H132203   0.942   5.888   7.684  0.8684  0.1675 -0.6732
 3548TIP3    H232204   0.887   5.931   7.549 -0.2327  1.1175  0.0562
 3549TIP3   OH232205   5.661   0.108   6.297  0.2566 -0.2350  0.2687
 3549TIP3    H132206   5.669   0.134   6.205  1.3643 -0.3760  0.3253
 3549TIP3    H232207   5.583   0.052   6.299  1.2324 -1.6547 -0.9036
 3550TIP3   OH232208   6.102   4.557   6.015  0.1810  0.5326  0.4565
 3550TIP3    H132209   6.081   4.650   6.024  0.8897  0.7675 -0.2561
 3550TIP3    H232210   6.197   4.552   6.027  0.1381 -0.1097  0.5732
 3551TIP3   OH232211   0.112   2.001   8.096 -0.8222  0.1483 -0.3901
 3551TIP3    H132212   0.196   1.992   8.050 -1.2627  0.9714 -1.3881
 3551TIP3    H232213   0.117   2.088   8.136 -0.4228 -0.5887  1.1804
 3552TIP3   OH232214   4.850   4.891   6.631 -0.2948  0.0896  0.2863
 3552TIP3    H132215   4.785   4.841   6.679 -1.3659  1.2303  0.0272
 3552TIP3    H232216   4.852   4.850   6.544 -1.7080  0.9563 -0.1640
 3553TIP3   OH232217   3.804   2.769   6.639  0.5671  0.3212  0.1813
 3553TIP3    H132218   3.873   2.832   6.616  1.4737 -0.9468 -0.6586
 3553TIP3    H232219   3.752   2.762   6.559  1.2199 -0.9279 -0.1472
 3554TIP3   OH232220   6.447   5.413   1.344 -0.3380 -0.4153 -0.1192
 3554TIP3    H132221   6.517   5.349   1.331 -1.5483 -1.6843 -0.5082
 3554TIP3    H232222   6.368   5.369   1.312 -1.2623  1.1160  0.0068
 3555TIP3   OH232223   3.355   2.433   7.425 -0.5797 -0.2620 -0.1985
 3555TIP3    H132224   3.407   2.355   7.405  0.4980  1.0363 -2.5759
 3555TIP3    H232225   3.305   2.450   7.345  0.6743  2.6208 -0.4133
 3556TIP3   OH232226   0.280   6.420   0.361  0.0244  0.5155  0.6832
 3556TIP3    H132227   0.267   6.459   0.274 -1.1530  0.6258  0.9038
 3556TIP3    H232228   0.373   6.401   0.364  0.1249  0.7342 -0.5213
 3557TIP3   OH232229   4.844   1.787   7.003  0.5031  0.2779  0.1137
 3557TIP3    H132230   4.769   1.729   7.005 -0.0202  0.9076 -1.1267
 3557TIP3    H232231   4.815   1.864   6.954  1.3724  1.3303  1.1807
 3558TIP3   OH232232   0.339   3.736   0.231 -0.1488  0.3033 -0.3234
 3558TIP3    H132233   0.400   3.724   0.304  0.3993 -0.1404 -0.8465
 3558TIP3    H232234   0.371   3.677   0.163 -0.9230  0.3761 -0.7608
 3559TIP3   OH232235   5.365   1.395   7.187 -0.1174 -0.4305  0.3216
 3559TIP3    H132236   5.330   1.372   7.273 -1.4847 -1.5662 -0.5304
 3559TIP3    H232237   5.297   1.450   7.147  0.1149 -0.6707 -0.4029
 3560TIP3   OH232238   4.947   5.752   2.057  0.1702  0.3959  0.2456
 3560TIP3    H132239   4.861   5.752   2.017  0.7055  0.9525 -0.9139
 3560TIP3    H232240   4.931   5.728   2.149 -1.2632  1.0317  0.1668
 3561TIP3   OH232241   5.790   1.316   7.717 -0.1803 -0.0334  0.0980
 3561TIP3    H132242   5.750   1.250   7.773 -0.5314  0.7612  0.7856
 3561TIP3    H232243   5.718   1.372   7.691  0.4189  1.2330  1.1064
 3562TIP3   OH232244   3.336   6.958   1.042 -0.2961 -0.0437 -0.6689
 3562TIP3    H132245   3.260   7.007   1.073 -1.4594 -2.0393 -0.2292
 3562TIP3    H232246   3.338   6.975   0.947  1.1301  3.1937 -0.1246
 3563TIP3   OH232247   3.567   2.446   7.023 -0.0322  0.0482 -0.1525
 3563TIP3    H132248   3.605   2.475   7.106 -1.1717  0.0928  0.3607
 3563TIP3    H232249   3.639   2.405   6.977  1.0625  1.6544  0.0846
 3564TIP3   OH232250   1.040   5.365   6.124  0.1167 -0.0026 -0.1915
 3564TIP3    H132251   0.952   5.347   6.092  0.2537  0.2020 -0.6929
 3564TIP3    H232252   1.063   5.288   6.175 -0.1861 -0.2446 -0.4184
 3565TIP3   OH232253   3.648   6.486   6.073 -0.6609  0.4257  0.3137
 3565TIP3    H132254   3.666   6.469   6.166  0.4905 -0.4444 -0.0573
 3565TIP3    H232255   3.603   6.570   6.073  0.1599  0.8949  1.5898
 3566TIP3   OH232256   3.105   3.362   7.509 -0.3757  0.2917  1.0239
 3566TIP3    H132257   3.105   3.454   7.535 -1.2066  0.7761 -0.6440
 3566TIP3    H232258   3.113   3.363   7.414  2.1402 -1.4508  1.1602
 3567TIP3   OH232259   1.232   4.753   0.753 -0.0393  0.4579  0.0381
 3567TIP3    H132260   1.273   4.679   0.799  0.3350 -0.0583 -1.0931
 3567TIP3    H232261   1.141   4.752   0.782  0.7726  1.7419  2.7507
 3568TIP3   OH232262   6.324   7.077   7.570 -0.5719 -0.0089  0.6985
 3568TIP3    H132263   6.272   7.101   7.647  0.8047 -1.2879  2.0690
 3568TIP3    H232264   6.413   7.068   7.603  0.0456 -0.6047 -1.0605
 3569TIP3   OH232265   2.450   0.554   6.760  0.5654 -0.2663 -0.1711
 3569TIP3    H132266   2.494   0.551   6.675 -1.2410 -0.5875 -1.1362
 3569TIP3    H232267   2.398   0.634   6.757  1.5702  0.4395  1.2019
 3570TIP3   OH232268   5.570   1.621   0.496 -0.0892 -1.2592 -0.0999
 3570TIP3    H132269   5.571   1.614   0.400  2.6141  1.0204 -0.3060
 3570TIP3    H232270   5.658   1.594   0.523 -0.7112 -1.5155  1.7356
 3571TIP3   OH232271   2.237   2.978   6.962 -0.0577  0.3375  0.5942
 3571TIP3    H132272   2.259   3.035   6.888  0.3047 -0.0261  0.4144
 3571TIP3    H232273   2.144   2.992   6.976 -0.4429 -0.5921 -0.8313
 3572TIP3   OH232274   3.334   1.312   0.534 -0.4219  0.3590  0.0346
 3572TIP3    H132275   3.407   1.309   0.596 -0.0362 -0.3547 -0.4566
 3572TIP3    H232276   3.374   1.297   0.448 -0.9348  1.5015 -0.4183
 3573TIP3   OH232277   4.405   0.550   1.566 -0.5678 -0.4832 -0.4196
 3573TIP3    H132278   4.363   0.531   1.651  0.3144  0.5741  0.2593
 3573TIP3    H232279   4.339   0.600   1.518 -0.9581 -0.8225 -0.2467
 3574TIP3   OH232280   5.374   1.607   0.684  0.5263 -0.5553 -0.6584
 3574TIP3    H132281   5.394   1.674   0.750 -0.4039 -0.0287 -0.8971
 3574TIP3    H232282   5.437   1.622   0.614  2.8806 -2.4109  0.9699
 3575TIP3   OH232283   6.925   6.565   0.682  0.0374 -0.2512  0.0196
 3575TIP3    H132284   6.987   6.586   0.752 -0.1907 -0.6367  0.3400
 3575TIP3    H232285   6.863   6.637   0.681  1.0967  0.6824 -1.0123
 3576TIP3   OH232286   4.317   2.897   0.901 -0.2658 -0.3325 -0.7991
 3576TIP3    H132287   4.331   2.813   0.944  1.1487 -0.7067 -1.9657
 3576TIP3    H232288   4.223   2.897   0.880 -0.4947 -1.1437  0.1764
 3577TIP3   OH232289   6.189   0.894   1.368  0.1927  0.4195  0.1314
 3577TIP3    H132290   6.097   0.907   1.391  0.0669 -0.7731  0.3370
 3577TIP3    H232291   6.193   0.908   1.273  0.2816  3.0107  0.4773
 3578TIP3   OH232292   3.235   5.511   0.026 -0.1525  0.2680 -0.2448
 3578TIP3    H132293   3.286   5.499  -0.054 -0.9357  0.8241 -0.8421
 3578TIP3    H232294   3.297   5.495   0.097  0.9005  1.1598 -0.9505
 3579TIP3   OH232295   3.287   0.791   5.878  0.5758  0.0779  0.3197
 3579TIP3    H132296   3.276   0.885   5.863  0.9276  0.5126  2.5898
 3579TIP3    H232297   3.331   0.759   5.799 -1.7711  1.3414 -1.5536
 3580TIP3   OH232298   6.823   5.012   7.395 -0.1744  0.0700 -0.2259
 3580TIP3    H132299   6.885   4.954   7.351  0.5364  0.5557  0.1240
 3580TIP3    H232300   6.748   4.956   7.415  0.4300 -0.6872 -0.0494
 3581TIP3   OH232301   2.592   3.321   6.421 -0.5287  0.4233 -0.1061
 3581TIP3    H132302   2.645   3.309   6.341  0.7099 -0.6765  0.8455
 3581TIP3    H232303   2.568   3.414   6.420  0.9142  0.8106 -0.8891
 3582TIP3   OH232304   4.212   1.781   8.051 -0.1804 -0.0560 -0.6598
 3582TIP3    H132305   4.135   1.751   8.099  1.6887 -1.6492  1.5055
 3582TIP3    H232306   4.194   1.759   7.960 -2.4635  0.0232 -0.2457
 3583TIP3   OH232307   2.281   5.537   6.261  0.6918 -0.2353  0.8964
 3583TIP3    H132308   2.233   5.508   6.339  0.3840  0.6408  1.0306
 3583TIP3    H232309   2.219   5.521   6.189  0.9131 -0.8853  0.8448
 3584TIP3   OH232310   5.872   1.562   6.455  0.3641  0.4398  0.0498
 3584TIP3    H132311   5.818   1.491   6.419 -1.5487  0.9852  1.6930
 3584TIP3    H232312   5.808   1.624   6.490  2.0768  1.3466  1.6435
 3585TIP3   OH232313   2.808   4.393   1.280  0.0052 -0.0112 -0.1003
 3585TIP3    H132314   2.741   4.426   1.219  0.6515  0.5309 -0.5270
 3585TIP3    H232315   2.853   4.472   1.310 -1.1087 -0.1557  2.0461
 3586TIP3   OH232316   1.288   2.512   7.921  0.0308  0.2784  0.1218
 3586TIP3    H132317   1.247   2.485   7.839  1.1557  0.7432 -0.6084
 3586TIP3    H232318   1.311   2.604   7.907 -1.0276  0.7695  1.4789
 3587TIP3   OH232319   0.700   4.774   7.369 -0.1505  0.1584  0.9402
 3587TIP3    H132320   0.766   4.782   7.299 -0.2664  0.4597  0.8667
 3587TIP3    H232321   0.638   4.844   7.351 -2.1355 -1.9457 -0.7307
 3588TIP3   OH232322   2.874   4.004   6.701  0.0727  0.3693  0.3054
 3588TIP3    H132323   2.837   3.929   6.747  1.4711 -0.4092  0.1859
 3588TIP3    H232324   2.841   3.996   6.612  0.5020 -0.2985  0.2064
 3589TIP3   OH232325   6.748   6.361   7.841 -0.3286 -0.0761  0.6256
 3589TIP3    H132326   6.840   6.381   7.824 -0.3346 -0.5935 -0.0485
 3589TIP3    H232327   6.700   6.428   7.793 -0.3173 -0.6369 -0.1941
 3590TIP3   OH232328   3.584   5.733   0.202  0.0216  0.3460  0.4261
 3590TIP3    H132329   3.613   5.689   0.122  0.0488  0.2630  0.4813
 3590TIP3    H232330   3.650   5.710   0.267  0.3998  1.0224  0.2852
 3591TIP3   OH232331   3.151   6.765   7.104 -0.3032  0.0675 -0.1118
 3591TIP3    H132332   3.172   6.850   7.143 -0.9859  0.3487 -0.3459
 3591TIP3    H232333   3.226   6.745   7.048  0.2448  0.1147  0.6042
 3592TIP3   OH232334   2.977   1.864   7.401 -0.4534 -0.0995  0.2182
 3592TIP3    H132335   3.044   1.913   7.355 -0.9386 -0.6884 -1.1358
 3592TIP3    H232336   3.020   1.782   7.427 -0.3510 -0.0335  0.2534
 3593TIP3   OH232337   0.468   5.947   6.387 -0.2811  0.6614  0.9995
 3593TIP3    H132338   0.479   5.897   6.469  2.4053 -1.1289 -0.3719
 3593TIP3    H232339   0.525   6.022   6.397  0.0624  0.4317  0.7743
 3594TIP3   OH232340   6.065   5.157   7.182 -0.1708 -0.1471  0.9503
 3594TIP3    H132341   6.159   5.136   7.190  0.0623  0.3338 -0.3646
 3594TIP3    H232342   6.030   5.087   7.127 -0.2747  0.4941  0.1925
 3595TIP3   OH232343   1.883   6.131   6.266  0.5253  0.1059  0.4750
 3595TIP3    H132344   1.845   6.207   6.220 -2.9174 -0.3241  2.3995
 3595TIP3    H232345   1.975   6.130   6.239  0.1730  3.7462 -1.2020
 3596TIP3   OH232346   6.519   3.607   7.845  0.1806  0.0341  0.3072
 3596TIP3    H132347   6.608   3.584   7.818 -0.4665  0.8336 -2.7811
 3596TIP3    H232348   6.471   3.524   7.843  0.3179 -0.0333 -0.4105
 3597TIP3   OH232349   3.037   6.673   8.083  0.1641 -0.0485  0.1168
 3597TIP3    H132350   2.991   6.608   8.030 -0.1818  0.8852 -0.7513
 3597TIP3    H232351   2.968   6.715   8.135  0.1538  0.6976 -0.4837
 3598TIP3   OH232352   3.671   5.208   0.480 -0.7388 -0.3032 -0.0769
 3598TIP3    H132353   3.621   5.173   0.553 -1.7064  1.6419  0.2139
 3598TIP3    H232354   3.740   5.142   0.464 -1.4897 -1.4992  1.5098
 3599TIP3   OH232355   0.814   4.720   6.481  0.9808  0.2952  0.0139
 3599TIP3    H132356   0.803   4.793   6.421 -2.8028  0.8846  1.2667
 3599TIP3    H232357   0.736   4.723   6.537  0.8495 -4.4946  0.2969
 3600TIP3   OH232358   3.142   4.638   0.344 -0.0538 -0.2753  0.5513
 3600TIP3    H132359   3.187   4.556   0.368  1.1065  0.7717  2.0563
 3600TIP3    H232360   3.196   4.707   0.384 -1.7747  1.1419  0.4645
 3601TIP3   OH232361   1.925   5.640   1.422  0.9167  0.1043  0.7361
 3601TIP3    H132362   1.832   5.643   1.396  0.7793  0.6131  1.2702
 3601TIP3    H232363   1.935   5.715   1.480  2.2801  1.5401 -1.3093
 3602TIP3   OH232364   5.947   0.028   6.335  0.2912 -0.0254  0.3375
 3602TIP3    H132365   5.854   0.041   6.353 -0.0268 -0.8087 -0.7177
 3602TIP3    H232366   5.990   0.102   6.377 -0.6501 -0.5608  2.2881
 3603TIP3   OH232367   0.396   5.341   7.100  0.4123  0.2611 -1.1660
 3603TIP3    H132368   0.409   5.436   7.100  0.6989  0.2231 -0.4646
 3603TIP3    H232369   0.373   5.320   7.009  0.4347  0.9875 -1.3426
 3604TIP3   OH232370   0.918   4.992   6.794 -0.0783  0.1492 -0.5339
 3604TIP3    H132371   0.971   4.971   6.871  0.3614 -0.1028 -0.9066
 3604TIP3    H232372   0.835   4.947   6.809  0.1433 -0.2090 -0.3887
 3605TIP3   OH232373   3.411   5.515   6.808 -0.1354  0.6181  0.9181
 3605TIP3    H132374   3.338   5.557   6.854 -1.4579 -1.8536  1.1684
 3605TIP3    H232375   3.392   5.529   6.716 -0.4125  0.8102  1.0027
 3606TIP3   OH232376   2.832   6.040   6.410 -0.0342  0.3510 -0.5211
 3606TIP3    H132377   2.746   6.076   6.388  0.2883  0.7265 -1.1867
 3606TIP3    H232378   2.893   6.084   6.350  0.6997  0.5235  0.3271
 3607TIP3   OH232379   1.986   5.226   7.044  0.3542 -0.2952  0.4001
 3607TIP3    H132380   2.068   5.274   7.038  0.8064 -1.3080 -2.1739
 3607TIP3    H232381   1.922   5.281   6.998 -0.0469 -0.3066  0.9282
 3608TIP3   OH232382   1.900   6.165   2.048  0.0646  0.3324  0.3270
 3608TIP3    H132383   1.912   6.074   2.076  1.1357  0.2693 -0.3216
 3608TIP3    H232384   1.817   6.192   2.088 -0.1195 -0.8438  0.7439
 3609TIP3   OH232385   5.175   4.583   6.889 -0.2046  0.2353  0.1900
 3609TIP3    H132386   5.196   4.620   6.975  1.0511  1.1559 -0.5186
 3609TIP3    H232387   5.228   4.503   6.884 -0.4076  0.0888  0.3238
 3610TIP3   OH232388   6.616   0.090   7.192 -0.5207  0.3049 -0.5443
 3610TIP3    H132389   6.606   0.016   7.252  0.9742  1.0714  0.6766
 3610TIP3    H232390   6.701   0.075   7.150 -0.3185  1.1948 -0.4647
 3611TIP3   OH232391   1.870   3.654   7.740  0.3193 -0.0375  0.1471
 3611TIP3    H132392   1.841   3.684   7.826  0.8315 -0.4442  0.4631
 3611TIP3    H232393   1.827   3.570   7.728  0.4000 -0.0696  0.0838
 3612TIP3   OH232394   2.973   6.731   6.493 -0.8434 -0.6175  0.3128
 3612TIP3    H132395   2.934   6.713   6.408  0.3248 -2.1777  0.0865
 3612TIP3    H232396   2.907   6.703   6.556 -3.0385  3.4521 -0.0009
 3613TIP3   OH232397   3.009   5.174   7.709 -0.8010 -0.0552  0.8064
 3613TIP3    H132398   2.941   5.137   7.764 -0.7678 -0.1925  0.7568
 3613TIP3    H232399   3.025   5.261   7.745  0.3616 -0.7454  2.0275
 3614TIP3   OH232400   5.211   0.275   0.214  0.0801  0.3756  0.6291
 3614TIP3    H132401   5.198   0.233   0.129 -0.3927  3.9402 -1.2007
 3614TIP3    H232402   5.299   0.312   0.209  0.2659  0.1268  1.9217
 3615TIP3   OH232403   6.684   0.645   0.979  0.2204  1.0153 -0.4987
 3615TIP3    H132404   6.703   0.580   0.911 -0.0120  1.5624 -1.0905
 3615TIP3    H232405   6.590   0.661   0.972  0.1959  1.0737 -0.0467
 3616TIP3   OH232406   5.338   5.337   1.298 -0.0334 -0.6614  0.1847
 3616TIP3    H132407   5.247   5.364   1.293 -0.0258 -0.4314  1.2424
 3616TIP3    H232408   5.348   5.272   1.228 -1.1059 -0.9909  0.3365
 3617TIP3   OH232409   1.993   4.135   8.004  0.1678 -0.2094  0.2668
 3617TIP3    H132410   2.023   4.082   7.930 -0.6410  1.7121 -1.4840
 3617TIP3    H232411   1.897   4.128   8.001  0.0070  1.8995 -0.4601
 3618TIP3   OH232412   3.285   6.988   0.755  0.0515 -0.2857  0.1173
 3618TIP3    H132413   3.286   6.892   0.755 -0.8249 -0.3034  0.6699
 3618TIP3    H232414   3.366   7.013   0.711 -0.6702 -1.3006 -1.8885
 3619TIP3   OH232415   1.224   6.297   2.250  0.0998  0.5225  0.0674
 3619TIP3    H132416   1.204   6.206   2.269  0.7088  0.3029 -0.3464
 3619TIP3    H232417   1.226   6.340   2.335  0.6425 -0.0195  0.3309
 3620TIP3   OH232418   1.115   6.377   6.276 -0.6661 -0.2698  0.2796
 3620TIP3    H132419   1.165   6.349   6.199 -0.8282 -1.3650  0.5608
 3620TIP3    H232420   1.179   6.378   6.347 -1.0106 -1.5761  0.6190
 3621TIP3   OH232421   1.493   0.752   6.754 -0.0574 -0.4455  0.4337
 3621TIP3    H132422   1.514   0.773   6.663  0.8415 -1.0333  0.4935
 3621TIP3    H232423   1.399   0.771   6.763 -0.4314 -1.5445 -0.9579
 3622TIP3   OH232424   4.284   5.901   0.398 -0.1530  0.1402 -0.1291
 3622TIP3    H132425   4.246   5.816   0.378 -1.6477 -0.0116  3.0689
 3622TIP3    H232426   4.210   5.962   0.392  0.8366  1.1967 -2.0824
 3623TIP3   OH232427   6.768   6.558   7.118 -0.6763  0.2265  0.5321
 3623TIP3    H132428   6.730   6.642   7.090  0.8527  1.0849  0.9633
 3623TIP3    H232429   6.695   6.496   7.114 -1.3230  1.0925 -1.8591
 3624TIP3   OH232430   4.458   5.842   1.333  0.0134  0.1850 -0.4558
 3624TIP3    H132431   4.526   5.895   1.375 -1.7810  2.4109 -0.2433
 3624TIP3    H232432   4.501   5.807   1.255  2.2013 -0.7309  1.0971
 3625TIP3   OH232433   5.950   0.957   1.459  0.1213 -0.0474  0.1417
 3625TIP3    H132434   5.875   0.974   1.401  1.2810 -1.7334 -1.9420
 3625TIP3    H232435   5.913   0.909   1.533 -1.2469  1.3524  0.3945
 3626TIP3   OH232436   4.599   6.807   7.090  0.1173 -0.1081 -0.2140
 3626TIP3    H132437   4.613   6.893   7.128 -0.0619 -0.5251  0.7998
 3626TIP3    H232438   4.511   6.811   7.053  1.4624  1.3401 -3.4345
 3627TIP3   OH232439   4.736   4.262   6.448 -0.2865 -0.0262 -0.2637
 3627TIP3    H132440   4.745   4.230   6.358 -2.7925 -1.0715 -0.1841
 3627TIP3    H232441   4.749   4.184   6.502  1.2181  0.6034  0.3082
 3628TIP3   OH232442   2.376   4.793   7.927 -0.7912  0.3171  0.2807
 3628TIP3    H132443   2.293   4.762   7.890 -0.2223 -1.8506  0.7726
 3628TIP3    H232444   2.434   4.799   7.851 -0.5849 -0.9194  0.3340
 3629TIP3   OH232445   2.440   0.280   0.798  0.0747  0.2078  0.0459
 3629TIP3    H132446   2.468   0.202   0.750 -1.6185  0.0100 -0.6548
 3629TIP3    H232447   2.454   0.257   0.890 -0.1583 -0.8205 -0.1657
 3630TIP3   OH232448   1.602   2.761   7.595 -0.4171  0.0593  0.2156
 3630TIP3    H132449   1.679   2.709   7.572 -0.3411 -0.5808  1.8753
 3630TIP3    H232450   1.553   2.707   7.657 -0.4148  1.8741  1.8603
 3631TIP3   OH232451   3.276   4.301   0.845  0.0691 -0.5306  0.1927
 3631TIP3    H132452   3.326   4.289   0.926 -0.1365 -0.6892  0.2975
 3631TIP3    H232453   3.254   4.212   0.817 -1.1240 -0.4251  0.7622
 3632TIP3   OH232454   1.194   6.918   6.875 -0.0907 -0.2942  0.1574
 3632TIP3    H132455   1.215   6.914   6.782  0.6861 -0.4887  0.3376
 3632TIP3    H232456   1.098   6.922   6.878 -0.1168 -0.2227 -0.6489
 3633TIP3   OH232457   2.179   5.740   7.079 -0.6757 -0.4356 -0.6243
 3633TIP3    H132458   2.121   5.814   7.096 -0.1168 -0.3157  0.8189
 3633TIP3    H232459   2.262   5.780   7.052 -0.2218 -0.5170  0.6372
 3634TIP3   OH232460   2.338   0.114   1.593 -0.3091 -0.5771  0.5062
 3634TIP3    H132461   2.318   0.163   1.513 -2.2927  0.9702  1.8905
 3634TIP3    H232462   2.278   0.040   1.592  0.6255 -1.3360 -0.1074
 3635TIP3   OH232463   1.875   5.915   6.064 -0.1094  0.4459 -0.2705
 3635TIP3    H132464   1.851   5.974   6.136 -1.4017 -0.2466 -0.1130
 3635TIP3    H232465   1.794   5.905   6.015  1.5518  3.8038 -3.9702
 3636TIP3   OH232466   5.772   6.370   8.098  0.4383 -0.0750  0.2149
 3636TIP3    H132467   5.750   6.463   8.092 -1.5786 -0.5254  0.4875
 3636TIP3    H232468   5.736   6.332   8.018  0.0924 -0.8623  0.7480
 3637TIP3   OH232469   3.583   2.110   6.815  0.2348  0.0962  0.3097
 3637TIP3    H132470   3.637   2.077   6.743 -1.3672 -0.0653 -0.8424
 3637TIP3    H232471   3.564   2.201   6.792  0.6250  0.3773  1.0785
 3638TIP3   OH232472   5.223   6.691   2.007 -0.1177  0.1515  0.1083
 3638TIP3    H132473   5.189   6.613   1.962 -0.1045 -0.2793  0.8390
 3638TIP3    H232474   5.318   6.677   2.009 -0.2446 -0.5961  1.6674
 3639TIP3   OH232475   2.896   2.743   7.971  0.3323  0.0260 -0.1617
 3639TIP3    H132476   2.909   2.662   7.921 -0.2277 -0.3412  0.2778
 3639TIP3    H232477   2.883   2.713   8.061  0.8069  0.6500  0.1235
 3640TIP3   OH232478   4.924   0.479   6.088  0.2049 -0.1843  0.6280
 3640TIP3    H132479   4.858   0.410   6.098  0.3805 -0.6232 -1.0454
 3640TIP3    H232480   4.936   0.487   5.993  0.6311  1.7362  0.8324
 3641TIP3   OH232481   6.876   6.328   5.652  0.8937 -0.3767 -0.0089
 3641TIP3    H132482   6.876   6.422   5.636  0.8579 -0.0315  1.9345
 3641TIP3    H232483   6.784   6.305   5.664  1.1011 -0.1893  2.0805
 3642TIP3   OH232484   4.792   5.998   6.493 -0.6905  0.5278 -0.0444
 3642TIP3    H132485   4.749   6.072   6.451 -1.3092  0.1361 -0.1139
 3642TIP3    H232486   4.725   5.929   6.493 -0.0192 -0.1243 -0.2546
 3643TIP3   OH232487   5.948   6.198   0.628  0.5002 -0.0271  0.2683
 3643TIP3    H132488   5.862   6.228   0.656  0.8308  1.0363  0.1375
 3643TIP3    H232489   6.010   6.243   0.685  0.9448 -1.4261  0.9244
 3644TIP3   OH232490   3.763   1.453   7.620 -0.1984  0.0463  0.0247
 3644TIP3    H132491   3.708   1.377   7.640 -1.1850  0.5932 -0.5682
 3644TIP3    H232492   3.726   1.523   7.674  0.5703  0.1685  0.4010
 3645TIP3   OH232493   3.175   6.231   8.087 -0.3278  0.3241  0.2257
 3645TIP3    H132494   3.181   6.144   8.047 -1.0012  0.3479  0.0691
 3645TIP3    H232495   3.263   6.267   8.078  0.0184 -0.4317  0.5031
 3646TIP3   OH232496   4.433   4.314   7.902 -0.0256 -0.1454  0.2077
 3646TIP3    H132497   4.355   4.291   7.952 -0.4219 -1.1611 -0.8543
 3646TIP3    H232498   4.484   4.233   7.897  0.6780  0.2879  0.1464
 3647TIP3   OH232499   4.506   2.639   0.878  0.1542 -0.3967 -0.2487
 3647TIP3    H132500   4.525   2.634   0.785 -1.6616  0.7220 -0.7046
 3647TIP3    H232501   4.568   2.703   0.912  0.0527  0.0526 -0.9079
 3648TIP3   OH232502   3.375   2.989   7.194  0.0641  0.1207  0.3831
 3648TIP3    H132503   3.352   2.898   7.172  0.5144 -0.0123  0.4552
 3648TIP3    H232504   3.299   3.022   7.241  0.6973 -0.8487  2.1311
 3649TIP3   OH232505   4.266   6.599   6.477 -0.2645  0.2017 -0.5086
 3649TIP3    H132506   4.185   6.597   6.427 -0.1071  0.7688 -0.7957
 3649TIP3    H232507   4.281   6.692   6.495 -1.1674 -0.0821  1.9749
 3650TIP3   OH232508   3.695   5.282   6.831 -0.1171  0.3913  0.8634
 3650TIP3    H132509   3.774   5.229   6.818 -1.3663 -0.9320 -1.6041
 3650TIP3    H232510   3.716   5.366   6.791  0.0716  0.0697  0.2862
 3651TIP3   OH232511   3.876   6.209   0.558 -0.3278 -0.2513 -0.5509
 3651TIP3    H132512   3.862   6.234   0.649  3.1873 -0.4340  0.1157
 3651TIP3    H232513   3.861   6.290   0.508  0.8494  0.6576  0.5385
 3652TIP3   OH232514   3.292   0.622   6.097  0.1476 -0.7345 -0.2328
 3652TIP3    H132515   3.387   0.621   6.110  0.1590 -0.4211 -0.2857
 3652TIP3    H232516   3.279   0.686   6.027 -0.0994 -0.8111 -0.2557
 3653TIP3   OH232517   4.282   3.615   0.182  0.1109  0.6659  0.2626
 3653TIP3    H132518   4.280   3.572   0.267  1.6420  0.0846  0.0267
 3653TIP3    H232519   4.191   3.615   0.152 -0.1959 -0.5922  1.1643
 3654TIP3   OH232520   1.231   5.992   0.865  0.3145 -0.4824  0.7121
 3654TIP3    H132521   1.290   6.030   0.931  0.1186  0.6806  0.2278
 3654TIP3    H232522   1.269   5.905   0.847  2.4299  0.6011 -0.2715
 3655TIP3   OH232523   2.287   5.589   0.749 -0.5204  0.3536 -0.0102
 3655TIP3    H132524   2.334   5.543   0.818 -1.3473 -0.1456  0.2332
 3655TIP3    H232525   2.343   5.663   0.726  0.9165 -0.8842 -0.5410
 3656TIP3   OH232526   3.978   3.985   1.428 -0.5092 -0.1727 -0.6090
 3656TIP3    H132527   3.912   3.916   1.424  0.6994 -1.3851  0.3368
 3656TIP3    H232528   4.061   3.939   1.434  0.3680  1.3680 -0.7688
 3657TIP3   OH232529   0.418   2.777   7.090  0.3933  0.1357 -0.6487
 3657TIP3    H132530   0.470   2.774   7.170 -2.4585 -1.6581  1.2402
 3657TIP3    H232531   0.367   2.858   7.097 -0.7544 -0.6300 -0.0342
 3658TIP3   OH232532   3.615   0.247   6.692  0.1685  0.3862 -0.0375
 3658TIP3    H132533   3.545   0.288   6.642  1.6243  0.6597 -1.9204
 3658TIP3    H232534   3.584   0.159   6.710 -0.5611  0.4446 -1.0027
 3659TIP3   OH232535   5.129   5.890   1.932  0.2185 -0.0469 -0.1119
 3659TIP3    H132536   5.106   5.979   1.959 -0.6590  0.3736 -2.0865
 3659TIP3    H232537   5.059   5.835   1.967 -0.2815  0.3179 -0.5318
 3660TIP3   OH232538   4.188   0.554   0.715 -0.2896 -0.3659  0.1217
 3660TIP3    H132539   4.099   0.534   0.742 -0.6989  1.0960 -0.0702
 3660TIP3    H232540   4.198   0.509   0.631 -0.6434 -1.0108  0.4244
 3661TIP3   OH232541   6.295   6.463   0.056  0.0866  0.0294  0.4036
 3661TIP3    H132542   6.206   6.433   0.042 -0.6515  1.3674  1.9578
 3661TIP3    H232543   6.310   6.528  -0.013  0.8372 -2.0694 -1.4783
 3662TIP3   OH232544   7.019   4.922   6.536 -0.0296 -0.5306  0.1480
 3662TIP3    H132545   7.004   4.940   6.443  1.5139  0.1838  0.0269
 3662TIP3    H232546   6.965   4.987   6.581 -0.0458 -0.2481 -0.2655
 3663TIP3   OH232547   4.940   0.265   6.599 -0.0004  0.2525  0.8701
 3663TIP3    H132548   4.958   0.176   6.568 -1.0077  0.3369 -0.0253
 3663TIP3    H232549   4.845   0.274   6.590  0.2854  1.9983 -0.6693
 3664TIP3   OH232550   6.912   5.843   1.462 -0.0009  0.2508 -0.2261
 3664TIP3    H132551   6.973   5.818   1.393 -0.3000 -0.4796 -0.2243
 3664TIP3    H232552   6.903   5.765   1.516 -1.7402  0.0213 -0.8248
 3665TIP3   OH232553   4.058   2.193   7.746  0.3542 -0.1224 -0.4556
 3665TIP3    H132554   4.150   2.168   7.736  0.7576  0.6448  1.2233
 3665TIP3    H232555   4.023   2.130   7.809 -0.8265 -1.6811 -2.5876
 3666TIP3   OH232556   2.997   1.360   0.293  0.3045 -0.2874  0.1355
 3666TIP3    H132557   2.959   1.344   0.207  0.2065  1.0895 -0.1009
 3666TIP3    H232558   3.021   1.453   0.291 -0.3221 -0.0686  1.8152
 3667TIP3   OH232559   4.379   6.369   6.499 -0.3736 -0.0313 -0.0578
 3667TIP3    H132560   4.354   6.347   6.410  1.0175 -0.6549 -0.2999
 3667TIP3    H232561   4.358   6.462   6.508 -1.6819 -0.2612 -0.6188
 3668TIP3   OH232562   0.094   4.143   6.461 -0.0228  0.2567  0.2211
 3668TIP3    H132563   0.081   4.214   6.397  0.3167 -0.4786 -0.6757
 3668TIP3    H232564   0.180   4.160   6.498 -0.1515  0.5990  0.3605
 3669TIP3   OH232565   1.759   0.642   0.342  0.4702 -0.1326  0.1913
 3669TIP3    H132566   1.671   0.634   0.307 -0.0393 -0.2009  1.4818
 3669TIP3    H232567   1.759   0.590   0.422  1.4429  0.5285  0.6385
 3670TIP3   OH232568   1.477   6.934   6.340  0.1827 -0.1473 -0.1543
 3670TIP3    H132569   1.399   6.984   6.365  0.1195 -0.2148 -0.2187
 3670TIP3    H232570   1.546   7.000   6.334  0.4626 -0.2893  1.3454
 3671TIP3   OH232571   1.946   0.090   7.773 -0.4028  0.2178 -0.7827
 3671TIP3    H132572   1.969  -0.003   7.778 -1.6617 -0.0321  0.9953
 3671TIP3    H232573   1.975   0.117   7.686  2.7862 -1.0655 -0.2280
 3672TIP3   OH232574   4.580   6.795   1.415 -0.1540 -0.1542 -0.8208
 3672TIP3    H132575   4.670   6.814   1.443  0.5376 -1.3438 -2.2179
 3672TIP3    H232576   4.540   6.882   1.406  0.9264  0.3978 -0.4700
 3673TIP3   OH232577   0.031   5.194   1.246  0.3035  1.0212 -0.0661
 3673TIP3    H132578   0.046   5.116   1.192 -1.6115  0.9095 -0.4903
 3673TIP3    H232579   0.030   5.161   1.336 -1.5649  0.3372 -0.3084
 3674TIP3   OH232580   1.338   5.906   5.725 -0.0845  0.2705  0.8013
 3674TIP3    H132581   1.377   5.844   5.787 -0.9839  0.7181  1.8458
 3674TIP3    H232582   1.328   5.856   5.644  4.1709  0.6251 -0.0541
 3675TIP3   OH232583   6.469   6.957   7.278 -0.3430  0.0953  0.4026
 3675TIP3    H132584   6.398   6.943   7.341 -1.5487  1.0410 -0.7455
 3675TIP3    H232585   6.426   6.983   7.197  1.1878 -1.2644 -0.9034
 3676TIP3   OH232586   6.782   4.520   8.002  0.3718  0.4654 -0.3587
 3676TIP3    H132587   6.758   4.435   8.039  0.7091  0.8892  0.8423
 3676TIP3    H232588   6.710   4.541   7.942 -0.1347 -0.2706 -0.0174
 3677TIP3   OH232589   4.710   6.043   0.436 -0.1026  0.1718  0.0927
 3677TIP3    H132590   4.774   5.973   0.448  1.1044  1.1070 -0.6139
 3677TIP3    H232591   4.693   6.076   0.524  2.2368  1.4561  0.1257
 3678TIP3   OH232592   0.639   5.744   0.803 -1.0578  0.3170  0.0303
 3678TIP3    H132593   0.622   5.665   0.752 -0.9956  0.6251 -0.4807
 3678TIP3    H232594   0.561   5.755   0.857 -1.3667  0.2826 -0.3977
 3679TIP3   OH232595   6.957   2.944   6.378  0.1863  0.5149  0.1831
 3679TIP3    H132596   6.979   3.034   6.405 -2.4538  1.4295 -0.6308
 3679TIP3    H232597   6.881   2.921   6.431  1.3998 -1.6321  1.0509
 3680TIP3   OH232598   4.311   0.030   6.058  0.6622 -0.3785 -0.2535
 3680TIP3    H132599   4.324   0.111   6.009  0.9283  0.0017  0.4412
 3680TIP3    H232600   4.242  -0.016   6.010 -1.5617  1.5796  0.9299
 3681TIP3   OH232601   6.298   0.407   7.336  0.2748 -0.2739  0.0162
 3681TIP3    H132602   6.374   0.441   7.289  0.0868 -1.1936 -0.9596
 3681TIP3    H232603   6.335   0.351   7.404  0.5165  0.4594  0.4959
 3682TIP3   OH232604   3.376   6.761   0.648 -0.3257  0.5460  0.2578
 3682TIP3    H132605   3.352   6.797   0.562  1.7631  2.3144  0.3690
 3682TIP3    H232606   3.472   6.762   0.648 -0.2985  1.6943  3.0605
 3683TIP3   OH232607   2.075   4.972   6.935 -0.2334  0.5915 -0.5520
 3683TIP3    H132608   2.033   5.041   6.987 -1.5022  1.2230 -2.3674
 3683TIP3    H232609   2.154   5.012   6.901  1.0404 -0.0823  1.5181
 3684TIP3   OH232610   0.047   5.088   7.554 -0.8604  0.8936  0.1983
 3684TIP3    H132611   0.110   5.069   7.485 -0.7916 -1.3981  0.8579
 3684TIP3    H232612   0.086   5.159   7.604  0.5786  0.3915 -0.2032
 3685TIP3   OH232613   1.694   4.995   7.040 -0.0138 -0.5840 -0.4132
 3685TIP3    H132614   1.651   5.031   7.117 -0.7688  2.5602 -2.2348
 3685TIP3    H232615   1.787   4.993   7.062 -0.3976 -1.3862  1.1891
 3686TIP3   OH232616   4.274   5.137   7.106 -0.0368  0.7744 -0.1055
 3686TIP3    H132617   4.294   5.226   7.076  0.1372  0.7436 -0.0815
 3686TIP3    H232618   4.352   5.110   7.154  1.2368 -0.5820 -2.8433
 3687TIP3   OH232619   2.309   6.860   6.920  0.5029  0.2473 -0.2806
 3687TIP3    H132620   2.254   6.782   6.910  0.5317 -0.1332  2.1076
 3687TIP3    H232621   2.248   6.929   6.948  0.8960  0.3498  0.3402
 3688TIP3   OH232622   3.677   2.225   1.362  0.2609  0.0914  0.5396
 3688TIP3    H132623   3.718   2.191   1.442 -1.6679 -0.9037  1.1452
 3688TIP3    H232624   3.591   2.255   1.390 -0.0242  0.7360 -0.9740
 3689TIP3   OH232625   4.251   5.641   7.261  0.1446  0.2021 -0.2395
 3689TIP3    H132626   4.244   5.726   7.304  0.3606 -0.5880  1.3908
 3689TIP3    H232627   4.344   5.619   7.266 -0.1495 -0.8566  0.8002
 3690TIP3   OH232628   3.608   0.094   1.902 -0.0891  0.0822  0.6038
 3690TIP3    H132629   3.615   0.140   1.986  0.5658  0.5135  0.3114
 3690TIP3    H232630   3.570   0.009   1.925 -1.6311  0.8852  1.1039
 3691TIP3   OH232631   6.198   6.087   1.665  0.0402  0.4954 -0.6345
 3691TIP3    H132632   6.162   6.159   1.717  0.6218  0.5925 -0.3652
 3691TIP3    H232633   6.278   6.062   1.711 -0.1508 -0.3134 -0.7367
 3692TIP3   OH232634   7.059   6.359   7.051  0.3871  0.2267 -0.0820
 3692TIP3    H132635   7.101   6.272   7.049 -0.8856 -0.3828 -0.8685
 3692TIP3    H232636   7.094   6.404   6.974  0.1151 -0.0295 -0.3537
 3693TIP3   OH232637   3.365   1.307   7.570  0.5412  0.8592 -0.7597
 3693TIP3    H132638   3.279   1.265   7.573  0.6668  0.4847 -2.2191
 3693TIP3    H232639   3.392   1.312   7.662 -0.7942  0.4894 -0.3327
 3694TIP3   OH232640   4.731   5.517   6.762 -0.2320  0.0815  0.1187
 3694TIP3    H132641   4.760   5.512   6.853  0.4599  0.5765 -0.0648
 3694TIP3    H232642   4.786   5.453   6.717 -1.6698 -1.3057  0.3166
 3695TIP3   OH232643   1.468   3.768   7.384 -0.2076  0.1273  0.4590
 3695TIP3    H132644   1.452   3.721   7.467  1.8930 -0.4398  0.5842
 3695TIP3    H232645   1.439   3.857   7.401  0.4654  0.0843  1.9189
 3696TIP3   OH232646   3.449   5.110   0.931  0.2247 -0.4354  0.1944
 3696TIP3    H132647   3.357   5.117   0.957  0.1301  1.9447 -0.7172
 3696TIP3    H232648   3.487   5.194   0.955  1.6348 -0.5791 -1.4760
 3697TIP3   OH232649   7.078   2.136   6.938  0.6108  0.1509 -0.6805
 3697TIP3    H132650   7.104   2.223   6.968 -2.5405  0.9050  0.1155
 3697TIP3    H232651   7.020   2.153   6.864 -0.2878 -1.2441 -0.3175
 3698TIP3   OH232652   6.183   2.379   0.662  0.1700  0.2432  0.0893
 3698TIP3    H132653   6.167   2.308   0.601  0.1314 -0.7505  1.2453
 3698TIP3    H232654   6.275   2.402   0.649  0.4750 -0.7432  0.4491
 3699TIP3   OH232655   1.630   5.048   1.751  0.3900 -0.0493  0.5721
 3699TIP3    H132656   1.679   5.041   1.833  3.0017  0.0008 -0.9245
 3699TIP3    H232657   1.583   4.965   1.743  1.3403 -0.6730  1.3753
 3700TIP3   OH232658   5.053   3.613   7.781 -0.0617  0.0628  0.6206
 3700TIP3    H132659   4.958   3.617   7.767  0.0596  0.1199 -0.1964
 3700TIP3    H232660   5.089   3.673   7.716  0.6394 -1.0911 -0.0490
 3701TIP3   OH232661   1.257   6.673   0.396  0.4807 -1.1480 -0.2485
 3701TIP3    H132662   1.252   6.767   0.382  0.1620 -0.7881  2.2134
 3701TIP3    H232663   1.211   6.635   0.321 -0.1107  0.6581 -0.8088
 3702TIP3   OH232664   1.370   4.587   7.750  0.3450 -0.0653 -0.1342
 3702TIP3    H132665   1.376   4.522   7.821  0.8749 -0.7445 -0.7984
 3702TIP3    H232666   1.396   4.669   7.792  1.6258 -0.6373  0.2353
 3703TIP3   OH232667   2.719   3.565   0.905  0.2969 -0.1596  0.1700
 3703TIP3    H132668   2.751   3.560   0.995 -0.4715  2.3310  0.6354
 3703TIP3    H232669   2.798   3.569   0.852  0.8136  2.7522  1.0723
 3704TIP3   OH232670   6.052   6.349   7.841  0.0528 -0.2011 -0.0638
 3704TIP3    H132671   6.129   6.325   7.789  0.8171  1.3792  0.3115
 3704TIP3    H232672   6.034   6.439   7.816  0.4920  0.6100  2.4779
 3705TIP3   OH232673   2.285   4.220   0.797  0.1160  0.6251  0.2283
 3705TIP3    H132674   2.286   4.140   0.850 -1.1640 -0.2241 -0.9892
 3705TIP3    H232675   2.250   4.192   0.713  3.2125  1.6974 -1.5066
 3706TIP3   OH232676   3.789   0.782   0.866  0.2483 -0.5176  0.1450
 3706TIP3    H132677   3.713   0.737   0.903  0.1332 -1.1406 -0.8256
 3706TIP3    H232678   3.841   0.713   0.827  0.4108  0.1184 -0.7796
 3707TIP3   OH232679   4.848   5.915   0.119 -0.1924 -0.1962 -0.5850
 3707TIP3    H132680   4.926   5.937   0.169  0.1551 -0.3963 -1.0251
 3707TIP3    H232681   4.828   5.994   0.068  0.0396 -0.3176 -0.8693
 3708TIP3   OH232682   1.127   5.032   7.358 -0.3043 -0.0039 -0.4109
 3708TIP3    H132683   1.146   5.113   7.311 -1.5942 -0.2224 -1.3582
 3708TIP3    H232684   1.049   4.997   7.314  0.6588 -2.1200 -0.4745
 3709TIP3   OH232685   3.583   6.165   7.266  0.1721  0.4674  0.1675
 3709TIP3    H132686   3.589   6.241   7.325  1.6756  0.6565 -0.2171
 3709TIP3    H232687   3.554   6.202   7.183 -1.5978  0.2510  0.6668
 3710TIP3   OH232688   0.969   0.681   8.101 -0.0597  0.0270 -0.2256
 3710TIP3    H132689   1.062   0.665   8.118 -0.1034  0.3954  0.3898
 3710TIP3    H232690   0.946   0.618   8.033  0.7241  0.1749 -0.6384
 3711TIP3   OH232691   3.320   5.988   0.976 -0.0175 -0.4986 -0.2975
 3711TIP3    H132692   3.402   6.037   0.970 -0.9488  1.1307  0.0559
 3711TIP3    H232693   3.347   5.896   0.975  1.8462  0.0203  0.3106
 3712TIP3   OH232694   0.420   5.615   7.720 -0.0327 -0.2263 -0.1232
 3712TIP3    H132695   0.348   5.664   7.759  0.2001  0.3963 -0.4717
 3712TIP3    H232696   0.477   5.682   7.682  0.6640 -0.7244  0.0401
 3713TIP3   OH232697   5.881   6.636   0.718  0.1876  0.4598 -0.4586
 3713TIP3    H132698   5.839   6.694   0.655 -1.4650 -1.0796 -0.8313
 3713TIP3    H232699   5.816   6.627   0.788  0.6906 -0.4287 -0.1042
 3714TIP3   OH232700   2.832   3.819   0.276 -0.7906 -0.4557 -0.4602
 3714TIP3    H132701   2.919   3.806   0.315 -1.1928  0.1485  0.6723
 3714TIP3    H232702   2.832   3.911   0.248 -0.3755 -0.9782 -2.2598
 3715TIP3   OH232703   5.685   6.277   7.868  0.5232  0.5952 -0.4818
 3715TIP3    H132704   5.747   6.263   7.796  0.5455  2.5021 -0.8573
 3715TIP3    H232705   5.625   6.203   7.862  1.0192  0.2863 -1.9519
 3716TIP3   OH232706   4.392   1.099   1.171  0.4858 -0.1946  0.5448
 3716TIP3    H132707   4.411   1.032   1.105 -0.8095  0.3039 -0.3528
 3716TIP3    H232708   4.305   1.078   1.203 -0.4252  1.7074 -0.5844
 3717TIP3   OH232709   6.848   0.379   1.761  0.9386 -0.1642 -0.1839
 3717TIP3    H132710   6.825   0.427   1.682  1.1617  0.8490  0.3549
 3717TIP3    H232711   6.789   0.303   1.761 -0.7375  1.1063 -0.0874
 3718TIP3   OH232712   2.696   0.672   0.812 -0.5929 -0.1707  0.1976
 3718TIP3    H132713   2.741   0.735   0.868 -0.3888 -0.6374  0.5697
 3718TIP3    H232714   2.767   0.624   0.769 -0.7552  0.7277 -1.0869
 3719TIP3   OH232715   5.028   5.731   6.310 -1.0158  0.3284  0.4691
 3719TIP3    H132716   4.962   5.672   6.345  0.3022 -1.8905 -0.6861
 3719TIP3    H232717   5.092   5.674   6.268 -0.6726  2.6997 -2.3736
 3720TIP3   OH232718   2.328   6.124   1.119  0.2504  0.4920  0.6407
 3720TIP3    H132719   2.236   6.149   1.117  0.3135  0.6544 -1.2432
 3720TIP3    H232720   2.360   6.143   1.030  1.6923 -1.0574  0.8100
 3721TIP3   OH232721   6.048   1.960   0.405 -0.6160  0.3307  0.6741
 3721TIP3    H132722   6.034   1.972   0.499  0.5893 -0.3875  0.9577
 3721TIP3    H232723   6.043   1.865   0.393  1.7449  0.2169  0.4347
 3722TIP3   OH232724   6.609   4.037   7.980 -0.4181  0.3130  0.0886
 3722TIP3    H132725   6.661   3.976   7.929 -1.4851 -0.2040 -0.3769
 3722TIP3    H232726   6.623   4.011   8.071  0.9366  0.8160  0.0435
 3723TIP3   OH232727   0.019   2.639   0.902  0.2253 -0.3184 -0.6840
 3723TIP3    H132728   0.051   2.675   0.819 -1.1811  0.2917 -0.9874
 3723TIP3    H232729  -0.075   2.659   0.901  0.3543  0.5087  1.4789
 3724TIP3   OH232730   2.180   3.096   6.458  0.1514  0.0686 -0.3116
 3724TIP3    H132731   2.269   3.100   6.494 -0.2470  1.4928  0.5764
 3724TIP3    H232732   2.173   3.175   6.404 -0.3519 -0.4009 -0.9436
 3725TIP3   OH232733   5.451   3.291   0.499 -0.3826 -0.0961  0.2135
 3725TIP3    H132734   5.483   3.308   0.410 -2.3368  0.0783 -0.4850
 3725TIP3    H232735   5.493   3.358   0.553 -1.5737  1.7711 -1.1226
 3726TIP3   OH232736   1.616   1.052   0.468  0.4173  0.2897  0.0438
 3726TIP3    H132737   1.558   1.030   0.395  0.9610 -0.8772 -0.0437
 3726TIP3    H232738   1.621   0.972   0.520 -0.3601  1.2574  1.6523
 3727TIP3   OH232739   4.136   3.156   0.256 -0.0943  0.3080  0.4228
 3727TIP3    H132740   4.068   3.220   0.234  0.6468  0.8717 -0.2343
 3727TIP3    H232741   4.215   3.190   0.214  0.2262 -1.2193 -0.2210
 3728TIP3   OH232742   1.678   2.052   1.936 -0.2372  0.0651 -0.4350
 3728TIP3    H132743   1.659   2.064   2.029  0.5965 -0.2131 -0.2209
 3728TIP3    H232744   1.621   2.114   1.891 -0.7629  0.0801  0.2537
 3729TIP3   OH232745   1.457   5.913   0.636 -0.1868  0.0860 -0.2465
 3729TIP3    H132746   1.476   6.003   0.662 -0.2652  0.2438 -0.7308
 3729TIP3    H232747   1.365   5.914   0.610 -0.3605 -0.2738  0.3485
 3730TIP3   OH232748   5.747   3.561   1.031  0.3879  0.5389  0.4320
 3730TIP3    H132749   5.688   3.486   1.020  1.8508 -0.4928 -0.5517
 3730TIP3    H232750   5.702   3.633   0.987 -1.4125  0.4702  2.0971
 3731TIP3   OH232751   1.503   1.427   6.853  0.2399  0.2865  0.8618
 3731TIP3    H132752   1.432   1.461   6.798  1.2971 -1.6264 -1.8338
 3731TIP3    H232753   1.476   1.337   6.874  1.3089 -0.0704  0.7745
 3732TIP3   OH232754   3.219   0.308   1.142  0.0244  0.1962  0.5731
 3732TIP3    H132755   3.272   0.276   1.216  1.3848  0.9939 -0.0463
 3732TIP3    H232756   3.239   0.402   1.137 -0.9131  0.3608 -0.1131
 3733TIP3   OH232757   2.966   1.235   7.067  0.1274  0.7574  0.1423
 3733TIP3    H132758   2.905   1.295   7.024 -0.5098  0.8414  1.1422
 3733TIP3    H232759   2.960   1.258   7.160  1.0718  0.2124  0.3453
 3734TIP3   OH232760   6.951   3.058   2.227  0.1951  0.0483 -0.4722
 3734TIP3    H132761   6.898   3.073   2.306  1.7340 -1.4293  0.8695
 3734TIP3    H232762   6.908   2.984   2.184  0.5440 -0.4721  0.0655
 3735TIP3   OH232763   5.086   6.025   6.703  0.1169  0.6046  0.0877
 3735TIP3    H132764   5.179   6.009   6.719  0.0278 -1.2063 -1.1316
 3735TIP3    H232765   5.065   5.973   6.625 -1.5710  2.1594 -0.5458
 3736TIP3   OH232766   2.770   5.400   7.553  0.1259 -0.5805  0.2693
 3736TIP3    H132767   2.817   5.438   7.479  0.1478 -1.4581 -0.1684
 3736TIP3    H232768   2.836   5.348   7.598  0.1177 -0.0390  0.9243
 3737TIP3   OH232769   1.556   1.312   0.957  0.1669 -0.6643  0.5882
 3737TIP3    H132770   1.612   1.303   0.880 -0.3827  0.4516  0.0498
 3737TIP3    H232771   1.471   1.278   0.928 -0.3137  0.6967  0.3811
 3738TIP3   OH232772   2.612   5.155   0.311 -0.0110  0.0352 -0.2182
 3738TIP3    H132773   2.543   5.221   0.311 -0.8255 -0.8083 -1.3640
 3738TIP3    H232774   2.566   5.072   0.322  0.8568 -0.4926 -0.5044
 3739TIP3   OH232775   6.658   0.938   7.945  0.3995  0.2654  0.3317
 3739TIP3    H132776   6.703   1.023   7.946 -0.4813  0.7392  1.4604
 3739TIP3    H232777   6.591   0.947   8.012 -0.4231 -0.9464 -0.3267
 3740TIP3   OH232778   1.746   6.422   1.143  0.3879  0.1787  0.1706
 3740TIP3    H132779   1.780   6.339   1.175  0.2474  1.2685  3.3366
 3740TIP3    H232780   1.805   6.488   1.179 -1.3059  1.6350  0.3617
 3741TIP3   OH232781   1.908   0.532   1.351 -0.2715 -0.4434  0.5798
 3741TIP3    H132782   1.874   0.444   1.364 -0.4752 -1.2128 -4.2620
 3741TIP3    H232783   2.002   0.524   1.363 -0.1841 -1.5723 -0.7639
 3742TIP3   OH232784   6.611   2.855   0.011  0.2779 -0.7626  0.0823
 3742TIP3    H132785   6.641   2.807   0.088  1.2139 -1.3098 -0.6079
 3742TIP3    H232786   6.575   2.937   0.045  0.2547 -1.2115  1.1326
 3743TIP3   OH232787   1.309   6.970   1.987 -0.7908  0.0212  0.0504
 3743TIP3    H132788   1.318   7.010   2.073 -0.8795  0.7234 -0.2638
 3743TIP3    H232789   1.371   6.897   1.988  0.2372  0.8845  0.2146
 3744TIP3   OH232790   0.306   7.031   0.715 -0.4183 -0.1707 -0.2185
 3744TIP3    H132791   0.360   6.954   0.733 -0.3782 -0.9503 -3.4119
 3744TIP3    H232792   0.323   7.090   0.789  3.0176 -1.3428  0.0232
 3745TIP3   OH232793   1.732   6.066   0.210  0.1643  0.1691 -0.3192
 3745TIP3    H132794   1.763   6.103   0.292  1.1051  0.6931 -0.9089
 3745TIP3    H232795   1.637   6.079   0.212  0.2419  0.6296  0.4575
 3746TIP3   OH232796   6.912   0.973   1.253  0.4595  0.4875 -0.0752
 3746TIP3    H132797   6.865   0.922   1.319 -1.5735  0.4818 -1.5042
 3746TIP3    H232798   7.004   0.947   1.265 -0.1857 -1.3980  1.0826
 3747TIP3   OH232799   3.303   2.018   0.916  0.5189 -1.0140  0.2158
 3747TIP3    H132800   3.271   2.000   1.004 -1.6765 -2.7056 -0.8784
 3747TIP3    H232801   3.365   2.090   0.927  0.5521 -1.4481  3.1749
 3748TIP3   OH232802   5.523   1.100   1.051  0.1489  0.0220  0.8050
 3748TIP3    H132803   5.471   1.087   0.972 -0.9182 -0.1223  1.5294
 3748TIP3    H232804   5.569   1.183   1.036 -1.4577  0.9219  0.8080
 3749TIP3   OH232805   3.986   0.443   0.136  0.0926  0.0380  0.0076
 3749TIP3    H132806   3.971   0.351   0.159 -0.6963 -0.5095 -2.5070
 3749TIP3    H232807   3.902   0.485   0.153 -0.1095 -0.1078 -0.6048
 3750TIP3   OH232808   2.886   1.635   7.902 -0.1280 -0.0885 -0.1538
 3750TIP3    H132809   2.959   1.608   7.958  0.1627  1.2134  0.0960
 3750TIP3    H232810   2.911   1.722   7.870 -2.1240  0.9081  0.9301
 3751TIP3   OH232811   3.942   1.041   1.211 -0.2104  0.2620  0.0336
 3751TIP3    H132812   3.867   0.987   1.185  0.6624 -0.2746 -1.4606
 3751TIP3    H232813   3.907   1.103   1.275 -1.7774 -0.4153 -0.1520
 3752TIP3   OH232814   5.328   1.510   0.052  0.5765  0.1041 -0.4121
 3752TIP3    H132815   5.418   1.536   0.033  0.6725 -0.3295 -0.5625
 3752TIP3    H232816   5.326   1.416   0.033  0.2563 -0.0111  0.1817
 3753TIP3   OH232817   2.655   1.424   1.739 -0.1425  0.5390  0.3040
 3753TIP3    H132818   2.665   1.329   1.736  0.8069  0.6417  0.2405
 3753TIP3    H232819   2.571   1.437   1.784  0.1548 -0.3069  1.1153
 3754TIP3   OH232820   1.488   2.035   0.708 -0.3155 -0.6121  0.2802
 3754TIP3    H132821   1.505   2.121   0.669  2.6867 -1.7960 -1.1714
 3754TIP3    H232822   1.501   2.049   0.801  0.3942  0.4710  0.0394
 3755TIP3   OH232823   3.776   6.720   1.865 -0.6006 -0.3899 -0.6291
 3755TIP3    H132824   3.760   6.643   1.920  0.0533 -0.3703 -0.3993
 3755TIP3    H232825   3.835   6.774   1.917 -0.5177 -0.0541 -1.0720
 3756TIP3   OH232826   6.803   3.749   0.432  0.6161 -0.6802  0.3952
 3756TIP3    H132827   6.788   3.838   0.400 -0.3681 -1.1766 -0.6014
 3756TIP3    H232828   6.897   3.743   0.445  0.6785  0.5329  0.5490
 3757TIP3   OH232829   0.965   1.754   2.137 -0.3251 -0.6192  0.2228
 3757TIP3    H132830   0.943   1.662   2.123  1.9159 -1.1268 -0.2977
 3757TIP3    H232831   1.023   1.753   2.213  2.1185 -0.0434 -1.5560
 3758TIP3   OH232832   2.525   6.894   7.141  0.2816  0.3347  0.0072
 3758TIP3    H132833   2.437   6.887   7.103  0.7257 -3.4972 -0.5457
 3758TIP3    H232834   2.560   6.976   7.107 -1.8770  0.3149 -2.4251
 3759TIP3   OH232835   0.916   1.446   7.032  0.6261 -0.5351  0.6639
 3759TIP3    H132836   0.932   1.352   7.025  1.0191 -0.3629 -0.8929
 3759TIP3    H232837   0.820   1.455   7.028  0.6768 -0.7107 -1.5688
 3760TIP3   OH232838   0.317   6.827   1.697  0.1064  0.2387  0.4825
 3760TIP3    H132839   0.328   6.825   1.602  3.3065 -0.9168  0.8077
 3760TIP3    H232840   0.231   6.789   1.713 -0.7839  1.1424 -1.9814
 3761TIP3   OH232841   2.632   2.795   1.000  0.2502  0.2517 -0.2180
 3761TIP3    H132842   2.554   2.740   0.995  0.5813 -0.1661 -1.0138
 3761TIP3    H232843   2.649   2.821   0.910  1.6898 -0.6279 -0.2319
 3762TIP3   OH232844   6.410   0.193   7.456 -0.8461  0.1797  0.0621
 3762TIP3    H132845   6.413   0.136   7.379 -3.8732  1.4831 -1.1287
 3762TIP3    H232846   6.380   0.136   7.526  1.5095 -0.9213  0.2165
 3763TIP3   OH232847   5.879   0.369   0.780 -0.1470  0.2978 -0.0008
 3763TIP3    H132848   5.902   0.317   0.857 -2.4830 -0.2859  0.3643
 3763TIP3    H232849   5.894   0.310   0.707  3.3163  1.2752 -0.1660
 3764TIP3   OH232850   1.746   6.058   0.816 -0.3577  0.2427 -0.1011
 3764TIP3    H132851   1.835   6.065   0.851  0.2275  1.9177 -1.8602
 3764TIP3    H232852   1.689   6.082   0.889  0.6104 -0.7092  0.9948
 3765TIP3   OH232853   6.326   1.354   0.933 -0.4068  0.1361  0.1306
 3765TIP3    H132854   6.382   1.298   0.880  0.4608  1.1536 -0.0474
 3765TIP3    H232855   6.355   1.339   1.023 -0.8783 -0.4780  0.1815
 3766TIP3   OH232856   3.041   1.688   0.663  0.2591  0.3588 -0.1321
 3766TIP3    H132857   3.057   1.652   0.750 -1.6507 -1.0227 -0.3084
 3766TIP3    H232858   3.075   1.621   0.603  1.2119  1.1238 -0.4442
 3767TIP3   OH232859   4.653   0.478   0.998 -0.2099  0.3969  0.2269
 3767TIP3    H132860   4.720   0.483   1.066  1.5778  0.7057 -1.5314
 3767TIP3    H232861   4.570   0.473   1.047  1.1487 -1.6092  2.4294
 3768TIP3   OH232862   1.553   1.387   7.399 -0.0582  0.0295 -0.2784
 3768TIP3    H132863   1.621   1.351   7.341  1.0253  0.3442  0.7788
 3768TIP3    H232864   1.507   1.311   7.432  1.0773 -0.3012  0.5590
 3769TIP3   OH232865   0.094   3.596   0.305  0.3455 -0.1032  0.1893
 3769TIP3    H132866   0.149   3.637   0.238 -0.4350  1.0244  0.2247
 3769TIP3    H232867   0.071   3.667   0.364 -2.3678 -0.2191 -0.6503
 3770TIP3   OH232868   0.336   2.147   7.654  0.4443 -0.0742  0.3667
 3770TIP3    H132869   0.317   2.232   7.616  1.7372 -0.8734 -2.1905
 3770TIP3    H232870   0.349   2.164   7.748 -0.7773  2.2617  0.1431
 3771TIP3   OH232871   0.690   0.629   7.598  0.8477 -0.2405  0.1581
 3771TIP3    H132872   0.670   0.659   7.686  2.5594 -0.4199  0.6194
 3771TIP3    H232873   0.730   0.705   7.555 -0.3830 -0.0146 -0.6123
 3772TIP3   OH232874   4.031   1.568   7.595  0.3648 -0.3174  0.0599
 3772TIP3    H132875   3.962   1.526   7.646  0.0333  0.1687  0.0189
 3772TIP3    H232876   3.998   1.569   7.505  1.0326 -1.3518 -0.2099
 3773TIP3   OH232877   5.382   5.283   7.578  0.0362  0.0373 -0.8709
 3773TIP3    H132878   5.397   5.365   7.626  0.0314  0.1096 -0.9920
 3773TIP3    H232879   5.293   5.258   7.602  0.6080 -0.7891  0.4381
 3774TIP3   OH232880   4.819   6.477   0.416 -0.0237  0.6224  0.3597
 3774TIP3    H132881   4.850   6.475   0.507  1.3391  1.8766 -0.0719
 3774TIP3    H232882   4.786   6.566   0.404 -0.2660  0.4354 -0.3498
 3775TIP3   OH232883   1.638   0.279   7.726 -0.0208  0.3692  0.0101
 3775TIP3    H132884   1.571   0.268   7.793  0.9602  0.3768  1.0159
 3775TIP3    H232885   1.673   0.190   7.713 -1.4971  0.0494 -1.8720
 3776TIP3   OH232886   1.219   0.925   0.875  0.1264 -0.0169  0.0331
 3776TIP3    H132887   1.161   1.000   0.861  0.8982  0.3587 -1.1565
 3776TIP3    H232888   1.230   0.886   0.788 -0.3481 -1.5784  0.6527
 3777TIP3   OH232889   1.319   2.399   7.080  0.2434 -0.3986  0.5298
 3777TIP3    H132890   1.392   2.340   7.063 -0.3849 -0.9279 -0.3889
 3777TIP3    H232891   1.341   2.442   7.163  1.9942  0.0847 -0.1814
 3778TIP3   OH232892   2.893   1.691   1.228 -0.0167 -0.5524  0.5118
 3778TIP3    H132893   2.893   1.611   1.175 -0.3182 -0.4565  0.3713
 3778TIP3    H232894   2.810   1.688   1.276  0.0730 -0.4332  0.6738
 3779TIP3   OH232895   2.398   5.837   0.758 -0.1535 -0.2527 -0.2684
 3779TIP3    H132896   2.356   5.923   0.755  0.4140  0.1077  1.3706
 3779TIP3    H232897   2.468   5.842   0.693 -1.1566 -0.0494 -1.3419
 3780TIP3   OH232898   6.963   6.392   7.299 -0.3763  0.3768 -0.3613
 3780TIP3    H132899   6.877   6.350   7.300 -0.2166  0.0502  2.1569
 3780TIP3    H232900   6.996   6.374   7.211 -1.7319 -1.8587 -0.4806
 3781TIP3   OH232901   6.340   2.752   0.179 -0.3613  0.1131 -0.4567
 3781TIP3    H132902   6.309   2.667   0.148  0.6585 -0.3250 -0.2999
 3781TIP3    H232903   6.312   2.756   0.271 -2.2523  0.8601 -1.0411
 3782TIP3   OH232904   1.300   2.465   1.189 -0.1994  0.2174  0.0093
 3782TIP3    H132905   1.240   2.474   1.115  2.2108 -0.4041 -2.0597
 3782TIP3    H232906   1.255   2.510   1.261 -2.4064  1.1793 -1.8974
 3783TIP3   OH232907   2.610   3.219   6.078  0.0875  0.3143 -0.6838
 3783TIP3    H132908   2.579   3.268   6.002 -1.5453 -0.2185 -0.3854
 3783TIP3    H232909   2.635   3.134   6.044 -2.0305 -0.4364 -0.4338
 3784TIP3   OH232910   5.728   2.583   6.722  0.4461 -0.1171 -0.1257
 3784TIP3    H132911   5.666   2.628   6.780  0.1553 -0.1679 -0.3952
 3784TIP3    H232912   5.734   2.494   6.759  1.1430  0.1858  0.4997
 3785TIP3   OH232913   6.476   0.524   1.551  0.3263 -0.6747  0.1690
 3785TIP3    H132914   6.555   0.539   1.603 -0.7065 -1.0507  1.8900
 3785TIP3    H232915   6.449   0.435   1.574 -1.9378  0.3046  1.4749
 3786TIP3   OH232916   3.560   4.194   0.945 -0.1783  0.0731  0.2644
 3786TIP3    H132917   3.557   4.194   1.041 -0.7750  0.0844  0.2510
 3786TIP3    H232918   3.593   4.107   0.922 -1.2208 -0.3778  0.4568
 3787TIP3   OH232919   0.734   0.352   7.671  0.1775  0.6069  0.2840
 3787TIP3    H132920   0.728   0.445   7.648  1.2727  0.6981  0.3323
 3787TIP3    H232921   0.828   0.335   7.677 -0.0069 -0.6224 -0.2032
 3788TIP3   OH232922   3.158   1.454   6.891 -0.5671 -0.5352  0.0393
 3788TIP3    H132923   3.238   1.422   6.850  0.8036  1.2989  1.1986
 3788TIP3    H232924   3.088   1.427   6.832  0.9152 -2.0007 -1.0881
 3789TIP3   OH232925   6.070   1.748   7.293  0.3647 -1.1093  0.2564
 3789TIP3    H132926   6.161   1.728   7.314  0.6322  1.7551  2.1865
 3789TIP3    H232927   6.023   1.733   7.375 -0.2486  0.8141  0.2937
 3790TIP3   OH232928   3.960   5.498   0.080  0.3155 -0.3678  0.1909
 3790TIP3    H132929   4.021   5.432   0.113  0.6044  0.2884  0.9860
 3790TIP3    H232930   3.906   5.521   0.156 -0.6290 -0.6190 -0.4004
 3791TIP3   OH232931   6.211   1.685   0.170 -0.1181  0.3085 -0.2762
 3791TIP3    H132932   6.294   1.638   0.160  1.2164  1.9833  2.2362
 3791TIP3    H232933   6.171   1.646   0.248 -0.9556  0.5433 -0.5834
 3792TIP3   OH232934   5.476   3.296   7.203  0.1962  0.1513  0.2115
 3792TIP3    H132935   5.482   3.316   7.109  1.1447  0.0151  0.2403
 3792TIP3    H232936   5.561   3.257   7.225  0.3197  1.0289  1.3294
 3793TIP3   OH232937   6.208   1.805   7.047 -0.3066 -0.3303  0.3122
 3793TIP3    H132938   6.135   1.797   7.109 -0.7660  1.6550  0.0398
 3793TIP3    H232939   6.171   1.847   6.970  0.8481 -0.4947 -0.3516
 3794TIP3   OH232940   2.928   6.831   0.786  0.1487  0.2480 -0.1993
 3794TIP3    H132941   2.881   6.827   0.869 -0.5451 -0.8752 -0.6323
 3794TIP3    H232942   2.958   6.742   0.771  1.2358  0.6734 -0.6153
 3795TIP3   OH232943   6.414   6.248   0.493  0.0566  0.4351 -0.5239
 3795TIP3    H132944   6.427   6.207   0.579  2.1137  0.0667 -0.9744
 3795TIP3    H232945   6.345   6.313   0.507  0.6863  0.6943  1.5229
 3796TIP3   OH232946   6.634   2.458   0.359 -0.1169 -0.3176  0.3941
 3796TIP3    H132947   6.697   2.474   0.289 -0.4267 -0.4356  0.0851
 3796TIP3    H232948   6.632   2.363   0.368  0.6199 -0.2642  1.2099
 3797TIP3   OH232949   3.481   1.141   1.002  0.6731 -0.1716  0.4895
 3797TIP3    H132950   3.399   1.139   1.050  1.6757 -0.2823  2.2368
 3797TIP3    H232951   3.513   1.231   1.014  0.2822  0.1935 -1.1103
 3798TIP3   OH232952   2.697   0.542   6.911 -0.1364 -0.2580  0.6886
 3798TIP3    H132953   2.623   0.512   6.858  1.0032 -0.0176 -1.0670
 3798TIP3    H232954   2.666   0.623   6.951 -0.7614 -0.0610 -0.1830
 3799TIP3   OH232955   6.796   3.350   6.423 -0.1860  0.5773 -0.1769
 3799TIP3    H132956   6.823   3.440   6.408 -0.0124  0.9317  2.0133
 3799TIP3    H232957   6.701   3.351   6.412 -0.1118  0.9058 -0.7489
 3800TIP3   OH232958   6.157   4.542   6.724 -0.4687 -0.2002  0.4254
 3800TIP3    H132959   6.092   4.558   6.793 -2.0678 -0.8730 -0.8846
 3800TIP3    H232960   6.110   4.491   6.658  0.5112  1.8134 -1.9417
 3801TIP3   OH232961   1.441   0.188   1.894 -0.1290  0.5834  0.6917
 3801TIP3    H132962   1.384   0.124   1.935  1.6006 -2.8250 -1.9461
 3801TIP3    H232963   1.390   0.222   1.820 -0.1211  0.3822  0.5946
 3802TIP3   OH232964   5.237   3.198   0.304 -0.0178  0.1626 -0.0708
 3802TIP3    H132965   5.306   3.189   0.237  0.8231 -0.9444  0.9077
 3802TIP3    H232966   5.278   3.248   0.374 -0.2243 -0.4370  0.4851
 3803TIP3   OH232967   2.298   3.605   7.658  0.8944 -0.4650  0.2802
 3803TIP3    H132968   2.319   3.534   7.598  1.7791 -0.8375  1.0108
 3803TIP3    H232969   2.212   3.582   7.693  1.0629 -1.0451  0.3186
 3804TIP3   OH232970   1.187   0.023   1.771 -0.1289  0.0821  0.3352
 3804TIP3    H132971   1.094   0.016   1.752  0.0774  1.0282 -1.1630
 3804TIP3    H232972   1.200  -0.028   1.851 -1.9491  0.0832  0.6459
 3805TIP3   OH232973   1.194   0.608   1.632 -0.3441 -0.0292 -0.6048
 3805TIP3    H132974   1.115   0.639   1.588  0.4544  0.4197 -1.7187
 3805TIP3    H232975   1.211   0.674   1.700  0.9813  1.6695 -2.5491
 3806TIP3   OH232976   0.215   2.726   1.372 -0.1476 -0.3892 -0.1088
 3806TIP3    H132977   0.260   2.641   1.374 -0.1863 -0.3903  0.7566
 3806TIP3    H232978   0.179   2.737   1.460 -1.5091 -0.2057 -0.6679
 3807TIP3   OH232979   1.872   6.670   1.236 -0.4582  0.0955  0.2994
 3807TIP3    H132980   1.824   6.691   1.155 -0.0785  1.3777  0.3936
 3807TIP3    H232981   1.806   6.673   1.305 -0.5551  0.2120  0.2016
 3808TIP3   OH232982   6.470   5.768   1.499  0.0803  0.2403  0.0493
 3808TIP3    H132983   6.526   5.706   1.452  2.5920  1.5358  1.2562
 3808TIP3    H232984   6.531   5.824   1.547 -2.2157  2.4976  0.4222
 3809TIP3   OH232985   6.909   3.975   7.004 -0.0236  0.5336 -0.0883
 3809TIP3    H132986   6.827   3.983   6.955 -0.0991  2.6465  0.3474
 3809TIP3    H232987   6.978   3.983   6.938 -0.1178  3.8266  0.1346
 3810TIP3   OH232988   1.162   5.070   0.344  0.5807 -0.3114  0.0548
 3810TIP3    H132989   1.222   5.141   0.366  0.2375  0.2110 -0.6921
 3810TIP3    H232990   1.171   5.059   0.250 -2.6695  1.7762 -0.5783
 3811TIP3   OH232991   6.352   1.258   7.035 -0.1753  0.1229  0.0987
 3811TIP3    H132992   6.339   1.296   7.122 -2.8746 -0.3414 -0.0542
 3811TIP3    H232993   6.358   1.164   7.050 -0.6360  0.0426 -0.2147
 3812TIP3   OH232994   2.560   2.803   7.300  0.0763 -0.5273 -0.2315
 3812TIP3    H132995   2.581   2.892   7.272  0.4461 -0.2757  0.8250
 3812TIP3    H232996   2.634   2.750   7.270 -1.2041 -0.9010 -2.8872
 3813TIP3   OH232997   4.869   6.265   7.700 -0.3635  0.5525 -0.1696
 3813TIP3    H132998   4.826   6.213   7.633 -1.0836 -0.4945  1.0855
 3813TIP3    H232999   4.797   6.306   7.748  0.1853  2.4628 -0.9417
 3814TIP3   OH233000   4.787   2.049   0.450 -0.2784  0.2762  0.3584
 3814TIP3    H133001   4.862   2.058   0.508 -0.7164  2.9536  0.5469
 3814TIP3    H233002   4.715   2.025   0.508 -0.3282  1.1799  0.6755
 3815TIP3   OH233003   1.236   0.459   1.264  0.2905 -0.0838 -0.4508
 3815TIP3    H133004   1.294   0.384   1.275 -0.4584 -0.4426  1.2293
 3815TIP3    H233005   1.148   0.422   1.270 -0.0954  0.7994 -0.5414
 3816TIP3   OH233006   1.570   5.049   7.270 -0.6498  0.6241 -0.2870
 3816TIP3    H133007   1.519   5.119   7.310  0.1944  0.5654  0.9214
 3816TIP3    H233008   1.554   4.972   7.326  1.5632  0.8714  0.7330
 3817TIP3   OH233009   0.475   0.092   0.935 -0.4654  0.4627 -0.2337
 3817TIP3    H133010   0.521   0.106   0.852  0.3083 -0.1906  0.0798
 3817TIP3    H233011   0.447   0.179   0.963 -0.3823  0.7287 -0.9802
 3818TIP3   OH233012   5.982   5.718   7.864  0.4360 -0.2126  0.0712
 3818TIP3    H133013   5.945   5.806   7.867  0.2093 -0.2914 -0.4977
 3818TIP3    H233014   6.074   5.730   7.888  0.1651  0.0446  1.0007
 3819TIP3   OH233015   1.071   1.130   8.108  0.7378 -0.1112  0.0920
 3819TIP3    H133016   1.022   1.071   8.051  0.6863 -0.1396  0.1647
 3819TIP3    H233017   1.145   1.160   8.055  0.4742  0.1690 -0.1187
 3820TIP3   OH233018   1.257   1.508   7.409 -0.1260 -0.2909 -0.4844
 3820TIP3    H133019   1.332   1.464   7.449 -0.9666 -1.4126 -0.1245
 3820TIP3    H233020   1.255   1.476   7.319 -1.4011 -1.8761  0.0880
 3821TIP3   OH233021   5.286   3.518   7.262  0.3669  0.2861 -0.0555
 3821TIP3    H133022   5.350   3.447   7.265 -1.2326 -1.1247  1.9538
 3821TIP3    H233023   5.201   3.473   7.266 -0.6633  2.2932  1.0205
 3822TIP3   OH233024   2.620   1.446   6.467 -0.0525 -0.5272  0.3243
 3822TIP3    H133025   2.614   1.479   6.557  0.6863  0.1842  0.1137
 3822TIP3    H233026   2.676   1.509   6.422 -0.7383 -0.6676 -0.7363
 3823TIP3   OH233027   0.708   6.042   1.788 -0.0430 -0.2132 -0.2786
 3823TIP3    H133028   0.788   6.044   1.840 -0.4626  0.8993  0.3503
 3823TIP3    H233029   0.670   5.956   1.805  0.6462 -0.4663 -0.0155
 3824TIP3   OH233030   6.687   0.852   7.419  0.1699 -0.7915  0.2038
 3824TIP3    H133031   6.779   0.839   7.396  0.4910  1.1326  0.3118
 3824TIP3    H233032   6.689   0.892   7.506 -0.8819 -3.5206  1.5294
 3825TIP3   OH233033   0.099   2.413   6.654 -0.1172  0.1809  0.7178
 3825TIP3    H133034   0.045   2.335   6.663 -0.1528  0.1917  0.6009
 3825TIP3    H233035   0.075   2.469   6.728  2.2565 -1.3347  2.7246
 3826TIP3   OH233036   2.896   0.866   1.151 -0.4151 -0.6934 -0.0167
 3826TIP3    H133037   2.889   0.875   1.246  2.0161  0.8275  0.0447
 3826TIP3    H233038   2.980   0.823   1.137  1.2834  2.9240 -1.6099
 3827TIP3   OH233039   2.908   1.342   6.411 -0.2405 -0.2849  0.4721
 3827TIP3    H133040   2.859   1.261   6.427  0.9609 -1.1152 -0.0155
 3827TIP3    H233041   3.000   1.317   6.419  0.1397  1.0425  0.3460
 3828TIP3   OH233042   2.358   4.964   0.621  0.1893  0.0378 -0.2071
 3828TIP3    H133043   2.389   4.874   0.611  2.5327  0.8781 -0.8384
 3828TIP3    H233044   2.324   4.988   0.535 -0.9386 -0.4032  0.1045
 3829TIP3   OH233045   2.850   0.536   0.474  0.1945  0.0290 -0.4728
 3829TIP3    H133046   2.915   0.598   0.443  1.5712 -0.5690  1.1498
 3829TIP3    H233047   2.766   0.582   0.465  1.0194  1.4784 -0.8855
 3830TIP3   OH233048   5.191   1.999   7.128 -0.0637 -0.2659  0.3311
 3830TIP3    H133049   5.158   1.914   7.101  0.9900 -0.2683 -0.9699
 3830TIP3    H233050   5.144   2.062   7.072  0.4715 -0.1168  0.0474
 3831TIP3   OH233051   0.537   7.081   7.495  0.5925  0.8212 -0.6424
 3831TIP3    H133052   0.501   7.019   7.431 -0.5901 -0.5282  1.2659
 3831TIP3    H233053   0.466   7.093   7.558  2.3034  0.8101  1.3275
 3832TIP3   OH233054   1.712   3.194   0.410 -0.3106 -0.8393 -0.1072
 3832TIP3    H133055   1.711   3.269   0.470 -0.7319  1.7805 -3.2364
 3832TIP3    H233056   1.656   3.129   0.453 -2.7211  1.9224  1.1575
 3833TIP3   OH233057   0.888   6.025   8.022 -0.2863  0.4701 -0.6590
 3833TIP3    H133058   0.938   6.080   8.083 -1.7769 -0.2649  1.2865
 3833TIP3    H233059   0.949   5.958   7.994  0.6204  1.2290 -0.5291
 3834TIP3   OH233060   1.661   0.312   1.761  0.2591 -0.4846 -0.4123
 3834TIP3    H133061   1.611   0.247   1.811 -0.1302 -1.0919 -1.5745
 3834TIP3    H233062   1.635   0.297   1.670  1.6172  0.0297 -0.8911
 3835TIP3   OH233063   4.441   2.444   7.793 -0.3771  0.1797  0.0544
 3835TIP3    H133064   4.504   2.475   7.859 -0.1964  1.9580 -0.9168
 3835TIP3    H233065   4.472   2.483   7.711 -2.0361  0.0297 -0.6500
 3836TIP3   OH233066   1.697   2.870   0.874 -0.1349 -0.5138  0.0916
 3836TIP3    H133067   1.778   2.919   0.890  0.3275 -0.6583 -1.7161
 3836TIP3    H233068   1.675   2.831   0.959  1.0376  0.4952  0.8758
 3837TIP3   OH233069   2.395   2.308   6.910  0.2119  0.5766 -0.1146
 3837TIP3    H133070   2.423   2.230   6.957  0.2890 -0.1451 -1.3162
 3837TIP3    H233071   2.348   2.274   6.833 -0.4255  1.7196 -0.2478
 3838TIP3   OH233072   4.767   4.746   6.340  0.0125 -0.1256 -0.5192
 3838TIP3    H133073   4.836   4.732   6.275  0.6789  1.3740 -0.1534
 3838TIP3    H233074   4.733   4.833   6.321  0.1722  0.2961  1.0866
 3839TIP3   OH233075   1.074   1.224   0.248 -0.2029  0.2716 -0.0098
 3839TIP3    H133076   1.066   1.183   0.162  1.5945  1.5537 -0.8185
 3839TIP3    H233077   1.040   1.313   0.235  1.8827  1.1124  0.0702
 3840TIP3   OH233078   4.242   4.582   6.604 -0.1708 -0.0786  0.1789
 3840TIP3    H133079   4.152   4.559   6.582 -0.0613  0.4012 -0.8250
 3840TIP3    H233080   4.276   4.622   6.524  0.9465 -0.2951  0.5369
 3841TIP3   OH233081   0.471   0.885   2.224  0.0015 -0.1920 -0.3977
 3841TIP3    H133082   0.428   0.801   2.241 -1.0700  0.1132 -1.4844
 3841TIP3    H233083   0.403   0.950   2.244  0.6873  0.3975  0.0233
 3842TIP3   OH233084   0.801   0.872   6.415 -0.2999 -0.0724 -0.2467
 3842TIP3    H133085   0.896   0.879   6.399  0.0707 -0.1324  1.8334
 3842TIP3    H233086   0.785   0.932   6.487 -1.8133 -0.2608 -0.4273
 3843TIP3   OH233087   5.912   0.968   7.045 -0.4029 -0.4911  0.4207
 3843TIP3    H133088   5.900   0.969   7.140 -1.5693  0.1644  0.2778
 3843TIP3    H233089   5.957   1.050   7.025  2.7282 -2.0592  0.7336
 3844TIP3   OH233090   3.040   4.884   0.719  0.4577  0.0935  0.4548
 3844TIP3    H133091   3.010   4.864   0.808  0.0876  1.5304  0.6729
 3844TIP3    H233092   2.979   4.951   0.688  1.3325  0.4999 -0.4224
 3845TIP3   OH233093   5.208   6.169   7.194 -0.0081  0.1399  0.2063
 3845TIP3    H133094   5.193   6.166   7.289 -1.9171  0.5878 -0.0529
 3845TIP3    H233095   5.297   6.137   7.183 -0.6263 -2.3660  1.9587
 3846TIP3   OH233096   6.083   5.074   6.879 -0.4007 -0.1930 -0.1884
 3846TIP3    H133097   6.119   5.162   6.892 -0.1841 -0.5636  1.8576
 3846TIP3    H233098   5.988   5.086   6.877 -0.3375  0.2150 -1.0447
 3847TIP3   OH233099   6.848   5.672   1.060 -0.1876  0.2685 -0.0199
 3847TIP3    H133100   6.756   5.651   1.074 -0.1268  0.6438  0.9914
 3847TIP3    H233101   6.894   5.626   1.131  0.3980  0.1132 -0.4992
 3848TIP3   OH233102   0.977   5.998   6.520  0.5019 -0.0674  0.6783
 3848TIP3    H133103   0.919   6.057   6.470  1.4001 -0.6210 -1.0656
 3848TIP3    H233104   0.982   5.919   6.466  0.5166 -1.1721  2.2743
 3849TIP3   OH233105   4.929   6.795   0.330 -0.3513 -0.1906 -0.3407
 3849TIP3    H133106   4.911   6.784   0.424  1.5655 -2.2414 -0.1748
 3849TIP3    H233107   4.843   6.809   0.291 -1.3877 -1.2331  1.4944
 3850TIP3   OH233108   1.611   5.335   0.429 -0.3563 -0.4187 -0.7270
 3850TIP3    H133109   1.659   5.414   0.406 -0.3293  0.2931  1.6496
 3850TIP3    H233110   1.675   5.280   0.474 -1.1951 -0.3489  0.5904
 3851TIP3   OH233111   4.174   5.236   1.692  0.1270  0.0397  0.3527
 3851TIP3    H133112   4.148   5.156   1.738  0.8251 -0.5036 -0.1977
 3851TIP3    H233113   4.256   5.214   1.650  0.1992  0.9785 -0.0089
 3852TIP3   OH233114   0.377   1.595   0.054 -0.3449 -0.3732 -0.4542
 3852TIP3    H133115   0.421   1.650  -0.011  2.2239 -1.0138  0.6864
 3852TIP3    H233116   0.352   1.516   0.006  1.4128 -0.7810 -0.7428
 3853TIP3   OH233117   1.658   2.287   0.961 -0.1896 -0.3120 -0.3560
 3853TIP3    H133118   1.614   2.358   1.008 -2.8572  0.8395 -4.3406
 3853TIP3    H233119   1.751   2.308   0.968 -0.6309  0.8023  2.7557
 3854TIP3   OH233120   5.491   5.782   0.092 -0.4067  0.1175  0.3092
 3854TIP3    H133121   5.472   5.861   0.142 -0.2875 -0.0605  0.6402
 3854TIP3    H233122   5.426   5.718   0.122  0.1223 -0.2134  0.7818
 3855TIP3   OH233123   2.347   0.759   1.229 -0.1529  0.1830 -0.2121
 3855TIP3    H133124   2.378   0.669   1.223 -0.0395  0.2150 -0.1089
 3855TIP3    H233125   2.369   0.798   1.145  0.7829  0.4254  0.1423
 3856TIP3   OH233126   0.711   2.495   0.669 -0.7267 -0.2172 -0.1024
 3856TIP3    H133127   0.679   2.583   0.649 -0.6282 -0.5124 -1.6430
 3856TIP3    H233128   0.757   2.468   0.590 -4.6825 -3.4751 -1.4731
 3857TIP3   OH233129   3.433   4.483   1.456 -0.7615 -0.5050 -0.1290
 3857TIP3    H133130   3.474   4.428   1.523 -1.3454 -0.1627  0.5213
 3857TIP3    H233131   3.379   4.544   1.506 -0.1106  0.6655 -0.8474
 3858TIP3   OH233132   6.153   6.014   1.406 -0.1230 -0.5261 -0.0502
 3858TIP3    H133133   6.176   5.921   1.410  0.0341 -0.5503 -1.4814
 3858TIP3    H233134   6.160   6.044   1.497  0.9010 -1.6495  0.2563
 3859TIP3   OH233135   2.202   2.172   1.644 -0.1914 -0.3078 -0.4705
 3859TIP3    H133136   2.117   2.128   1.651 -0.1589 -0.0302  1.9502
 3859TIP3    H233137   2.184   2.263   1.666  1.0369 -0.6195  1.9435
 3860TIP3   OH233138   2.596   1.943   1.885 -0.0730 -0.5074 -0.2897
 3860TIP3    H133139   2.584   1.904   1.799  1.4252  0.2455 -0.8624
 3860TIP3    H233140   2.530   2.012   1.889 -0.1107 -0.5067 -0.8705
 3861TIP3   OH233141   1.407   6.839   1.008 -0.2187 -0.1546 -0.0767
 3861TIP3    H133142   1.421   6.773   1.076 -1.7213 -1.2833 -0.8228
 3861TIP3    H233143   1.313   6.853   1.006 -0.1488  0.2545 -1.5389
 3862TIP3   OH233144   0.557   3.662   7.500 -0.1996 -0.5942 -0.4935
 3862TIP3    H133145   0.642   3.628   7.526 -0.0990 -1.3986 -1.7918
 3862TIP3    H233146   0.494   3.600   7.538 -0.1499 -0.6925 -0.5728
 3863TIP3   OH233147   1.788   2.330   2.130 -0.7721  0.4252 -0.2582
 3863TIP3    H133148   1.850   2.316   2.058 -0.6442  2.0866 -0.4855
 3863TIP3    H233149   1.729   2.254   2.126  1.0040 -0.9884 -0.2607
 3864TIP3   OH233150   4.184   4.811   7.712 -0.3661  0.8391  0.2069
 3864TIP3    H133151   4.208   4.863   7.789  2.8909  0.8909 -0.7924
 3864TIP3    H233152   4.232   4.851   7.640 -0.9529 -1.1184 -1.3006
 3865TIP3   OH233153   6.775   6.313   6.914  0.0237  0.7625  0.0986
 3865TIP3    H133154   6.753   6.404   6.897  0.4392  0.5412 -1.7665
 3865TIP3    H233155   6.718   6.288   6.987 -2.8780  1.4391 -1.8434
 3866TIP3   OH233156   5.788   2.653   7.372  0.3880 -0.4754  0.1257
 3866TIP3    H133157   5.787   2.691   7.459  1.4336 -3.5033  1.5259
 3866TIP3    H233158   5.711   2.596   7.369 -1.6004  2.1949 -2.2088
 3867TIP3   OH233159   6.688   1.702   7.899  0.8137 -0.1783 -0.2717
 3867TIP3    H133160   6.755   1.770   7.907 -0.9487  1.5628  0.0823
 3867TIP3    H233161   6.612   1.738   7.945 -0.9910 -1.2891 -2.2992
 3868TIP3   OH233162   1.777   2.254   2.452  0.0461 -0.3526  0.3584
 3868TIP3    H133163   1.803   2.345   2.436 -1.2030  0.3041  1.9415
 3868TIP3    H233164   1.698   2.243   2.399  0.5576 -0.7125 -0.3287
 3869TIP3   OH233165   1.837   1.836   1.902 -0.3921  0.8344 -0.4562
 3869TIP3    H133166   1.768   1.901   1.912 -0.9009  0.2085  0.1305
 3869TIP3    H233167   1.794   1.763   1.857 -0.2151  0.2803  0.2721
 3870TIP3   OH233168   1.536   0.570   5.996 -0.0660  0.3470  0.3109
 3870TIP3    H133169   1.553   0.659   6.026 -1.3438  0.1450  1.6883
 3870TIP3    H233170   1.452   0.577   5.950 -0.7898 -0.3541  1.4909
 3871TIP3   OH233171   6.511   4.264   1.771  0.2775  0.0562  0.0434
 3871TIP3    H133172   6.549   4.345   1.804 -0.0272  0.7122 -1.2112
 3871TIP3    H233173   6.587   4.209   1.749  0.4847 -0.2894  1.5587
 3872TIP3   OH233174   3.046   3.490   0.031  0.0510 -0.8607  0.3866
 3872TIP3    H133175   3.066   3.533  -0.053 -0.2924 -0.5620  0.4580
 3872TIP3    H233176   2.998   3.411   0.006 -3.0183  0.9046  0.4437
 3873TIP3   OH233177   2.639   1.530   2.394 -0.7694  0.0267  0.1222
 3873TIP3    H133178   2.658   1.616   2.433  0.8696 -0.2604  0.0012
 3873TIP3    H233179   2.691   1.468   2.446  0.8343 -0.4544 -1.9846
 3874TIP3   OH233180   4.711   4.920   0.511  0.2535 -0.3794  0.0521
 3874TIP3    H133181   4.798   4.959   0.498 -0.3403  0.5331 -1.4354
 3874TIP3    H233182   4.714   4.838   0.463  0.2630 -0.2915 -0.0978
 3875TIP3   OH233183   3.753   5.997   0.923 -0.6700  0.1144  0.0972
 3875TIP3    H133184   3.763   5.902   0.916 -1.3436 -0.0030  0.6289
 3875TIP3    H233185   3.760   6.015   1.017  0.6916  0.7347 -0.1192
 3876TIP3   OH233186   1.117   3.217   6.947 -0.3736 -0.3802  0.2591
 3876TIP3    H133187   1.129   3.311   6.943 -0.5105 -0.1309  3.8397
 3876TIP3    H233188   1.202   3.180   6.924  0.1364  0.6714  0.4555
 3877TIP3   OH233189   0.599   6.221   6.852 -0.2335  0.2764  0.0285
 3877TIP3    H133190   0.547   6.154   6.807  1.0140 -0.9189  0.3403
 3877TIP3    H233191   0.682   6.178   6.872  0.8380  2.1037 -0.3099
 3878TIP3   OH233192   1.676   0.925   0.058  0.7277 -0.1471 -0.0107
 3878TIP3    H133193   1.735   0.873   0.112  0.2355 -1.5287 -0.7663
 3878TIP3    H233194   1.602   0.866   0.039 -0.9150  1.5499  0.9442
 3879TIP3   OH233195   2.232   7.088   7.537 -0.2629  0.1340  0.4459
 3879TIP3    H133196   2.169   7.140   7.588  0.6341  1.3892  0.2931
 3879TIP3    H233197   2.285   7.043   7.603  0.2829  1.0190  0.6201
 3880TIP3   OH233198   0.855   1.658   7.225 -0.4251 -0.3368 -0.1770
 3880TIP3    H133199   0.873   1.573   7.185  0.2069 -0.8793  1.2293
 3880TIP3    H233200   0.941   1.692   7.250 -0.8038 -0.0062  0.6963
 3881TIP3   OH233201   0.610   5.765   1.134 -0.2085  0.1725 -0.2293
 3881TIP3    H133202   0.521   5.742   1.160 -0.4445  0.5797 -0.6616
 3881TIP3    H233203   0.657   5.681   1.131 -0.7328 -0.1093 -0.5889
 3882TIP3   OH233204   2.685   5.307   0.978 -0.2806 -0.3789  0.1273
 3882TIP3    H133205   2.658   5.218   0.957  0.6446 -0.7452  0.4621
 3882TIP3    H233206   2.715   5.301   1.069  3.2001 -0.5150 -0.9918
 3883TIP3   OH233207   6.341   2.367   8.037 -0.1270  0.2929  0.7509
 3883TIP3    H133208   6.371   2.282   8.068 -1.4425 -0.1071  0.9471
 3883TIP3    H233209   6.313   2.414   8.115 -1.5798  0.0284  0.3996
 3884TIP3   OH233210   2.693   1.228   1.415  0.5286  0.2102 -0.4164
 3884TIP3    H133211   2.707   1.153   1.356  0.6255  0.1270 -0.2881
 3884TIP3    H233212   2.652   1.189   1.492  0.8689  0.2423 -0.2191
 3885TIP3   OH233213   1.962   0.761   7.422  0.2335 -0.0026 -0.5047
 3885TIP3    H133214   1.933   0.719   7.503  0.9140  1.6994  0.6409
 3885TIP3    H233215   1.901   0.833   7.409  0.6485  0.2578 -1.0381
 3886TIP3   OH233216   1.565   0.698   1.715  0.1215  0.1952 -0.3830
 3886TIP3    H133217   1.560   0.603   1.730  0.6520 -0.0056 -1.4032
 3886TIP3    H233218   1.481   0.732   1.745  0.4873 -0.3930  1.4042
 3887TIP3   OH233219   1.627   6.941   0.330  0.3021  0.0317  0.2576
 3887TIP3    H133220   1.595   6.853   0.349  0.1549  0.4605  2.1446
 3887TIP3    H233221   1.690   6.959   0.400  0.3995  1.3736 -0.1674
 3888TIP3   OH233222   3.406   1.355   6.755 -0.2540 -0.1852 -0.0577
 3888TIP3    H133223   3.436   1.303   6.829  1.6978 -0.1257 -0.7802
 3888TIP3    H233224   3.346   1.297   6.708 -0.0439 -0.8850  0.5311
 3889TIP3   OH233225   2.216   1.674   0.766 -0.2459 -0.1347  0.1513
 3889TIP3    H133226   2.292   1.732   0.766 -0.4432  0.1218 -0.0921
 3889TIP3    H233227   2.251   1.589   0.794  0.3900 -0.3621 -1.2839
 3890TIP3   OH233228   6.785   1.217   7.606 -0.2861  0.3709  0.2829
 3890TIP3    H133229   6.738   1.269   7.671  0.2264  1.3918 -0.1560
 3890TIP3    H233230   6.738   1.232   7.524  0.2741  0.7066  0.0181
 3891TIP3   OH233231   1.232   1.902   1.058 -0.1900  0.3214 -0.6896
 3891TIP3    H133232   1.223   1.992   1.025 -0.1532  0.6215  0.1014
 3891TIP3    H233233   1.287   1.911   1.137 -0.0620 -0.4133 -0.6916
 3892TIP3   OH233234   1.247   1.263   0.920 -0.6200  0.0291  0.1228
 3892TIP3    H133235   1.213   1.194   0.863  0.3511 -0.8878  0.6400
 3892TIP3    H233236   1.179   1.274   0.987 -0.9028 -0.2204 -0.1185
 3893TIP3   OH233237   0.618   4.064   1.126  0.3890  0.4316 -0.0295
 3893TIP3    H133238   0.698   4.114   1.138 -0.2995  0.9571  2.8907
 3893TIP3    H233239   0.556   4.103   1.189 -2.1490  0.0346 -2.1872
 3894TIP3   OH233240   0.438   4.956   1.251  0.7404  0.8578  0.0881
 3894TIP3    H133241   0.414   4.978   1.161 -1.4722  1.7684  0.8616
 3894TIP3    H233242   0.483   5.034   1.284 -0.0225  1.2143  0.3079
 3895TIP3   OH233243   5.597   2.714   0.627  0.4528 -0.2700 -0.0757
 3895TIP3    H133244   5.614   2.671   0.711 -0.5558 -2.1541 -0.7953
 3895TIP3    H233245   5.523   2.772   0.644  2.3601  1.8598  1.1117
 3896TIP3   OH233246   1.721   0.915   6.218 -0.3395 -0.1201 -0.9091
 3896TIP3    H133247   1.626   0.906   6.213 -0.5759  1.9583 -0.7530
 3896TIP3    H233248   1.754   0.825   6.217 -2.3048 -0.8694 -0.8198
 3897TIP3   OH233249   5.193   2.203   6.939  0.0288 -0.3648  0.4678
 3897TIP3    H133250   5.179   2.287   6.983 -0.5408  0.0149 -0.4143
 3897TIP3    H233251   5.108   2.184   6.898  0.0669 -1.5136  0.8925
 3898TIP3   OH233252   2.333   6.944   7.756  0.1508 -0.3942  0.1447
 3898TIP3    H133253   2.408   6.954   7.815 -0.6707  0.7310  1.0292
 3898TIP3    H233254   2.299   6.857   7.776  1.8694 -1.3605 -1.0432
 3899TIP3   OH233255   0.991   1.127   7.780 -0.0446 -0.2191 -0.7695
 3899TIP3    H133256   0.981   1.220   7.801  1.7277 -0.4972  1.3796
 3899TIP3    H233257   0.915   1.085   7.821 -0.3069  0.1405 -0.8823
 3900TIP3   OH233258   6.237   5.532   0.337  0.6792 -0.4888  0.2743
 3900TIP3    H133259   6.332   5.535   0.329  0.8584 -1.1318  1.9936
 3900TIP3    H233260   6.216   5.596   0.405 -0.0566 -0.8243  0.3695
 3901TIP3   OH233261   3.678   1.518   0.544  0.5261 -0.0486  0.0468
 3901TIP3    H133262   3.700   1.426   0.526  2.4483  0.3898  0.0484
 3901TIP3    H233263   3.705   1.532   0.634  3.5648  1.4587 -1.0431
 3902TIP3   OH233264   0.255   5.585   6.564 -0.2652  0.4407  0.1998
 3902TIP3    H133265   0.193   5.561   6.632 -1.0764  1.6681 -0.0895
 3902TIP3    H233266   0.203   5.635   6.501  0.9360  1.1744 -0.2254
 3903TIP3   OH233267   4.909   2.214   0.114  1.0287 -0.2191  0.2208
 3903TIP3    H133268   4.864   2.236   0.033  1.5922  2.7966  0.6463
 3903TIP3    H233269   4.844   2.231   0.183  1.6274  0.5450  0.6047
 3904TIP3   OH233270   0.840   5.589   1.222  0.0616  0.3725 -0.2744
 3904TIP3    H133271   0.853   5.669   1.273  0.8293 -0.4516  0.8316
 3904TIP3    H233272   0.910   5.592   1.156  0.2751  0.4632 -0.0457
 3905TIP3   OH233273   1.184   3.322   6.326 -0.0888  0.6526 -0.3636
 3905TIP3    H133274   1.114   3.320   6.260  0.0076  0.8924 -0.4708
 3905TIP3    H233275   1.263   3.296   6.278 -0.2255 -0.2611 -0.0985
 3906TIP3   OH233276   6.963   1.586   7.636 -0.1483 -0.2329  0.0989
 3906TIP3    H133277   7.032   1.531   7.673 -0.8301 -1.7167 -0.7736
 3906TIP3    H233278   7.010   1.656   7.592  0.8856 -1.7974 -1.3788
 3907TIP3   OH233279   6.669   2.137   0.917 -0.8186 -0.0121  0.3663
 3907TIP3    H133280   6.654   2.230   0.930  0.9953  0.4404 -0.7492
 3907TIP3    H233281   6.755   2.120   0.954 -1.6037 -1.4941  1.6071
 3908TIP3   OH233282   3.486   2.872   6.578  0.0595 -0.0737  0.0222
 3908TIP3    H133283   3.523   2.827   6.502  3.3140  1.0184  0.8317
 3908TIP3    H233284   3.487   2.965   6.554  1.7472  0.3535  1.5755
 3909TIP3   OH233285   3.804   6.279   0.870 -0.7249 -0.1068  0.1578
 3909TIP3    H133286   3.794   6.184   0.876 -0.8454 -0.1309 -0.3456
 3909TIP3    H233287   3.889   6.297   0.911  1.6394 -0.9917 -4.0003
 3910TIP3   OH233288   1.884   6.194   1.490 -0.3202 -0.2604 -0.2563
 3910TIP3    H133289   1.877   6.215   1.583 -1.3144  0.2998 -0.4584
 3910TIP3    H233290   1.978   6.179   1.476 -0.0883  0.2796  0.6970
 3911TIP3   OH233291   2.468   0.122   6.292 -0.2841  0.6103 -0.3163
 3911TIP3    H133292   2.379   0.150   6.269 -0.7368 -1.6645 -1.3732
 3911TIP3    H233293   2.525   0.182   6.244 -1.2468  0.6524 -1.4299
 3912TIP3   OH233294   0.943   3.589   1.138  0.3643 -0.0452 -0.7028
 3912TIP3    H133295   0.952   3.633   1.222 -1.0182 -1.6141  0.3030
 3912TIP3    H233296   1.017   3.621   1.086  0.4775  1.9775  0.6224
 3913TIP3   OH233297   2.205   0.952   2.194 -0.2203 -0.3669 -0.3041
 3913TIP3    H133298   2.223   0.870   2.240  2.2367 -0.5670 -1.5895
 3913TIP3    H233299   2.215   1.019   2.261  2.3759 -0.7420 -0.2748
 3914TIP3   OH233300   1.033   0.987   1.593 -0.2991  0.6011  0.2297
 3914TIP3    H133301   0.940   0.985   1.618 -0.2443  0.5912  0.4278
 3914TIP3    H233302   1.033   0.957   1.502 -0.4458  0.1886  0.3613
 3915TIP3   OH233303   4.085   1.446   8.052  0.1017 -0.6784 -0.4048
 3915TIP3    H133304   4.063   1.523   8.104  2.1952  0.5911 -1.3154
 3915TIP3    H233305   4.100   1.377   8.116  3.4813  1.0746  0.7990
 3916TIP3   OH233306   4.267   6.992   0.061 -0.1074 -0.0843 -0.0776
 3916TIP3    H133307   4.172   6.986   0.063 -0.0612 -1.4444 -1.1592
 3916TIP3    H233308   4.289   7.052   0.132 -1.7163 -0.2960  0.6178
 3917TIP3   OH233309   4.430   1.490   0.316 -0.1953  0.2625  0.4502
 3917TIP3    H133310   4.524   1.502   0.332  0.2816  0.0671 -1.9494
 3917TIP3    H233311   4.419   1.395   0.307 -0.7368  0.2371  1.3699
 3918TIP3   OH233312   0.458   0.299   7.700  0.4425 -0.0117 -0.4822
 3918TIP3    H133313   0.550   0.309   7.678  0.2868 -0.5203 -1.3690
 3918TIP3    H233314   0.426   0.388   7.713  0.7199  0.2391 -1.5433
 3919TIP3   OH233315   5.554   2.157   0.781  0.2640 -0.0319 -0.2508
 3919TIP3    H133316   5.531   2.205   0.860  1.4696  1.7167 -0.9272
 3919TIP3    H233317   5.471   2.141   0.737 -0.0377  2.8388 -0.7892
 3920TIP3   OH233318   2.694   3.655   0.086  1.0339  0.0544 -0.4056
 3920TIP3    H133319   2.717   3.730   0.140  3.1647 -1.4443  0.8336
 3920TIP3    H233320   2.706   3.685  -0.004 -0.7152  1.9829 -0.0366
 3921TIP3   OH233321   5.387   1.662   2.185 -0.6180  0.1448  0.2137
 3921TIP3    H133322   5.434   1.586   2.217 -0.8723  0.3731  1.1529
 3921TIP3    H233323   5.303   1.628   2.154 -1.5614  0.2961  2.5223
 3922TIP3   OH233324   5.648   4.878   0.826  0.2271  0.6111 -0.5945
 3922TIP3    H133325   5.689   4.797   0.854  0.8869  1.4371  0.8845
 3922TIP3    H233326   5.557   4.871   0.854  0.3686  0.5285 -0.1618
 3923TIP3   OH233327   1.518   3.899   6.271 -0.5094  0.3908  0.1092
 3923TIP3    H133328   1.532   3.911   6.365  1.1710  2.1847 -0.3286
 3923TIP3    H233329   1.424   3.911   6.259 -0.7171  0.3493  1.5228
 3924TIP3   OH233330   2.997   1.198   0.507 -0.7219  0.2521 -0.7943
 3924TIP3    H133331   2.907   1.169   0.496 -1.1673  1.6129 -0.8763
 3924TIP3    H233332   3.014   1.255   0.432  0.9363 -1.7024 -1.9358
 3925TIP3   OH233333   2.040   6.710   6.911 -0.4104  0.1274  0.2240
 3925TIP3    H133334   1.993   6.629   6.892  1.9616 -1.4511  0.9051
 3925TIP3    H233335   2.024   6.766   6.835 -1.0021 -1.4632 -0.8444
 3926TIP3   OH233336   2.204   6.103   2.195 -0.5289  0.1664 -0.2428
 3926TIP3    H133337   2.148   6.177   2.172 -3.6971 -2.0281  0.1458
 3926TIP3    H233338   2.268   6.140   2.256 -2.6271  2.4002  0.6950
 3927TIP3   OH233339   0.174   0.998   0.279  0.2808 -0.0393 -0.4168
 3927TIP3    H133340   0.198   1.026   0.368  0.0343 -1.7698  0.2159
 3927TIP3    H233341   0.257   0.989   0.233  0.5006 -0.5559  0.0824
 3928TIP3   OH233342   2.020   0.960   6.282  0.0458 -0.1949 -0.1606
 3928TIP3    H133343   2.094   0.981   6.224  0.6256  1.1061  1.0236
 3928TIP3    H233344   1.948   1.014   6.249 -0.2306 -1.0243 -0.9502
 3929TIP3   OH233345   2.314   6.684   7.853 -0.7926 -0.1672  0.3505
 3929TIP3    H133346   2.380   6.617   7.867 -1.9184 -1.6472 -1.1727
 3929TIP3    H233347   2.250   6.671   7.923  0.1321  0.7730  1.3740
 3930TIP3   OH233348   7.040   1.791   1.292 -0.6719 -0.2240 -0.1003
 3930TIP3    H133349   7.102   1.843   1.240 -0.7872  0.1134  0.0965
 3930TIP3    H233350   6.959   1.793   1.242 -0.7019 -0.1413 -0.0475
 3931TIP3   OH233351   4.935   3.537   1.391  0.6163 -0.7598  0.1412
 3931TIP3    H133352   4.887   3.519   1.472  1.8637 -1.1095  0.8134
 3931TIP3    H233353   4.992   3.610   1.413  1.5314 -1.3702 -0.1977
 3932TIP3   OH233354   1.688   1.346   7.119  0.0987 -0.2501  0.1126
 3932TIP3    H133355   1.668   1.391   7.037 -1.3189  0.5294  0.8564
 3932TIP3    H233356   1.726   1.263   7.093  1.0265  0.6058 -1.3147
 3933TIP3   OH233357   2.383   1.395   7.581  0.7569 -0.4228 -0.2676
 3933TIP3    H133358   2.345   1.424   7.499  0.4552  1.4601  0.5218
 3933TIP3    H233359   2.449   1.330   7.555 -0.6097 -1.2214 -1.8478
 3934TIP3   OH233360   3.211   1.427   1.121 -0.2199  0.3171  0.2835
 3934TIP3    H133361   3.230   1.334   1.115 -0.0194 -0.1078  5.3458
 3934TIP3    H233362   3.294   1.467   1.148 -0.9435  1.5769  0.6994
 3935TIP3   OH233363   1.092   1.138   0.732  0.1225  0.5921  0.2895
 3935TIP3    H133364   1.082   1.231   0.712  0.0031  0.5845  0.3123
 3935TIP3    H233365   1.060   1.093   0.654 -2.4074  0.5248  1.3403
 3936TIP3   OH233366   6.014   1.528   7.065 -0.6162  0.2131 -0.1484
 3936TIP3    H133367   5.998   1.616   7.099 -0.6380  0.0135  0.3697
 3936TIP3    H233368   5.935   1.507   7.015 -1.0422  0.1020  0.5534
 3937TIP3   OH233369   5.056   3.981   6.518  0.0896 -0.3810  0.5225
 3937TIP3    H133370   5.075   3.962   6.426 -0.2552  0.8907  0.1821
 3937TIP3    H233371   5.089   3.905   6.566  3.7355  0.6440 -0.2742
 3938TIP3   OH233372   3.925   1.060   6.811 -0.2271 -0.3589 -0.3731
 3938TIP3    H133373   3.893   1.147   6.787 -0.6831 -0.5501 -0.4672
 3938TIP3    H233374   4.007   1.050   6.763  1.4639  1.2877  2.0694
 3939TIP3   OH233375   3.544   6.527   0.681 -0.0293 -0.0893 -0.1751
 3939TIP3    H133376   3.497   6.448   0.705  1.8851 -1.5573 -1.0793
 3939TIP3    H233377   3.550   6.578   0.761 -2.4090 -0.2491  0.1223
 3940TIP3   OH233378   5.101   0.724   1.740 -0.0449 -0.6619  0.0027
 3940TIP3    H133379   5.112   0.640   1.785 -0.9789 -0.8752 -0.1439
 3940TIP3    H233380   5.009   0.747   1.755 -0.4112 -0.8000 -1.8921
 3941TIP3   OH233381   3.103   3.470   6.448  0.0451 -0.3249  0.0912
 3941TIP3    H133382   3.015   3.506   6.438 -0.1933 -0.8172  0.3795
 3941TIP3    H233383   3.101   3.425   6.533  1.1528  1.3085  1.0065
 3942TIP3   OH233384   2.382   2.208   0.445 -0.1860  0.6481 -0.5107
 3942TIP3    H133385   2.452   2.169   0.498 -0.9156  0.6091  0.4428
 3942TIP3    H233386   2.375   2.298   0.476 -2.3239 -0.0680  1.2941
 3943TIP3   OH233387   3.174   0.251   6.822 -0.0247  0.0084  0.0154
 3943TIP3    H133388   3.153   0.191   6.751 -1.7005  1.6755 -0.9245
 3943TIP3    H233389   3.090   0.291   6.846  0.5215 -0.4172  2.8504
 3944TIP3   OH233390   6.620   2.262   1.190  0.3475  0.1292 -0.5968
 3944TIP3    H133391   6.713   2.254   1.171  0.4922  1.3490 -0.4764
 3944TIP3    H233392   6.591   2.335   1.134 -0.1632  0.8795  0.6209
 3945TIP3   OH233393   4.029   0.140   0.865  0.5389 -0.1200 -0.4850
 3945TIP3    H133394   3.938   0.113   0.880  0.0149  1.2776 -1.1180
 3945TIP3    H233395   4.036   0.225   0.908  1.4829 -0.0920 -0.6939
 3946TIP3   OH233396   3.465   4.665   0.172 -0.1536 -0.0731  0.2548
 3946TIP3    H133397   3.449   4.572   0.159 -0.1207 -0.1989  1.0692
 3946TIP3    H233398   3.465   4.703   0.084  0.3667 -0.9270 -0.1194
 3947TIP3   OH233399   1.393   1.576   1.334  0.1464 -0.0789  0.4871
 3947TIP3    H133400   1.420   1.499   1.284  1.0711  1.8456 -2.0681
 3947TIP3    H233401   1.472   1.604   1.381  0.0980 -0.0103  0.5282
 3948TIP3   OH233402   3.482   2.532   1.664  0.1777 -0.3627  0.3108
 3948TIP3    H133403   3.459   2.513   1.755  0.0889  0.8398  0.5449
 3948TIP3    H233404   3.570   2.568   1.669  0.7003 -1.5365 -0.2231
 3949TIP3   OH233405   3.809   3.049   7.647  0.2714 -0.0990  0.1831
 3949TIP3    H133406   3.731   3.101   7.667  1.3129  1.3259  0.5915
 3949TIP3    H233407   3.830   3.072   7.556  1.9053  1.7802  0.9965
 3950TIP3   OH233408   0.350   0.908   1.342  1.0630  0.2962  0.3077
 3950TIP3    H133409   0.302   0.857   1.407  0.7322  0.9422  0.5797
 3950TIP3    H233410   0.305   0.891   1.260  1.3973 -0.4180  0.2697
 3951TIP3   OH233411   1.188   0.892   7.800  0.6358  0.0678 -0.2646
 3951TIP3    H133412   1.263   0.862   7.852  1.1405  3.1273  0.8843
 3951TIP3    H233413   1.197   0.988   7.798 -2.2053  0.3633 -1.7319
 3952TIP3   OH233414   1.313   1.326   0.156  0.2425  0.7048  0.4095
 3952TIP3    H133415   1.386   1.267   0.174  0.7059  1.2329  0.2890
 3952TIP3    H233416   1.241   1.292   0.208  0.9817  1.0084  1.6587
 3953TIP3   OH233417   3.770   3.552   7.567  0.1919 -0.6429 -0.5664
 3953TIP3    H133418   3.844   3.612   7.567  0.7347 -1.3033 -0.3751
 3953TIP3    H233419   3.807   3.469   7.597 -0.3462 -1.3010 -1.6646
 3954TIP3   OH233420   2.720   1.313   6.958 -0.2750 -0.4194 -0.1475
 3954TIP3    H133421   2.696   1.223   6.980 -0.0521 -0.4788 -0.1459
 3954TIP3    H233422   2.636   1.357   6.944 -0.3466 -0.9684 -1.5405
 3955TIP3   OH233423   5.201   1.974   0.719  0.1031  0.1241 -0.0348
 3955TIP3    H133424   5.269   1.988   0.653  1.4901  0.7512  1.4839
 3955TIP3    H233425   5.184   1.880   0.718 -0.2855  0.1994 -1.6440
 3956TIP3   OH233426   3.461   6.280   0.005  0.2319  0.1384 -0.5981
 3956TIP3    H133427   3.412   6.361   0.012 -1.4480 -1.0610  2.5508
 3956TIP3    H233428   3.528   6.287   0.073 -0.0531 -1.1700 -0.1677
 3957TIP3   OH233429   3.839   6.438   1.960  0.6783  0.4866  0.1839
 3957TIP3    H133430   3.895   6.376   1.914  0.1736 -0.9657  1.5169
 3957TIP3    H233431   3.872   6.439   2.050  0.0486  1.4103  0.4193
 3958TIP3   OH233432   1.035   1.500   7.787 -0.3676 -0.2719  0.1126
 3958TIP3    H133433   1.031   1.517   7.693 -1.0777  0.7714  0.3116
 3958TIP3    H233434   0.970   1.431   7.802  1.8324 -2.5360 -0.5674
 3959TIP3   OH233435   4.459   1.583   7.380  0.1433  0.2954 -0.0433
 3959TIP3    H133436   4.535   1.628   7.343  0.1439 -1.3684 -2.1438
 3959TIP3    H233437   4.485   1.491   7.383 -0.6718  0.0906  2.1571
 3960TIP3   OH233438   1.132   3.566   7.280  0.3304 -0.1436 -0.8220
 3960TIP3    H133439   1.165   3.537   7.365  0.8930 -0.5553 -1.1703
 3960TIP3    H233440   1.049   3.520   7.270 -0.2778  0.7763 -0.0042
 3961TIP3   OH233441   0.973   0.806   1.850 -0.7143 -0.0590  0.6188
 3961TIP3    H133442   0.961   0.900   1.835  0.2560 -0.1554 -0.7941
 3961TIP3    H233443   0.991   0.770   1.763  1.9764 -1.0938  1.5579
 3962TIP3   OH233444   4.658   1.497   0.918 -0.5656  0.0467 -0.0841
 3962TIP3    H133445   4.593   1.471   0.854  0.8626 -2.7727 -0.4771
 3962TIP3    H233446   4.662   1.424   0.980  0.4316  1.2585  1.3307
 3963TIP3   OH233447   4.687   2.284   7.000 -0.1160 -0.0658  0.7542
 3963TIP3    H133448   4.662   2.371   6.969  0.2708 -0.1953  0.0447
 3963TIP3    H233449   4.622   2.225   6.962  0.4073 -0.2349  0.0991
 3964TIP3   OH233450   2.246   5.107   1.781 -0.1747 -0.2252  0.1758
 3964TIP3    H133451   2.184   5.070   1.844 -0.5870 -0.4372 -0.3525
 3964TIP3    H233452   2.330   5.071   1.808 -0.4044 -0.6320  0.3683
 3965TIP3   OH233453   5.509   3.542   0.237  0.1795  0.8549  0.0203
 3965TIP3    H133454   5.556   3.460   0.223 -1.0470  0.1403  0.0179
 3965TIP3    H233455   5.460   3.556   0.156 -1.5032  0.3138  0.9224
 3966TIP3   OH233456   3.476   0.093   1.675 -0.1852  0.3647 -0.0142
 3966TIP3    H133457   3.535   0.085   1.601 -0.7815 -2.6093 -0.2145
 3966TIP3    H233458   3.533   0.088   1.752  0.0825  0.2213 -0.2231
 3967TIP3   OH233459   4.789   6.236   1.579 -0.3394 -0.5774 -0.6318
 3967TIP3    H133460   4.730   6.186   1.523 -1.2814  0.7439 -0.8618
 3967TIP3    H233461   4.813   6.313   1.526  0.6331 -0.4963 -0.0904
 3968TIP3   OH233462   5.165   2.534   1.855 -0.1227  0.0205 -0.3020
 3968TIP3    H133463   5.145   2.460   1.797  0.4598  0.8684 -1.5727
 3968TIP3    H233464   5.118   2.608   1.817  0.2743  0.5820  0.2969
 3969TIP3   OH233465   5.125   4.393   1.484 -0.8945 -0.1526  0.1180
 3969TIP3    H133466   5.141   4.320   1.543  1.8508  0.3373  0.0371
 3969TIP3    H233467   5.105   4.467   1.541  0.0216 -0.0940  0.3667
 3970TIP3   OH233468   3.704   5.886   2.175 -0.5320 -0.3742  0.4659
 3970TIP3    H133469   3.745   5.801   2.165 -2.2238 -1.2654  0.9006
 3970TIP3    H233470   3.647   5.894   2.098 -2.4456 -0.8535  1.7920
 3971TIP3   OH233471   1.694   2.674   0.661  0.3926 -0.4648  0.7238
 3971TIP3    H133472   1.608   2.647   0.694  0.8162 -1.1096  1.3115
 3971TIP3    H233473   1.724   2.740   0.723  0.0793  0.1701  0.2046
 3972TIP3   OH233474   4.846   1.071   7.076 -0.2215 -0.4017  0.6299
 3972TIP3    H133475   4.776   1.069   7.142  0.4566 -0.1465  1.3725
 3972TIP3    H233476   4.924   1.094   7.126  0.5542 -1.5067 -0.0434
 3973TIP3   OH233477   4.939   5.576   0.571 -0.2392  0.1722 -0.3103
 3973TIP3    H133478   4.848   5.591   0.545 -1.0178  0.7669  2.5173
 3973TIP3    H233479   4.967   5.501   0.518 -2.4849 -0.2200 -1.0166
 3974TIP3   OH233480   5.450   4.095   0.727 -0.0595  0.2441  0.2833
 3974TIP3    H133481   5.393   4.018   0.727  1.4687 -0.9172  0.6275
 3974TIP3    H233482   5.506   4.083   0.804  0.0805  1.8121  0.4545
 3975TIP3   OH233483   2.527   0.729   7.061  0.3579  0.5744 -0.2313
 3975TIP3    H133484   2.475   0.725   7.141  2.0785  1.3376  0.9736
 3975TIP3    H233485   2.604   0.781   7.085  1.3293  0.0905 -2.1483
 3976TIP3   OH233486   5.708   6.628   8.079  0.3187 -0.7701 -0.6832
 3976TIP3    H133487   5.790   6.677   8.088  0.4834 -1.5526  2.7845
 3976TIP3    H233488   5.641   6.696   8.070  1.1148 -0.0485 -1.2056
 3977TIP3   OH233489   3.998   0.129   7.319  0.6190 -0.4768 -0.3932
 3977TIP3    H133490   3.990   0.068   7.392  0.8099  0.5181  0.4610
 3977TIP3    H233491   4.039   0.206   7.356  0.9588 -0.0591 -1.6149
 3978TIP3   OH233492   1.930   0.918   2.152 -1.1003 -0.0921  0.5840
 3978TIP3    H133493   1.896   1.006   2.172 -2.5498 -0.1588 -1.4290
 3978TIP3    H233494   2.020   0.933   2.123 -1.7494  0.8759 -0.9761
 3979TIP3   OH233495   6.852   2.960   1.134  0.0270  0.4702 -0.2070
 3979TIP3    H133496   6.896   3.032   1.180  3.0402 -1.7889  0.6287
 3979TIP3    H233497   6.919   2.925   1.076 -2.0637 -0.3139 -2.1953
 3980TIP3   OH233498   0.232   5.338   8.081 -0.6611  0.2728 -0.1701
 3980TIP3    H133499   0.155   5.391   8.101 -0.7119 -0.8398  2.6830
 3980TIP3    H233500   0.223   5.260   8.135  2.3547  0.0165  0.0342
 3981TIP3   OH233501   3.233   4.423   0.483 -0.8124 -0.0499 -0.0265
 3981TIP3    H133502   3.155   4.407   0.537  1.1246  0.9769  3.2216
 3981TIP3    H233503   3.299   4.363   0.518 -0.2245 -1.2773 -3.0821
 3982TIP3   OH233504   0.122   6.599   8.032  0.1844  0.3281 -0.1180
 3982TIP3    H133505   0.175   6.538   8.084 -0.1519 -1.0584 -1.3613
 3982TIP3    H233506   0.036   6.596   8.073 -0.0746 -0.7472 -0.7196
 3983TIP3   OH233507   2.790   0.136   7.875 -0.2535 -0.0491 -0.2670
 3983TIP3    H133508   2.702   0.156   7.905 -0.3865 -0.6618 -0.2443
 3983TIP3    H233509   2.791   0.164   7.783 -0.0664  1.1560  0.0983
 3984TIP3   OH233510   1.963   2.170   0.201 -1.0609  0.0286  0.3975
 3984TIP3    H133511   2.023   2.216   0.142 -0.0821 -0.2960  1.1340
 3984TIP3    H233512   1.882   2.162   0.150 -1.2125  2.3902  0.1763
 3985TIP3   OH233513   4.922   5.721   8.067 -0.4482 -0.1305  0.5378
 3985TIP3    H133514   4.883   5.794   8.114 -0.8897 -0.0761  0.0972
 3985TIP3    H233515   4.870   5.645   8.094  0.2199 -0.3366  1.2463
 3986TIP3   OH233516   2.168   4.705   1.464  0.1812  0.1584 -0.3099
 3986TIP3    H133517   2.121   4.755   1.531 -0.0147 -2.9254  1.9639
 3986TIP3    H233518   2.204   4.630   1.511  1.5225 -1.2031 -3.3699
 3987TIP3   OH233519   3.371   3.295   7.580 -0.0847 -0.1610  0.1107
 3987TIP3    H133520   3.415   3.252   7.507  0.6787  0.0842  0.4250
 3987TIP3    H233521   3.288   3.326   7.543 -0.1540 -0.9301 -0.3935
 3988TIP3   OH233522   1.170   2.438   7.684  0.2206  0.1451 -0.2414
 3988TIP3    H133523   1.165   2.524   7.642 -4.3049  0.6621  1.0746
 3988TIP3    H233524   1.145   2.376   7.615 -2.0412  0.4872  0.2325
 3989TIP3   OH233525   5.370   3.831   1.111 -0.0156 -0.2949 -0.2544
 3989TIP3    H133526   5.371   3.893   1.185 -0.0602  1.0850 -1.3797
 3989TIP3    H233527   5.437   3.767   1.133  1.7106  1.4877 -0.1151
 3990TIP3   OH233528   3.198   1.998   2.527  0.2116 -0.9823  0.3827
 3990TIP3    H133529   3.217   1.919   2.477  2.0054 -0.4892  0.2429
 3990TIP3    H233530   3.126   2.039   2.480 -1.2288 -2.8795  0.8636
 3991TIP3   OH233531   0.201   0.322   8.035 -0.0359 -0.4413 -0.8637
 3991TIP3    H133532   0.266   0.382   8.070 -1.2762  1.8304 -2.3123
 3991TIP3    H233533   0.127   0.329   8.095  0.2284 -1.3943 -0.4148
 3992TIP3   OH233534   1.520   6.312   0.020  0.2157  0.0254 -0.1457
 3992TIP3    H133535   1.469   6.390   0.041  1.8296  1.6718 -2.0803
 3992TIP3    H233536   1.552   6.327  -0.069  4.8251 -0.4318  1.2637
 3993TIP3   OH233537   6.272   3.465   1.374 -0.5873 -0.4503 -0.2337
 3993TIP3    H133538   6.353   3.423   1.347 -1.6937 -2.1382 -1.0043
 3993TIP3    H233539   6.297   3.522   1.447  1.3743 -0.5165 -0.8516
 3994TIP3   OH233540   3.541   1.799   1.286  0.0105 -0.2411  0.0697
 3994TIP3    H133541   3.619   1.853   1.274 -0.9864  1.1692 -0.1742
 3994TIP3    H233542   3.535   1.787   1.381 -0.2985  0.9018  0.2037
 3995TIP3   OH233543   1.586   0.582   6.469  0.4214  0.0199 -0.4818
 3995TIP3    H133544   1.584   0.531   6.550 -1.4330 -0.2758 -0.6984
 3995TIP3    H233545   1.513   0.549   6.417  0.5087  1.4277 -1.5460
 3996TIP3   OH233546   4.557   2.661   1.533 -0.2521  0.4759 -0.1518
 3996TIP3    H133547   4.466   2.685   1.522 -0.1055  0.5903 -1.1657
 3996TIP3    H233548   4.556   2.590   1.597 -0.9872  0.8997  0.3124
 3997TIP3   OH233549   1.873   2.685   0.205  0.4397  0.3841  0.4122
 3997TIP3    H133550   1.949   2.667   0.150 -0.2055  1.2652 -0.7831
 3997TIP3    H233551   1.886   2.775   0.235  0.2970  0.2406  0.9100
 3998TIP3   OH233552   2.616   2.583   7.855 -0.2924 -0.3005  0.4287
 3998TIP3    H133553   2.559   2.536   7.793 -0.2867  0.2624 -0.0045
 3998TIP3    H233554   2.694   2.605   7.803  0.2308 -0.8648  0.9565
 3999TIP3   OH233555   4.687   2.463   1.042 -0.3434  0.2597 -0.5618
 3999TIP3    H133556   4.631   2.507   0.977 -1.7723  0.0035  0.4705
 3999TIP3    H233557   4.661   2.371   1.036 -0.2756  0.1954  0.1705
 4000TIP3   OH233558   4.319   0.802   0.686 -0.0063 -0.0192  0.9250
 4000TIP3    H133559   4.262   0.726   0.699 -0.9370  0.7259  1.2641
 4000TIP3    H233560   4.406   0.772   0.715  0.2957 -1.8728 -1.6457
 4001TIP3   OH233561   6.689   3.673   0.809 -0.3524 -0.1094  0.0275
 4001TIP3    H133562   6.605   3.640   0.776 -0.7393  0.7784  0.0981
 4001TIP3    H233563   6.753   3.608   0.782 -1.4797 -2.3756  2.5905
 4002TIP3   OH233564   3.257   0.929   1.720  0.5811 -0.4033 -0.1105
 4002TIP3    H133565   3.179   0.874   1.714  1.3407 -1.7914  2.1772
 4002TIP3    H233566   3.238   0.992   1.790  1.4466 -0.6432  0.3529
 4003TIP3   OH233567   1.579   2.435   1.168  0.0957 -0.0121  0.1935
 4003TIP3    H133568   1.602   2.408   1.257 -0.4838  0.5879  0.5305
 4003TIP3    H233569   1.483   2.429   1.166  0.1320 -0.4323 -0.5243
 4004TIP3   OH233570   4.027   1.036   0.179 -0.6087  0.2364 -0.5157
 4004TIP3    H133571   4.035   0.985   0.259 -0.6984  1.1035  0.0557
 4004TIP3    H233572   4.063   0.980   0.110 -0.7449 -0.5964  0.0988
 4005TIP3   OH233573   2.442   2.886   1.662  0.5789 -0.4014  0.6407
 4005TIP3    H133574   2.420   2.794   1.645 -3.5821  0.1574  2.4455
 4005TIP3    H233575   2.498   2.884   1.739  1.1880 -1.4384  0.1805
 4006TIP3   OH233576   6.269   2.821   7.089  0.0260 -0.2582  0.4062
 4006TIP3    H133577   6.298   2.911   7.098 -1.1823  0.1234  0.5274
 4006TIP3    H233578   6.178   2.821   7.118 -0.4521 -1.2123 -0.9979
 4007TIP3   OH233579   2.155   5.418   1.033  0.1852  0.2448 -0.0481
 4007TIP3    H133580   2.124   5.497   1.078  0.8452  0.5949 -0.1887
 4007TIP3    H233581   2.250   5.430   1.028  0.5661 -1.7623  2.1567
 4008TIP3   OH233582   1.552   2.057   0.969  0.3033  0.3641 -0.3293
 4008TIP3    H133583   1.600   2.002   1.031  1.4484 -0.3262 -1.7996
 4008TIP3    H233584   1.602   2.138   0.965 -0.4365  0.8746  0.5399
 4009TIP3   OH233585   2.460   2.176   7.319  0.1952 -0.2500 -0.4944
 4009TIP3    H133586   2.522   2.146   7.252  0.8437 -2.7189  1.1846
 4009TIP3    H233587   2.485   2.267   7.335  0.1102  0.3400 -3.4877
 4010TIP3   OH233588   4.082   1.268   0.719  0.3688  0.0749 -0.3527
 4010TIP3    H133589   4.096   1.184   0.676  1.7284 -0.6014  1.3590
 4010TIP3    H233590   4.070   1.246   0.811 -1.5832  1.5745 -0.2249
 4011TIP3   OH233591   1.209   0.761   5.969  0.3024  0.0254  0.5730
 4011TIP3    H133592   1.284   0.801   5.925  0.3140  1.0804  1.5329
 4011TIP3    H233593   1.133   0.788   5.917  0.4381  0.1921  0.4613
 4012TIP3   OH233594   1.185   2.720   7.094 -0.3823  0.4569 -0.5228
 4012TIP3    H133595   1.173   2.784   7.165 -0.2783  0.9767 -0.9752
 4012TIP3    H233596   1.133   2.644   7.122 -0.9672  0.9512 -0.2583
 4013TIP3   OH233597   2.304   4.511   1.599 -0.2546 -0.0651 -0.1000
 4013TIP3    H133598   2.214   4.488   1.621  0.1582 -0.5580  1.1921
 4013TIP3    H233599   2.348   4.427   1.589 -0.6816  0.1265 -4.1816
 4014TIP3   OH233600   5.599   0.148   1.070 -0.4453 -0.2406  0.0484
 4014TIP3    H133601   5.618   0.056   1.090  1.2370 -0.0385 -0.5704
 4014TIP3    H233602   5.652   0.198   1.132 -1.3043  0.3285  0.3348
 4015TIP3   OH233603   4.849   2.614   6.307  0.0387 -0.1592  1.0714
 4015TIP3    H133604   4.918   2.548   6.308  1.8038  1.6164  1.7365
 4015TIP3    H233605   4.812   2.611   6.219  1.9840 -0.1515  0.2409
 4016TIP3   OH233606   4.419   5.960   7.341 -0.3830 -0.3730 -0.5013
 4016TIP3    H133607   4.379   6.042   7.369 -0.3189 -0.5592  0.1521
 4016TIP3    H233608   4.357   5.893   7.368 -1.3805 -0.4292 -2.7854
 4017TIP3   OH233609   1.806   1.036   1.462  0.5593  0.4025  0.4759
 4017TIP3    H133610   1.826   1.079   1.545  3.6856 -1.2795  0.6542
 4017TIP3    H233611   1.793   0.944   1.486  0.2768  0.1289 -0.7280
 4018TIP3   OH233612   5.745   1.434   7.292  0.2180  0.4360  0.5173
 4018TIP3    H133613   5.709   1.372   7.229  0.2411 -0.2369  1.1560
 4018TIP3    H233614   5.723   1.520   7.257 -0.9451  0.0433  0.2768
 4019TIP3   OH233615   4.284   4.316   7.260  0.4140  0.1322  0.5775
 4019TIP3    H133616   4.236   4.239   7.227  0.0035 -0.6294  2.8736
 4019TIP3    H233617   4.217   4.368   7.304  0.7504  1.7185 -0.7409
 4020TIP3   OH233618   1.224   2.054   0.540  0.0189  0.6615  0.2896
 4020TIP3    H133619   1.244   2.084   0.451  0.1482 -2.5951 -0.8339
 4020TIP3    H233620   1.267   2.118   0.596  2.1679  1.3279 -2.0051
 4021TIP3   OH233621   2.254   3.159   7.246  0.0374  0.0752  0.0926
 4021TIP3    H133622   2.163   3.151   7.218  0.6048 -1.3488 -1.4322
 4021TIP3    H233623   2.261   3.249   7.280 -1.8142  0.3383 -0.1693
 4022TIP3   OH233624   3.663   1.367   1.009 -0.6653  0.0225 -0.5163
 4022TIP3    H133625   3.709   1.408   0.936 -0.0980 -1.5545 -1.0561
 4022TIP3    H233626   3.642   1.440   1.068  1.0784  0.9802 -1.0429
 4023TIP3   OH233627   5.853   4.068   1.017  0.2003  0.5286  0.6234
 4023TIP3    H133628   5.877   4.134   1.082 -0.1744 -0.4753  1.8226
 4023TIP3    H233629   5.851   3.986   1.067  1.1332 -0.4678 -0.9268
 4024TIP3   OH233630   1.329   4.841   0.503 -0.0167  0.7629  0.4696
 4024TIP3    H133631   1.409   4.892   0.492  0.9991 -0.8726  0.1758
 4024TIP3    H233632   1.332   4.811   0.594 -0.1892  0.5066  0.3899
 4025TIP3   OH233633   3.809   1.273   0.447  0.3710 -0.1517  0.1097
 4025TIP3    H133634   3.892   1.252   0.492  0.2062 -0.6642  0.1702
 4025TIP3    H233635   3.803   1.209   0.377  1.0417  1.1689 -1.1771
 4026TIP3   OH233636   2.076   2.140   1.380 -0.5806  0.8994  0.0284
 4026TIP3    H133637   2.160   2.124   1.423  0.6038  1.0662 -2.1578
 4026TIP3    H233638   2.099   2.168   1.291 -2.9239  2.2568 -0.1950
 4027TIP3   OH233639   0.305   4.483   1.710  0.5331  0.1563 -0.3285
 4027TIP3    H133640   0.323   4.471   1.617  1.4852  0.3682 -0.1771
 4027TIP3    H233641   0.274   4.573   1.718 -1.7378 -0.5628 -0.7512
 4028TIP3   OH233642   5.655   6.264   0.911  0.1470  0.0662 -0.3003
 4028TIP3    H133643   5.591   6.199   0.941  0.1970  0.3286  0.3649
 4028TIP3    H233644   5.666   6.244   0.817  0.6125 -1.2765  0.0212
 4029TIP3   OH233645   6.174   2.428   6.773 -0.5501  0.2583 -0.1658
 4029TIP3    H133646   6.092   2.474   6.793  0.1919 -0.1407  4.5630
 4029TIP3    H233647   6.240   2.497   6.776 -0.2877  0.0066 -0.2360
 4030TIP3   OH233648   6.700   6.633   0.267  0.4869  0.1709 -0.5572
 4030TIP3    H133649   6.664   6.564   0.324 -2.5984  1.4447 -0.8672
 4030TIP3    H233650   6.692   6.597   0.179 -2.1394  1.2895 -0.8154
 4031TIP3   OH233651   4.741   2.531   0.711 -0.1223 -0.5551  0.3424
 4031TIP3    H133652   4.740   2.622   0.681 -0.4928 -0.6207  0.1397
 4031TIP3    H233653   4.768   2.481   0.633  1.7388 -0.4714  0.9112
 4032TIP3   OH233654   1.402   2.452   6.158 -0.0299 -0.1308 -0.4051
 4032TIP3    H133655   1.444   2.511   6.095 -1.7154  0.5791 -0.8819
 4032TIP3    H233656   1.454   2.371   6.153 -0.3118 -0.1897 -2.9237
 4033TIP3   OH233657   2.390   3.917   7.799 -0.0736 -0.4835  0.1350
 4033TIP3    H133658   2.359   3.983   7.861 -0.5534 -1.2511  0.7136
 4033TIP3    H233659   2.312   3.890   7.751  0.3808  0.4888 -1.1742
 4034TIP3   OH233660   6.546   5.346   6.748  0.2618  0.1199 -0.8192
 4034TIP3    H133661   6.501   5.348   6.664 -0.1900  0.3792 -0.5722
 4034TIP3    H233662   6.539   5.255   6.777 -2.4395  0.7042  0.4696
 4035TIP3   OH233663   4.836   0.287   7.308 -0.5729  0.1800  0.9775
 4035TIP3    H133664   4.789   0.370   7.322  0.5999  0.6679  2.1117
 4035TIP3    H233665   4.903   0.308   7.244 -1.8817 -0.5314 -0.6763
 4036TIP3   OH233666   3.657   3.690   7.179 -0.1284  0.0435  0.4045
 4036TIP3    H133667   3.593   3.682   7.108  0.8754  0.0652 -0.5100
 4036TIP3    H233668   3.702   3.772   7.160  0.0114  0.1447  1.1856
 4037TIP3   OH233669   2.958   1.716   2.317 -0.3649 -0.5255 -0.3229
 4037TIP3    H133670   2.964   1.794   2.262  0.0009 -0.9688 -0.9233
 4037TIP3    H233671   2.940   1.750   2.404  0.5952  0.2910 -0.4247
 4038TIP3   OH233672   4.225   3.126   1.939  0.1134 -0.2627  0.6237
 4038TIP3    H133673   4.167   3.191   1.979  0.0450 -0.6043  1.0711
 4038TIP3    H233674   4.300   3.122   1.998  1.4847  1.5759 -0.9128
 4039TIP3   OH233675   1.661   1.652   1.428 -0.2141 -0.0946  0.0716
 4039TIP3    H133676   1.644   1.559   1.438  0.5089 -0.2414 -0.0753
 4039TIP3    H233677   1.687   1.663   1.337 -2.3397  0.5689 -0.4902
 4040TIP3   OH233678   2.149   1.688   6.908  0.4718 -0.0443 -0.1769
 4040TIP3    H133679   2.094   1.678   6.830  0.4901  1.0297 -0.3234
 4040TIP3    H233680   2.199   1.606   6.911  0.1655 -0.2730 -1.0522
 4041TIP3   OH233681   4.811   2.712   1.599 -0.6244  0.4564 -0.0242
 4041TIP3    H133682   4.723   2.688   1.569 -0.1452 -0.8503 -0.4120
 4041TIP3    H233683   4.868   2.693   1.525 -0.0855  1.9574 -0.0257
 4042TIP3   OH233684   1.967   1.430   6.923 -0.6654  0.0789  0.3131
 4042TIP3    H133685   1.959   1.489   6.998  1.1065  0.9445 -0.1720
 4042TIP3    H233686   2.026   1.361   6.953  0.7083  0.8661 -0.5498
 4043TIP3   OH233687   2.120   0.604   7.953 -0.5330 -0.4312 -0.0069
 4043TIP3    H133688   2.111   0.686   8.001 -1.0456 -0.9878  0.8513
 4043TIP3    H233689   2.088   0.537   8.013 -0.4543 -1.2217 -0.8358
 4044TIP3   OH233690   4.281   1.994   1.110 -0.8086 -0.0760 -0.3523
 4044TIP3    H133691   4.206   1.973   1.054 -0.6654 -0.3141 -0.4562
 4044TIP3    H233692   4.258   2.078   1.151 -1.1229 -0.1386 -0.3990
 4045TIP3   OH233693   4.799   1.062   1.332 -0.7058 -1.0948  0.0126
 4045TIP3    H133694   4.793   0.984   1.277  0.2202  0.0443 -1.7583
 4045TIP3    H233695   4.893   1.076   1.344 -0.8186  0.3631 -0.6363
 4046TIP3   OH233696   3.155   3.033   7.859  0.1354 -0.5884  0.2891
 4046TIP3    H133697   3.125   2.984   7.783 -0.7784  0.0364  0.2359
 4046TIP3    H233698   3.148   2.971   7.932  1.6267 -1.3842 -0.2368
 4047TIP3   OH233699   3.100   2.026   1.421 -0.3676 -0.1905 -0.2667
 4047TIP3    H133700   3.054   2.023   1.337 -1.3397  1.3095  0.1868
 4047TIP3    H233701   3.085   1.940   1.460 -3.1215  0.3883  0.0316
 4048TIP3   OH233702   4.187   6.872   7.934 -0.4561 -0.4100  0.9255
 4048TIP3    H133703   4.091   6.864   7.940 -0.5035 -0.1651  0.4674
 4048TIP3    H233704   4.218   6.781   7.936 -0.7744 -0.5474 -0.2701
 4049TIP3   OH233705   3.127   6.825   7.502 -0.1323 -0.2576  0.9963
 4049TIP3    H133706   3.222   6.816   7.507 -0.1388 -0.1366  1.3757
 4049TIP3    H233707   3.103   6.864   7.586 -0.8132 -2.7869  2.0221
 4050TIP3   OH233708   3.058   3.154   0.405  0.3385 -0.1551  0.2824
 4050TIP3    H133709   3.054   3.244   0.374  0.1656 -0.4675 -0.6236
 4050TIP3    H233710   3.097   3.105   0.333  0.4945 -0.7956  0.7908
 4051TIP3   OH233711   0.530   0.221   7.972  0.5583 -0.3047  0.6315
 4051TIP3    H133712   0.502   0.265   7.892  0.2920  0.9551  1.3951
 4051TIP3    H233713   0.610   0.268   7.998  1.7908 -2.0327 -0.0048
 4052TIP3   OH233714   2.375   6.627   0.818  0.1477  0.2854 -0.6838
 4052TIP3    H133715   2.299   6.574   0.842  2.2732 -2.3359  0.7310
 4052TIP3    H233716   2.406   6.662   0.902  1.3868  0.0164 -1.0217
 4053TIP3   OH233717   4.814   0.653   0.892 -0.0114 -0.3894 -0.0185
 4053TIP3    H133718   4.895   0.603   0.881  0.3108 -0.8142  3.6958
 4053TIP3    H233719   4.750   0.590   0.924 -0.8667  0.6454  0.3561
 4054TIP3   OH233720   1.606   2.012   1.603 -0.2277 -0.1473  0.1831
 4054TIP3    H133721   1.681   2.033   1.547  0.1074  1.7786  1.3241
 4054TIP3    H233722   1.611   2.075   1.675 -2.3701 -0.6537  0.8095
 4055TIP3   OH233723   0.849   6.518   6.509  0.3880  0.1433  0.0772
 4055TIP3    H133724   0.878   6.609   6.502 -3.0089  1.5028  2.1850
 4055TIP3    H233725   0.763   6.517   6.466  0.0843 -1.9206  0.6619
 4056TIP3   OH233726   5.492   3.811   1.537 -0.0460 -0.5856  0.1878
 4056TIP3    H133727   5.566   3.751   1.540  0.8594  0.3663 -1.8263
 4056TIP3    H233728   5.421   3.764   1.580  0.8974 -2.7105 -0.5028
 4057TIP3   OH233729   1.952   0.704   2.344 -0.0409 -0.0886 -0.0290
 4057TIP3    H133730   1.935   0.786   2.297 -1.0056  0.9209  2.0177
 4057TIP3    H233731   2.047   0.696   2.343 -0.0224 -0.0233 -1.9967
 4058TIP3   OH233732   3.132   4.824   1.460  0.1817 -0.1168 -0.0108
 4058TIP3    H133733   3.135   4.836   1.555 -0.8994  0.6824 -0.0702
 4058TIP3    H233734   3.122   4.729   1.448 -1.2683 -0.0643  0.7140
 4059TIP3   OH233735   1.026   4.016   0.460  0.0415  0.5991  0.2086
 4059TIP3    H133736   1.038   4.046   0.370  0.2681 -0.6048 -0.1732
 4059TIP3    H233737   0.933   3.996   0.467  0.1351  0.0974  0.0478
 4060TIP3   OH233738   3.525   0.859   1.961 -0.2863  0.8216  0.9141
 4060TIP3    H133739   3.481   0.818   2.035  0.3728 -0.6098  0.5384
 4060TIP3    H233740   3.454   0.888   1.904 -0.7729  0.7912  1.4986
 4061TIP3   OH233741   2.542   1.130   2.055  0.3740 -0.0870  0.2963
 4061TIP3    H133742   2.489   1.066   2.103 -1.9628  1.5750  0.0340
 4061TIP3    H233743   2.554   1.202   2.117 -1.3060  1.3764 -1.0120
 4062TIP3   OH233744   1.714   5.385   1.295 -0.4498  0.4708 -0.1668
 4062TIP3    H133745   1.634   5.366   1.246 -0.2632 -1.4925  0.2584
 4062TIP3    H233746   1.784   5.345   1.244  0.1382  1.2579  0.0111
 4063TIP3   OH233747   6.009   3.512   1.120  0.0357  0.6474 -0.0763
 4063TIP3    H133748   5.914   3.509   1.106 -0.0470  2.1641  0.0723
 4063TIP3    H233749   6.019   3.517   1.215  0.2723  0.3891 -0.0866
 4064TIP3   OH233750   1.729   4.980   7.893  0.0658  0.5474 -0.2247
 4064TIP3    H133751   1.808   4.991   7.946 -0.4378  1.7145  0.3022
 4064TIP3    H233752   1.663   4.948   7.955 -0.4937  1.8082 -0.1449
 4065TIP3   OH233753   2.634   0.424   7.465 -0.5664  0.3930  0.4169
 4065TIP3    H133754   2.637   0.412   7.370 -0.3449 -0.4032  0.5230
 4065TIP3    H233755   2.722   0.454   7.488 -0.1876 -0.7917  0.5500
 4066TIP3   OH233756   5.721   0.013   1.421  0.1010  0.3464 -0.3921
 4066TIP3    H133757   5.668  -0.018   1.493  0.8422  0.2085  0.1033
 4066TIP3    H233758   5.779  -0.060   1.400 -0.7435  0.0445 -1.7553
 4067TIP3   OH233759   3.675   0.413   1.056 -0.2769 -0.0334 -0.6800
 4067TIP3    H133760   3.627   0.384   0.979 -1.3505 -1.5824  0.5485
 4067TIP3    H233761   3.625   0.378   1.130  0.8285  1.2858  0.7112
 4068TIP3   OH233762   5.467   2.243   1.787  0.8490 -0.1205 -0.0730
 4068TIP3    H133763   5.428   2.266   1.871 -0.5514  0.5070 -0.8799
 4068TIP3    H233764   5.460   2.148   1.782  0.3842 -0.1031  0.2543
 4069TIP3   OH233765   3.811   3.344   6.201  0.1953 -0.3145  0.5255
 4069TIP3    H133766   3.894   3.368   6.160  1.8666 -3.2647  2.0026
 4069TIP3    H233767   3.749   3.338   6.128  1.2047  2.0424 -0.5843
 4070TIP3   OH233768   2.752   0.014   0.548  0.4180  0.0701 -0.1001
 4070TIP3    H133769   2.687  -0.055   0.536 -0.6445  1.1185 -0.4053
 4070TIP3    H233770   2.836  -0.031   0.541 -0.2723 -1.2678  0.1528
 4071TIP3   OH233771   3.431   2.060   8.046  0.3838  0.3500  0.3945
 4071TIP3    H133772   3.499   2.005   8.007 -0.6474 -1.2769  0.8445
 4071TIP3    H233773   3.427   2.032   8.138  0.3311  1.6766  0.8127
 4072TIP3   OH233774   3.357   2.267   7.005  0.3727 -0.1413  0.6070
 4072TIP3    H133775   3.432   2.321   7.030  2.0515 -1.9918 -0.2886
 4072TIP3    H233776   3.282   2.310   7.045  2.0225  1.2560  2.2872
 4073TIP3   OH233777   5.410   6.203   6.846 -0.1253 -0.3099  0.1773
 4073TIP3    H133778   5.422   6.268   6.777  0.0437 -0.0467  0.4512
 4073TIP3    H233779   5.381   6.254   6.922 -0.3397 -0.5997  0.2926
 4074TIP3   OH233780   4.322   5.513   1.262  0.1177  0.2224  0.3153
 4074TIP3    H133781   4.284   5.595   1.232  0.1637 -0.5584 -2.0246
 4074TIP3    H233782   4.248   5.452   1.265  0.5267 -0.3354 -0.6225
 4075TIP3   OH233783   1.949   2.432   0.837  0.0256  0.1319  0.2263
 4075TIP3    H133784   2.020   2.384   0.795 -0.3516 -0.0344 -0.2359
 4075TIP3    H233785   1.875   2.421   0.777 -0.1871  0.9122  0.3473
 4076TIP3   OH233786   1.712   6.206   0.443 -1.2689  0.0939 -0.1316
 4076TIP3    H133787   1.726   6.133   0.504 -0.8532  0.0842 -0.2355
 4076TIP3    H233788   1.627   6.188   0.403  0.4697 -2.3917 -2.9749
 4077TIP3   OH233789   5.058   5.343   1.356  0.3724  0.1411  0.3167
 4077TIP3    H133790   5.009   5.271   1.315  0.2692  0.6717 -0.5078
 4077TIP3    H233791   5.026   5.345   1.446  0.0265 -0.5411  0.2134
 4078TIP3   OH233792   0.123   2.272   5.956 -0.2264  0.0092  0.4839
 4078TIP3    H133793   0.072   2.353   5.947  0.6504  0.2788 -2.5149
 4078TIP3    H233794   0.058   2.202   5.953 -0.6268  0.4247 -1.7526
 4079TIP3   OH233795   4.941   4.991   6.363  0.1666 -0.1421 -0.1755
 4079TIP3    H133796   4.882   5.052   6.407 -0.4730  0.2148 -1.4939
 4079TIP3    H233797   4.924   5.005   6.270  0.8047 -1.5627 -0.5088
 4080TIP3   OH233798   2.407   1.419   0.620 -0.1734 -0.7170  0.1056
 4080TIP3    H133799   2.489   1.392   0.579  0.8662 -0.5737  2.0477
 4080TIP3    H233800   2.433   1.465   0.699 -2.0767  1.0671 -0.2475
 4081TIP3   OH233801   2.563   1.944   0.820  0.4831 -0.2847 -0.2934
 4081TIP3    H133802   2.627   1.873   0.830 -0.0712 -0.8251 -0.5095
 4081TIP3    H233803   2.589   2.009   0.885  0.0985 -1.3676  0.9794
 4082TIP3   OH233804   2.774   0.283   6.320  0.0783  0.0030 -0.5658
 4082TIP3    H133805   2.724   0.303   6.241 -0.4842 -0.3412 -0.2987
 4082TIP3    H233806   2.812   0.196   6.303 -4.0660 -2.3729  1.4680
 4083TIP3   OH233807   2.274   6.820   1.018  0.2024 -0.4106 -0.2888
 4083TIP3    H133808   2.234   6.899   0.979 -3.7443 -0.7847  2.6702
 4083TIP3    H233809   2.233   6.747   0.971  1.1224 -0.7552 -0.5599
 4084TIP3   OH233810   0.745   4.074   7.631  0.4277 -0.1746 -0.2042
 4084TIP3    H133811   0.759   4.168   7.647 -0.7833 -0.2235  1.1972
 4084TIP3    H233812   0.691   4.071   7.552 -1.0581  0.3738  0.7761
 4085TIP3   OH233813   1.442   4.945   0.239 -0.3140  0.0340 -0.1203
 4085TIP3    H133814   1.417   5.030   0.275 -1.1417  0.0868 -0.8185
 4085TIP3    H233815   1.368   4.888   0.261 -0.1407 -0.3031 -0.4171
 4086TIP3   OH233816   1.406   0.833   1.474 -0.1818  0.4176 -0.3019
 4086TIP3    H133817   1.433   0.861   1.561  1.6671 -0.7486 -0.4758
 4086TIP3    H233818   1.460   0.757   1.455 -1.1726  0.1311 -2.1205
 4087TIP3   OH233819   0.834   2.073   1.066 -0.2659  0.5503 -0.0627
 4087TIP3    H133820   0.896   2.097   0.997 -0.6168 -1.4941 -1.1078
 4087TIP3    H233821   0.889   2.046   1.139  0.0878 -0.0254 -0.5390
 4088TIP3   OH233822   4.063   3.774   2.307  0.1045 -0.1937 -0.0064
 4088TIP3    H133823   4.056   3.715   2.232 -0.7008 -0.3477  0.1803
 4088TIP3    H233824   4.144   3.748   2.350 -0.4767 -1.5076  0.3485
 4089TIP3   OH233825   1.254   3.383   7.855 -0.0143  0.2201  0.5208
 4089TIP3    H133826   1.314   3.437   7.906 -0.0770  1.2150 -0.4285
 4089TIP3    H233827   1.305   3.306   7.831  1.1290  1.3775 -0.8676
 4090TIP3   OH233828   3.860   4.714   6.055  0.0547  0.5283 -0.2586
 4090TIP3    H133829   3.766   4.720   6.069 -0.2351 -2.2002 -0.7549
 4090TIP3    H233830   3.890   4.647   6.117  1.6204  1.1655 -0.2979
 4091TIP3   OH233831   5.103   3.767   7.551  0.3006 -0.0977  0.0833
 4091TIP3    H133832   5.080   3.852   7.516  0.5615 -0.5955 -1.3251
 4091TIP3    H233833   5.183   3.742   7.505  1.1744 -0.3706  1.6953
 4092TIP3   OH233834   3.492   3.871   1.060  0.0274 -0.4462  0.4004
 4092TIP3    H133835   3.466   3.780   1.076  0.4289 -0.4862  0.8368
 4092TIP3    H233836   3.470   3.917   1.140  1.3112 -0.4881  0.7928
 4093TIP3   OH233837   1.914   1.450   8.039  0.1928 -0.6800  0.0408
 4093TIP3    H133838   1.998   1.466   8.081  0.0933  0.0319 -0.0329
 4093TIP3    H233839   1.936   1.399   7.960  0.3898 -1.8896  0.8654
 4094TIP3   OH233840   2.610   1.892   0.204 -0.6396  0.1260  0.8336
 4094TIP3    H133841   2.552   1.843   0.263 -1.6972 -0.0705 -0.3464
 4094TIP3    H233842   2.558   1.967   0.177 -0.1613  0.2133  0.1554
 4095TIP3   OH233843   3.211   3.529   0.897 -0.5425 -0.4688 -0.2413
 4095TIP3    H133844   3.184   3.503   0.985 -0.0951  1.7659  0.5862
 4095TIP3    H233845   3.131   3.559   0.855 -0.8665 -2.1109 -0.8271
 4096TIP3   OH233846   0.766   0.038   6.452 -0.4017  0.2750  0.7551
 4096TIP3    H133847   0.858   0.027   6.430 -0.4743  0.5376  0.3074
 4096TIP3    H233848   0.720  -0.021   6.391 -0.5876  0.7971  0.3920
 4097TIP3   OH233849   0.581   4.642   0.410  0.1645  0.2073  0.1686
 4097TIP3    H133850   0.513   4.707   0.426 -0.1620  0.3960 -1.8288
 4097TIP3    H233851   0.633   4.641   0.490 -1.3092  1.1285  1.1558
 4098TIP3   OH233852   4.871   0.617   1.843  0.1135  0.3802  0.2056
 4098TIP3    H133853   4.914   0.634   1.927 -0.7900  2.5044  0.2807
 4098TIP3    H233854   4.785   0.581   1.866 -0.2771  1.3023  0.2263
 4099TIP3   OH233855   5.101   1.955   1.763 -0.1639  0.2490 -0.7283
 4099TIP3    H133856   5.036   1.993   1.704 -1.2085 -1.3301 -0.6062
 4099TIP3    H233857   5.181   2.004   1.745 -0.9558  1.0631 -2.0866
 4100TIP3   OH233858   3.983   5.362   0.914  0.2044  0.3145 -0.7369
 4100TIP3    H133859   3.938   5.301   0.855  0.1828  0.3528 -0.7610
 4100TIP3    H233860   4.075   5.340   0.906  0.3946  1.5298 -2.1928
 4101TIP3   OH233861   4.191   0.945   7.111 -0.3581  0.7734 -0.5155
 4101TIP3    H133862   4.243   0.890   7.170 -1.4591 -1.0382 -1.1844
 4101TIP3    H233863   4.108   0.957   7.158 -0.1576  1.8141 -0.4157
 4102TIP3   OH233864   5.858   1.346   0.400 -0.1229 -0.5348  0.1144
 4102TIP3    H133865   5.848   1.260   0.440  1.4121 -1.9688 -2.4573
 4102TIP3    H233866   5.822   1.336   0.312  1.2249  1.0729 -0.6551
 4103TIP3   OH233867   2.598   6.880   7.467  0.0460 -0.2481 -0.0906
 4103TIP3    H133868   2.574   6.809   7.526  0.0911 -1.5276 -1.5737
 4103TIP3    H233869   2.559   6.959   7.507 -1.5401 -1.3728  0.6398
 4104TIP3   OH233870   3.715   3.212   0.564 -0.3896  0.0621 -0.0537
 4104TIP3    H133871   3.718   3.131   0.614 -1.5407  0.6704  1.0285
 4104TIP3    H233872   3.739   3.187   0.475  1.7142 -1.0246  0.7955
 4105TIP3   OH233873   3.979   2.768   1.136  0.3484 -0.2730  0.1825
 4105TIP3    H133874   3.912   2.724   1.083 -0.4136 -1.6951  2.2787
 4105TIP3    H233875   3.957   2.745   1.226  3.0993  0.0650  0.9700
 4106TIP3   OH233876   1.513   6.091   1.078  0.3714 -0.5652 -0.2317
 4106TIP3    H133877   1.552   6.093   1.165 -1.9923 -2.7192  0.9520
 4106TIP3    H233878   1.499   5.998   1.060  0.7125 -0.1489 -2.8683
 4107TIP3   OH233879   5.685   6.849   0.609  0.4950 -0.2136  0.3675
 4107TIP3    H133880   5.653   6.904   0.537  1.1153  2.2176  1.8722
 4107TIP3    H233881   5.618   6.782   0.620 -0.5197  0.5065 -1.2521
 4108TIP3   OH233882   2.306   5.603   7.778 -0.7723 -0.5323  0.2684
 4108TIP3    H133883   2.340   5.676   7.726 -2.0353  0.3951  0.7173
 4108TIP3    H233884   2.292   5.533   7.714 -1.3978  0.2734 -0.4954
 4109TIP3   OH233885   6.221   7.020   0.944  0.3003 -0.1751 -0.0736
 4109TIP3    H133886   6.239   6.931   0.913  0.5297  0.5659 -2.1641
 4109TIP3    H233887   6.306   7.053   0.971  0.7640  0.4465 -2.1863
 4110TIP3   OH233888   5.729   1.018   6.616 -0.4150 -0.0175 -0.0035
 4110TIP3    H133889   5.807   0.974   6.582  0.0328  0.1122  0.8296
 4110TIP3    H233890   5.702   0.964   6.690 -0.0875  0.8869  0.7887
 4111TIP3   OH233891   3.323   1.950   1.605 -0.8223  0.4232  0.3998
 4111TIP3    H133892   3.297   1.998   1.526 -0.2323  0.0258 -0.0416
 4111TIP3    H233893   3.418   1.960   1.609 -0.7117 -0.5570  0.4035
 4112TIP3   OH233894   1.814   0.701   1.133  0.0638  0.2235  0.1449
 4112TIP3    H133895   1.730   0.663   1.159  0.1266 -1.6387 -2.1708
 4112TIP3    H233896   1.876   0.672   1.201 -0.5471 -1.1562  0.1334
 4113TIP3   OH233897   3.668   6.466   1.553 -0.2114  0.1493 -0.2920
 4113TIP3    H133898   3.636   6.555   1.566 -0.8972 -0.2091  0.4872
 4113TIP3    H233899   3.616   6.432   1.480 -0.3932  0.1615 -0.1661
 4114TIP3   OH233900   1.880   6.029   6.739 -0.2096  0.3824 -0.1548
 4114TIP3    H133901   1.926   5.950   6.770  1.4790  0.9299 -1.2090
 4114TIP3    H233902   1.912   6.042   6.650 -1.3386  1.6284 -0.3937
 4115TIP3   OH233903   0.808   5.396   1.392  0.6723 -0.1908 -0.1511
 4115TIP3    H133904   0.850   5.315   1.366  0.0537 -0.5242 -0.1209
 4115TIP3    H233905   0.826   5.457   1.321 -0.9750 -1.0803 -1.3583
 4116TIP3   OH233906   7.011   4.818   7.349 -0.2845 -0.2573 -0.2386
 4116TIP3    H133907   7.018   4.731   7.309  0.6066  0.5596 -1.9216
 4116TIP3    H233908   7.083   4.822   7.411 -0.9914 -1.1130  0.6616
 4117TIP3   OH233909   3.234   1.391   6.254 -0.2120  0.2139 -0.3777
 4117TIP3    H133910   3.258   1.477   6.286  0.9695 -0.0630 -0.4852
 4117TIP3    H233911   3.219   1.339   6.333 -0.4776  0.3954 -0.3084
 4118TIP3   OH233912   2.391   4.268   0.327  0.6184  0.2402  0.4347
 4118TIP3    H133913   2.485   4.255   0.334  0.7624  0.5987 -0.7130
 4118TIP3    H233914   2.381   4.357   0.293 -0.0927 -0.1329 -0.3741
 4119TIP3   OH233915   4.057   0.628   6.273  0.1367  0.5412  0.2818
 4119TIP3    H133916   4.085   0.629   6.182 -1.0880  0.7762 -0.1006
 4119TIP3    H233917   4.137   0.647   6.323  1.3180 -1.9043 -0.5957
 4120TIP3   OH233918   5.845   1.801   1.703  0.0207 -0.3445 -0.9148
 4120TIP3    H133919   5.922   1.746   1.689  0.6850  0.2050  0.5251
 4120TIP3    H233920   5.774   1.738   1.719  0.4613 -0.8185 -0.8067
 4121TIP3   OH233921   1.944   3.056   0.500  0.1475  0.0017  0.5434
 4121TIP3    H133922   1.874   3.109   0.463  0.2769  0.4758  0.9749
 4121TIP3    H233923   1.910   2.966   0.499 -0.0575  0.0909 -0.2120
 4122TIP3   OH233924   3.780   6.859   1.321 -0.2138 -0.0474 -0.1849
 4122TIP3    H133925   3.775   6.863   1.417 -0.0814  0.4688 -0.1988
 4122TIP3    H233926   3.698   6.899   1.292  0.0024  0.3094 -0.2978
 4123TIP3   OH233927   0.848   0.509   7.910 -0.4218 -0.0465  0.1715
 4123TIP3    H133928   0.784   0.581   7.904 -0.0504  0.3905  1.3853
 4123TIP3    H233929   0.918   0.535   7.850 -0.0149  0.8922  1.0385
 4124TIP3   OH233930   5.281   0.648   1.394  0.3956 -0.2686  0.0997
 4124TIP3    H133931   5.190   0.641   1.364  0.5819  0.6501 -0.6903
 4124TIP3    H233932   5.328   0.582   1.342  1.0733  2.6203 -3.1082
 4125TIP3   OH233933   6.921   0.130   8.076  0.2282  0.2136 -0.0218
 4125TIP3    H133934   6.896   0.178   8.156 -1.6262  2.0885 -1.6775
 4125TIP3    H233935   6.840   0.089   8.047  0.8494 -0.2539 -1.0936
 4126TIP3   OH233936   3.962   0.501   6.930 -0.6429 -0.6628  0.3231
 4126TIP3    H133937   4.012   0.475   7.008  0.3332 -2.0750 -0.7478
 4126TIP3    H233938   3.924   0.420   6.898 -2.4049  0.1823  0.2587
 4127TIP3   OH233939   6.758   5.961   1.257  0.2088 -0.0084 -0.5863
 4127TIP3    H133940   6.744   5.867   1.266 -1.7100  0.2432 -0.7904
 4127TIP3    H233941   6.820   5.983   1.328 -0.9080 -1.0817  0.7418
 4128TIP3   OH233942   1.613   6.447   0.685  0.7067  0.4399  0.7407
 4128TIP3    H133943   1.666   6.525   0.672  0.8492  0.5390  1.8671
 4128TIP3    H233944   1.523   6.476   0.666  1.0578  0.2098 -1.3861
 4129TIP3   OH233945   5.386   2.902   0.985 -0.2315 -0.6430  0.5252
 4129TIP3    H133946   5.412   2.990   0.957  0.1468 -1.2902 -1.2409
 4129TIP3    H233947   5.299   2.890   0.948 -0.6324 -0.7093  1.4702
 4130TIP3   OH233948   6.883   0.877   6.595 -0.0746  0.3385 -0.1451
 4130TIP3    H133949   6.906   0.908   6.507  0.0640 -1.1040 -0.6314
 4130TIP3    H233950   6.800   0.831   6.583  1.5423 -2.7769 -0.2006
 4131TIP3   OH233951   3.600   4.334   7.335  0.4175 -0.1712 -0.0849
 4131TIP3    H133952   3.510   4.361   7.350  0.2971 -0.5217 -0.1793
 4131TIP3    H233953   3.651   4.383   7.400  0.1213 -0.2191  0.1874
 4132TIP3   OH233954   5.088   1.991   1.407  0.0502  0.2244 -0.3360
 4132TIP3    H133955   5.076   1.907   1.450 -0.1443  1.4621  2.0800
 4132TIP3    H233956   5.183   2.000   1.398  0.1354  0.3087  0.5835
 4133TIP3   OH233957   0.514   1.378   1.371 -0.0519 -0.1193 -0.0771
 4133TIP3    H133958   0.464   1.451   1.333  0.9445  0.6440  0.0527
 4133TIP3    H233959   0.603   1.412   1.379  1.1457 -2.3948 -2.8991
 4134TIP3   OH233960   5.759   4.011   0.604  0.1729 -0.0502 -0.0656
 4134TIP3    H133961   5.772   4.044   0.515 -0.1027 -1.1937 -0.5391
 4134TIP3    H233962   5.665   3.997   0.611  0.0643  0.9401  0.7511
 4135TIP3   OH233963   4.210   5.154   7.704 -0.1981  0.1625  0.4304
 4135TIP3    H133964   4.176   5.243   7.709 -0.4587  0.0780  0.1557
 4135TIP3    H233965   4.169   5.109   7.777  1.2521  0.7078  1.6088
 4136TIP3   OH233966   2.812   0.073   0.267 -0.1857 -0.2944  0.1772
 4136TIP3    H133967   2.905   0.091   0.249 -0.3928  0.7768  0.1315
 4136TIP3    H233968   2.807   0.067   0.362 -0.2478  0.7494  0.2512
 4137TIP3   OH233969   6.629   6.784   7.071 -0.0563  0.5586 -0.3981
 4137TIP3    H133970   6.665   6.845   7.134 -1.4213  0.7625  0.2073
 4137TIP3    H233971   6.647   6.823   6.985  1.2202  0.5980 -0.1192
 4138TIP3   OH233972   6.593   1.657   0.895 -0.6709 -0.3539 -0.3793
 4138TIP3    H133973   6.625   1.600   0.966 -1.3264 -0.2279  0.0180
 4138TIP3    H233974   6.504   1.680   0.921  0.1731  2.2773  0.3571
 4139TIP3   OH233975   2.806   1.657   0.131  0.2429 -0.4723 -0.5034
 4139TIP3    H133976   2.748   1.728   0.101  0.2318 -1.2145 -2.3066
 4139TIP3    H233977   2.894   1.690   0.117  0.2558 -0.2283  0.1163
 4140TIP3   OH233978   3.121   4.323   0.256 -0.0399 -0.0487 -0.8025
 4140TIP3    H133979   3.155   4.321   0.346 -2.5338  2.0011  0.2387
 4140TIP3    H233980   3.181   4.382   0.209  0.2480  0.2464 -0.0664
 4141TIP3   OH233981   7.100   0.307   0.976 -0.3238 -0.3627  0.0647
 4141TIP3    H133982   7.061   0.355   0.903 -0.7401  0.5422  0.8618
 4141TIP3    H233983   7.193   0.327   0.971 -0.2703 -0.7700 -0.5607
 4142TIP3   OH233984   3.011   6.527   1.000 -0.6022 -0.2546 -0.1934
 4142TIP3    H133985   2.996   6.498   1.090 -1.5216  2.1785  0.4855
 4142TIP3    H233986   3.097   6.491   0.977  0.3604  0.3963  2.2213
 4143TIP3   OH233987   3.137   1.230   6.465 -0.2916  0.5052 -0.4399
 4143TIP3    H133988   3.225   1.211   6.498 -0.4980 -0.4041 -0.4006
 4143TIP3    H233989   3.085   1.154   6.491 -0.6814  0.2302 -2.0171
 4144TIP3   OH233990   4.974   1.361   1.627  0.3389 -0.1026  0.3516
 4144TIP3    H133991   5.041   1.295   1.643 -0.8951 -1.3044  0.6205
 4144TIP3    H233992   4.954   1.398   1.713  1.6141  1.2320  0.1025
 4145TIP3   OH233993   6.176   0.439   0.233  0.2289 -0.0143  0.7959
 4145TIP3    H133994   6.248   0.468   0.177 -0.4418  2.0412  0.9865
 4145TIP3    H233995   6.219   0.412   0.315  0.7576  1.4718  1.0140
 4146TIP3   OH233996   4.558   1.365   7.693  0.2828 -0.2755  0.4824
 4146TIP3    H133997   4.570   1.434   7.759 -0.8658  1.5144 -1.1107
 4146TIP3    H233998   4.602   1.398   7.615 -2.2365 -0.2284 -1.0063
 4147TIP3   OH233999   5.181   1.530   2.057 -0.2058 -0.6104 -0.5733
 4147TIP3    H134000   5.146   1.570   1.977  0.2225  1.3764  0.2173
 4147TIP3    H234001   5.105   1.493   2.101 -0.3693 -2.3004 -2.1862
 4148TIP3   OH234002   6.386   6.190   0.013 -0.0282 -0.4407  0.3671
 4148TIP3    H134003   6.328   6.261   0.039  1.6428  1.0174  0.2244
 4148TIP3    H234004   6.463   6.234  -0.023  1.1158 -2.3235  0.4390
 4149TIP3   OH234005   6.925   4.731   0.031  0.2281 -0.5660 -0.4232
 4149TIP3    H134006   7.017   4.742   0.057 -0.1221 -0.5028  0.8344
 4149TIP3    H234007   6.923   4.648  -0.016  1.0597 -0.2168 -1.0933
 4150TIP3   OH234008   3.770   2.355   0.924 -0.0096 -0.0778 -0.2548
 4150TIP3    H134009   3.724   2.272   0.919 -2.6096  1.3387 -0.8320
 4150TIP3    H234010   3.772   2.376   1.017 -1.6998  0.4378 -0.3161
 4151TIP3   OH234011   5.118   2.377   1.062  0.1574  0.1196  0.3966
 4151TIP3    H134012   5.092   2.457   1.109 -1.8686 -1.5451  2.2123
 4151TIP3    H234013   5.165   2.325   1.127 -0.7225 -1.2435 -0.0355
 4152TIP3   OH234014   6.868   2.138   1.110  0.5448  0.1611 -0.0502
 4152TIP3    H134015   6.922   2.214   1.088  0.9122  0.5247  2.0284
 4152TIP3    H234016   6.931   2.066   1.117  0.3815 -0.0304 -0.5046
 4153TIP3   OH234017   5.395   2.116   7.873 -0.0259  0.0367  0.5302
 4153TIP3    H134018   5.427   2.090   7.786 -0.5060  0.2209  0.2951
 4153TIP3    H234019   5.325   2.179   7.855 -0.2655 -0.0772  1.0454
 4154TIP3   OH234020   1.655   1.707   7.208  0.0215  0.0483 -0.7768
 4154TIP3    H134021   1.692   1.701   7.120 -0.9729  0.2480 -1.2157
 4154TIP3    H234022   1.727   1.738   7.262  0.7970 -0.6082 -1.4208
 4155TIP3   OH234023   6.156   3.390   6.663  0.2833 -0.1329  0.2350
 4155TIP3    H134024   6.096   3.398   6.737  1.6309  3.1586  1.0474
 4155TIP3    H234025   6.108   3.425   6.588 -0.6632 -2.3936 -0.2439
 4156TIP3   OH234026   5.713   2.314   7.121 -0.0127 -0.0859 -0.1263
 4156TIP3    H134027   5.760   2.293   7.202 -0.4855  1.4705  0.5533
 4156TIP3    H234028   5.636   2.257   7.123  0.4611 -0.7329  0.0403
 4157TIP3   OH234029   5.025   5.960   7.583 -0.2827  0.7312 -0.5426
 4157TIP3    H134030   4.977   5.932   7.661 -1.9389  2.3518 -0.9387
 4157TIP3    H234031   5.012   5.888   7.520  0.6888 -0.3793  0.5060
 4158TIP3   OH234032   0.072   0.980   1.595 -0.4633 -0.1273  0.1361
 4158TIP3    H134033   0.004   1.044   1.573 -1.4455 -1.3281 -0.3777
 4158TIP3    H234034   0.062   0.911   1.530  1.6255 -0.0681 -0.2861
 4159TIP3   OH234035   1.361   2.740   6.524 -0.0507 -0.5616  0.2404
 4159TIP3    H134036   1.281   2.781   6.491  0.2075 -0.1819  0.0769
 4159TIP3    H234037   1.407   2.710   6.445  0.0861 -0.5502  0.3153
 4160TIP3   OH234038   5.322   0.425   8.004  0.0859  0.3445 -0.3518
 4160TIP3    H134039   5.330   0.334   8.034  3.0885  0.5692 -0.3291
 4160TIP3    H234040   5.305   0.475   8.083  1.7268  0.1849  0.1142
 4161TIP3   OH234041   4.277   2.380   1.487 -0.3095  0.6467 -0.1119
 4161TIP3    H134042   4.293   2.406   1.578 -2.9124  1.2132  0.2192
 4161TIP3    H234043   4.229   2.298   1.494 -2.0037  1.5543 -0.9429
 4162TIP3   OH234044   0.052   6.786   0.253  0.2399 -0.6984  0.0143
 4162TIP3    H134045   0.019   6.719   0.313  0.3611 -0.4178  0.4040
 4162TIP3    H234046   0.132   6.818   0.296 -0.9938  1.2313  0.9516
 4163TIP3   OH234047   5.306   2.344   1.987  0.0926  0.0269  0.5119
 4163TIP3    H134048   5.274   2.359   2.076  0.0960 -0.2549  0.5604
 4163TIP3    H234049   5.281   2.423   1.939 -0.8086 -0.2577  0.5060
 4164TIP3   OH234050   3.575   2.991   0.709  0.2356 -0.0283  1.0256
 4164TIP3    H134051   3.513   3.064   0.708 -0.0246 -0.2427  1.3484
 4164TIP3    H234052   3.609   2.990   0.798  1.2522  0.5449  0.6499
 4165TIP3   OH234053   3.723   2.006   1.180 -0.4592 -0.2724 -0.0877
 4165TIP3    H134054   3.730   2.021   1.085  3.7876 -0.4097  0.1153
 4165TIP3    H234055   3.696   2.091   1.216  3.8194  1.5391 -0.8972
 4166TIP3   OH234056   2.655   5.871   7.940 -0.5168  0.6365  0.4793
 4166TIP3    H134057   2.630   5.930   8.012 -1.1266  1.9691 -0.8148
 4166TIP3    H234058   2.576   5.865   7.886 -0.4305 -1.3134  0.5477
 4167TIP3   OH234059   5.151   0.130   0.602 -0.0145 -0.8815 -0.3674
 4167TIP3    H134060   5.228   0.105   0.654 -0.4309 -0.7221  0.3281
 4167TIP3    H234061   5.090   0.057   0.613 -0.6490 -0.2371  0.4805
 4168TIP3   OH234062   4.931   0.667   6.950  0.5979 -0.4188  0.1456
 4168TIP3    H134063   5.005   0.726   6.939  0.4423 -0.7233 -2.6871
 4168TIP3    H234064   4.855   0.716   6.919  0.0763 -1.2137  0.1406
 4169TIP3   OH234065   6.193   6.138   0.329 -0.2859  0.1572 -0.3930
 4169TIP3    H134066   6.280   6.177   0.336 -0.9021  1.5143 -0.1147
 4169TIP3    H234067   6.183   6.088   0.410 -0.0435  0.5958 -0.0889
 4170TIP3   OH234068   5.329   1.970   1.302 -0.0646  0.4756 -0.4303
 4170TIP3    H134069   5.349   1.969   1.208  1.0943  0.4544 -0.1861
 4170TIP3    H234070   5.379   2.043   1.336 -1.5767  1.3571 -0.0468
 4171TIP3   OH234071   3.511   2.249   1.599  0.1866 -0.0900  0.0674
 4171TIP3    H134072   3.508   2.321   1.662  0.7448  0.2344 -0.2740
 4171TIP3    H234073   3.583   2.193   1.629 -0.5387 -0.7556  0.5934
 4172TIP3   OH234074   5.564   0.324   6.887 -0.2014 -0.2307 -0.0602
 4172TIP3    H134075   5.472   0.300   6.876  0.2267 -1.7726 -0.3493
 4172TIP3    H234076   5.565   0.376   6.968 -1.2173 -0.8040  0.3361
 4173TIP3   OH234077   2.032   3.107   0.942  0.0031 -0.0131 -0.2741
 4173TIP3    H134078   2.078   3.052   1.006  0.2512  1.0382  0.4457
 4173TIP3    H234079   2.051   3.064   0.858  0.4612 -0.8544  0.2427
 4174TIP3   OH234080   5.810   1.536   0.601 -0.5352  0.7301  0.1577
 4174TIP3    H134081   5.832   1.465   0.661  0.4942  0.8664 -0.0383
 4174TIP3    H234082   5.839   1.504   0.515  0.3168  1.5490  0.1356
 4175TIP3   OH234083   4.624   5.966   7.996  0.2513 -0.5434 -0.1585
 4175TIP3    H134084   4.610   6.056   8.024  1.9551 -0.8148  1.6398
 4175TIP3    H234085   4.717   5.961   7.975  0.1187 -1.8274 -0.5205
 4176TIP3   OH234086   3.088   5.964   6.960 -0.0523 -0.4310  0.0416
 4176TIP3    H134087   3.179   5.957   6.931 -0.3512  1.2119 -1.3750
 4176TIP3    H234088   3.037   5.927   6.887 -0.5875 -0.1218  0.2521
 4177TIP3   OH234089   0.875   5.736   1.668  0.1462  0.5931  0.1988
 4177TIP3    H134090   0.905   5.798   1.735  1.0116  0.2722  0.1228
 4177TIP3    H234091   0.936   5.662   1.676 -0.4906  0.0330 -0.1334
 4178TIP3   OH234092   0.155   6.741   6.591 -0.2662 -0.2277 -0.2509
 4178TIP3    H134093   0.202   6.781   6.664  0.6406  1.1160 -1.5509
 4178TIP3    H234094   0.204   6.660   6.573 -1.4366 -1.3930  1.6360
 4179TIP3   OH234095   3.507   2.806   0.967  0.1642 -0.0203  0.5319
 4179TIP3    H134096   3.525   2.782   0.876  1.0816  0.1867  0.6575
 4179TIP3    H234097   3.423   2.852   0.963 -0.3029 -0.8906 -0.0693
 4180TIP3   OH234098   6.620   3.005   7.248 -0.5060  0.5474 -0.2271
 4180TIP3    H134099   6.557   3.050   7.304  0.6208  1.7092  0.1425
 4180TIP3    H234100   6.579   3.003   7.162 -2.9699 -2.7162  0.9599
 4181TIP3   OH234101   4.566   0.207   1.210 -0.1482  0.3170 -0.0454
 4181TIP3    H134102   4.476   0.192   1.181  0.3516 -1.0944 -0.9559
 4181TIP3    H234103   4.561   0.284   1.267 -2.0123 -0.1175  0.3983
 4182TIP3   OH234104   1.681   6.190   7.160  0.3920  0.4109  0.1468
 4182TIP3    H134105   1.754   6.138   7.193  0.3259  0.7446  0.8393
 4182TIP3    H234106   1.717   6.239   7.086  0.4780 -0.5440 -0.4527
 4183TIP3   OH234107   6.643   1.893   1.115  0.3517  0.0807  0.1974
 4183TIP3    H134108   6.667   1.869   1.025 -0.4684  0.0226 -0.0027
 4183TIP3    H234109   6.663   1.987   1.120  0.8935 -0.0255  0.1231
 4184TIP3   OH234110   6.041   6.437   6.540 -0.2800 -0.0605 -0.0470
 4184TIP3    H134111   5.992   6.391   6.472  1.3988  0.5364 -1.7160
 4184TIP3    H234112   6.031   6.530   6.519 -1.0715  0.2195  1.4752
 4185TIP3   OH234113   2.672   6.473   1.292 -0.5340 -0.1132 -0.5938
 4185TIP3    H134114   2.614   6.435   1.226 -3.4617  0.6033  1.4899
 4185TIP3    H234115   2.698   6.558   1.255 -2.6903  0.5799 -0.5778
 4186TIP3   OH234116   2.640   6.298   7.363 -0.3241  0.0099  0.5248
 4186TIP3    H134117   2.572   6.365   7.377  0.2183  1.1046 -1.7976
 4186TIP3    H234118   2.638   6.282   7.268 -0.1876 -3.0336  1.0043
 4187TIP3   OH234119   4.096   3.702   7.851  0.1170  0.0617 -0.1006
 4187TIP3    H134120   4.102   3.795   7.870 -1.7301 -0.0485  1.1460
 4187TIP3    H234121   4.184   3.668   7.867  0.4704  1.3508  0.7685
 4188TIP3   OH234122   4.166   2.230   1.209  0.5405  0.4209  0.0525
 4188TIP3    H134123   4.167   2.324   1.229 -1.9413  0.5148 -0.0912
 4188TIP3    H234124   4.081   2.215   1.168 -0.7058 -2.5608  3.4337
 4189TIP3   OH234125   5.153   3.923   0.948  0.5613  0.7713  0.0764
 4189TIP3    H134126   5.071   3.914   0.998 -0.4099 -1.1766 -1.7959
 4189TIP3    H234127   5.219   3.882   1.004 -0.3368 -0.4776  0.2645
 4190TIP3   OH234128   3.072   3.636   7.191  0.5364  0.6829  0.8458
 4190TIP3    H134129   3.120   3.563   7.230  2.5930  0.6769 -1.5545
 4190TIP3    H234130   2.984   3.603   7.179  0.4934 -0.1467  3.1194
 4191TIP3   OH234131   5.676   6.428   1.242 -0.1497  0.2512  0.2923
 4191TIP3    H134132   5.738   6.483   1.288  0.9049 -3.2446  3.3411
 4191TIP3    H234133   5.591   6.448   1.282  0.0495  0.5238  0.5742
 4192TIP3   OH234134   5.617   0.621   6.884  0.0728  0.4034  0.2895
 4192TIP3    H134135   5.681   0.594   6.950 -0.1743 -0.1766  0.3001
 4192TIP3    H234136   5.663   0.614   6.801 -0.4525 -1.6218  0.1361
 4193TIP3   OH234137   4.963   0.398   7.036 -0.0408 -0.3228 -0.3358
 4193TIP3    H134138   4.877   0.364   7.011 -0.3730 -0.0792  0.4604
 4193TIP3    H234139   4.957   0.492   7.019 -0.0696 -0.2464  0.0783
 4194TIP3   OH234140   3.641   6.020   0.509 -0.1583 -0.0089  0.0449
 4194TIP3    H134141   3.593   5.994   0.430  0.7232 -1.3705 -0.0471
 4194TIP3    H234142   3.704   6.086   0.479  0.2698 -0.6261 -0.4119
 4195TIP3   OH234143   5.665   2.912   6.746 -0.4387  0.0440  0.3102
 4195TIP3    H134144   5.626   2.851   6.808  0.2293 -1.0605 -0.3383
 4195TIP3    H234145   5.634   2.883   6.660  1.1776 -0.4154 -0.1519
 4196TIP3   OH234146   5.235   6.699   0.348 -0.1443  0.5708 -0.5779
 4196TIP3    H134147   5.160   6.643   0.367  1.8322 -2.1692 -0.3614
 4196TIP3    H234148   5.268   6.724   0.434  0.0954  0.4781 -0.6420
 4197TIP3   OH234149   5.532   0.829   0.020 -0.3017  0.0080 -0.6125
 4197TIP3    H134150   5.582   0.812   0.100  0.8552  0.3483 -1.2481
 4197TIP3    H234151   5.443   0.844   0.049  0.6773  3.2468  0.9100
 4198TIP3   OH234152   4.748   0.046   7.410  0.0838 -0.9473 -0.1418
 4198TIP3    H134153   4.806  -0.014   7.458  0.5326 -1.1427 -0.9235
 4198TIP3    H234154   4.805   0.119   7.386 -0.5457 -0.0257  1.1270
 4199TIP3   OH234155   6.533   2.566   7.429 -0.1136 -0.3855  0.2445
 4199TIP3    H134156   6.444   2.589   7.401  0.4661  1.6075 -0.0405
 4199TIP3    H234157   6.568   2.647   7.465  1.7063 -1.0800  0.0847
 4200TIP3   OH234158   4.653   2.120   2.012 -0.0998 -0.5396 -0.1412
 4200TIP3    H134159   4.602   2.166   2.078  0.7728 -0.2858  0.3666
 4200TIP3    H234160   4.602   2.128   1.931 -0.2119  0.8660  0.0622
 4201TIP3   OH234161   5.231   5.012   7.669  0.4276 -0.4067  0.7420
 4201TIP3    H134162   5.314   4.988   7.628  0.4574 -0.5524  0.8887
 4201TIP3    H234163   5.242   4.990   7.762  1.2556  2.1650  1.3102
 4202TIP3   OH234164   4.698   0.154   1.638 -0.3697 -0.3257 -0.1072
 4202TIP3    H134165   4.621   0.124   1.589  0.2810  0.9339 -1.9287
 4202TIP3    H234166   4.673   0.241   1.670 -1.0328 -1.4043  2.3838
 4203TIP3   OH234167   5.131   4.903   0.139 -0.0353  0.0983 -0.4344
 4203TIP3    H134168   5.100   4.848   0.211  1.1285 -0.8482 -0.6417
 4203TIP3    H234169   5.203   4.853   0.100  0.5458  1.4408 -1.0982
 4204TIP3   OH234170   5.620   2.042   1.052 -0.2512 -0.3183  0.4177
 4204TIP3    H134171   5.592   2.131   1.072  0.9990  0.2385 -0.2554
 4204TIP3    H234172   5.682   2.052   0.980 -0.6438 -1.8008 -0.1504
 4205TIP3   OH234173   3.291   6.084   7.161  0.1506  0.5762  0.1459
 4205TIP3    H134174   3.323   6.172   7.142 -1.0004  1.0153  0.1722
 4205TIP3    H234175   3.198   6.087   7.138 -0.0897 -0.3924  0.9358
 4206TIP3   OH234176   5.777   0.992   1.057  0.2448  0.4719  0.4188
 4206TIP3    H134177   5.683   1.009   1.044  0.1665  0.5111  1.0203
 4206TIP3    H234178   5.799   1.038   1.138  0.6430 -0.0429  0.6090
 4207TIP3   OH234179   1.643   2.437   1.452 -0.1194  0.6575 -0.0658
 4207TIP3    H134180   1.566   2.426   1.509 -1.9012  0.8221 -2.3693
 4207TIP3    H234181   1.716   2.401   1.504 -1.7798  0.1896  2.0469
 4208TIP3   OH234182   4.686   0.474   2.117 -0.1821 -0.0302 -0.0919
 4208TIP3    H134183   4.633   0.499   2.041  0.0799  1.0640  0.0835
 4208TIP3    H234184   4.745   0.549   2.131  2.0120 -1.5569 -0.8044
 4209TIP3   OH234185   3.785   3.247   1.453 -0.4988  0.4306  0.2719
 4209TIP3    H134186   3.848   3.317   1.470 -1.5414  1.6982 -1.0045
 4209TIP3    H234187   3.700   3.287   1.468 -1.0915 -0.6606 -0.1340
 4210TIP3   OH234188   1.347   6.682   1.500  0.1079  0.3173  0.7657
 4210TIP3    H134189   1.361   6.750   1.434 -1.7092 -0.1616 -0.1256
 4210TIP3    H234190   1.313   6.729   1.576  0.5807  0.6394  0.7811
 4211TIP3   OH234191   0.680   2.860   7.263 -0.2554  0.0387 -0.4382
 4211TIP3    H134192   0.657   2.951   7.281  1.4226  0.8189 -2.0289
 4211TIP3    H234193   0.740   2.836   7.334  0.0623  0.5066 -0.5413
 4212TIP3   OH234194   2.451   0.524   1.034 -0.1911  0.7106  0.1592
 4212TIP3    H134195   2.529   0.576   1.054  1.8967 -1.5858 -1.6652
 4212TIP3    H234196   2.484   0.436   1.021 -3.1443 -0.3331 -0.6187
 4213TIP3   OH234197   6.802   6.423   1.002 -0.2524 -0.0020  0.2679
 4213TIP3    H134198   6.792   6.469   1.085 -1.3273  0.2471  0.0129
 4213TIP3    H234199   6.730   6.456   0.947 -0.2461 -1.0007 -0.3627
 4214TIP3   OH234200   5.317   3.326   6.474 -0.0708  0.0036 -0.3457
 4214TIP3    H134201   5.268   3.307   6.394  1.6491 -1.1216 -1.1578
 4214TIP3    H234202   5.356   3.412   6.458 -0.2435  0.0571 -0.4739
 4215TIP3   OH234203   3.313   6.522   8.090 -0.2064 -0.5092  0.2149
 4215TIP3    H134204   3.256   6.526   8.013 -0.7380 -1.3002  0.5569
 4215TIP3    H234205   3.273   6.582   8.152  0.9778  1.1697 -0.5997
 4216TIP3   OH234206   6.585   6.719   1.333  0.0544 -0.3268  0.0856
 4216TIP3    H134207   6.647   6.692   1.401  1.3505  1.9901 -0.1516
 4216TIP3    H234208   6.631   6.702   1.251 -1.1201 -2.1581 -0.2298
 4217TIP3   OH234209   4.716   1.955   6.842 -0.4320  0.2967  0.2927
 4217TIP3    H134210   4.634   1.962   6.890  0.2327 -1.0139  1.6649
 4217TIP3    H234211   4.703   2.007   6.763 -2.5614  0.1311  0.5191
 4218TIP3   OH234212   0.175   3.616   8.087  0.2173 -0.1135  1.4203
 4218TIP3    H134213   0.200   3.704   8.058  0.5480 -1.1200 -1.5224
 4218TIP3    H234214   0.259   3.571   8.102  0.0966 -0.7705  0.1832
 4219TIP3   OH234215   4.620   3.417   7.586  0.3233 -0.0988  0.7239
 4219TIP3    H134216   4.544   3.466   7.556  0.1802  0.9738  2.8204
 4219TIP3    H234217   4.695   3.471   7.561  0.2068  0.7564  2.1816
 4220TIP3   OH234218   5.152   6.891   1.587  0.2327  0.7948  0.2853
 4220TIP3    H134219   5.242   6.886   1.620  0.1626 -0.2228  0.3378
 4220TIP3    H234220   5.159   6.945   1.508  0.5700  2.3433  1.3368
 4221TIP3   OH234221   3.967   1.912   2.328  0.3902  0.4857 -0.3513
 4221TIP3    H134222   3.964   1.972   2.254 -2.2176  0.1378 -0.5722
 4221TIP3    H234223   3.972   1.825   2.289  2.4559  0.4318 -0.0458
 4222TIP3   OH234224   3.616   2.626   0.055 -0.3461  0.1307  0.3945
 4222TIP3    H134225   3.553   2.643  -0.015  0.6036 -1.3639 -0.8553
 4222TIP3    H234226   3.661   2.709   0.069  0.8080 -0.0273 -2.1470
 4223TIP3   OH234227   0.987   0.412   7.069  0.4184 -0.1411  0.0876
 4223TIP3    H134228   1.073   0.449   7.053  0.3082  1.3156  2.4749
 4223TIP3    H234229   0.926   0.482   7.044 -0.0130 -0.6210 -0.2165
 4224TIP3   OH234230   2.494   2.418   0.602  0.2966  0.5189 -0.4916
 4224TIP3    H134231   2.568   2.358   0.602 -0.7442 -0.7884 -0.5197
 4224TIP3    H234232   2.524   2.493   0.653  1.2491 -0.4883  0.4700
 4225TIP3   OH234233   3.209   2.505   7.640 -0.6743 -0.3378 -0.1848
 4225TIP3    H134234   3.283   2.491   7.582  1.3103  0.5923  2.0220
 4225TIP3    H234235   3.235   2.581   7.693 -2.2987 -1.2966  2.0490
 4226TIP3   OH234236   6.397   1.013   7.715  0.6728 -0.3255  0.2739
 4226TIP3    H134237   6.475   1.023   7.661  1.1348  0.5178  1.1014
 4226TIP3    H234238   6.386   0.918   7.723 -0.1007 -0.5068 -2.2867
 4227TIP3   OH234239   2.762   6.271   7.781 -0.0663  0.0791  0.0061
 4227TIP3    H134240   2.757   6.339   7.714  0.9446  0.8271  0.6819
 4227TIP3    H234241   2.671   6.257   7.808 -0.2934  1.0395 -0.2566
 4228TIP3   OH234242   4.379   3.113   0.673 -0.1520  0.3091  0.1869
 4228TIP3    H134243   4.356   3.190   0.725  0.7904 -0.3052  1.5238
 4228TIP3    H234244   4.378   3.040   0.735 -0.2208 -0.6356 -0.9007
 4229TIP3   OH234245   3.288   2.241   0.379  0.5687  0.1150  0.8233
 4229TIP3    H134246   3.336   2.324   0.380  1.3663 -0.3288 -0.1156
 4229TIP3    H234247   3.222   2.252   0.310 -0.6821  0.7066  2.0800
 4230TIP3   OH234248   6.354   4.162   8.097 -0.3925 -0.4493  0.1656
 4230TIP3    H134249   6.395   4.085   8.058 -1.2214  0.1323 -1.9303
 4230TIP3    H234250   6.292   4.192   8.030 -0.7403  1.4782  1.3308
 4231TIP3   OH234251   1.914   1.654   0.233 -0.0277 -0.0113 -0.1824
 4231TIP3    H134252   1.990   1.596   0.238  0.2014  0.4510  2.3172
 4231TIP3    H234253   1.846   1.609   0.284 -0.0338  1.5976  1.2659
 4232TIP3   OH234254   2.695   5.973   5.976  0.7097 -0.1844  0.2069
 4232TIP3    H134255   2.678   6.059   5.939 -0.3364 -0.2249  0.5698
 4232TIP3    H234256   2.719   5.991   6.067  1.1079 -0.2402  0.1153
 4233TIP3   OH234257   4.579   4.527   1.584  0.4747  0.2071  0.1630
 4233TIP3    H134258   4.658   4.505   1.633  1.0361  0.2087 -0.7261
 4233TIP3    H234259   4.511   4.534   1.650  0.9263 -1.1989  0.7935
 4234TIP3   OH234260   3.660   0.472   0.581  0.3910  0.2079  0.1911
 4234TIP3    H134261   3.587   0.472   0.644  1.8570  1.5943  1.9446
 4234TIP3    H234262   3.717   0.401   0.612  0.7279  0.3769 -0.0502
 4235TIP3   OH234263   2.466   0.459   1.380  0.3320  0.0070  0.3709
 4235TIP3    H134264   2.559   0.480   1.368  0.1905  0.4407 -0.0069
 4235TIP3    H234265   2.456   0.372   1.341 -0.0255  1.2241 -2.3746
 4236TIP3   OH234266   1.863   2.320   1.606 -0.2847  0.4264 -0.0842
 4236TIP3    H134267   1.839   2.383   1.674  1.1739  1.7337 -0.7477
 4236TIP3    H234268   1.892   2.243   1.654  2.7888  2.0973  0.8592
 4237TIP3   OH234269   4.709   5.706   0.474  0.0925  0.9355 -0.3664
 4237TIP3    H134270   4.645   5.749   0.418 -1.3120  0.9249  1.2180
 4237TIP3    H234271   4.658   5.647   0.529  1.5598  0.2382  0.2730
 4238TIP3   OH234272   5.443   6.549   1.261 -0.1545  0.0082 -0.7817
 4238TIP3    H134273   5.364   6.521   1.308  0.1636 -0.2053 -0.3698
 4238TIP3    H234274   5.433   6.511   1.173 -0.4830 -0.0647 -0.7163
 4239TIP3   OH234275   4.622   1.719   1.399 -0.6479 -0.2439 -0.3725
 4239TIP3    H134276   4.613   1.625   1.383 -1.6840 -0.2050 -0.0367
 4239TIP3    H234277   4.706   1.742   1.360  0.3600 -1.6194  0.9193
 4240TIP3   OH234278   2.229   1.134   7.852 -0.5073 -0.0401 -0.3190
 4240TIP3    H134279   2.140   1.167   7.839 -0.4062 -0.1237 -1.2347
 4240TIP3    H234280   2.260   1.112   7.764  1.0964  1.7649 -0.2362
 4241TIP3   OH234281   6.605   1.444   6.281  0.6133  0.0268  0.0607
 4241TIP3    H134282   6.569   1.406   6.361 -0.5590  1.2412  0.1297
 4241TIP3    H234283   6.533   1.440   6.218  2.0876 -2.5960 -1.5199
 4242TIP3   OH234284   3.344   2.202   1.389 -0.1860  0.0522 -0.9426
 4242TIP3    H134285   3.380   2.245   1.466 -1.8508  0.6950 -0.5005
 4242TIP3    H234286   3.251   2.223   1.391 -0.4222 -0.7383 -2.5983
 4243TIP3   OH234287   5.736   3.521   6.293  0.2059  0.4274 -0.0455
 4243TIP3    H134288   5.703   3.581   6.226  2.6540  0.7290 -1.0211
 4243TIP3    H234289   5.676   3.446   6.289  0.1345  0.5542 -2.4283
 4244TIP3   OH234290   1.413   5.521   1.737 -0.3820  0.0061  0.0587
 4244TIP3    H134291   1.359   5.599   1.726  1.3479  0.9384 -2.1663
 4244TIP3    H234292   1.498   5.554   1.765 -0.6598 -1.3889  2.7826
 4245TIP3   OH234293   0.211   6.958   1.066 -0.2710  0.4459 -0.7300
 4245TIP3    H134294   0.158   7.028   1.029 -2.4739 -0.3875  0.7382
 4245TIP3    H234295   0.212   6.976   1.160  1.8948  0.3170 -0.7038
 4246TIP3   OH234296   3.273   3.228   6.947  0.4762  0.2305  0.3930
 4246TIP3    H134297   3.290   3.283   6.871  2.5210 -1.0269 -0.0750
 4246TIP3    H234298   3.359   3.194   6.972 -0.7295 -2.7178  0.6986
 4247TIP3   OH234299   1.965   2.253   6.740 -0.4232  0.2345  0.0428
 4247TIP3    H134300   1.953   2.276   6.648 -0.0644 -0.1643 -0.1073
 4247TIP3    H234301   2.032   2.184   6.739 -1.1529 -0.4942  0.5139
 4248TIP3   OH234302   6.721   4.282   0.397 -0.2908  0.2023 -0.2198
 4248TIP3    H134303   6.707   4.195   0.360 -0.6278  0.6902 -1.2472
 4248TIP3    H234304   6.691   4.274   0.488 -2.0246 -0.2703 -0.8222
 4249TIP3   OH234305   1.720   2.805   6.929 -0.1455  0.5304  0.7365
 4249TIP3    H134306   1.638   2.807   6.881  0.2651 -2.9976 -0.2668
 4249TIP3    H234307   1.695   2.792   7.020 -0.7197 -0.9671  0.3777
 4250TIP3   OH234308   1.070   0.620   7.337  0.1473  0.2926 -0.6880
 4250TIP3    H134309   1.156   0.605   7.299 -0.6179 -1.6517 -1.7200
 4250TIP3    H234310   1.073   0.710   7.368  2.7996  0.0157 -0.0236
 4251TIP3   OH234311   5.562   5.119   0.569 -0.2050 -0.5588 -0.5420
 4251TIP3    H134312   5.501   5.117   0.643 -0.9864  1.8470 -1.0496
 4251TIP3    H234313   5.593   5.029   0.561 -1.0294 -1.1200  1.9319
 4252TIP3   OH234314   3.368   0.388   6.483 -0.0807 -0.4161 -0.2861
 4252TIP3    H134315   3.327   0.333   6.416  0.3052  1.8738 -2.4789
 4252TIP3    H234316   3.434   0.438   6.436  2.0928 -0.6980  2.3600
 4253TIP3   OH234317   7.037   1.463   8.071 -0.6707 -0.4394 -0.0020
 4253TIP3    H134318   7.011   1.384   8.119 -0.8144 -0.6248 -0.3779
 4253TIP3    H234319   7.044   1.531   8.138 -0.1826 -0.8616  0.3705
 4254TIP3   OH234320   3.550   0.586   0.345  0.0179  0.5714  0.3322
 4254TIP3    H134321   3.598   0.573   0.427 -0.9035  1.3093  0.9980
 4254TIP3    H234322   3.515   0.500   0.324 -0.3578  0.5207  1.1187
 4255TIP3   OH234323   3.093   5.639   1.900 -0.1060 -0.2320  0.0175
 4255TIP3    H134324   3.185   5.666   1.894  0.2502 -1.6677 -1.4113
 4255TIP3    H234325   3.044   5.721   1.902  1.0263  0.5632 -2.6576
 4256TIP3   OH234326   5.352   6.633   7.368 -0.1045 -0.4389  0.2588
 4256TIP3    H134327   5.374   6.702   7.305 -0.4071  0.1132  0.7586
 4256TIP3    H234328   5.436   6.610   7.409 -0.4045  1.6363  2.1380
 4257TIP3   OH234329   6.509   3.673   6.249 -0.2072 -0.8368 -0.1115
 4257TIP3    H134330   6.482   3.601   6.192 -1.8064  0.1165 -0.5974
 4257TIP3    H234331   6.602   3.684   6.232 -0.3462 -1.5782 -1.3962
 4258TIP3   OH234332   3.711   6.249   6.566 -0.4318  0.0995  0.0277
 4258TIP3    H134333   3.756   6.235   6.483  3.1002 -1.1358  2.0206
 4258TIP3    H234334   3.721   6.343   6.583 -1.2475  0.3722 -0.9791
 4259TIP3   OH234335   2.813   3.575   7.755  0.3418  0.6006  0.5272
 4259TIP3    H134336   2.885   3.584   7.694 -1.3221  0.4736 -1.5206
 4259TIP3    H234337   2.791   3.665   7.781  0.3949  0.7301  0.1271
 4260TIP3   OH234338   5.613   1.324   1.243 -0.2472 -0.3201  0.1097
 4260TIP3    H134339   5.637   1.331   1.150  0.1909  0.2455  0.2638
 4260TIP3    H234340   5.609   1.414   1.273 -1.5880 -0.4573  0.3410
 4261TIP3   OH234341   3.100   1.226   7.586  0.4490  0.0575  0.3065
 4261TIP3    H134342   3.068   1.155   7.641 -0.2269 -1.4911 -1.9847
 4261TIP3    H234343   3.052   1.303   7.616 -1.4232 -1.1529  0.5345
 4262TIP3   OH234344   4.514   3.469   1.362 -0.0976 -0.3489  0.7517
 4262TIP3    H134345   4.529   3.563   1.358  2.5949 -0.7273  1.2914
 4262TIP3    H234346   4.490   3.452   1.453  0.0719 -0.2754  0.8093
 4263TIP3   OH234347   5.214   2.102   0.963  0.2824 -0.4028  0.6106
 4263TIP3    H134348   5.147   2.170   0.974  2.1726  1.3758  1.6388
 4263TIP3    H234349   5.185   2.051   0.888 -1.3629  1.3640  0.0104
 4264TIP3   OH234350   6.351   1.939   0.979  0.4225 -0.6916  0.1748
 4264TIP3    H134351   6.311   1.852   0.984 -1.4651  0.1471  0.0465
 4264TIP3    H234352   6.354   1.969   1.069  0.8792 -0.7966  0.1956
 4265TIP3   OH234353   4.693   1.332   1.653 -0.2185 -0.2019  0.3818
 4265TIP3    H134354   4.695   1.404   1.716 -1.3521  0.2598 -0.1033
 4265TIP3    H234355   4.780   1.333   1.612 -0.2515  0.9329  0.3348
 4266TIP3   OH234356   3.677   0.220   1.476 -0.0245  1.0439  0.0654
 4266TIP3    H134357   3.644   0.287   1.535  0.9627  1.5655  0.0337
 4266TIP3    H234358   3.751   0.181   1.523  0.2427  0.8872 -0.4812
 4267TIP3   OH234359   3.162   2.576   0.753 -0.1828  0.4558  0.3066
 4267TIP3    H134360   3.214   2.588   0.833  0.7873 -0.0384 -0.2400
 4267TIP3    H234361   3.091   2.639   0.761 -1.0903 -0.7944  2.3706
 4268TIP3   OH234362   5.097   2.573   1.379  0.4779 -0.0093  0.3118
 4268TIP3    H134363   5.185   2.536   1.378  0.6211  0.3413 -0.2404
 4268TIP3    H234364   5.090   2.620   1.296 -1.1300 -2.1549 -0.8305
 4269TIP3   OH234365   6.695   2.807   0.725  0.4087 -0.5480  0.3598
 4269TIP3    H134366   6.693   2.889   0.776  1.5207 -0.7594  0.7602
 4269TIP3    H234367   6.666   2.833   0.637 -1.0149 -0.0807  0.9587
 4270TIP3   OH234368   4.480   7.018   1.287 -0.3408 -0.0809  0.3751
 4270TIP3    H134369   4.392   6.996   1.316 -0.5661 -0.0463 -0.2695
 4270TIP3    H234370   4.480   7.113   1.280 -0.7469 -0.1802 -1.1532
 4271TIP3   OH234371   5.207   1.618   0.295 -0.0673 -0.2418 -0.0458
 4271TIP3    H134372   5.254   1.701   0.303  2.3538 -1.5866 -0.0948
 4271TIP3    H234373   5.228   1.586   0.208 -1.9348 -0.3855 -0.4778
 4272TIP3   OH234374   0.554   2.925   0.248 -0.1640 -1.0091 -0.3875
 4272TIP3    H134375   0.593   2.840   0.265 -0.1500 -1.5603 -3.0127
 4272TIP3    H234376   0.480   2.930   0.309  0.7783 -2.2114  0.8793
 4273TIP3   OH234377   2.701   5.516   1.221  0.1107 -0.2179  0.1623
 4273TIP3    H134378   2.743   5.541   1.139  0.0168  0.1680  0.2331
 4273TIP3    H234379   2.671   5.598   1.259  1.7020 -0.1918  1.4279
 4274TIP3   OH234380   4.481   6.983   1.006 -0.0049 -0.2864  0.2528
 4274TIP3    H134381   4.415   7.050   1.024  0.6115  0.1903  0.7210
 4274TIP3    H234382   4.507   6.951   1.093  0.6431 -0.2235  0.0811
 4275TIP3   OH234383   4.536   4.578   7.914  0.3023 -0.5185 -1.1671
 4275TIP3    H134384   4.496   4.617   7.837  0.7200 -0.3312 -1.2932
 4275TIP3    H234385   4.503   4.488   7.917  0.3374 -0.5432 -1.5948
 4276TIP3   OH234386   1.928   5.861   1.122  0.1949  0.0974  0.2444
 4276TIP3    H134387   1.982   5.817   1.187 -1.2734 -0.1037  1.3484
 4276TIP3    H234388   1.892   5.790   1.068  0.2317  0.1593  0.1376
 4277TIP3   OH234389   4.378   3.617   7.236  0.5066  0.2738  0.0579
 4277TIP3    H134390   4.464   3.600   7.195  0.0274  0.8467 -1.2335
 4277TIP3    H234391   4.348   3.531   7.264  0.1539 -0.3975 -2.2532
 4278TIP3   OH234392   5.085   2.460   6.640  0.1533 -0.0235  0.1711
 4278TIP3    H134393   5.168   2.481   6.683 -0.1480 -1.3233  1.4207
 4278TIP3    H234394   5.052   2.545   6.609  1.5141  0.6181  0.4255
 4279TIP3   OH234395   5.354   1.686   1.703  0.8913 -0.1282 -0.1372
 4279TIP3    H134396   5.361   1.596   1.732  1.6936 -0.1099 -0.2653
 4279TIP3    H234397   5.272   1.718   1.742 -0.3749 -1.4700 -1.6287
 4280TIP3   OH234398   5.257   2.362   7.775 -0.5615 -0.0576  0.0325
 4280TIP3    H134399   5.211   2.413   7.842 -1.1180 -0.7472  0.1810
 4280TIP3    H234400   5.188   2.330   7.718 -0.1343  0.0560 -0.5503
 4281TIP3   OH234401   1.344   0.229   7.163 -0.7024 -0.3406  0.2461
 4281TIP3    H134402   1.362   0.190   7.078  1.0555 -0.3944  0.6086
 4281TIP3    H234403   1.258   0.196   7.188  0.0294 -2.6842 -0.2084
 4282TIP3   OH234404   2.585   0.750   6.057  0.1379 -0.1205  0.2119
 4282TIP3    H134405   2.584   0.657   6.081 -1.2164 -0.4146 -0.9519
 4282TIP3    H234406   2.501   0.784   6.087  1.2235  1.1125  1.9914
 4283TIP3   OH234407   5.899   1.095   6.174  0.2828  0.3258 -0.3572
 4283TIP3    H134408   5.920   1.184   6.147  0.7641  0.1105 -0.6915
 4283TIP3    H234409   5.855   1.056   6.099 -0.6748  0.5442  0.0853
 4284TIP3   OH234410   5.202   1.199   1.679  0.4682 -0.2013 -0.1534
 4284TIP3    H134411   5.270   1.261   1.704  1.2825 -0.6920 -1.1230
 4284TIP3    H234412   5.219   1.180   1.587 -0.8966 -0.4433 -0.3691
 4285TIP3   OH234413   5.812   5.065   1.209  0.0434 -0.0064 -0.0471
 4285TIP3    H134414   5.764   5.111   1.140  0.8386  0.4281 -0.3193
 4285TIP3    H234415   5.904   5.086   1.192  0.2508  0.0683  1.1139
 4286TIP3   OH234416   1.929   4.497   6.769 -0.0168  0.0876 -0.1478
 4286TIP3    H134417   2.019   4.464   6.774 -0.0619 -0.1048 -0.5893
 4286TIP3    H234418   1.917   4.518   6.676  0.2199  1.9399  0.2257
 4287TIP3   OH234419   3.483   2.666   7.460 -0.0500 -0.2931  0.2542
 4287TIP3    H134420   3.435   2.584   7.445 -0.2710 -0.3245  1.1394
 4287TIP3    H234421   3.565   2.639   7.502  0.5432 -0.1933 -0.8076
 4288TIP3   OH234422   0.475   0.954   1.721 -0.5407  0.8444 -0.2050
 4288TIP3    H134423   0.528   1.011   1.665  0.9306  1.0158  1.3113
 4288TIP3    H234424   0.527   0.944   1.801 -1.6189 -1.1400  0.2841
 4289TIP3   OH234425   4.407   0.864   0.399  0.3303 -0.3544  0.2241
 4289TIP3    H134426   4.485   0.820   0.433 -0.0467 -1.9396 -0.9140
 4289TIP3    H234427   4.340   0.852   0.467  0.7043 -0.0833  0.6433
 4290TIP3   OH234428   5.127   7.005   7.176  0.1302 -0.4147  0.4447
 4290TIP3    H134429   5.220   7.016   7.197 -0.4940  3.4671  1.5965
 4290TIP3    H234430   5.108   7.075   7.113 -1.7809 -1.8337 -0.5849
 4291TIP3   OH234431   1.027   1.581   1.193  0.1145  0.0490 -0.3913
 4291TIP3    H134432   1.041   1.655   1.252 -3.1095  1.4134 -1.2654
 4291TIP3    H234433   1.038   1.618   1.106 -1.1496 -0.5959 -0.8258
 4292TIP3   OH234434   5.828   0.867   1.715  0.0841 -0.1221 -0.1458
 4292TIP3    H134435   5.817   0.803   1.785  0.4001  0.7764  0.7454
 4292TIP3    H234436   5.750   0.922   1.719  0.4569  0.4088  0.0152
 4293TIP3   OH234437   1.266   6.087   7.024  0.3518 -1.0580 -0.0823
 4293TIP3    H134438   1.295   6.174   7.051  2.0430 -1.5386 -0.2533
 4293TIP3    H234439   1.271   6.034   7.104  1.2098 -1.4523 -0.3894
 4294TIP3   OH234440   5.015   2.287   7.263  0.5002  0.0223  0.0109
 4294TIP3    H134441   4.995   2.219   7.199  0.2440  1.1355 -1.1115
 4294TIP3    H234442   4.965   2.364   7.233 -0.5325  0.2450  2.1647
 4295TIP3   OH234443   7.087   2.955   0.998 -0.0431  0.1476  0.0747
 4295TIP3    H134444   7.156   2.923   1.057 -0.5651  1.2218  1.3156
 4295TIP3    H234445   7.132   3.017   0.940  0.4423 -0.7691 -0.5275
 4296TIP3   OH234446   0.953   0.250   0.184  0.0171 -0.5460 -0.1333
 4296TIP3    H134447   1.015   0.182   0.160  0.9671  0.7893 -1.6094
 4296TIP3    H234448   0.882   0.241   0.119 -0.2752 -0.6849  0.2054
 4297TIP3   OH234449   5.100   6.345   6.975 -0.2732 -0.3678 -0.3127
 4297TIP3    H134450   5.170   6.335   7.039 -0.6019 -0.9054 -0.0307
 4297TIP3    H234451   5.062   6.257   6.967 -1.0728 -0.0329 -0.2733
 4298TIP3   OH234452   5.818   5.443   6.263  0.7599 -0.2983 -0.4474
 4298TIP3    H134453   5.814   5.353   6.231  0.9743 -0.1231 -0.9640
 4298TIP3    H234454   5.902   5.447   6.309  0.7624 -0.3525 -0.4471
 4299TIP3   OH234455   3.250   3.341   0.695 -0.1601  0.0428  0.2613
 4299TIP3    H134456   3.302   3.395   0.756 -0.0079 -0.1477  0.3001
 4299TIP3    H234457   3.256   3.387   0.612  1.6453 -0.9601 -0.1995
 4300TIP3   OH234458   0.903   4.678   0.118  0.1039 -0.2457 -0.3051
 4300TIP3    H134459   0.889   4.649   0.208  1.4639 -0.2380 -0.0837
 4300TIP3    H234460   0.832   4.740   0.101  0.6652  0.8284  1.2380
 4301TIP3   OH234461   0.791   6.338   1.330  0.1585  0.4013 -0.1702
 4301TIP3    H134462   0.748   6.282   1.394  0.7907 -1.2082 -1.1155
 4301TIP3    H234463   0.842   6.400   1.382  2.3068 -2.1748  0.9122
 4302TIP3   OH234464   4.683   6.608   1.245  0.5068 -0.3857 -0.1914
 4302TIP3    H134465   4.650   6.564   1.323  1.8711  0.6107  0.9809
 4302TIP3    H234466   4.686   6.701   1.269  0.9630 -0.0683 -1.4208
 4303TIP3   OH234467   5.312   0.154   8.084  0.0905  0.3810 -0.0569
 4303TIP3    H134468   5.271   0.098   8.149 -0.0276  0.8076  0.2422
 4303TIP3    H234469   5.401   0.121   8.075  0.6395  1.3606  1.5801
 4304TIP3   OH234470   5.246   4.189   7.704  0.2062  0.3237 -0.3213
 4304TIP3    H134471   5.245   4.101   7.666 -1.5486 -0.2822  1.0447
 4304TIP3    H234472   5.167   4.231   7.670 -0.8484  0.1194  1.7251
 4305TIP3   OH234473   0.667   1.363   7.140  0.4460  0.0109 -0.3341
 4305TIP3    H134474   0.645   1.369   7.048 -0.7256  2.5868  0.0919
 4305TIP3    H234475   0.623   1.283   7.170 -0.8776  0.2657 -1.5504
 4306TIP3   OH234476   3.579   3.939   8.101 -0.1780 -0.0943 -0.1824
 4306TIP3    H134477   3.657   3.934   8.047 -0.4912 -0.3424 -0.6111
 4306TIP3    H234478   3.610   3.974   8.185  0.4795 -0.6835 -0.1762
 4307TIP3   OH234479   0.075   6.926   7.390  0.7418  0.2350 -0.0438
 4307TIP3    H134480   0.060   6.961   7.302  0.5988  0.8615  0.2323
 4307TIP3    H234481   0.037   6.991   7.449  3.1858  1.1042  0.6112
 4308TIP3   OH234482   4.036   6.032   0.404 -0.2728 -0.6884  0.0667
 4308TIP3    H134483   3.989   6.027   0.321  2.4136  0.6735 -1.6169
 4308TIP3    H234484   4.011   6.117   0.441  1.7922  0.6351 -1.4699
 4309TIP3   OH234485   4.411   6.548   1.378 -0.2055 -0.8512 -0.2225
 4309TIP3    H134486   4.338   6.595   1.336 -0.0863 -0.7904 -0.3635
 4309TIP3    H234487   4.471   6.617   1.405 -1.2333 -0.7490  1.8772
 4310TIP3   OH234488   5.857   1.783   1.410 -0.4141  0.0206  0.0087
 4310TIP3    H134489   5.880   1.807   1.320 -0.5584  0.0032 -0.0332
 4310TIP3    H234490   5.836   1.866   1.452  0.8456  0.1661  0.3721
 4311TIP3   OH234491   3.664   1.207   6.560 -0.4143 -0.3321  0.6630
 4311TIP3    H134492   3.726   1.191   6.488  0.3266  1.1576  0.9473
 4311TIP3    H234493   3.716   1.250   6.627 -1.3908 -0.6165  1.6189
 4312TIP3   OH234494   3.997   1.208   7.208 -0.5694  0.7415  0.3313
 4312TIP3    H134495   3.925   1.153   7.176 -1.0532  1.8598 -0.5442
 4312TIP3    H234496   4.010   1.273   7.139  2.4157 -0.4432 -0.2611
 4313TIP3   OH234497   4.758   2.414   1.627  0.4553  0.0276  0.3542
 4313TIP3    H134498   4.668   2.439   1.650  0.7306  0.5863  0.8243
 4313TIP3    H234499   4.758   2.409   1.532  0.1293  0.8080  0.3117
 4314TIP3   OH234500   4.066   3.886   1.053  0.3775  0.1537 -0.1384
 4314TIP3    H134501   4.074   3.977   1.023  1.7418 -0.1153 -0.6594
 4314TIP3    H234502   4.100   3.834   0.980 -1.2702 -0.8429 -0.2121
 4315TIP3   OH234503   3.478   0.755   1.355 -0.6585  0.1066  0.0802
 4315TIP3    H134504   3.453   0.768   1.264  2.7227 -0.6937 -1.0138
 4315TIP3    H234505   3.522   0.670   1.357 -2.5127 -0.8781  2.8874
 4316TIP3   OH234506   4.340   2.173   7.650  0.0133 -0.3859  0.3123
 4316TIP3    H134507   4.421   2.161   7.700  1.3138  0.0307 -1.6753
 4316TIP3    H234508   4.355   2.252   7.599 -2.3193  0.6605  1.2106
 4317TIP3   OH234509   3.503   1.661   0.393 -0.2894 -0.0027  0.7145
 4317TIP3    H134510   3.567   1.608   0.441  0.5575  1.4287  1.1933
 4317TIP3    H234511   3.542   1.748   0.389 -0.7344  0.1251 -1.8456
 4318TIP3   OH234512   5.000   5.723   6.669  0.5187 -0.0053  0.3853
 4318TIP3    H134513   4.917   5.770   6.674  0.2887 -0.5172  1.7457
 4318TIP3    H234514   4.985   5.655   6.604  0.2103  0.5643 -0.1415
 4319TIP3   OH234515   5.618   3.451   0.632  0.0690  0.3273 -0.0012
 4319TIP3    H134516   5.580   3.534   0.662  1.0513  0.7061  0.1927
 4319TIP3    H234517   5.677   3.475   0.561  0.5696 -0.1722  0.2363
 4320TIP3   OH234518   2.586   5.795   0.999  0.0674 -0.6937 -0.2373
 4320TIP3    H134519   2.535   5.836   0.929 -1.8887 -3.3410 -0.4437
 4320TIP3    H234520   2.555   5.837   1.080  0.3283  0.3868 -0.6887
 4321TIP3   OH234521   5.286   0.644   1.036  0.0581 -1.0869  0.4902
 4321TIP3    H134522   5.244   0.730   1.039 -1.4828 -1.6932 -2.0246
 4321TIP3    H234523   5.380   0.662   1.036 -0.2525  0.6730 -1.4675
 4322TIP3   OH234524   2.013   6.068   6.520 -0.4459 -0.3467 -0.5405
 4322TIP3    H134525   2.052   6.155   6.508  1.7876 -1.1045  0.7952
 4322TIP3    H234526   2.046   6.017   6.446  1.8008 -1.1909  0.9859
 4323TIP3   OH234527   7.105   3.771   0.469  0.7771 -0.3640 -0.3314
 4323TIP3    H134528   7.118   3.745   0.560  2.7215  0.0482 -0.4767
 4323TIP3    H234529   7.086   3.865   0.473  0.5920 -0.4017 -0.3280
 4324TIP3   OH234530   0.764   2.302   6.827 -0.0624  0.0653 -0.3763
 4324TIP3    H134531   0.846   2.276   6.868 -0.1543 -0.9446 -0.8320
 4324TIP3    H234532   0.789   2.339   6.743  0.0958  1.7969  0.4102
 4325TIP3   OH234533   3.305   0.270   5.974  0.2898  0.5188 -0.3532
 4325TIP3    H134534   3.349   0.189   5.950  0.0162 -0.3209  1.8706
 4325TIP3    H234535   3.365   0.339   5.946  2.3153 -0.5651  1.2485
 4326TIP3   OH234536   3.417   0.019   5.936 -0.4964  0.6688  0.1751
 4326TIP3    H134537   3.423   0.007   5.841  0.6255  0.5686  0.2539
 4326TIP3    H234538   3.412  -0.070   5.971 -1.6645  0.7239  0.1702
 4327TIP3   OH234539   5.520   1.143   6.890 -0.1800  0.1113  0.2274
 4327TIP3    H134540   5.586   1.074   6.884 -0.6535 -0.3729  0.4641
 4327TIP3    H234541   5.552   1.212   6.833  0.4348 -0.1965  0.1918
 4328TIP3   OH234542   5.088   4.745   0.795 -0.0251 -0.0861  0.1378
 4328TIP3    H134543   5.111   4.714   0.707 -2.6682  1.6486 -1.2417
 4328TIP3    H234544   5.005   4.701   0.814 -0.2019  0.6924  1.1504
 4329TIP3   OH234545   2.713   1.800   2.523 -0.1499  0.5155  0.0316
 4329TIP3    H134546   2.732   1.892   2.506  2.4212  0.0340  0.0616
 4329TIP3    H234547   2.631   1.801   2.572 -0.4696  2.7383 -0.4934
 4330TIP3   OH234548   4.352   0.205   1.921 -0.5855  0.3308 -0.0119
 4330TIP3    H134549   4.419   0.210   1.989 -0.4386 -0.3341 -0.1031
 4330TIP3    H234550   4.337   0.112   1.909 -2.0296  0.4881  0.4868
 4331TIP3   OH234551   2.743   0.857   6.442 -0.0911 -0.0069  0.0005
 4331TIP3    H134552   2.786   0.808   6.371 -0.7487 -0.3056 -0.1902
 4331TIP3    H234553   2.675   0.798   6.474 -0.7350  0.7000 -0.0737
 4332TIP3   OH234554   2.066   0.249   1.756 -0.1684  0.1262 -0.5612
 4332TIP3    H134555   2.013   0.295   1.821 -0.6703  0.4972 -1.2282
 4332TIP3    H234556   2.153   0.243   1.796 -0.8452 -0.9879  0.7791
 4333TIP3   OH234557   6.513   5.476   0.304 -0.1322 -0.1575  0.1334
 4333TIP3    H134558   6.520   5.382   0.292 -1.5609 -0.4038  1.0431
 4333TIP3    H234559   6.595   5.501   0.346  0.5319 -0.8829 -0.7205
 4334TIP3   OH234560   6.098   0.296   1.463 -0.7646  0.2211 -0.5619
 4334TIP3    H134561   6.181   0.249   1.477 -0.4974  0.6461 -0.7080
 4334TIP3    H234562   6.056   0.295   1.549  0.3091  1.7396 -0.0112
 4335TIP3   OH234563   3.887   0.107   1.637 -0.0950  0.0352 -0.0243
 4335TIP3    H134564   3.922   0.137   1.721  0.1673  0.4648 -0.2844
 4335TIP3    H234565   3.950   0.138   1.572 -0.8008  0.5592 -0.4690
 4336TIP3   OH234566   6.228   5.550   7.103 -0.1786 -0.2598  0.8164
 4336TIP3    H134567   6.304   5.499   7.075 -1.4755 -0.9332 -1.5954
 4336TIP3    H234568   6.152   5.497   7.078 -1.5764  2.7099 -1.5658
 4337TIP3   OH234569   3.611   1.740   7.174  0.0613  0.2645 -0.1828
 4337TIP3    H134570   3.589   1.792   7.096  2.2282 -0.8355 -1.5670
 4337TIP3    H234571   3.701   1.763   7.194  0.8649 -2.4451 -0.4335
 4338TIP3   OH234572   1.637   4.751   1.466 -0.0616 -0.2597 -0.1261
 4338TIP3    H134573   1.672   4.751   1.377  1.0288  0.1496  0.2980
 4338TIP3    H234574   1.670   4.832   1.505  0.8955 -1.2795  1.2078
 4339TIP3   OH234575   6.738   3.272   7.899 -0.0605 -0.0973 -0.0821
 4339TIP3    H134576   6.763   3.202   7.960  1.5554  0.2620 -0.3151
 4339TIP3    H234577   6.819   3.294   7.853 -0.8721  0.9244 -1.0531
 4340TIP3   OH234578   1.240   0.640   8.100  0.1673  0.1746 -0.2469
 4340TIP3    H134579   1.249   0.571   8.166  0.8305 -1.0518 -1.5958
 4340TIP3    H234580   1.305   0.618   8.033  1.5990  3.0737  0.1157
 4341TIP3   OH234581   4.846   6.247   6.679  0.2154  0.8993  0.3744
 4341TIP3    H134582   4.888   6.307   6.618  0.4729 -0.0551 -0.4075
 4341TIP3    H234583   4.885   6.162   6.659 -2.1995 -0.0407 -0.4896
 4342TIP3   OH234584   0.197   1.572   1.389 -0.0519  0.4289 -0.1528
 4342TIP3    H134585   0.170   1.492   1.434  1.1494 -0.9050 -1.7373
 4342TIP3    H234586   0.253   1.617   1.452 -0.0906 -0.3636  0.4624
 4343TIP3   OH234587   4.364   2.198   8.023  0.4571 -0.0041  0.0210
 4343TIP3    H134588   4.445   2.146   8.022 -0.1760 -0.9889 -1.1012
 4343TIP3    H234589   4.389   2.281   7.984  1.2770  0.2458  1.0351
 4344TIP3   OH234590   2.025   6.818   2.057  0.2711 -0.2763 -0.4735
 4344TIP3    H134591   2.044   6.911   2.041  0.6009 -0.3220 -0.3534
 4344TIP3    H234592   1.970   6.818   2.136 -0.3145 -0.1369 -0.8804
 4345TIP3   OH234593   4.617   1.793   7.276 -0.2272  0.5207  0.3528
 4345TIP3    H134594   4.588   1.750   7.195 -0.2749  0.7047  0.2701
 4345TIP3    H234595   4.706   1.762   7.289 -0.5315 -0.2027  0.7174
 4346TIP3   OH234596   3.883   2.406   1.551  0.2563 -0.0895 -0.4133
 4346TIP3    H134597   3.802   2.457   1.563  0.2801  0.2175 -1.4484
 4346TIP3    H234598   3.952   2.465   1.580  0.0197 -0.8104  1.6530
 4347TIP3   OH234599   2.761   5.314   6.053  0.3641 -0.2940  0.1950
 4347TIP3    H134600   2.699   5.242   6.062 -2.3739  2.0465  0.5700
 4347TIP3    H234601   2.736   5.359   5.972  0.9187  1.2773  0.8638
 4348TIP3   OH234602   4.513   7.058   6.602 -0.1260  0.0798  0.0813
 4348TIP3    H134603   4.456   7.129   6.572 -0.8835 -0.6898 -0.3485
 4348TIP3    H234604   4.535   7.080   6.692 -0.4347  0.8085 -0.0239
 4349TIP3   OH234605   6.419   1.913   0.160 -0.6366  0.4611  0.0452
 4349TIP3    H134606   6.514   1.909   0.151 -0.7487  0.3485 -1.2059
 4349TIP3    H234607   6.389   1.829   0.125 -1.1830  0.3300  0.8080
 4350TIP3   OH234608   2.903   1.422   1.145 -0.0194 -0.1705 -0.2217
 4350TIP3    H134609   2.889   1.329   1.161 -0.1268  0.0262  0.8723
 4350TIP3    H234610   2.997   1.428   1.127  0.0117 -0.4655 -0.1692
 4351TIP3   OH234611   6.588   6.806   1.907  0.1297 -0.0504  0.3326
 4351TIP3    H134612   6.626   6.759   1.980  1.0670 -0.8413 -0.6636
 4351TIP3    H234613   6.525   6.745   1.868  1.5786 -0.6305 -1.1575
 4352TIP3   OH234614   4.536   2.214   7.320 -0.9082  0.6792 -0.4474
 4352TIP3    H134615   4.475   2.142   7.306 -0.9732  0.5459  0.4990
 4352TIP3    H234616   4.483   2.283   7.361 -0.1765  0.1349  1.4388
 4353TIP3   OH234617   3.958   6.902   7.321  0.3718 -0.0634 -0.0877
 4353TIP3    H134618   3.940   6.812   7.349  0.2802 -0.3352 -1.0017
 4353TIP3    H234619   3.944   6.954   7.399 -1.6566 -0.6058 -0.0587
 4354TIP3   OH234620   3.154   6.888   1.712  0.1361  0.2380 -0.8372
 4354TIP3    H134621   3.079   6.853   1.665 -0.6626  1.1015 -0.2197
 4354TIP3    H234622   3.135   6.870   1.804 -0.0393  1.7979 -0.5549
 4355TIP3   OH234623   4.972   6.863   1.130  0.0671  0.2728  0.0737
 4355TIP3    H134624   4.980   6.861   1.035 -1.0801 -0.2766 -0.0181
 4355TIP3    H234625   4.879   6.883   1.146  0.2397  0.3113  1.0726
 4356TIP3   OH234626   5.597   1.423   1.569  0.4326 -0.8658  0.1161
 4356TIP3    H134627   5.681   1.412   1.524  0.8162 -0.8516  0.8283
 4356TIP3    H234628   5.617   1.475   1.646 -0.2988 -0.5502  0.1015
 4357TIP3   OH234629   7.031   6.716   7.491  0.8573  0.2141  1.1302
 4357TIP3    H134630   6.960   6.764   7.534 -0.9770 -0.5017 -0.9724
 4357TIP3    H234631   7.106   6.775   7.495 -0.5213  1.9933  1.3316
 4358TIP3   OH234632   4.707   3.666   7.174 -0.3939 -0.6830  0.4848
 4358TIP3    H134633   4.725   3.692   7.084  0.0219 -0.4547  0.6339
 4358TIP3    H234634   4.762   3.590   7.189  0.3533 -0.0747  0.8906
 4359TIP3   OH234635   0.656   3.413   0.149  1.1704 -0.3624 -0.0800
 4359TIP3    H134636   0.587   3.352   0.126 -0.0008  0.3690  1.4263
 4359TIP3    H234637   0.730   3.357   0.173 -0.1227 -1.2325  2.0095
 4360TIP3   OH234638   6.825   7.083   6.452 -0.1212 -0.3743  0.2006
 4360TIP3    H134639   6.920   7.096   6.452 -0.2144  0.3495  0.0229
 4360TIP3    H234640   6.789   7.172   6.444 -0.8108 -0.6426  0.2937
 4361TIP3   OH234641   2.189   6.170   0.128 -0.5198 -0.1615  0.6195
 4361TIP3    H134642   2.208   6.215   0.210  0.0765 -0.2705  0.5391
 4361TIP3    H234643   2.198   6.077   0.149 -1.2718 -0.2287  0.6616
 4362TIP3   OH234644   6.592   6.536   6.055 -0.4246 -0.5492 -0.2530
 4362TIP3    H134645   6.634   6.452   6.038  1.1348  0.1839 -0.0353
 4362TIP3    H234646   6.658   6.601   6.034 -0.9639  0.5857  1.4942
 4363TIP3   OH234647   2.982   6.103   7.453 -0.1621  0.4988 -0.5702
 4363TIP3    H134648   3.014   6.166   7.518  1.6888  0.3398 -1.2965
 4363TIP3    H234649   3.010   6.140   7.369 -2.8119  0.8726 -1.3384
 4364TIP3   OH234650   3.376   0.222   7.009  0.3034 -0.1478 -0.3252
 4364TIP3    H134651   3.354   0.272   7.087  0.2629 -0.4790 -0.1213
 4364TIP3    H234652   3.303   0.238   6.949  0.2377 -0.0497 -0.2189
 4365TIP3   OH234653   5.255   0.785   7.407 -0.6522 -0.5436 -0.2459
 4365TIP3    H134654   5.309   0.707   7.417  1.0661  0.9155  2.2277
 4365TIP3    H234655   5.169   0.751   7.383 -0.1646 -3.2639  1.6149
 4366TIP3   OH234656   5.384   4.396   0.344 -0.5215  0.0415  0.0844
 4366TIP3    H134657   5.429   4.376   0.426 -1.8925 -0.2694  0.7823
 4366TIP3    H234658   5.307   4.339   0.345  0.5730 -1.5357 -2.4421
 4367TIP3   OH234659   5.337   0.901   0.208 -0.3020  0.0663  0.6546
 4367TIP3    H134660   5.363   0.896   0.300 -0.0636  0.5186  0.6115
 4367TIP3    H234661   5.322   0.994   0.192 -0.1874  0.0065  0.1942
 4368TIP3   OH234662   0.556   6.619   1.629  0.4317  0.4248 -0.1669
 4368TIP3    H134663   0.602   6.535   1.631 -0.3856 -0.0279  2.5911
 4368TIP3    H234664   0.556   6.648   1.721 -1.4202  2.2598 -0.7029
 4369TIP3   OH234665   6.278   5.276   6.867  0.1893 -0.1158 -0.2966
 4369TIP3    H134666   6.329   5.201   6.836  1.7556  1.3120 -1.2863
 4369TIP3    H234667   6.342   5.331   6.913 -1.3675 -0.3855  2.2637
 4370TIP3   OH234668   0.795   0.727   2.041  0.3011  0.3703  0.1187
 4370TIP3    H134669   0.862   0.727   1.973  1.3826 -1.4634  1.1289
 4370TIP3    H234670   0.730   0.664   2.010 -0.6961  1.7555 -0.6113
 4371TIP3   OH234671   2.000   7.090   6.750  0.2928  0.4246 -0.2742
 4371TIP3    H134672   1.906   7.105   6.740  0.2066  0.2267  0.2389
 4371TIP3    H234673   2.040   7.161   6.700 -0.1228 -1.2897 -3.1221
 4372TIP3   OH234674   7.019   7.030   6.881  0.1779 -0.7312 -0.1041
 4372TIP3    H134675   7.106   7.069   6.870  0.2045 -1.4028 -2.6727
 4372TIP3    H234676   7.020   6.952   6.824 -2.2109 -0.5360 -0.4731
 4373TIP3   OH234677   6.053   6.973   7.920  0.3092  0.1692  0.3651
 4373TIP3    H134678   6.001   6.906   7.876 -0.7603  1.1308  0.1264
 4373TIP3    H234679   6.036   6.960   8.013  0.3426 -0.0823  0.3355
 4374TIP3   OH234680   0.029   7.058   8.033  0.0377 -0.9746 -0.5561
 4374TIP3    H134681   0.111   7.084   7.991 -0.4487  1.2129 -0.1932
 4374TIP3    H234682  -0.030   7.132   8.018 -0.1804 -0.1366  3.9705
 4375TIP3   OH234683   1.140   0.728   0.240  0.3683  0.6388 -0.6780
 4375TIP3    H134684   1.223   0.756   0.277 -0.3344  0.0892  1.3896
 4375TIP3    H234685   1.157   0.641   0.205  0.3801  0.0046  0.8645
 4376TIP3   OH234686   0.338   1.879   0.327  0.2443  0.5510 -0.2027
 4376TIP3    H134687   0.250   1.881   0.290  0.1563 -0.6674 -0.0962
 4376TIP3    H234688   0.326   1.907   0.418 -0.2231 -0.7455  0.1450
 4377TIP3   OH234689   6.629   0.614   7.590 -0.2157 -0.5701 -0.7352
 4377TIP3    H134690   6.630   0.670   7.512 -1.3151  0.4831 -0.0136
 4377TIP3    H234691   6.716   0.574   7.591  0.7672  1.4656 -1.0342
 4378TIP3   OH234692   5.165   1.457   6.986  0.2807 -0.3661 -0.0463
 4378TIP3    H134693   5.214   1.377   6.970 -0.5213 -0.4144 -2.3480
 4378TIP3    H234694   5.086   1.427   7.032  0.1545 -0.8422 -0.5711
 4379TIP3   OH234695   5.616   6.525   1.953  0.2183  0.0954 -0.0144
 4379TIP3    H134696   5.535   6.496   1.910 -1.1936  1.1184  1.8497
 4379TIP3    H234697   5.678   6.453   1.938 -1.4453 -1.3075 -0.3801
 4380TIP3   OH234698   6.175   0.777   0.553 -0.4333  0.1090  0.7198
 4380TIP3    H134699   6.267   0.772   0.527 -0.4242  1.1585  0.5279
 4380TIP3    H234700   6.143   0.686   0.547  0.6886 -0.3240  1.1866
 4381TIP3   OH234701   7.036   0.167   7.804  0.3985  0.2636  0.0112
 4381TIP3    H134702   6.960   0.121   7.768  0.5417  0.0569 -0.0310
 4381TIP3    H234703   7.008   0.195   7.891 -0.1157  1.1992 -0.4515
 4382TIP3   OH234704   0.079   4.786   0.109  0.4141  0.2479  0.1521
 4382TIP3    H134705   0.115   4.832   0.033 -0.0896 -1.2663 -1.0233
 4382TIP3    H234706   0.120   4.829   0.185  0.7817  1.8890 -0.9467
 4383TIP3   OH234707   2.500   6.684   7.642 -0.1696 -0.6647  0.2206
 4383TIP3    H134708   2.438   6.630   7.593 -0.6937  1.4297 -1.4949
 4383TIP3    H234709   2.466   6.685   7.731 -1.7131 -0.8441 -0.3614
 4384TIP3   OH234710   6.714   7.039   1.316 -0.4297 -0.2154  0.1525
 4384TIP3    H134711   6.807   7.019   1.325 -0.3556  0.2897  0.5106
 4384TIP3    H234712   6.709   7.134   1.325 -1.2809 -0.4700  2.7935
 4385TIP3   OH234713   6.839   3.066   1.462 -0.4569 -0.2039  0.6751
 4385TIP3    H134714   6.921   3.018   1.458 -0.6109 -0.4905  0.9200
 4385TIP3    H234715   6.863   3.157   1.445 -0.0616 -0.2564  0.9442
 4386TIP3   OH234716   3.430   6.698   1.864  0.0691 -0.9972 -0.3453
 4386TIP3    H134717   3.496   6.628   1.863  0.5415 -0.5974  0.8997
 4386TIP3    H234718   3.346   6.652   1.866  0.3450 -1.5194 -0.5701
 4387TIP3   OH234719   2.560   0.175   0.178 -0.2516  0.3095 -0.2281
 4387TIP3    H134720   2.526   0.263   0.163  0.2039  0.4901 -0.2272
 4387TIP3    H234721   2.642   0.190   0.225  1.6319  0.0552 -3.2938
 4388TIP3   OH234722   6.760   5.330   7.933  0.1699 -0.8262 -0.4757
 4388TIP3    H134723   6.747   5.348   7.840 -0.4224 -0.6120 -0.3537
 4388TIP3    H234724   6.851   5.302   7.939  1.9492  4.4186 -0.3450
 4389TIP3   OH234725   0.051   5.664   6.398  0.7766 -1.0098 -0.4812
 4389TIP3    H134726  -0.032   5.710   6.413  1.1501 -0.7358  0.8421
 4389TIP3    H234727   0.030   5.596   6.334 -0.0083  0.3578 -1.7118
 4390TIP3   OH234728   5.591   1.057   7.791 -0.4105 -1.0667 -0.8143
 4390TIP3    H134729   5.502   1.065   7.823 -0.7175  0.9886 -2.0756
 4390TIP3    H234730   5.638   1.012   7.861 -1.5815  1.1954  1.5178
 4391TIP3   OH234731   4.864   4.542   1.642 -0.0009 -0.0454  0.2956
 4391TIP3    H134732   4.864   4.446   1.645  0.2034 -0.0351  0.6466
 4391TIP3    H234733   4.954   4.567   1.664 -0.7601  0.3041  3.1379
 4392TIP3   OH234734   3.271   1.128   6.720  0.0398  0.0486 -0.0891
 4392TIP3    H134735   3.207   1.110   6.789  1.2493  1.5244  1.4694
 4392TIP3    H234736   3.335   1.057   6.728  0.0945  0.1309  0.1966
 4393TIP3   OH234737   2.694   5.228   0.622  0.0170 -0.4568 -0.0795
 4393TIP3    H134738   2.728   5.153   0.669 -0.4762 -0.3943  0.3910
 4393TIP3    H234739   2.663   5.193   0.538 -0.2283 -0.7833  0.1459
 4394TIP3   OH234740   6.250   4.083   0.212 -0.2497 -0.0560 -0.3966
 4394TIP3    H134741   6.254   3.988   0.206 -1.4124 -0.1645  0.4222
 4394TIP3    H234742   6.273   4.114   0.124 -0.2080 -1.1027 -0.7563
 4395TIP3   OH234743   3.330   0.654   1.806 -0.0314 -0.2166  0.5057
 4395TIP3    H134744   3.239   0.660   1.776  0.3482 -1.2885 -0.8782
 4395TIP3    H234745   3.378   0.714   1.750 -0.3807  3.0060  3.4695
 4396TIP3   OH234746   1.183   5.349   1.091  0.3518  0.4185 -0.5050
 4396TIP3    H134747   1.119   5.411   1.056 -0.1411  0.5254  0.5629
 4396TIP3    H234748   1.131   5.272   1.116  0.8773 -0.1886 -1.2384
 4397TIP3   OH234749   4.599   6.687   7.887  0.1099  0.1759  0.3568
 4397TIP3    H134750   4.689   6.697   7.855  0.2501 -1.1345  0.2777
 4397TIP3    H234751   4.608   6.629   7.963 -0.9858 -2.6494 -1.5594
 4398TIP3   OH234752   5.056   2.031   0.275  0.2617 -0.4806  0.1587
 4398TIP3    H134753   4.993   2.091   0.235  0.3384 -0.9707 -0.7248
 4398TIP3    H234754   5.002   1.974   0.331  0.1074 -0.0046  0.4989
 4399TIP3   OH234755   0.425   0.196   6.383 -0.0408 -0.3876  0.6550
 4399TIP3    H134756   0.443   0.106   6.356  0.7566  0.4921 -1.9133
 4399TIP3    H234757   0.374   0.233   6.310  1.4473  1.8494  0.7120
 4400TIP3   OH234758   6.475   6.236   1.616 -0.8184  0.1474 -0.3260
 4400TIP3    H134759   6.494   6.214   1.707 -3.1047  0.4113  0.2611
 4400TIP3    H234760   6.379   6.238   1.612 -0.7443  2.4418 -2.1570
 4401TIP3   OH234761   6.348   6.572   0.296 -0.0787 -0.1277  0.1552
 4401TIP3    H134762   6.323   6.512   0.225  1.9348 -0.5426 -0.2225
 4401TIP3    H234763   6.376   6.652   0.251  1.2364 -0.4068  0.4575
 4402TIP3   OH234764   2.540   1.387   2.181  0.1262 -1.0073 -0.2507
 4402TIP3    H134765   2.471   1.444   2.148  0.4628 -0.6616 -0.3634
 4402TIP3    H234766   2.565   1.425   2.265 -0.2985 -1.5311  0.1201
 4403TIP3   OH234767   4.523   3.450   7.021 -0.1547 -0.1288 -0.3303
 4403TIP3    H134768   4.462   3.377   7.021 -0.6999  0.3166 -0.6473
 4403TIP3    H234769   4.473   3.523   6.984  0.5998  0.2146 -0.7011
 4404TIP3   OH234770   0.210   1.048   1.051 -0.0969 -0.1338 -0.1104
 4404TIP3    H134771   0.127   1.050   1.004 -0.8980 -2.5837  1.1271
 4404TIP3    H234772   0.270   1.003   0.992  0.4042  1.7508 -1.0577
 4405TIP3   OH234773   6.988   0.355   1.243 -0.1047 -0.4526  0.2808
 4405TIP3    H134774   7.015   0.311   1.163  3.1271  1.7703  0.0798
 4405TIP3    H234775   6.905   0.397   1.221 -0.4512 -1.8313 -1.1407
 4406TIP3   OH234776   6.227   2.442   7.629  0.6157 -0.0661 -0.4369
 4406TIP3    H134777   6.148   2.434   7.684  1.8512 -1.4774  1.1860
 4406TIP3    H234778   6.196   2.423   7.540 -1.5350  2.7979 -0.3854
 4407TIP3   OH234779   5.789   0.883   0.490 -0.1998  0.2275  0.5980
 4407TIP3    H134780   5.876   0.853   0.515  0.7255  1.8549 -0.5681
 4407TIP3    H234781   5.739   0.886   0.571 -0.1459 -3.7722  0.8548
 4408TIP3   OH234782   7.066   5.299   0.503 -0.1816  0.9086  0.1890
 4408TIP3    H134783   7.084   5.208   0.528  1.4814  1.5533  1.4304
 4408TIP3    H234784   7.101   5.351   0.575 -0.1731  2.5796 -1.0014
 4409TIP3   OH234785   2.357   5.272   0.322  0.1886 -0.4823  0.1314
 4409TIP3    H134786   2.358   5.350   0.376  1.7507 -0.4826  0.1313
 4409TIP3    H234787   2.269   5.269   0.285 -0.1394  0.8099  0.7873
 4410TIP3   OH234788   0.251   6.388   7.524  0.2978  0.0357  0.1964
 4410TIP3    H134789   0.157   6.394   7.509  0.4822  2.6097 -0.1928
 4410TIP3    H234790   0.262   6.405   7.617  0.2608 -1.9889  0.5855
 4411TIP3   OH234791   0.628   1.668   1.159  0.2206 -0.2499 -0.5217
 4411TIP3    H134792   0.645   1.693   1.249  1.1771 -1.1642 -0.4472
 4411TIP3    H234793   0.677   1.730   1.106 -2.3623  1.8969 -0.5037
 4412TIP3   OH234794   1.878   5.102   0.197  0.1499 -0.9144 -0.4960
 4412TIP3    H134795   1.868   5.045   0.273 -0.3994  0.3586  0.4114
 4412TIP3    H234796   1.788   5.122   0.170  0.3058  0.9078  0.2761
 4413TIP3   OH234797   1.125   4.842   6.987 -0.4240 -0.1214 -0.5906
 4413TIP3    H134798   1.148   4.756   6.951  0.9088  1.3380 -3.3707
 4413TIP3    H234799   1.205   4.894   6.978 -2.3060  2.5449 -2.4861
 4414TIP3   OH234800   3.207   2.366   1.722  0.6530  0.4891 -0.0729
 4414TIP3    H134801   3.301   2.352   1.739  0.7306  0.2870 -0.6722
 4414TIP3    H234802   3.172   2.279   1.710  0.5828  0.6285 -0.8859
 4415TIP3   OH234803   4.302   5.998   1.507 -0.5660 -0.1752  0.0208
 4415TIP3    H134804   4.348   5.941   1.447  1.5726  1.6785 -0.1608
 4415TIP3    H234805   4.244   6.050   1.451 -1.5007 -1.1814  0.0367
 4416TIP3   OH234806   4.947   3.271   7.602 -0.4499 -0.0802 -0.3516
 4416TIP3    H134807   4.860   3.251   7.568 -2.4670  1.2845  3.6914
 4416TIP3    H234808   4.996   3.189   7.593 -2.7067 -1.3940 -0.9752
 4417TIP3   OH234809   5.468   4.731   1.068 -0.3887 -0.5518 -0.3035
 4417TIP3    H134810   5.550   4.709   1.113 -1.3798  0.0637  1.8559
 4417TIP3    H234811   5.431   4.647   1.043  0.6166 -0.8616 -0.7929
 4418TIP3   OH234812   0.041   2.439   2.092  0.1223 -0.0348 -0.3428
 4418TIP3    H134813  -0.025   2.472   2.153 -1.2063 -1.0827 -1.1815
 4418TIP3    H234814   0.124   2.453   2.137 -0.8024 -0.3414  1.5213
 4419TIP3   OH234815   1.880   6.980   1.350  0.3036 -0.2201 -0.5945
 4419TIP3    H134816   1.945   7.000   1.282  1.5414 -1.0668  0.3281
 4419TIP3    H234817   1.796   6.989   1.305  0.9125  3.3110 -1.1979
 4420TIP3   OH234818   6.561   5.716   7.930  0.4693 -0.2589  0.6492
 4420TIP3    H134819   6.602   5.727   8.015 -0.3505 -2.0623  1.2846
 4420TIP3    H234820   6.601   5.638   7.893 -0.9835 -0.9291  0.4608
 4421TIP3   OH234821   0.256   3.586   1.654  0.0624  0.5071  0.5118
 4421TIP3    H134822   0.165   3.564   1.634  0.0651  1.0533 -0.1323
 4421TIP3    H234823   0.263   3.679   1.632  1.1290  0.1490 -0.7395
 4422TIP3   OH234824   5.728   6.559   7.380 -0.3010  0.0521  0.7527
 4422TIP3    H134825   5.818   6.582   7.404 -0.6701  1.2282  1.0201
 4422TIP3    H234826   5.693   6.516   7.458  0.0225 -0.3926  0.6535
 4423TIP3   OH234827   6.208   6.159   7.182  0.3348  0.5352 -0.2662
 4423TIP3    H134828   6.229   6.068   7.203 -1.8035  0.4357  1.7128
 4423TIP3    H234829   6.166   6.154   7.096  0.0169 -0.3893 -0.0698
 4424TIP3   OH234830   5.864   5.398   7.582  0.1903 -0.3303  0.5170
 4424TIP3    H134831   5.845   5.491   7.593  1.1734 -0.3640  2.7644
 4424TIP3    H234832   5.828   5.377   7.496 -0.7307  1.9383  0.2906
 4425TIP3   OH234833   3.969   5.320   6.644 -0.0905  0.2120  0.4095
 4425TIP3    H134834   3.974   5.381   6.571  0.0104  0.5644  0.7123
 4425TIP3    H234835   4.042   5.259   6.630 -1.1906 -0.8689 -0.8188
 4426TIP3   OH234836   0.357   0.546   0.590 -0.1019 -0.1973  0.1135
 4426TIP3    H134837   0.364   0.535   0.685 -0.6619  1.9306  0.4434
 4426TIP3    H234838   0.447   0.565   0.562 -0.3472  2.0416  0.6810
 4427TIP3   OH234839   5.108   3.312   6.690 -0.3405  0.3208 -0.4732
 4427TIP3    H134840   5.106   3.217   6.704 -0.6814  0.5115  0.8466
 4427TIP3    H234841   5.177   3.325   6.626  0.9142 -0.6744  0.6381
 4428TIP3   OH234842   1.494   0.761   2.021  0.6896 -0.6235  0.2356
 4428TIP3    H134843   1.518   0.697   2.089  2.1441  0.8888  1.1892
 4428TIP3    H234844   1.462   0.837   2.070 -0.8835 -0.5398 -0.8868
 4429TIP3   OH234845   5.449   0.303   0.900 -0.4054 -0.0114  0.1338
 4429TIP3    H134846   5.508   0.245   0.947  0.0809 -1.2752 -1.9579
 4429TIP3    H234847   5.367   0.300   0.950 -0.5068 -2.7995 -0.1321
 4430TIP3   OH234848   1.049   0.636   0.736  0.4429  0.3179 -0.5577
 4430TIP3    H134849   1.022   0.664   0.824  0.7458  0.1211 -0.4002
 4430TIP3    H234850   1.128   0.584   0.751  1.9026  2.3168 -1.1704
 4431TIP3   OH234851   1.345   6.478   0.564 -0.6051  0.0501 -0.3688
 4431TIP3    H134852   1.263   6.436   0.591 -0.7225 -0.4102 -1.3939
 4431TIP3    H234853   1.317   6.557   0.517 -0.3980  0.9678  1.0171
 4432TIP3   OH234854   7.014   1.647   1.525 -0.3910 -0.0033 -0.0137
 4432TIP3    H134855   7.054   1.710   1.466 -1.3729 -0.1037 -0.7937
 4432TIP3    H234856   7.063   1.656   1.606  1.4030 -0.3220 -1.0398
 4433TIP3   OH234857   5.187   0.886   0.972 -0.0186  0.1008  0.1578
 4433TIP3    H134858   5.202   0.942   0.896  0.7740  0.9159  0.8941
 4433TIP3    H234859   5.092   0.877   0.978 -0.0828  0.0010 -0.9421
 4434TIP3   OH234860   5.465   5.056   8.112 -0.3234  0.3137  0.6091
 4434TIP3    H134861   5.425   4.969   8.118  1.2851 -0.4145  1.3522
 4434TIP3    H234862   5.397   5.116   8.142 -1.6594 -0.6301 -0.4843
 4435TIP3   OH234863   7.074   0.224   6.567 -0.1574 -0.1787  0.3053
 4435TIP3    H134864   7.165   0.254   6.563  0.5165 -2.2992 -0.7908
 4435TIP3    H234865   7.077   0.133   6.540 -2.8969  0.2940 -1.8392
 4436TIP3   OH234866   5.529   4.212   0.504  0.0710  0.3639 -0.0089
 4436TIP3    H134867   5.499   4.161   0.428 -3.1229  0.5340  1.0464
 4436TIP3    H234868   5.490   4.168   0.579  1.9609  1.0814  1.4012
 4437TIP3   OH234869   2.901   1.220   1.625  0.0956  0.4890 -0.0359
 4437TIP3    H134870   2.807   1.207   1.620  0.2020  0.1063 -1.2856
 4437TIP3    H234871   2.917   1.249   1.715 -1.2896  1.2295 -0.0123
 4438TIP3   OH234872   6.624   3.277   0.383  0.3417  0.5558  0.1476
 4438TIP3    H134873   6.576   3.285   0.465  2.1112  1.4680  1.1312
 4438TIP3    H234874   6.693   3.344   0.389  1.5595 -0.5262 -1.3311
 4439TIP3   OH234875   3.496   5.375   0.138 -0.5916 -0.2427 -0.5496
 4439TIP3    H134876   3.551   5.368   0.060  1.1296  1.4804  0.4681
 4439TIP3    H234877   3.504   5.290   0.180 -0.0453 -0.5658 -1.2921
 4440TIP3   OH234878   6.921   4.228   7.271  0.0161 -0.4681  0.1213
 4440TIP3    H134879   6.829   4.199   7.272 -0.2350  0.2791  2.7877
 4440TIP3    H234880   6.966   4.166   7.328  0.6234  0.7922  1.0368
 4441TIP3   OH234881   0.100   4.967   1.082 -0.2901 -0.1366 -0.1892
 4441TIP3    H134882   0.153   4.888   1.070 -0.3778 -0.1723 -0.3552
 4441TIP3    H234883   0.010   4.938   1.064 -0.1320  0.3608 -1.8967
 4442TIP3   OH234884   0.842   0.904   8.073 -0.7185 -0.1643  0.1063
 4442TIP3    H134885   0.805   0.867   7.993 -0.7202 -0.4500  0.2355
 4442TIP3    H234886   0.889   0.830   8.113 -0.2961  0.1072  0.1137
 4443TIP3   OH234887   5.442   0.512   7.569  0.0536 -0.0266 -0.0150
 4443TIP3    H134888   5.388   0.589   7.586 -0.8330 -0.6101 -0.1470
 4443TIP3    H234889   5.448   0.468   7.653  0.5236  0.1606  0.0500
 4444TIP3   OH234890   0.086   6.043   7.375  0.6033 -0.8166 -0.5712
 4444TIP3    H134891   0.124   6.072   7.292  0.1606  1.7111  0.0804
 4444TIP3    H234892   0.143   6.080   7.442 -1.1748  0.3532  0.3243
 4445TIP3   OH234893   1.970   0.024   6.338 -0.7027 -0.9233  0.5856
 4445TIP3    H134894   2.048   0.002   6.287 -1.0230  0.3196 -0.4439
 4445TIP3    H234895   1.980  -0.027   6.418 -0.1067 -2.7930 -0.6212
 4446TIP3   OH234896   4.964   1.215   6.807 -0.4558 -0.3504 -0.2358
 4446TIP3    H134897   5.048   1.191   6.769 -0.7453 -0.5010 -0.7871
 4446TIP3    H234898   4.984   1.238   6.898  0.2183 -0.1206 -0.4414
 4447TIP3   OH234899   3.995   4.589   7.700 -0.0019  0.4679 -0.0712
 4447TIP3    H134900   3.973   4.631   7.617  0.1417  0.9099  0.1096
 4447TIP3    H234901   4.085   4.559   7.688 -0.1616  0.0705 -0.2582
 4448TIP3   OH234902   3.989   5.536   7.234  0.6625 -0.2703  0.6798
 4448TIP3    H134903   3.968   5.512   7.324  1.7826  0.5630  1.1781
 4448TIP3    H234904   4.078   5.573   7.239  0.3870  0.6013 -0.6239
 4449TIP3   OH234905   5.746   2.737   0.202  0.0182  0.3173  0.4983
 4449TIP3    H134906   5.799   2.813   0.228 -0.6106  1.1020 -0.4657
 4449TIP3    H234907   5.683   2.727   0.274  0.3878  0.4319  0.8414
 4450TIP3   OH234908   5.863   1.305   0.762 -0.0900 -0.4259 -0.3479
 4450TIP3    H134909   5.893   1.214   0.758  0.4647 -0.4265  2.5687
 4450TIP3    H234910   5.943   1.355   0.780 -0.5213  0.5773 -1.1517
 4451TIP3   OH234911   1.659   2.674   7.856  0.4037 -0.1870 -0.4591
 4451TIP3    H134912   1.694   2.602   7.909 -1.2578  0.2643  1.3319
 4451TIP3    H234913   1.736   2.717   7.818  1.4543 -2.3868 -0.8852
 4452TIP3   OH234914   4.058   1.811   7.782  0.0535  0.1485  0.0421
 4452TIP3    H134915   4.127   1.862   7.740  0.0157  0.0507 -0.1411
 4452TIP3    H234916   4.045   1.736   7.724  0.2105 -0.1458  0.3813
 4453TIP3   OH234917   1.995   1.504   0.581 -0.2568 -0.0490  0.6163
 4453TIP3    H134918   1.990   1.596   0.608  0.8106 -0.1591  1.1885
 4453TIP3    H234919   1.921   1.494   0.520  1.2106  1.9070 -1.5779
 4454TIP3   OH234920   6.269   0.670   7.449  0.1997 -0.5348 -0.4429
 4454TIP3    H134921   6.249   0.741   7.388  1.2827  0.5940  0.4910
 4454TIP3    H234922   6.255   0.590   7.399 -0.2346  0.3613 -1.7575
 4455TIP3   OH234923   7.032   1.110   7.636  0.7421  0.3318 -0.1274
 4455TIP3    H134924   6.942   1.141   7.622  1.1699  1.7341  0.1412
 4455TIP3    H234925   7.063   1.160   7.711  2.0375  0.4646 -0.7345
 4456TIP3   OH234926   0.685   4.503   7.816 -0.2058 -0.6172 -0.4392
 4456TIP3    H134927   0.592   4.525   7.828 -0.1651 -0.3611 -0.5952
 4456TIP3    H234928   0.732   4.578   7.851 -0.0680 -0.4422 -1.0083
 4457TIP3   OH234929   5.849   2.065   0.221  0.4699 -0.6363 -0.0281
 4457TIP3    H134930   5.906   2.076   0.297 -3.1881 -1.6855  3.0099
 4457TIP3    H234931   5.860   1.973   0.196  1.4051 -0.3835 -0.5559
 4458TIP3   OH234932   6.197   1.467   6.795  0.5606 -0.3084  0.2817
 4458TIP3    H134933   6.243   1.449   6.877  2.6033  1.2974 -0.4691
 4458TIP3    H234934   6.133   1.534   6.819 -0.4897 -1.5677  1.0512
 4459TIP3   OH234935   6.580   4.937   0.309 -0.4576 -0.4176  0.3807
 4459TIP3    H134936   6.600   4.902   0.396  0.2567  0.1115  0.4401
 4459TIP3    H234937   6.531   4.868   0.265 -0.9600 -0.6300  1.2619
 4460TIP3   OH234938   4.076   0.710   7.953 -1.1580 -0.1674  0.4760
 4460TIP3    H134939   4.067   0.615   7.945 -0.4576 -0.2478  0.5884
 4460TIP3    H234940   4.033   0.745   7.875  0.1157 -0.6641 -0.4752
 4461TIP3   OH234941   5.465   1.185   1.543  0.6418 -0.5172 -0.3328
 4461TIP3    H134942   5.468   1.146   1.630 -0.7587  0.5571  0.2170
 4461TIP3    H234943   5.518   1.264   1.551 -0.5961  0.2934 -0.0772
 4462TIP3   OH234944   0.577   4.931   7.685 -0.3643 -0.0429  0.3576
 4462TIP3    H134945   0.583   4.992   7.612 -0.4161  0.2611  0.6099
 4462TIP3    H234946   0.501   4.876   7.664  1.0467 -1.5344 -1.0209
 4463TIP3   OH234947   6.335   4.709   1.577  0.4405 -0.2390  0.1767
 4463TIP3    H134948   6.398   4.697   1.648 -0.2441 -0.3089  0.7800
 4463TIP3    H234949   6.296   4.622   1.566  0.6790 -0.2679 -0.4042
 4464TIP3   OH234950   1.605   1.350   6.538 -0.2211  0.6125 -0.4827
 4464TIP3    H134951   1.569   1.372   6.624  0.6686  0.3631 -0.0363
 4464TIP3    H234952   1.689   1.307   6.558 -0.4250 -0.2356 -1.4456
 4465TIP3   OH234953   7.048   6.615   0.920 -0.6096  0.2650  0.1913
 4465TIP3    H134954   7.102   6.684   0.882 -0.7108  0.0010 -0.4363
 4465TIP3    H234955   6.992   6.661   0.983  0.3788  0.5274  0.8911
 4466TIP3   OH234956   3.232   4.223   1.622  0.5682  0.7647  0.0330
 4466TIP3    H134957   3.239   4.318   1.635 -0.2426  0.9970 -1.1169
 4466TIP3    H234958   3.247   4.186   1.708 -0.7079  2.0244  0.8233
 4467TIP3   OH234959   6.597   6.513   7.661 -0.1676 -0.1987  0.1910
 4467TIP3    H134960   6.622   6.517   7.568 -0.0113 -2.6116  0.1050
 4467TIP3    H234961   6.625   6.598   7.697  1.9232 -0.1549 -1.4334
 4468TIP3   OH234962   3.777   0.042   0.918 -0.2551  0.3491  0.3315
 4468TIP3    H134963   3.737   0.072   0.999  0.7098  1.1222  0.5402
 4468TIP3    H234964   3.763  -0.053   0.917 -0.1530  0.3168  1.4707
 4469TIP3   OH234965   5.547   6.579   0.546  0.2629 -0.2377  0.3995
 4469TIP3    H134966   5.597   6.509   0.504 -0.1460  0.2963 -1.0025
 4469TIP3    H234967   5.516   6.540   0.628  0.1103 -1.6935 -0.3230
 4470TIP3   OH234968   3.588   6.491   1.830  0.0772  1.0918  0.1122
 4470TIP3    H134969   3.598   6.438   1.751 -0.1226 -0.1587  0.9183
 4470TIP3    H234970   3.669   6.478   1.878 -0.1584  1.1508  0.5291
 4471TIP3   OH234971   1.240   6.483   2.032  0.3446  0.2086  0.5627
 4471TIP3    H134972   1.252   6.453   2.123 -0.0090 -1.4180  0.0882
 4471TIP3    H234973   1.145   6.480   2.019  0.3667  0.8372  0.2628
 4472TIP3   OH234974   2.076   1.307   0.932 -0.0023  0.3207  0.2352
 4472TIP3    H134975   2.103   1.322   0.842  0.9394  1.3706  0.6931
 4472TIP3    H234976   1.997   1.360   0.943 -1.3251 -1.4372 -0.5911
 4473TIP3   OH234977   5.182   7.113   0.134 -0.2192  0.5940 -0.3122
 4473TIP3    H134978   5.174   7.128   0.228  1.6569  1.0816 -0.2125
 4473TIP3    H234979   5.189   7.018   0.125 -1.1447  0.4960 -0.0294
 4474TIP3   OH234980   1.867   6.922   7.217  0.3336  0.3522 -0.1812
 4474TIP3    H134981   1.906   6.970   7.290  0.6657 -0.4892  0.1975
 4474TIP3    H234982   1.775   6.910   7.243  0.8302 -1.3764  0.8556
 4475TIP3   OH234983   3.860   2.305   7.585 -0.4409 -0.5321 -0.3711
 4475TIP3    H134984   3.908   2.269   7.659  0.9845  0.0727 -0.9993
 4475TIP3    H234985   3.771   2.270   7.595  0.0131 -1.3053  1.0208
 4476TIP3   OH234986   6.446   5.144   0.408 -0.4921  0.2329 -0.7243
 4476TIP3    H134987   6.358   5.152   0.372 -1.0317 -1.8663  0.0624
 4476TIP3    H234988   6.478   5.060   0.375  0.4941  0.0938  0.5230
 4477TIP3   OH234989   7.023   1.333   1.799  0.0760 -0.3834 -0.0402
 4477TIP3    H134990   7.047   1.417   1.838  2.4991 -1.0804  0.0566
 4477TIP3    H234991   7.057   1.337   1.709  0.6602 -1.4385  0.1225
 4478TIP3   OH234992   5.947   2.503   0.202 -0.1590 -0.1876  0.4007
 4478TIP3    H134993   5.909   2.550   0.128  0.7016 -2.5351 -1.6190
 4478TIP3    H234994   5.933   2.561   0.277 -3.8253  0.8824 -1.0056
 4479TIP3   OH234995   2.728   1.545   0.374 -0.1485 -0.0359  0.3075
 4479TIP3    H134996   2.769   1.572   0.292 -0.7027 -1.3513 -0.4162
 4479TIP3    H234997   2.634   1.556   0.359 -0.2316  0.0769  0.8952
 4480TIP3   OH234998   6.698   4.644   1.086 -0.5354  0.3737 -0.2289
 4480TIP3    H134999   6.714   4.735   1.109 -0.2386  0.4726 -0.8012
 4480TIP3    H235000   6.661   4.648   0.997  0.4254 -0.1199 -0.6620
 4481TIP3   OH235001   0.282   2.032   1.735 -0.2318 -0.4316  0.0988
 4481TIP3    H135002   0.241   1.990   1.660  3.2670 -0.6645 -1.7653
 4481TIP3    H235003   0.260   2.125   1.726 -1.1215 -0.6811 -0.3237
 4482TIP3   OH235004   1.777   4.975   1.511 -0.0475 -0.6666  0.3528
 4482TIP3    H135005   1.867   4.960   1.539  0.7136  0.2934 -1.4521
 4482TIP3    H235006   1.728   4.989   1.592  1.5212 -0.6749  1.3172
 4483TIP3   OH235007   0.936   6.737   1.659 -0.3455  0.5599 -0.3382
 4483TIP3    H135008   0.964   6.777   1.742  0.0744  0.3556 -0.3782
 4483TIP3    H235009   0.851   6.777   1.640  0.1362  1.5500 -0.4476
 4484TIP3   OH235010   5.023   2.425   1.638 -0.2744  0.4372  0.2421
 4484TIP3    H135011   5.042   2.484   1.565 -0.7256 -0.6070 -0.7394
 4484TIP3    H235012   4.929   2.409   1.632  0.0068 -1.1700 -0.1320
 4485TIP3   OH235013   1.471   6.206   0.308 -0.0418 -0.0397  0.1882
 4485TIP3    H135014   1.400   6.244   0.360 -1.1079 -2.2127  0.3769
 4485TIP3    H235015   1.426   6.163   0.235  1.0664 -1.4614  0.3289
 4486TIP3   OH235016   4.097   6.408   7.539  0.4886 -0.1741  0.3055
 4486TIP3    H135017   4.006   6.388   7.557  0.6611 -1.8457 -0.6062
 4486TIP3    H235018   4.127   6.337   7.483  2.1205  0.7977 -0.0994
 4487TIP3   OH235019   0.610   1.908   0.162  0.0002 -0.2686 -1.0359
 4487TIP3    H135020   0.596   1.997   0.195 -1.0637 -0.7359 -0.2177
 4487TIP3    H235021   0.675   1.919   0.092 -1.5388  1.4171 -2.2654
 4488TIP3   OH235022   0.743   5.595   6.702  0.0140 -0.0074  0.0630
 4488TIP3    H135023   0.680   5.558   6.764  0.1890 -0.9268 -0.2918
 4488TIP3    H235024   0.689   5.640   6.637 -0.2769 -0.6897 -0.1753
 4489TIP3   OH235025   5.526   5.264   7.922  0.2750  0.0042 -0.0222
 4489TIP3    H135026   5.487   5.307   7.845 -3.5097 -1.5011  0.9512
 4489TIP3    H235027   5.459   5.203   7.953  2.2533 -0.4642  3.6905
 4490TIP3   OH235028   6.323   1.676   0.957 -0.0243 -0.1777  0.8044
 4490TIP3    H135029   6.301   1.689   1.049  0.2586 -0.0846  0.8579
 4490TIP3    H235030   6.283   1.592   0.934  0.2841 -0.4118  1.1291
 4491TIP3   OH235031   7.001   0.830   0.853 -0.4579  0.6401  0.4706
 4491TIP3    H135032   7.038   0.905   0.901  2.0136  0.5219 -1.1561
 4491TIP3    H235033   7.060   0.758   0.871 -0.6903  0.0521 -1.0231
 4492TIP3   OH235034   5.000   1.510   1.391  0.1318  0.2241 -0.5067
 4492TIP3    H135035   4.969   1.457   1.465  1.2823  0.8036  0.4175
 4492TIP3    H235036   5.091   1.482   1.378  1.2580  2.9658  0.9823
 4493TIP3   OH235037   6.229   5.123   0.236  0.4665  0.1272  0.3800
 4493TIP3    H135038   6.198   5.152   0.150 -1.1745 -0.5519  0.7302
 4493TIP3    H235039   6.253   5.031   0.223  1.0057  0.2514  0.4628
 4494TIP3   OH235040   5.666   0.753   0.283  0.1642  0.0902  0.0483
 4494TIP3    H135041   5.727   0.795   0.345 -1.3953  1.4447  0.6874
 4494TIP3    H235042   5.595   0.720   0.338 -1.5781  1.8880 -1.0582
 4495TIP3   OH235043   6.348   4.351   0.753 -0.3410  0.1841  0.3351
 4495TIP3    H135044   6.403   4.394   0.818 -0.3655  0.2379  0.3212
 4495TIP3    H235045   6.274   4.317   0.804 -0.4865  0.4440  0.2979
 4496TIP3   OH235046   5.261   5.187   2.040 -0.0028 -0.3983 -0.2901
 4496TIP3    H135047   5.245   5.282   2.042 -1.7261 -0.6823  0.1033
 4496TIP3    H235048   5.315   5.171   2.117  2.1132  0.5610 -1.5285
 4497TIP3   OH235049   5.592   1.266   0.692 -0.0169  0.1638 -0.0279
 4497TIP3    H135050   5.602   1.175   0.664 -0.2495 -0.1306  0.8128
 4497TIP3    H235051   5.682   1.298   0.700  0.0323  0.5120 -1.9047
 4498TIP3   OH235052   5.858   2.047   0.905 -0.5484  0.6451  0.0780
 4498TIP3    H135053   5.929   2.063   0.843 -1.3787  0.1412 -1.0158
 4498TIP3    H235054   5.841   1.953   0.899  0.8313  0.1869  2.6845
 4499TIP3   OH235055   6.917   3.431   0.684  0.6750  0.2627  0.2464
 4499TIP3    H135056   6.959   3.436   0.770 -0.7243  1.0266  0.9132
 4499TIP3    H235057   6.884   3.341   0.679  1.1646  0.0773  0.3015
 4500TIP3   OH235058   6.129   2.230   0.914 -0.1968  0.5683 -0.3102
 4500TIP3    H135059   6.193   2.168   0.949 -2.2845 -1.4591  0.0231
 4500TIP3    H235060   6.165   2.256   0.829  1.1902 -0.3085 -0.0121
 4501TIP3   OH235061   6.799   2.881   2.092  0.2233 -0.4427  0.2818
 4501TIP3    H135062   6.723   2.840   2.131  0.5360 -1.2578  0.0355
 4501TIP3    H235063   6.839   2.813   2.038  0.7082  0.1909 -0.1753
 4502TIP3   OH235064   4.500   1.838   7.550 -0.1875  0.2630 -0.2642
 4502TIP3    H135065   4.582   1.887   7.546 -0.0510  0.0118 -0.6274
 4502TIP3    H235066   4.513   1.765   7.489 -0.3485 -0.2783  0.3455
 4503TIP3   OH235067   1.389   5.972   6.759 -0.2841  0.4066  0.5794
 4503TIP3    H135068   1.327   6.040   6.733  1.0002  1.2595 -0.2660
 4503TIP3    H235069   1.348   5.890   6.729 -1.6713  0.8102  1.3097
 4504TIP3   OH235070   5.688   1.323   0.991  0.0965 -0.7220 -0.0576
 4504TIP3    H135071   5.736   1.312   0.909 -1.9959 -1.3456 -1.2283
 4504TIP3    H235072   5.673   1.418   0.997 -0.5117 -0.7646 -0.8455
 4505TIP3   OH235073   4.803   0.415   7.903 -0.0245 -0.1689 -0.1661
 4505TIP3    H135074   4.743   0.490   7.900 -0.2515 -0.1809  2.6605
 4505TIP3    H235075   4.848   0.417   7.819 -0.3437  2.9032 -0.3314
 4506TIP3   OH235076   6.188   3.499   6.385  0.4077 -0.3366  0.0384
 4506TIP3    H135077   6.187   3.528   6.293  0.9705 -0.5931 -0.0503
 4506TIP3    H235078   6.120   3.432   6.389 -0.9553  1.0165  0.2604
 4507TIP3   OH235079   6.020   1.511   8.013  0.4370  0.1670  0.1684
 4507TIP3    H135080   6.095   1.453   8.003  0.9913  0.7060  1.1132
 4507TIP3    H235081   6.054   1.587   8.059 -0.6763  0.4462  0.5611
 4508TIP3   OH235082   0.943   5.618   0.760  0.3030  0.0242  0.5639
 4508TIP3    H135083   0.996   5.678   0.813  1.6566 -0.5030 -0.1649
 4508TIP3    H235084   0.891   5.569   0.824  0.1944  1.0053  1.2484
 4509TIP3   OH235085   4.785   4.654   0.394  0.3152 -0.2732  0.0790
 4509TIP3    H135086   4.860   4.703   0.429 -0.3769 -0.8132  2.3913
 4509TIP3    H235087   4.822   4.571   0.365  0.4037 -1.3163  2.9562
 4510TIP3   OH235088   5.330   4.539   8.016 -0.5744 -0.9777  0.7287
 4510TIP3    H135089   5.350   4.534   8.110 -2.2000 -0.6199  1.1142
 4510TIP3    H235090   5.259   4.476   8.004  0.8320 -2.3310 -0.6186
 4511TIP3   OH235091   0.672   0.989   0.158 -0.7114 -0.0057 -0.3076
 4511TIP3    H135092   0.719   0.947   0.230 -0.9038 -1.2625 -0.8862
 4511TIP3    H235093   0.719   0.961   0.079 -1.2163  0.3695 -0.7480
 4512TIP3   OH235094   0.122   1.515   6.739  0.3591  0.6856  0.0669
 4512TIP3    H135095   0.155   1.577   6.674  0.6928 -1.5470 -1.9647
 4512TIP3    H235096   0.191   1.450   6.748 -1.3104 -1.1809 -0.2870
 4513TIP3   OH235097   1.758   0.790   1.550  0.2509  0.4044 -0.3518
 4513TIP3    H135098   1.693   0.762   1.614  2.1951  0.4545  1.7144
 4513TIP3    H235099   1.756   0.722   1.483 -2.8873  1.1385 -1.0529
 4514TIP3   OH235100   5.379   7.092   0.688 -0.0700  0.6906 -0.1630
 4514TIP3    H135101   5.372   7.000   0.663 -1.9998  0.2899  1.6699
 4514TIP3    H235102   5.466   7.099   0.728 -0.4225 -0.6906  0.9156
 4515TIP3   OH235103   2.686   0.656   1.132  0.3891  0.1241 -0.0375
 4515TIP3    H135104   2.726   0.730   1.178  1.0136 -0.9072  1.1057
 4515TIP3    H235105   2.739   0.580   1.158 -0.4194 -0.7746 -0.9648
 4516TIP3   OH235106   6.117   6.446   0.485 -0.3543 -0.3044  0.1560
 4516TIP3    H135107   6.100   6.368   0.432  1.0724 -0.6424  0.1773
 4516TIP3    H235108   6.102   6.519   0.426  0.8537 -0.6699 -0.6224
 4517TIP3   OH235109   0.588   2.169   0.588  0.7436 -0.2750  0.4786
 4517TIP3    H135110   0.531   2.204   0.657  0.9391 -0.2719  0.6363
 4517TIP3    H235111   0.676   2.197   0.612  0.5316  1.9427 -1.1417
 4518TIP3   OH235112   2.281   0.223   1.930 -0.3266  0.0418 -0.2673
 4518TIP3    H135113   2.362   0.174   1.918 -0.3777  0.4615 -2.4598
 4518TIP3    H235114   2.308   0.300   1.981  0.6577  0.1485 -0.9253
 4519TIP3   OH235115   4.944   2.571   0.911 -0.0077 -1.1922 -0.4441
 4519TIP3    H135116   4.862   2.539   0.948 -0.8158 -1.6229 -2.5572
 4519TIP3    H235117   4.921   2.602   0.823  1.7626  0.2783 -0.4279
 4520TIP3   OH235118   1.280   1.152   7.942  0.2981  0.3461 -0.3529
 4520TIP3    H135119   1.369   1.155   7.978  0.9769  0.0025 -1.9911
 4520TIP3    H235120   1.281   1.212   7.868 -0.5911 -0.3210 -0.9183
 4521TIP3   OH235121   0.993   6.665   7.918 -0.0865  0.1850  0.3690
 4521TIP3    H135122   1.046   6.681   7.996  0.1337  0.1614  0.2242
 4521TIP3    H235123   1.044   6.703   7.846 -0.0988 -0.1546  0.1813
 4522TIP3   OH235124   7.006   2.779   7.786  0.2010 -0.1677 -0.4074
 4522TIP3    H135125   7.089   2.736   7.805  0.4827  0.8553  0.7706
 4522TIP3    H235126   6.951   2.710   7.748  1.8341 -0.6489 -1.9393
 4523TIP3   OH235127   6.445   2.631   7.019  0.1205  0.5221  0.3594
 4523TIP3    H135128   6.369   2.687   7.037 -0.0181  0.6041 -0.4752
 4523TIP3    H235129   6.455   2.633   6.924  0.6598 -0.1675  0.3952
 4524TIP3   OH235130   1.725   3.410   0.682  0.1431 -0.4540  0.6992
 4524TIP3    H135131   1.704   3.447   0.768  0.5281  2.2305 -0.3397
 4524TIP3    H235132   1.735   3.485   0.625 -0.5454 -2.2311 -1.8363
 4525TIP3   OH235133   0.397   2.435   0.059  0.0777  0.3258 -0.6378
 4525TIP3    H135134   0.385   2.431   0.154 -1.0314  0.5375 -0.7652
 4525TIP3    H235135   0.457   2.362   0.040  1.0799  0.8793  0.3308
 4526TIP3   OH235136   3.642   0.639   7.622  0.4165 -0.2471 -0.0458
 4526TIP3    H135137   3.714   0.700   7.605 -0.0311  0.7593  1.5481
 4526TIP3    H235138   3.573   0.666   7.562 -1.2756  3.4888  3.3141
 4527TIP3   OH235139   6.405   1.974   2.121 -0.5898 -0.3106 -0.2245
 4527TIP3    H135140   6.476   2.021   2.078 -0.2172  1.3128  2.0797
 4527TIP3    H235141   6.433   1.965   2.212 -2.5873 -1.1412  0.3386
 4528TIP3   OH235142   0.447   1.398   6.448 -0.0672 -0.1982 -0.4594
 4528TIP3    H135143   0.398   1.387   6.367  0.1247 -0.1835 -0.5777
 4528TIP3    H235144   0.430   1.488   6.474  0.9015  0.1938 -1.1603
 4529TIP3   OH235145   4.525   2.517   6.734  0.1878 -0.4686  0.2503
 4529TIP3    H135146   4.467   2.507   6.659 -1.3155 -0.9088  1.4458
 4529TIP3    H235147   4.613   2.524   6.696 -0.3972 -2.0559 -1.4509
 4530TIP3   OH235148   0.968   0.449   6.289 -0.1147 -0.2327 -0.0948
 4530TIP3    H135149   0.887   0.399   6.298 -0.2786 -0.0404 -0.4789
 4530TIP3    H235150   1.026   0.391   6.240 -0.0873 -0.2933  0.0094
 4531TIP3   OH235151   0.251   4.085   7.103  0.1231  0.0520  0.2499
 4531TIP3    H135152   0.193   4.028   7.154 -1.1039  2.6045  1.7811
 4531TIP3    H235153   0.192   4.144   7.057  1.3461 -0.5549 -2.2016
 4532TIP3   OH235154   2.700   7.091   6.561 -0.4916  0.4602  0.2835
 4532TIP3    H135155   2.788   7.079   6.598 -0.7868 -0.5978  0.6464
 4532TIP3    H235156   2.706   7.056   6.472  0.2160  2.9997 -0.7155
 4533TIP3   OH235157   5.949   3.161   1.340  0.0165 -0.0995 -0.1843
 4533TIP3    H135158   5.893   3.139   1.414 -0.6783 -0.1370 -0.7207
 4533TIP3    H235159   5.891   3.202   1.277  0.8858  1.2466 -0.1194
 4534TIP3   OH235160   4.792   2.134   1.744 -0.8722 -0.1845 -0.4744
 4534TIP3    H135161   4.806   2.144   1.650 -0.1128 -1.6675 -0.5277
 4534TIP3    H235162   4.823   2.217   1.782 -0.9931  0.3369 -1.5076
 4535TIP3   OH235163   6.886   1.945   7.922  0.2898  0.2646 -0.2210
 4535TIP3    H135164   6.865   1.931   7.830 -2.7505  1.2906  0.2583
 4535TIP3    H235165   6.887   2.040   7.931  2.1367  0.1922  0.4951
 4536TIP3   OH235166   2.884   2.705   0.896 -0.1454  0.0111 -0.0985
 4536TIP3    H135167   2.891   2.798   0.916  3.7010 -0.2439  0.0540
 4536TIP3    H235168   2.851   2.665   0.977  1.8912  0.7645  1.1221
 4537TIP3   OH235169   5.078   0.637   0.820 -0.3606 -0.6719 -0.0502
 4537TIP3    H135170   5.143   0.638   0.890 -0.9428  1.4626  0.5149
 4537TIP3    H235171   5.084   0.725   0.782 -3.1870 -0.2855  0.2941
 4538TIP3   OH235172   0.646   1.011   1.362 -0.3510  0.2521 -0.0239
 4538TIP3    H135173   0.596   1.081   1.405 -1.1943 -0.8793  0.8752
 4538TIP3    H235174   0.580   0.952   1.327  0.3558  0.0717 -1.0786
 4539TIP3   OH235175   0.472   4.716   8.086 -0.3952 -0.1535 -0.2269
 4539TIP3    H135176   0.466   4.651   8.156 -2.1074 -0.2731 -0.4617
 4539TIP3    H235177   0.512   4.670   8.013  1.2645 -0.0723  0.5960
 4540TIP3   OH235178   5.150   3.040   7.481  0.0306 -0.5239  0.6891
 4540TIP3    H135179   5.162   3.098   7.406 -1.1168 -2.5503 -1.1112
 4540TIP3    H235180   5.238   3.008   7.501  0.0995 -1.5452 -1.1101
 4541TIP3   OH235181   6.672   0.980   7.662 -0.6176  0.0161 -0.6930
 4541TIP3    H135182   6.700   1.067   7.634  2.9769 -0.9841 -0.4508
 4541TIP3    H235183   6.666   0.985   7.757 -0.4828  0.0241 -0.6848
 4542TIP3   OH235184   2.998   2.967   0.881  0.7957  0.5353 -0.4356
 4542TIP3    H135185   2.999   2.974   0.786 -0.5429  0.7101 -0.4538
 4542TIP3    H235186   2.933   3.032   0.909  1.8835  1.1867  0.6657
 4543TIP3   OH235187   2.464   6.639   7.303 -0.3005  0.2789  0.4611
 4543TIP3    H135188   2.429   6.569   7.357 -2.0342  0.8587  0.1196
 4543TIP3    H235189   2.400   6.711   7.311  0.9657  1.4771  0.0729
 4544TIP3   OH235190   0.249   2.956   0.663 -0.4643 -0.0350  0.0584
 4544TIP3    H135191   0.178   3.018   0.651 -1.1285 -0.5263  1.3468
 4544TIP3    H235192   0.269   2.961   0.757  1.9067  0.8718 -0.4526
 4545TIP3   OH235193   0.702   0.785   7.857  0.6006  0.0754  0.7491
 4545TIP3    H135194   0.697   0.878   7.831  0.5409  0.2428  1.3515
 4545TIP3    H235195   0.624   0.771   7.910 -0.6904 -0.9805 -1.3842
 4546TIP3   OH235196   0.694   3.013   7.849  0.3371 -0.3702 -0.0276
 4546TIP3    H135197   0.644   2.934   7.870  1.3540 -0.9654  0.1675
 4546TIP3    H235198   0.696   3.063   7.931 -0.3155 -0.1254 -0.1548
 4547TIP3   OH235199   5.868   0.759   7.660  0.7671 -0.5477 -0.0564
 4547TIP3    H135200   5.796   0.801   7.615  0.1303  0.2354  1.6391
 4547TIP3    H235201   5.847   0.666   7.658  0.1132 -0.3974 -0.2842
 4548TIP3   OH235202   2.021   3.610   0.261  0.1170 -0.3577 -0.5842
 4548TIP3    H135203   2.064   3.524   0.265 -0.4539 -0.6249 -0.2061
 4548TIP3    H235204   2.079   3.663   0.206  1.2747 -0.5289  0.4419
 4549TIP3   OH235205   3.771   2.153   1.612 -0.1847  0.7445 -0.2579
 4549TIP3    H135206   3.805   2.108   1.690 -0.2480  0.6918 -0.2607
 4549TIP3    H235207   3.819   2.236   1.609  0.6200  0.2761 -0.7760
 4550TIP3   OH235208   0.658   6.575   7.153 -0.4256  0.0167  0.4738
 4550TIP3    H135209   0.657   6.635   7.079  0.1218  0.7488  1.0533
 4550TIP3    H235210   0.565   6.560   7.173 -0.7218 -3.1892 -2.7218
 4551TIP3   OH235211   5.681   1.623   7.613 -0.4692 -0.6793  0.4751
 4551TIP3    H135212   5.620   1.688   7.579  0.5380  0.7603  1.3726
 4551TIP3    H235213   5.766   1.668   7.613 -0.2985 -0.8834  4.1225
 4552TIP3   OH235214   5.836   4.411   7.909 -0.0638 -0.0675  0.2625
 4552TIP3    H135215   5.784   4.404   7.989 -0.7938 -1.9755 -0.3639
 4552TIP3    H235216   5.791   4.355   7.846  1.4812  0.0528 -0.9696
 4553TIP3   OH235217   4.959   0.967   0.432  0.0494  0.1313  0.1105
 4553TIP3    H135218   4.893   0.931   0.491  0.9773  0.6350  1.4655
 4553TIP3    H235219   4.975   0.896   0.369 -1.2391 -0.2561  0.2125
 4554TIP3   OH235220   0.548   6.601   0.606 -0.0596 -0.1734 -0.0094
 4554TIP3    H135221   0.545   6.564   0.518 -1.7798 -0.6383  0.2110
 4554TIP3    H235222   0.614   6.549   0.652  0.6341 -0.1199 -0.9464
 4555TIP3   OH235223   0.468   5.490   6.424 -0.7265  0.6933  0.1757
 4555TIP3    H135224   0.442   5.441   6.346  1.0063 -2.1087  1.3081
 4555TIP3    H235225   0.387   5.501   6.474 -0.8722 -2.5748  0.7332
 4556TIP3   OH235226   4.668   1.393   0.051  0.9131  0.2502 -0.5325
 4556TIP3    H135227   4.731   1.455   0.087  0.8239  0.5605 -0.9131
 4556TIP3    H235228   4.594   1.447   0.023 -0.2932 -0.2771  1.5365
 4557TIP3   OH235229   6.334   3.889   0.652  0.1230  0.2852  0.3243
 4557TIP3    H135230   6.314   3.902   0.745  0.2819 -0.1745  0.4262
 4557TIP3    H235231   6.300   3.967   0.609 -0.2178  0.3658  0.7317
 4558TIP3   OH235232   2.264   0.106   0.320  0.5330 -0.1793  0.3213
 4558TIP3    H135233   2.329   0.037   0.326  2.1506  1.3646  1.1347
 4558TIP3    H235234   2.307   0.183   0.359 -0.7250  1.6332 -1.7516
 4559TIP3   OH235235   6.809   6.830   1.727  1.2012 -0.1464 -0.6694
 4559TIP3    H135236   6.751   6.783   1.786  0.1298 -1.7304 -2.8951
 4559TIP3    H235237   6.760   6.908   1.701  0.5279 -0.8742 -1.6175
 4560TIP3   OH235238   0.118   5.611   0.601 -0.3646  0.0546 -0.0243
 4560TIP3    H135239   0.202   5.656   0.612 -0.9873  0.8402  1.7819
 4560TIP3    H235240   0.112   5.593   0.507  1.7950  0.0227 -0.1787
 4561TIP3   OH235241   1.693   3.634   1.522  0.1385  0.1985  0.8846
 4561TIP3    H135242   1.624   3.611   1.585  0.1871 -0.7909  0.5787
 4561TIP3    H235243   1.671   3.584   1.443  0.8653  0.3626  0.5751
 4562TIP3   OH235244   0.329   2.433   7.803  0.8656  0.2510  0.4901
 4562TIP3    H135245   0.339   2.342   7.832  1.0866  0.1812  0.1953
 4562TIP3    H235246   0.419   2.464   7.789  0.8077  0.6075  0.8748
 4563TIP3   OH235247   3.221   5.983   6.331  0.4412 -0.1445 -0.3912
 4563TIP3    H135248   3.153   6.027   6.281  1.3347  1.1209 -0.5407
 4563TIP3    H235249   3.200   5.890   6.325 -0.7217  0.1624 -1.2211
 4564TIP3   OH235250   2.774   3.050   1.517 -0.0007 -0.1689  0.0786
 4564TIP3    H135251   2.858   3.003   1.518 -0.4748 -1.0155 -0.2018
 4564TIP3    H235252   2.719   3.001   1.457 -1.5078 -1.0249  2.1099
 4565TIP3   OH235253   0.045   4.252   6.939 -0.4283 -0.1605  0.4910
 4565TIP3    H135254   0.096   4.268   6.860 -1.7990  0.2535 -0.3237
 4565TIP3    H235255   0.053   4.333   6.990 -1.2744  0.3704 -0.2089
 4566TIP3   OH235256   6.529   4.699   1.774 -0.0251 -0.3661 -0.0874
 4566TIP3    H135257   6.559   4.637   1.840  0.4661 -1.3164 -1.1905
 4566TIP3    H235258   6.561   4.784   1.805 -0.6272 -0.6608  1.3736
 4567TIP3   OH235259   0.382   2.110   0.792 -0.3080  0.9339  0.0797
 4567TIP3    H135260   0.342   2.174   0.850  1.6972  1.5940  0.7862
 4567TIP3    H235261   0.464   2.086   0.835  0.6067  0.4676 -1.8280
 4568TIP3   OH235262   3.109   1.610   8.047 -0.0516 -0.1284  0.3685
 4568TIP3    H135263   3.123   1.604   8.141  0.2524 -1.6424  0.2362
 4568TIP3    H235264   3.170   1.678   8.017  0.8816 -0.6633  1.0468
 4569TIP3   OH235265   2.528   2.456   5.793 -0.4275  0.0382  0.0822
 4569TIP3    H135266   2.620   2.460   5.819 -0.7457  0.8364  1.1109
 4569TIP3    H235267   2.526   2.391   5.723  0.7742 -0.6829  0.6964
 4570TIP3   OH235268   1.765   6.391   7.331  0.7103 -0.4496 -0.0250
 4570TIP3    H135269   1.803   6.439   7.258  1.7432 -0.4293  0.5117
 4570TIP3    H235270   1.746   6.304   7.296 -2.2031  0.6537 -1.3046
 4571TIP3   OH235271   6.645   3.008   0.905 -0.0589 -0.2064 -0.2683
 4571TIP3    H135272   6.563   3.046   0.937 -1.0118 -1.6507 -0.9464
 4571TIP3    H235273   6.695   2.987   0.984 -0.6867 -0.0562  0.1712
 4572TIP3   OH235274   5.827   2.052   1.552  0.3403  0.0311  0.2074
 4572TIP3    H135275   5.865   2.122   1.604  0.1596  0.4883 -0.2770
 4572TIP3    H235276   5.799   1.987   1.616 -0.0942  0.6930  0.6898
 4573TIP3   OH235277   1.916   1.230   2.036 -0.2035  0.2046 -0.4161
 4573TIP3    H135278   1.840   1.202   1.985 -1.0360  0.5412  0.6117
 4573TIP3    H235279   1.988   1.176   2.004 -1.5805 -2.5101  0.8902
 4574TIP3   OH235280   1.298   5.086   1.672  0.4770  0.2949 -0.6365
 4574TIP3    H135281   1.322   5.031   1.597 -0.9918  1.2280 -1.8212
 4574TIP3    H235282   1.358   5.160   1.667 -0.9785  1.4305 -2.1963
 4575TIP3   OH235283   7.040   1.261   2.116 -0.0377  0.2383  0.2486
 4575TIP3    H135284   6.994   1.322   2.174 -2.7221 -0.4466 -1.1247
 4575TIP3    H235285   7.061   1.312   2.038 -0.8226 -0.1651 -0.2239
 4576TIP3   OH235286   4.614   3.309   7.269  0.4106 -0.0099  0.0843
 4576TIP3    H135287   4.606   3.326   7.175  0.5564  0.0756  0.0869
 4576TIP3    H235288   4.526   3.323   7.304 -0.1346 -2.1148 -0.3710
 4577TIP3   OH235289   1.331   0.779   1.806 -0.7833 -0.4238  0.2190
 4577TIP3    H135290   1.373   0.764   1.891 -0.3318  1.6434  0.3752
 4577TIP3    H235291   1.275   0.855   1.820  2.0229  2.1750 -2.2651
 4578TIP3   OH235292   0.301   4.502   1.429  0.2388  0.0314  0.4622
 4578TIP3    H135293   0.389   4.526   1.396  0.0413  0.9039  0.5443
 4578TIP3    H235294   0.242   4.534   1.361  0.0904 -2.3002 -0.5204
 4579TIP3   OH235295   4.104   2.492   6.379  0.2112  1.2726  0.0302
 4579TIP3    H135296   4.048   2.421   6.412  1.0748  0.3070 -0.5537
 4579TIP3    H235297   4.051   2.571   6.391 -2.0963  0.1633 -2.2647
 4580TIP3   OH235298   0.473   5.031   1.760  0.8419  0.1209 -0.5327
 4580TIP3    H135299   0.437   5.094   1.823 -0.8078 -0.1748 -1.1602
 4580TIP3    H235300   0.527   4.973   1.813  2.4862  2.1156  0.0460
 4581TIP3   OH235301   6.465   2.708   5.925  0.4372  0.5401  0.3932
 4581TIP3    H135302   6.461   2.618   5.958 -0.2730 -0.1687 -1.5864
 4581TIP3    H235303   6.380   2.722   5.885  0.3046  2.3504  1.2792
 4582TIP3   OH235304   3.484   1.581   7.496  0.3960  0.0191 -0.3083
 4582TIP3    H135305   3.464   1.601   7.405  0.6282  0.4754 -0.2570
 4582TIP3    H235306   3.403   1.542   7.530  0.8524 -1.7600 -1.1748
 4583TIP3   OH235307   1.466   6.613   1.166 -0.0853 -0.0913  0.4222
 4583TIP3    H135308   1.390   6.557   1.178  0.0383 -0.4988 -0.6489
 4583TIP3    H235309   1.510   6.578   1.088  0.1233  1.3328 -0.1171
 4584TIP3   OH235310   6.773   2.350   6.890  0.6043  0.2390 -0.2447
 4584TIP3    H135311   6.832   2.396   6.949  2.5901 -0.1038 -1.8995
 4584TIP3    H235312   6.760   2.264   6.930  0.6801  0.5577  0.4664
 4585TIP3   OH235313   2.634   3.860   7.274  0.4786  0.2341  0.1030
 4585TIP3    H135314   2.617   3.953   7.282  0.5487  0.4616 -2.2063
 4585TIP3    H235315   2.555   3.823   7.235 -0.0338 -0.8821  2.1425
 4586TIP3   OH235316   1.221   5.437   0.241 -0.0181  0.4443  0.5751
 4586TIP3    H135317   1.135   5.424   0.281  0.0727 -1.1297  0.2761
 4586TIP3    H235318   1.251   5.520   0.277 -0.9469  0.1995  1.9605
 4587TIP3   OH235319   3.035   2.800   1.151  0.2456  0.2075 -0.3840
 4587TIP3    H135320   3.009   2.865   1.085 -2.0814  0.8920  1.1433
 4587TIP3    H235321   2.974   2.727   1.138 -0.1978  0.3225  0.9518
 4588TIP3   OH235322   2.127   4.915   7.405  0.2056 -0.1859  0.3019
 4588TIP3    H135323   2.064   4.894   7.337 -0.0988 -2.3580  1.1973
 4588TIP3    H235324   2.074   4.934   7.483  0.4859  3.8011 -0.3774
 4589TIP3   OH235325   3.260   0.576   0.276  0.4505  0.4461 -0.2968
 4589TIP3    H135326   3.337   0.628   0.298  1.1049 -0.6602  0.0978
 4589TIP3    H235327   3.294   0.487   0.267 -0.3555  0.3346 -2.5525
 4590TIP3   OH235328   0.438   0.924   0.477  0.4833 -0.1711  0.4558
 4590TIP3    H135329   0.377   0.879   0.536  2.5816 -0.5833  2.3535
 4590TIP3    H235330   0.489   0.853   0.438 -0.2701  0.1723 -1.2063
 4591TIP3   OH235331   1.839   3.093   7.403 -0.2926  0.7222  0.7096
 4591TIP3    H135332   1.893   3.115   7.327  0.0910 -0.3717  0.6530
 4591TIP3    H235333   1.778   3.027   7.371 -1.4693  1.7296  0.8549
 4592TIP3   OH235334   3.405   6.346   1.019  0.2405  0.1997  0.7240
 4592TIP3    H135335   3.382   6.329   1.111  1.4520  0.2438  1.0384
 4592TIP3    H235336   3.495   6.378   1.022  0.4469 -0.2334 -0.5196
 4593TIP3   OH235337   6.114   2.430   1.835  0.0874 -0.0114  0.0158
 4593TIP3    H135338   6.046   2.434   1.768  0.0695 -0.3457  0.0136
 4593TIP3    H235339   6.146   2.520   1.842  0.2389 -0.0176 -0.5892
 4594TIP3   OH235340   3.406   1.756   0.968 -0.4752 -0.8924 -0.0077
 4594TIP3    H135341   3.468   1.773   0.897  0.3317 -0.0046  0.8917
 4594TIP3    H235342   3.362   1.839   0.983 -1.3922 -1.3377 -0.1529
 4595TIP3   OH235343   2.100   1.884   1.085  0.8257  0.2892 -0.0224
 4595TIP3    H135344   2.185   1.863   1.047  1.0883  0.2836  0.5623
 4595TIP3    H235345   2.038   1.873   1.013  1.1661 -0.8569 -0.1529
 4596TIP3   OH235346   2.395   1.485   1.854 -0.0366  0.6382  0.3118
 4596TIP3    H135347   2.385   1.392   1.835  0.3808  0.2170  2.1388
 4596TIP3    H235348   2.383   1.492   1.948 -0.8658  2.5510  0.0806
 4597TIP3   OH235349   1.053   4.232   0.885 -0.3950 -0.6481  0.3124
 4597TIP3    H135350   1.006   4.300   0.838 -0.3429 -1.1889 -0.5242
 4597TIP3    H235351   1.115   4.196   0.821  1.1884  0.0751  1.3868
 4598TIP3   OH235352   5.617   3.096   7.751  0.5731 -0.7458 -0.8453
 4598TIP3    H135353   5.615   3.044   7.831 -2.1447  2.8921  1.6606
 4598TIP3    H235354   5.707   3.128   7.745  0.2929  0.7518  2.0872
 4599TIP3   OH235355   3.212   1.752   6.898  0.2664 -0.0067  0.0507
 4599TIP3    H135356   3.301   1.736   6.869 -0.4872 -0.2201 -2.2102
 4599TIP3    H235357   3.177   1.664   6.915 -0.4390 -0.1242 -1.9300
 4600TIP3   OH235358   6.060   2.392   7.881 -0.3558  0.0254 -0.2138
 4600TIP3    H135359   6.089   2.479   7.856  0.6002 -0.7042 -1.6847
 4600TIP3    H235360   6.091   2.381   7.971 -2.2013  1.9436  0.7096
 4601TIP3   OH235361   2.221   6.455   7.046 -0.2081 -0.0698 -0.6459
 4601TIP3    H135362   2.181   6.508   7.114  1.2610 -1.9480  1.7586
 4601TIP3    H235363   2.150   6.399   7.014 -0.8314  0.6178 -0.4573
 4602TIP3   OH235364   0.736   6.064   7.787 -0.1202 -0.4328  0.0470
 4602TIP3    H135365   0.664   6.020   7.833 -0.7781  1.1717  0.5559
 4602TIP3    H235366   0.810   6.057   7.848 -1.0856  2.0132  1.5508
 4603TIP3   OH235367   3.106   3.331   1.863 -0.7210  0.2449  0.0819
 4603TIP3    H135368   3.144   3.309   1.948  0.0089 -1.5059 -0.6744
 4603TIP3    H235369   3.027   3.276   1.857 -0.9190  0.5648 -0.2455
 4604TIP3   OH235370   2.004   1.329   7.781 -0.0872 -0.2254 -0.1126
 4604TIP3    H135371   2.068   1.387   7.740  0.0408 -0.4938 -0.2945
 4604TIP3    H235372   1.943   1.306   7.711  0.1318 -0.6855 -0.1526
 4605TIP3   OH235373   7.076   6.245   0.346  0.5208 -0.6046 -1.1530
 4605TIP3    H135374   7.051   6.154   0.330 -1.1142 -0.4428  0.3509
 4605TIP3    H235375   7.162   6.254   0.305  1.4368 -3.2775  0.1296
 4606TIP3   OH235376   5.619   1.955   6.955 -0.5464 -0.3983 -0.0959
 4606TIP3    H135377   5.549   2.020   6.961 -0.8980 -0.4445 -3.1120
 4606TIP3    H235378   5.583   1.884   6.902  1.5557 -0.7413 -1.1379
 4607TIP3   OH235379   6.354   3.906   0.980  0.0957  0.6727 -0.7278
 4607TIP3    H135380   6.337   3.990   1.020 -0.4389 -0.0397  0.5532
 4607TIP3    H235381   6.296   3.845   1.024  1.9907 -0.7663 -0.1320
 4608TIP3   OH235382   4.334   6.342   7.767  0.1388 -0.2260  0.2534
 4608TIP3    H135383   4.395   6.331   7.695 -1.8185 -0.2098 -1.4621
 4608TIP3    H235384   4.311   6.253   7.793  0.7787 -0.2305  0.8208
 4609TIP3   OH235385   0.201   1.759   0.614  0.5699 -0.4800  0.1592
 4609TIP3    H135386   0.230   1.669   0.628  0.3909 -0.5098  0.3385
 4609TIP3    H235387   0.133   1.752   0.547  0.7015 -0.4539  0.0221
 4610TIP3   OH235388   3.755   4.905   1.091 -0.3982 -0.4795  0.2977
 4610TIP3    H135389   3.844   4.878   1.116 -0.2099  0.6459  0.8581
 4610TIP3    H235390   3.754   4.896   0.995 -0.1320 -1.8069  0.4032
 4611TIP3   OH235391   2.168   0.468   1.401  0.2136  0.0464  0.3074
 4611TIP3    H135392   2.127   0.382   1.415  1.4352 -0.8470 -1.4097
 4611TIP3    H235393   2.258   0.448   1.375 -0.0855  1.7588 -2.2188
 4612TIP3   OH235394   3.867   3.839   1.798 -0.1794  0.5800  0.3779
 4612TIP3    H135395   3.906   3.915   1.842 -0.9129  0.4582  1.2720
 4612TIP3    H235396   3.884   3.766   1.858  0.9980 -0.0781 -0.7312
 4613TIP3   OH235397   1.033   5.863   1.239  0.0548  0.2123  0.0015
 4613TIP3    H135398   0.997   5.950   1.222 -2.4647 -1.0324 -1.2486
 4613TIP3    H235399   0.978   5.828   1.309  0.4530 -0.7433 -0.1634
 4614TIP3   OH235400   1.916   2.546   6.481  0.4670  0.9497 -0.9192
 4614TIP3    H135401   2.006   2.572   6.463  1.1117 -1.7464 -1.7973
 4614TIP3    H235402   1.901   2.471   6.423 -1.2412 -0.7191  1.5967
 4615TIP3   OH235403   6.677   4.540   0.698  0.0920 -0.4179  0.0754
 4615TIP3    H135404   6.762   4.517   0.734 -1.1077 -1.2364  2.4612
 4615TIP3    H235405   6.630   4.457   0.690 -0.3621 -0.0276 -1.6007
 4616TIP3   OH235406   1.199   0.210   1.547  0.4490 -0.2557  0.1104
 4616TIP3    H135407   1.119   0.210   1.600  0.9254 -1.0593  0.8481
 4616TIP3    H235408   1.227   0.119   1.545  1.2929  0.0002 -0.2291
 4617TIP3   OH235409   4.856   4.394   7.009  0.3025  0.6459 -0.3216
 4617TIP3    H135410   4.776   4.354   7.043  0.7093  1.2732  1.4147
 4617TIP3    H235411   4.846   4.390   6.914 -1.3268 -0.2033 -0.1345
 4618TIP3   OH235412   5.860   6.756   7.823  0.7433 -0.1774 -0.0689
 4618TIP3    H135413   5.778   6.790   7.786  0.6494 -0.1055  0.2037
 4618TIP3    H235414   5.833   6.710   7.902  0.6957 -2.1195 -1.1815
 4619TIP3   OH235415   3.046   4.408   0.704 -0.5705 -0.2968  0.0925
 4619TIP3    H135416   3.099   4.360   0.768 -0.4655 -1.7205 -1.0209
 4619TIP3    H235417   3.094   4.490   0.690  0.0590 -0.5185  0.9137
 4620TIP3   OH235418   6.694   6.816   7.352  0.4735 -0.0450  0.4475
 4620TIP3    H135419   6.660   6.851   7.434  0.2974 -2.2462  1.3330
 4620TIP3    H235420   6.616   6.790   7.303  0.6730 -0.7962  0.5223
 4621TIP3   OH235421   2.061   6.237   1.075 -0.0732  0.0757  0.4676
 4621TIP3    H135422   1.984   6.194   1.036  1.2057  0.6541 -2.8760
 4621TIP3    H235423   2.024   6.305   1.131 -2.0217 -0.6622  0.1414
 4622TIP3   OH235424   1.362   1.172   0.616  0.1721 -0.1493  0.8778
 4622TIP3    H135425   1.354   1.096   0.558 -1.5040  0.5741  0.1129
 4622TIP3    H235426   1.391   1.136   0.699  1.6577 -1.3327 -0.1336
 4623TIP3   OH235427   2.813   2.166   0.426  0.1736  0.1108  0.0750
 4623TIP3    H135428   2.900   2.204   0.438 -0.1751  0.7114  0.7998
 4623TIP3    H235429   2.815   2.085   0.477  0.4817 -0.1541 -0.3565
 4624TIP3   OH235430   1.248   2.986   1.124  0.2654 -0.2511 -0.2339
 4624TIP3    H135431   1.296   2.937   1.191 -0.0445 -0.7135 -0.3514
 4624TIP3    H235432   1.156   2.967   1.142  0.0587  1.4647  0.6443
 4625TIP3   OH235433   0.952   3.363   0.671 -0.0304  0.0160 -0.1533
 4625TIP3    H135434   0.856   3.364   0.675 -0.0189 -1.1982  0.5352
 4625TIP3    H235435   0.978   3.440   0.721 -0.6710  1.2508 -1.6642
 4626TIP3   OH235436   1.149   4.175   1.147  0.7304 -0.2582  0.1327
 4626TIP3    H135437   1.142   4.091   1.193  1.5557 -0.7010 -0.5278
 4626TIP3    H235438   1.118   4.157   1.059 -0.4103  0.4826  0.3738
 4627TIP3   OH235439   0.635   1.719   1.929 -0.1552 -0.1181 -0.0210
 4627TIP3    H135440   0.611   1.758   2.013  1.2166  0.8217 -0.0633
 4627TIP3    H235441   0.552   1.712   1.881 -0.7594  0.4592  0.9385
 4628TIP3   OH235442   0.189   0.761   0.150 -0.7363 -0.5709 -0.1161
 4628TIP3    H135443   0.130   0.821   0.196  0.7235 -0.0416  1.1193
 4628TIP3    H235444   0.189   0.682   0.204  1.1185  0.1151  0.9095
 4629TIP3   OH235445   1.190   1.792   1.364 -0.3135  0.0292  0.1888
 4629TIP3    H135446   1.238   1.860   1.412  0.4241 -0.1242 -0.3083
 4629TIP3    H235447   1.257   1.727   1.343 -0.8254 -0.3734 -0.1924
 4630TIP3   OH235448   0.816   3.481   7.557  0.1035  0.1721 -0.1054
 4630TIP3    H135449   0.900   3.488   7.602  0.0511 -0.0274  0.0222
 4630TIP3    H235450   0.769   3.412   7.604 -0.8641  1.5543  0.9858
 4631TIP3   OH235451   7.095   1.979   7.198 -0.1589 -0.2944 -0.0230
 4631TIP3    H135452   7.032   1.916   7.161  1.2340 -0.0501 -2.9589
 4631TIP3    H235453   7.060   2.065   7.174  1.6361 -0.1721 -2.3890
 4632TIP3   OH235454   6.666   6.457   1.748 -0.7298  0.4438  0.3450
 4632TIP3    H135455   6.590   6.474   1.692  0.1678 -0.8758 -1.3338
 4632TIP3    H235456   6.656   6.366   1.775 -0.1126  0.4829  0.7200
 4633TIP3   OH235457   0.615   0.066   7.077  0.4349  0.1533  0.1075
 4633TIP3    H135458   0.645   0.047   7.166  0.3753 -0.6903 -0.0459
 4633TIP3    H235459   0.548   0.133   7.088  1.1401  0.7826  0.6076
 4634TIP3   OH235460   4.172   3.522   6.703  0.1386 -0.2597  0.0929
 4634TIP3    H135461   4.082   3.501   6.677  0.7679 -1.5317 -1.1706
 4634TIP3    H235462   4.195   3.599   6.651 -0.6765  0.9229  1.4524
 4635TIP3   OH235463   7.046   0.631   6.484  0.5306  0.6085 -0.7113
 4635TIP3    H135464   6.968   0.669   6.442  0.3757  1.0638 -0.0079
 4635TIP3    H235465   7.074   0.698   6.547  0.6398 -0.1700  0.0678
 4636TIP3   OH235466   1.586   5.330   7.959  0.7947 -0.2522 -1.1523
 4636TIP3    H135467   1.525   5.335   7.885 -0.5999 -2.7335 -0.2299
 4636TIP3    H235468   1.572   5.411   8.007 -0.1527  0.2186 -2.1997
 4637TIP3   OH235469   5.384   5.051   7.044 -0.4970  0.4251  0.2913
 4637TIP3    H135470   5.334   5.090   6.972 -1.5384  0.7960  1.2165
 4637TIP3    H235471   5.334   5.072   7.123  0.6462  0.0286  1.1339
 4638TIP3   OH235472   6.094   3.966   1.610 -0.0256  0.4743 -0.3983
 4638TIP3    H135473   6.099   3.870   1.608  0.2222  0.4524  1.0098
 4638TIP3    H235474   6.102   3.992   1.518  1.1559 -0.7972 -0.6704
 4639TIP3   OH235475   3.534   3.723   2.200 -0.5267 -0.1090  0.0885
 4639TIP3    H135476   3.621   3.711   2.237 -0.7204 -0.0905  0.5453
 4639TIP3    H235477   3.550   3.741   2.107 -0.1466 -2.9911 -0.4760
 4640TIP3   OH235478   0.973   3.312   7.851 -0.4064  0.2262  0.2993
 4640TIP3    H135479   1.067   3.294   7.857 -0.1085  1.3370 -0.9166
 4640TIP3    H235480   0.960   3.390   7.906 -0.7104 -0.2357  0.8875
 4641TIP3   OH235481   4.619   1.588   7.070  0.9520  0.1782  0.3697
 4641TIP3    H135482   4.625   1.492   7.067  0.9857 -0.0178  4.1855
 4641TIP3    H235483   4.532   1.607   7.038  1.4053 -1.0149 -1.6700
 4642TIP3   OH235484   4.481   2.208   0.741  0.3856  0.6498  0.5364
 4642TIP3    H135485   4.542   2.136   0.730 -1.1030 -0.7127  0.9216
 4642TIP3    H235486   4.490   2.233   0.833  3.4011  3.3193 -0.4007
 4643TIP3   OH235487   2.665   2.514   0.024  0.5445  0.7206  0.1018
 4643TIP3    H135488   2.642   2.512  -0.069 -1.1537  0.8145  0.5079
 4643TIP3    H235489   2.584   2.538   0.069  1.5603  1.5929  1.5433
 4644TIP3   OH235490   0.151   3.952   0.706  0.0978 -0.2576  0.7863
 4644TIP3    H135491   0.193   3.902   0.776 -1.4042  0.3807  2.2081
 4644TIP3    H235492   0.153   4.043   0.738  1.2999  0.3676 -0.9926
 4645TIP3   OH235493   5.204   5.743   6.839 -0.3312 -0.4780 -0.0820
 4645TIP3    H135494   5.258   5.808   6.795  0.3930 -0.6676  0.5296
 4645TIP3    H235495   5.127   5.735   6.783 -0.0466  0.2910 -0.5963
 4646TIP3   OH235496   5.414   2.245   7.398 -0.0969  0.3949  0.0860
 4646TIP3    H135497   5.409   2.153   7.373  2.5945 -0.5598  2.7962
 4646TIP3    H235498   5.325   2.268   7.424 -0.5811 -1.7624  0.3924
 4647TIP3   OH235499   0.890   1.712   1.697  0.2400 -0.1223 -0.1383
 4647TIP3    H135500   0.969   1.701   1.748  0.2502  4.0016  0.9510
 4647TIP3    H235501   0.836   1.636   1.718  3.6088 -2.7379 -0.5227
 4648TIP3   OH235502   1.228   2.785   2.482 -0.1199  0.2622  0.3777
 4648TIP3    H135503   1.139   2.818   2.467 -0.4159 -1.2868 -1.4758
 4648TIP3    H235504   1.284   2.862   2.472 -1.2408  1.2685  1.6288
 4649TIP3   OH235505   0.456   6.772   7.788  0.1491  0.1545 -0.3792
 4649TIP3    H135506   0.439   6.849   7.734  0.8965  1.9991  1.9620
 4649TIP3    H235507   0.531   6.730   7.745 -0.9959  0.0138 -2.3411
 4650TIP3   OH235508   5.128   1.401   0.421  0.0515 -0.3833 -0.0338
 4650TIP3    H135509   5.178   1.467   0.373 -0.5077 -1.1124 -1.6689
 4650TIP3    H235510   5.155   1.412   0.512  2.8816 -0.4667 -0.7932
 4651TIP3   OH235511   4.989   5.947   1.045 -0.1648 -0.3262  0.3302
 4651TIP3    H135512   5.027   5.859   1.055 -1.8323 -1.1327 -0.2795
 4651TIP3    H235513   4.896   5.931   1.032 -0.3123  1.4859 -0.9054
 4652TIP3   OH235514   2.110   2.724   0.031  0.0028  0.1838 -0.4166
 4652TIP3    H135515   2.144   2.777   0.103  0.2713 -0.1197 -0.3171
 4652TIP3    H235516   2.083   2.787  -0.036 -1.8094  0.5442  0.6283
 4653TIP3   OH235517   5.930   3.294   6.140  0.5311 -0.0846 -0.0808
 4653TIP3    H135518   6.009   3.243   6.155  1.6092  2.0900  1.9085
 4653TIP3    H235519   5.909   3.333   6.225 -1.3816  1.1843 -1.0831
 4654TIP3   OH235520   3.963   0.608   0.392 -0.4537  0.0777 -0.1645
 4654TIP3    H135521   3.903   0.557   0.338  1.1595  0.3278 -2.2371
 4654TIP3    H235522   4.043   0.555   0.397 -0.4531  0.2291  1.6751
 4655TIP3   OH235523   0.812   0.037   6.837  0.0824  0.1993 -0.2448
 4655TIP3    H135524   0.770  -0.037   6.794  2.0088 -1.0189 -0.0866
 4655TIP3    H235525   0.741   0.080   6.884 -1.3954 -0.5120 -1.7393
 4656TIP3   OH235526   0.860   3.022   1.114  0.4929  0.1753  0.8707
 4656TIP3    H135527   0.804   3.071   1.054  1.1971 -0.1109 -0.0434
 4656TIP3    H235528   0.839   3.056   1.201  0.6147  1.7373  0.3054
 4657TIP3   OH235529   5.021   0.385   1.328  0.1052 -0.6338 -0.0325
 4657TIP3    H135530   5.071   0.414   1.405  0.3112 -0.2716 -0.2994
 4657TIP3    H235531   4.960   0.320   1.362 -0.5557  0.3154  0.6354
 4658TIP3   OH235532   5.790   4.640   7.238  0.3834 -0.6365 -0.0089
 4658TIP3    H135533   5.855   4.711   7.239 -0.9344  0.6571 -2.0789
 4658TIP3    H235534   5.708   4.683   7.214 -1.1241 -2.3757  1.7896
 4659TIP3   OH235535   6.661   3.193   0.699  0.2016  0.6806  0.1321
 4659TIP3    H135536   6.586   3.252   0.709 -2.1099 -2.1667  0.0479
 4659TIP3    H235537   6.655   3.135   0.775  1.0835 -0.9098 -0.9986
 4660TIP3   OH235538   2.340   6.579   0.457 -0.5000  0.0952 -0.1304
 4660TIP3    H135539   2.279   6.564   0.385 -0.0023  0.5710 -0.6559
 4660TIP3    H235540   2.290   6.632   0.519 -0.3332  1.2626 -0.9783
 4661TIP3   OH235541   1.635   4.871   6.616 -0.5277 -0.1032  0.4667
 4661TIP3    H135542   1.646   4.796   6.557 -1.7301 -1.0731  1.4530
 4661TIP3    H235543   1.591   4.937   6.562 -0.7320 -0.6256 -0.0069
 4662TIP3   OH235544   1.048   7.062   2.052 -0.1737 -0.1740  0.6034
 4662TIP3    H135545   1.126   7.101   2.092 -0.1032  1.1942 -0.7852
 4662TIP3    H235546   0.975   7.105   2.097 -0.1127 -0.3703  0.8895
 4663TIP3   OH235547   6.718   3.631   6.484 -0.1776 -0.0496  0.0376
 4663TIP3    H135548   6.760   3.650   6.400 -0.6779  0.4525 -0.1027
 4663TIP3    H235549   6.626   3.621   6.463 -0.2215 -0.4918  0.4436
 4664TIP3   OH235550   5.088   2.666   1.135  0.3557 -0.1270  0.0253
 4664TIP3    H135551   5.055   2.624   1.056  0.3585  0.2598 -0.1840
 4664TIP3    H235552   5.134   2.744   1.104 -1.2636  1.0779  0.5070
 4665TIP3   OH235553   1.935   6.485   7.796 -0.3791 -0.0824  0.3542
 4665TIP3    H135554   1.916   6.561   7.741  1.3130  0.7750  0.9155
 4665TIP3    H235555   1.988   6.428   7.740 -1.1369 -0.5841  0.1369
 4666TIP3   OH235556   2.611   4.090   0.369 -0.0765 -0.1226  0.0159
 4666TIP3    H135557   2.598   4.032   0.444 -1.2381  0.1737  0.0454
 4666TIP3    H235558   2.544   4.062   0.306 -0.1754  0.7158 -0.2542
 4667TIP3   OH235559   6.506   2.576   0.759  0.3543 -0.3821 -0.4499
 4667TIP3    H135560   6.581   2.634   0.745 -1.4298  2.3660  1.0329
 4667TIP3    H235561   6.437   2.611   0.702 -0.2814 -1.9665 -0.6738
 4668TIP3   OH235562   2.467   1.071   0.393  0.6297 -0.1309 -0.2362
 4668TIP3    H135563   2.457   1.006   0.324  0.2998  1.4709 -1.7389
 4668TIP3    H235564   2.398   1.050   0.456 -0.7674 -0.0447 -1.6978
 4669TIP3   OH235565   3.184   5.163   1.086  0.5441  0.4870  0.3205
 4669TIP3    H135566   3.228   5.165   1.171  1.2854 -0.3569 -0.0421
 4669TIP3    H235567   3.198   5.251   1.051 -0.0433  0.9454  1.2053
 4670TIP3   OH235568   1.689   3.467   2.191  0.2172  0.0583 -0.8591
 4670TIP3    H135569   1.709   3.381   2.229 -0.1989  0.2405 -0.2099
 4670TIP3    H235570   1.727   3.530   2.252 -1.5646  0.3848 -0.0366
 4671TIP3   OH235571   3.519   0.269   7.770 -0.2009  0.4445  0.1083
 4671TIP3    H135572   3.431   0.282   7.734  0.0158 -0.7707 -0.9064
 4671TIP3    H235573   3.547   0.185   7.734  0.3688 -0.4251  2.4810
 4672TIP3   OH235574   2.060   2.479   1.093  0.6009 -0.1682  0.5066
 4672TIP3    H135575   1.998   2.540   1.133  1.0289 -0.5095  1.7130
 4672TIP3    H235576   2.024   2.462   1.006 -0.2954  0.6608  0.7037
 4673TIP3   OH235577   2.960   1.844   2.054 -0.2281 -0.5038 -0.0372
 4673TIP3    H135578   2.924   1.916   2.106  1.1866  0.7439 -0.7603
 4673TIP3    H235579   2.927   1.859   1.966  2.2441  0.8234 -0.7782
 4674TIP3   OH235580   0.707   3.286   7.714 -0.0225  0.4084  0.7149
 4674TIP3    H135581   0.651   3.300   7.790  1.4657  0.8515  1.7548
 4674TIP3    H235582   0.794   3.268   7.750  0.4100 -0.8073 -0.8547
 4675TIP3   OH235583   1.063   6.202   0.026 -0.3389 -0.1988 -0.0495
 4675TIP3    H135584   1.120   6.217  -0.049 -0.5777  0.7226 -0.0584
 4675TIP3    H235585   1.092   6.267   0.091  0.9929 -2.0965  1.3037
 4676TIP3   OH235586   1.119   1.002   1.108  0.8735 -0.1871  0.0631
 4676TIP3    H135587   1.174   1.048   1.172 -1.0007  1.3628  0.5986
 4676TIP3    H235588   1.180   0.978   1.038  2.1940  1.8211  0.4571
 4677TIP3   OH235589   0.889   3.176   1.382 -0.2370  0.0663  0.3388
 4677TIP3    H135590   0.944   3.098   1.382 -0.3314 -0.0011  0.4982
 4677TIP3    H235591   0.830   3.163   1.456 -0.7805 -0.0842 -0.1169
 4678TIP3   OH235592   5.907   3.771   7.357 -0.0751 -0.6012  0.0698
 4678TIP3    H135593   5.982   3.828   7.373 -0.6169  0.0209  0.4602
 4678TIP3    H235594   5.858   3.814   7.287 -0.1656 -0.9051 -0.0562
 4679TIP3   OH235595   0.696   6.671   1.286  0.2686  0.3980  0.7111
 4679TIP3    H135596   0.669   6.762   1.299  0.1246  0.5047 -0.2790
 4679TIP3    H235597   0.621   6.619   1.312 -0.1355  0.6190  0.0116
 4680TIP3   OH235598   1.432   1.393   0.470  0.2870  0.1673  0.5302
 4680TIP3    H135599   1.410   1.327   0.536 -0.0133  0.9834  1.2605
 4680TIP3    H235600   1.497   1.351   0.414 -0.9804 -1.2682  0.1040
 4681TIP3   OH235601   6.702   1.107   6.489 -0.4692 -0.0285 -0.0333
 4681TIP3    H135602   6.641   1.109   6.414  0.8944  0.3282 -1.1530
 4681TIP3    H235603   6.775   1.052   6.459  0.6201  1.0513  0.6189
 4682TIP3   OH235604   6.191   1.947   1.278  0.2980 -0.2410  0.0013
 4682TIP3    H135605   6.170   1.938   1.371  2.4199  0.2435  0.5506
 4682TIP3    H235606   6.232   2.034   1.271  0.1143 -0.2552 -1.3892
 4683TIP3   OH235607   0.325   2.058   1.131 -0.4666  0.5817  0.0144
 4683TIP3    H135608   0.310   2.128   1.067 -2.9034 -1.1408 -1.3931
 4683TIP3    H235609   0.293   2.094   1.213 -0.6530  1.5259 -0.4606
 4684TIP3   OH235610   5.602   1.733   0.243 -0.3823  0.3170  0.0747
 4684TIP3    H135611   5.640   1.669   0.183 -0.6596  0.0210  0.2159
 4684TIP3    H235612   5.599   1.814   0.193 -0.3469  0.1382 -0.2171
 4685TIP3   OH235613   3.519   6.954   1.948 -0.3029 -0.4445 -0.5376
 4685TIP3    H135614   3.445   6.920   1.897  0.5188 -0.6318 -1.6323
 4685TIP3    H235615   3.593   6.901   1.920 -0.2420 -2.0761  2.5223
 4686TIP3   OH235616   1.416   3.764   1.452 -0.4462  0.2352  0.5214
 4686TIP3    H135617   1.463   3.690   1.415 -0.5881  0.5041 -0.2103
 4686TIP3    H235618   1.459   3.841   1.414 -0.0598  0.5441  1.5611
 4687TIP3   OH235619   2.735   1.689   1.792  0.1770  0.6123  0.2317
 4687TIP3    H135620   2.691   1.706   1.875  0.3155  1.5043  0.1305
 4687TIP3    H235621   2.723   1.596   1.776 -1.6713  0.8450  0.2094
 4688TIP3   OH235622   5.326   3.519   6.890 -0.0003 -0.0513 -0.1226
 4688TIP3    H135623   5.379   3.440   6.882  1.3451  0.6971  1.0827
 4688TIP3    H235624   5.247   3.491   6.936 -0.0841 -0.9178 -0.7764
 4689TIP3   OH235625   6.984   1.262   0.762  1.1458 -0.2373  0.3539
 4689TIP3    H135626   6.974   1.326   0.832  1.4582  0.1840  0.0141
 4689TIP3    H235627   7.075   1.269   0.735  0.0587  2.5891 -2.9286
 4690TIP3   OH235628   2.780   3.253   0.919 -0.1788  0.0277 -0.2702
 4690TIP3    H135629   2.785   3.199   0.998  0.6989  0.1062 -0.2759
 4690TIP3    H235630   2.795   3.342   0.949  0.1387  0.0613 -0.5291
 4691TIP3   OH235631   7.099   0.331   2.092  0.2472 -0.0442  0.0235
 4691TIP3    H135632   7.129   0.240   2.088 -0.4097 -0.2093 -4.0602
 4691TIP3    H235633   7.173   0.382   2.059 -0.0774  0.6934  0.4353
 4692TIP3   OH235634   0.274   2.789   0.234  0.6638  0.5856  0.3087
 4692TIP3    H135635   0.189   2.760   0.267  0.7157  0.1035  0.0130
 4692TIP3    H235636   0.290   2.871   0.280 -1.0546  1.9061 -1.3233
 4693TIP3   OH235637   3.857   6.615   0.415 -0.6316  0.1084 -0.0215
 4693TIP3    H135638   3.776   6.571   0.391  0.0118 -1.3040  0.3624
 4693TIP3    H235639   3.861   6.610   0.510 -1.0925  1.9813  0.1133
 4694TIP3   OH235640   1.278   5.683   0.308  0.1916  0.5080  0.0699
 4694TIP3    H135641   1.286   5.730   0.225  1.6390  2.2568  1.1600
 4694TIP3    H235642   1.261   5.752   0.373 -1.2851 -0.8731  1.1830
 4695TIP3   OH235643   1.704   4.120   1.103 -0.6995  0.2186 -0.1973
 4695TIP3    H135644   1.789   4.079   1.119 -1.3853 -1.6312 -1.1052
 4695TIP3    H235645   1.724   4.207   1.069  0.8134  0.2725  0.8407
 4696TIP3   OH235646   3.692   0.412   0.074  0.1353  0.0810  0.1427
 4696TIP3    H135647   3.716   0.504   0.065  0.9385 -0.1566 -0.1891
 4696TIP3    H235648   3.616   0.401   0.017  0.5288  0.3583 -0.4437
 4697TIP3   OH235649   5.902   6.527   5.781  0.2779 -0.2760  0.0835
 4697TIP3    H135650   5.971   6.593   5.787  0.5920 -0.4734 -1.2861
 4697TIP3    H235651   5.908   6.494   5.692 -0.0753 -1.9534  0.6759
 4698TIP3   OH235652   6.026   3.391   1.977 -0.8397 -0.1444  0.3719
 4698TIP3    H135653   6.109   3.366   1.935 -1.6857 -0.2699 -1.2697
 4698TIP3    H235654   6.028   3.345   2.061 -0.6417 -2.7466 -0.9867
 4699TIP3   OH235655   0.754   0.045   7.359 -0.2652  0.4422 -0.2075
 4699TIP3    H135656   0.686   0.007   7.414 -0.1061  1.5555  0.8005
 4699TIP3    H235657   0.834  -0.001   7.384 -0.5975 -0.6684 -1.1861
 4700TIP3   OH235658   4.460   5.216   1.297 -0.4020 -0.3963  0.5321
 4700TIP3    H135659   4.463   5.213   1.202 -0.3510 -0.3977  0.5338
 4700TIP3    H235660   4.459   5.124   1.324 -0.2741 -0.3961  0.5370
 4701TIP3   OH235661   1.081   6.002   0.232  0.8437 -0.6689 -0.3684
 4701TIP3    H135662   1.032   6.054   0.169  0.4679 -1.1697 -0.4858
 4701TIP3    H235663   1.169   5.995   0.194  0.1030 -2.6087 -1.7895
 4702TIP3   OH235664   1.634   1.900   1.190 -0.1116 -0.0902 -0.2790
 4702TIP3    H135665   1.705   1.944   1.237 -0.0296 -0.1035 -0.3902
 4702TIP3    H235666   1.675   1.824   1.150  0.2251  0.9156 -1.8926
 4703TIP3   OH235667   1.804   0.493   0.951  0.0085  0.0601  0.2128
 4703TIP3    H135668   1.793   0.533   0.865  0.5334  0.4042  0.3030
 4703TIP3    H235669   1.828   0.566   1.008  0.5177 -0.3050  0.4711
 4704TIP3   OH235670   6.628   3.318   6.980 -0.4204 -0.1320 -0.0478
 4704TIP3    H135671   6.577   3.241   6.956 -1.9399  0.5841  0.8082
 4704TIP3    H235672   6.564   3.378   7.019  1.2134  0.4588  1.8080
 4705TIP3   OH235673   6.042   4.990   1.677 -0.1224  0.3435 -0.8442
 4705TIP3    H135674   5.954   4.995   1.640 -0.2051  1.0206 -0.5706
 4705TIP3    H235675   6.055   5.076   1.718 -0.0464 -0.3922  0.7131
 4706TIP3   OH235676   1.120   1.725   1.878 -0.0270 -0.0496  0.2333
 4706TIP3    H135677   1.066   1.716   1.957 -0.5591  1.9731  0.1182
 4706TIP3    H235678   1.184   1.792   1.900  0.0761  0.2370 -0.9043
 4707TIP3   OH235679   0.357   7.017   5.881 -0.0088  0.1397  0.2104
 4707TIP3    H135680   0.320   6.932   5.858  0.9304  0.3935 -2.2861
 4707TIP3    H235681   0.452   7.004   5.878  0.1452  1.3322 -0.4340
 4708TIP3   OH235682   1.828   2.585   7.445 -0.1038 -0.2826  0.6556
 4708TIP3    H135683   1.870   2.671   7.443 -0.0579 -0.2551  2.5087
 4708TIP3    H235684   1.762   2.590   7.376  0.6707  0.8302 -0.0294
 4709TIP3   OH235685   6.859   0.286   7.329 -0.1370 -0.0035 -0.2988
 4709TIP3    H135686   6.890   0.312   7.242 -0.1709 -1.6462 -0.8330
 4709TIP3    H235687   6.772   0.324   7.336 -0.8498 -1.3187 -1.7219
 4710TIP3   OH235688   2.307   0.906   1.909 -0.1623  0.2494 -0.2748
 4710TIP3    H135689   2.286   0.973   1.974  1.6675  1.1358 -0.5536
 4710TIP3    H235690   2.338   0.832   1.961  0.3565  0.6010 -0.0696
 4711TIP3   OH235691   1.107   2.063   1.531 -0.5704 -0.1475  0.0361
 4711TIP3    H135692   1.199   2.085   1.541 -0.7519  0.7266 -0.1350
 4711TIP3    H235693   1.102   1.969   1.547  0.1606  0.0161  1.3194
 4712TIP3   OH235694   6.730   0.417   6.875 -0.0121  0.1845 -0.0328
 4712TIP3    H135695   6.656   0.369   6.837 -0.4955  0.8543  0.0598
 4712TIP3    H235696   6.798   0.413   6.808 -0.3070  0.0014 -0.3253
 4713TIP3   OH235697   0.661   4.880   6.782 -0.5460 -0.1060 -0.0405
 4713TIP3    H135698   0.628   4.801   6.740 -2.7886  1.6440 -1.6514
 4713TIP3    H235699   0.647   4.865   6.875 -2.9126 -0.7384 -0.4766
 4714TIP3   OH235700   2.202   5.935   1.271 -0.4205  0.9211 -0.1624
 4714TIP3    H135701   2.272   5.992   1.238  1.2840  0.0961  1.9335
 4714TIP3    H235702   2.215   5.853   1.225 -1.2379  1.3784 -1.2236
 4715TIP3   OH235703   1.069   1.425   0.684 -0.0885  0.2782 -0.6172
 4715TIP3    H135704   1.112   1.453   0.765  0.0747  0.4974 -0.7810
 4715TIP3    H235705   0.975   1.435   0.703 -0.1870 -2.4245  0.5644
 4716TIP3   OH235706   6.782   1.751   0.582 -0.2870 -0.5127  0.3006
 4716TIP3    H135707   6.809   1.780   0.495  1.8018 -0.5525  0.9064
 4716TIP3    H235708   6.820   1.664   0.592 -0.6096 -0.5638  1.2074
 4717TIP3   OH235709   0.639   2.552   7.886 -0.3823  0.8175 -0.9547
 4717TIP3    H135710   0.732   2.565   7.902 -0.4526 -0.7773  1.0130
 4717TIP3    H235711   0.634   2.469   7.837 -0.7875  0.6422 -0.6196
 4718TIP3   OH235712   5.946   1.550   7.705  0.0954  0.0464  0.1182
 4718TIP3    H135713   5.882   1.479   7.696  0.0456  0.2419 -1.1514
 4718TIP3    H235714   5.979   1.541   7.794 -0.0989 -1.4164  0.0563
 4719TIP3   OH235715   6.398   3.587   0.807  0.4517 -0.3247 -0.1971
 4719TIP3    H135716   6.340   3.538   0.865  2.4518 -1.6409  0.7766
 4719TIP3    H235717   6.345   3.608   0.731 -1.9018  0.4239  1.5918
 4720TIP3   OH235718   1.741   5.202   7.673 -0.2515  0.5907  0.0905
 4720TIP3    H135719   1.699   5.150   7.741  0.1084  1.2781  0.8620
 4720TIP3    H235720   1.689   5.283   7.669 -1.3527 -0.1909 -1.7340
 4721TIP3   OH235721   0.280   0.068   7.976 -0.2983  0.4341 -0.2669
 4721TIP3    H135722   0.365   0.095   8.012  0.1113 -0.4746 -0.5257
 4721TIP3    H235723   0.223   0.143   7.990  0.4608  0.9293  0.2253
 4722TIP3   OH235724   3.702   3.338   7.218 -0.0739 -0.1780 -0.0323
 4722TIP3    H135725   3.758   3.310   7.145  0.0969 -0.5294  0.2261
 4722TIP3    H235726   3.738   3.422   7.245 -0.9252  0.5655 -1.1725
 4723TIP3   OH235727   2.755   2.088   1.341 -0.5998 -0.1753 -0.0228
 4723TIP3    H135728   2.814   2.044   1.279  0.4419 -0.6281  1.2694
 4723TIP3    H235729   2.754   2.031   1.418 -0.1670  1.4663  1.2216
 4724TIP3   OH235730   0.957   6.876   1.882 -0.1176  0.7634  0.4756
 4724TIP3    H135731   1.001   6.942   1.935 -1.0301  0.1989  1.9673
 4724TIP3    H235732   0.872   6.913   1.861  0.8441  1.6495 -1.9922
 4725TIP3   OH235733   2.629   2.921   1.349 -0.5121 -0.0140  0.0159
 4725TIP3    H135734   2.591   2.834   1.358  1.2997 -0.7480  0.7561
 4725TIP3    H235735   2.579   2.961   1.278 -1.1903 -1.7442 -0.5195
 4726TIP3   OH235736   6.817   2.569   7.773  0.6803 -0.2148  0.0672
 4726TIP3    H135737   6.737   2.535   7.814 -1.3736  3.3016 -0.7633
 4726TIP3    H235738   6.832   2.511   7.698 -1.0389 -1.0298  0.3188
 4727TIP3   OH235739   5.316   3.168   1.455 -0.4589  0.5029 -0.2241
 4727TIP3    H135740   5.377   3.132   1.520  0.4193  3.0548  0.4041
 4727TIP3    H235741   5.236   3.117   1.468  0.2419 -0.1873  1.7010
 4728TIP3   OH235742   4.265   0.495   0.115  0.0411 -0.1437  0.1440
 4728TIP3    H135743   4.257   0.541   0.199  0.8229  0.3274 -0.0294
 4728TIP3    H235744   4.174   0.479   0.088 -0.2072 -0.9988  1.4490
 4729TIP3   OH235745   2.391   4.579   0.259  0.0803 -0.2757  0.1483
 4729TIP3    H135746   2.433   4.611   0.179 -0.1613  0.7226  0.4163
 4729TIP3    H235747   2.457   4.592   0.327 -0.4962  0.9475  0.5032
 4730TIP3   OH235748   2.241   1.066   6.609  0.3773 -0.1367  0.3299
 4730TIP3    H135749   2.206   1.123   6.541 -0.7732 -0.3954  0.6941
 4730TIP3    H235750   2.331   1.096   6.621  0.2258  0.6735 -0.4751
 4731TIP3   OH235751   5.391   2.924   0.652 -0.0865 -0.2467  0.0399
 4731TIP3    H135752   5.354   3.011   0.666 -1.3812 -0.7124 -0.4267
 4731TIP3    H235753   5.319   2.873   0.614  0.7301 -1.4529  0.0883
 4732TIP3   OH235754   6.864   5.779   8.031 -0.0543  0.4435  0.6575
 4732TIP3    H135755   6.844   5.693   8.068  1.7478  0.5867  2.0452
 4732TIP3    H235756   6.823   5.841   8.092 -0.3047  0.5942  0.3362
 4733TIP3   OH235757   5.624   1.965   0.032  0.0356  0.3010 -0.3274
 4733TIP3    H135758   5.716   1.941   0.022 -0.0761 -0.1285 -0.3342
 4733TIP3    H235759   5.602   2.009  -0.050  0.5344  1.4011  0.1156
 4734TIP3   OH235760   6.063   6.373   1.464  0.1610 -0.5075 -0.2859
 4734TIP3    H135761   6.002   6.432   1.419 -0.8472 -1.6426 -0.4320
 4734TIP3    H235762   6.010   6.296   1.486  1.1892 -0.8929  0.8862
 4735TIP3   OH235763   5.310   0.731   7.706  0.1891 -0.4542 -0.4115
 4735TIP3    H135764   5.277   0.820   7.695 -2.2307 -1.2523  0.1114
 4735TIP3    H235765   5.373   0.738   7.778  0.8705  1.0252 -1.1257
 4736TIP3   OH235766   1.356   5.878   2.066 -0.3194 -0.1266 -0.4655
 4736TIP3    H135767   1.281   5.844   2.115 -0.9105  0.9002 -0.6498
 4736TIP3    H235768   1.318   5.941   2.005  0.8215  1.3042  0.2726
 4737TIP3   OH235769   3.403   1.025   0.784  0.2510 -0.1462 -0.3731
 4737TIP3    H135770   3.426   1.104   0.734 -1.5242 -0.4554 -1.7635
 4737TIP3    H235771   3.443   1.039   0.870  2.4127  0.9283 -1.5042
 4738TIP3   OH235772   2.523   1.129   6.670 -0.2262 -0.3319  0.4682
 4738TIP3    H135773   2.586   1.104   6.738  0.4417 -0.2532 -0.1106
 4738TIP3    H235774   2.574   1.127   6.589 -0.7124  0.7526  0.1254
 4739TIP3   OH235775   3.462   3.690   2.462 -0.3903 -0.8184 -0.2511
 4739TIP3    H135776   3.453   3.603   2.423 -1.1840 -0.3224 -1.1908
 4739TIP3    H235777   3.504   3.742   2.393 -1.7333  0.0437 -0.4442
 4740TIP3   OH235778   0.077   3.162   0.880  0.1244  0.0321 -0.0119
 4740TIP3    H135779   0.070   3.168   0.785  2.5079  1.7945 -0.1345
 4740TIP3    H235780   0.047   3.247   0.912  0.5606 -0.0830  0.7175
 4741TIP3   OH235781   2.504   2.260   1.260  0.3164  0.1968 -0.5564
 4741TIP3    H135782   2.484   2.178   1.215 -1.3407  1.5032 -2.2669
 4741TIP3    H235783   2.448   2.259   1.338  0.2598 -0.2515 -0.5984
 4742TIP3   OH235784   6.744   4.377   7.663 -0.4388 -0.0693  0.4704
 4742TIP3    H135785   6.740   4.466   7.628  0.8118  0.0115  0.5101
 4742TIP3    H235786   6.686   4.378   7.739 -1.5446  0.3168 -0.3613
 4743TIP3   OH235787   5.102   5.081   7.384 -0.1481 -0.2886 -0.0846
 4743TIP3    H135788   5.153   5.129   7.450  0.7339  0.4910 -1.3160
 4743TIP3    H235789   5.131   5.117   7.300 -0.8453 -1.6687 -0.9380
 4744TIP3   OH235790   3.557   2.282   7.297 -0.1351  0.2465  0.0755
 4744TIP3    H135791   3.626   2.348   7.284 -1.0398  0.8885 -1.5859
 4744TIP3    H235792   3.574   2.217   7.229  0.2652 -0.8274  1.1983
 4745TIP3   OH235793   3.982   3.900   7.345 -0.1777 -0.4189  0.1369
 4745TIP3    H135794   3.922   3.863   7.410 -0.4836  0.0329  0.1148
 4745TIP3    H235795   4.066   3.858   7.363  0.2677  1.3472  2.2599
 4746TIP3   OH235796   3.579   2.529   7.872 -0.7963 -0.2288 -0.5902
 4746TIP3    H135797   3.543   2.441   7.886  0.1097 -0.7066 -1.2049
 4746TIP3    H235798   3.598   2.533   7.779  0.6143  0.0478 -0.3127
 4747TIP3   OH235799   2.319   0.533   7.249 -0.1042  0.0801 -0.0658
 4747TIP3    H135800   2.309   0.513   7.156 -0.0856  1.2142 -0.3143
 4747TIP3    H235801   2.391   0.596   7.252 -2.6278  3.0556  0.3320
 4748TIP3   OH235802   0.233   2.782   7.721 -0.1403 -0.7621 -0.2095
 4748TIP3    H135803   0.309   2.780   7.663 -0.5257  0.3744 -0.7819
 4748TIP3    H235804   0.247   2.858   7.777  0.2008 -1.8245  1.1887
 4749TIP3   OH235805   2.856   3.830   0.759 -0.3125  0.3036  0.4165
 4749TIP3    H135806   2.895   3.908   0.800 -0.0486  0.3422  0.0867
 4749TIP3    H235807   2.928   3.788   0.713 -1.1600  1.8354 -2.4679
 4750TIP3   OH235808   3.521   2.643   1.404  0.7450 -0.6491  0.2349
 4750TIP3    H135809   3.451   2.660   1.342  2.1325 -1.1622 -1.5077
 4750TIP3    H235810   3.481   2.590   1.473 -0.9407  0.4167  0.0867
 4751TIP3   OH235811   2.393   1.199   1.275 -0.5811 -0.3083 -0.6936
 4751TIP3    H135812   2.438   1.153   1.345  0.3683  0.9409 -0.4729
 4751TIP3    H235813   2.461   1.217   1.209 -0.6349  1.9157 -0.1899
 4752TIP3   OH235814   1.837   1.136   7.052 -0.2304  0.0885  0.3840
 4752TIP3    H135815   1.917   1.111   7.099 -0.3743 -0.9594  0.0796
 4752TIP3    H235816   1.808   1.056   7.008  0.1693  1.1638 -1.9145
 4753TIP3   OH235817   3.114   4.784   6.068  0.1911 -0.6535 -0.4162
 4753TIP3    H135818   3.129   4.691   6.047 -0.7629 -0.3646 -2.5763
 4753TIP3    H235819   3.026   4.802   6.033  0.0745  0.8838  0.6394
 4754TIP3   OH235820   2.462   5.904   7.720 -0.0928 -0.8565 -0.3399
 4754TIP3    H135821   2.486   5.970   7.655  1.1960 -0.3472  0.6392
 4754TIP3    H235822   2.367   5.914   7.730  0.3402  2.3849  1.4101
 4755TIP3   OH235823   0.764   4.378   0.871 -0.1464 -0.1217  0.5388
 4755TIP3    H135824   0.783   4.448   0.933  1.5203  1.4038 -1.5914
 4755TIP3    H235825   0.739   4.424   0.791 -0.9353 -2.0106 -0.3333
 4756TIP3   OH235826   6.903   2.303   0.466 -0.1738 -0.6926  0.1602
 4756TIP3    H135827   6.985   2.328   0.508  0.1514 -1.1765 -0.1954
 4756TIP3    H235828   6.865   2.387   0.438 -0.3403 -0.3699  1.3010
 4757TIP3   OH235829   6.890   3.188   0.190 -0.1804  0.2098  0.4329
 4757TIP3    H135830   6.893   3.105   0.142  1.4091  0.4726  0.0422
 4757TIP3    H235831   6.819   3.177   0.252 -0.5661 -1.1197 -0.2193
 4758TIP3   OH235832   2.488   4.473   6.771 -0.1045  0.3778  0.0459
 4758TIP3    H135833   2.536   4.419   6.708 -0.0009 -0.0967  0.5277
 4758TIP3    H235834   2.396   4.456   6.751 -0.0743  0.3972 -0.1155
 4759TIP3   OH235835   0.921   6.410   0.365 -0.1663 -0.1791  0.1579
 4759TIP3    H135836   0.872   6.457   0.297  1.1676  2.3015  0.8640
 4759TIP3    H235837   0.854   6.360   0.411 -1.3733 -0.3823 -1.7274
 4760TIP3   OH235838   1.602   3.689   0.018  0.0220  0.0280 -0.3505
 4760TIP3    H135839   1.578   3.611   0.068 -0.7242  0.3931 -0.1268
 4760TIP3    H235840   1.518   3.723  -0.013  0.4191  0.2553 -1.1746
 4761TIP3   OH235841   2.585   2.247   7.550  0.5189  0.0578 -0.0449
 4761TIP3    H135842   2.648   2.303   7.506  0.7703 -0.6582 -0.6026
 4761TIP3    H235843   2.615   2.158   7.533  0.3909 -0.2439  1.2387
 4762TIP3   OH235844   3.292   1.622   1.967 -0.5390 -0.2938 -0.2208
 4762TIP3    H135845   3.268   1.659   1.882  0.2339 -1.3927 -0.9394
 4762TIP3    H235846   3.386   1.605   1.959 -0.6563 -1.2953  0.5112
 4763TIP3   OH235847   2.886   0.527   7.561 -0.0020  0.1723 -0.3224
 4763TIP3    H135848   2.870   0.588   7.633 -1.3404  0.0883 -0.5247
 4763TIP3    H235849   2.919   0.582   7.490 -2.8875  1.0012 -1.1026
 4764TIP3   OH235850   4.937   3.746   6.784 -0.4897 -0.6767  0.1649
 4764TIP3    H135851   4.873   3.745   6.713 -0.4276 -1.5937  0.1150
 4764TIP3    H235852   5.022   3.740   6.741 -0.3639  0.6253  0.2287
 4765TIP3   OH235853   1.816   0.712   0.699 -0.4827 -0.6221 -0.7030
 4765TIP3    H135854   1.779   0.794   0.732 -2.2428 -2.1204  1.2382
 4765TIP3    H235855   1.910   0.729   0.692 -0.7300  1.3404  0.3382
 4766TIP3   OH235856   1.022   1.914   7.943 -0.4334 -0.5610 -0.0781
 4766TIP3    H135857   0.942   1.954   7.977 -0.2494 -0.5970  0.4106
 4766TIP3    H235858   1.069   1.884   8.022  1.2626  1.6907 -0.1763
 4767TIP3   OH235859   4.198   1.355   1.126  0.0732 -0.1234  0.0104
 4767TIP3    H135860   4.285   1.317   1.136  0.1945  0.2887  0.5877
 4767TIP3    H235861   4.215   1.448   1.111 -0.3402  0.6055  3.5812
 4768TIP3   OH235862   6.967   0.738   1.779 -0.5077  0.1478  0.0752
 4768TIP3    H135863   6.928   0.686   1.850 -2.3135 -0.4076 -1.2759
 4768TIP3    H235864   6.951   0.829   1.803 -1.2786 -0.0470  0.3006
 4769TIP3   OH235865   1.438   3.653   2.168  0.7148 -0.3728 -0.1204
 4769TIP3    H135866   1.490   3.589   2.216 -0.5538 -0.9455  0.4996
 4769TIP3    H235867   1.352   3.612   2.157  0.4645  0.4388 -1.3954
 4770TIP3   OH235868   2.349   3.234   8.036  0.1913 -0.4395  0.3994
 4770TIP3    H135869   2.302   3.182   8.102  0.8969  0.1104  1.3578
 4770TIP3    H235870   2.389   3.305   8.087 -0.5346  0.8834 -0.8591
 4771TIP3   OH235871   3.127   0.089   6.616  0.0895 -0.1719  0.0558
 4771TIP3    H135872   3.097   0.010   6.570  0.3947 -0.9454  1.1586
 4771TIP3    H235873   3.147   0.151   6.546  0.8030 -1.4243 -0.8771
 4772TIP3   OH235874   6.539   4.934   1.074  0.3889  0.3532  0.7009
 4772TIP3    H135875   6.526   4.933   0.980  0.8536 -0.2526  0.6372
 4772TIP3    H235876   6.633   4.919   1.085  0.3459  0.4816  1.2589
 4773TIP3   OH235877   4.749   2.560   6.552 -0.4172  0.5739 -0.2745
 4773TIP3    H135878   4.772   2.570   6.459  0.9195  0.9634  0.0853
 4773TIP3    H235879   4.765   2.467   6.571  0.3094  0.7206 -0.1715
 4774TIP3   OH235880   4.883   3.699   1.808  0.1509 -0.3818 -0.0778
 4774TIP3    H135881   4.963   3.687   1.758  0.0416 -1.3073 -0.0447
 4774TIP3    H235882   4.876   3.620   1.862 -0.5132 -0.0781  0.2965
 4775TIP3   OH235883   4.956   4.173   7.956  0.3053 -0.4391 -0.1508
 4775TIP3    H135884   4.875   4.124   7.959 -0.7417  1.2759  0.4349
 4775TIP3    H235885   5.022   4.114   7.991 -0.6160 -1.9599 -0.9477
 4776TIP3   OH235886   4.397   3.262   0.452 -0.4717  0.3251 -0.4169
 4776TIP3    H135887   4.318   3.315   0.439 -0.3316  0.7177  0.3217
 4776TIP3    H235888   4.380   3.212   0.531  0.1821  0.7151 -0.0248
 4777TIP3   OH235889   2.796   2.101   1.981  0.1143  0.1573 -0.3753
 4777TIP3    H135890   2.730   2.044   1.941 -1.4353  1.3474  0.4456
 4777TIP3    H235891   2.790   2.084   2.075 -1.2959  2.5878  0.0189
 4778TIP3   OH235892   2.457   2.202   1.883  0.1531 -0.1280 -0.1849
 4778TIP3    H135893   2.386   2.261   1.861 -0.4514 -0.4501  0.8358
 4778TIP3    H235894   2.502   2.245   1.956  1.8572  0.7292 -1.7012
 4779TIP3   OH235895   3.160   5.448   0.441  0.2829  0.3599  0.2028
 4779TIP3    H135896   3.201   5.365   0.414  0.1336  0.6506 -0.9488
 4779TIP3    H235897   3.231   5.511   0.440 -0.1642  0.8675 -1.8058
 4780TIP3   OH235898   3.065   2.920   7.599  0.4576  0.4195 -0.0187
 4780TIP3    H135899   3.033   3.009   7.583  0.8000  0.4882 -0.3391
 4780TIP3    H235900   3.090   2.888   7.512 -3.6526 -1.5736 -0.5772
 4781TIP3   OH235901   2.629   3.961   0.636 -0.6409 -0.2909 -0.4622
 4781TIP3    H135902   2.707   3.933   0.685  0.6945 -0.7868 -2.7710
 4781TIP3    H235903   2.580   4.014   0.698  2.2449  1.1893  0.6828
 4782TIP3   OH235904   2.693   1.139   6.439 -0.0130 -0.2662  0.2024
 4782TIP3    H135905   2.621   1.125   6.377  0.3912  0.3061 -0.4111
 4782TIP3    H235906   2.742   1.057   6.439 -1.1704 -0.9738  1.3010
 4783TIP3   OH235907   7.043   3.183   1.723  0.1845  0.3008 -0.0878
 4783TIP3    H135908   6.974   3.127   1.758  0.4687 -1.2551 -1.9299
 4783TIP3    H235909   6.996   3.259   1.687 -0.4984 -0.3804 -0.6452
 4784TIP3   OH235910   1.171   4.393   2.493  0.3353 -0.3575 -0.1126
 4784TIP3    H135911   1.209   4.339   2.423  0.5485 -0.3896  0.0276
 4784TIP3    H235912   1.202   4.481   2.475  1.1941 -0.5255  0.4960
 4785TIP3   OH235913   0.598   1.230   1.592 -0.3852 -0.1802 -0.4021
 4785TIP3    H135914   0.573   1.280   1.514  0.5705  0.5368 -0.2498
 4785TIP3    H235915   0.588   1.291   1.665  1.6416  0.0882 -0.3212
 4786TIP3   OH235916   2.517   1.848   2.708  0.2274 -0.0430  0.9104
 4786TIP3    H135917   2.546   1.813   2.792 -0.1495 -2.2376  0.1365
 4786TIP3    H235918   2.469   1.777   2.666 -1.3227  1.6620 -0.3335
 4787TIP3   OH235919   0.728   1.372   0.109  0.0312  0.0668 -0.0191
 4787TIP3    H135920   0.707   1.313   0.037 -0.7756  0.5198 -0.1598
 4787TIP3    H235921   0.691   1.330   0.186 -1.5579  0.9134 -0.2810
 4788TIP3   OH235922   5.599   3.265   0.242  0.1133 -0.1350 -0.1525
 4788TIP3    H135923   5.621   3.175   0.266  1.9577  0.5133  0.6226
 4788TIP3    H235924   5.607   3.267   0.147  3.0016 -0.0539  0.0561
 4789TIP3   OH235925   2.495   2.166   0.037 -0.1198  0.1052  0.6321
 4789TIP3    H135926   2.561   2.182   0.104  1.7167 -3.4349 -0.1969
 4789TIP3    H235927   2.420   2.130   0.085  1.3225 -2.7616  0.8609
 4790TIP3   OH235928   2.072   1.407   1.872  0.3986 -0.0838  0.3621
 4790TIP3    H135929   2.016   1.345   1.918  1.1064 -1.3604 -0.4644
 4790TIP3    H235930   2.161   1.376   1.890  0.7029 -0.4551 -1.6087
 4791TIP3   OH235931   0.061   4.514   8.077 -0.5395 -0.0150 -0.3494
 4791TIP3    H135932   0.094   4.575   8.143 -1.6009 -1.2016  1.3200
 4791TIP3    H235933   0.106   4.540   7.996  1.3789  0.9658  0.9821
 4792TIP3   OH235934   2.596   4.167   0.865 -0.0567 -0.0668  0.2603
 4792TIP3    H135935   2.549   4.233   0.813  1.6439 -0.1481 -1.4082
 4792TIP3    H235936   2.669   4.214   0.904 -0.7009 -0.2566  1.7154
 4793TIP3   OH235937   1.876   0.972   1.127  0.7457  0.2713  0.0430
 4793TIP3    H135938   1.831   0.892   1.153 -0.6485  0.9597 -0.1880
 4793TIP3    H235939   1.923   0.948   1.047  2.0950 -0.8721  1.1552
 4794TIP3   OH235940   1.119   2.920   0.733 -0.2985  0.0320  0.1656
 4794TIP3    H135941   1.210   2.936   0.761 -0.4960  2.0119 -0.2577
 4794TIP3    H235942   1.091   3.003   0.695 -1.8138 -1.0254 -1.0700
 4795TIP3   OH235943   2.190   1.468   1.168 -0.4125 -0.0161 -0.6084
 4795TIP3    H135944   2.163   1.397   1.110 -0.2280  0.4475 -1.2660
 4795TIP3    H235945   2.257   1.516   1.119 -0.1157  0.2700  0.0609
 4796TIP3   OH235946   5.660   3.515   7.235  0.2924 -0.0706 -0.2694
 4796TIP3    H135947   5.578   3.467   7.233  0.5975 -0.5749 -0.9431
 4796TIP3    H235948   5.650   3.584   7.169  0.4270 -0.1604 -0.3843
 4797TIP3   OH235949   6.559   0.866   1.354 -0.3830 -0.2418  0.4662
 4797TIP3    H135950   6.495   0.799   1.331 -2.0900  1.2136  0.8416
 4797TIP3    H235951   6.532   0.943   1.303  1.3005  0.2935  0.3481
 4798TIP3   OH235952   4.227   3.963   1.887 -0.2142 -0.6342 -0.1602
 4798TIP3    H135953   4.286   3.934   1.817 -0.6842 -0.8180 -0.4863
 4798TIP3    H235954   4.200   4.051   1.859  0.9194 -0.0146  0.6424
 4799TIP3   OH235955   2.770   4.837   1.019 -0.4713  0.2390  0.1151
 4799TIP3    H135956   2.689   4.790   1.039 -0.3428 -0.0001  0.0723
 4799TIP3    H235957   2.741   4.926   0.998 -0.7457  0.0932 -0.1281
 4800TIP3   OH235958   1.491   0.959   1.114 -0.3946 -0.2137  0.3870
 4800TIP3    H135959   1.535   1.008   1.044 -1.1466  0.0570  0.0959
 4800TIP3    H235960   1.447   0.887   1.068  0.7773 -1.2144  0.8239
 4801TIP3   OH235961   1.270   2.800   1.832  0.4894  0.1561  0.4436
 4801TIP3    H135962   1.179   2.799   1.860  0.4453 -0.5947  0.2945
 4801TIP3    H235963   1.320   2.771   1.909  0.6543  1.0576  0.6839
 4802TIP3   OH235964   4.026   0.217   1.383  0.6269 -0.2194  0.1827
 4802TIP3    H135965   4.008   0.214   1.289 -0.6322  1.0066  0.3591
 4802TIP3    H235966   3.964   0.283   1.417  1.0016 -0.7163  1.8761
 4803TIP3   OH235967   3.883   2.346   6.551 -0.3172  0.1618  0.2584
 4803TIP3    H135968   3.829   2.267   6.557  1.8604 -1.3263  0.7517
 4803TIP3    H235969   3.844   2.405   6.615 -2.0084 -0.4729 -0.1462
 4804TIP3   OH235970   6.843   2.347   1.386  0.3058  0.3766  0.0536
 4804TIP3    H135971   6.843   2.409   1.460  0.2437  1.5414 -0.9102
 4804TIP3    H235972   6.753   2.350   1.353  0.7146  0.9692 -0.9974
 4805TIP3   OH235973   5.115   2.251   1.328 -0.4996 -0.0568  0.6176
 4805TIP3    H135974   5.091   2.162   1.354  1.3366 -0.7181  0.1748
 4805TIP3    H235975   5.205   2.261   1.360  0.9176  0.0277 -3.1230
 4806TIP3   OH235976   3.585   3.190   7.693  0.5172  0.8111  0.5025
 4806TIP3    H135977   3.518   3.200   7.625  0.3074  2.2624  0.9117
 4806TIP3    H235978   3.538   3.152   7.767  0.2442  1.3729  0.6208
 4807TIP3   OH235979   5.900   4.769   6.695  0.0628 -0.5485 -0.4745
 4807TIP3    H135980   5.824   4.783   6.637 -0.2890 -0.7018 -0.0513
 4807TIP3    H235981   5.975   4.774   6.636 -0.2480 -0.0077 -0.8407
 4808TIP3   OH235982   2.538   1.883   7.662  0.9426 -0.1222 -0.1281
 4808TIP3    H135983   2.624   1.916   7.637  1.5432 -0.1614  1.8108
 4808TIP3    H235984   2.545   1.788   7.653  0.8204 -0.0755 -0.7748
 4809TIP3   OH235985   5.634   1.599   1.312 -0.3938  0.4862 -0.2240
 4809TIP3    H135986   5.567   1.610   1.380  1.6255 -0.5884  2.0314
 4809TIP3    H235987   5.700   1.665   1.333  0.2105  0.2054 -1.2200
 4810TIP3   OH235988   1.840   3.272   2.334  0.0364  0.1094  0.0752
 4810TIP3    H135989   1.913   3.227   2.291  0.8731  0.1952  1.3764
 4810TIP3    H235990   1.875   3.358   2.358 -0.8709  0.6172 -0.3632
 4811TIP3   OH235991   1.573   2.707   1.349  0.2663 -0.0313 -0.5497
 4811TIP3    H135992   1.564   2.784   1.405  2.9557 -0.6016  0.7448
 4811TIP3    H235993   1.555   2.633   1.405 -0.3129 -0.4646 -1.2928
 4812TIP3   OH235994   4.456   4.658   6.828  0.1061  0.1536 -0.3883
 4812TIP3    H135995   4.473   4.701   6.745  0.1223 -0.5203 -0.7334
 4812TIP3    H235996   4.381   4.705   6.864 -0.1361  0.2039 -0.9574
 4813TIP3   OH235997   4.468   0.699   6.578  0.0804  0.0374 -0.5342
 4813TIP3    H135998   4.425   0.783   6.596 -0.8500 -0.9872  2.3569
 4813TIP3    H235999   4.552   0.704   6.623  0.2151 -0.4292 -0.7255
 4814TIP3   OH236000   2.866   3.183   1.905  0.0478  0.2256 -0.2423
 4814TIP3    H136001   2.822   3.185   1.990 -2.4150  3.0218 -1.4989
 4814TIP3    H236002   2.879   3.090   1.887 -1.6919 -0.5142  2.0512
 4815TIP3   OH236003   3.436   5.140   6.749 -0.2572 -0.1938 -0.2142
 4815TIP3    H136004   3.356   5.177   6.711 -0.6735 -0.4799  0.3704
 4815TIP3    H236005   3.463   5.072   6.687 -0.0954  0.3527 -0.7474
 4816TIP3   OH236006   2.819   2.508   2.183  0.0896  0.6359  0.7927
 4816TIP3    H136007   2.786   2.524   2.271  0.2893  2.5599  0.5411
 4816TIP3    H236008   2.779   2.576   2.129  1.4060  0.6116 -0.2595
 4817TIP3   OH236009   2.144   0.416   6.119  0.2676  0.1663  0.1501
 4817TIP3    H136010   2.230   0.375   6.115 -0.4459 -1.4038  0.7293
 4817TIP3    H236011   2.135   0.460   6.035  1.5637  0.2020  0.0186
 4818TIP3   OH236012   1.888   2.780   0.507  0.1732  0.4148  0.1654
 4818TIP3    H136013   1.942   2.712   0.468 -1.4707 -1.1608  0.5881
 4818TIP3    H236014   1.822   2.733   0.557 -0.0199  2.3472  1.7933
 4819TIP3   OH236015   2.512   0.538   0.093 -0.1956 -0.2443 -0.2307
 4819TIP3    H136016   2.505   0.630   0.067 -0.7189 -0.8512 -2.3555
 4819TIP3    H236017   2.583   0.502   0.040 -0.9122 -1.3917 -0.4527
 4820TIP3   OH236018   2.338   4.936   1.451 -0.4288 -0.0758  0.6520
 4820TIP3    H136019   2.405   4.874   1.423  0.2737 -0.0101  2.1785
 4820TIP3    H236020   2.284   4.887   1.513 -0.8845  0.3337  0.5808
 4821TIP3   OH236021   1.713   6.843   6.936 -0.0068  0.4084  0.4487
 4821TIP3    H136022   1.674   6.795   6.862 -0.1061  0.7067  0.3045
 4821TIP3    H236023   1.646   6.838   7.005  0.1082  0.0836  0.5355
 4822TIP3   OH236024   2.947   1.879   7.804  0.4182 -0.3797 -0.3349
 4822TIP3    H136025   3.043   1.875   7.800  0.5908  2.6459 -0.8382
 4822TIP3    H236026   2.929   1.942   7.875 -1.1375  0.4305 -1.4249
 4823TIP3   OH236027   2.950   3.719   1.332 -0.1591  0.1696  0.2158
 4823TIP3    H136028   2.980   3.784   1.268 -0.2930  1.4605  1.4180
 4823TIP3    H236029   3.027   3.666   1.350 -0.1559 -0.2977 -1.1015
 4824TIP3   OH236030   4.745   1.025   1.890  0.0734 -0.3102 -0.4338
 4824TIP3    H136031   4.705   0.964   1.952  1.9341 -0.0118  1.0965
 4824TIP3    H236032   4.781   0.969   1.821  2.0008 -1.0104  1.0900
 4825TIP3   OH236033   0.321   5.094   1.509 -0.4154 -0.2712 -0.2906
 4825TIP3    H136034   0.388   5.046   1.559  0.1470 -0.8616 -1.5818
 4825TIP3    H236035   0.267   5.025   1.469 -2.3769  0.2038  1.4726
 4826TIP3   OH236036   6.288   1.690   0.654 -0.1515  0.0961 -0.2991
 4826TIP3    H136037   6.316   1.716   0.567 -0.7891  0.9939 -0.2383
 4826TIP3    H236038   6.359   1.719   0.712 -0.8916  1.7958 -0.2213
 4827TIP3   OH236039   5.718   1.098   1.379  0.1412  0.0509  0.4674
 4827TIP3    H136040   5.706   1.192   1.366  0.4708  0.0431  0.1006
 4827TIP3    H236041   5.631   1.061   1.367  0.2537  0.1624 -0.7080
 4828TIP3   OH236042   6.325   1.536   7.749 -0.1551  0.1433  0.5527
 4828TIP3    H136043   6.313   1.443   7.731 -0.4712  0.0410  1.3111
 4828TIP3    H236044   6.349   1.541   7.841 -2.5438  1.0121  1.1630
 4829TIP3   OH236045   6.035   4.759   7.908  0.6260  0.2892 -0.3691
 4829TIP3    H136046   6.053   4.669   7.883 -0.8796 -0.3860  0.8702
 4829TIP3    H236047   5.942   4.771   7.892 -0.1080  0.2684  3.4148
 4830TIP3   OH236048   3.484   1.142   6.942 -0.4979  0.3418 -0.0740
 4830TIP3    H136049   3.528   1.084   6.880 -3.0566 -1.4071 -0.3233
 4830TIP3    H236050   3.524   1.122   7.027 -0.6351 -1.0270 -0.3293
 4831TIP3   OH236051   5.205   1.086   0.758 -0.5252  0.2396  0.0195
 4831TIP3    H136052   5.269   1.153   0.734  0.3223  0.0936  1.8300
 4831TIP3    H236053   5.120   1.128   0.744 -0.0229  1.0468 -0.6752
 4832TIP3   OH236054   3.345   0.403   7.218 -0.1387  0.0607 -0.0123
 4832TIP3    H136055   3.295   0.475   7.179  0.2078 -0.1148 -0.7946
 4832TIP3    H236056   3.414   0.446   7.268 -1.7489  0.3378  2.0386
 4833TIP3   OH236057   2.218   2.609   0.701 -0.5621  1.0662 -0.4451
 4833TIP3    H136058   2.156   2.609   0.628  0.2367  2.4662 -1.1502
 4833TIP3    H236059   2.241   2.517   0.713 -3.5603  0.3867  0.5357
 4834TIP3   OH236060   1.728   5.574   0.407 -0.2013 -0.3450  0.3619
 4834TIP3    H136061   1.760   5.656   0.370 -1.5600  0.3899  0.7700
 4834TIP3    H236062   1.657   5.601   0.466  0.1415 -1.7114  1.4279
 4835TIP3   OH236063   3.284   2.629   0.229 -0.9224 -0.1256 -0.1079
 4835TIP3    H136064   3.285   2.574   0.307 -0.7473 -0.5299 -0.3932
 4835TIP3    H236065   3.350   2.590   0.171 -0.1261  0.9385  0.0675
 4836TIP3   OH236066   6.360   1.187   0.285  0.4776 -0.0982 -0.0845
 4836TIP3    H136067   6.394   1.242   0.355 -0.6853 -0.4244  0.7626
 4836TIP3    H236068   6.276   1.155   0.319 -0.9863  1.2124 -2.3431
 4837TIP3   OH236069   1.475   2.155   7.643  0.3069 -0.1928 -0.5064
 4837TIP3    H136070   1.404   2.185   7.701  0.8127 -1.7894  0.9592
 4837TIP3    H236071   1.430   2.104   7.576 -0.1440  0.5675 -0.7947
 4838TIP3   OH236072   1.396   1.007   2.233  0.3781  0.1908  0.3647
 4838TIP3    H136073   1.333   1.067   2.193  0.9562  0.3860 -0.2529
 4838TIP3    H236074   1.345   0.927   2.249 -0.1276  0.4840  0.2377
 4839TIP3   OH236075   5.631   3.016   7.438  0.1201 -0.6424 -0.6419
 4839TIP3    H136076   5.705   2.992   7.382  0.6469 -0.1737 -0.1582
 4839TIP3    H236077   5.668   3.015   7.527 -0.0725  1.0622 -0.5324
 4840TIP3   OH236078   5.413   1.019   0.536  0.5971 -0.9526  0.0048
 4840TIP3    H136079   5.430   1.110   0.513 -0.8033 -0.6730  0.0270
 4840TIP3    H236080   5.470   1.001   0.610  0.0719  0.2436  0.7006
 4841TIP3   OH236081   2.371   1.819   6.799 -0.1957 -0.0968 -0.3061
 4841TIP3    H136082   2.291   1.791   6.843 -0.0034  0.0067  0.1022
 4841TIP3    H236083   2.342   1.842   6.710 -0.8285  1.1591  0.2245
 4842TIP3   OH236084   2.059   0.647   6.257  0.7357 -0.5021 -0.0343
 4842TIP3    H136085   2.123   0.577   6.247  1.0962 -0.4810  1.9347
 4842TIP3    H236086   2.110   0.724   6.283  0.0772 -0.1483  0.2381
 4843TIP3   OH236087   2.850   3.140   6.515  0.5875 -0.0004  0.2071
 4843TIP3    H136088   2.762   3.127   6.480  0.1294  1.9878  0.5473
 4843TIP3    H236089   2.907   3.130   6.439 -0.1470  1.1409 -0.5318
 4844TIP3   OH236090   2.539   2.649   1.320  0.0029 -0.0385 -0.4126
 4844TIP3    H136091   2.487   2.581   1.277  1.5866 -1.5770  0.0921
 4844TIP3    H236092   2.606   2.602   1.369  0.5886  1.8526  0.6586
 4845TIP3   OH236093   2.280   2.338   1.410 -0.5281 -0.1311 -0.1332
 4845TIP3    H136094   2.191   2.374   1.409 -0.4824 -0.0136  0.2274
 4845TIP3    H236095   2.292   2.305   1.499 -0.2267 -0.1966 -0.1975
 4846TIP3   OH236096   3.198   3.555   1.413  0.2418 -0.3373  0.1018
 4846TIP3    H136097   3.162   3.525   1.497 -0.2478 -0.2748 -0.0826
 4846TIP3    H236098   3.278   3.601   1.437  0.6106 -1.1441  0.4533
 4847TIP3   OH236099   0.990   3.582   1.741  0.1554 -0.3604 -0.0777
 4847TIP3    H136100   1.016   3.613   1.828 -0.8151  0.3168 -0.0186
 4847TIP3    H236101   1.063   3.604   1.684  0.9466 -1.1208  0.6276
 4848TIP3   OH236102   5.027   4.318   7.321 -0.0349 -0.5074 -0.5587
 4848TIP3    H136103   5.034   4.323   7.416 -0.0417 -1.1646 -0.5215
 4848TIP3    H236104   5.031   4.409   7.291  0.4450 -0.3375  0.0330
 4849TIP3   OH236105   3.022   1.709   6.471  0.3019  0.4634  0.1208
 4849TIP3    H136106   3.058   1.775   6.530  0.2733  0.9549 -0.4155
 4849TIP3    H236107   3.069   1.629   6.494 -0.8318  0.2890  1.8971
 4850TIP3   OH236108   4.675   2.289   8.009 -0.4920 -0.7766 -0.1977
 4850TIP3    H136109   4.618   2.353   8.053  1.3833 -0.1185  1.3450
 4850TIP3    H236110   4.649   2.205   8.046 -1.4569 -0.6533 -0.5861
 4851TIP3   OH236111   2.420   3.062   2.025  0.1209 -0.3018 -0.6938
 4851TIP3    H136112   2.464   2.986   1.988 -1.6448 -1.4738 -0.4582
 4851TIP3    H236113   2.382   3.107   1.950  2.4308  1.2278 -1.0001
 4852TIP3   OH236114   5.884   2.250   7.692 -0.2738 -0.2264  0.1657
 4852TIP3    H136115   5.945   2.293   7.752  1.1916 -0.2064 -1.3151
 4852TIP3    H236116   5.868   2.164   7.733 -0.3331  0.2880  1.2481
 4853TIP3   OH236117   0.556   0.050   1.306  0.3281 -0.2801  0.3763
 4853TIP3    H136118   0.525  -0.007   1.235 -0.3245 -0.4591  0.7961
 4853TIP3    H236119   0.476   0.089   1.342  0.8434  1.5842 -0.4774
 4854TIP3   OH236120   2.865   4.602   0.836 -0.0820  0.0317  0.1495
 4854TIP3    H136121   2.777   4.570   0.821  0.2528  0.0498 -2.0146
 4854TIP3    H236122   2.918   4.564   0.766  1.8631 -0.8323  2.0151
 4855TIP3   OH236123   1.357   2.996   1.442 -0.1327  0.3816 -0.5139
 4855TIP3    H136124   1.308   3.004   1.524  2.5385  2.3684  0.9624
 4855TIP3    H236125   1.390   2.907   1.442 -0.1423  0.3786  0.5655
 4856TIP3   OH236126   7.004   5.619   1.275  0.4990  0.6183 -0.1362
 4856TIP3    H136127   6.941   5.565   1.323 -0.5738  2.7159  0.8571
 4856TIP3    H236128   7.060   5.657   1.343  1.2307  0.7807 -0.8258
 4857TIP3   OH236129   3.925   1.726   1.459  0.2909 -0.1580 -0.0233
 4857TIP3    H136130   3.889   1.771   1.536 -0.3613  1.0856 -1.0400
 4857TIP3    H236131   3.909   1.633   1.477  0.5537  0.0762  1.5450
 4858TIP3   OH236132   0.150   2.535   7.598 -0.1665 -0.2749  0.1539
 4858TIP3    H136133   0.148   2.630   7.598  1.9129 -0.1959 -0.6572
 4858TIP3    H236134   0.235   2.512   7.634  0.0224 -1.7709 -1.1484
 4859TIP3   OH236135   3.737   6.832   0.286  0.1060  0.1258 -0.1120
 4859TIP3    H136136   3.726   6.771   0.214 -0.4992  0.4718 -0.3144
 4859TIP3    H236137   3.810   6.797   0.336  1.0771  0.3427 -1.3601
 4860TIP3   OH236138   2.706   3.022   6.913  0.1597  0.4784 -0.2568
 4860TIP3    H136139   2.786   3.027   6.860 -0.1189 -0.8056 -0.8148
 4860TIP3    H236140   2.674   3.113   6.916  0.3816  0.6429 -1.9818
 4861TIP3   OH236141   0.288   0.576   0.999 -0.1148  0.4087  0.0245
 4861TIP3    H136142   0.327   0.513   1.059  0.6437  0.0104 -0.8617
 4861TIP3    H236143   0.363   0.627   0.967 -0.6559  1.3877  0.3146
 4862TIP3   OH236144   1.394   1.203   7.564  0.2317 -0.2202  0.3610
 4862TIP3    H136145   1.388   1.255   7.644 -0.0927  1.1147 -0.5190
 4862TIP3    H236146   1.303   1.183   7.542  0.3091 -0.4270  0.2304
 4863TIP3   OH236147   1.468   1.170   6.889  0.2470 -0.3377 -0.0972
 4863TIP3    H136148   1.383   1.126   6.882  1.1152 -2.2905  1.2418
 4863TIP3    H236149   1.532   1.099   6.890  1.6869  0.9152  2.5357
 4864TIP3   OH236150   1.540   1.820   7.502 -0.1620 -0.7640 -0.1295
 4864TIP3    H136151   1.451   1.857   7.506 -1.3659 -3.5588 -0.0834
 4864TIP3    H236152   1.553   1.800   7.410  0.4539 -0.3241 -0.1391
 4865TIP3   OH236153   2.622   1.755   6.995  0.4504 -0.3427  0.3128
 4865TIP3    H136154   2.663   1.732   6.911 -1.2831 -0.2812 -0.5851
 4865TIP3    H236155   2.549   1.813   6.971 -0.8879 -1.3937  1.7337
 4866TIP3   OH236156   2.450   1.780   0.597  0.3421  0.7585 -0.0760
 4866TIP3    H136157   2.481   1.858   0.643  0.1196  0.3160  0.8437
 4866TIP3    H236158   2.358   1.798   0.579  0.3609  0.8229 -0.1053
 4867TIP3   OH236159   0.150   2.302   0.040 -0.4229 -0.4511 -0.0441
 4867TIP3    H136160   0.228   2.351   0.017 -0.9584  0.8107  0.7720
 4867TIP3    H236161   0.086   2.324  -0.028 -0.9802  0.8008  0.8478
 4868TIP3   OH236162   6.973   2.638   1.679  0.3662 -0.1967  0.1339
 4868TIP3    H136163   6.979   2.630   1.774 -0.2042 -2.6379 -0.0106
 4868TIP3    H236164   6.889   2.598   1.656  1.2875 -1.2582 -1.5561
 4869TIP3   OH236165   5.665   3.308   0.893 -0.3467  0.1448  0.2901
 4869TIP3    H136166   5.679   3.372   0.823 -2.5885  0.3367 -0.0303
 4869TIP3    H236167   5.657   3.224   0.848 -3.1419  0.4423  0.1184
 4870TIP3   OH236168   2.966   1.986   1.192 -0.5082 -0.1078 -0.3401
 4870TIP3    H136169   2.984   1.895   1.170 -0.4926 -0.4996  1.2641
 4870TIP3    H236170   2.988   2.034   1.112  2.8412 -1.1179 -0.1139
 4871TIP3   OH236171   1.202   4.432   1.440  0.1861 -0.6259  0.2948
 4871TIP3    H136172   1.224   4.519   1.406  0.2986 -0.7744 -0.0129
 4871TIP3    H236173   1.279   4.405   1.489  0.2961 -0.7136  0.0726
 4872TIP3   OH236174   5.449   0.378   0.293 -0.2871  0.7131 -0.4176
 4872TIP3    H136175   5.478   0.391   0.384  0.1278 -0.1065 -0.4300
 4872TIP3    H236176   5.513   0.426   0.240  0.4665 -0.2258 -0.3782
 4873TIP3   OH236177   2.705   1.900   1.619  0.2940 -0.1617 -0.6843
 4873TIP3    H136178   2.762   1.976   1.633  1.8964 -1.4644 -0.0434
 4873TIP3    H236179   2.749   1.828   1.664 -0.9870 -1.5910 -1.6729
 4874TIP3   OH236180   0.704   3.616   0.994  0.9291 -0.0147  0.1564
 4874TIP3    H136181   0.786   3.628   1.043 -0.0820  2.1639  1.3734
 4874TIP3    H236182   0.637   3.657   1.049 -0.4197  1.4791 -2.5170
 4875TIP3   OH236183   3.195   6.536   0.670 -0.0638 -0.0863  0.1768
 4875TIP3    H136184   3.258   6.603   0.696  1.2105 -0.8509 -0.8269
 4875TIP3    H236185   3.250   6.462   0.642 -1.4280 -1.2317  0.4837
 4876TIP3   OH236186   1.084   6.270   1.111 -0.0001 -0.3104 -0.1202
 4876TIP3    H136187   1.164   6.280   1.060  0.9027  2.1477  1.6858
 4876TIP3    H236188   1.055   6.359   1.129 -1.5396 -1.1353  1.7522
 4877TIP3   OH236189   1.605   0.916   7.814 -0.0816  0.6480  0.0403
 4877TIP3    H136190   1.587   0.846   7.877 -2.3137  3.8501  3.1502
 4877TIP3    H236191   1.697   0.938   7.828  0.0926 -0.3136  0.4454
 4878TIP3   OH236192   3.111   3.042   7.260 -0.1279 -0.4400 -0.1952
 4878TIP3    H136193   3.056   3.052   7.338  1.4776  1.2447  0.7592
 4878TIP3    H236194   3.062   3.085   7.190 -1.1765 -1.2075  0.0405
 4879TIP3   OH236195   4.344   3.500   7.557  0.0468  0.2677  0.1439
 4879TIP3    H136196   4.346   3.460   7.644  1.6682  0.7145  0.3149
 4879TIP3    H236197   4.341   3.426   7.496 -1.0076 -0.0451  0.5631
 4880TIP3   OH236198   4.202   2.375   0.063  0.2714 -0.5646  0.1368
 4880TIP3    H136199   4.260   2.324   0.006 -1.5242  0.8221 -3.0446
 4880TIP3    H236200   4.246   2.458   0.075 -0.5226  0.1224 -1.4765
 4881TIP3   OH236201   2.886   2.306   8.089 -0.6302 -0.0097 -0.3480
 4881TIP3    H136202   2.891   2.369   8.017 -1.6676 -0.4414 -0.7912
 4881TIP3    H236203   2.818   2.341   8.146  0.1391  0.2926  0.4012
 4882TIP3   OH236204   2.908   3.669   1.708 -0.5719  0.4951  0.4818
 4882TIP3    H136205   2.973   3.623   1.656  0.5113  2.6262 -0.1355
 4882TIP3    H236206   2.925   3.640   1.798  2.7092  2.5795  0.6398
 4883TIP3   OH236207   2.966   2.484   7.492 -0.2216 -0.2887  0.0281
 4883TIP3    H136208   3.008   2.424   7.431 -0.9808  0.5041 -1.3087
 4883TIP3    H236209   3.038   2.533   7.531  0.2916 -1.0026 -0.0305
 4884TIP3   OH236210   4.404   2.001   7.244 -0.0152  0.1018 -0.2969
 4884TIP3    H136211   4.450   1.976   7.164  0.5808 -0.5231  0.2396
 4884TIP3    H236212   4.437   1.941   7.311  1.2098  2.1217  0.9447
 4885TIP3   OH236213   4.898   5.866   1.357 -0.6183  0.3712 -0.3868
 4885TIP3    H136214   4.937   5.828   1.436 -0.3313  1.1426 -0.1571
 4885TIP3    H236215   4.972   5.906   1.311 -0.8543  0.2825 -0.8405
 4886TIP3   OH236216   3.247   3.374   6.706  0.4168 -0.0686  0.4879
 4886TIP3    H136217   3.283   3.462   6.705 -0.0125  0.1568  2.7325
 4886TIP3    H236218   3.157   3.384   6.735 -0.5814 -0.9726 -2.0917
 4887TIP3   OH236219   3.013   3.410   0.355  0.6569  0.1226 -0.2916
 4887TIP3    H136220   2.978   3.448   0.273 -1.0803  0.8914  0.7692
 4887TIP3    H236221   3.000   3.480   0.420  0.2369 -1.1854  1.0433
 4888TIP3   OH236222   6.428   5.765   0.242 -0.2310  0.0657  0.6796
 4888TIP3    H136223   6.453   5.674   0.224 -0.1781  0.1808  0.1691
 4888TIP3    H236224   6.438   5.809   0.158 -0.5767  0.4723  0.8552
 4889TIP3   OH236225   3.578   1.678   1.534 -0.3995 -0.0764  0.1828
 4889TIP3    H136226   3.658   1.723   1.560 -0.9861  0.4708  1.0814
 4889TIP3    H236227   3.521   1.685   1.611 -0.7366 -1.8093  0.1031
 4890TIP3   OH236228   1.263   1.559   0.885  0.0351 -0.6444 -0.2830
 4890TIP3    H136229   1.328   1.587   0.821  0.8815  0.4167  0.9948
 4890TIP3    H236230   1.287   1.469   0.907 -0.6928 -1.2644 -1.9677
 4891TIP3   OH236231   4.179   1.077   0.549  0.4540  0.2241  0.1772
 4891TIP3    H136232   4.203   1.004   0.606  2.6975  0.5137 -0.3634
 4891TIP3    H236233   4.126   1.037   0.480  2.4297 -1.0932 -0.6313
 4892TIP3   OH236234   0.391   2.450   0.322  0.0037  0.6382 -0.2280
 4892TIP3    H136235   0.299   2.472   0.336 -0.3742 -0.6818 -0.5682
 4892TIP3    H236236   0.400   2.362   0.360  1.9949  2.1985  3.1317
 4893TIP3   OH236237   3.681   4.433   0.882  0.2040  0.4904 -0.6290
 4893TIP3    H136238   3.624   4.356   0.885 -0.3802  0.9163 -0.6071
 4893TIP3    H236239   3.690   4.459   0.974  0.9473  0.0557 -0.5748
 4894TIP3   OH236240   5.922   4.398   0.161 -0.3464 -0.2510 -0.5652
 4894TIP3    H136241   5.956   4.309   0.169 -0.6278 -0.3743 -0.7287
 4894TIP3    H236242   5.888   4.418   0.248  1.0628  0.2530 -0.1214
 4895TIP3   OH236243   0.560   2.265   7.077  0.2691  0.1677 -0.0052
 4895TIP3    H136244   0.602   2.253   7.162  1.3919  1.1686 -0.4074
 4895TIP3    H236245   0.469   2.283   7.098  0.3487 -0.4574  0.9477
 4896TIP3   OH236246   6.044   1.187   7.830 -0.3587  0.4606  0.5088
 4896TIP3    H136247   5.963   1.232   7.807  0.1480  1.1059 -0.0338
 4896TIP3    H236248   6.021   1.094   7.827 -1.1212  0.6443  0.5297
 4897TIP3   OH236249   0.081   1.666   1.732 -0.6122  0.0054 -0.4229
 4897TIP3    H136250   0.070   1.662   1.827 -1.1791  2.0573 -0.3861
 4897TIP3    H236251   0.167   1.629   1.716  0.6103  2.0859  1.1628
 4898TIP3   OH236252   0.987   1.452   6.727 -0.0834  0.2131  0.4766
 4898TIP3    H136253   0.915   1.479   6.670 -0.9090  0.0859  1.4378
 4898TIP3    H236254   0.961   1.484   6.814  2.3785  2.7157  0.3539
 4899TIP3   OH236255   5.889   2.827   7.571  0.2712 -0.0408  0.2753
 4899TIP3    H136256   5.962   2.789   7.522 -0.6508  0.8240 -1.8277
 4899TIP3    H236257   5.917   2.916   7.591  0.5905 -0.3483  1.2041
 4900TIP3   OH236258   5.977   5.807   1.255  0.1242  0.9731 -0.6607
 4900TIP3    H136259   6.000   5.729   1.206 -0.6841  0.0212  0.4498
 4900TIP3    H236260   6.048   5.817   1.319 -0.8198 -0.0590  0.5693
 4901TIP3   OH236261   6.380   1.368   1.319  0.8927 -0.4332  0.0168
 4901TIP3    H136262   6.288   1.345   1.326  0.6882  0.0324 -1.0721
 4901TIP3    H236263   6.388   1.451   1.367 -0.4002  2.4807 -4.5621
 4902TIP3   OH236264   1.888   1.509   0.981 -0.1915  0.0037 -0.3381
 4902TIP3    H136265   1.893   1.570   0.907  0.1418 -1.1726 -1.2908
 4902TIP3    H236266   1.794   1.501   0.999 -0.2720  0.2741 -0.6298
 4903TIP3   OH236267   6.566   1.517   0.632  0.4426  0.0688 -0.2732
 4903TIP3    H136268   6.568   1.567   0.713 -0.6556  2.2624 -1.5468
 4903TIP3    H236269   6.656   1.523   0.599  0.8710 -0.7600  0.7284
 4904TIP3   OH236270   1.206   2.154   5.954  0.4588  0.1065 -0.4124
 4904TIP3    H136271   1.126   2.112   5.921 -0.3747  0.7882  0.6869
 4904TIP3    H236272   1.275   2.126   5.894 -0.5425 -0.8044 -1.1518
 4905TIP3   OH236273   3.600   3.804   1.915  0.1901  0.2215 -0.4855
 4905TIP3    H136274   3.517   3.839   1.882  0.5903  1.1473 -0.5427
 4905TIP3    H236275   3.665   3.833   1.851  0.4934 -0.9203 -0.7026
 4906TIP3   OH236276   2.305   1.997   0.162  0.1173  0.3518  0.1396
 4906TIP3    H136277   2.237   1.932   0.151  0.8784 -0.6249  1.1044
 4906TIP3    H236278   2.274   2.052   0.234 -0.8948  1.5720 -1.1883
 4907TIP3   OH236279   4.946   5.087   0.754 -0.5923  0.1853 -0.0634
 4907TIP3    H136280   4.867   5.051   0.794  0.1910 -1.1706  0.2959
 4907TIP3    H236281   4.969   5.025   0.685  1.4349 -0.6563  1.3178
 4908TIP3   OH236282   3.063   5.825   0.708  0.4654 -0.1055 -0.2102
 4908TIP3    H136283   3.100   5.913   0.709  0.8560 -0.2644  2.5443
 4908TIP3    H236284   2.969   5.839   0.694  0.4273  0.8065  0.8731
 4909TIP3   OH236285   0.925   5.542   0.320  0.0697  0.6026  0.0033
 4909TIP3    H136286   0.911   5.449   0.339  1.7710  0.2826 -0.2276
 4909TIP3    H236287   0.837   5.581   0.324 -0.6874 -1.0513 -0.1558
 4910TIP3   OH236288   3.506   3.548   6.941  0.5991 -0.4443 -0.3873
 4910TIP3    H136289   3.488   3.517   7.029 -0.7866 -2.3120 -1.3046
 4910TIP3    H236290   3.564   3.482   6.903  2.9275  1.4202 -0.1962
 4911TIP3   OH236291   2.036   4.601   2.164  0.1126  0.3471 -0.1350
 4911TIP3    H136292   1.989   4.670   2.118 -1.4172  0.8408  2.0650
 4911TIP3    H236293   2.025   4.523   2.110 -1.3005  0.9925 -0.7796
 4912TIP3   OH236294   6.913   0.095   7.540 -0.4544  0.1017 -0.2521
 4912TIP3    H136295   6.889   0.060   7.454  0.4910  0.2291 -0.5692
 4912TIP3    H236296   6.877   0.184   7.540 -0.7680 -0.0239 -0.3766
 4913TIP3   OH236297   1.922   3.051   6.632 -0.3560 -0.5276 -0.1203
 4913TIP3    H136298   1.914   3.146   6.621  2.3859  0.0264  2.0630
 4913TIP3    H236299   1.966   3.021   6.553 -1.3833 -0.0130 -0.8929
 4914TIP3   OH236300   4.727   1.967   0.181 -0.5058 -0.3234  0.0257
 4914TIP3    H136301   4.711   2.029   0.253 -3.0350  0.8785 -1.5257
 4914TIP3    H236302   4.670   1.893   0.200 -1.2920  0.0611 -0.8084
 4915TIP3   OH236303   6.178   4.165   0.929 -0.7132 -0.0084 -0.5859
 4915TIP3    H136304   6.124   4.098   0.886  1.2431 -2.1821  0.2107
 4915TIP3    H236305   6.184   4.136   1.020  0.4025  1.0819 -0.3052
 4916TIP3   OH236306   1.300   4.682   0.183  0.3916 -0.1089 -0.7441
 4916TIP3    H136307   1.313   4.672   0.278 -1.6913  1.2245 -0.2677
 4916TIP3    H236308   1.317   4.596   0.147  0.7443 -0.7604  0.9213
 4917TIP3   OH236309   2.615   3.785   1.965 -0.0668 -0.5096 -0.2657
 4917TIP3    H136310   2.605   3.798   2.059 -1.7497  0.3937 -0.5423
 4917TIP3    H236311   2.592   3.694   1.950 -0.1217 -0.5659  0.1540
 4918TIP3   OH236312   1.242   2.135   7.842 -0.3265 -0.4473  0.1224
 4918TIP3    H136313   1.219   2.228   7.839  0.9025 -0.1215  0.6011
 4918TIP3    H236314   1.163   2.090   7.812 -1.7768  0.6167  2.2475
 4919TIP3   OH236315   3.796   3.912   7.123  0.2060  0.4028 -0.1310
 4919TIP3    H136316   3.738   3.973   7.169  0.3072  0.5143 -0.1497
 4919TIP3    H236317   3.875   3.910   7.177 -0.8402 -1.8781  1.3919
 4920TIP3   OH236318   1.731   6.644   1.783 -0.0222 -0.2604 -0.3765
 4920TIP3    H136319   1.672   6.617   1.713 -0.7799  0.8156 -0.1625
 4920TIP3    H236320   1.692   6.608   1.862  0.1411 -0.3735 -0.3459
 4921TIP3   OH236321   2.863   2.177   1.634  0.1075 -0.2184  0.0376
 4921TIP3    H136322   2.949   2.144   1.661  0.3616  0.5236  0.1637
 4921TIP3    H236323   2.882   2.261   1.593 -0.3914 -0.8532 -1.4993
 4922TIP3   OH236324   6.174   4.791   1.188 -0.5848  0.3349  0.0410
 4922TIP3    H136325   6.258   4.789   1.234 -0.3299 -1.6594 -0.4633
 4922TIP3    H236326   6.109   4.772   1.255 -0.4419 -0.1050  0.0563
 4923TIP3   OH236327   4.919   0.813   7.581 -0.0388 -0.1575  0.4230
 4923TIP3    H136328   4.946   0.722   7.569  0.9262  0.1761  0.0081
 4923TIP3    H236329   4.851   0.827   7.516 -0.5461 -0.7324  0.8289
 4924TIP3   OH236330   2.989   2.923   1.385  0.1719 -0.9254 -0.2276
 4924TIP3    H136331   2.979   2.904   1.292  2.8476 -1.9053 -0.3564
 4924TIP3    H236332   3.037   2.848   1.420  0.3182  0.0202  1.6872
 4925TIP3   OH236333   1.764   6.238   6.910 -0.8035 -0.4476  0.6951
 4925TIP3    H136334   1.823   6.163   6.925  0.4177  0.3898  0.2146
 4925TIP3    H236335   1.699   6.205   6.848  0.3299 -0.8342 -0.3185
 4926TIP3   OH236336   2.308   0.752   0.644 -0.7850 -0.0440 -0.2862
 4926TIP3    H136337   2.213   0.744   0.636 -0.8342  0.5625 -0.2731
 4926TIP3    H236338   2.341   0.663   0.627 -1.4258 -0.5104  0.8443
 4927TIP3   OH236339   1.803   2.782   6.390 -0.6079 -0.0392 -0.0711
 4927TIP3    H136340   1.881   2.805   6.339 -1.1172  0.0752 -0.7945
 4927TIP3    H236341   1.831   2.709   6.445 -0.0595 -0.1529 -0.5042
 4928TIP3   OH236342   1.064   1.721   0.950  0.1495  0.1290  0.5619
 4928TIP3    H136343   1.110   1.803   0.967  1.1301 -0.0243 -1.2430
 4928TIP3    H236344   1.133   1.660   0.922 -0.5259 -1.3749  2.0679
 4929TIP3   OH236345   1.012   4.050   7.541  0.2662 -0.1017 -0.5565
 4929TIP3    H136346   0.948   4.096   7.487 -0.2341 -0.7751 -0.5352
 4929TIP3    H236347   0.987   3.958   7.534  0.8409 -0.2940 -0.0261
 4930TIP3   OH236348   3.514   1.877   1.822 -0.1504  0.8131 -0.9479
 4930TIP3    H136349   3.595   1.910   1.860  0.3402 -0.4183 -0.8727
 4930TIP3    H236350   3.511   1.785   1.849 -0.4407  0.2483 -2.8225
 4931TIP3   OH236351   6.555   1.016   6.966  0.0904 -0.0045 -0.3110
 4931TIP3    H136352   6.650   0.999   6.968  0.4205  1.8558  1.1291
 4931TIP3    H236353   6.525   0.993   7.054 -0.4234  1.3607 -0.1234
 4932TIP3   OH236354   2.654   3.313   0.184 -0.2715  0.0269  0.5210
 4932TIP3    H136355   2.626   3.221   0.190  1.4489 -0.5691 -0.3140
 4932TIP3    H236356   2.605   3.349   0.111 -1.2539 -0.1003  1.1036
 4933TIP3   OH236357   5.633   4.599   7.631  0.2625 -0.4936  0.1385
 4933TIP3    H136358   5.642   4.509   7.598 -2.1894 -0.7490  0.0272
 4933TIP3    H236359   5.541   4.605   7.658  0.7689  1.5399  1.5082
 4934TIP3   OH236360   4.522   0.154   7.552  0.6828 -0.6072  0.0311
 4934TIP3    H136361   4.465   0.167   7.476  0.2963  0.0960  0.4341
 4934TIP3    H236362   4.603   0.120   7.516  0.7422  0.3708 -0.7765
 4935TIP3   OH236363   3.865   3.021   8.075 -0.2115  0.2041  0.6066
 4935TIP3    H136364   3.857   3.091   8.140  0.8068  0.8560  0.0373
 4935TIP3    H236365   3.872   3.067   7.991 -1.2677 -0.6277  0.0421
 4936TIP3   OH236366   4.200   2.166   0.806 -0.6690 -0.0626  0.6109
 4936TIP3    H136367   4.171   2.255   0.828  0.8499  0.3094  1.1761
 4936TIP3    H236368   4.295   2.173   0.797 -0.6949 -1.3207 -0.8800
 4937TIP3   OH236369   4.545   6.549   0.984  0.0164  0.9868  0.3725
 4937TIP3    H136370   4.573   6.568   1.073 -0.0041 -1.7324  1.0047
 4937TIP3    H236371   4.625   6.556   0.931  0.4189  0.6039  0.9346
 4938TIP3   OH236372   3.166   3.374   7.235  0.5073 -0.2420 -0.0632
 4938TIP3    H136373   3.125   3.307   7.179 -0.1033  0.3350 -0.3097
 4938TIP3    H236374   3.259   3.368   7.214  0.4196 -0.7898 -0.3253
 4939TIP3   OH236375   3.240   5.337   7.389  0.0649  0.2984  0.0320
 4939TIP3    H136376   3.193   5.419   7.404 -0.1700  0.6041 -2.1856
 4939TIP3    H236377   3.170   5.273   7.375  0.2326 -0.4312  2.2720
 4940TIP3   OH236378   4.816   1.944   2.105 -0.6344 -0.5157 -0.7229
 4940TIP3    H136379   4.796   2.036   2.089 -1.5291 -0.3415  1.2436
 4940TIP3    H236380   4.741   1.896   2.068 -0.1330 -0.4830 -1.8129
 4941TIP3   OH236381   3.453   0.521   7.955  0.2843 -0.4938  0.4734
 4941TIP3    H136382   3.423   0.486   7.871  0.7867  1.5704 -0.5963
 4941TIP3    H236383   3.388   0.588   7.977  0.4807 -0.6251  1.4475
 4942TIP3   OH236384   2.663   5.432   2.133  0.3136 -0.2778 -0.2412
 4942TIP3    H136385   2.577   5.391   2.140 -0.6208  1.8590  1.5219
 4942TIP3    H236386   2.718   5.384   2.195 -0.3923  0.2113  0.7707
 4943TIP3   OH236387   6.164   1.409   0.575 -0.0401 -0.2272 -0.0009
 4943TIP3    H136388   6.200   1.471   0.639  0.3406 -0.1895 -0.2534
 4943TIP3    H236389   6.179   1.323   0.615  3.2722 -0.4570 -1.5134
 4944TIP3   OH236390   0.390   3.478   7.650  0.4511 -0.9176 -0.3339
 4944TIP3    H136391   0.319   3.513   7.704  0.5930 -0.9507 -0.1235
 4944TIP3    H236392   0.456   3.451   7.713  0.0999 -2.1136 -0.4548
 4945TIP3   OH236393   4.221   0.691   0.969 -0.7830 -0.1174 -0.8594
 4945TIP3    H136394   4.211   0.630   0.896 -0.7589 -0.4214 -0.6069
 4945TIP3    H236395   4.143   0.747   0.964 -0.3563  0.4190 -1.6378
 4946TIP3   OH236396   2.159   4.494   0.355 -0.3160  0.1690 -0.1404
 4946TIP3    H136397   2.238   4.531   0.316  0.2035 -0.9877 -0.2189
 4946TIP3    H236398   2.182   4.477   0.446 -0.3272 -0.5740 -0.2722
 4947TIP3   OH236399   3.643   0.860   0.372  0.6191 -0.2224  0.3789
 4947TIP3    H136400   3.576   0.792   0.368 -0.2217  0.6010  0.3581
 4947TIP3    H236401   3.626   0.906   0.454  1.1040  0.0427  0.3338
 4948TIP3   OH236402   0.285   1.222   1.361  0.2069 -0.2554 -0.2248
 4948TIP3    H136403   0.371   1.260   1.380  1.7104 -2.1753 -2.8479
 4948TIP3    H236404   0.293   1.130   1.386 -1.5227 -0.2036  0.6373
 4949TIP3   OH236405   5.645   0.502   0.124 -0.1169  0.2837  0.0680
 4949TIP3    H136406   5.733   0.510   0.162  0.5576  1.2409 -1.6331
 4949TIP3    H236407   5.616   0.592   0.113 -0.5114  0.0061 -1.1851
 4950TIP3   OH236408   1.424   4.069   1.459  0.4792 -0.1976 -0.3426
 4950TIP3    H136409   1.440   4.127   1.384  0.5088  0.1878 -0.0421
 4950TIP3    H236410   1.390   4.127   1.527 -1.8816 -0.9357 -0.8533
 4951TIP3   OH236411   4.560   2.234   2.251 -0.0510 -0.2125 -0.4004
 4951TIP3    H136412   4.531   2.156   2.299  0.9119 -0.4758 -0.2225
 4951TIP3    H236413   4.629   2.271   2.307  0.3230  0.0889 -1.0580
 4952TIP3   OH236414   2.226   2.540   7.613 -0.7212  0.1796 -0.1489
 4952TIP3    H136415   2.258   2.610   7.671  3.5804 -1.7191 -0.0694
 4952TIP3    H236416   2.205   2.585   7.531  1.6487  1.6697  0.0016
 4953TIP3   OH236417   7.022   0.850   0.219  1.0413 -0.1579 -0.4446
 4953TIP3    H136418   6.978   0.790   0.158 -0.2546 -1.8549  2.0660
 4953TIP3    H236419   6.967   0.929   0.218  1.2242 -0.0319 -1.7053
 4954TIP3   OH236420   6.044   4.668   1.422 -0.1779  0.0080 -0.2594
 4954TIP3    H136421   6.039   4.729   1.496  0.3200 -0.9369  0.5630
 4954TIP3    H236422   6.122   4.616   1.439 -0.6157 -0.8755 -0.9441
 4955TIP3   OH236423   0.788   2.023   0.004 -0.3770  0.1329  0.1178
 4955TIP3    H136424   0.778   2.091  -0.063  1.0942 -0.3600 -0.6295
 4955TIP3    H236425   0.851   2.060   0.066 -0.1561 -0.2327  0.1165
 4956TIP3   OH236426   6.882   3.949   1.658  0.2123  0.4830 -0.2193
 4956TIP3    H136427   6.804   3.909   1.697 -0.7598  2.9507  0.4864
 4956TIP3    H236428   6.955   3.897   1.691 -0.8897  0.1800  1.8522
 4957TIP3   OH236429   6.420   2.278   0.831 -0.2267 -0.2660  0.0866
 4957TIP3    H136430   6.453   2.343   0.769  1.3566 -1.4454 -0.3313
 4957TIP3    H236431   6.385   2.330   0.904  3.0638  1.0689  0.8049
 4958TIP3   OH236432   4.826   2.346   0.509  0.0528  0.1267  0.0660
 4958TIP3    H136433   4.865   2.279   0.566  2.6506  0.3840 -1.3423
 4958TIP3    H236434   4.790   2.296   0.436 -0.2483  0.0896  0.2356
 4959TIP3   OH236435   6.335   3.428   7.661  0.0076 -0.1333 -0.0793
 4959TIP3    H136436   6.310   3.338   7.682 -0.2405 -0.4085 -1.4521
 4959TIP3    H236437   6.262   3.481   7.693 -1.3323 -0.7277 -2.0397
 4960TIP3   OH236438   0.761   6.463   1.082 -0.3958 -0.2967 -0.0675
 4960TIP3    H136439   0.795   6.398   1.143 -1.4551 -0.1124  0.7278
 4960TIP3    H236440   0.734   6.536   1.137 -0.4835  0.2573 -0.8428
 4961TIP3   OH236441   3.229   0.161   0.791  0.4314  0.9327 -0.0672
 4961TIP3    H136442   3.179   0.083   0.816  0.0853  1.1267 -0.1485
 4961TIP3    H236443   3.312   0.153   0.838  0.1614  0.8140  0.3919
 4962TIP3   OH236444   4.839   2.413   1.360 -0.2089  0.2070  0.0905
 4962TIP3    H136445   4.855   2.321   1.337 -0.8219  0.6612 -2.2299
 4962TIP3    H236446   4.922   2.442   1.398  0.5082 -0.8780 -0.5933
 4963TIP3   OH236447   3.101   4.773   1.946  0.1529  0.1329 -0.7227
 4963TIP3    H136448   3.045   4.697   1.956  0.8177 -0.4402 -1.3110
 4963TIP3    H236449   3.081   4.807   1.859  0.9404 -0.2560 -1.0587
 4964TIP3   OH236450   3.681   2.947   1.188  0.4625  0.0908 -0.4523
 4964TIP3    H136451   3.619   2.878   1.162 -0.2438 -0.0967  1.5687
 4964TIP3    H236452   3.753   2.900   1.229 -0.1502  0.5470  1.1866
 4965TIP3   OH236453   5.232   3.425   0.730  0.5481  0.3020  0.7336
 4965TIP3    H136454   5.208   3.476   0.652 -1.5358 -0.9247  0.5287
 4965TIP3    H236455   5.193   3.473   0.803  1.2670  0.6756  0.8744
 4966TIP3   OH236456   6.046   3.699   1.686 -0.3177  0.0114  0.3972
 4966TIP3    H136457   6.112   3.675   1.621 -1.2877 -0.6513 -0.3575
 4966TIP3    H236458   5.969   3.646   1.663 -1.6547  1.9772  0.2563
 4967TIP3   OH236459   4.493   1.862   7.850  0.4336 -0.1638  0.1180
 4967TIP3    H136460   4.540   1.926   7.797  2.8012 -2.4862 -0.6627
 4967TIP3    H236461   4.429   1.823   7.790  1.3275 -0.9408 -0.3357
 4968TIP3   OH236462   6.363   3.850   1.285 -0.5190 -0.3434  0.4873
 4968TIP3    H136463   6.449   3.890   1.297 -0.9314  0.5400  0.5642
 4968TIP3    H236464   6.311   3.917   1.240 -1.6139 -0.2708  1.8052
 4969TIP3   OH236465   4.845   3.748   6.372 -0.0075 -0.2286  0.2985
 4969TIP3    H136466   4.934   3.713   6.378  0.9360  1.9484 -0.5038
 4969TIP3    H236467   4.855   3.831   6.326 -2.4488  0.1137  0.3345
 4970TIP3   OH236468   4.844   1.507   1.845 -0.2577 -0.2236  0.3747
 4970TIP3    H136469   4.795   1.565   1.787 -1.2711 -0.8648  0.5793
 4970TIP3    H236470   4.810   1.526   1.933  1.0706  0.5455  0.7410
 4971TIP3   OH236471   5.150   2.379   0.246  0.0855  0.7220  0.1000
 4971TIP3    H136472   5.078   2.324   0.215  2.8155 -1.9921 -1.7784
 4971TIP3    H236473   5.144   2.459   0.195 -1.5243  0.4513 -0.1386
 4972TIP3   OH236474   2.792   4.540   1.593  0.1997 -0.1265 -0.8601
 4972TIP3    H136475   2.726   4.525   1.525 -0.6959  4.1576 -1.0611
 4972TIP3    H236476   2.752   4.504   1.673 -0.8072 -0.8212 -1.6554
 4973TIP3   OH236477   5.668   5.824   7.526  0.1018 -0.5132 -0.7952
 4973TIP3    H136478   5.756   5.861   7.532  0.2877 -0.9433 -0.8454
 4973TIP3    H236479   5.644   5.835   7.434 -0.1912  0.2623 -0.6305
 4974TIP3   OH236480   0.652   1.852   1.644  0.6920  0.1954  0.0469
 4974TIP3    H136481   0.626   1.846   1.736 -0.9755  3.4715 -0.1410
 4974TIP3    H236482   0.746   1.833   1.645  0.9050  1.1761  2.5822
 4975TIP3   OH236483   2.770   4.824   0.268  0.6596 -0.9572  0.3631
 4975TIP3    H136484   2.683   4.859   0.287  0.6976 -0.9802  0.5760
 4975TIP3    H236485   2.763   4.790   0.178  0.5015 -0.7953  0.3144
 4976TIP3   OH236486   6.238   2.733   1.213  0.5976 -0.1643  0.3412
 4976TIP3    H136487   6.188   2.802   1.256  0.5751  1.2771 -1.9457
 4976TIP3    H236488   6.180   2.698   1.146  1.4502 -0.8096 -0.0744
 4977TIP3   OH236489   0.145   2.002   1.485  0.0426  0.4016 -0.0239
 4977TIP3    H136490   0.226   2.048   1.459  0.9378 -0.9903  0.2812
 4977TIP3    H236491   0.127   1.943   1.412 -0.0915 -0.0778  0.3964
 4978TIP3   OH236492   6.542   2.301   7.491 -0.3092 -0.7618  0.2299
 4978TIP3    H136493   6.598   2.288   7.567  0.8285 -2.3272 -0.8355
 4978TIP3    H236494   6.542   2.395   7.476  0.1835 -0.5338  1.6131
 4979TIP3   OH236495   3.559   4.360   6.567 -0.2425 -0.2468 -0.1162
 4979TIP3    H136496   3.645   4.392   6.591 -0.1986 -2.3258  2.7739
 4979TIP3    H236497   3.573   4.270   6.539 -1.3426 -0.2999 -0.5500
 4980TIP3   OH236498   4.813   3.016   7.906  0.1888  0.0514 -0.0652
 4980TIP3    H136499   4.887   3.046   7.958  0.3798  0.6189 -0.6660
 4980TIP3    H236500   4.737   3.030   7.962  0.5688 -0.9385  0.7222
 4981TIP3   OH236501   5.879   4.103   8.040 -0.0152  0.0089  0.4255
 4981TIP3    H136502   5.940   4.176   8.048 -0.6664  0.7595 -1.2186
 4981TIP3    H236503   5.795   4.138   8.066  0.0396 -0.7490  1.6869
 4982TIP3   OH236504   0.315   5.678   1.198 -0.2806  0.2012 -0.0801
 4982TIP3    H136505   0.309   5.620   1.121 -1.1554 -0.0225  0.1475
 4982TIP3    H236506   0.285   5.624   1.271  0.6612  0.3811  0.4465
 4983TIP3   OH236507   4.232   1.619   0.508 -0.2533  0.0227  0.5690
 4983TIP3    H136508   4.243   1.579   0.421  1.4672 -1.3544  1.3792
 4983TIP3    H236509   4.322   1.632   0.539 -0.8439  1.9214  1.5203
 4984TIP3   OH236510   5.286   0.191   6.322  0.2084  0.9665 -0.1233
 4984TIP3    H136511   5.377   0.219   6.332  0.3049  0.5986  0.0530
 4984TIP3    H236512   5.246   0.257   6.265  1.0428  0.1921 -1.6247
 4985TIP3   OH236513   5.519   0.874   1.637 -0.0526  0.0572 -0.4374
 4985TIP3    H136514   5.516   0.852   1.544 -2.4808  2.5421 -1.0053
 4985TIP3    H236515   5.539   0.967   1.639  0.8285 -0.1507  1.5966
 4986TIP3   OH236516   4.214   5.822   7.467 -0.2296  0.1378 -0.1748
 4986TIP3    H136517   4.140   5.872   7.503  0.6654  1.7172 -0.4995
 4986TIP3    H236518   4.258   5.786   7.544 -1.1120 -0.5173  0.0380
 4987TIP3   OH236519   5.069   5.328   0.788  0.0604  0.2790 -0.2086
 4987TIP3    H136520   5.026   5.352   0.870  0.9720 -0.0605  0.3789
 4987TIP3    H236521   5.038   5.240   0.769  0.0342  0.2635 -0.0967
 4988TIP3   OH236522   4.822   2.380   7.513 -0.6783 -0.3910  0.9293
 4988TIP3    H136523   4.816   2.462   7.561  0.8781 -0.1043  0.6338
 4988TIP3    H236524   4.807   2.404   7.422  2.5804  0.0276  0.4518
 4989TIP3   OH236525   1.673   3.457   0.288  0.6861 -0.7986  0.1287
 4989TIP3    H136526   1.728   3.380   0.305  1.2520 -0.1074  1.5017
 4989TIP3    H236527   1.625   3.435   0.208  2.4478 -1.6945 -0.7154
 4990TIP3   OH236528   3.529   0.943   7.612 -0.0292 -0.7316 -0.0782
 4990TIP3    H136529   3.571   0.950   7.526  1.8623 -0.6530  0.8201
 4990TIP3    H236530   3.442   0.981   7.600  0.9626  1.1951 -1.4686
 4991TIP3   OH236531   6.336   5.523   0.025  0.1806 -0.2324  0.3642
 4991TIP3    H136532   6.348   5.518   0.120  1.1875 -0.1803  0.2489
 4991TIP3    H236533   6.394   5.456  -0.010 -0.0091 -0.0892 -0.2287
 4992TIP3   OH236534   3.569   3.384   1.525  0.8095  0.2051  0.0968
 4992TIP3    H136535   3.483   3.385   1.567  0.0462  2.1367 -1.3530
 4992TIP3    H236536   3.564   3.457   1.462  2.8478 -0.8381 -1.3208
 4993TIP3   OH236537   3.881   1.551   0.358 -0.7383  0.4227  0.0503
 4993TIP3    H136538   3.811   1.577   0.417  0.3339 -1.2118  2.0927
 4993TIP3    H236539   3.888   1.457   0.370 -0.2006  0.1229 -2.3912
 4994TIP3   OH236540   3.166   0.626   1.512  0.0187  0.4707 -0.2074
 4994TIP3    H136541   3.106   0.553   1.495  0.4309 -0.2497  1.3920
 4994TIP3    H236542   3.131   0.668   1.590 -0.2029  2.0061 -1.1030
 4995TIP3   OH236543   0.439   1.901   7.609 -0.0296 -0.3820  0.2314
 4995TIP3    H136544   0.372   1.970   7.613  0.9965  0.7764 -1.6964
 4995TIP3    H236545   0.402   1.835   7.552 -0.2945 -0.6221  0.6778
 4996TIP3   OH236546   3.764   3.449   7.845  0.1410  0.1268 -0.0427
 4996TIP3    H136547   3.674   3.453   7.812 -0.3511 -0.1578  1.2015
 4996TIP3    H236548   3.784   3.539   7.872  1.0899  0.6626 -2.4730
 4997TIP3   OH236549   1.470   4.469   6.039  0.4235 -0.0225 -0.0268
 4997TIP3    H136550   1.412   4.541   6.066  0.3247 -0.9356  2.3262
 4997TIP3    H236551   1.412   4.405   5.999  0.2111  0.2784 -0.2050
 4998TIP3   OH236552   4.161   5.525   7.701  0.1790  0.5282 -0.2013
 4998TIP3    H136553   4.106   5.492   7.773  1.9690  2.3170  2.0651
 4998TIP3    H236554   4.236   5.565   7.745  1.7002  1.0086 -3.1326
 4999TIP3   OH236555   5.411   1.252   8.081 -0.8904 -0.6172  0.3065
 4999TIP3    H136556   5.391   1.178   8.024  0.5598 -1.3383  0.7219
 4999TIP3    H236557   5.385   1.222   8.168  0.0034 -0.7594  0.5229
 5000TIP3   OH236558   3.108   3.401   2.243 -0.3669 -0.0417 -0.1022
 5000TIP3    H136559   3.130   3.329   2.184  0.2905 -1.0931  1.3679
 5000TIP3    H236560   3.160   3.475   2.211 -2.0968  0.1854 -2.4504
 5001TIP3   OH236561   4.891   1.412   7.798  0.2519 -0.1104 -0.3603
 5001TIP3    H136562   4.917   1.482   7.857 -0.4787 -1.2446  1.3729
 5001TIP3    H236563   4.841   1.455   7.729 -1.0827  0.9710  1.2387
 5002TIP3   OH236564   4.805   2.116   7.315  0.2795 -0.3226 -1.0229
 5002TIP3    H136565   4.847   2.195   7.349 -0.7672 -0.2930  0.2484
 5002TIP3    H236566   4.713   2.138   7.308 -0.3593 -2.0430  1.2757
 5003TIP3   OH236567   5.259   2.701   6.480 -0.4406  0.0035  0.2041
 5003TIP3    H136568   5.271   2.619   6.432  0.7727  0.4688 -0.2877
 5003TIP3    H236569   5.184   2.743   6.437  0.1203  0.0277 -0.7497
 5004TIP3   OH236570   3.560   2.505   0.786  0.1704 -0.1030 -0.3633
 5004TIP3    H136571   3.652   2.485   0.806  0.5500  0.9128 -1.0287
 5004TIP3    H236572   3.563   2.590   0.742 -1.1619  0.2857  0.2631
 5005TIP3   OH236573   0.462   5.219   0.586  0.7677 -0.5952 -0.6014
 5005TIP3    H136574   0.550   5.185   0.571  1.4942 -0.1142  2.3238
 5005TIP3    H236575   0.405   5.142   0.578  1.2652 -0.7036 -3.6263
 5006TIP3   OH236576   2.902   1.112   6.729 -0.0677 -0.1182  0.4910
 5006TIP3    H136577   2.951   1.052   6.784 -0.6026 -1.2452 -0.2487
 5006TIP3    H236578   2.811   1.099   6.755 -0.3317 -0.6929 -0.6715
 5007TIP3   OH236579   5.231   1.892   0.085  0.1407 -0.2058  0.3971
 5007TIP3    H136580   5.187   1.948   0.149 -0.0388 -0.2050  0.2746
 5007TIP3    H236581   5.301   1.849   0.134  0.2534  0.0954  0.5007
 5008TIP3   OH236582   5.608   4.691   1.552 -0.6599  0.2522  0.5823
 5008TIP3    H136583   5.552   4.767   1.570 -0.2080  0.9317 -0.8015
 5008TIP3    H236584   5.650   4.712   1.468  0.0491 -1.1925  0.5685
 5009TIP3   OH236585   5.493   2.954   0.219 -0.3506  0.4830  0.5231
 5009TIP3    H136586   5.451   3.023   0.167 -0.3812 -0.2468 -0.4413
 5009TIP3    H236587   5.586   2.961   0.196 -0.5875 -0.9031 -0.8937
 5010TIP3   OH236588   5.692   3.843   0.089 -0.8304  0.0482 -0.2199
 5010TIP3    H136589   5.683   3.750   0.111 -0.8632 -0.1210 -0.9604
 5010TIP3    H236590   5.708   3.885   0.174 -0.8662 -0.6216  0.1275
 5011TIP3   OH236591   4.784   2.920   0.288 -0.5180  0.4814 -0.0966
 5011TIP3    H136592   4.866   2.969   0.284 -0.3962  0.2749 -0.1525
 5011TIP3    H236593   4.729   2.969   0.349 -0.2994  0.5419  0.0504
 5012TIP3   OH236594   6.002   3.119   0.378 -0.4388 -0.4839 -0.1490
 5012TIP3    H136595   6.053   3.187   0.335 -1.6085 -0.2303 -1.1473
 5012TIP3    H236596   5.947   3.165   0.441 -1.4614 -0.4813 -1.0511
 5013TIP3   OH236597   2.770   1.184   7.680 -0.2726 -0.3832  0.1133
 5013TIP3    H136598   2.807   1.119   7.741  0.3035 -2.0005 -1.8750
 5013TIP3    H236599   2.836   1.254   7.677 -0.7408  0.1536  2.0303
 5014TIP3   OH236600   4.019   6.578   1.359  0.3506 -0.1433  0.0417
 5014TIP3    H136601   4.048   6.632   1.432 -0.6976  1.6569 -0.8218
 5014TIP3    H236602   4.000   6.492   1.397  1.9574  0.1168  1.4607
 5015TIP3   OH236603   3.736   6.830   0.905  0.8554  0.3718  0.7115
 5015TIP3    H136604   3.724   6.817   0.811  0.4873 -1.2137  0.9538
 5015TIP3    H236605   3.651   6.806   0.943  1.7506 -1.3849  1.6501
 5016TIP3   OH236606   6.256   2.095   6.637 -0.3221 -0.0239 -0.1982
 5016TIP3    H136607   6.342   2.130   6.660 -0.3888  0.6553 -0.9814
 5016TIP3    H236608   6.223   2.057   6.719  0.6818 -0.2122  0.1199
 5017TIP3   OH236609   4.286   2.581   0.407 -0.5924 -0.0609  0.3891
 5017TIP3    H136610   4.361   2.532   0.441  0.3295  0.3986 -0.9296
 5017TIP3    H236611   4.290   2.666   0.451 -0.7200 -0.2613  0.7913
 5018TIP3   OH236612   2.892   1.917   0.203 -1.0257  0.7611 -0.1999
 5018TIP3    H136613   2.796   1.925   0.205 -0.8139  3.5623  0.5746
 5018TIP3    H236614   2.914   1.880   0.289 -1.3310  0.9670 -0.0313
 5019TIP3   OH236615   3.130   3.650   7.937 -0.1257  0.1454  0.0947
 5019TIP3    H136616   3.068   3.703   7.986 -0.6755  0.1940 -0.6495
 5019TIP3    H236617   3.216   3.689   7.957 -0.4302  0.6894  0.3395
 5020TIP3   OH236618   7.077   0.586   1.554  0.1626 -0.6922  0.0215
 5020TIP3    H136619   7.053   0.632   1.634  0.3537 -0.4489 -0.0584
 5020TIP3    H236620   7.019   0.623   1.487  0.7566 -0.1015 -0.1719
 5021TIP3   OH236621   4.431   4.972   1.804  0.1634  0.4119 -0.3951
 5021TIP3    H136622   4.499   4.916   1.842 -0.3616  0.1184  0.1319
 5021TIP3    H236623   4.463   5.061   1.818 -0.6488  0.3648  2.0193
 5022TIP3   OH236624   4.025   3.318   2.019 -0.0707 -0.0151 -0.3377
 5022TIP3    H136625   4.118   3.342   2.025 -0.4474  1.5098 -0.5196
 5022TIP3    H236626   3.991   3.333   2.107 -0.6195  1.4411 -0.7952
 5023TIP3   OH236627   5.778   4.628   0.823 -0.2376  0.2618  0.3994
 5023TIP3    H136628   5.856   4.665   0.782  0.2091 -1.7118 -0.6215
 5023TIP3    H236629   5.750   4.559   0.762 -1.2435 -0.7982  2.0252
 5024TIP3   OH236630   4.805   1.574   7.323 -0.3152 -0.3319  0.2799
 5024TIP3    H136631   4.889   1.533   7.300 -0.3101 -0.3958  0.4093
 5024TIP3    H236632   4.739   1.508   7.300 -0.2952 -0.4857  0.6575
 5025TIP3   OH236633   4.857   3.416   6.745 -0.2311  0.3901 -0.1838
 5025TIP3    H136634   4.937   3.394   6.697  2.0426  0.7058  3.2580
 5025TIP3    H236635   4.840   3.508   6.723  0.9817  0.6414 -0.0909
 5026TIP3   OH236636   5.207   6.025   0.880 -0.3788 -0.3779 -0.2481
 5026TIP3    H136637   5.151   5.983   0.945 -3.1678 -0.3580 -2.5164
 5026TIP3    H236638   5.241   5.953   0.827  0.5169 -0.2595  0.1468
 5027TIP3   OH236639   3.186   2.588   1.562  0.1277 -0.0294  0.2243
 5027TIP3    H136640   3.197   2.665   1.619 -0.2316  1.0157 -1.1013
 5027TIP3    H236641   3.228   2.517   1.610 -0.7438  0.6875  2.1291
 5028TIP3   OH236642   4.297   2.671   1.493  0.2822  0.6008  0.0488
 5028TIP3    H136643   4.252   2.589   1.514  1.1188  0.3373  0.8743
 5028TIP3    H236644   4.228   2.730   1.463 -0.7639  0.5321  2.2576
 5029TIP3   OH236645   3.863   6.215   0.045 -0.0058 -0.1139  0.1622
 5029TIP3    H136646   3.793   6.257   0.095 -0.0426 -0.8979  0.7724
 5029TIP3    H236647   3.869   6.126   0.081  1.0592 -0.1683 -0.1185
 5030TIP3   OH236648   2.384   3.203   2.250  0.0030 -0.0190 -0.2461
 5030TIP3    H136649   2.394   3.131   2.188 -1.2551 -0.0370 -0.4444
 5030TIP3    H236650   2.353   3.276   2.197  0.7165  0.5110  0.0548
 5031TIP3   OH236651   5.308   5.158   0.732  0.1671 -0.5073  0.6336
 5031TIP3    H136652   5.251   5.233   0.749  0.6087 -0.4512  1.9405
 5031TIP3    H236653   5.270   5.115   0.656 -0.5569  0.5806  0.3712
 5032TIP3   OH236654   4.882   6.483   1.436 -0.3569  0.0757  0.1711
 5032TIP3    H136655   4.925   6.451   1.356 -0.6883  1.3994 -0.5570
 5032TIP3    H236656   4.953   6.493   1.499 -0.2357 -2.0146  0.4125
 5033TIP3   OH236657   3.237   4.997   0.522 -0.4536 -0.8830  0.2274
 5033TIP3    H136658   3.177   4.943   0.574 -0.8697 -1.1161 -0.4792
 5033TIP3    H236659   3.286   4.934   0.470  0.7753 -0.7293  1.1638
 5034TIP3   OH236660   6.679   1.866   0.066 -0.0759  0.3998 -0.1435
 5034TIP3    H136661   6.735   1.789   0.074 -1.0119 -0.4188 -1.3496
 5034TIP3    H236662   6.729   1.926   0.011  0.2417  0.2664 -0.0039
 5035TIP3   OH236663   3.646   4.301   6.966 -0.0790 -0.3125 -0.8536
 5035TIP3    H136664   3.584   4.361   7.006  0.9314 -0.8052  1.5462
 5035TIP3    H236665   3.605   4.215   6.972 -0.2316 -0.2949 -1.5571
 5036TIP3   OH236666   3.648   1.011   7.382  0.0828  0.1160 -0.5684
 5036TIP3    H136667   3.698   1.081   7.424 -1.0803 -0.0225  1.1149
 5036TIP3    H236668   3.569   1.055   7.350 -0.0825 -0.2099 -0.6036
 5037TIP3   OH236669   2.786   3.555   1.155  0.8861  0.0754  0.4008
 5037TIP3    H136670   2.826   3.624   1.208  1.5320 -0.8117  1.0851
 5037TIP3    H236671   2.703   3.537   1.198  0.4628  0.8100 -0.1007
 5038TIP3   OH236672   2.168   2.718   7.422  0.4413 -0.2116  0.1011
 5038TIP3    H136673   2.219   2.752   7.348 -0.9424  3.0469  0.5538
 5038TIP3    H236674   2.088   2.771   7.422  0.7854  0.4845  4.3777
 5039TIP3   OH236675   4.471   5.333   0.339  0.0281  0.4473 -0.1966
 5039TIP3    H136676   4.524   5.359   0.264  0.6238  0.9293  0.3733
 5039TIP3    H236677   4.533   5.288   0.397 -0.3298  0.4379  0.1835
 5040TIP3   OH236678   3.044   2.878   6.521 -0.4225  0.0541  0.6547
 5040TIP3    H136679   3.004   2.949   6.572 -1.0448  0.6745 -0.7003
 5040TIP3    H236680   3.079   2.921   6.443 -1.9808 -1.3359 -0.8172
 5041TIP3   OH236681   6.869   0.598   1.171  0.0169  0.0643  0.1315
 5041TIP3    H136682   6.951   0.638   1.140  0.3090 -1.5861 -1.3049
 5041TIP3    H236683   6.802   0.630   1.110 -0.3873  1.2725  1.1997
 5042TIP3   OH236684   5.238   1.887   2.138 -0.1372  0.0903 -0.6161
 5042TIP3    H136685   5.302   1.816   2.144  0.4290  0.5138 -1.4859
 5042TIP3    H236686   5.154   1.846   2.158  0.4932 -0.3211  1.2907
 5043TIP3   OH236687   4.521   3.469   8.073  0.1391  0.1270  0.0942
 5043TIP3    H136688   4.560   3.403   8.131 -1.3218 -1.3960 -0.6095
 5043TIP3    H236689   4.549   3.552   8.109  0.6506 -0.8412  2.0011
 5044TIP3   OH236690   0.331   3.321   0.555  0.2290  0.5148 -0.7287
 5044TIP3    H136691   0.406   3.288   0.507  0.5297  1.1658 -0.7133
 5044TIP3    H236692   0.264   3.335   0.488  0.5281  1.0825 -0.9122
 5045TIP3   OH236693   3.600   4.986   1.529  0.6065  0.1240  0.0154
 5045TIP3    H136694   3.505   4.973   1.538  0.7158 -0.7100 -0.0323
 5045TIP3    H236695   3.638   4.900   1.546  1.2634  0.1007 -1.4842
 5046TIP3   OH236696   3.411   3.497   1.918 -0.0835  0.0547 -0.6036
 5046TIP3    H136697   3.431   3.417   1.967 -1.4732 -0.7447 -1.3257
 5046TIP3    H236698   3.488   3.510   1.863 -0.1469 -1.2251 -1.0282
 5047TIP3   OH236699   2.580   2.147   0.617 -0.3544 -0.8165  0.7256
 5047TIP3    H136700   2.578   2.162   0.711  2.1515  3.7194  0.1982
 5047TIP3    H236701   2.666   2.106   0.601  0.1719  0.4524  0.2183
 5048TIP3   OH236702   5.864   3.007   6.548  0.1605 -0.1358  0.7236
 5048TIP3    H136703   5.913   3.089   6.548  0.6248 -0.4107 -0.0145
 5048TIP3    H236704   5.815   3.008   6.631 -0.0891  1.0278  0.5695
 5049TIP3   OH236705   4.076   6.811   1.520 -0.7148 -0.1208  0.1518
 5049TIP3    H136706   4.113   6.844   1.602  1.1393  1.5700 -1.3089
 5049TIP3    H236707   4.127   6.854   1.452 -3.7890  0.3860 -1.9423
 5050TIP3   OH236708   5.931   0.497   1.772  0.3743 -0.0719 -0.6889
 5050TIP3    H136709   5.846   0.484   1.813  0.2340 -0.3121 -1.0568
 5050TIP3    H236710   5.961   0.409   1.749  1.7133 -0.1982  1.4103
 5051TIP3   OH236711   3.949   1.982   1.373 -0.2577  0.2063  0.7063
 5051TIP3    H136712   3.965   1.887   1.370  0.9330  0.4272 -0.3721
 5051TIP3    H236713   3.878   1.996   1.311  1.5460  0.3690 -1.3982
 5052TIP3   OH236714   5.660   4.030   1.509 -0.4877  0.6505  0.2154
 5052TIP3    H136715   5.593   3.970   1.541 -0.9085  0.7775 -0.4106
 5052TIP3    H236716   5.685   4.081   1.586  1.4423 -1.7707  1.2491
 5053TIP3   OH236717   4.739   4.891   0.775  0.3123 -0.2660  0.0578
 5053TIP3    H136718   4.703   4.806   0.801 -2.0081  1.1619  1.7251
 5053TIP3    H236719   4.739   4.888   0.679 -1.1255 -1.6087  0.0605
 5054TIP3   OH236720   4.835   6.562   1.022  0.4698 -0.2467 -0.0739
 5054TIP3    H136721   4.768   6.569   1.090  0.4038 -0.5920 -0.1006
 5054TIP3    H236722   4.902   6.505   1.060  0.7976  0.1821 -0.0093
 5055TIP3   OH236723   5.995   3.514   7.383  0.1803 -0.1551  0.2936
 5055TIP3    H136724   5.938   3.487   7.454 -1.0604  0.5937 -0.3989
 5055TIP3    H236725   5.970   3.605   7.366  0.7482 -0.1976 -0.8120
 5056TIP3   OH236726   3.706   3.049   0.934 -0.2997 -0.1183 -0.5651
 5056TIP3    H136727   3.720   3.024   1.026  0.1945 -0.9380 -0.8538
 5056TIP3    H236728   3.769   3.120   0.918  0.5509 -0.8683 -0.6324
 5057TIP3   OH236729   4.686   3.746   1.109  0.3562  0.4864  0.8238
 5057TIP3    H136730   4.703   3.840   1.101 -0.5486  0.7363  1.7118
 5057TIP3    H236731   4.683   3.731   1.204 -3.9960  0.3887  0.7412
 5058TIP3   OH236732   4.523   4.096   1.897 -0.2170  0.1542 -0.1538
 5058TIP3    H136733   4.460   4.043   1.946 -0.2428  0.6999  0.4086
 5058TIP3    H236734   4.595   4.036   1.878  0.3327  0.2237  1.5771
 5059TIP3   OH236735   4.180   5.729   0.223 -0.1379  0.4906 -0.1233
 5059TIP3    H136736   4.269   5.764   0.234  0.0291  0.1333 -0.3195
 5059TIP3    H236737   4.192   5.634   0.220 -0.7339  0.3351  1.8275
 5060TIP3   OH236738   5.011   5.725   1.630 -0.6395 -0.6326 -0.4853
 5060TIP3    H136739   4.952   5.688   1.696  0.3706 -0.2797  0.6284
 5060TIP3    H236740   5.085   5.663   1.627 -0.1316 -0.0362 -0.4325
 5061TIP3   OH236741   5.483   3.144   1.205  0.0858 -0.0050 -0.2691
 5061TIP3    H136742   5.449   3.170   1.291 -1.1968  1.9519 -1.3361
 5061TIP3    H236743   5.411   3.160   1.144  1.8476  1.1388 -2.1122
 5062TIP3   OH236744   3.760   6.980   6.684  0.0753 -0.6609  0.1073
 5062TIP3    H136745   3.772   6.971   6.779 -1.2869  2.2109  0.6012
 5062TIP3    H236746   3.714   6.900   6.658  0.1974 -1.3370  1.9112
 5063TIP3   OH236747   2.618   1.666   7.980  0.1754  0.0577 -0.0286
 5063TIP3    H136748   2.710   1.654   7.956  1.3074  0.7396  3.7441
 5063TIP3    H236749   2.603   1.760   7.971  0.6537  0.3427  1.9216
 5064TIP3   OH236750   5.922   2.287   1.693  0.0851  0.1860 -0.1253
 5064TIP3    H136751   5.853   2.301   1.759  0.0438  2.4697 -0.6489
 5064TIP3    H236752   5.915   2.362   1.634  2.6128  0.1045 -0.5576
 5065TIP3   OH236753   4.653   3.203   1.435 -0.2660 -0.2625  0.2290
 5065TIP3    H136754   4.702   3.192   1.517 -2.8571  0.5855  1.9820
 5065TIP3    H236755   4.667   3.294   1.411 -0.8123 -0.0549  0.6635
 5066TIP3   OH236756   2.074   1.972   6.785 -0.0845  0.7706 -0.1976
 5066TIP3    H136757   2.025   1.891   6.798 -1.5622  1.4922 -1.1536
 5066TIP3    H236758   2.117   1.988   6.869  0.1631 -0.9537  0.0310
 5067TIP3   OH236759   2.439   2.877   0.113 -0.0701  0.4651 -0.3863
 5067TIP3    H136760   2.429   2.926   0.032 -1.1737 -0.8518 -1.0672
 5067TIP3    H236761   2.494   2.802   0.089 -0.3562  0.0926  0.1015
 5068TIP3   OH236762   4.474   3.999   1.624 -0.4216  0.4960 -0.2994
 5068TIP3    H136763   4.536   3.950   1.678 -1.5937  1.6402  2.1658
 5068TIP3    H236764   4.402   3.938   1.610 -0.1145  0.1967 -0.5984
 5069TIP3   OH236765   3.679   3.370   2.134  0.1470 -0.4081  0.1012
 5069TIP3    H136766   3.602   3.314   2.128 -0.2914  0.4279 -2.9178
 5069TIP3    H236767   3.645   3.454   2.164  0.2151 -0.6209  0.7864
 5070TIP3   OH236768   4.132   4.994   1.822 -0.6963  0.3777  0.5036
 5070TIP3    H136769   4.073   4.925   1.792  0.6291 -0.1647 -0.9218
 5070TIP3    H236770   4.216   4.951   1.835  0.0643  1.6398 -0.0753
 5071TIP3   OH236771   2.606   3.278   7.273 -0.4978 -0.1605  0.1574
 5071TIP3    H136772   2.565   3.364   7.277  1.5434  0.7799  1.2062
 5071TIP3    H236773   2.649   3.267   7.357  2.9545 -0.3015 -1.5357
 5072TIP3   OH236774   1.325   4.856   7.235 -0.1805 -0.0309 -0.2399
 5072TIP3    H136775   1.279   4.929   7.194  0.6303  0.3168 -0.5407
 5072TIP3    H236776   1.383   4.823   7.167  0.4691 -0.0705  0.3268
 5073TIP3   OH236777   5.853   3.795   0.342 -0.3597  0.3641  0.1136
 5073TIP3    H136778   5.904   3.741   0.282 -1.0691  0.5414 -0.6660
 5073TIP3    H236779   5.858   3.750   0.426 -0.5651 -0.6802 -0.4251
 5074TIP3   OH236780   3.267   1.258   7.110 -0.4351 -0.4478  0.1124
 5074TIP3    H136781   3.193   1.290   7.059 -1.7840 -0.7107  1.8528
 5074TIP3    H236782   3.330   1.228   7.045 -1.2703  1.0311 -1.4403
 5075TIP3   OH236783   0.343   1.309   6.783  0.2223 -0.2375  0.5536
 5075TIP3    H136784   0.305   1.312   6.871  0.9712  1.2764  0.8323
 5075TIP3    H236785   0.369   1.217   6.772 -2.1661 -0.9927  0.9180
 5076TIP3   OH236786   2.803   0.454   1.311  0.1042  0.1221 -0.1938
 5076TIP3    H136787   2.848   0.483   1.390  0.5863 -2.4645  0.5322
 5076TIP3    H236788   2.846   0.372   1.287 -0.4021  0.5765 -2.8358
 5077TIP3   OH236789   5.601   3.745   0.867 -0.0163 -0.2009 -0.2249
 5077TIP3    H136790   5.579   3.768   0.777 -0.1711 -2.5561 -0.7996
 5077TIP3    H236791   5.605   3.830   0.913  0.9171  1.0821 -2.6039
 5078TIP3   OH236792   5.379   2.304   0.424 -0.1720 -0.4445  0.5026
 5078TIP3    H136793   5.361   2.318   0.517  1.4684  1.7875  0.5312
 5078TIP3    H236794   5.298   2.329   0.380 -0.5779 -0.4143  1.2604
 5079TIP3   OH236795   3.752   2.226   0.165  0.3634  0.0768 -0.2682
 5079TIP3    H136796   3.756   2.211   0.259 -0.5403 -0.7521 -0.3489
 5079TIP3    H236797   3.839   2.202   0.133  0.5738  0.0616  0.3030
 5080TIP3   OH236798   4.206   6.715   1.192 -0.4542  0.0082  0.6177
 5080TIP3    H136799   4.206   6.699   1.097  0.4840  2.3712  0.1788
 5080TIP3    H236800   4.137   6.659   1.226 -1.9540  0.3825 -1.7040
 5081TIP3   OH236801   5.665   0.921   7.551  0.8213  0.7185 -0.2026
 5081TIP3    H136802   5.634   0.987   7.489 -1.3346 -0.3958 -0.3537
 5081TIP3    H236803   5.639   0.955   7.637 -0.1091  0.1704 -0.2647
 5082TIP3   OH236804   3.319   0.861   6.948 -0.2798  0.6781  0.1729
 5082TIP3    H136805   3.243   0.915   6.926 -0.0815  0.7692 -0.2848
 5082TIP3    H236806   3.370   0.915   7.007  0.7807  1.6672 -1.6099
 5083TIP3   OH236807   2.398   3.963   6.017 -0.5479 -0.0058  0.4485
 5083TIP3    H136808   2.442   4.031   6.068  0.6133 -0.6792  0.3759
 5083TIP3    H236809   2.315   3.949   6.062  0.2731 -0.2763  1.9098
 5084TIP3   OH236810   3.766   1.093   0.248 -0.0247 -0.1974  0.1136
 5084TIP3    H136811   3.728   1.023   0.302  0.3181 -1.0617 -0.7521
 5084TIP3    H236812   3.843   1.054   0.209  0.9763  1.1204  0.7307
 5085TIP3   OH236813   2.207   4.349   6.733  0.3686 -0.2342 -0.0771
 5085TIP3    H136814   2.161   4.266   6.725  1.6840 -1.1182  1.2664
 5085TIP3    H236815   2.256   4.358   6.652  0.7077 -1.0735  0.0341
 5086TIP3   OH236816   0.144   3.821   0.974 -0.3947  0.0526  0.1314
 5086TIP3    H136817   0.066   3.831   0.920  0.9101 -0.9772 -1.9877
 5086TIP3    H236818   0.116   3.762   1.045 -1.6269 -0.0671 -0.4336
 5087TIP3   OH236819   2.092   3.325   1.747 -0.3311 -0.2168 -0.2670
 5087TIP3    H136820   2.076   3.304   1.655 -0.0167 -0.8283 -0.1861
 5087TIP3    H236821   2.114   3.419   1.746  3.8724 -1.1052 -1.3808
 5088TIP3   OH236822   0.022   2.473   1.496 -0.2614 -0.8221 -0.6312
 5088TIP3    H136823   0.003   2.534   1.567 -1.7216 -1.0670 -0.7931
 5088TIP3    H236824   0.016   2.525   1.417 -1.3334 -1.1141 -0.7566
 5089TIP3   OH236825   5.270   3.965   1.994  0.9190  0.4491 -0.4933
 5089TIP3    H136826   5.340   3.923   2.045  0.5112 -0.7025 -0.8755
 5089TIP3    H236827   5.219   3.893   1.958  1.4126  1.2222 -2.8544
 5090TIP3   OH236828   3.738   3.837   7.591  0.0760  0.2693 -0.3023
 5090TIP3    H136829   3.701   3.765   7.540 -0.7496 -0.6086  1.4908
 5090TIP3    H236830   3.827   3.809   7.612 -0.0678  0.0019 -0.0519
 5091TIP3   OH236831   0.455   3.475   1.234 -0.7849 -0.4679  0.0409
 5091TIP3    H136832   0.377   3.439   1.191 -1.0599 -0.7694  0.7825
 5091TIP3    H236833   0.524   3.412   1.216 -0.8505 -0.4880 -0.1382
 5092TIP3   OH236834   2.255   3.115   1.805  0.3141  0.0025  0.2582
 5092TIP3    H136835   2.218   3.051   1.744 -0.4493 -0.3892  1.1163
 5092TIP3    H236836   2.209   3.196   1.783 -1.2475 -0.5303  1.4588
 5093TIP3   OH236837   1.083   4.746   7.833 -0.0742  0.3225  0.0752
 5093TIP3    H136838   1.090   4.842   7.831  0.8912  0.3252  2.3511
 5093TIP3    H236839   1.050   4.727   7.921 -0.6698 -1.4330 -0.5173
 5094TIP3   OH236840   5.900   1.522   1.507  0.3437  0.0151  0.0703
 5094TIP3    H136841   5.867   1.607   1.478 -0.7919 -0.3705  0.2044
 5094TIP3    H236842   5.968   1.544   1.572  1.5770  0.8415 -1.4534
 5095TIP3   OH236843   1.983   3.436   2.072 -0.5635  0.2515 -0.1379
 5095TIP3    H136844   1.949   3.458   2.159 -0.2411  0.0624  0.0353
 5095TIP3    H236845   1.991   3.520   2.027  0.3126  0.4472  0.3916
 5096TIP3   OH236846   4.646   0.804   7.105 -0.3916  0.4112 -0.7274
 5096TIP3    H136847   4.723   0.788   7.161 -0.5725 -0.5287 -0.7520
 5096TIP3    H236848   4.591   0.727   7.117 -1.4282  1.1748 -0.5639
 5097TIP3   OH236849   6.640   3.957   0.643 -0.0515  0.3000 -0.6311
 5097TIP3    H136850   6.571   3.890   0.645  0.5569 -0.3343  3.2789
 5097TIP3    H236851   6.721   3.907   0.628  0.1695  0.3811  0.2625
 5098TIP3   OH236852   0.865   3.282   0.304  0.2093 -0.3941 -0.2829
 5098TIP3    H136853   0.836   3.207   0.356  0.6149  0.2363  0.8674
 5098TIP3    H236854   0.959   3.269   0.294  0.0322 -0.8418 -1.4063
 5099TIP3   OH236855   5.897   3.358   0.628  0.1685 -0.4014 -0.0061
 5099TIP3    H136856   5.870   3.387   0.541 -0.2468 -1.5766 -0.2845
 5099TIP3    H236857   5.948   3.431   0.663  0.2421  0.1313 -1.1868
 5100TIP3   OH236858   0.326   2.466   1.275  0.2329 -0.5648 -0.0511
 5100TIP3    H136859   0.258   2.484   1.210 -0.6537 -0.6136  0.8448
 5100TIP3    H236860   0.396   2.423   1.226  0.0473  0.3971 -1.1823
 5101TIP3   OH236861   3.320   6.878   1.475  0.7147  0.8143  0.8897
 5101TIP3    H136862   3.339   6.788   1.500  0.9700  0.9353  1.1354
 5101TIP3    H236863   3.276   6.915   1.552 -3.3080 -0.3220 -0.6846
 5102TIP3   OH236864   5.727   4.199   7.713  0.8196  0.1248  0.8097
 5102TIP3    H136865   5.688   4.240   7.636  0.1341 -0.4009  0.8787
 5102TIP3    H236866   5.660   4.139   7.746  1.8036 -1.0411  0.7283
 5103TIP3   OH236867   5.228   2.199   1.630  0.2980 -0.3151  0.5519
 5103TIP3    H136868   5.291   2.247   1.683 -0.4200 -0.4322  1.5261
 5103TIP3    H236869   5.149   2.253   1.631  0.7496  0.4318 -1.6801
 5104TIP3   OH236870   6.955   3.205   1.238 -0.0821 -0.2295  0.1611
 5104TIP3    H136871   6.906   3.269   1.186 -0.7854 -2.5347 -2.0600
 5104TIP3    H236872   7.047   3.232   1.229 -0.5784  2.1932  1.7153
 5105TIP3   OH236873   4.608   2.029   8.059  0.5927 -0.6920  0.0316
 5105TIP3    H136874   4.587   1.963   7.993  0.9850 -1.7039  0.8912
 5105TIP3    H236875   4.637   1.978   8.135  2.4829  0.5137  0.1637
 5106TIP3   OH236876   5.687   2.921   1.224 -0.1027  0.4098 -0.0179
 5106TIP3    H136877   5.648   3.008   1.224 -0.9044  0.0729 -1.6413
 5106TIP3    H236878   5.771   2.932   1.181 -0.4897  0.2672 -0.8162
 5107TIP3   OH236879   5.668   3.056   0.812 -0.1121 -0.1866 -0.8005
 5107TIP3    H136880   5.599   2.989   0.813  0.2887 -0.6068  0.7804
 5107TIP3    H236881   5.749   3.006   0.803  0.1163  0.1547 -0.6331
 5108TIP3   OH236882   2.766   1.700   0.648 -0.1777  0.5472 -0.1856
 5108TIP3    H136883   2.746   1.661   0.563 -0.3414 -1.1183  0.5903
 5108TIP3    H236884   2.859   1.679   0.662 -1.1606 -2.6920  1.8165
 5109TIP3   OH236885   3.370   3.852   1.773 -0.2534  0.5422 -0.2169
 5109TIP3    H136886   3.355   3.942   1.804  1.6013  0.7088  0.2067
 5109TIP3    H236887   3.309   3.799   1.824 -1.3225  1.5323 -0.4217
 5110TIP3   OH236888   4.893   2.918   1.031 -0.8204  0.3073 -0.2115
 5110TIP3    H136889   4.924   2.999   0.991 -0.4585 -0.1180 -0.8124
 5110TIP3    H236890   4.798   2.920   1.017 -0.9647  1.1783  0.8282
 5111TIP3   OH236891   4.311   3.316   7.345  0.5441  0.5179 -0.4751
 5111TIP3    H136892   4.233   3.353   7.304  0.7253  0.2089 -1.1019
 5111TIP3    H236893   4.285   3.227   7.370  0.5144  0.6178 -0.1453
 5112TIP3   OH236894   6.977   2.389   1.091  0.0012  0.1379  0.3526
 5112TIP3    H136895   6.957   2.408   1.182 -0.2938  1.2031  0.0712
 5112TIP3    H236896   7.057   2.439   1.072  1.8115 -2.4523  0.8738
 5113TIP3   OH236897   3.828   3.983   0.943  0.1957 -0.1239 -0.1743
 5113TIP3    H136898   3.896   3.928   0.980  1.3533  2.0859  1.0597
 5113TIP3    H236899   3.826   4.061   0.998 -3.2173 -0.0363 -0.2823
 5114TIP3   OH236900   3.218   3.683   1.929 -0.5183 -0.2155  0.1972
 5114TIP3    H136901   3.136   3.635   1.915  0.3277 -0.7915 -3.5372
 5114TIP3    H236902   3.283   3.614   1.947 -0.4466  0.0695  1.0460
 5115TIP3   OH236903   4.211   0.170   0.311 -0.0956 -0.1044  0.2349
 5115TIP3    H136904   4.224   0.147   0.403 -2.0431 -3.1759 -0.1544
 5115TIP3    H236905   4.287   0.134   0.266  0.3909  0.5633  0.5185
 5116TIP3   OH236906   5.140   1.651   7.831 -0.0642 -0.9766 -0.1284
 5116TIP3    H136907   5.201   1.722   7.851 -1.0539  0.0283 -0.6290
 5116TIP3    H236908   5.106   1.624   7.916 -1.4566  0.7626 -0.1003
 5117TIP3   OH236909   5.632   7.114   0.802 -0.3304 -0.8928 -0.4048
 5117TIP3    H136910   5.625   7.168   0.880  0.5467  0.0646 -0.9789
 5117TIP3    H236911   5.719   7.073   0.809 -0.7823 -1.8513 -0.2255
 5118TIP3   OH236912   6.548   3.384   0.976 -0.2346  0.1227 -0.1282
 5118TIP3    H136913   6.479   3.450   0.970 -1.1326 -0.8473 -0.4483
 5118TIP3    H236914   6.507   3.308   1.016  0.7743 -0.2933  0.1518
 5119TIP3   OH236915   3.829   1.929   0.659  0.0968 -0.2809 -0.5188
 5119TIP3    H136916   3.846   2.019   0.632  0.3926 -0.7411 -1.9044
 5119TIP3    H236917   3.892   1.877   0.610 -0.6638 -1.3278 -0.3950
 5120TIP3   OH236918   0.634   0.744   0.320  0.4303  0.2018  0.1922
 5120TIP3    H136919   0.581   0.664   0.321  0.5525  0.0957 -0.8928
 5120TIP3    H236920   0.721   0.714   0.293  0.5399  0.6644  0.0306
 5121TIP3   OH236921   3.251   2.507   0.504  0.9743 -0.2764 -0.6001
 5121TIP3    H136922   3.243   2.527   0.598  2.0095  1.1576 -0.8071
 5121TIP3    H236923   3.167   2.466   0.482  0.2715  0.4000  0.7114
 5122TIP3   OH236924   6.366   4.093   7.390  0.5172  0.0427 -0.3600
 5122TIP3    H136925   6.362   4.070   7.297 -0.6255  1.4598 -0.6873
 5122TIP3    H236926   6.453   4.131   7.402  0.4892  0.3014 -0.9731
 5123TIP3   OH236927   5.004   2.832   0.004 -0.5275  0.1430  0.2079
 5123TIP3    H136928   5.091   2.854  -0.030 -0.2441 -0.4073  0.5769
 5123TIP3    H236929   4.961   2.917   0.016  0.0633  0.4297  0.3074
 5124TIP3   OH236930   4.731   3.586   1.596  0.4004 -0.9079 -0.2265
 5124TIP3    H136931   4.675   3.508   1.603 -1.1556  0.2446  0.3617
 5124TIP3    H236932   4.772   3.595   1.682  0.7688 -1.1972 -0.3674
 5125TIP3   OH236933   6.082   5.986   0.527 -0.2443 -0.4462 -0.8066
 5125TIP3    H136934   6.020   5.913   0.532  0.5270 -1.0504 -0.0716
 5125TIP3    H236935   6.032   6.061   0.560  0.2750 -1.5084  2.5334
 5126TIP3   OH236936   1.459   6.301   7.301 -0.2718 -0.1619 -0.1238
 5126TIP3    H136937   1.549   6.277   7.280  0.6978  1.9834  1.3379
 5126TIP3    H236938   1.468   6.362   7.374 -2.9297 -0.0038  0.0911
 5127TIP3   OH236939   6.685   6.962   7.965 -0.2941 -0.4165  0.1876
 5127TIP3    H136940   6.700   6.869   7.984 -0.0164  0.1687  2.9452
 5127TIP3    H236941   6.760   6.988   7.912 -0.4703 -1.8020 -0.7818
 5128TIP3   OH236942   0.052   3.368   1.487  0.4204  0.7665  0.3350
 5128TIP3    H136943  -0.037   3.382   1.519  0.3247 -0.6156  0.6785
 5128TIP3    H236944   0.076   3.281   1.518  2.1803  1.4293  0.8879
 5129TIP3   OH236945   3.891   0.418   1.564  0.7869 -0.6090 -0.2567
 5129TIP3    H136946   3.951   0.375   1.624  0.9796 -2.1700 -1.5508
 5129TIP3    H236947   3.807   0.419   1.610  0.8678 -2.0449 -0.0717
 5130TIP3   OH236948   1.662   5.101   6.778 -0.0774 -0.3336  0.0914
 5130TIP3    H136949   1.663   5.012   6.741 -1.0169 -1.0576  1.7676
 5130TIP3    H236950   1.696   5.090   6.867 -2.8379  0.5215  1.2918
 5131TIP3   OH236951   5.964   1.679   6.762  0.1792 -0.4606 -0.1761
 5131TIP3    H136952   5.887   1.706   6.712  0.0721 -1.3538 -0.5028
 5131TIP3    H236953   5.928   1.646   6.845  0.2306 -0.5635 -0.1946
 5132TIP3   OH236954   1.024   1.321   1.080  0.5721  0.0404  0.0350
 5132TIP3    H136955   1.019   1.407   1.122  0.3894 -0.1778  0.4644
 5132TIP3    H236956   0.934   1.289   1.080  0.4221  0.4633 -1.4347
 5133TIP3   OH236957   0.985   3.695   1.391 -0.5706 -0.4113 -1.3566
 5133TIP3    H136958   0.918   3.633   1.420  1.3346 -1.9840 -0.2007
 5133TIP3    H236959   0.945   3.781   1.402 -0.7131 -1.0225  4.0361
 5134TIP3   OH236960   5.466   6.859   1.549 -0.6421 -0.4511 -0.6702
 5134TIP3    H136961   5.505   6.930   1.598 -2.5793 -0.2026  0.5748
 5134TIP3    H236962   5.537   6.796   1.535  0.4239  0.4609  0.6103
 5135TIP3   OH236963   2.556   2.369   2.090  0.2089  0.1000 -0.6384
 5135TIP3    H136964   2.577   2.452   2.046 -0.6855  0.6075 -0.1155
 5135TIP3    H236965   2.626   2.359   2.155 -0.6499  1.3603  0.5173
 5136TIP3   OH236966   6.072   4.155   1.358  0.1402  0.4682 -0.1319
 5136TIP3    H136967   6.139   4.216   1.389 -1.1232  1.4757  0.6745
 5136TIP3    H236968   6.020   4.205   1.296 -1.8950  0.7301  1.7430
 5137TIP3   OH236969   3.783   2.736   0.915 -0.5394  0.4028  0.3017
 5137TIP3    H136970   3.689   2.732   0.934 -0.3761 -0.4873  0.9342
 5137TIP3    H236971   3.792   2.700   0.827 -0.6428 -0.8058  0.7719
 5138TIP3   OH236972   5.950   5.941   7.507  0.0206  0.0811 -0.5075
 5138TIP3    H136973   6.018   6.004   7.483  0.8405 -0.1137  1.1775
 5138TIP3    H236974   5.992   5.855   7.495 -0.0701 -0.0526  0.1186
 5139TIP3   OH236975   6.003   2.718   7.130  0.4585 -0.1638 -0.5193
 5139TIP3    H136976   5.920   2.712   7.178  0.2316  1.9654 -0.6106
 5139TIP3    H236977   5.977   2.718   7.038  0.6764 -0.9684 -0.5865
 5140TIP3   OH236978   0.509   3.879   7.684  0.6609 -0.8327  0.2846
 5140TIP3    H136979   0.538   3.791   7.660  0.2823 -1.2999  1.5046
 5140TIP3    H236980   0.581   3.936   7.656  1.8438 -1.7525  1.4087
 5141TIP3   OH236981   1.945   0.893   1.723  0.6231 -0.2751  0.5396
 5141TIP3    H136982   1.886   0.902   1.797 -0.7456  0.3632 -0.6015
 5141TIP3    H236983   1.893   0.849   1.656  1.0730  1.3041 -0.8751
 5142TIP3   OH236984   1.202   5.174   7.672 -0.2609 -0.3141  0.0144
 5142TIP3    H136985   1.111   5.193   7.647 -0.3190 -1.4729 -0.6885
 5142TIP3    H236986   1.239   5.260   7.692 -1.3142  0.2467 -0.3668
 5143TIP3   OH236987   3.418   0.356   0.293 -0.1456 -0.7052  0.2736
 5143TIP3    H136988   3.400   0.320   0.380  0.6735 -1.1879  0.2482
 5143TIP3    H236989   3.439   0.280   0.239 -2.0627 -0.5522 -0.7148
 5144TIP3   OH236990   4.142   2.046   8.050  0.2901  0.3077  0.0706
 5144TIP3    H136991   4.204   2.118   8.043 -0.5785  1.0361 -0.2464
 5144TIP3    H236992   4.196   1.968   8.065  1.4278  0.5761 -2.4196
 5145TIP3   OH236993   6.635   3.850   1.021  0.5021 -0.2230  0.1834
 5145TIP3    H136994   6.544   3.876   1.035  1.1340  2.5246 -0.3762
 5145TIP3    H236995   6.634   3.804   0.937 -0.4906 -0.9891  0.6010
 5146TIP3   OH236996   1.693   3.414   7.804  0.5126  0.8813  0.3843
 5146TIP3    H136997   1.697   3.406   7.899  0.6306  0.8058  0.3726
 5146TIP3    H236998   1.673   3.326   7.773 -2.5197  1.4635  0.5122
 5147TIP3   OH236999   6.222   3.213   1.217  0.0015 -0.5213  0.5934
 5147TIP3    H137000   6.261   3.274   1.279 -1.0636 -1.0906  1.8583
 5147TIP3    H237001   6.134   3.197   1.251  0.0134 -2.2068 -0.0909
 5148TIP3   OH237002   6.821   0.948   7.026 -0.6017 -0.3041  0.0093
 5148TIP3    H137003   6.886   0.950   6.956  0.1297  1.9077  0.7251
 5148TIP3    H237004   6.790   0.857   7.027  0.6385 -0.7789 -2.0062
 5149TIP3   OH237005   4.878   6.244   0.760 -0.2451  0.6557 -0.3718
 5149TIP3    H137006   4.950   6.215   0.704 -1.0460 -1.4597 -0.3769
 5149TIP3    H237007   4.800   6.209   0.716 -0.9778 -0.0112  1.4344
 5150TIP3   OH237008   1.193   6.338   0.274 -0.1059 -0.4388  0.7840
 5150TIP3    H137009   1.219   6.270   0.335 -0.9536  0.4683  2.1788
 5150TIP3    H237010   1.117   6.380   0.315  0.1453  1.0610 -0.2434
 5151TIP3   OH237011   0.059   2.975   2.083 -0.1274  0.4346 -0.6883
 5151TIP3    H137012  -0.028   3.008   2.106  0.5220  2.0075 -0.3851
 5151TIP3    H237013   0.118   3.018   2.146  0.4798 -3.5445  1.6545
 5152TIP3   OH237014   0.115   0.400   7.778 -0.7014 -0.0610  0.1440
 5152TIP3    H137015   0.056   0.326   7.764  0.1221 -0.6854 -0.0620
 5152TIP3    H237016   0.174   0.370   7.847 -2.4863  1.6690  2.5323
 5153TIP3   OH237017   6.953   3.869   1.057  0.3914 -0.5722 -0.0975
 5153TIP3    H137018   6.878   3.821   1.020 -0.0863  0.2592 -0.2116
 5153TIP3    H237019   6.914   3.940   1.106  1.1058 -0.3313  0.1185
 5154TIP3   OH237020   6.641   1.666   6.740 -0.7303 -0.6103 -0.0850
 5154TIP3    H137021   6.714   1.604   6.730 -0.9249 -0.7086 -0.9109
 5154TIP3    H237022   6.563   1.611   6.736 -0.8449 -0.6444  1.8276
 5155TIP3   OH237023   1.916   1.791   2.268  0.6526 -0.7344  0.1165
 5155TIP3    H137024   1.939   1.879   2.300 -0.0171 -0.1113 -1.1002
 5155TIP3    H237025   1.985   1.769   2.206  0.1775 -0.5656 -0.4747
 5156TIP3   OH237026   6.899   2.184   7.269 -0.2034 -1.4564  0.0321
 5156TIP3    H137027   6.839   2.211   7.199 -0.1977  0.3764  0.7188
 5156TIP3    H237028   6.984   2.220   7.245  0.2517 -2.5292 -0.0223
 5157TIP3   OH237029   1.856   3.000   1.383  0.0640  0.4571 -0.0795
 5157TIP3    H137030   1.816   2.932   1.437 -4.0496  2.2522 -0.6681
 5157TIP3    H237031   1.865   3.075   1.441 -1.3364  1.3507 -0.9616
 5158TIP3   OH237032   1.428   2.169   1.840  0.4951  0.3022 -0.1763
 5158TIP3    H137033   1.368   2.096   1.854  0.6503 -0.0494 -1.2949
 5158TIP3    H237034   1.371   2.244   1.824  0.3434  0.0032 -1.0644
 5159TIP3   OH237035   6.154   0.497   7.070 -0.3588  0.5353 -0.3502
 5159TIP3    H137036   6.196   0.465   7.149 -0.1985 -0.5628 -0.8665
 5159TIP3    H237037   6.147   0.591   7.082  2.1208  0.7166 -0.2055
 5160TIP3   OH237038   6.061   0.741   7.186  0.4951 -0.0515 -0.0999
 5160TIP3    H137039   6.104   0.819   7.219  0.4826  0.4472 -1.2376
 5160TIP3    H237040   5.976   0.772   7.153 -0.7014 -0.9977  1.9812
 5161TIP3   OH237041   5.585   5.092   6.676 -0.0338 -0.6430  0.3825
 5161TIP3    H137042   5.564   5.158   6.742 -1.7899  0.0147 -0.8053
 5161TIP3    H237043   5.603   5.013   6.726  0.0594  0.2100  1.7177
 5162TIP3   OH237044   1.033   3.925   1.854 -0.5261 -0.7555 -0.0428
 5162TIP3    H137045   1.056   3.969   1.936 -0.4168  1.0246 -0.9950
 5162TIP3    H237046   1.036   3.831   1.875  0.8155 -0.3645  1.6343
 5163TIP3   OH237047   1.244   1.969   2.004 -0.0431  0.3665  0.0567
 5163TIP3    H137048   1.162   2.015   1.984  1.7992  2.9666 -1.8597
 5163TIP3    H237049   1.276   2.012   2.083 -0.5389 -0.6994  0.8458
 5164TIP3   OH237050   5.398   2.163   0.111 -0.3959 -0.1796 -0.0031
 5164TIP3    H137051   5.352   2.183   0.029 -0.9746 -2.4818 -0.2809
 5164TIP3    H237052   5.339   2.192   0.180 -0.4658  0.5942 -0.3835
 5165TIP3   OH237053   0.542   1.109   7.197 -0.6900 -0.0057 -0.8215
 5165TIP3    H137054   0.545   1.037   7.135 -0.4885  0.4947 -1.4025
 5165TIP3    H237055   0.520   1.069   7.281 -0.9298 -0.6916 -1.2135
 5166TIP3   OH237056   3.302   3.685   1.165 -0.2207  0.0847  0.6745
 5166TIP3    H137057   3.329   3.644   1.248 -1.9888 -3.6674 -0.5077
 5166TIP3    H237058   3.213   3.654   1.151 -0.2157  1.2688 -2.2726
 5167TIP3   OH237059   2.033   4.405   1.946 -0.0895  0.5293  0.1700
 5167TIP3    H137060   2.122   4.372   1.938  0.4486  2.3374 -1.9365
 5167TIP3    H237061   1.977   4.329   1.928  1.0302 -0.4160  0.6250
 5168TIP3   OH237062   4.350   1.213   0.387 -0.0639 -0.4996  0.0847
 5168TIP3    H137063   4.291   1.161   0.442 -0.7039 -0.2037 -0.3156
 5168TIP3    H237064   4.437   1.188   0.415 -0.3900 -0.2222  1.3465
 5169TIP3   OH237065   6.436   1.638   1.489 -0.3463  0.5380 -0.2215
 5169TIP3    H137066   6.474   1.725   1.494 -0.4776  0.6287 -0.7861
 5169TIP3    H237067   6.376   1.633   1.564 -0.0714  0.8022  0.0109
 5170TIP3   OH237068   2.950   3.054   6.741 -0.1046 -0.2833  0.1267
 5170TIP3    H137069   2.946   3.122   6.809  2.2211  0.6342 -0.5979
 5170TIP3    H237070   2.901   3.090   6.668 -0.2482 -0.0687  0.3278
 5171TIP3   OH237071   1.638   4.746   0.255  0.0571  0.1164 -0.3375
 5171TIP3    H137072   1.587   4.826   0.240  1.0144  0.6405 -0.8648
 5171TIP3    H237073   1.630   4.697   0.173 -2.0291 -1.1981  0.6233
 5172TIP3   OH237074   3.728   1.308   7.059 -0.7186 -0.9271 -0.0728
 5172TIP3    H137075   3.766   1.221   7.043  1.0511  0.0617 -1.4616
 5172TIP3    H237076   3.732   1.319   7.154  3.1067 -0.6497 -0.1772
 5173TIP3   OH237077   0.098   6.108   7.063  0.6933  0.1739 -0.1080
 5173TIP3    H137078   0.149   6.152   6.995  0.5715  0.3356 -0.0951
 5173TIP3    H237079   0.029   6.062   7.016  1.1667 -0.4780 -0.1673
 5174TIP3   OH237080   6.922   5.046   2.259 -0.1297 -0.1258 -0.0223
 5174TIP3    H137081   6.849   5.012   2.208  0.0003  0.3620 -0.5355
 5174TIP3    H237082   6.941   5.132   2.220  0.2951  0.0275  0.5182
 5175TIP3   OH237083   2.684   4.425   1.841  0.4068 -0.0341 -0.2329
 5175TIP3    H137084   2.679   4.470   1.926 -0.8480  0.1317 -0.3850
 5175TIP3    H237085   2.613   4.361   1.843 -0.6938  1.0905 -1.7823
 5176TIP3   OH237086   4.308   1.835   1.365 -0.4091  0.3102 -0.5137
 5176TIP3    H137087   4.381   1.883   1.403 -1.0727  1.9271 -1.2207
 5176TIP3    H237088   4.301   1.869   1.276 -1.1426 -0.8199 -0.8946
 5177TIP3   OH237089   0.972   2.816   1.236 -0.2114  0.6374 -0.2914
 5177TIP3    H137090   0.982   2.771   1.152 -0.7989 -1.1801  0.5911
 5177TIP3    H237091   0.935   2.901   1.213  1.5036  0.9452 -2.0471
 5178TIP3   OH237092   5.369   1.424   1.810  0.1018 -0.1591 -0.1197
 5178TIP3    H137093   5.457   1.393   1.833  0.2162  0.1164 -0.1850
 5178TIP3    H237094   5.330   1.447   1.894  0.2250  0.0714 -0.1260
 5179TIP3   OH237095   5.408   3.170   0.936 -0.2254 -0.3111 -0.0477
 5179TIP3    H137096   5.491   3.215   0.922 -0.0776 -0.8285 -0.8820
 5179TIP3    H237097   5.371   3.160   0.848 -0.5684 -1.2180  0.1942
 5180TIP3   OH237098   7.016   5.213   7.849 -0.0876 -0.1754 -0.5859
 5180TIP3    H137099   6.964   5.180   7.775  1.0922  1.8655 -2.3804
 5180TIP3    H237100   7.099   5.166   7.843  0.3110  0.5669 -1.0946
 5181TIP3   OH237101   0.876   0.475   1.225  0.2548 -0.2511 -0.2362
 5181TIP3    H137102   0.918   0.389   1.231 -0.0116 -0.4311 -0.9374
 5181TIP3    H237103   0.796   0.466   1.276  0.6895 -0.1339  0.4728
 5182TIP3   OH237104   6.884   1.908   0.802 -0.3737 -0.0997  1.0403
 5182TIP3    H137105   6.951   1.859   0.849 -0.0779  0.5378  1.2844
 5182TIP3    H237106   6.851   1.846   0.737  2.3652  0.4336 -0.9405
 5183TIP3   OH237107   6.285   5.449   1.023 -0.1344  0.8336 -0.3041
 5183TIP3    H137108   6.219   5.414   0.963 -1.0944  0.8391  0.7309
 5183TIP3    H237109   6.329   5.372   1.058 -1.3593  0.6852  0.9705
 5184TIP3   OH237110   1.167   2.665   7.558  0.4092  0.6731 -0.0418
 5184TIP3    H137111   1.105   2.721   7.511  0.1761 -0.4544 -1.1011
 5184TIP3    H237112   1.248   2.716   7.561  0.3190  0.9064 -1.3616
 5185TIP3   OH237113   1.886   1.945   7.904 -0.4969  0.3381 -0.8892
 5185TIP3    H137114   1.975   1.915   7.884 -0.5707  0.0375 -0.7666
 5185TIP3    H237115   1.853   1.881   7.968  0.3931  2.3215  1.6181
 5186TIP3   OH237116   5.784   2.674   8.073 -0.7509  0.3093  0.5001
 5186TIP3    H137117   5.852   2.738   8.091 -2.0636  1.5006  1.3383
 5186TIP3    H237118   5.740   2.661   8.157 -2.4197  0.5896 -0.3054
 5187TIP3   OH237119   6.380   6.041   6.616  0.3267  0.2776  0.3350
 5187TIP3    H137120   6.292   6.060   6.581 -0.2898 -2.4071  0.3740
 5187TIP3    H237121   6.385   6.093   6.696 -1.9177 -0.8411  1.2576
 5188TIP3   OH237122   0.883   1.500   2.052 -0.2570  0.4518  0.2928
 5188TIP3    H137123   0.974   1.482   2.075  0.1360 -0.5667 -1.9465
 5188TIP3    H237124   0.833   1.433   2.099  0.4481 -1.0588 -1.0922
 5189TIP3   OH237125   5.760   1.013   8.026 -0.6666 -0.3462  0.1774
 5189TIP3    H137126   5.769   1.077   8.097  1.2367 -0.3133 -0.0616
 5189TIP3    H237127   5.784   0.930   8.067  2.3210 -0.0552 -0.8240
 5190TIP3   OH237128   0.600   2.755   0.621  0.7566 -0.1312  0.6624
 5190TIP3    H137129   0.543   2.826   0.651  1.2671 -0.1829  1.7797
 5190TIP3    H237130   0.688   2.794   0.621  1.2354 -1.1242  2.6012
 5191TIP3   OH237131   1.879   0.407   1.887  0.2878 -0.4138 -0.4506
 5191TIP3    H137132   1.868   0.475   1.953  0.4928  0.1214 -0.9583
 5191TIP3    H237133   1.794   0.402   1.843  0.0455 -1.0195  0.0918
 5192TIP3   OH237134   0.223   1.256   7.893  0.2778 -0.3712 -0.0446
 5192TIP3    H137135   0.284   1.301   7.951  0.0390  0.1237 -0.1776
 5192TIP3    H237136   0.268   1.253   7.808  0.7784 -1.4122  0.2413
 5193TIP3   OH237137   7.064   1.303   7.833  0.2506 -0.0092  0.6651
 5193TIP3    H137138   7.019   1.361   7.895 -0.0388 -0.3784  0.8032
 5193TIP3    H237139   7.153   1.297   7.866  0.4942  1.0015  0.2024
 5194TIP3   OH237140   4.810   5.250   7.983 -0.4579  0.4793  0.2166
 5194TIP3    H137141   4.828   5.173   8.037  0.1095  0.1579 -0.4242
 5194TIP3    H237142   4.727   5.229   7.940  0.4626 -0.4583 -1.1512
 5195TIP3   OH237143   5.925   1.519   2.024  0.8761  0.1960  0.0072
 5195TIP3    H137144   5.861   1.563   1.968  0.6597  1.5870  1.3181
 5195TIP3    H237145   5.994   1.491   1.964  0.0461  0.5419 -1.1333
 5196TIP3   OH237146   4.823   6.585   7.336 -0.0935 -0.0685  0.4675
 5196TIP3    H137147   4.871   6.637   7.271 -0.5442 -0.1914  0.0346
 5196TIP3    H237148   4.890   6.553   7.396  0.2740  0.4082  0.3111
 5197TIP3   OH237149   2.395   2.593   0.044 -0.3099  0.5572  0.4096
 5197TIP3    H137150   2.355   2.589   0.131 -1.6945 -0.7819 -0.2510
 5197TIP3    H237151   2.355   2.520  -0.003  2.8689 -0.7649 -0.3334
 5198TIP3   OH237152   1.836   4.868   0.800 -0.6006 -0.2351 -0.2035
 5198TIP3    H137153   1.825   4.962   0.810  0.9176 -0.1318  0.5487
 5198TIP3    H237154   1.864   4.837   0.886 -0.6012 -1.3106 -0.5751
 5199TIP3   OH237155   4.641   6.328   7.878 -0.1126  0.4454  0.3342
 5199TIP3    H137156   4.592   6.310   7.798 -0.7787  0.2839  0.7817
 5199TIP3    H237157   4.587   6.293   7.948  1.5893 -1.6236  0.6655
 5200TIP3   OH237158   4.941   5.782   7.371  0.1933  0.3493 -0.0051
 5200TIP3    H137159   4.932   5.687   7.382 -0.5769  0.4314  0.1025
 5200TIP3    H237160   4.971   5.793   7.281 -0.4413  0.0453 -0.2508
 5201TIP3   OH237161   0.372   3.339   1.716  0.0973 -0.0975 -0.3095
 5201TIP3    H137162   0.345   3.295   1.636 -0.4305  0.2750 -0.3406
 5201TIP3    H237163   0.346   3.430   1.703 -2.2537 -0.5012  1.2891
 5202TIP3   OH237164   4.440   0.859   1.026  0.5753 -0.5449 -0.4108
 5202TIP3    H137165   4.474   0.920   0.961 -1.1326 -0.5231 -1.3108
 5202TIP3    H237166   4.383   0.800   0.977 -0.1099 -1.0205  0.9226
 5203TIP3   OH237167   5.149   4.914   1.775  0.5123  0.5377  0.1181
 5203TIP3    H137168   5.078   4.851   1.788  0.6902  0.8358  2.8705
 5203TIP3    H237169   5.229   4.864   1.792  0.7515  1.1212  0.6838
 5204TIP3   OH237170   6.144   6.302   1.824  0.3368  0.0102 -0.3764
 5204TIP3    H137171   6.199   6.344   1.759  0.6758  0.7549  0.3802
 5204TIP3    H237172   6.194   6.307   1.905 -0.7805  0.6000  0.2965
 5205TIP3   OH237173   6.067   2.324   1.259  0.4785  0.5019 -0.2509
 5205TIP3    H137174   6.075   2.392   1.193 -1.4055 -0.6718 -1.7519
 5205TIP3    H237175   6.013   2.256   1.217  2.2704 -1.8886  1.1996
 5206TIP3   OH237176   0.878   3.716   7.077 -0.3464  0.0278 -0.0644
 5206TIP3    H137177   0.873   3.795   7.132  3.3079  0.0223  0.3814
 5206TIP3    H237178   0.890   3.644   7.140  3.6722 -0.0035 -0.7237
 5207TIP3   OH237179   7.044   2.855   8.065 -0.4522  0.2970 -0.4434
 5207TIP3    H137180   7.038   2.844   7.970 -0.0480 -1.6083 -0.2816
 5207TIP3    H237181   7.020   2.769   8.100  1.2749  0.4213  1.1026
 5208TIP3   OH237182   0.456   1.738   7.840 -0.0579  0.1981 -0.0798
 5208TIP3    H137183   0.381   1.683   7.817 -1.0180  1.3635  0.1882
 5208TIP3    H237184   0.454   1.808   7.776  1.7654 -0.6084 -1.0354
 5209TIP3   OH237185   6.838   3.029   1.823 -0.2042  0.3172 -0.2208
 5209TIP3    H137186   6.804   2.950   1.866  3.7058 -1.1893  0.3394
 5209TIP3    H237187   6.851   3.003   1.732  1.8451 -0.0320  0.1325
 5210TIP3   OH237188   1.739   1.574   1.824 -0.0946  0.8459  0.0645
 5210TIP3    H137189   1.787   1.539   1.899 -1.4507 -1.9792 -0.3247
 5210TIP3    H237190   1.778   1.529   1.748 -1.2268  0.8627 -0.5396
 5211TIP3   OH237191   1.388   5.181   1.361 -0.9871  0.0119  0.2378
 5211TIP3    H137192   1.404   5.233   1.439  0.8012  0.2154 -0.2330
 5211TIP3    H237193   1.468   5.129   1.350 -1.5530 -0.6239 -0.9731
 5212TIP3   OH237194   6.289   0.410   1.834  0.6297 -0.3638 -0.5977
 5212TIP3    H137195   6.254   0.355   1.905  0.2206 -1.1904 -1.4309
 5212TIP3    H237196   6.376   0.435   1.865 -0.2608  0.8146  1.0094
 5213TIP3   OH237197   6.692   4.891   1.857 -0.2785  0.5353 -0.4066
 5213TIP3    H137198   6.729   4.821   1.910 -0.6457 -0.1804 -1.0914
 5213TIP3    H237199   6.727   4.971   1.896  1.8471 -0.1122 -0.9190
 5214TIP3   OH237200   6.404   3.945   7.740  0.2400  0.3330  0.2216
 5214TIP3    H137201   6.408   4.040   7.752  1.4984  0.0826  1.9230
 5214TIP3    H237202   6.494   3.919   7.723 -0.1697 -0.5250 -0.6936
 5215TIP3   OH237203   2.057   0.252   0.896  0.3453  0.1714  0.0906
 5215TIP3    H137204   2.080   0.243   0.804 -0.9292 -0.9259 -0.1386
 5215TIP3    H237205   2.074   0.344   0.916  2.7041 -0.0646 -0.6381
 5216TIP3   OH237206   6.023   0.006   7.099 -0.8750  0.3303  0.1235
 5216TIP3    H137207   5.968  -0.052   7.152 -0.0729  0.1693  0.7869
 5216TIP3    H237208   6.101  -0.046   7.079 -0.4858  0.9195  0.0870
 5217TIP3   OH237209   6.367   2.186   0.205  0.1472 -0.6278  0.1085
 5217TIP3    H137210   6.447   2.231   0.179 -0.9102  0.0606 -2.1061
 5217TIP3    H237211   6.387   2.093   0.192  0.4655 -0.4372 -0.7770
 5218TIP3   OH237212   2.571   2.283   1.577  0.1159 -0.0877 -0.0920
 5218TIP3    H137213   2.638   2.243   1.633  0.7812  2.1071  0.7664
 5218TIP3    H237214   2.495   2.293   1.635 -0.0158 -0.0586 -0.2710
 5219TIP3   OH237215   5.633   4.653   0.251 -0.0040 -0.0922 -0.8932
 5219TIP3    H137216   5.655   4.725   0.192  0.2892  1.2648  0.8272
 5219TIP3    H237217   5.549   4.678   0.289 -0.7704 -1.5220 -1.5950
 5220TIP3   OH237218   6.293   2.142   1.935  0.1524 -0.0333 -0.1022
 5220TIP3    H137219   6.303   2.229   1.974  0.1448 -0.6907  1.4061
 5220TIP3    H237220   6.307   2.082   2.008 -1.7241 -1.2562 -0.7110
 5221TIP3   OH237221   0.181   2.737   1.653 -0.5431  0.6220 -0.2212
 5221TIP3    H137222   0.157   2.666   1.712  0.4868 -0.6094 -1.2448
 5221TIP3    H237223   0.187   2.815   1.709 -0.4579 -0.3403  1.1247
 5222TIP3   OH237224   5.234   2.588   0.100 -0.0351 -0.4137  0.3693
 5222TIP3    H137225   5.245   2.656   0.167  1.4254  0.0484 -0.3168
 5222TIP3    H237226   5.210   2.636   0.021  0.8954 -0.7035 -0.0926
 5223TIP3   OH237227   3.219   1.709   1.704  0.0293  0.0347  0.4313
 5223TIP3    H137228   3.130   1.701   1.670 -0.2657  0.5192  1.0813
 5223TIP3    H237229   3.250   1.794   1.671  0.6256 -0.5932 -0.6471
 5224TIP3   OH237230   4.417   0.593   8.019  0.0363 -0.1627  0.1715
 5224TIP3    H137231   4.380   0.679   8.038  2.9311  0.8707  1.3773
 5224TIP3    H237232   4.408   0.544   8.100 -0.3295 -0.5300 -0.0881
 5225TIP3   OH237233   3.150   5.518   6.655  0.2031 -0.3082 -0.1210
 5225TIP3    H137234   3.064   5.513   6.613  0.1226 -1.7971  0.1729
 5225TIP3    H237235   3.136   5.570   6.734 -0.3727 -0.3048 -0.2235
 5226TIP3   OH237236   4.979   4.167   0.972 -0.3560  0.0154  0.6879
 5226TIP3    H137237   4.964   4.142   1.064 -0.8699 -0.7524  0.3987
 5226TIP3    H237238   5.039   4.099   0.939 -0.0236  0.3956  0.5073
 5227TIP3   OH237239   1.492   0.045   0.508 -0.3821 -0.5276 -0.6788
 5227TIP3    H137240   1.571   0.029   0.457  0.6636 -0.3993  0.8775
 5227TIP3    H237241   1.501   0.135   0.538 -1.1740 -0.4831 -0.5538
 5228TIP3   OH237242   0.146   6.672   7.222  0.3952 -0.4322 -0.1170
 5228TIP3    H137243   0.151   6.616   7.299  1.2452 -0.8994 -0.4948
 5228TIP3    H237244   0.052   6.680   7.204  0.2518 -1.6493  0.0146
 5229TIP3   OH237245   6.385   3.443   0.205  0.5596  0.2407 -0.2036
 5229TIP3    H137246   6.416   3.504   0.138  1.0234 -0.5388 -0.7020
 5229TIP3    H237247   6.461   3.427   0.260  0.9347 -1.2959 -1.1437
 5230TIP3   OH237248   6.665   2.561   1.468 -0.0552 -0.2817 -0.3605
 5230TIP3    H137249   6.693   2.652   1.477  0.7049 -0.0876 -4.0367
 5230TIP3    H237250   6.584   2.566   1.418 -1.0993 -1.5322  1.1646
 5231TIP3   OH237251   5.999   1.625   1.065 -0.3899  0.6286  0.0820
 5231TIP3    H137252   6.080   1.598   1.109  0.9010  1.8380 -1.4739
 5231TIP3    H237253   5.978   1.710   1.103  1.1331  2.0194 -2.0611
 5232TIP3   OH237254   6.533   5.124   1.671  0.5836 -0.2827 -0.6177
 5232TIP3    H137255   6.477   5.091   1.601  1.6799 -0.5331 -1.4074
 5232TIP3    H237256   6.479   5.121   1.749 -0.1360 -1.6201 -1.1457
 5233TIP3   OH237257   6.146   5.372   7.548 -0.1236  0.2997 -0.3067
 5233TIP3    H137258   6.108   5.437   7.607  0.1174 -0.5573  0.8038
 5233TIP3    H237259   6.074   5.314   7.526  0.1419 -0.3045  0.4085
 5234TIP3   OH237260   6.184   5.754   1.446  0.2621 -0.6102  0.0321
 5234TIP3    H137261   6.131   5.744   1.525  0.5422  2.0519  0.6130
 5234TIP3    H237262   6.274   5.758   1.477  0.5359 -1.5626 -0.6190
 5235TIP3   OH237263   5.741   2.059   7.845  0.0350 -0.2727 -0.2673
 5235TIP3    H137264   5.792   1.980   7.859 -0.6003 -0.8585 -1.1852
 5235TIP3    H237265   5.654   2.028   7.822 -0.9319  0.7247  1.9113
 5236TIP3   OH237266   1.063   5.541   1.725 -0.2515 -0.1868  0.2752
 5236TIP3    H137267   1.076   5.575   1.814 -0.9428 -0.6080  0.5471
 5236TIP3    H237268   1.073   5.446   1.734  0.2373 -0.1789 -0.2043
 5237TIP3   OH237269   1.280   6.839   1.731 -0.4802  0.2322  0.3990
 5237TIP3    H137270   1.274   6.908   1.797 -2.3770  0.5300 -0.0682
 5237TIP3    H237271   1.243   6.762   1.774  0.2062 -0.1015  0.3902
 5238TIP3   OH237272   1.737   4.352   0.994  0.0794  0.1337  0.0096
 5238TIP3    H137273   1.721   4.421   1.059 -0.1482  0.3727 -0.2989
 5238TIP3    H237274   1.744   4.399   0.911 -0.8966 -0.2849 -0.3171
 5239TIP3   OH237275   5.327   2.388   0.687  0.4684 -0.1562  0.1884
 5239TIP3    H137276   5.233   2.383   0.699  0.3948  2.4054  1.1334
 5239TIP3    H237277   5.361   2.412   0.773  1.8811 -0.1668 -0.3500
 5240TIP3   OH237278   5.077   6.472   0.381  0.0348  0.0514  0.4305
 5240TIP3    H137279   4.981   6.473   0.380  0.0365  0.7946  0.3780
 5240TIP3    H237280   5.100   6.382   0.401 -0.6750 -0.2387 -0.0258
 5241TIP3   OH237281   0.545   3.485   0.591 -0.1235 -0.0887  0.1118
 5241TIP3    H137282   0.467   3.430   0.584  0.8518 -1.5071  0.2209
 5241TIP3    H237283   0.576   3.472   0.681  0.7554 -0.2395 -0.2105
 5242TIP3   OH237284   6.624   2.490   7.193  0.3143 -0.3851  0.3746
 5242TIP3    H137285   6.557   2.539   7.145  0.8151  1.4385  1.4806
 5242TIP3    H237286   6.594   2.490   7.284  0.5177 -1.8277  0.4593
 5243TIP3   OH237287   6.201   2.182   0.416  0.1427  0.3633 -0.3626
 5243TIP3    H137288   6.154   2.108   0.378 -0.2671  0.9335 -0.9785
 5243TIP3    H237289   6.274   2.197   0.355 -0.4396  1.1995 -0.8574
 5244TIP3   OH237290   6.904   0.248   2.322  0.3787  0.4244  0.6942
 5244TIP3    H137291   6.997   0.226   2.333  0.2053 -0.7781 -0.2454
 5244TIP3    H237292   6.904   0.320   2.259  0.5733 -0.7372 -0.6598
 5245TIP3   OH237293   3.731   2.877   0.183 -0.2737 -0.0035  0.7910
 5245TIP3    H137294   3.811   2.928   0.196  0.9296 -1.8826  0.9794
 5245TIP3    H237295   3.690   2.874   0.270  0.7525 -1.1488  1.2373
 5246TIP3   OH237296   5.989   2.919   6.070 -0.2649  0.0265  0.4343
 5246TIP3    H137297   5.985   2.888   5.979 -1.0201 -0.6464  0.6880
 5246TIP3    H237298   6.049   2.994   6.067  0.0543 -0.2540 -0.5420
 5247TIP3   OH237299   5.865   4.069   1.782 -0.1434 -0.0336  0.1340
 5247TIP3    H137300   5.906   4.156   1.784  3.2507 -1.5516  1.2343
 5247TIP3    H237301   5.937   4.009   1.760 -2.0167 -2.7494  1.1465
 5248TIP3   OH237302   5.692   1.565   1.859 -0.1444 -0.4997 -0.2815
 5248TIP3    H137303   5.666   1.474   1.877  0.5641 -0.5638  0.4567
 5248TIP3    H237304   5.675   1.611   1.941 -0.7524  0.0962 -0.7396
 5249TIP3   OH237305   3.023   1.536   7.101  0.3936 -0.2928  0.3533
 5249TIP3    H137306   3.104   1.526   7.152 -0.6827 -2.6319  1.6691
 5249TIP3    H237307   3.049   1.517   7.011  1.2515 -1.4490  0.8287
 5250TIP3   OH237308   4.475   3.152   2.117  0.3130 -0.3500 -0.0248
 5250TIP3    H137309   4.547   3.090   2.129  0.5500 -0.2978 -1.0857
 5250TIP3    H237310   4.516   3.229   2.078  0.1403  0.7590  1.9477
 5251TIP3   OH237311   5.043   4.184   7.059  0.4306 -0.3457  0.1277
 5251TIP3    H137312   4.990   4.252   7.019 -1.3361 -0.9090  1.4498
 5251TIP3    H237313   5.060   4.216   7.148  1.1386 -0.8052  0.1610
 5252TIP3   OH237314   4.952   0.705   1.471  0.2363  0.5250  0.0569
 5252TIP3    H137315   4.975   0.613   1.488  1.0204  0.2406 -2.4418
 5252TIP3    H237316   4.858   0.710   1.490 -0.4433 -1.4888 -2.5402
 5253TIP3   OH237317   1.848   0.104   0.626 -0.0286  0.5055  0.1468
 5253TIP3    H137318   1.936   0.140   0.625 -1.4325  4.1146 -0.2913
 5253TIP3    H237319   1.849   0.035   0.559  2.6557 -0.0900  0.7707
 5254TIP3   OH237320   5.143   5.517   7.936  0.0061  0.2447 -0.3240
 5254TIP3    H137321   5.145   5.582   8.006  0.4230  0.5651 -0.6369
 5254TIP3    H237322   5.100   5.562   7.863 -0.5216 -0.1221 -0.2486
 5255TIP3   OH237323   2.579   0.238   1.062 -0.6190 -0.0885  0.5413
 5255TIP3    H137324   2.671   0.211   1.062 -0.4498  0.3818 -1.1493
 5255TIP3    H237325   2.547   0.216   1.149  0.8477 -1.1118  0.8400
 5256TIP3   OH237326   6.314   2.032   0.647 -0.2717 -0.7447  0.9676
 5256TIP3    H137327   6.258   1.955   0.652  0.2042 -1.0397  1.8613
 5256TIP3    H237328   6.274   2.087   0.579 -0.2694 -2.0476 -0.1136
 5257TIP3   OH237329   0.062   2.277   1.292  0.2399  0.3615 -0.2428
 5257TIP3    H137330   0.007   2.325   1.354  0.2525  1.0427 -0.7516
 5257TIP3    H237331   0.151   2.290   1.323  0.3849  1.9797 -1.2369
 5258TIP3   OH237332   6.091   0.734   1.746  0.1319  0.7056 -0.0384
 5258TIP3    H137333   6.008   0.780   1.732 -0.6476 -1.1883 -2.0113
 5258TIP3    H237334   6.071   0.668   1.812  0.5483  1.4264  0.8133
 5259TIP3   OH237335   3.512   0.261   8.050  0.5370 -0.4100 -0.0920
 5259TIP3    H137336   3.459   0.340   8.034  0.5702 -0.4127 -0.2166
 5259TIP3    H237337   3.564   0.251   7.970  2.2336  0.7810  0.8242
 5260TIP3   OH237338   2.585   0.776   0.024  0.3672 -0.4253 -0.2293
 5260TIP3    H137339   2.584   0.746  -0.067  3.0460 -1.0369 -0.0781
 5260TIP3    H237340   2.675   0.802   0.041 -0.2211  0.2543  2.0901
 5261TIP3   OH237341   3.574   3.499   1.273  0.0488  0.1401  0.0318
 5261TIP3    H137342   3.597   3.415   1.234 -0.2349  0.4369 -0.7802
 5261TIP3    H237343   3.638   3.561   1.237  1.6705 -0.1167  2.3480
 5262TIP3   OH237344   5.250   2.798   0.269 -0.3962  0.0812  0.2499
 5262TIP3    H137345   5.274   2.738   0.339 -2.5568 -0.1299  0.8316
 5262TIP3    H237346   5.326   2.856   0.259  0.1845 -0.3236  2.2858
 5263TIP3   OH237347   0.608   2.759   1.207 -0.1673  0.1152  0.3594
 5263TIP3    H137348   0.642   2.808   1.282  0.0375 -1.6286  1.4454
 5263TIP3    H237349   0.583   2.674   1.244 -0.1305 -0.7455 -1.5477
 5264TIP3   OH237350   1.667   5.661   1.123  0.4964  0.4958 -0.1532
 5264TIP3    H137351   1.700   5.595   1.184 -1.6112  0.3569  0.8881
 5264TIP3    H237352   1.724   5.654   1.047  0.5884 -2.2312  0.1136
 5265TIP3   OH237353   1.920   1.967   0.894  0.0592  0.5870 -0.0199
 5265TIP3    H137354   1.942   2.042   0.950 -0.8227 -0.6280  1.9934
 5265TIP3    H237355   1.832   1.941   0.923 -0.5877  0.1864 -2.2678
 5266TIP3   OH237356   6.468   0.026   8.031 -0.3274  0.1798  0.4575
 5266TIP3    H137357   6.522  -0.051   8.012  0.9944  1.5508 -1.4865
 5266TIP3    H237358   6.396  -0.008   8.083  0.6583 -2.2510  0.2972
 5267TIP3   OH237359   1.725   1.585   0.430  1.3376  0.0176  0.1686
 5267TIP3    H137360   1.682   1.501   0.419  1.7570 -0.1823  0.0548
 5267TIP3    H237361   1.653   1.648   0.439  1.0200 -0.2976 -0.1540
 5268TIP3   OH237362   6.848   2.606   8.064 -0.4409 -1.0971 -0.0315
 5268TIP3    H137363   6.807   2.664   8.000 -2.0161 -2.3016 -0.1479
 5268TIP3    H237364   6.886   2.536   8.011  0.3696 -0.8412  0.2015
 5269TIP3   OH237365   5.153   6.508   0.795 -0.2915 -0.3105  0.4165
 5269TIP3    H137366   5.100   6.568   0.742 -1.7941 -1.7641  0.2276
 5269TIP3    H237367   5.150   6.425   0.747  2.2757 -0.3893  0.3542
 5270TIP3   OH237368   0.261   2.323   1.601 -0.1304 -0.1623 -0.1016
 5270TIP3    H137369   0.183   2.368   1.570 -0.4470 -0.0459  0.8376
 5270TIP3    H237370   0.307   2.389   1.654  2.0543  0.6738 -2.9016
 5271TIP3   OH237371   6.431   3.620   7.095 -0.4348 -0.0820  0.0381
 5271TIP3    H137372   6.356   3.629   7.036 -1.1254 -2.6145  0.4885
 5271TIP3    H237373   6.507   3.620   7.036 -0.9047  0.5032 -0.5817
 5272TIP3   OH237374   0.502   1.691   0.619  0.3726 -0.2903 -0.3895
 5272TIP3    H137375   0.503   1.614   0.676 -0.9715  0.2893  0.4511
 5272TIP3    H237376   0.496   1.765   0.679  0.6401  0.4256 -1.2326
 5273TIP3   OH237377   5.897   0.529   0.209  0.4633  0.3439  0.1584
 5273TIP3    H137378   5.947   0.611   0.209  0.5265  0.3123 -0.5519
 5273TIP3    H237379   5.964   0.460   0.204  0.3338  0.3432 -2.5037
 5274TIP3   OH237380   0.832   3.359   1.828 -0.1127 -0.2080  0.5201
 5274TIP3    H137381   0.880   3.410   1.763  1.5673 -3.4265 -0.8721
 5274TIP3    H237382   0.889   3.358   1.904  0.3006 -0.8378  0.2022
 5275TIP3   OH237383   4.279   5.703   0.883 -0.2590  0.2401 -0.2571
 5275TIP3    H137384   4.309   5.614   0.864  1.9475  0.7449  0.7268
 5275TIP3    H237385   4.197   5.711   0.834  0.2433 -1.8264 -1.5261
 5276TIP3   OH237386   3.750   3.671   1.051  0.0340 -0.3716  0.1887
 5276TIP3    H137387   3.784   3.605   0.990  2.1561 -0.5275  1.5124
 5276TIP3    H237388   3.704   3.733   0.994  3.6218  0.5740 -1.9121
 5277TIP3   OH237389   6.907   0.321   7.076 -0.0124  0.4976 -0.4716
 5277TIP3    H137390   6.984   0.296   7.024  1.8899  0.8170  2.1142
 5277TIP3    H237391   6.857   0.378   7.018  0.9475 -0.8576 -2.7103
 5278TIP3   OH237392   3.727   2.622   1.730  0.3111  0.4109  0.0970
 5278TIP3    H137393   3.747   2.613   1.823  1.8319 -2.4548 -0.4341
 5278TIP3    H237394   3.794   2.680   1.695  2.7938 -2.3872 -0.0551
 5279TIP3   OH237395   0.708   3.383   0.829  0.0781 -0.2324 -0.0452
 5279TIP3    H137396   0.723   3.466   0.874 -0.0207  0.5749 -1.4615
 5279TIP3    H237397   0.615   3.364   0.844 -0.0436  0.2187 -0.2297
 5280TIP3   OH237398   6.883   1.201   1.114 -0.2261 -0.3313  0.5756
 5280TIP3    H137399   6.863   1.129   1.174  0.2415 -0.0983  1.0260
 5280TIP3    H237400   6.949   1.253   1.161 -0.1434  0.0735  0.0190
 5281TIP3   OH237401   2.139   6.280   0.376  0.1332 -0.0201 -0.6464
 5281TIP3    H137402   2.092   6.208   0.419  0.1608 -0.1605 -0.8484
 5281TIP3    H237403   2.074   6.318   0.317 -0.1370  0.6682  0.0884
 5282TIP3   OH237404   1.605   5.023   1.306 -0.0588 -0.3540  0.6663
 5282TIP3    H137405   1.681   5.036   1.364  0.9138 -0.9944 -0.4366
 5282TIP3    H237406   1.620   5.084   1.234 -1.3799  0.6017  1.1767
 5283TIP3   OH237407   1.660   1.459   0.076  0.3232  0.0809 -0.2722
 5283TIP3    H137408   1.593   1.478   0.011 -1.6202  0.7817  1.8932
 5283TIP3    H237409   1.743   1.466   0.027 -1.1969 -2.5850 -3.3927
 5284TIP3   OH237410   3.496   1.249   0.303  0.5583  0.5037  0.1898
 5284TIP3    H137411   3.589   1.266   0.320  0.4221  0.5713  0.8458
 5284TIP3    H237412   3.486   1.269   0.210  0.7439  2.5599  0.5819
 5285TIP3   OH237413   2.075   1.503   1.406  0.2533 -0.2094  0.6363
 5285TIP3    H137414   2.087   1.496   1.311 -0.4001 -1.1439  0.6180
 5285TIP3    H237415   2.163   1.493   1.442  0.0328 -3.8692  0.3394
 5286TIP3   OH237416   6.479   1.971   1.769  0.3179 -0.0875  0.5759
 5286TIP3    H137417   6.408   2.032   1.788  0.9146  0.7190  0.2015
 5286TIP3    H237418   6.538   1.978   1.843  0.9977  0.6755 -0.0366
 5287TIP3   OH237419   0.057   0.053   7.497 -0.8208  0.2894 -0.5772
 5287TIP3    H137420  -0.030   0.063   7.536 -0.3944  0.5188  0.3375
 5287TIP3    H237421   0.117   0.073   7.569 -0.0078 -0.8230 -0.9437
 5288TIP3   OH237422   5.820   3.808   1.413  0.4235 -0.2255  0.3918
 5288TIP3    H137423   5.797   3.893   1.453  0.4963  0.2307 -0.5213
 5288TIP3    H237424   5.782   3.743   1.472 -0.1580  0.4558  0.7825
 5289TIP3   OH237425   6.990   6.118   7.935 -0.4887  0.8975 -0.6620
 5289TIP3    H137426   7.021   6.188   7.994 -0.7107 -1.3952  2.3161
 5289TIP3    H237427   6.900   6.143   7.914  0.1532  2.6313 -1.4712
 5290TIP3   OH237428   2.636   3.082   7.906 -0.4388 -0.2184 -0.3417
 5290TIP3    H137429   2.699   3.010   7.897 -1.6475 -1.0702 -2.2082
 5290TIP3    H237430   2.689   3.161   7.897  0.4759 -0.9067 -1.1064
 5291TIP3   OH237431   2.038   5.250   1.885 -0.3318 -0.2575  0.1236
 5291TIP3    H137432   2.063   5.312   1.952 -1.0713  0.5497 -0.3393
 5291TIP3    H237433   2.059   5.164   1.922  0.5706  0.2525  0.8071
 5292TIP3   OH237434   6.724   2.820   1.480 -0.1277  0.5622 -0.1656
 5292TIP3    H137435   6.744   2.806   1.572  1.0471 -0.2109 -0.5184
 5292TIP3    H237436   6.748   2.911   1.464  2.9832 -0.2575 -0.5039
 5293TIP3   OH237437   5.415   3.487   1.480  0.0517  0.1589 -0.4868
 5293TIP3    H137438   5.369   3.411   1.446  0.5514  0.2817 -1.4578
 5293TIP3    H237439   5.363   3.516   1.555  0.7631 -2.1682  0.9650
 5294TIP3   OH237440   4.266   1.543   7.870  0.8155 -0.3390 -0.6414
 5294TIP3    H137441   4.247   1.483   7.797 -2.0511  1.6090 -1.5706
 5294TIP3    H237442   4.218   1.507   7.944  3.3830 -2.0755  0.2643
 5295TIP3   OH237443   0.084   5.764   1.438  0.5092  0.0288  0.1535
 5295TIP3    H137444   0.061   5.838   1.494  2.1731  0.3774  0.3989
 5295TIP3    H237445   0.146   5.713   1.489  0.8242 -0.5061 -0.7487
 5296TIP3   OH237446   1.717   0.010   0.849  0.6805 -0.4557  0.4125
 5296TIP3    H137447   1.742   0.083   0.906 -0.2144  0.0599  0.1533
 5296TIP3    H237448   1.768   0.024   0.769 -0.4934  0.6615 -0.1641
 5297TIP3   OH237449   3.084   1.047   7.789 -0.1375  0.2384  0.1375
 5297TIP3    H137450   3.140   1.030   7.864 -0.0941  0.3226  0.1247
 5297TIP3    H237451   2.995   1.052   7.826 -0.3465 -1.6005 -0.0831
 5298TIP3   OH237452   2.375   6.316   0.538  0.3653  0.1113 -0.4124
 5298TIP3    H137453   2.310   6.321   0.468 -0.0623  0.0466 -0.0150
 5298TIP3    H237454   2.393   6.408   0.559 -0.1495  0.1220 -0.0066
 5299TIP3   OH237455   5.859   0.572   1.140  0.0920 -0.2007 -0.1918
 5299TIP3    H137456   5.853   0.479   1.118  1.0668 -0.0638 -1.0948
 5299TIP3    H237457   5.874   0.573   1.234 -1.0793 -0.9122  0.0143
 5300TIP3   OH237458   6.452   1.094   1.233 -0.4985 -0.7763 -0.5269
 5300TIP3    H137459   6.519   1.115   1.167  1.6707 -1.5318  1.3504
 5300TIP3    H237460   6.409   1.178   1.250  0.6044 -0.0757 -1.0940
 5301TIP3   OH237461   5.836   6.784   0.257  0.2108 -0.0686  0.5369
 5301TIP3    H137462   5.766   6.718   0.256  1.0623 -0.9771 -1.5155
 5301TIP3    H237463   5.790   6.868   0.263 -1.1951 -0.5098 -3.0581
 5302TIP3   OH237464   7.015   2.344   0.789  0.1213  0.2039 -0.1277
 5302TIP3    H137465   6.958   2.323   0.863 -0.0160 -0.0194 -0.2975
 5302TIP3    H237466   7.009   2.439   0.780  0.1210  0.2286  0.1336
 5303TIP3   OH237467   1.379   2.899   0.868 -0.5555 -0.3541  0.0151
 5303TIP3    H137468   1.470   2.885   0.893 -0.6356 -0.4550  0.2557
 5303TIP3    H237469   1.334   2.917   0.951 -0.5594  0.7994 -0.2241
 5304TIP3   OH237470   4.908   3.140   0.664 -0.2898 -0.1174 -0.1964
 5304TIP3    H137471   4.975   3.201   0.635 -1.6983  1.3598 -0.3780
 5304TIP3    H237472   4.933   3.118   0.754  0.2393  0.7039 -0.1432
 5305TIP3   OH237473   0.891   2.066   6.594 -0.0601  0.4261  0.6228
 5305TIP3    H137474   0.926   2.063   6.683  0.2726  1.6114  0.5470
 5305TIP3    H237475   0.834   2.143   6.594  0.3072  0.7021 -0.3118
 5306TIP3   OH237476   1.569   4.094   0.230  0.2188  0.8602 -0.2166
 5306TIP3    H137477   1.581   4.189   0.220 -1.8191  1.0967 -0.6216
 5306TIP3    H237478   1.534   4.084   0.319  0.7427  0.4582 -0.0568
 5307TIP3   OH237479   0.671   2.060   7.629 -0.3352 -0.5111 -0.8164
 5307TIP3    H137480   0.652   2.029   7.717 -2.9027  2.9261 -0.0549
 5307TIP3    H237481   0.595   2.032   7.577 -0.8479  1.0783 -0.9576
 5308TIP3   OH237482   2.187   3.835   1.422 -0.0067  0.2135 -0.2129
 5308TIP3    H137483   2.192   3.794   1.335 -1.8346 -0.4198 -0.0458
 5308TIP3    H237484   2.117   3.899   1.414  0.2138  0.5662  0.6460
 5309TIP3   OH237485   5.991   6.991   0.070  0.5831 -0.5980  0.5879
 5309TIP3    H137486   5.931   6.934   0.119 -0.7605 -2.6125 -3.1437
 5309TIP3    H237487   5.976   7.079   0.106 -3.2735 -1.3664  1.0857
 5310TIP3   OH237488   0.514   6.239   1.136 -0.7569 -1.0515  0.8225
 5310TIP3    H137489   0.536   6.146   1.133 -0.5748 -1.0210  1.2040
 5310TIP3    H237490   0.598   6.283   1.149 -0.4931 -0.6619 -1.9091
 5311TIP3   OH237491   5.801   6.260   1.524  0.3856 -0.1201  0.0113
 5311TIP3    H137492   5.748   6.208   1.464 -0.6077 -1.3553  1.9096
 5311TIP3    H237493   5.741   6.327   1.558  0.2353 -0.9545  1.4659
 5312TIP3   OH237494   5.270   6.802   7.975  0.2227 -0.0205  0.1976
 5312TIP3    H137495   5.211   6.786   7.901 -1.3389  1.4227  1.0918
 5312TIP3    H237496   5.215   6.789   8.053  1.0668  1.3532  1.0405
 5313TIP3   OH237497   1.658   1.674   6.923  0.2689 -0.1777 -0.1670
 5313TIP3    H137498   1.586   1.735   6.906  0.2917  0.0723  0.6080
 5313TIP3    H237499   1.623   1.588   6.903  0.2612  0.0995 -1.3657
 5314TIP3   OH237500   4.269   2.692   6.740 -0.4762  0.1655  0.1251
 5314TIP3    H137501   4.253   2.598   6.751  1.6909 -0.1796  0.5267
 5314TIP3    H237502   4.335   2.698   6.672  0.4281  1.3280  1.0836
 5315TIP3   OH237503   6.589   1.923   7.531 -0.1584  0.6739  0.0164
 5315TIP3    H137504   6.668   1.959   7.491  0.3467  1.1953  1.4535
 5315TIP3    H237505   6.592   1.830   7.511  1.5909  0.4309  1.3112
 5316TIP3   OH237506   5.116   2.462   7.027 -0.0919 -0.8146 -0.0610
 5316TIP3    H137507   5.066   2.539   7.002  1.8931  0.3404 -0.5670
 5316TIP3    H237508   5.132   2.474   7.121  0.8232 -0.2282 -0.2822
 5317TIP3   OH237509   1.960   6.787   1.520 -0.2798  0.6711 -0.4706
 5317TIP3    H137510   1.925   6.701   1.496 -3.8766  1.9023  0.0675
 5317TIP3    H237511   1.917   6.848   1.461  0.6704  2.3274  0.4994
 5318TIP3   OH237512   0.289   2.432   2.211  0.2060  0.4070 -0.2467
 5318TIP3    H137513   0.322   2.493   2.276  0.5096  1.6623 -1.5604
 5318TIP3    H237514   0.368   2.393   2.173  0.0476  0.1306 -0.2948
 5319TIP3   OH237515   4.552   2.134   1.393 -0.3949 -0.3505  0.7556
 5319TIP3    H137516   4.578   2.089   1.312  0.5757  0.0288  0.8524
 5319TIP3    H237517   4.514   2.064   1.447 -1.0919 -0.5980 -0.0338
 5320TIP3   OH237518   5.623   2.177   0.431  0.4580  1.1066 -0.1162
 5320TIP3    H137519   5.543   2.229   0.422  1.2462  2.2123 -0.8843
 5320TIP3    H237520   5.688   2.239   0.464  1.2332  0.4251 -0.3397
 5321TIP3   OH237521   2.727   0.369   0.294  0.1679 -1.0554 -0.2933
 5321TIP3    H137522   2.784   0.353   0.220 -0.9375  0.2646 -1.4511
 5321TIP3    H237523   2.773   0.435   0.346  0.0663 -0.6035 -0.7823
 5322TIP3   OH237524   1.806   6.807   8.002  0.7506 -0.2381 -0.6389
 5322TIP3    H137525   1.774   6.876   8.061 -1.1463  0.1485 -2.0579
 5322TIP3    H237526   1.735   6.743   7.999  1.5655 -1.1336 -1.1160
 5323TIP3   OH237527   0.544   3.143   7.048  0.4261 -0.3594 -0.4769
 5323TIP3    H137528   0.499   3.071   7.004 -0.9029 -0.9100  1.7155
 5323TIP3    H237529   0.474   3.193   7.090  1.2981  2.3672 -2.0913
 5324TIP3   OH237530   2.785   3.977   1.047 -0.2058 -0.2799 -0.8745
 5324TIP3    H137531   2.733   3.951   1.124 -0.2777  0.2635 -0.7406
 5324TIP3    H237532   2.869   3.932   1.060  0.1497  0.6171  0.0534
 5325TIP3   OH237533   1.209   4.280   6.562 -0.0975  0.5701 -0.1089
 5325TIP3    H137534   1.133   4.280   6.621  0.1578  2.8405  0.2638
 5325TIP3    H237535   1.184   4.222   6.490 -1.8533  0.6539  0.4181
 5326TIP3   OH237536   1.874   4.500   0.351  0.0063 -0.1906  0.0191
 5326TIP3    H137537   1.938   4.453   0.299  0.3170  1.0160 -0.7015
 5326TIP3    H237538   1.921   4.576   0.384 -0.5010 -0.3494  1.1508
 5327TIP3   OH237539   2.055   0.653   7.186 -0.5379 -0.0394 -0.3711
 5327TIP3    H137540   2.017   0.671   7.272 -0.5222  3.1153 -0.9815
 5327TIP3    H237541   2.149   0.665   7.198 -0.4768 -0.2026 -0.6829
 5328TIP3   OH237542   6.392   3.653   6.480 -0.3209  0.4155 -0.1149
 5328TIP3    H137543   6.326   3.591   6.447  0.7442 -0.5163 -0.4969
 5328TIP3    H237544   6.449   3.669   6.406  0.1116  0.9326  0.3266
 5329TIP3   OH237545   5.063   5.990   1.629  0.5011 -0.7427  0.0911
 5329TIP3    H137546   5.083   5.989   1.723  2.0251 -0.5945 -0.2130
 5329TIP3    H237547   5.016   5.909   1.613 -1.0935 -0.0774  1.2552
 5330TIP3   OH237548   0.094   5.930   0.467  0.4211 -0.1641  0.4896
 5330TIP3    H137549   0.180   5.899   0.495  0.7289  0.3448  0.1185
 5330TIP3    H237550   0.050   5.954   0.548  0.3594 -1.1002  0.7404
 5331TIP3   OH237551   0.223   2.680   0.653 -0.0476 -0.5160  0.3639
 5331TIP3    H137552   0.144   2.682   0.599 -1.0647  1.0271  1.8804
 5331TIP3    H237553   0.241   2.771   0.673  0.2404 -1.0588  2.7152
 5332TIP3   OH237554   1.671   1.332   0.329  0.6257  0.5462 -0.0598
 5332TIP3    H137555   1.737   1.272   0.295 -0.9566 -1.8032  0.8662
 5332TIP3    H237556   1.644   1.383   0.253  0.1298 -1.7504 -1.4713
 5333TIP3   OH237557   2.015   6.071   0.492 -0.3950  0.4190  0.2588
 5333TIP3    H137558   2.024   6.000   0.429 -2.1444  0.2620  0.1684
 5333TIP3    H237559   2.063   6.041   0.569 -1.0853 -0.8476  0.1993
 5334TIP3   OH237560   3.839   0.290   0.652 -0.2107  0.5199  0.8088
 5334TIP3    H137561   3.885   0.276   0.569  0.1465 -0.3622  1.1501
 5334TIP3    H237562   3.908   0.289   0.718 -0.5656  0.5959  1.1808
 5335TIP3   OH237563   2.813   3.361   6.241 -0.3345  0.0928 -0.0847
 5335TIP3    H137564   2.749   3.328   6.178  0.4170 -1.8961  0.1698
 5335TIP3    H237565   2.880   3.293   6.245  0.7704  1.2343  1.1657
 5336TIP3   OH237566   2.967   1.680   1.615 -0.6212 -0.3018  0.5620
 5336TIP3    H137567   2.896   1.677   1.679  0.8470 -1.6693  2.1728
 5336TIP3    H237568   2.943   1.615   1.549 -2.2376  1.2562 -0.4099
 5337TIP3   OH237569   0.040   4.342   0.193  0.0591 -0.2629  0.1948
 5337TIP3    H137570   0.026   4.400   0.118 -0.4653 -0.6327  0.0047
 5337TIP3    H237571  -0.042   4.348   0.242 -0.3212 -1.5345 -0.2897
 5338TIP3   OH237572   7.078   6.480   0.090 -0.4598 -0.2265 -0.2722
 5338TIP3    H137573   7.126   6.397   0.094  1.8506  1.1002  0.6423
 5338TIP3    H237574   7.088   6.517   0.177 -1.1346  1.1975 -0.7912
 5339TIP3   OH237575   3.885   5.683   1.650 -0.3019  0.2993  0.0343
 5339TIP3    H137576   3.823   5.728   1.592  0.2029 -0.3168 -0.9931
 5339TIP3    H237577   3.884   5.592   1.620  0.2883  0.0668  0.7124
 5340TIP3   OH237578   4.155   7.033   0.932 -0.4708  0.4054  0.1856
 5340TIP3    H137579   4.118   7.119   0.912 -0.9396  0.5088  1.4691
 5340TIP3    H237580   4.081   6.973   0.925 -0.0597  0.0302 -1.1220
 5341TIP3   OH237581   2.497   3.551   1.230 -0.5868 -0.1878  0.3655
 5341TIP3    H137582   2.495   3.484   1.299 -1.4863  0.1288  0.6637
 5341TIP3    H237583   2.445   3.514   1.159 -1.4693  0.3697  0.7079
 5342TIP3   OH237584   6.703   5.307   1.040 -0.2818 -0.1085  0.0949
 5342TIP3    H137585   6.655   5.381   1.078 -1.1043 -0.7207  0.2502
 5342TIP3    H237586   6.736   5.341   0.956 -0.1145  0.6310  0.4533
 5343TIP3   OH237587   4.706   3.994   1.475  0.6392  0.6940  0.2621
 5343TIP3    H137588   4.624   4.028   1.512 -0.0717 -0.8936  0.1885
 5343TIP3    H237589   4.772   4.014   1.542  0.3602  2.7616 -0.0612
 5344TIP3   OH237590   6.095   3.851   0.083  0.0021  0.2346 -0.2323
 5344TIP3    H137591   6.045   3.928   0.057  1.0080  0.6258 -1.0387
 5344TIP3    H237592   6.030   3.781   0.092 -0.9963  1.3005  1.0437
 5345TIP3   OH237593   5.474   0.743   6.459  0.4209 -0.2429  0.3214
 5345TIP3    H137594   5.389   0.751   6.416  0.4150 -2.6326 -0.1959
 5345TIP3    H237595   5.454   0.702   6.544  1.0044 -0.5613  0.3116
 5346TIP3   OH237596   6.053   4.532   1.062  0.3238  0.1431 -0.3001
 5346TIP3    H137597   6.093   4.619   1.055  0.8638 -0.2348 -2.1807
 5346TIP3    H237598   6.104   4.487   1.128  1.5408  0.4699 -1.0103
 5347TIP3   OH237599   6.586   4.019   1.313  0.6780 -0.5924  0.2155
 5347TIP3    H137600   6.672   4.023   1.270  1.8911  0.0453  2.6031
 5347TIP3    H237601   6.555   4.109   1.313  0.9768 -0.4850  1.2211
 5348TIP3   OH237602   1.247   4.648   7.392 -0.5825  0.1010  0.1012
 5348TIP3    H137603   1.207   4.580   7.336 -1.8865  0.4244  0.6084
 5348TIP3    H237604   1.280   4.713   7.330  0.0758 -0.6618 -0.3694
 5349TIP3   OH237605   0.027   5.531   8.116 -0.0078  0.1964  0.7244
 5349TIP3    H137606   0.026   5.622   8.144 -1.8831  0.1617  0.8550
 5349TIP3    H237607   0.011   5.534   8.022  2.1904  0.0982  0.3173
 5350TIP3   OH237608   0.587   2.391   6.558  0.3410 -0.5232 -0.4017
 5350TIP3    H137609   0.560   2.417   6.470  1.1436  0.3287 -0.4013
 5350TIP3    H237610   0.568   2.297   6.562 -0.7226 -0.3380 -1.0976
 5351TIP3   OH237611   1.784   5.878   2.049 -0.2779  0.0033  0.0124
 5351TIP3    H137612   1.811   5.863   1.959 -0.7467  0.9356 -0.2808
 5351TIP3    H237613   1.864   5.868   2.100 -0.1765 -1.4313 -0.4010
 5352TIP3   OH237614   1.874   0.580   6.537  0.5717 -0.0509  0.2330
 5352TIP3    H137615   1.871   0.553   6.446  0.6687 -1.6794  0.6993
 5352TIP3    H237616   1.789   0.623   6.552  0.8844  0.9632 -0.8253
 5353TIP3   OH237617   4.982   0.951   7.296  0.0186 -0.0787 -0.6001
 5353TIP3    H137618   4.962   0.857   7.296  0.5098 -0.1896 -0.8624
 5353TIP3    H237619   5.068   0.956   7.253  0.7942  0.3212  0.9398
 5354TIP3   OH237620   6.597   2.172   0.406 -0.1937 -0.4912  0.1556
 5354TIP3    H137621   6.571   2.088   0.366 -0.3593 -2.1465  3.5606
 5354TIP3    H237622   6.648   2.147   0.482  1.9509  2.6147 -0.1870
 5355TIP3   OH237623   3.867   5.444   0.388  0.8403  0.2019 -0.2409
 5355TIP3    H137624   3.950   5.414   0.424  0.4555  1.0290  1.3655
 5355TIP3    H237625   3.807   5.370   0.401  1.3579 -0.5077 -1.6653
 5356TIP3   OH237626   1.433   2.702   1.640  0.1350 -0.2277 -0.2438
 5356TIP3    H137627   1.358   2.734   1.690  1.5670  0.7745  1.3151
 5356TIP3    H237628   1.487   2.780   1.625  1.6482 -1.1883  0.0559
 5357TIP3   OH237629   4.595   5.995   7.700 -0.2523  0.4329  0.8402
 5357TIP3    H137630   4.616   5.994   7.793 -1.6512 -1.4140  1.1471
 5357TIP3    H237631   4.637   5.917   7.665  2.6890  2.5811 -0.6730
 5358TIP3   OH237632   4.586   1.230   0.597 -0.3845 -0.3284  0.1456
 5358TIP3    H137633   4.654   1.246   0.662  0.7861 -3.1762 -0.3102
 5358TIP3    H237634   4.620   1.267   0.516 -0.5202  0.5316  0.4794
 5359TIP3   OH237635   2.299   2.509   1.206 -0.2378 -0.6995  0.6732
 5359TIP3    H137636   2.289   2.429   1.257 -0.5718 -1.5065 -0.6352
 5359TIP3    H237637   2.227   2.507   1.143  0.7641 -0.2508 -0.5123
 5360TIP3   OH237638   0.128   5.521   6.820 -0.0266  0.1909 -0.0434
 5360TIP3    H137639   0.144   5.608   6.857  0.5202 -0.0143  0.2163
 5360TIP3    H237640   0.036   5.522   6.794 -0.1030  0.7428  0.2418
 5361TIP3   OH237641   1.603   6.609   7.992  0.7630 -0.5190  0.3521
 5361TIP3    H137642   1.546   6.642   7.922 -1.1703 -1.1798  1.5771
 5361TIP3    H237643   1.636   6.526   7.958  0.9180 -0.1787 -0.3382
 5362TIP3   OH237644   7.078   6.001   0.693  0.5295 -0.1139 -0.1707
 5362TIP3    H137645   7.059   6.094   0.687  0.3761 -0.1403 -0.1069
 5362TIP3    H237646   7.041   5.975   0.778  0.5605 -0.2340 -0.1941
 5363TIP3   OH237647   6.301   6.018   7.556  0.8742 -0.6136 -0.2780
 5363TIP3    H137648   6.265   6.083   7.617 -1.6592 -1.2215 -1.0310
 5363TIP3    H237649   6.302   5.936   7.605  1.6643 -0.5050 -0.1167
 5364TIP3   OH237650   0.591   0.243   2.081  0.4036 -0.2040 -0.3606
 5364TIP3    H137651   0.515   0.235   2.138 -0.0724  0.4828 -0.8776
 5364TIP3    H237652   0.554   0.247   1.993  1.1252 -1.1694 -0.7093
 5365TIP3   OH237653   1.181   6.828   1.244 -0.5813  0.1629  0.3902
 5365TIP3    H137654   1.127   6.848   1.320 -0.3156  2.0008  0.1061
 5365TIP3    H237655   1.271   6.834   1.276 -0.4763  0.6898  0.0040
 5366TIP3   OH237656   3.903   4.577   1.131  0.0619 -0.1250 -0.8240
 5366TIP3    H137657   3.899   4.572   1.035 -0.5427  1.0136 -0.8593
 5366TIP3    H237658   3.951   4.658   1.149  1.8901 -1.3248 -0.1714
 5367TIP3   OH237659   2.858   5.505   7.259  0.0024  0.3488  0.6191
 5367TIP3    H137660   2.781   5.560   7.273 -0.1767  0.5887 -1.1393
 5367TIP3    H237661   2.918   5.560   7.209 -0.0734 -0.9377 -0.9432
 5368TIP3   OH237662   7.103   3.759   1.709  0.5763 -0.2712  0.0505
 5368TIP3    H137663   7.025   3.704   1.708  0.3144  0.1010 -2.0168
 5368TIP3    H237664   7.147   3.736   1.791 -0.5502 -2.0952  0.1799
 5369TIP3   OH237665   3.230   0.289   1.938  0.3564 -0.5283 -0.0169
 5369TIP3    H137666   3.148   0.335   1.957  1.0583  1.3066 -1.2135
 5369TIP3    H237667   3.204   0.211   1.890 -0.6586  0.3241 -0.8627
 5370TIP3   OH237668   1.547   6.690   0.413 -0.0721 -0.4780 -0.3841
 5370TIP3    H137669   1.462   6.650   0.395 -0.2274 -0.2475 -0.1637
 5370TIP3    H237670   1.607   6.616   0.419 -0.1008 -0.5853 -1.3948
 5371TIP3   OH237671   3.002   5.210   0.591  0.2282  0.1431  0.7557
 5371TIP3    H137672   3.001   5.170   0.504  1.3262  1.1279  0.2850
 5371TIP3    H237673   3.080   5.174   0.633  0.4667  0.7311  0.8207
 5372TIP3   OH237674   2.190   3.735   1.178 -0.0963  0.1296  0.0575
 5372TIP3    H137675   2.251   3.740   1.106  1.3037 -0.7582  1.1578
 5372TIP3    H237676   2.145   3.651   1.167  0.9335 -0.5438  0.8248
 5373TIP3   OH237677   1.293   4.187   1.973  0.3204  0.5174 -0.5024
 5373TIP3    H137678   1.257   4.141   2.049  1.0277 -1.6286 -1.4287
 5373TIP3    H237679   1.235   4.263   1.961 -0.7213  0.0217  1.2113
 5374TIP3   OH237680   2.292   4.160   7.909  0.1736  0.2835  0.8770
 5374TIP3    H137681   2.372   4.211   7.895 -0.2008  1.1750  1.8875
 5374TIP3    H237682   2.223   4.226   7.911 -0.4899 -0.4102  0.8087
 5375TIP3   OH237683   1.385   3.523   0.890 -0.3012 -0.0166  0.2327
 5375TIP3    H137684   1.340   3.441   0.910 -1.7681  0.6307 -0.3517
 5375TIP3    H237685   1.439   3.540   0.967 -0.0504 -1.4815  0.3932
 5376TIP3   OH237686   1.020   4.071   0.196 -0.5925 -0.6744 -0.3549
 5376TIP3    H137687   0.961   3.997   0.184 -2.0007  0.4357 -0.3459
 5376TIP3    H237688   0.964   4.142   0.227  0.7821  0.3278 -0.1246
 5377TIP3   OH237689   7.101   5.023   0.626  0.2616  0.3435  0.0942
 5377TIP3    H137690   7.170   4.989   0.681 -1.3417 -2.0448  0.7076
 5377TIP3    H237691   7.049   5.079   0.684 -2.5541 -3.6651  1.7185
 5378TIP3   OH237692   0.876   1.824   0.712  0.5422 -0.1244  0.3592
 5378TIP3    H137693   0.814   1.860   0.649 -1.3879 -2.0068  1.0913
 5378TIP3    H237694   0.937   1.772   0.659  1.4650  1.6709 -0.3593
 5379TIP3   OH237695   1.540   3.334   6.596 -0.0451  0.6904  0.0931
 5379TIP3    H137696   1.530   3.406   6.534 -1.7384 -1.1009 -1.7655
 5379TIP3    H237697   1.470   3.272   6.573  1.0593 -1.3237  1.9646
 5380TIP3   OH237698   1.410   5.178   6.732  0.0734  0.2078  0.1147
 5380TIP3    H137699   1.497   5.141   6.741 -0.1130 -0.3595 -0.3863
 5380TIP3    H237700   1.424   5.262   6.688  0.2556 -0.4131 -1.0218
 5381TIP3   OH237701   1.791   1.187   7.636  0.0175  0.2972 -0.1739
 5381TIP3    H137702   1.773   1.095   7.621 -0.1460 -0.0695  2.1458
 5381TIP3    H237703   1.820   1.220   7.551 -0.4920 -1.7367 -1.1645
 5382TIP3   OH237704   6.322   6.621   7.939  0.0166 -0.1587 -0.1847
 5382TIP3    H137705   6.331   6.540   7.888  0.8708 -0.1369 -0.0721
 5382TIP3    H237706   6.308   6.689   7.873  0.2173 -0.2613 -0.3345
 5383TIP3   OH237707   5.046   1.645   7.593  0.5882 -0.2222  0.2712
 5383TIP3    H137708   5.078   1.629   7.682  1.8872  0.9718  0.0348
 5383TIP3    H237709   5.011   1.561   7.564  1.6260 -1.0200  1.3239
 5384TIP3   OH237710   1.322   5.908   0.098  0.5859  0.0466 -0.1689
 5384TIP3    H137711   1.411   5.875   0.089 -0.0338 -1.0931 -2.4053
 5384TIP3    H237712   1.293   5.925   0.008 -1.9151 -0.8411  0.4307
 5385TIP3   OH237713   6.003   2.629   0.522 -0.1726  0.2162 -0.1187
 5385TIP3    H137714   5.919   2.675   0.523 -1.1954 -1.6128  0.3987
 5385TIP3    H237715   6.016   2.601   0.612  1.2594  0.9346 -0.0968
 5386TIP3   OH237716   2.384   2.642   1.560  0.0600 -0.5124  0.6053
 5386TIP3    H137717   2.394   2.564   1.615  0.8211 -1.3896 -0.7606
 5386TIP3    H237718   2.427   2.619   1.477  2.6345  2.2719  1.0752
 5387TIP3   OH237719   2.586   6.832   6.432  0.5025  0.1015  0.4654
 5387TIP3    H137720   2.535   6.905   6.398  2.1195  2.1430  2.3084
 5387TIP3    H237721   2.664   6.830   6.378 -0.5941 -1.8251 -1.1232
 5388TIP3   OH237722   6.759   3.769   1.863  0.0944 -0.3321  0.1482
 5388TIP3    H137723   6.740   3.711   1.937  0.7802 -1.5900 -0.6470
 5388TIP3    H237724   6.839   3.815   1.888  0.8009 -1.3812 -0.1620
 5389TIP3   OH237725   4.556   6.409   0.242  0.2070  0.7463 -0.0486
 5389TIP3    H137726   4.495   6.339   0.264  0.4248  0.2881 -0.8634
 5389TIP3    H237727   4.582   6.446   0.326 -0.8772  0.6785  0.3238
 5390TIP3   OH237728   2.315   6.819   1.698 -0.2754 -0.9508 -0.8750
 5390TIP3    H137729   2.299   6.754   1.766 -0.6113  1.0750  1.0380
 5390TIP3    H237730   2.390   6.869   1.731  0.7392 -1.1237 -2.8791
 5391TIP3   OH237731   2.834   4.240   0.979  0.0996 -0.2852  0.1165
 5391TIP3    H137732   2.896   4.271   1.045 -1.6677  1.5875  0.9680
 5391TIP3    H237733   2.822   4.147   0.998  1.7922 -0.4163  0.6129
 5392TIP3   OH237734   2.922   3.239   0.010 -0.3302 -0.0793 -0.4514
 5392TIP3    H137735   2.901   3.230  -0.083 -1.5123  1.6320 -0.3736
 5392TIP3    H237736   2.838   3.260   0.052  0.4675  0.7147  0.7878
 5393TIP3   OH237737   0.073   0.637   0.852  0.7845  0.1171 -0.0860
 5393TIP3    H137738   0.150   0.606   0.901 -0.4524  1.2823  2.6981
 5393TIP3    H237739   0.036   0.557   0.814  0.1000 -1.3513  3.4130
 5394TIP3   OH237740   1.041   6.763   7.100 -0.5049  0.3463 -0.1952
 5394TIP3    H137741   1.014   6.855   7.098 -1.8733 -0.0736 -1.3157
 5394TIP3    H237742   1.077   6.746   7.013  2.1805  0.5101  0.8351
 5395TIP3   OH237743   6.579   5.957   6.277  0.6353  0.1823 -0.4048
 5395TIP3    H137744   6.625   5.971   6.195  0.1192 -3.2517 -1.3752
 5395TIP3    H237745   6.487   5.970   6.256  0.6269  0.8151  0.0110
 5396TIP3   OH237746   3.107   4.869   1.001  0.2913 -0.6130  0.2119
 5396TIP3    H137747   3.133   4.957   0.975  1.0847 -0.8864  0.0914
 5396TIP3    H237748   3.166   4.847   1.073 -0.9499 -0.4204  1.2999
 5397TIP3   OH237749   0.312   5.468   0.981  0.7398  0.1652 -0.2911
 5397TIP3    H137750   0.337   5.481   0.890  0.3331 -0.3557 -0.4833
 5397TIP3    H237751   0.268   5.382   0.982  2.0187 -0.5055  0.6434
 5398TIP3   OH237752   0.977   5.310   0.442  0.4113  0.2918 -0.0329
 5398TIP3    H137753   0.927   5.230   0.456  0.1508  0.6428  1.0536
 5398TIP3    H237754   1.059   5.295   0.488  0.2751  0.7364  0.3555
 5399TIP3   OH237755   6.400   4.786   1.334 -0.1483  0.0179  0.4776
 5399TIP3    H137756   6.459   4.714   1.310 -0.3779  0.3074 -1.0593
 5399TIP3    H237757   6.367   4.763   1.421  0.9275 -0.9900  0.6268
 5400TIP3   OH237758   0.926   4.553   2.320 -0.1087 -0.6711  0.3068
 5400TIP3    H137759   1.010   4.522   2.352  0.0040 -0.7897 -0.0972
 5400TIP3    H237760   0.884   4.592   2.396  0.7342  0.3147  0.2746
 5401TIP3   OH237761   2.067   3.474   1.124 -0.0859 -0.0786  0.2737
 5401TIP3    H137762   2.151   3.471   1.077 -0.4093 -0.2040 -0.2996
 5401TIP3    H237763   2.027   3.389   1.105 -0.8359  0.4193 -0.3543
 5402TIP3   OH237764   3.416   4.776   1.399  0.1888 -0.5362 -0.2125
 5402TIP3    H137765   3.444   4.722   1.473  1.1677  0.7907  0.4007
 5402TIP3    H237766   3.326   4.801   1.420  0.7932  0.6529  1.0196
 5403TIP3   OH237767   3.544   6.577   0.133 -0.5086  0.1632 -0.2460
 5403TIP3    H137768   3.479   6.584   0.063 -0.6985 -0.3423 -0.1209
 5403TIP3    H237769   3.497   6.603   0.212 -0.3680  0.4672 -0.2599
 5404TIP3   OH237770   1.739   6.459   2.006  0.4634  0.8716 -0.2500
 5404TIP3    H137771   1.731   6.543   2.052  0.2917  0.5912  0.2342
 5404TIP3    H237772   1.705   6.394   2.068  1.3801  0.3386 -0.2938
 5405TIP3   OH237773   6.733   1.558   0.151 -0.4555  0.4030 -0.4438
 5405TIP3    H137774   6.695   1.483   0.197 -1.3029  1.1715  0.1069
 5405TIP3    H237775   6.734   1.531   0.059  1.2332 -1.1294 -0.0070
 5406TIP3   OH237776   0.691   5.128   7.520 -0.1041  0.3237 -0.0528
 5406TIP3    H137777   0.781   5.157   7.528  0.1663 -0.5783  0.2050
 5406TIP3    H237778   0.654   5.182   7.450  0.9504 -0.0483 -0.9060
 5407TIP3   OH237779   0.802   0.965   0.700  0.9932 -0.2105  0.2713
 5407TIP3    H137780   0.834   1.005   0.781  1.0711 -0.0294  0.1521
 5407TIP3    H237781   0.852   1.008   0.631 -1.8292  2.4915 -0.1798
 5408TIP3   OH237782   6.704   2.719   0.427 -0.3655 -0.0038 -0.6264
 5408TIP3    H137783   6.652   2.781   0.479  0.8721  0.7829 -0.3058
 5408TIP3    H237784   6.653   2.638   0.430 -0.8754  0.3386  0.8831
 5409TIP3   OH237785   2.819   1.142   1.144  0.5624 -0.0467 -0.1402
 5409TIP3    H137786   2.757   1.117   1.075 -0.8212  1.3087  0.5951
 5409TIP3    H237787   2.851   1.058   1.178 -0.8722 -0.7773 -0.5345
 5410TIP3   OH237788   5.667   7.024   1.151 -0.3752 -0.3139  0.2631
 5410TIP3    H137789   5.651   6.930   1.161  0.1527 -0.3603  0.6936
 5410TIP3    H237790   5.745   7.040   1.204 -0.5487  0.3914  0.3008
 5411TIP3   OH237791   3.847   6.021   7.523 -0.3387 -0.0479  0.6935
 5411TIP3    H137792   3.841   6.115   7.506 -1.2563  0.0465  1.4981
 5411TIP3    H237793   3.932   6.009   7.567 -0.4556  0.4819  1.0648
 5412TIP3   OH237794   0.032   1.234   1.222 -1.4610 -0.8581  0.7398
 5412TIP3    H137795   0.089   1.225   1.299 -0.2430  1.2918  0.1362
 5412TIP3    H237796   0.091   1.227   1.147 -2.4296 -1.4972  0.0248
 5413TIP3   OH237797   3.005   5.225   7.332  0.1415  0.0111  0.3055
 5413TIP3    H137798   2.940   5.155   7.324  0.4372 -0.1427 -0.8005
 5413TIP3    H237799   2.984   5.286   7.260 -0.1600  1.1013  1.3025
 5414TIP3   OH237800   3.765   2.651   1.236 -0.0842  0.7980 -0.0695
 5414TIP3    H137801   3.760   2.564   1.196 -0.0860  0.1995  1.2289
 5414TIP3    H237802   3.698   2.650   1.304  2.2937  0.5660  2.3574
 5415TIP3   OH237803   1.281   4.164   0.189  0.5759  0.3855 -0.1730
 5415TIP3    H137804   1.314   4.136   0.104 -2.6943  0.2660 -1.4552
 5415TIP3    H237805   1.192   4.131   0.193  0.3216  1.2559  2.9005
 5416TIP3   OH237806   0.998   3.938   1.077 -0.0170 -0.6378  0.0885
 5416TIP3    H137807   0.957   3.964   0.995  1.4772 -1.4492 -0.9508
 5416TIP3    H237808   1.036   3.851   1.059  4.2848  1.0809  0.1523
 5417TIP3   OH237809   4.774   4.273   0.806 -0.1420  0.3778  0.0967
 5417TIP3    H137810   4.789   4.361   0.772  1.2815  0.6225  1.3008
 5417TIP3    H237811   4.852   4.254   0.859 -0.2142 -1.7803 -0.5206
 5418TIP3   OH237812   5.588   3.373   6.884  0.2625 -0.8476 -0.0288
 5418TIP3    H137813   5.613   3.340   6.798  0.7354 -0.8991  0.1269
 5418TIP3    H237814   5.635   3.317   6.946  0.1224 -0.6518  0.2557
 5419TIP3   OH237815   0.972   6.445   1.879 -0.3949  0.2860 -0.1789
 5419TIP3    H137816   0.882   6.428   1.909 -1.2832  1.8487 -1.8334
 5419TIP3    H237817   0.977   6.398   1.795  0.7935 -0.8993  0.5404
 5420TIP3   OH237818   3.876   4.121   1.940 -0.0555 -0.1796 -0.0954
 5420TIP3    H137819   3.961   4.156   1.914 -0.6600  1.1180 -0.3414
 5420TIP3    H237820   3.815   4.159   1.878 -1.0488  0.1665  1.0860
 5421TIP3   OH237821   1.454   1.584   0.668 -0.0188  0.4123 -0.4228
 5421TIP3    H137822   1.437   1.501   0.624  0.5981 -0.3650  0.7604
 5421TIP3    H237823   1.461   1.648   0.598 -1.6680 -0.3275 -1.2857
 5422TIP3   OH237824   3.136   5.253   6.651 -0.3823 -0.5262 -0.5131
 5422TIP3    H137825   3.082   5.248   6.572 -1.7397  1.7619  0.2568
 5422TIP3    H237826   3.144   5.346   6.669  1.8993 -0.9382  0.7312
 5423TIP3   OH237827   0.998   0.347   7.347 -0.7561 -0.2066 -0.1702
 5423TIP3    H137828   1.030   0.437   7.355  1.5267 -0.8921 -1.1893
 5423TIP3    H237829   0.958   0.343   7.260 -2.0229  0.1650  0.3902
 5424TIP3   OH237830   2.789   4.166   7.927  0.1152 -0.4698  0.2104
 5424TIP3    H137831   2.755   4.193   7.841 -1.1050  1.6490  1.3282
 5424TIP3    H237832   2.722   4.106   7.961  0.3421 -0.8947 -0.0909
 5425TIP3   OH237833   5.117   6.659   1.294  0.1486  0.2775 -0.8187
 5425TIP3    H137834   5.094   6.581   1.244  0.4421 -0.7257  0.5654
 5425TIP3    H237835   5.059   6.727   1.260 -0.6554 -0.7328 -1.5130
 5426TIP3   OH237836   4.843   5.801   7.744  0.2966 -0.1656 -0.2345
 5426TIP3    H137837   4.910   5.734   7.732  0.3645 -0.0378 -0.5911
 5426TIP3    H237838   4.864   5.841   7.828 -0.6211 -1.5770  0.6895
 5427TIP3   OH237839   2.436   1.999   1.219 -0.2396  0.6147 -0.6199
 5427TIP3    H137840   2.432   1.953   1.303 -0.5886 -0.1318 -1.0475
 5427TIP3    H237841   2.420   1.932   1.153 -1.4608  1.4642 -1.2072
 5428TIP3   OH237842   5.404   4.617   7.752  0.4817 -0.0032  0.2465
 5428TIP3    H137843   5.315   4.635   7.721 -0.0086 -1.2003  0.9357
 5428TIP3    H237844   5.394   4.592   7.844  1.6985  1.3593  0.7722
 5429TIP3   OH237845   1.721   5.388   1.573 -0.2514 -0.1495  0.1827
 5429TIP3    H137846   1.708   5.427   1.487  1.0918  1.8556  0.8434
 5429TIP3    H237847   1.745   5.462   1.629 -0.1848 -1.5626  2.0750
 5430TIP3   OH237848   3.866   6.617   0.713 -0.3235 -0.2492 -0.0331
 5430TIP3    H137849   3.865   6.540   0.769  0.0124  0.2354  0.6416
 5430TIP3    H237850   3.939   6.670   0.745 -0.7850  0.5298 -0.2443
 5431TIP3   OH237851   1.957   1.138   0.592 -0.1007  0.2890  0.9391
 5431TIP3    H137852   1.975   1.116   0.501 -0.3609 -1.2481  1.2540
 5431TIP3    H237853   2.036   1.185   0.621  0.9740 -1.2569  0.5883
 5432TIP3   OH237854   1.827   4.904   0.387 -0.2979  0.1511 -0.1726
 5432TIP3    H137855   1.773   4.830   0.358  0.1820  0.5139 -2.0883
 5432TIP3    H237856   1.911   4.864   0.411 -1.6674 -0.5495  3.8219
 5433TIP3   OH237857   6.793   4.360   6.652  0.1777 -0.1827  0.1060
 5433TIP3    H137858   6.830   4.294   6.592 -1.3776 -1.8258  0.9164
 5433TIP3    H237859   6.701   4.368   6.626  0.0817  0.8817  0.7307
 5434TIP3   OH237860   0.289   3.271   8.000 -0.0868  0.3511 -0.4808
 5434TIP3    H137861   0.292   3.176   7.985 -1.7103  0.1742  0.1790
 5434TIP3    H237862   0.206   3.285   8.044  1.8345  1.6112  2.9063
 5435TIP3   OH237863   4.650   4.225   7.078  0.2100  0.1751 -0.0431
 5435TIP3    H137864   4.566   4.180   7.067  0.0084  0.7602 -0.9541
 5435TIP3    H237865   4.647   4.263   7.166 -1.3541  2.0087 -0.8577
 5436TIP3   OH237866   3.058   6.292   7.616  0.0895 -0.5093  0.5258
 5436TIP3    H137867   3.026   6.279   7.706  0.5012  0.7540  0.8691
 5436TIP3    H237868   3.015   6.372   7.587 -1.4100 -1.8456 -1.0649
 5437TIP3   OH237869   1.659   5.677   7.017  0.6544  0.2585 -0.5087
 5437TIP3    H137870   1.652   5.743   6.948 -0.1760 -1.0556 -1.6960
 5437TIP3    H237871   1.586   5.617   7.001  1.8757 -1.4128  0.0563
 5438TIP3   OH237872   4.293   2.553   1.021  0.0073  0.2975 -0.4939
 5438TIP3    H137873   4.313   2.617   1.089  1.8093 -1.6320  0.8665
 5438TIP3    H237874   4.368   2.557   0.961 -0.6252  0.5661 -1.2791
 5439TIP3   OH237875   2.144   1.598   8.105  0.0280 -0.3501 -0.7085
 5439TIP3    H137876   2.171   1.581   8.195 -1.7226  1.3465  0.1963
 5439TIP3    H237877   2.213   1.654   8.068  0.2920 -0.2753 -0.0998
 5440TIP3   OH237878   1.713   4.565   7.741 -0.4873 -0.2640 -0.3906
 5440TIP3    H137879   1.679   4.536   7.656 -0.9272 -0.5155 -0.1316
 5440TIP3    H237880   1.720   4.485   7.792 -0.8928 -0.0272  0.0444
 5441TIP3   OH237881   2.848   2.649   0.131  0.3940  0.1040 -0.3992
 5441TIP3    H137882   2.938   2.617   0.133  0.9792  1.7529  0.0957
 5441TIP3    H237883   2.797   2.573   0.101  2.1361 -0.3434 -2.3666
 5442TIP3   OH237884   6.426   6.002   1.867 -0.5699  0.1722  0.0212
 5442TIP3    H137885   6.373   5.992   1.946  0.1718 -2.4277  0.2566
 5442TIP3    H237886   6.491   6.068   1.890  0.4353 -1.4590  2.0855
 5443TIP3   OH237887   3.118   4.950   7.562 -0.1089 -0.1090 -0.1442
 5443TIP3    H137888   3.077   5.036   7.570 -1.5822 -0.6917 -1.2135
 5443TIP3    H237889   3.113   4.912   7.650  0.4308  0.8434  0.3005
 5444TIP3   OH237890   1.143   4.421   2.000  0.7014 -0.6754 -0.5409
 5444TIP3    H137891   1.089   4.498   1.980  0.9868  0.0978  1.5800
 5444TIP3    H237892   1.230   4.456   2.016  0.4916 -1.2295  1.9947
 5445TIP3   OH237893   3.747   3.144   0.285 -0.0802 -0.3766  0.3789
 5445TIP3    H137894   3.789   3.226   0.259  1.1401 -0.7052  1.2485
 5445TIP3    H237895   3.658   3.150   0.251 -0.3476  1.8145  1.4431
 5446TIP3   OH237896   5.062   5.156   1.871  0.0306  0.1737  0.7883
 5446TIP3    H137897   5.127   5.166   1.941  2.4952 -0.6428 -1.2652
 5446TIP3    H237898   5.091   5.078   1.824 -2.6797 -0.3808 -0.0021
 5447TIP3   OH237899   6.132   1.306   7.475  0.3098 -0.7510 -0.3160
 5447TIP3    H137900   6.038   1.297   7.492 -0.0949  1.4542 -1.2199
 5447TIP3    H237901   6.174   1.280   7.557 -1.1485 -0.1226  0.6410
 5448TIP3   OH237902   2.646   7.030   0.107  0.3693  0.1213  0.7839
 5448TIP3    H137903   2.724   7.081   0.127 -0.9821  1.9382  1.6310
 5448TIP3    H237904   2.574   7.081   0.145 -1.4393 -0.5116 -1.6705
 5449TIP3   OH237905   1.074   5.285   1.677  0.2670 -0.0837 -0.6739
 5449TIP3    H137906   1.147   5.222   1.681  0.0395 -0.3799 -1.1067
 5449TIP3    H237907   1.045   5.282   1.586 -0.2020  0.1354 -0.5347
 5450TIP3   OH237908   1.639   1.379   7.736 -0.6972 -0.7738 -0.1447
 5450TIP3    H137909   1.681   1.298   7.708 -0.6368 -1.1902  1.1382
 5450TIP3    H237910   1.624   1.368   7.830 -0.8615  0.6245  0.0093
 5451TIP3   OH237911   1.622   5.908   7.583  0.2842  0.3298  0.6061
 5451TIP3    H137912   1.694   5.932   7.524  0.2425 -0.0998  0.3802
 5451TIP3    H237913   1.648   5.823   7.620 -0.2491  0.0203  0.2832
 5452TIP3   OH237914   1.735   7.098   6.703 -0.2019 -0.4254  0.2414
 5452TIP3    H137915   1.687   7.103   6.785 -0.9165 -0.6211 -0.1565
 5452TIP3    H237916   1.704   7.174   6.653  2.4919  1.4600  1.3398
 5453TIP3   OH237917   0.145   6.295   0.570 -1.0668 -0.0455  0.2746
 5453TIP3    H137918   0.086   6.246   0.512 -0.4001  0.2416 -0.6467
 5453TIP3    H237919   0.205   6.341   0.511 -0.3850  0.2552  1.1892
 5454TIP3   OH237920   1.513   1.881   6.729 -0.1572  0.1973  0.3396
 5454TIP3    H137921   1.568   1.959   6.719  0.4246 -0.3616 -0.9101
 5454TIP3    H237922   1.482   1.862   6.641  0.0241 -1.2041  0.5683
 5455TIP3   OH237923   2.247   1.983   1.852  0.7511 -0.1157  0.0272
 5455TIP3    H137924   2.255   2.075   1.825  0.2529  0.0423  0.3996
 5455TIP3    H237925   2.311   1.936   1.799  1.0771  0.4662 -0.0917
 5456TIP3   OH237926   6.953   6.593   1.296 -0.0967 -0.3080  0.2223
 5456TIP3    H137927   6.909   6.587   1.380 -1.5645 -0.6277 -0.5533
 5456TIP3    H237928   6.964   6.502   1.268 -1.0791 -0.1533 -0.6770
 5457TIP3   OH237929   0.525   4.233   1.618 -0.9338  0.1013 -0.7008
 5457TIP3    H137930   0.549   4.199   1.704 -0.0353  0.1494 -0.9244
 5457TIP3    H237931   0.603   4.217   1.563 -1.4177  0.2606 -1.4424
 5458TIP3   OH237932   2.395   4.167   7.588 -0.1623  0.2620  0.0047
 5458TIP3    H137933   2.459   4.147   7.656  0.7909 -0.7059 -1.1326
 5458TIP3    H237934   2.434   4.132   7.508 -2.0594 -0.2179 -0.7480
 5459TIP3   OH237935   0.740   5.173   0.569 -0.3917 -0.2872 -0.2896
 5459TIP3    H137936   0.803   5.218   0.625  1.5772 -0.8624 -1.9677
 5459TIP3    H237937   0.754   5.080   0.586 -1.4314 -0.4022 -0.0099
 5460TIP3   OH237938   0.138   3.688   7.144  1.0916  0.0226  0.6294
 5460TIP3    H137939   0.091   3.613   7.181  0.2271  0.4816  0.4486
 5460TIP3    H237940   0.097   3.764   7.184  1.0057  0.4691 -0.3154
 5461TIP3   OH237941   2.253   4.652   7.250 -0.2601 -0.0923  0.1969
 5461TIP3    H137942   2.258   4.747   7.266 -1.2042 -0.1319  0.7811
 5461TIP3    H237943   2.340   4.620   7.271 -0.4972  0.3728  1.9950
 5462TIP3   OH237944   1.001   2.876   2.342  0.3265 -0.6099 -0.1103
 5462TIP3    H137945   0.967   2.889   2.254 -1.5826 -1.1308  0.5125
 5462TIP3    H237946   0.948   2.803   2.377  1.3548 -0.6980  1.2913
 5463TIP3   OH237947   0.395   3.135   1.921  0.3808  0.1357  0.2194
 5463TIP3    H137948   0.391   3.194   1.845 -2.7132  0.4127  0.5677
 5463TIP3    H237949   0.414   3.192   1.995 -0.1458  0.3562  0.1848
 5464TIP3   OH237950   5.870   5.472   0.326  0.1348 -0.1238 -0.2210
 5464TIP3    H137951   5.961   5.444   0.321  0.0787 -0.2974 -0.2749
 5464TIP3    H237952   5.829   5.411   0.387 -0.4128 -1.3100 -1.7324
 5465TIP3   OH237953   1.521   5.702   1.935 -0.2340  0.2539  0.4337
 5465TIP3    H137954   1.583   5.764   1.896 -0.9990  1.5507  1.2412
 5465TIP3    H237955   1.482   5.750   2.008 -1.2529 -0.9958  0.7317
 5466TIP3   OH237956   2.704   0.460   8.018  0.1870 -0.3730 -0.5390
 5466TIP3    H137957   2.712   0.537   7.961 -1.7030 -0.2724 -0.7009
 5466TIP3    H237958   2.654   0.397   7.966  0.4317 -1.1522  0.1588
 5467TIP3   OH237959   2.330   2.757   0.905 -0.6771 -0.3286  0.4513
 5467TIP3    H137960   2.268   2.703   0.856 -0.9819  0.8940 -0.5403
 5467TIP3    H237961   2.293   2.762   0.992 -1.0217 -1.1080  0.3615
 5468TIP3   OH237962   3.913   6.460   8.021  0.5704 -0.0978  0.0809
 5468TIP3    H137963   3.896   6.376   8.064 -1.0932  0.2583  0.1488
 5468TIP3    H237964   3.988   6.443   7.964  0.0357 -1.7169 -0.1564
 5469TIP3   OH237965   0.649   2.331   1.830 -0.4591  0.5623 -0.3053
 5469TIP3    H137966   0.702   2.262   1.790 -0.1928  0.2323  0.6042
 5469TIP3    H237967   0.706   2.408   1.830 -0.8630  0.8630 -1.5940
 5470TIP3   OH237968   7.115   5.495   6.194 -0.2869 -0.5852  0.1634
 5470TIP3    H137969   7.031   5.457   6.169  0.0123  0.2365 -2.1440
 5470TIP3    H237970   7.153   5.527   6.112  0.2128  3.2071  1.7579
 5471TIP3   OH237971   0.389   5.899   1.736 -0.3015 -0.0421  0.2583
 5471TIP3    H137972   0.478   5.889   1.703 -0.1373  1.1496  0.3340
 5471TIP3    H237973   0.394   5.866   1.826 -0.3081 -1.4393 -0.2289
 5472TIP3   OH237974   1.205   2.874   0.222  0.6365  0.1878 -0.1787
 5472TIP3    H137975   1.200   2.778   0.219  2.5778 -0.0282  2.1102
 5472TIP3    H237976   1.124   2.903   0.181 -1.2259 -2.4874  1.3932
 5473TIP3   OH237977   3.958   2.677   0.298 -0.9056 -0.8211 -0.0754
 5473TIP3    H137978   4.038   2.624   0.302  0.5800  1.2045 -1.5552
 5473TIP3    H237979   3.979   2.755   0.350 -2.2141 -0.6083  0.1498
 5474TIP3   OH237980   2.002   0.253   7.537 -0.5377  0.3842  0.2388
 5474TIP3    H137981   2.089   0.282   7.511  0.6049 -0.7572  2.6337
 5474TIP3    H237982   1.948   0.332   7.534  0.4403  1.0106 -1.7025
 5475TIP3   OH237983   5.971   7.067   1.077 -0.4107 -0.1271 -0.8934
 5475TIP3    H137984   5.994   7.022   1.158  0.2227  0.2104 -0.8785
 5475TIP3    H237985   6.047   7.055   1.020 -0.1521  1.0696 -0.8203
 5476TIP3   OH237986   0.123   4.587   1.224 -0.0608  0.1239 -0.6735
 5476TIP3    H137987   0.096   4.508   1.176 -1.1008  0.4847 -0.6951
 5476TIP3    H237988   0.052   4.650   1.208  0.3954  0.8023 -0.0273
 5477TIP3   OH237989   2.394   2.475   1.766 -0.3973 -0.2333 -0.0155
 5477TIP3    H137990   2.455   2.511   1.829  0.9265 -1.1654 -0.7469
 5477TIP3    H237991   2.333   2.422   1.818  0.0558 -0.1515  0.5898
 5478TIP3   OH237992   3.833   2.395   1.186  0.4304 -0.1342 -0.3953
 5478TIP3    H137993   3.795   2.348   1.260 -0.8052  0.8675 -0.3796
 5478TIP3    H237994   3.912   2.435   1.222  1.3054 -1.8646 -0.3185
 5479TIP3   OH237995   0.290   3.216   7.667 -0.4910 -0.2217  0.1402
 5479TIP3    H137996   0.316   3.259   7.748 -3.7848  1.1040  0.6022
 5479TIP3    H237997   0.316   3.276   7.598  0.5129 -0.4118  0.3540
 5480TIP3   OH237998   7.037   2.936   7.233  0.7656  0.2550 -0.0091
 5480TIP3    H137999   7.090   2.986   7.294  0.0948  0.9253  0.0255
 5480TIP3    H238000   6.960   2.911   7.283  0.1532  0.9176 -0.6144
 5481TIP3   OH238001   1.969   2.032   7.223  0.1643 -0.0593  0.6051
 5481TIP3    H138002   1.909   1.968   7.261 -2.7342  1.6002 -1.0323
 5481TIP3    H238003   1.978   2.099   7.291  0.3698 -0.4460  0.9600
 5482TIP3   OH238004   1.159   5.310   1.980 -0.1095 -0.5417  0.6011
 5482TIP3    H138005   1.223   5.334   1.913 -0.8498  3.0932  1.1320
 5482TIP3    H238006   1.201   5.238   2.028  4.2137  2.5304  1.7561
 5483TIP3   OH238007   2.068   3.214   2.183 -0.0093  0.0076 -0.0424
 5483TIP3    H138008   2.126   3.169   2.244  1.3127  0.2745 -1.0839
 5483TIP3    H238009   2.122   3.283   2.145 -1.3099  0.9246 -0.2726
 5484TIP3   OH238010   2.030   6.128   7.726  0.3470 -0.1089 -0.0708
 5484TIP3    H138011   1.958   6.069   7.703 -0.1034  0.1350  0.6776
 5484TIP3    H238012   2.102   6.102   7.669  0.4609 -1.9902  0.8974
 5485TIP3   OH238013   4.002   3.992   0.537  0.1349 -0.4379  0.6400
 5485TIP3    H138014   4.052   4.039   0.604  0.3487 -0.0342  0.2044
 5485TIP3    H238015   3.910   4.003   0.563  0.1328  0.9685  0.0795
 5486TIP3   OH238016   1.007   2.026   1.279  0.8059  0.2380  0.1978
 5486TIP3    H138017   1.002   2.036   1.374  1.8516 -1.6447  0.4750
 5486TIP3    H238018   1.082   1.967   1.265  0.5164  0.3052 -1.7779
 5487TIP3   OH238019   6.098   5.204   1.841 -0.7584 -0.0588 -0.1471
 5487TIP3    H138020   6.030   5.190   1.907  0.0124  0.5350  0.7928
 5487TIP3    H238021   6.180   5.186   1.887 -0.2838 -0.8862 -1.3017
 5488TIP3   OH238022   1.589   2.026   0.336 -0.6016 -0.0960  0.0116
 5488TIP3    H138023   1.634   2.074   0.267 -0.3325 -0.5743 -0.1486
 5488TIP3    H238024   1.592   2.085   0.412  1.9307 -0.8197  0.5494
 5489TIP3   OH238025   2.019   1.688   7.157  0.1704 -0.4464  0.0075
 5489TIP3    H138026   2.077   1.711   7.230 -0.1366 -0.4018  0.2361
 5489TIP3    H238027   2.059   1.730   7.081 -0.6048  1.1878  0.4801
 5490TIP3   OH238028   2.762   6.749   7.731 -0.1529  0.4185  0.0404
 5490TIP3    H138029   2.681   6.700   7.715 -0.0613  0.0497  0.6783
 5490TIP3    H238030   2.745   6.836   7.695 -0.3059 -0.0869 -1.1473
 5491TIP3   OH238031   1.166   5.811   2.252 -0.1835  0.4701 -0.0527
 5491TIP3    H138032   1.165   5.904   2.277 -1.0609  0.8397 -1.4186
 5491TIP3    H238033   1.074   5.785   2.256  0.1215 -0.4908  0.8266
 5492TIP3   OH238034   2.477   5.622   1.966  0.3569  0.6397 -0.1334
 5492TIP3    H138035   2.556   5.665   1.933 -0.2205  2.6975  1.0602
 5492TIP3    H238036   2.506   5.568   2.039  0.6724  1.3503  0.2675
 5493TIP3   OH238037   0.345   4.487   6.833 -0.3441  0.0194  0.0681
 5493TIP3    H138038   0.300   4.425   6.775 -0.4770 -0.9233  1.1627
 5493TIP3    H238039   0.291   4.566   6.830 -0.2281  0.0629 -1.2609
 5494TIP3   OH238040   1.335   3.317   1.492  0.5797  0.6517  0.1452
 5494TIP3    H138041   1.244   3.347   1.495 -0.3860 -2.0286 -0.9396
 5494TIP3    H238042   1.353   3.304   1.399  1.2762 -1.1002  0.4995
 5495TIP3   OH238043   2.718   2.595   7.591 -0.6308  0.1219 -0.0294
 5495TIP3    H138044   2.724   2.655   7.516 -1.2305 -0.6416 -0.7151
 5495TIP3    H238045   2.782   2.526   7.572  0.1062  0.5862  0.7873
 5496TIP3   OH238046   4.800   3.383   0.167  0.1955 -0.2662  0.0606
 5496TIP3    H138047   4.801   3.439   0.089  0.3249  2.0238  1.6438
 5496TIP3    H238048   4.880   3.330   0.160  0.8541  0.8049 -0.7629
 5497TIP3   OH238049   4.016   4.122   0.116  0.0060 -0.1981  0.2411
 5497TIP3    H138050   4.083   4.116   0.184 -1.6288  2.1845  2.1361
 5497TIP3    H238051   3.982   4.211   0.124 -3.5240 -1.4123 -0.5475
 5498TIP3   OH238052   2.162   4.196   1.702  0.8674 -0.0032  0.5991
 5498TIP3    H138053   2.204   4.238   1.777  0.9791  0.8257  0.0703
 5498TIP3    H238054   2.231   4.191   1.635 -0.1600  2.4539 -0.7142
 5499TIP3   OH238055   6.483   3.287   1.332  0.0567  0.6884  0.0344
 5499TIP3    H138056   6.554   3.350   1.337  1.5227 -0.9035 -0.2693
 5499TIP3    H238057   6.521   3.211   1.288 -1.5907 -0.5100  0.6154
 5500TIP3   OH238058   1.090   4.317   7.335  0.2200 -0.2848 -0.4063
 5500TIP3    H138059   1.013   4.261   7.326  1.2457 -1.4810 -2.4626
 5500TIP3    H238060   1.075   4.388   7.272 -0.5448  1.1458  1.3590
 5501TIP3   OH238061   5.915   2.980   1.049  0.7501  0.5360 -0.0093
 5501TIP3    H138062   5.948   3.060   1.009 -0.0633  1.2665  0.7704
 5501TIP3    H238063   5.839   2.956   0.996 -0.8827  2.0069  1.5892
 5502TIP3   OH238064   6.631   2.803   7.542  0.1306 -0.2724  0.0113
 5502TIP3    H138065   6.708   2.839   7.587  1.7296 -2.7852 -0.6157
 5502TIP3    H238066   6.569   2.785   7.612  0.6730  0.3863  0.6828
 5503TIP3   OH238067   6.386   3.705   7.581  0.0858 -0.0283 -0.5720
 5503TIP3    H138068   6.408   3.701   7.674 -0.8141  0.3724 -0.3401
 5503TIP3    H238069   6.344   3.790   7.569  1.4379  0.5232 -1.6283
 5504TIP3   OH238070   1.094   6.740   7.502 -0.3281 -0.1175 -0.2253
 5504TIP3    H138071   1.041   6.811   7.465  0.4677  0.1206 -0.9257
 5504TIP3    H238072   1.127   6.693   7.426  1.3763  0.4110  0.1682
 5505TIP3   OH238073   1.286   6.988   0.369 -0.2245  1.0973  0.4006
 5505TIP3    H138074   1.196   7.018   0.378 -0.4780 -0.0138  1.6027
 5505TIP3    H238075   1.314   6.967   0.458  1.2073  1.3808  0.0413
 5506TIP3   OH238076   2.835   2.271   0.767 -0.3670  0.5391  0.3060
 5506TIP3    H138077   2.888   2.278   0.687 -0.2350 -2.0073  0.1214
 5506TIP3    H238078   2.894   2.231   0.831 -1.6010 -0.9518  0.5320
 5507TIP3   OH238079   4.338   0.144   6.619  0.4047 -0.0257 -0.2429
 5507TIP3    H138080   4.282   0.169   6.546  1.4996 -0.7019 -1.3441
 5507TIP3    H238081   4.344   0.222   6.673  1.1560  1.1133 -1.9169
 5508TIP3   OH238082   6.912   5.070   7.642  0.7723 -0.0982 -0.4542
 5508TIP3    H138083   6.865   5.042   7.564  0.7883  0.2609 -0.5955
 5508TIP3    H238084   7.004   5.072   7.615  0.9122 -1.1358 -0.0797
 5509TIP3   OH238085   3.136   4.539   1.406  0.1432  0.1977  0.3104
 5509TIP3    H138086   3.212   4.481   1.403  0.6641  0.8421  0.9949
 5509TIP3    H238087   3.079   4.500   1.472 -0.5540 -0.8038 -0.8619
 5510TIP3   OH238088   2.473   7.041   1.330 -0.4355  0.6012  0.3901
 5510TIP3    H138089   2.401   6.979   1.343 -0.3265  0.9263  2.7050
 5510TIP3    H238090   2.542   7.009   1.388  0.5076  1.5213 -0.2094
 5511TIP3   OH238091   0.601   4.967   0.242 -0.0734 -0.2260  0.2362
 5511TIP3    H138092   0.639   4.954   0.156 -0.6079 -0.4652  0.0295
 5511TIP3    H238093   0.670   5.007   0.294 -0.0212  0.7075 -0.5381
 5512TIP3   OH238094   0.428   2.354   7.403 -0.1938  0.0545  0.0631
 5512TIP3    H138095   0.444   2.418   7.333  0.6798 -1.0171 -0.7276
 5512TIP3    H238096   0.333   2.347   7.408 -0.2508 -0.6939 -1.7985
 5513TIP3   OH238097   3.671   6.441   1.045 -0.3189 -0.1788 -0.1119
 5513TIP3    H138098   3.712   6.374   0.991 -1.0187 -0.1157 -0.7439
 5513TIP3    H238099   3.737   6.511   1.051 -0.3658 -0.0195 -1.2242
 5514TIP3   OH238100   3.108   5.770   8.111 -0.2726 -0.3735 -0.3943
 5514TIP3    H138101   3.155   5.689   8.128  0.7674  0.1880 -0.5257
 5514TIP3    H238102   3.029   5.743   8.065  0.3394 -1.2645 -0.9431
 5515TIP3   OH238103   6.828   4.733   1.425  0.9027 -0.4860  0.4460
 5515TIP3    H138104   6.851   4.709   1.515 -0.2828 -2.4583  0.2595
 5515TIP3    H238105   6.759   4.798   1.435 -0.2698 -1.7792  1.0036
 5516TIP3   OH238106   1.891   3.703   1.997  0.3100 -0.0122  0.4669
 5516TIP3    H138107   1.871   3.794   2.019 -2.0439 -0.4688  0.4347
 5516TIP3    H238108   1.878   3.698   1.903  3.3664  0.2766 -0.0104
 5517TIP3   OH238109   0.611   2.669   0.352  0.4005  0.3029  0.3118
 5517TIP3    H138110   0.556   2.594   0.373  0.9392  0.1248  1.1065
 5517TIP3    H238111   0.618   2.717   0.435  0.3234  1.0574 -0.1158
 5518TIP3   OH238112   1.282   1.842   0.722  0.5096 -0.2597  0.7143
 5518TIP3    H138113   1.364   1.876   0.757  0.2770  1.0522  0.0068
 5518TIP3    H238114   1.257   1.904   0.653 -0.6113 -1.1325  0.3098
 5519TIP3   OH238115   2.291   4.113   1.239  0.2771 -0.3211 -0.0036
 5519TIP3    H138116   2.212   4.059   1.234  0.5137 -0.5778 -1.1636
 5519TIP3    H238117   2.319   4.122   1.148  0.6948  1.0930  0.2590
 5520TIP3   OH238118   0.147   5.824   6.837  0.2656 -0.6946  0.5535
 5520TIP3    H138119   0.070   5.844   6.783  0.6779 -1.3824 -0.3113
 5520TIP3    H238120   0.149   5.893   6.903  0.2929  0.7404 -0.8965
 5521TIP3   OH238121   1.215   1.051   6.941  0.5989 -0.1662 -0.0536
 5521TIP3    H138122   1.158   0.981   6.910 -1.2408  1.2807  0.0225
 5521TIP3    H238123   1.157   1.113   6.985  2.2181  1.3487  0.0388
 5522TIP3   OH238124   6.258   6.768   6.606 -0.0713 -0.3127 -0.1921
 5522TIP3    H138125   6.216   6.711   6.542  0.4527 -0.9890  0.0649
 5522TIP3    H238126   6.324   6.713   6.648 -0.7761 -0.0264  1.3132
 5523TIP3   OH238127   5.637   2.463   1.248  0.2339 -0.3481 -0.2585
 5523TIP3    H138128   5.676   2.389   1.294  2.4432  0.8331 -0.1664
 5523TIP3    H238129   5.637   2.534   1.312 -1.8763 -0.2226 -0.3407
 5524TIP3   OH238130   0.743   1.698   7.603  0.1535  0.3596 -0.1331
 5524TIP3    H138131   0.682   1.673   7.672  0.6725 -0.4450  0.0298
 5524TIP3    H238132   0.754   1.619   7.550  0.9778  0.5319 -0.2197
 5525TIP3   OH238133   5.389   1.067   1.322 -0.1020  0.0998  0.1545
 5525TIP3    H138134   5.396   1.139   1.385  1.2510 -0.0415  0.1875
 5525TIP3    H238135   5.410   1.108   1.238  2.0589 -0.5175  0.3641
 5526TIP3   OH238136   2.542   6.926   7.960 -0.3845  0.5337  0.1268
 5526TIP3    H138137   2.637   6.936   7.965  0.1343 -3.3895  0.0845
 5526TIP3    H238138   2.514   6.915   8.051 -0.3855 -1.1539 -0.0622
 5527TIP3   OH238139   3.884   5.021   1.524  0.1796 -0.4802 -0.1959
 5527TIP3    H138140   3.895   4.970   1.604  0.9973 -1.1038 -0.7024
 5527TIP3    H238141   3.791   5.012   1.502  0.2041 -1.2924  0.0272
 5528TIP3   OH238142   6.578   3.561   1.401 -0.7968  0.3214 -0.2409
 5528TIP3    H138143   6.647   3.581   1.338  0.3032 -1.2513  0.4220
 5528TIP3    H238144   6.518   3.636   1.396  1.6828  2.4032  0.1996
 5529TIP3   OH238145   2.345   2.800   7.690  0.2130  0.1867  0.0527
 5529TIP3    H138146   2.412   2.848   7.640  1.1036 -1.1487 -0.0469
 5529TIP3    H238147   2.383   2.791   7.778  0.8825 -2.0292 -0.4568
 5530TIP3   OH238148   1.350   5.093   0.728  0.1199 -0.3613 -0.2909
 5530TIP3    H138149   1.432   5.087   0.777 -0.3805  0.0265  0.6060
 5530TIP3    H238150   1.326   5.002   0.710 -0.6189 -0.6081  1.7795
 5531TIP3   OH238151   3.099   3.588   7.655  0.4738  0.0974 -0.2068
 5531TIP3    H138152   3.151   3.662   7.621  2.0443 -0.6988  0.3935
 5531TIP3    H238153   3.119   3.586   7.748 -1.2702  0.2505  0.1715
 5532TIP3   OH238154   1.115   0.243   7.999  0.1287 -0.2272  0.5231
 5532TIP3    H138155   1.022   0.255   8.018  0.4286  1.4399  0.9797
 5532TIP3    H238156   1.135   0.309   7.933  0.7741 -1.2252 -0.3018
 5533TIP3   OH238157   1.453   6.696   7.764 -0.0974 -0.7164 -0.0580
 5533TIP3    H138158   1.497   6.769   7.721 -1.6683 -0.6590 -1.6286
 5533TIP3    H238159   1.360   6.720   7.765 -0.3803 -1.7662  1.3066
 5534TIP3   OH238160   2.367   0.842   6.859 -0.2426 -0.0617 -0.4070
 5534TIP3    H138161   2.398   0.775   6.919  1.2391 -0.3427 -1.4429
 5534TIP3    H238162   2.429   0.914   6.868  1.1916 -0.8908 -2.9878
 5535TIP3   OH238163   2.595   5.474   7.773  0.4928  0.6519 -0.1035
 5535TIP3    H138164   2.685   5.471   7.740 -0.5191 -0.6897 -2.8382
 5535TIP3    H238165   2.544   5.512   7.702 -1.1890  1.0833  1.2930
 5536TIP3   OH238166   2.168   5.477   7.186 -0.8982 -0.2819  0.2080
 5536TIP3    H138167   2.081   5.491   7.223 -0.4675  1.8009  0.5181
 5536TIP3    H238168   2.189   5.560   7.142  1.1843 -0.5070  0.7098
 5537TIP3   OH238169   3.453   4.509   6.992 -0.1859  0.1251 -0.2763
 5537TIP3    H138170   3.388   4.446   6.960  0.4187 -0.1741 -0.9534
 5537TIP3    H238171   3.408   4.557   7.061 -0.3523 -1.7289  0.9584
 5538TIP3   OH238172   0.629   3.966   1.454  0.5548 -0.3546 -0.0640
 5538TIP3    H138173   0.689   3.991   1.523  0.3113 -3.2608  1.3082
 5538TIP3    H238174   0.685   3.935   1.383  0.7318 -1.6250  0.6190
 5539TIP3   OH238175   5.571   4.929   1.692  0.1131  0.1810 -0.2398
 5539TIP3    H138176   5.635   4.941   1.763  1.0924 -0.7014 -0.9462
 5539TIP3    H238177   5.494   4.977   1.721  0.0771 -1.1217  1.9831
 5540TIP3   OH238178   2.910   5.166   1.177 -0.5814  0.0904 -0.1309
 5540TIP3    H138179   2.980   5.113   1.140  1.2473  2.4256 -0.1255
 5540TIP3    H238180   2.931   5.171   1.271 -0.1481  1.6656 -0.3012
 5541TIP3   OH238181   4.888   3.490   0.858 -0.6741  0.4675  0.1692
 5541TIP3    H138182   4.928   3.414   0.900 -1.3275 -0.7399 -1.3439
 5541TIP3    H238183   4.903   3.562   0.919 -0.1293 -0.8948  1.6677
 5542TIP3   OH238184   4.206   4.649   1.680  0.7552  0.4155  0.1011
 5542TIP3    H138185   4.248   4.640   1.766 -0.3754 -0.3251  0.5978
 5542TIP3    H238186   4.234   4.572   1.631 -1.0616 -0.8167  0.9130
 5543TIP3   OH238187   3.330   3.285   1.630  0.0205  0.6463  0.1382
 5543TIP3    H138188   3.321   3.291   1.725 -1.0430  1.2934  0.0032
 5543TIP3    H238189   3.280   3.207   1.606  2.7288 -1.2275  0.4176
 5544TIP3   OH238190   2.920   4.587   6.293 -0.4429  0.2879 -0.6883
 5544TIP3    H138191   3.012   4.613   6.288 -0.4607  0.2455 -1.3087
 5544TIP3    H238192   2.891   4.617   6.379 -0.3615  1.9893 -1.2350
 5545TIP3   OH238193   2.219   7.007   0.079  0.1329 -0.9944 -0.0214
 5545TIP3    H138194   2.212   7.097   0.049  0.1421  0.0121  2.8898
 5545TIP3    H238195   2.146   6.962   0.037 -0.3695  0.5514 -0.8253
 5546TIP3   OH238196   0.754   3.078   6.277 -0.5501  0.0829 -0.7146
 5546TIP3    H138197   0.793   3.155   6.318  0.6772 -0.8655 -0.0662
 5546TIP3    H238198   0.786   3.080   6.187 -0.9019  0.5774 -0.8327
 5547TIP3   OH238199   6.950   5.619   1.636  0.1634  0.2323  0.1522
 5547TIP3    H138200   7.018   5.564   1.675  0.5179  0.7420  0.2650
 5547TIP3    H238201   6.868   5.587   1.673  0.4136  0.1030  0.5984
 5548TIP3   OH238202   4.219   1.577   0.948  0.0236  0.6043 -0.0694
 5548TIP3    H138203   4.150   1.573   0.882  0.0667  1.3121 -0.1602
 5548TIP3    H238204   4.186   1.638   1.013  0.8576  1.4730 -0.4558
 5549TIP3   OH238205   1.844   4.025   0.267 -0.1949 -0.3568 -0.7286
 5549TIP3    H138206   1.763   4.066   0.236 -0.4599  0.1133  0.5792
 5549TIP3    H238207   1.822   3.932   0.276  0.0011 -0.5731 -2.3257
 5550TIP3   OH238208   0.875   2.391   7.499 -0.2058 -0.1755 -0.7732
 5550TIP3    H138209   0.878   2.486   7.513 -1.1295 -0.3366  0.5454
 5550TIP3    H238210   0.784   2.373   7.476 -0.0569 -0.7601 -0.9159
 5551TIP3   OH238211   1.552   2.718   1.069 -0.7095 -0.1800  0.2523
 5551TIP3    H138212   1.550   2.719   1.164 -2.5276 -1.1089  0.2476
 5551TIP3    H238213   1.505   2.637   1.045  0.8387 -0.6203 -1.3904
 5552TIP3   OH238214   1.205   0.027   7.867  0.0886 -0.0423  0.3343
 5552TIP3    H138215   1.135  -0.017   7.820 -1.1185  2.2955 -0.1641
 5552TIP3    H238216   1.160   0.078   7.935  1.5741 -0.9995  2.0594
 5553TIP3   OH238217   6.300   4.171   0.502 -0.3724 -0.1973  0.2686
 5553TIP3    H138218   6.373   4.217   0.542 -0.5160 -0.1122  0.4338
 5553TIP3    H238219   6.329   4.153   0.413 -1.6273  3.3383 -0.9710
 5554TIP3   OH238220   1.471   3.038   7.184  0.1773  0.6409  0.4146
 5554TIP3    H138221   1.486   3.130   7.160  3.0896 -0.2040 -1.2792
 5554TIP3    H238222   1.451   2.994   7.102 -0.8499 -0.3389  1.1705
 5555TIP3   OH238223   5.409   6.671   7.713  0.0340 -0.0784 -0.2758
 5555TIP3    H138224   5.348   6.714   7.773 -0.1510 -0.4664 -0.1868
 5555TIP3    H238225   5.452   6.743   7.667  2.7570  0.3773  2.8362
 5556TIP3   OH238226   5.571   5.573   6.484 -0.1336  0.4455 -0.3696
 5556TIP3    H138227   5.595   5.480   6.486 -2.5789 -0.2360 -0.9760
 5556TIP3    H238228   5.575   5.601   6.575 -2.0063 -0.9901  0.1890
 5557TIP3   OH238229   4.957   2.991   1.590  0.3914  0.4874 -0.1779
 5557TIP3    H138230   4.887   2.926   1.596  0.0203  0.8271 -0.7748
 5557TIP3    H238231   4.956   3.036   1.675 -0.6902  1.0713 -0.4797
 5558TIP3   OH238232   4.166   3.745   2.030  0.4841  0.0953 -0.1390
 5558TIP3    H138233   4.249   3.698   2.039 -0.0518 -0.9347 -0.4003
 5558TIP3    H238234   4.187   3.821   1.975  0.7349 -1.5630 -2.4189
 5559TIP3   OH238235   5.219   6.811   0.605 -0.8228 -0.0444 -0.1752
 5559TIP3    H138236   5.151   6.866   0.643 -0.5542 -0.0383  0.2914
 5559TIP3    H238237   5.283   6.800   0.675 -1.6875 -2.3221  0.3091
 5560TIP3   OH238238   6.287   5.006   1.563  0.0795  0.2284 -0.5614
 5560TIP3    H138239   6.199   5.014   1.600 -1.5186 -0.3178 -4.0782
 5560TIP3    H238240   6.295   4.914   1.537  0.0833  1.1406 -3.9873
 5561TIP3   OH238241   4.962   3.550   0.377 -0.5485  0.1132  0.5155
 5561TIP3    H138242   4.897   3.491   0.413  1.2739 -1.3158  1.5514
 5561TIP3    H238243   4.977   3.519   0.288 -0.1049 -0.5558  0.8242
 5562TIP3   OH238244   6.712   3.704   1.219  0.0062 -0.1282 -0.7318
 5562TIP3    H138245   6.798   3.739   1.241 -0.4314 -0.2256  1.2144
 5562TIP3    H238246   6.680   3.761   1.149  1.1167  0.6868 -0.5821
 5563TIP3   OH238247   2.606   3.449   7.627  0.6063  0.0280  0.0275
 5563TIP3    H138248   2.556   3.433   7.707  0.1356 -0.0622 -0.2851
 5563TIP3    H238249   2.687   3.489   7.657  1.3399 -1.9163  0.7394
 5564TIP3   OH238250   3.062   5.728   6.264  0.3692 -0.0640 -0.1366
 5564TIP3    H138251   3.044   5.634   6.257 -0.9307  0.1438  0.3727
 5564TIP3    H238252   3.051   5.761   6.175 -1.5933  0.0224  0.1216
 5565TIP3   OH238253   6.934   4.314   1.878 -0.0484 -0.3180 -0.1258
 5565TIP3    H138254   6.921   4.394   1.929 -1.4466 -1.3601  1.2160
 5565TIP3    H238255   6.889   4.246   1.929 -1.3391 -1.4480 -2.6837
 5566TIP3   OH238256   3.219   1.569   0.497  0.8119 -0.1720 -0.0418
 5566TIP3    H138257   3.290   1.616   0.453  0.3691  0.2707 -0.2852
 5566TIP3    H238258   3.260   1.489   0.530  1.4151  0.0620 -0.2181
 5567TIP3   OH238259   0.719   5.535   7.094 -0.0402 -0.3204 -0.3617
 5567TIP3    H138260   0.750   5.603   7.035  0.9144 -1.6140 -1.3719
 5567TIP3    H238261   0.632   5.512   7.061 -0.3251  0.3471 -0.0727
 5568TIP3   OH238262   7.039   0.453   0.739  0.2919  0.3288 -0.2394
 5568TIP3    H138263   6.948   0.442   0.713  0.9935 -2.8507 -1.4874
 5568TIP3    H238264   7.090   0.416   0.667  2.4559 -1.9000  2.3005
 5569TIP3   OH238265   2.879   6.254   0.590 -0.2468  0.2602  0.1373
 5569TIP3    H138266   2.876   6.317   0.662  0.0901  1.4036 -0.8245
 5569TIP3    H238267   2.972   6.234   0.580 -0.2502  0.4632 -0.2920
 5570TIP3   OH238268   2.806   0.933   1.420  0.4844 -0.0590 -0.6397
 5570TIP3    H138269   2.833   0.869   1.486  1.6187 -0.7852 -1.7738
 5570TIP3    H238270   2.711   0.935   1.425  0.5979  1.0476  2.0781
 5571TIP3   OH238271   0.610   2.716   6.263  0.1895  0.2882  0.0941
 5571TIP3    H138272   0.617   2.739   6.170 -0.8107  2.6843  0.5953
 5571TIP3    H238273   0.609   2.620   6.263 -2.6690  0.2319 -2.6272
 5572TIP3   OH238274   3.469   5.995   0.270 -0.0884  0.5091 -0.2073
 5572TIP3    H138275   3.482   5.901   0.261  1.4413  0.4658  2.0609
 5572TIP3    H238276   3.375   6.005   0.285 -0.3667 -0.5710 -1.1191
 5573TIP3   OH238277   2.792   2.323   1.145 -0.2332  0.1995  0.0258
 5573TIP3    H138278   2.731   2.361   1.082 -0.5042 -2.1064 -1.1475
 5573TIP3    H238279   2.870   2.302   1.093  0.5483  0.6396  0.9876
 5574TIP3   OH238280   2.924   5.886   1.638  0.3885  0.0444 -0.6739
 5574TIP3    H138281   3.007   5.838   1.636  1.4759  1.7282  1.5527
 5574TIP3    H238282   2.947   5.974   1.610 -0.5021  0.6673  0.4985
 5575TIP3   OH238283   1.563   2.673   6.311 -0.1475  0.3189  0.1161
 5575TIP3    H138284   1.653   2.705   6.320  0.6418 -1.7745  0.0175
 5575TIP3    H238285   1.550   2.662   6.217 -0.3442  0.2254  0.1534
 5576TIP3   OH238286   3.461   0.779   0.649 -0.3242  0.1221  0.0778
 5576TIP3    H138287   3.410   0.844   0.697 -0.8729 -0.2118 -0.0518
 5576TIP3    H238288   3.417   0.772   0.564 -0.4537 -0.6633  0.2156
 5577TIP3   OH238289   2.052   5.050   7.909 -0.3337 -0.0335  0.5120
 5577TIP3    H138290   2.025   5.004   7.989 -1.8393  1.0674  0.6493
 5577TIP3    H238291   2.028   5.141   7.924  2.2879  0.7825  0.0928
 5578TIP3   OH238292   6.374   2.435   1.064 -0.3611 -0.0612 -0.0990
 5578TIP3    H138293   6.419   2.520   1.068 -0.8573  0.2188 -0.4231
 5578TIP3    H238294   6.280   2.458   1.063 -0.5027 -0.6259  0.2073
 5579TIP3   OH238295   2.875   5.714   8.019  0.5127  0.2084 -0.0730
 5579TIP3    H138296   2.857   5.622   8.038  0.9557  0.3006  0.8538
 5579TIP3    H238297   2.789   5.755   8.014  0.3286 -0.1688 -0.0251
 5580TIP3   OH238298   2.875   4.688   0.499  0.9507  0.3123  0.1489
 5580TIP3    H138299   2.954   4.655   0.457 -0.5300 -0.8586 -1.8056
 5580TIP3    H238300   2.833   4.743   0.432 -0.8523 -0.6229  0.4714
 5581TIP3   OH238301   1.347   4.298   2.313 -0.5844  0.0259 -0.0872
 5581TIP3    H138302   1.433   4.305   2.354  0.2313  0.0578 -1.7668
 5581TIP3    H238303   1.351   4.356   2.237 -0.9019 -2.5116 -2.1332
 5582TIP3   OH238304   3.900   5.717   7.715 -0.2796  0.1962  0.4804
 5582TIP3    H138305   3.975   5.664   7.686 -0.5284 -0.1345  0.4333
 5582TIP3    H238306   3.839   5.714   7.641 -0.8460 -0.5100  0.9742
 5583TIP3   OH238307   4.988   0.380   1.794  0.2231  0.4845  0.5426
 5583TIP3    H138308   4.927   0.453   1.807 -1.6993 -1.1454  0.7614
 5583TIP3    H238309   4.950   0.308   1.843  1.8606 -0.8222 -0.0848
 5584TIP3   OH238310   4.036   5.028   0.600 -1.1447 -0.2285 -0.5232
 5584TIP3    H138311   4.053   4.957   0.662 -0.1357  0.3724 -0.0885
 5584TIP3    H238312   4.119   5.076   0.597 -2.0489  1.3837 -0.2202
 5585TIP3   OH238313   2.422   0.820   7.833  0.6011  0.2261  0.0852
 5585TIP3    H138314   2.518   0.824   7.840  0.4308  0.8231  2.4484
 5585TIP3    H238315   2.400   0.896   7.779  1.4855 -0.2387 -0.9634
 5586TIP3   OH238316   5.195   3.962   1.347 -0.1412 -0.1510 -0.5965
 5586TIP3    H138317   5.282   3.977   1.310  0.1933  0.8287  0.5752
 5586TIP3    H238318   5.154   4.048   1.349 -0.1998 -0.1942  1.1720
 5587TIP3   OH238319   3.662   5.294   1.133  0.6586 -0.0439  0.1149
 5587TIP3    H138320   3.567   5.307   1.129  0.8616  1.8463  0.8315
 5587TIP3    H238321   3.674   5.222   1.194 -0.3801 -1.4068 -1.2416
 5588TIP3   OH238322   5.019   7.034   0.651 -0.8107 -0.4915 -0.2348
 5588TIP3    H138323   4.933   7.002   0.624 -0.6490 -1.3155  0.2200
 5588TIP3    H238324   5.019   7.025   0.747  0.3477 -1.9027 -0.3598
 5589TIP3   OH238325   0.405   4.869   0.413 -0.3306 -0.1674 -0.3347
 5589TIP3    H138326   0.319   4.884   0.374  0.1100  1.4226 -0.7487
 5589TIP3    H238327   0.466   4.905   0.350  0.4134  2.3331  1.7276
 5590TIP3   OH238328   4.591   4.034   7.921 -0.0415  0.2995  0.5460
 5590TIP3    H138329   4.647   4.065   7.850 -1.9937 -0.4474 -1.4062
 5590TIP3    H238330   4.650   3.988   7.981  1.7973  1.8247 -0.0448
 5591TIP3   OH238331   4.367   0.451   1.057 -0.1203 -0.5199 -0.1211
 5591TIP3    H138332   4.299   0.397   1.018  2.4544 -2.3387 -2.2025
 5591TIP3    H238333   4.333   0.541   1.050 -0.9771 -1.0593 -4.0133
 5592TIP3   OH238334   2.259   5.020   8.074  0.3216 -0.1375 -0.1489
 5592TIP3    H138335   2.207   4.990   8.000 -0.4920 -0.9942  0.7464
 5592TIP3    H238336   2.326   4.953   8.085  0.7230  0.2253 -0.4065
 5593TIP3   OH238337   3.391   3.435   2.409 -0.3025  0.4096  0.1144
 5593TIP3    H138338   3.317   3.467   2.358 -1.0657 -0.2853  0.7566
 5593TIP3    H238339   3.355   3.364   2.462  1.0277 -0.5401 -0.2154
 5594TIP3   OH238340   2.435   4.258   6.964 -0.0859  0.5073 -0.0660
 5594TIP3    H138341   2.356   4.286   7.011  0.5937  1.1638  0.6964
 5594TIP3    H238342   2.455   4.332   6.907  0.7144  0.8744  0.6815
 5595TIP3   OH238343   2.051   5.230   1.202  0.4738 -0.7620 -0.8726
 5595TIP3    H138344   2.130   5.177   1.202  1.5291  0.7939 -0.8777
 5595TIP3    H238345   2.076   5.312   1.159 -0.6381  0.4453  0.7096
 5596TIP3   OH238346   2.898   5.087   0.344  0.3298 -0.0062 -0.0422
 5596TIP3    H138347   2.884   4.993   0.331  0.7766 -0.0490 -0.2172
 5596TIP3    H238348   2.811   5.125   0.335 -0.0017 -0.5043  0.9614
 5597TIP3   OH238349   1.916   5.768   6.831 -0.1985 -0.4042 -0.1048
 5597TIP3    H138350   1.833   5.810   6.853  0.1210 -0.1108  0.5462
 5597TIP3    H238351   1.970   5.778   6.910  1.0452  0.8901 -1.1015
 5598TIP3   OH238352   4.669   2.572   0.268 -0.3774  0.5661 -0.1104
 5598TIP3    H138353   4.762   2.593   0.257 -0.0421 -0.7819  0.0307
 5598TIP3    H238354   4.623   2.644   0.225  0.6886  2.2974  1.6072
 5599TIP3   OH238355   5.960   2.154   1.995 -0.1827  0.0585  0.1510
 5599TIP3    H138356   5.871   2.171   2.026  0.1921 -0.2444  1.4366
 5599TIP3    H238357   5.987   2.074   2.041  0.8603  0.3065  0.0001
 5600TIP3   OH238358   1.495   1.112   1.727  0.9790 -0.4300  0.0635
 5600TIP3    H138359   1.539   1.123   1.812  1.7838 -2.7523 -0.0041
 5600TIP3    H238360   1.406   1.085   1.750  0.7308  0.4476  0.1637
 5601TIP3   OH238361   2.314   3.508   6.119  0.4491  0.0627  0.2018
 5601TIP3    H138362   2.393   3.544   6.078  0.4835  0.8238  0.9071
 5601TIP3    H238363   2.250   3.579   6.114  0.5903  0.3337  1.8414
 5602TIP3   OH238364   3.191   4.130   0.093  0.2310 -0.3867 -0.0933
 5602TIP3    H138365   3.190   4.211   0.145  0.9689  0.1756 -0.9347
 5602TIP3    H238366   3.139   4.152   0.015  1.3151 -0.3730 -0.8247
 5603TIP3   OH238367   3.306   2.551   6.177 -0.0570  0.1774 -0.1312
 5603TIP3    H138368   3.327   2.641   6.202  0.1381  0.2534 -0.5639
 5603TIP3    H238369   3.249   2.559   6.100 -1.3713 -0.0382  0.8101
 5604TIP3   OH238370   1.652   0.651   7.362 -0.2249 -0.2469  0.1747
 5604TIP3    H138371   1.682   0.709   7.292  1.4077 -1.1739  0.0638
 5604TIP3    H238372   1.694   0.685   7.441  1.1130 -1.4860  0.0368
 5605TIP3   OH238373   2.273   4.662   2.311  0.4180  0.1927 -0.2361
 5605TIP3    H138374   2.320   4.580   2.300  1.1858  0.7217 -0.9769
 5605TIP3    H238375   2.184   4.644   2.279  0.2327 -0.6825  0.7530
 5606TIP3   OH238376   3.626   4.284   2.161  0.0768  0.2470  0.3533
 5606TIP3    H138377   3.682   4.206   2.149  2.1108  1.6748  0.2610
 5606TIP3    H238378   3.585   4.272   2.246  1.0112 -0.5476  0.7000
 5607TIP3   OH238379   2.050   6.436   1.511 -0.0271  0.1995  0.3088
 5607TIP3    H138380   1.993   6.360   1.525  1.9232 -1.2328  0.5229
 5607TIP3    H238381   2.057   6.476   1.598  0.7707 -0.6628  0.6381
 5608TIP3   OH238382   4.169   1.784   1.592 -0.4149 -0.3291  0.5443
 5608TIP3    H138383   4.075   1.790   1.576 -0.8386  0.0121  2.9286
 5608TIP3    H238384   4.210   1.825   1.516 -2.2768  1.6740  0.6110
 5609TIP3   OH238385   2.134   5.156   0.174 -0.2518  0.2605  0.2712
 5609TIP3    H138386   2.039   5.147   0.177 -0.0921 -1.7190 -0.1268
 5609TIP3    H238387   2.160   5.107   0.096  1.0869  0.9212  0.2880
 5610TIP3   OH238388   6.602   1.299   1.093  0.3378 -0.7405  0.8263
 5610TIP3    H138389   6.618   1.390   1.119  2.2609 -0.8484  0.1423
 5610TIP3    H238390   6.690   1.261   1.083 -0.4007 -2.1671 -0.6309
 5611TIP3   OH238391   5.290   6.291   0.095  0.2762 -0.0140 -0.3675
 5611TIP3    H138392   5.233   6.252   0.161  1.8623 -0.1583  0.9511
 5611TIP3    H238393   5.244   6.369   0.067  0.2597  0.8834  2.0382
 5612TIP3   OH238394   2.304   3.235   0.460  0.1641  0.0394 -0.1970
 5612TIP3    H138395   2.399   3.244   0.447  0.3043  2.0999  1.9691
 5612TIP3    H238396   2.265   3.280   0.386  0.8396 -1.7159 -1.6641
 5613TIP3   OH238397   6.738   2.573   6.139  0.3383 -0.4426  0.1224
 5613TIP3    H138398   6.738   2.668   6.155  0.7005 -0.5265  0.6382
 5613TIP3    H238399   6.646   2.547   6.151  0.0477  0.0136 -1.0774
 5614TIP3   OH238400   4.508   6.188   1.387 -0.2227  0.4137  0.3439
 5614TIP3    H138401   4.458   6.231   1.456 -0.9608  1.3526 -0.7527
 5614TIP3    H238402   4.546   6.112   1.429 -2.0090  0.0684  1.3840
 5615TIP3   OH238403   5.449   3.564   6.437  0.1175  0.2914 -0.0726
 5615TIP3    H138404   5.540   3.576   6.467 -0.4364 -0.1201  1.8611
 5615TIP3    H238405   5.438   3.630   6.368  1.8595  0.4060 -0.2831
 5616TIP3   OH238406   2.613   4.537   0.788 -0.0966 -0.2864  0.1128
 5616TIP3    H138407   2.587   4.497   0.704 -0.4043 -0.2542  0.1908
 5616TIP3    H238408   2.576   4.479   0.854  0.3968 -0.4704  0.2259
 5617TIP3   OH238409   3.725   2.863   7.121  0.2777  0.6996  0.2157
 5617TIP3    H138410   3.794   2.803   7.150 -0.5995 -0.6292 -0.3857
 5617TIP3    H238411   3.686   2.895   7.202  3.0709  3.2684  0.6303
 5618TIP3   OH238412   0.269   4.531   0.263 -0.2069  0.2357  0.1863
 5618TIP3    H138413   0.350   4.545   0.214  0.4459  0.3416  1.2911
 5618TIP3    H238414   0.231   4.453   0.223 -0.4442  1.1840 -1.4829
 5619TIP3   OH238415   7.104   0.718   0.446  0.4741 -0.7342  0.3084
 5619TIP3    H138416   7.179   0.691   0.393  0.4130 -0.4015  0.0485
 5619TIP3    H238417   7.063   0.788   0.395  0.5011 -0.3090  0.8640
 5620TIP3   OH238418   1.057   6.417   7.046  0.4537 -0.0679 -0.2109
 5620TIP3    H138419   0.986   6.353   7.046  1.4417 -1.2543 -2.8240
 5620TIP3    H238420   1.032   6.481   6.980  0.5548  1.0136  0.7850
 5621TIP3   OH238421   1.161   3.183   7.417 -0.4900 -0.4453 -0.1036
 5621TIP3    H138422   1.107   3.177   7.496 -0.7442 -0.1266 -0.2529
 5621TIP3    H238423   1.104   3.153   7.346 -0.5931  0.2358 -0.3163
 5622TIP3   OH238424   2.397   5.349   2.127 -0.0995 -0.5035 -0.6289
 5622TIP3    H138425   2.377   5.280   2.191 -0.3328 -0.1594 -0.3248
 5622TIP3    H238426   2.315   5.363   2.080 -0.6982  1.1509  0.8525
 5623TIP3   OH238427   3.599   4.693   6.195  0.1036 -1.0224  0.0722
 5623TIP3    H138428   3.569   4.719   6.108 -1.7779 -1.0310  0.7000
 5623TIP3    H238429   3.530   4.724   6.254  0.3548 -2.8429  1.3487
 5624TIP3   OH238430   1.512   3.497   1.659  0.1846 -0.4303  0.1327
 5624TIP3    H138431   1.553   3.442   1.725 -1.6587 -1.5270  0.3915
 5624TIP3    H238432   1.481   3.436   1.592  0.9665  0.5665 -1.1736
 5625TIP3   OH238433   1.676   3.584   0.903  0.2820 -0.6813  0.2570
 5625TIP3    H138434   1.743   3.629   0.852 -0.5347  1.2558  0.8601
 5625TIP3    H238435   1.722   3.552   0.980  0.6217  0.2814  0.4665
 5626TIP3   OH238436   3.210   7.047   0.155  0.1315 -0.9816 -0.3741
 5626TIP3    H138437   3.179   6.986   0.221  0.6385 -1.1913 -0.3245
 5626TIP3    H238438   3.299   7.068   0.182 -0.9958  2.0347  1.2235
 5627TIP3   OH238439   4.464   2.873   6.904  0.0616  0.1682 -0.1709
 5627TIP3    H138440   4.442   2.780   6.902 -0.1634  0.2387 -1.1496
 5627TIP3    H238441   4.489   2.894   6.814  0.3206  1.0034  0.0898
 5628TIP3   OH238442   3.731   0.018   7.332  0.6818 -0.1761  0.7192
 5628TIP3    H138443   3.826   0.008   7.335  0.6538 -0.7976 -0.1599
 5628TIP3    H238444   3.717   0.100   7.284  0.7665 -0.2440  0.5795
 5629TIP3   OH238445   2.551   5.144   7.273 -0.4391 -0.0151  0.2967
 5629TIP3    H138446   2.582   5.133   7.183 -2.2196  0.2036 -0.3634
 5629TIP3    H238447   2.455   5.145   7.266 -0.7110 -3.2481  2.5684
 5630TIP3   OH238448   0.896   4.043   6.871 -0.3414 -0.0777 -0.4767
 5630TIP3    H138449   0.845   3.982   6.924  0.6367 -2.0091 -1.7017
 5630TIP3    H238450   0.987   4.024   6.896  0.1486 -1.1958 -2.9968
 5631TIP3   OH238451   0.616   4.113   8.101  0.2049  0.1530  0.0014
 5631TIP3    H138452   0.535   4.163   8.112  0.9826  1.5888 -0.6439
 5631TIP3    H238453   0.614   4.049   8.172 -1.7742 -0.2324 -0.3653
 5632TIP3   OH238454   1.873   3.315   1.000 -0.1942  0.2420 -0.2542
 5632TIP3    H138455   1.790   3.311   0.953 -0.8145 -0.5685  0.8711
 5632TIP3    H238456   1.921   3.237   0.972 -0.2552  0.1547 -0.1192
 5633TIP3   OH238457   5.132   6.112   1.209 -0.9642  0.2216  0.6824
 5633TIP3    H138458   5.163   6.183   1.153 -0.4097  0.6954  1.5898
 5633TIP3    H238459   5.057   6.076   1.161 -0.7682  0.8983 -0.1601
 5634TIP3   OH238460   3.224   3.980   0.999  0.3753  0.5254 -0.3317
 5634TIP3    H138461   3.311   3.954   1.029  0.3196 -0.1876 -0.7673
 5634TIP3    H238462   3.235   3.994   0.905 -0.6548 -2.5642 -0.9488
 5635TIP3   OH238463   5.246   6.394   6.704 -0.1329 -0.6998 -0.3119
 5635TIP3    H138464   5.206   6.323   6.653 -1.5781 -1.8924  2.3915
 5635TIP3    H238465   5.210   6.384   6.791  0.3746  2.8462  0.3590
 5636TIP3   OH238466   4.298   4.426   1.542 -0.6694  0.0082 -0.2064
 5636TIP3    H138467   4.220   4.376   1.517 -0.7601 -0.2771  0.6334
 5636TIP3    H238468   4.325   4.387   1.625  0.5544 -0.1039 -0.6540
 5637TIP3   OH238469   4.839   2.772   7.771 -0.1217  0.6497 -0.2179
 5637TIP3    H138470   4.863   2.853   7.816  2.1668 -0.9470  1.5829
 5637TIP3    H238471   4.906   2.763   7.703 -0.0956  0.0362 -0.1079
 5638TIP3   OH238472   1.854   6.557   0.844 -0.1976 -0.1897  0.0048
 5638TIP3    H138473   1.897   6.584   0.763 -0.4603 -0.1581 -0.1247
 5638TIP3    H238474   1.822   6.468   0.825  0.0492 -0.3196  0.1925
 5639TIP3   OH238475   4.041   4.316   1.204  0.2082 -0.6054 -0.2508
 5639TIP3    H138476   3.994   4.394   1.173  1.5595 -0.0305 -0.9029
 5639TIP3    H238477   4.075   4.341   1.290  0.5782 -0.4838 -0.4281
 5640TIP3   OH238478   1.314   3.935   1.034  0.0529 -0.3302 -0.3474
 5640TIP3    H138479   1.295   3.966   1.122 -0.7359  0.3445 -0.7430
 5640TIP3    H238480   1.363   4.007   0.993  1.4690 -1.1199 -0.0888
 5641TIP3   OH238481   3.987   3.072   1.120 -0.2494  0.1459 -0.0246
 5641TIP3    H138482   4.075   3.097   1.091 -0.7817  1.0639 -0.8838
 5641TIP3    H238483   3.995   2.980   1.143  0.7807  0.0309 -0.7766
 5642TIP3   OH238484   1.952   4.081   0.515 -0.4195 -0.1509 -0.3184
 5642TIP3    H138485   1.933   4.042   0.430  0.9033  1.1510 -1.2477
 5642TIP3    H238486   1.926   4.173   0.506  2.5128  0.7542 -0.3698
 5643TIP3   OH238487   4.849   1.370   6.590 -0.1041  0.5754 -0.1970
 5643TIP3    H138488   4.877   1.312   6.661 -0.0736  1.2720  0.3689
 5643TIP3    H238489   4.760   1.343   6.569 -0.8548  1.6866  1.5000
 5644TIP3   OH238490   3.856   3.615   0.426  0.1153  0.3464 -0.0807
 5644TIP3    H138491   3.937   3.656   0.396 -0.1281  0.7932 -0.1429
 5644TIP3    H238492   3.882   3.561   0.500  0.3664  1.0177  0.3283
 5645TIP3   OH238493   3.593   2.897   1.516 -0.4621  0.2595  0.5758
 5645TIP3    H138494   3.622   2.933   1.432  0.7335  0.6273  1.1356
 5645TIP3    H238495   3.577   2.804   1.497  1.0035  0.0628  0.2195
 5646TIP3   OH238496   3.615   4.682   1.184 -0.6347 -0.4939  0.0521
 5646TIP3    H138497   3.578   4.717   1.265  0.3914  1.0164 -0.1140
 5646TIP3    H238498   3.665   4.754   1.148 -0.3686 -1.4387 -1.4972
 5647TIP3   OH238499   2.654   0.604   6.534  0.0005 -0.1364  0.0669
 5647TIP3    H138500   2.705   0.525   6.550  0.1709 -0.5070 -2.1740
 5647TIP3    H238501   2.585   0.577   6.473 -0.0441  1.3776 -0.5758
 5648TIP3   OH238502   1.143   6.541   1.190 -0.1947 -0.2151  0.2974
 5648TIP3    H138503   1.073   6.555   1.254 -0.9534  0.5958 -0.6963
 5648TIP3    H238504   1.181   6.628   1.176 -0.4689 -0.2600 -0.8305
 5649TIP3   OH238505   3.339   5.241   0.414  0.5548 -0.2665  0.0459
 5649TIP3    H138506   3.319   5.174   0.479 -4.0539 -1.0260 -2.0161
 5649TIP3    H238507   3.400   5.198   0.354 -0.9481 -2.0141 -0.2527
 5650TIP3   OH238508   3.375   3.804   7.973 -0.3737  0.2665 -0.0025
 5650TIP3    H138509   3.403   3.781   7.884  0.4307 -1.3836  0.6574
 5650TIP3    H238510   3.449   3.855   8.008 -0.6227  0.7785 -0.2185
 5651TIP3   OH238511   6.629   6.332   8.075  0.3516  0.3702  0.3937
 5651TIP3    H138512   6.661   6.326   7.985 -0.0985  0.6955  0.2062
 5651TIP3    H238513   6.701   6.300   8.129  0.5538  0.0056 -0.0965
 5652TIP3   OH238514   4.544   2.535   8.083  0.5204 -0.2074 -0.9327
 5652TIP3    H138515   4.583   2.621   8.070 -0.2195  0.3094  0.1931
 5652TIP3    H238516   4.492   2.544   8.163 -0.7248 -1.2973 -1.5972
 5653TIP3   OH238517   1.253   2.215   0.799  0.7340 -0.2430  0.3837
 5653TIP3    H138518   1.308   2.286   0.767  2.4781 -1.2601  1.0394
 5653TIP3    H238519   1.272   2.210   0.893  1.4605 -2.2402  0.1703
 5654TIP3   OH238520   5.586   2.926   1.513 -0.6689  0.7347 -0.3792
 5654TIP3    H138521   5.663   2.978   1.536 -1.1298  1.3625 -0.2386
 5654TIP3    H238522   5.585   2.924   1.417  0.0668 -0.0987 -0.3731
 5655TIP3   OH238523   1.112   5.139   6.617 -0.1874  0.4103  0.0795
 5655TIP3    H138524   1.200   5.153   6.653  0.3512 -0.0731 -1.0157
 5655TIP3    H238525   1.073   5.073   6.674  0.5621 -0.1753 -0.0833
 5656TIP3   OH238526   2.036   4.750   0.398  0.8647  0.1718  0.4953
 5656TIP3    H138527   2.101   4.787   0.338  0.5174 -1.1050 -0.7073
 5656TIP3    H238528   2.086   4.690   0.453  1.2592  1.6659  1.7940
 5657TIP3   OH238529   3.085   5.977   1.149 -0.0814 -0.2180 -0.4071
 5657TIP3    H138530   3.148   5.989   1.078  1.9211  1.0783  1.5226
 5657TIP3    H238531   3.138   5.957   1.226 -2.2887 -2.9951  0.4779
 5658TIP3   OH238532   0.698   4.780   7.874  0.0643 -0.0914  0.1556
 5658TIP3    H138533   0.620   4.788   7.818  0.4366 -3.9248 -1.0426
 5658TIP3    H238534   0.748   4.860   7.856 -2.3496  1.2264 -1.0005
 5659TIP3   OH238535   4.768   5.290   1.091  0.8321 -0.0271 -0.1551
 5659TIP3    H138536   4.836   5.250   1.144  0.2462 -1.0379 -0.1421
 5659TIP3    H238537   4.815   5.342   1.026  1.5353  3.4117  2.9491
 5660TIP3   OH238538   5.227   3.213   7.291  0.3580 -0.1985  0.0901
 5660TIP3    H138539   5.322   3.212   7.275  0.1625 -1.5793 -1.1801
 5660TIP3    H238540   5.189   3.186   7.207 -1.0395 -1.7719  1.1960
 5661TIP3   OH238541   2.862   4.803   1.702  0.3547 -0.3923  0.2736
 5661TIP3    H138542   2.849   4.709   1.713 -1.1431 -0.2074  0.2381
 5661TIP3    H238543   2.792   4.842   1.754  0.7690  0.6964  0.0126
 5662TIP3   OH238544   3.458   4.040   7.033 -0.4997  0.0297  0.1012
 5662TIP3    H138545   3.424   3.959   6.995 -1.7521  0.6414 -0.1060
 5662TIP3    H238546   3.475   4.019   7.124 -0.1923 -0.6460 -0.1042
 5663TIP3   OH238547   4.110   4.842   0.792 -0.2676 -0.4241  0.4973
 5663TIP3    H138548   4.173   4.857   0.862  0.1865 -1.3557  0.3090
 5663TIP3    H238549   4.120   4.749   0.771  0.0623 -0.0287 -1.2261
 5664TIP3   OH238550   0.714   5.723   7.332 -0.0173 -0.2384  0.0335
 5664TIP3    H138551   0.679   5.670   7.261 -2.4842 -1.3722  2.0066
 5664TIP3    H238552   0.779   5.667   7.375 -0.5595 -0.6177  0.3688
 5665TIP3   OH238553   1.348   5.686   7.725 -0.3859  0.2249  0.0474
 5665TIP3    H138554   1.400   5.691   7.805 -0.8068  0.9626  0.2808
 5665TIP3    H238555   1.412   5.678   7.655  0.0622  1.2304  0.3270
 5666TIP3   OH238556   5.139   1.436   0.704 -0.1303  0.6962  0.0990
 5666TIP3    H138557   5.231   1.455   0.725 -0.1266  0.0903  0.6521
 5666TIP3    H238558   5.091   1.459   0.783 -0.1974 -0.9397  0.5580
 5667TIP3   OH238559   1.946   2.090   1.753 -0.7031  0.1971 -0.1240
 5667TIP3    H138560   1.877   2.030   1.782  1.1906 -2.0889 -0.1743
 5667TIP3    H238561   1.961   2.146   1.829 -0.8053 -1.0130  0.8079
 5668TIP3   OH238562   2.704   1.359   0.579 -0.0135  0.1034  0.0340
 5668TIP3    H138563   2.710   1.426   0.510 -0.4139  1.0668  0.9242
 5668TIP3    H238564   2.724   1.406   0.660  2.0202 -1.3562  0.4161
 5669TIP3   OH238565   0.199   5.222   7.811 -0.4422  0.3788  0.5968
 5669TIP3    H138566   0.259   5.246   7.740  1.4151 -2.9307  0.9680
 5669TIP3    H238567   0.238   5.261   7.889 -0.3694  0.6820  0.4132
 5670TIP3   OH238568   5.865   6.018   1.636 -0.3346 -0.0219  0.7197
 5670TIP3    H138569   5.853   6.103   1.593  1.7385  0.0313  0.1846
 5670TIP3    H238570   5.871   6.039   1.729  1.1257  0.5510  0.5108
 5671TIP3   OH238571   1.085   5.627   1.077  0.4542  0.4196 -0.5030
 5671TIP3    H138572   1.141   5.608   1.152  0.3999 -0.0574 -0.5806
 5671TIP3    H238573   1.052   5.716   1.093 -1.2299 -0.4625  1.0884
 5672TIP3   OH238574   3.858   5.984   1.426  0.1196  0.2669  0.4659
 5672TIP3    H138575   3.889   5.999   1.515  0.5811 -0.1876  0.3856
 5672TIP3    H238576   3.911   5.910   1.394  1.1633  1.5318 -0.7884
 5673TIP3   OH238577   1.281   4.519   1.737 -0.6269  0.3869  0.7755
 5673TIP3    H138578   1.253   4.607   1.765 -1.2078  1.0454 -1.7336
 5673TIP3    H238579   1.360   4.534   1.686 -1.8006 -0.3191 -1.3037
 5674TIP3   OH238580   0.180   1.052   8.067  0.2570  0.0338 -0.3264
 5674TIP3    H138581   0.187   1.122   8.002  0.4480  0.0577 -0.2775
 5674TIP3    H238582   0.267   1.046   8.107  0.1780 -0.0742 -0.1683
 5675TIP3   OH238583   2.861   3.726   2.120 -0.5671 -0.6398 -0.0586
 5675TIP3    H138584   2.921   3.776   2.176 -0.0978 -0.0412 -1.0868
 5675TIP3    H238585   2.774   3.742   2.158 -0.4709  1.2485 -0.5750
 5676TIP3   OH238586   2.472   5.525   0.164  0.0037 -0.0965  0.3497
 5676TIP3    H138587   2.496   5.563   0.080 -0.8932  1.3104  0.7017
 5676TIP3    H238588   2.441   5.436   0.143  2.7811 -0.9249 -0.4020
 5677TIP3   OH238589   3.297   3.608   2.196 -0.0521 -0.2873  0.8648
 5677TIP3    H138590   3.237   3.677   2.166  0.1576 -0.2278  0.5739
 5677TIP3    H238591   3.384   3.647   2.188 -0.1355  0.6435  3.9998
 5678TIP3   OH238592   2.109   6.568   7.993  0.4334  0.1172 -0.0879
 5678TIP3    H138593   2.145   6.489   8.034  1.0360  0.1144 -0.6114
 5678TIP3    H238594   2.050   6.535   7.925  1.7142  0.0975 -1.2124
 5679TIP3   OH238595   2.617   1.294   0.195 -0.5648  0.1851 -0.2078
 5679TIP3    H138596   2.569   1.336   0.124  1.2952  0.8038 -1.1323
 5679TIP3    H238597   2.684   1.358   0.220 -0.8483 -0.2470  1.7383
 5680TIP3   OH238598   2.276   6.070   0.657  0.4266 -0.0395 -0.0212
 5680TIP3    H138599   2.215   6.084   0.730  1.5435 -0.5098  1.0241
 5680TIP3    H238600   2.307   6.158   0.636  1.6530 -0.0906  1.4624
 5681TIP3   OH238601   6.053   4.156   6.333 -0.6848  0.2718 -0.5791
 5681TIP3    H138602   6.028   4.090   6.269 -0.6619 -0.0591 -0.2519
 5681TIP3    H238603   6.021   4.238   6.297  0.5611  0.2866 -1.6977
 5682TIP3   OH238604   2.951   1.451   1.461 -0.2833  0.2720  0.1449
 5682TIP3    H138605   2.935   1.366   1.503  0.6485  0.1534  0.2763
 5682TIP3    H238606   2.929   1.437   1.369 -0.1871 -0.1012  0.1779
 5683TIP3   OH238607   1.604   4.488   0.469  0.2552  0.2141 -0.0369
 5683TIP3    H138608   1.622   4.541   0.547  1.9690  0.9659 -0.9058
 5683TIP3    H238609   1.651   4.533   0.399  1.4479 -2.2411 -0.8819
 5684TIP3   OH238610   1.516   0.575   0.546  0.5607  0.1207 -0.4334
 5684TIP3    H138611   1.580   0.504   0.552  0.2005 -0.1145  0.9148
 5684TIP3    H238612   1.436   0.534   0.513  0.3404 -0.1212  0.3861
 5685TIP3   OH238613   3.749   4.751   1.549  0.5729  0.0603 -0.2174
 5685TIP3    H138614   3.728   4.706   1.630  0.3947 -0.3237 -0.4789
 5685TIP3    H238615   3.770   4.681   1.487  0.3957  0.3378 -0.5922
 5686TIP3   OH238616   4.613   3.982   6.280  0.4102  0.1371 -0.0536
 5686TIP3    H138617   4.666   3.924   6.334  0.1744  1.0499  1.1858
 5686TIP3    H238618   4.672   4.054   6.257  0.5201 -0.2661 -1.0440
 5687TIP3   OH238619   6.616   5.175   7.246 -0.2429 -0.2534  0.2630
 5687TIP3    H138620   6.694   5.211   7.288  0.7498 -0.3241 -1.4809
 5687TIP3    H238621   6.648   5.099   7.197 -1.1354  0.6142 -1.7063
 5688TIP3   OH238622   3.077   2.261   7.300 -0.6928 -0.4567  0.0705
 5688TIP3    H138623   3.082   2.199   7.373  0.4851  0.0661  0.4526
 5688TIP3    H238624   2.984   2.267   7.280 -1.0040 -0.8190  1.3550
 5689TIP3   OH238625   3.983   3.888   8.079  0.7082 -0.5858  0.1626
 5689TIP3    H138626   3.991   3.927   7.992 -1.7240 -0.9044 -0.2473
 5689TIP3    H238627   3.996   3.962   8.140  0.2149  0.0633 -0.5130
 5690TIP3   OH238628   2.459   5.497   0.967 -0.3647  0.1460 -0.2183
 5690TIP3    H138629   2.534   5.438   0.964 -0.5847 -0.1322 -0.2879
 5690TIP3    H238630   2.497   5.583   0.987  0.0335  0.1097 -0.7793
 5691TIP3   OH238631   4.909   5.402   1.954 -0.3710  0.1992  0.6035
 5691TIP3    H138632   4.937   5.316   1.923  1.9731  0.2952  2.2648
 5691TIP3    H238633   4.868   5.384   2.039 -0.6908  0.6190  0.5368
 5692TIP3   OH238634   5.362   5.723   7.087  0.0577 -0.2142 -0.2735
 5692TIP3    H138635   5.319   5.719   7.002 -1.1670  0.8443  0.2822
 5692TIP3    H238636   5.371   5.816   7.105  2.2389 -0.4134 -0.1878
 5693TIP3   OH238637   1.580   4.037   6.927  0.3540 -0.4400  0.2680
 5693TIP3    H138638   1.496   4.051   6.884  0.4251 -1.5375 -0.2419
 5693TIP3    H238639   1.638   4.101   6.887  0.4161 -1.4378 -1.2724
 5694TIP3   OH238640   1.433   3.135   1.823 -0.2417 -0.4595  0.1640
 5694TIP3    H138641   1.470   3.059   1.869 -0.9715 -0.4753  0.7443
 5694TIP3    H238642   1.476   3.210   1.863  1.2810 -0.6051 -1.1543
 5695TIP3   OH238643   0.501   0.483   0.258 -0.4574  0.3198  0.8527
 5695TIP3    H138644   0.542   0.481   0.172 -0.0489  3.9782  0.8759
 5695TIP3    H238645   0.559   0.432   0.314  1.7128  1.6981 -0.0879
 5696TIP3   OH238646   4.690   5.025   0.062  0.4083 -0.4901 -0.2634
 5696TIP3    H138647   4.601   5.029   0.028  0.0461 -1.0290  0.6193
 5696TIP3    H238648   4.732   4.956   0.010 -0.1076 -1.2228  0.2937
 5697TIP3   OH238649   0.654   3.133   1.512 -0.7439 -0.1574 -0.2176
 5697TIP3    H138650   0.560   3.149   1.498 -0.4705  3.2046  1.3422
 5697TIP3    H238651   0.667   3.148   1.605  1.4541 -0.0857 -0.5213
 5698TIP3   OH238652   2.083   5.877   0.189  0.0125 -0.1853 -0.6076
 5698TIP3    H138653   2.039   5.818   0.251  0.4101 -0.3498 -0.4809
 5698TIP3    H238654   2.030   5.871   0.110 -0.3544 -0.1689 -0.3641
 5699TIP3   OH238655   2.363   4.417   2.289 -0.1483 -0.4372  0.7397
 5699TIP3    H138656   2.380   4.370   2.208 -0.7388  1.4617 -0.5077
 5699TIP3    H238657   2.425   4.379   2.352 -0.0896 -2.3096 -0.4275
 5700TIP3   OH238658   3.419   3.124   0.201 -0.0586 -0.5449 -0.4591
 5700TIP3    H138659   3.334   3.147   0.163 -0.5808  0.8035  1.4344
 5700TIP3    H238660   3.455   3.208   0.231  0.0407 -1.5876  2.5245
 5701TIP3   OH238661   4.917   2.676   0.268  0.1420 -0.5063 -0.9096
 5701TIP3    H138662   4.876   2.762   0.280 -0.1773 -0.7015 -0.5926
 5701TIP3    H238663   4.926   2.667   0.173  0.3123 -0.0599 -0.9404
 5702TIP3   OH238664   7.026   6.098   1.097  0.2583  0.4430 -0.6513
 5702TIP3    H138665   6.994   6.036   1.032 -0.3213 -1.2301  1.1987
 5702TIP3    H238666   7.081   6.046   1.156 -0.2301  1.6591  0.9153
 5703TIP3   OH238667   5.058   2.987   0.265  0.0011  0.0517  0.0282
 5703TIP3    H138668   5.113   2.910   0.256  0.3918  0.4477 -0.9749
 5703TIP3    H238669   5.120   3.059   0.278 -0.2666  0.5206 -1.2627
 5704TIP3   OH238670   1.139   4.851   0.045  0.4457  0.0860  0.6612
 5704TIP3    H138671   1.064   4.793   0.040 -0.0310  0.7756 -0.4586
 5704TIP3    H238672   1.202   4.805   0.100 -0.7091 -0.5840  1.4431
 5705TIP3   OH238673   4.780   4.533   0.686 -0.1969  0.3962  0.0281
 5705TIP3    H138674   4.771   4.539   0.591  1.2733  0.9377 -0.0960
 5705TIP3    H238675   4.692   4.545   0.720 -0.4330  2.3044 -1.1949
 5706TIP3   OH238676   2.789   2.086   5.883 -0.3623 -0.3003 -0.0777
 5706TIP3    H138677   2.744   2.010   5.919 -0.1027 -0.0522  0.7873
 5706TIP3    H238678   2.882   2.069   5.899 -0.3993  0.8483  1.3931
 5707TIP3   OH238679   1.887   0.840   0.200  0.5465  0.5233  0.2840
 5707TIP3    H138680   1.843   0.777   0.257  0.9167 -0.1412 -0.1492
 5707TIP3    H238681   1.973   0.801   0.184 -0.1639 -0.1659 -2.1126
 5708TIP3   OH238682   3.992   6.675   6.367  0.1957 -0.0737 -0.1378
 5708TIP3    H138683   3.924   6.685   6.300  0.0537  0.1129  0.0362
 5708TIP3    H238684   3.984   6.752   6.422 -0.3563 -0.7152  0.7004
 5709TIP3   OH238685   3.245   4.170   6.581 -0.0150  0.4428 -0.1389
 5709TIP3    H138686   3.313   4.205   6.524  0.3688 -0.3876 -0.1985
 5709TIP3    H238687   3.275   4.192   6.670  0.8079 -0.7320 -0.1143
 5710TIP3   OH238688   1.707   5.994   1.531 -0.2261  0.1232  0.1657
 5710TIP3    H138689   1.728   5.925   1.469  2.5081  0.6124  0.5032
 5710TIP3    H238690   1.749   6.072   1.496 -1.8333  1.2523  0.6890
 5711TIP3   OH238691   0.842   6.834   1.005 -0.5952 -0.0953  0.7190
 5711TIP3    H138692   0.778   6.775   1.045 -2.0271 -0.2372 -1.6601
 5711TIP3    H238693   0.804   6.921   1.017  0.2273  0.1049  1.9071
 5712TIP3   OH238694   5.259   4.120   7.350  0.0773  0.0014  0.3859
 5712TIP3    H138695   5.331   4.076   7.395  1.4620  0.8192 -0.9481
 5712TIP3    H238696   5.302   4.176   7.286 -1.7864 -0.0401 -0.9561
 5713TIP3   OH238697   4.977   3.162   0.935  0.5067 -0.5108 -0.3272
 5713TIP3    H138698   4.907   3.173   0.999  0.8090  0.1091 -0.1022
 5713TIP3    H238699   5.053   3.204   0.975  0.5916  0.2515 -1.2646
 5714TIP3   OH238700   0.040   4.785   1.606 -0.7915 -0.3395 -0.7250
 5714TIP3    H138701   0.106   4.770   1.674 -1.1767  0.6859 -0.0989
 5714TIP3    H238702   0.077   4.745   1.527  0.5434  0.1618 -0.3732
 5715TIP3   OH238703   3.490   6.466   7.725  0.1301 -0.1974  0.5595
 5715TIP3    H138704   3.553   6.521   7.772 -0.9470  1.5352  0.0599
 5715TIP3    H238705   3.415   6.460   7.784 -0.5016  0.4542 -0.1628
 5716TIP3   OH238706   2.588   6.503   0.319 -1.0054 -0.0072  0.2094
 5716TIP3    H138707   2.537   6.457   0.252 -0.1674  0.0690 -0.4931
 5716TIP3    H238708   2.523   6.538   0.379 -1.8485  0.8893 -1.1890
 5717TIP3   OH238709   1.532   3.731   1.113 -0.0596  0.0230  0.5010
 5717TIP3    H138710   1.532   3.825   1.128 -1.4081  0.1478 -0.1552
 5717TIP3    H238711   1.608   3.715   1.058 -0.1734  0.8267  0.1082
 5718TIP3   OH238712   1.944   3.878   6.645  0.3515  0.0668  0.0820
 5718TIP3    H138713   1.953   3.800   6.591  0.6617 -0.3446  0.7255
 5718TIP3    H238714   1.889   3.851   6.718  1.0364  0.2480  0.6781
 5719TIP3   OH238715   0.182   5.751   7.846 -0.4065  0.3010  0.5886
 5719TIP3    H138716   0.087   5.738   7.849 -0.3561 -0.0496  0.6543
 5719TIP3    H238717   0.207   5.769   7.936 -0.2123 -0.9948  0.7925
 5720TIP3   OH238718   1.423   6.948   5.964 -0.1258 -0.3825  0.1363
 5720TIP3    H138719   1.410   6.922   6.056  0.3004 -1.9212 -0.2213
 5720TIP3    H238720   1.517   6.963   5.957  0.0247 -1.4418 -0.3210
 5721TIP3   OH238721   1.753   4.056   0.815 -0.1129 -0.4930  0.0279
 5721TIP3    H138722   1.710   4.120   0.872  0.4545 -0.6308  0.6090
 5721TIP3    H238723   1.735   4.087   0.726 -0.1441  0.2701  0.3017
 5722TIP3   OH238724   1.460   5.909   1.304  0.1734 -0.2733 -0.1080
 5722TIP3    H138725   1.387   5.969   1.292 -0.3496 -1.0748 -1.0468
 5722TIP3    H238726   1.432   5.850   1.374 -0.0759 -0.5556 -0.4404
 5723TIP3   OH238727   3.794   4.573   1.379 -0.4381 -0.1803 -0.3073
 5723TIP3    H138728   3.883   4.579   1.346 -0.5166 -3.6184 -1.2918
 5723TIP3    H238729   3.739   4.586   1.301 -0.7066 -1.9084 -0.4263
 5724TIP3   OH238730   0.913   4.558   1.039  0.2397 -0.2505  0.5308
 5724TIP3    H138731   0.900   4.649   1.067 -0.6067 -0.6419  1.4000
 5724TIP3    H238732   0.966   4.519   1.108  0.2410 -0.5355  0.3694
 5725TIP3   OH238733   7.080   3.696   0.735 -0.6162  0.9073 -0.6077
 5725TIP3    H138734   6.999   3.743   0.717 -1.0431 -0.1380 -1.4476
 5725TIP3    H238735   7.053   3.615   0.779 -0.0281  0.6032 -0.7935
 5726TIP3   OH238736   6.485   2.170   1.472 -0.6191  0.2999  0.2668
 5726TIP3    H138737   6.493   2.263   1.494  0.7391  0.6842 -1.7326
 5726TIP3    H238738   6.409   2.165   1.415 -0.6785  0.1799  0.3567
 5727TIP3   OH238739   2.964   0.426   1.549  0.4371 -0.7241  0.1273
 5727TIP3    H138740   2.998   0.343   1.582 -0.1405 -0.5041  1.2688
 5727TIP3    H238741   2.938   0.475   1.627  0.3757  0.3599 -0.5610
 5728TIP3   OH238742   4.391   5.334   6.904 -0.0054 -0.9089  0.2814
 5728TIP3    H138743   4.480   5.306   6.881  0.6570  2.3859 -1.6381
 5728TIP3    H238744   4.346   5.341   6.819 -1.2276  0.1112  0.9945
 5729TIP3   OH238745   6.279   5.767   7.676 -0.3884 -0.7423 -0.2678
 5729TIP3    H138746   6.345   5.702   7.653 -0.6782 -0.8110 -0.9302
 5729TIP3    H238747   6.268   5.759   7.770  2.4248  1.0420  0.2766
 5730TIP3   OH238748   2.780   4.271   6.804 -0.0125  0.6555  0.3350
 5730TIP3    H138749   2.781   4.266   6.900 -1.1417  0.5541  0.3424
 5730TIP3    H238750   2.816   4.188   6.775 -0.0795  0.5082  0.6695
 5731TIP3   OH238751   0.915   6.093   1.216  0.2476  0.3752  0.1048
 5731TIP3    H138752   0.851   6.134   1.275  0.7749 -0.2532  1.1319
 5731TIP3    H238753   0.953   6.166   1.167  0.5207  1.0150  1.2610
 5732TIP3   OH238754   6.661   1.595   7.364 -0.1016 -0.5306 -0.2195
 5732TIP3    H138755   6.674   1.596   7.459  0.3172  3.6428 -0.2377
 5732TIP3    H238756   6.569   1.618   7.352 -0.0511 -0.6548 -0.8754
 5733TIP3   OH238757   0.617   2.960   6.793 -0.1513 -0.0554  0.6541
 5733TIP3    H138758   0.647   2.941   6.704  1.4602 -0.2597  1.2314
 5733TIP3    H238759   0.642   2.883   6.844 -1.8520 -0.3133  1.1182
 5734TIP3   OH238760   4.339   5.774   7.706  0.1883 -0.1752 -0.2714
 5734TIP3    H138761   4.314   5.752   7.796  0.2846  1.0461  0.0740
 5734TIP3    H238762   4.429   5.743   7.698  0.7635  1.2064  0.6214
 5735TIP3   OH238763   4.877   0.257   8.103  0.0374 -0.2852  0.0712
 5735TIP3    H138764   4.851   0.317   8.033  0.8889  1.0010  0.8334
 5735TIP3    H238765   4.934   0.193   8.060 -2.6846 -1.9127 -1.1921
 5736TIP3   OH238766   7.029   1.472   1.221 -0.2828  0.5370 -0.1516
 5736TIP3    H138767   7.078   1.549   1.249  0.6294 -0.2930  0.5527
 5736TIP3    H238768   7.091   1.400   1.229 -1.4508 -0.4356  0.2113
 5737TIP3   OH238769   1.526   6.863   8.118  0.1474  0.0055  0.1702
 5737TIP3    H138770   1.521   6.781   8.069  2.5749 -0.1059  0.0552
 5737TIP3    H238771   1.534   6.835   8.209  0.3093  0.1378  0.1954
 5738TIP3   OH238772   6.796   4.604   1.704 -0.3603  0.1290 -0.2524
 5738TIP3    H138773   6.858   4.662   1.749  0.4515  0.9962 -2.3914
 5738TIP3    H238774   6.710   4.639   1.726  0.0416  0.8253  0.2412
 5739TIP3   OH238775   4.509   1.002   8.048 -0.2856 -0.2064 -0.1683
 5739TIP3    H138776   4.462   0.963   8.122 -3.3085  2.5370 -0.5203
 5739TIP3    H238777   4.443   1.053   8.002  2.3721  1.1414 -2.6560
 5740TIP3   OH238778   6.871   5.087   1.968  0.2018 -0.3326  0.1683
 5740TIP3    H138779   6.925   5.162   1.995 -1.2688  0.7809  0.1048
 5740TIP3    H238780   6.906   5.062   1.883  1.2469 -0.2470  0.5683
 5741TIP3   OH238781   2.446   4.365   1.278 -0.5499  0.1767  0.0050
 5741TIP3    H138782   2.357   4.395   1.261 -0.5684  0.1896  0.1294
 5741TIP3    H238783   2.444   4.271   1.260 -0.4187  0.2997 -0.6835
 5742TIP3   OH238784   5.734   0.263   7.346 -0.0813  0.6027 -0.3294
 5742TIP3    H138785   5.761   0.242   7.436 -0.5241  1.0214 -0.1028
 5742TIP3    H238786   5.809   0.311   7.310 -0.3845  1.4707  0.1957
 5743TIP3   OH238787   0.448   6.823   1.219  0.0314 -0.3028 -0.2593
 5743TIP3    H138788   0.371   6.811   1.163 -1.8058  0.8049  1.9170
 5743TIP3    H238789   0.415   6.808   1.308  2.2096  0.8075  0.7657
 5744TIP3   OH238790   3.297   2.974   1.243  0.1013 -0.0361 -0.0326
 5744TIP3    H138791   3.316   3.050   1.297 -1.0544  1.5799 -1.8424
 5744TIP3    H238792   3.209   2.947   1.269 -0.2440  0.4187 -0.7163
 5745TIP3   OH238793   2.754   6.750   1.250 -0.2730 -0.2670  0.1617
 5745TIP3    H138794   2.663   6.731   1.228 -0.8234  1.2400  1.0360
 5745TIP3    H238795   2.749   6.827   1.307  1.3425 -1.7373  2.4005
 5746TIP3   OH238796   3.906   5.406   1.535 -0.0953 -0.2382  0.3036
 5746TIP3    H138797   3.944   5.329   1.576 -1.0382 -1.1979 -0.6208
 5746TIP3    H238798   3.823   5.376   1.497 -0.6237  1.2826  0.1959
 5747TIP3   OH238799   3.375   4.792   7.672 -0.0394 -0.1089 -0.0177
 5747TIP3    H138800   3.288   4.784   7.709 -0.7494  2.0589 -1.1341
 5747TIP3    H238801   3.365   4.767   7.580 -0.1771  2.9744 -0.9189
 5748TIP3   OH238802   1.391   4.122   6.722 -0.1550  0.0682  0.4827
 5748TIP3    H138803   1.328   4.184   6.685 -0.3657  0.2180  1.0852
 5748TIP3    H238804   1.342   4.039   6.726 -0.3299  0.1957  0.9965
 5749TIP3   OH238805   6.848   3.045   8.012 -0.1963 -0.4599  0.4751
 5749TIP3    H138806   6.776   2.988   8.038 -0.6170 -0.4437 -0.6144
 5749TIP3    H238807   6.923   2.987   8.002 -0.5923 -0.8089 -0.4995
 5750TIP3   OH238808   4.154   3.423   0.487 -0.3405 -0.3480  0.6976
 5750TIP3    H138809   4.216   3.447   0.556 -0.2492  0.9326  0.1823
 5750TIP3    H238810   4.068   3.438   0.525 -0.3176 -1.0948  1.0471
 5751TIP3   OH238811   0.239   2.261   0.960  0.1946  0.3952 -0.6287
 5751TIP3    H138812   0.146   2.252   0.941  0.2131  1.1202 -1.1006
 5751TIP3    H238813   0.255   2.356   0.959  1.0250  0.2597 -1.0167
 5752TIP3   OH238814   4.374   4.744   6.416  0.0555  0.5477 -0.2005
 5752TIP3    H138815   4.409   4.813   6.472  0.5527 -0.6556  1.0126
 5752TIP3    H238816   4.385   4.777   6.327  2.7082  0.9478  0.2300
 5753TIP3   OH238817   3.255   2.845   0.867 -0.0119  0.1783  0.3897
 5753TIP3    H138818   3.165   2.859   0.895 -0.4431 -1.7030  0.0126
 5753TIP3    H238819   3.285   2.931   0.837 -2.4171  0.3727 -1.5935
 5754TIP3   OH238820   4.039   4.451   1.965 -0.6949  0.6387 -0.2535
 5754TIP3    H138821   4.100   4.510   2.009 -0.0159 -0.1102 -0.1789
 5754TIP3    H238822   3.959   4.454   2.019 -0.0757  0.1840  0.7125
 5755TIP3   OH238823   6.855   3.408   0.413  0.0268  0.1419 -0.2866
 5755TIP3    H138824   6.877   3.447   0.497 -0.7704 -0.5867  0.2662
 5755TIP3    H238825   6.884   3.473   0.348  3.2337 -0.5446  0.4144
 5756TIP3   OH238826   5.344   3.714   7.439 -0.1711  0.5053  0.1046
 5756TIP3    H138827   5.318   3.655   7.369 -0.4021  1.3711 -0.5520
 5756TIP3    H238828   5.434   3.689   7.460  0.0910  0.6001 -0.8805
 5757TIP3   OH238829   6.209   4.847   7.626  0.4278  0.0156  0.0124
 5757TIP3    H138830   6.152   4.818   7.697  0.3741  0.2827  0.0767
 5757TIP3    H238831   6.169   4.812   7.546  1.0211 -1.1426  0.1994
 5758TIP3   OH238832   1.846   1.977   1.361 -0.6506 -0.8604 -0.2397
 5758TIP3    H138833   1.929   2.022   1.341 -0.0453 -1.3233  1.1912
 5758TIP3    H238834   1.867   1.918   1.433 -2.1890 -1.1378  0.0030
 5759TIP3   OH238835   1.112   6.683   6.328 -0.0250 -0.3063 -0.9956
 5759TIP3    H138836   1.095   6.589   6.328 -2.0324 -0.0368  2.7949
 5759TIP3    H238837   1.034   6.721   6.288 -0.6614 -0.1173  0.3803
 5760TIP3   OH238838   6.600   3.593   0.388 -0.0415 -0.3201  0.3925
 5760TIP3    H138839   6.574   3.651   0.316 -1.2979 -1.5033 -0.1322
 5760TIP3    H238840   6.684   3.628   0.417 -0.3724  1.2570 -0.4630
 5761TIP3   OH238841   0.541   0.476   6.912 -0.3301 -0.1632 -0.5133
 5761TIP3    H138842   0.446   0.492   6.913 -0.7250 -2.2730 -0.1799
 5761TIP3    H238843   0.559   0.446   6.823 -0.3844 -1.7899 -0.0035
 5762TIP3   OH238844   2.913   6.881   7.285 -0.1833 -0.7161  0.0148
 5762TIP3    H138845   2.985   6.855   7.343  0.1779 -1.0762 -0.5926
 5762TIP3    H238846   2.938   6.967   7.252  1.5467 -2.1823 -2.7190
 5763TIP3   OH238847   1.077   4.918   1.558  0.2869  0.6031 -0.3927
 5763TIP3    H138848   1.080   4.885   1.647  0.8386 -0.6871 -0.8670
 5763TIP3    H238849   1.167   4.907   1.526  0.6978  3.3367 -0.3185
 5764TIP3   OH238850   5.639   6.715   1.151  0.3250 -0.2873 -0.3262
 5764TIP3    H138851   5.675   6.681   1.233 -0.0822  0.7520  0.2905
 5764TIP3    H238852   5.553   6.674   1.143 -0.4235  1.0210  0.7278
 5765TIP3   OH238853   5.419   4.937   7.869 -0.2911  0.4225  0.1990
 5765TIP3    H138854   5.487   4.957   7.805 -2.0722  0.9570 -1.5846
 5765TIP3    H238855   5.446   4.984   7.948  0.1421  2.6922 -1.2375
 5766TIP3   OH238856   1.250   4.580   1.049  0.5154  0.4392 -0.4441
 5766TIP3    H138857   1.279   4.533   0.970  1.1902 -0.4936  0.3528
 5766TIP3    H238858   1.183   4.523   1.087  1.9036 -0.3077  0.9634
 5767TIP3   OH238859   0.117   4.260   1.857 -0.1201 -0.1628 -0.2864
 5767TIP3    H138860   0.085   4.170   1.869  0.2932 -0.4471 -1.2243
 5767TIP3    H238861   0.079   4.309   1.929 -0.8516 -0.9661 -0.1160
 5768TIP3   OH238862   6.703   4.015   6.763  0.4314 -0.1317  0.6909
 5768TIP3    H138863   6.707   4.107   6.787  2.0060 -0.0677  0.2833
 5768TIP3    H238864   6.622   3.983   6.801  0.5622  1.0939  2.0317
 5769TIP3   OH238865   6.195   0.805   6.845 -1.0079 -0.6758  0.1052
 5769TIP3    H138866   6.214   0.849   6.763  1.7756 -0.3412  0.8496
 5769TIP3    H238867   6.192   0.875   6.910 -0.4253 -1.1898  0.6972
 5770TIP3   OH238868   3.690   3.313   8.119  0.1367  0.0769 -0.3042
 5770TIP3    H138869   3.732   3.377   8.062 -1.2376  0.9553 -0.3528
 5770TIP3    H238870   3.599   3.309   8.087 -0.7445  0.8511  2.0747
 5771TIP3   OH238871   0.004   1.806   7.907  0.2252  0.5158  0.6632
 5771TIP3    H138872  -0.083   1.843   7.897 -0.8655 -2.0345  0.4908
 5771TIP3    H238873   0.036   1.842   7.990 -2.3235 -1.0760  2.4008
 5772TIP3   OH238874   5.677   6.922   7.076 -0.2647 -0.2417 -0.5248
 5772TIP3    H138875   5.701   6.879   7.158 -0.8626 -0.4973 -0.4816
 5772TIP3    H238876   5.678   6.852   7.011 -0.6514 -0.2087 -0.5680
 5773TIP3   OH238877   4.893   6.522   1.797  0.6916 -0.3039 -0.5327
 5773TIP3    H138878   4.903   6.583   1.870  0.5136 -1.1114  0.1727
 5773TIP3    H238879   4.928   6.439   1.830  0.8295 -0.6158 -1.4474
 5774TIP3   OH238880   3.121   0.021   1.176 -0.2520 -0.0069  0.7159
 5774TIP3    H138881   3.091   0.112   1.172 -1.1859 -0.3199  0.4567
 5774TIP3    H238882   3.068  -0.019   1.245 -0.4252 -0.5635  0.2671
 5775TIP3   OH238883   5.116   6.134   0.262 -0.1568 -0.2335  0.0944
 5775TIP3    H138884   5.095   6.074   0.333 -2.1329 -0.7461 -0.8973
 5775TIP3    H238885   5.035   6.183   0.247  0.6236  0.7664 -0.9420
 5776TIP3   OH238886   4.299   4.783   1.993 -0.3858  0.4152  0.4486
 5776TIP3    H138887   4.386   4.771   1.955 -1.3136  1.3479 -2.0639
 5776TIP3    H238888   4.276   4.697   2.029  1.1248 -0.0972  0.2127
 5777TIP3   OH238889   5.405   5.770   1.470 -0.2289 -0.3869 -0.3008
 5777TIP3    H138890   5.342   5.697   1.473  1.2744 -1.6822  0.3779
 5777TIP3    H238891   5.490   5.728   1.462  0.4975  1.3914 -2.3085
 5778TIP3   OH238892   4.383   4.269   1.742 -0.3860 -0.2024 -0.4198
 5778TIP3    H138893   4.419   4.203   1.683  0.2439 -0.2292 -0.0045
 5778TIP3    H238894   4.407   4.240   1.830 -0.6358  0.2556 -0.1928
 5779TIP3   OH238895   0.896   5.026   0.263 -0.1728 -0.4118  0.3537
 5779TIP3    H138896   0.960   5.009   0.332 -1.6226  0.1726  1.9099
 5779TIP3    H238897   0.883   4.942   0.220  0.8014 -0.7746  0.7598
 5780TIP3   OH238898   6.197   4.739   0.657  1.2560  0.2625  0.0406
 5780TIP3    H138899   6.207   4.657   0.609  0.1906 -0.8619  1.6797
 5780TIP3    H238900   6.109   4.769   0.637  0.0082 -1.3043  2.8436
 5781TIP3   OH238901   5.789   0.255   1.291  0.1634  0.8194 -0.5204
 5781TIP3    H138902   5.785   0.318   1.362  1.3320  1.3652 -0.9241
 5781TIP3    H238903   5.766   0.171   1.331  2.6481  0.7852  0.9172
 5782TIP3   OH238904   3.947   5.689   1.297 -0.2142  0.3807  0.4503
 5782TIP3    H138905   3.912   5.619   1.242  1.7398  0.9318 -1.5759
 5782TIP3    H238906   4.040   5.694   1.274  0.0734  2.4429  1.8598
 5783TIP3   OH238907   1.335   6.267   0.977  0.3148  0.3236  0.6302
 5783TIP3    H138908   1.382   6.350   0.983 -0.3406  0.5987  1.9831
 5783TIP3    H238909   1.384   6.208   1.035  0.4373 -0.0864  0.1187
 5784TIP3   OH238910   3.963   0.873   1.604  0.0913  0.2542 -0.9002
 5784TIP3    H138911   4.043   0.925   1.607 -0.1365  0.5632  0.2230
 5784TIP3    H238912   3.921   0.889   1.689  0.1590 -1.9959 -0.4200
 5785TIP3   OH238913   6.762   5.471   6.628 -0.1265 -0.9963 -0.1742
 5785TIP3    H138914   6.733   5.541   6.569  1.9074  0.4761  0.4981
 5785TIP3    H238915   6.682   5.443   6.673 -1.0639  0.5496 -0.8402
 5786TIP3   OH238916   5.784   5.375   1.098  0.7398  0.0898 -0.0111
 5786TIP3    H138917   5.870   5.373   1.056  0.3981 -0.7361 -0.6605
 5786TIP3    H238918   5.727   5.417   1.034  0.9941  2.1753  1.0654
 5787TIP3   OH238919   4.107   2.822   7.045  0.4472  0.2593 -0.1440
 5787TIP3    H138920   4.197   2.816   7.075  0.2789 -0.9879  0.1453
 5787TIP3    H238921   4.113   2.858   6.957  1.0918  1.8724  0.5374
 5788TIP3   OH238922   6.248   0.247   2.037  0.0103  0.2290  0.4680
 5788TIP3    H138923   6.308   0.190   2.086 -0.2524  0.2881  0.8557
 5788TIP3    H238924   6.190   0.283   2.103 -2.3488 -2.0783 -0.2411
 5789TIP3   OH238925   5.256   4.936   1.491 -0.5320  0.1767 -0.4054
 5789TIP3    H138926   5.196   4.904   1.558  0.5816 -1.0709  0.0121
 5789TIP3    H238927   5.312   4.999   1.536  0.9238 -1.4681  0.1062
 5790TIP3   OH238928   3.835   6.089   7.876 -0.3234 -0.0894  0.2279
 5790TIP3    H138929   3.913   6.139   7.852  0.0936 -1.4507 -1.3321
 5790TIP3    H238930   3.773   6.155   7.906  0.4170  1.3143 -1.2477
 5791TIP3   OH238931   2.754   6.560   7.182 -0.4145  0.0775  0.2157
 5791TIP3    H138932   2.849   6.564   7.169 -0.5423  1.5758 -0.3707
 5791TIP3    H238933   2.724   6.493   7.121  0.0393  1.0313 -1.0849
 5792TIP3   OH238934   4.179   4.807   5.846 -0.6395  0.0345  0.0177
 5792TIP3    H138935   4.194   4.884   5.901 -0.5826 -0.2120  0.3423
 5792TIP3    H238936   4.240   4.741   5.879  0.0057  0.1689 -0.8983
 5793TIP3   OH238937   4.530   4.544   0.830  0.3455 -0.0266  0.9861
 5793TIP3    H138938   4.493   4.468   0.873  0.6903 -1.5645 -1.3365
 5793TIP3    H238939   4.602   4.572   0.887  0.1103 -1.3341  1.9297
 5794TIP3   OH238940   6.441   3.116   6.573  0.3982 -0.2076  0.1456
 5794TIP3    H138941   6.511   3.149   6.630  0.4108 -0.4291  0.2576
 5794TIP3    H238942   6.472   3.134   6.484  0.2825  0.3351  0.2090
 5795TIP3   OH238943   5.806   2.850   0.515  0.6548 -0.2993  0.7739
 5795TIP3    H138944   5.802   2.945   0.515 -1.3849 -0.3138 -1.7402
 5795TIP3    H238945   5.724   2.823   0.557 -0.7774 -0.8459 -2.1569
 5796TIP3   OH238946   0.003   4.098   1.147  0.6057  0.0475  0.1362
 5796TIP3    H138947   0.041   4.077   1.233 -1.8391  0.3377  1.3495
 5796TIP3    H238948  -0.008   4.012   1.105  0.8774 -0.1816  0.5206
 5797TIP3   OH238949   4.425   2.791   1.765  0.6211 -0.1488 -0.0945
 5797TIP3    H138950   4.419   2.695   1.764 -2.1688 -0.0104 -0.0445
 5797TIP3    H238951   4.391   2.816   1.851  0.4468  0.9353 -0.4754
 5798TIP3   OH238952   3.497   4.968   8.079  0.4939 -0.3459  0.6621
 5798TIP3    H138953   3.416   5.011   8.105  0.2691 -1.9109  2.7728
 5798TIP3    H238954   3.470   4.900   8.018  0.6840  1.4871 -1.5250
 5799TIP3   OH238955   6.860   6.947   0.705  0.6173 -0.2767  0.1715
 5799TIP3    H138956   6.778   6.900   0.688  0.5137 -0.5878  1.5213
 5799TIP3    H238957   6.907   6.942   0.622 -1.5982  1.7060 -1.2789
 5800TIP3   OH238958   4.842   4.423   0.212  0.5487  0.1618 -0.7298
 5800TIP3    H138959   4.930   4.383   0.216 -0.4779 -2.0121  2.5567
 5800TIP3    H238960   4.804   4.387   0.132  2.1696  0.0535 -1.4851
 5801TIP3   OH238961   2.577   5.997   0.103  0.3508  0.2107 -0.5453
 5801TIP3    H138962   2.560   5.996   0.197  1.5922 -1.7133 -0.3262
 5801TIP3    H238963   2.490   5.994   0.063 -0.1516  0.3231  0.5256
 5802TIP3   OH238964   6.400   5.856   0.495  1.0289 -0.6530 -0.0852
 5802TIP3    H138965   6.442   5.808   0.423  0.1803 -0.9706 -0.3733
 5802TIP3    H238966   6.363   5.934   0.452 -0.6086 -1.4910 -0.2360
 5803TIP3   OH238967   4.867   5.878   0.604  0.6355  0.2188 -0.4223
 5803TIP3    H138968   4.823   5.804   0.562  1.9806 -0.8361  0.0092
 5803TIP3    H238969   4.831   5.881   0.693 -0.0656  0.6474 -0.7141
 5804TIP3   OH238970   6.415   6.598   1.805 -0.3359  0.6442  0.2359
 5804TIP3    H138971   6.359   6.562   1.737 -1.4199 -0.0967  1.4938
 5804TIP3    H238972   6.427   6.526   1.867  0.6535  1.2955  0.8199
 5805TIP3   OH238973   1.644   3.156   1.217  0.0997  0.4210  0.2090
 5805TIP3    H138974   1.726   3.107   1.229  0.0308  0.4733  0.8911
 5805TIP3    H238975   1.613   3.173   1.305 -0.6702  0.3781 -0.0533
 5806TIP3   OH238976   5.154   3.616   0.567  0.8607 -0.0118 -0.3363
 5806TIP3    H138977   5.104   3.610   0.485  0.2968 -2.0519  0.1202
 5806TIP3    H238978   5.101   3.671   0.624 -0.9155 -2.1431  0.1372
 5807TIP3   OH238979   4.122   3.161   1.452  0.6091  0.4292 -0.3076
 5807TIP3    H138980   4.117   3.234   1.391  0.7932  1.0481  0.4157
 5807TIP3    H238981   4.214   3.137   1.454  0.2909 -1.0785 -1.9984
 5808TIP3   OH238982   1.580   5.686   0.705 -0.1986  0.0963 -0.3841
 5808TIP3    H138983   1.511   5.620   0.696  1.0897 -1.5528  1.4802
 5808TIP3    H238984   1.533   5.769   0.712 -2.0906 -1.1339  2.1801
 5809TIP3   OH238985   6.149   4.251   6.659  0.5178 -0.2158 -0.2500
 5809TIP3    H138986   6.207   4.181   6.689  0.7124  0.2762  0.5602
 5809TIP3    H238987   6.200   4.296   6.591  1.5491  0.8879  1.2146
 5810TIP3   OH238988   3.319   2.081   1.924 -0.3384 -0.5280  0.7085
 5810TIP3    H138989   3.390   2.020   1.903 -1.2105 -1.5757  0.7941
 5810TIP3    H238990   3.356   2.167   1.905  0.1462 -1.2007 -1.5383
 5811TIP3   OH238991   6.086   2.877   1.683  0.4508 -0.2264 -0.0417
 5811TIP3    H138992   6.003   2.844   1.717  1.1528  0.0961  2.0639
 5811TIP3    H238993   6.146   2.802   1.691  1.0181  0.3200  0.9562
 5812TIP3   OH238994   0.966   5.584   7.872  0.0415  0.4381 -0.1182
 5812TIP3    H138995   1.005   5.667   7.898 -0.6212  1.0216 -0.9801
 5812TIP3    H238996   0.879   5.585   7.912  0.7081 -0.6760  1.4468
 5813TIP3   OH238997   2.933   6.392   8.036  0.6654 -0.4399  0.4665
 5813TIP3    H138998   2.949   6.395   7.942  0.3182  0.4686  0.4313
 5813TIP3    H238999   3.004   6.337   8.071  0.9710 -0.5216 -0.2830
 5814TIP3   OH239000   6.568   0.299   0.591  0.7299 -0.4210 -0.1659
 5814TIP3    H139001   6.561   0.327   0.682  0.8306 -1.7398  0.2508
 5814TIP3    H239002   6.589   0.206   0.595  0.3505 -0.5845 -1.5410
 5815TIP3   OH239003   2.212   4.528   6.331  0.5834 -0.9794  0.1340
 5815TIP3    H139004   2.172   4.544   6.417  1.5519 -0.9931  0.6015
 5815TIP3    H239005   2.172   4.593   6.274 -0.2406 -1.1183  0.5452
 5816TIP3   OH239006   3.433   4.436   1.961  0.1145 -0.0618  0.3504
 5816TIP3    H139007   3.351   4.390   1.977  0.9739 -3.0090 -3.0968
 5816TIP3    H239008   3.501   4.378   1.995  0.9617  0.9495  0.4267
 5817TIP3   OH239009   3.220   2.468   7.972  0.2837 -0.3041 -0.0849
 5817TIP3    H139010   3.271   2.389   7.957 -1.0001 -0.7449 -2.4148
 5817TIP3    H239011   3.284   2.539   7.969  1.1426 -1.0655 -0.1064
 5818TIP3   OH239012   5.624   0.977   0.721  0.2401 -0.0445 -0.1858
 5818TIP3    H139013   5.664   0.995   0.807  2.7622 -2.8525 -0.6676
 5818TIP3    H239014   5.586   0.890   0.730  0.2705 -0.2447 -1.8125
 5819TIP3   OH239015   5.220   3.949   7.994 -0.6132 -0.8792 -0.4776
 5819TIP3    H139016   5.240   3.907   7.910 -0.7256  0.2251 -1.0581
 5819TIP3    H239017   5.294   4.007   8.010 -2.4852  2.0231 -1.8494
 5820TIP3   OH239018   5.330   5.734   7.644  0.2530 -0.3294  0.5039
 5820TIP3    H139019   5.314   5.819   7.686 -0.9859 -1.2321  1.8917
 5820TIP3    H239020   5.327   5.753   7.551 -2.2835  0.7691  0.7710
 5821TIP3   OH239021   1.604   0.191   6.495  0.1651 -0.3968 -0.3893
 5821TIP3    H139022   1.585   0.215   6.405 -0.1442 -1.2142 -0.5445
 5821TIP3    H239023   1.585   0.270   6.546 -1.4283 -0.5122 -0.8097
 5822TIP3   OH239024   5.401   5.493   0.659 -0.4347  0.7424  0.3724
 5822TIP3    H139025   5.397   5.516   0.566 -1.9478  0.7816  0.4453
 5822TIP3    H239026   5.325   5.536   0.698  0.1367  0.6518  1.6225
 5823TIP3   OH239027   3.488   1.853   6.925  0.2723  0.2309 -0.0033
 5823TIP3    H139028   3.547   1.889   6.859 -0.6363 -1.5184 -1.7933
 5823TIP3    H239029   3.412   1.912   6.923 -0.8025 -1.1781 -2.2595
 5824TIP3   OH239030   3.131   1.752   1.381  0.0572 -0.3138  0.5896
 5824TIP3    H139031   3.079   1.704   1.445 -2.1035  1.5168  0.2909
 5824TIP3    H239032   3.082   1.742   1.299 -1.3573  3.6377  0.8373
 5825TIP3   OH239033   2.536   4.317   7.869 -0.0645  0.2702  0.1832
 5825TIP3    H139034   2.596   4.300   7.795 -0.1385  1.2180 -0.0951
 5825TIP3    H239035   2.476   4.384   7.836 -0.6947  0.0010  0.7895
 5826TIP3   OH239036   5.520   5.034   1.404  0.4766  0.4802 -0.0869
 5826TIP3    H139037   5.592   5.003   1.349 -0.0512 -2.2347  0.6650
 5826TIP3    H239038   5.442   4.993   1.368  0.0191 -0.7485  2.1868
 5827TIP3   OH239039   0.248   3.391   7.428 -1.0106 -0.2714  0.3728
 5827TIP3    H139040   0.172   3.441   7.399 -0.7848 -0.2277 -0.1584
 5827TIP3    H239041   0.301   3.453   7.477 -1.0720 -0.1678  0.3084
 5828TIP3   OH239042   6.552   3.580   0.017  0.1468  0.1522  0.0929
 5828TIP3    H139043   6.530   3.634  -0.059  0.0829  0.4928  0.3477
 5828TIP3    H239044   6.624   3.525  -0.012 -1.6227 -1.6126 -1.0205
 5829TIP3   OH239045   3.890   2.796   7.713 -0.5551  0.6175 -0.6569
 5829TIP3    H139046   3.910   2.797   7.807 -0.3154 -0.3795 -0.6877
 5829TIP3    H239047   3.849   2.881   7.696  0.5393  1.3153  0.1034
 5830TIP3   OH239048   5.780   1.498   6.922 -0.8933  0.4802  0.4125
 5830TIP3    H139049   5.687   1.501   6.943 -1.0876 -0.8505 -0.2152
 5830TIP3    H239050   5.792   1.415   6.876  0.8146  0.0903  1.4960
 5831TIP3   OH239051   5.713   5.771   7.266  0.2508 -0.2658 -0.0882
 5831TIP3    H139052   5.738   5.799   7.178 -0.9801  1.8387  0.2134
 5831TIP3    H239053   5.779   5.705   7.289  1.0682 -0.2540 -2.2504
 5832TIP3   OH239054   2.648   3.826   1.251 -0.1841  0.4745 -0.8198
 5832TIP3    H139055   2.643   3.797   1.342  1.2799  0.0285 -0.8680
 5832TIP3    H239056   2.605   3.757   1.200  0.5517 -0.1173 -0.6359
 5833TIP3   OH239057   4.018   2.922   0.405  0.0662  0.3050 -0.0209
 5833TIP3    H139058   4.047   3.013   0.394  0.4570  0.3688  1.4662
 5833TIP3    H239059   3.928   2.929   0.437  0.3031  0.1751  0.6717
 5834TIP3   OH239060   5.184   3.134   7.020  0.3592 -0.0516  0.1711
 5834TIP3    H139061   5.148   3.221   7.004  0.5728 -0.4182 -2.5050
 5834TIP3    H239062   5.119   3.074   6.983  0.9459 -0.9599  0.5996
 5835TIP3   OH239063   2.287   6.311   7.784  0.3315 -0.4256  0.9986
 5835TIP3    H139064   2.297   6.327   7.690  1.6908 -1.6374  0.9245
 5835TIP3    H239065   2.204   6.262   7.791  0.2061 -0.3036  0.4409
 5836TIP3   OH239066   5.404   5.114   1.792 -0.5847  0.4110 -0.2407
 5836TIP3    H139067   5.372   5.159   1.870 -2.3093 -1.1796 -0.0039
 5836TIP3    H239068   5.358   5.156   1.720 -0.7326  0.3345 -0.1918
 5837TIP3   OH239069   4.687   0.317   0.778 -0.2401 -0.1924 -0.1706
 5837TIP3    H139070   4.663   0.390   0.835 -1.1069 -1.0465  0.5679
 5837TIP3    H239071   4.768   0.346   0.736 -0.5757  1.1900  0.1130
 5838TIP3   OH239072   3.332   6.345   6.878 -0.2066  0.8047 -0.3839
 5838TIP3    H139073   3.250   6.358   6.830 -0.2166  1.1152 -0.2808
 5838TIP3    H239074   3.309   6.365   6.969 -0.2811 -0.1150 -0.1864
 5839TIP3   OH239075   4.004   4.652   6.457 -0.4615  0.0561  0.5608
 5839TIP3    H139076   4.004   4.748   6.461  1.7311  0.0704  1.0876
 5839TIP3    H239077   4.004   4.632   6.364  0.5728  0.5998  0.4396
 5840TIP3   OH239078   3.655   5.556   1.796  0.4240 -0.6987  0.1081
 5840TIP3    H139079   3.717   5.489   1.825  1.1218  0.2580  0.8581
 5840TIP3    H239080   3.592   5.562   1.868 -0.4653 -1.5479 -0.5791
 5841TIP3   OH239081   4.356   6.271   0.556  0.5019  0.1258 -0.3677
 5841TIP3    H139082   4.316   6.309   0.478  1.8878 -0.6926 -1.4948
 5841TIP3    H239083   4.433   6.326   0.573  0.5890 -0.1127  0.0183
 5842TIP3   OH239084   6.878   5.432   0.840 -0.0428  0.6432  0.1086
 5842TIP3    H139085   6.968   5.462   0.835  0.1161  0.1525 -0.0310
 5842TIP3    H239086   6.826   5.508   0.815  0.2753  1.2480  1.2383
 5843TIP3   OH239087   5.217   0.546   0.361  0.1020 -0.1246 -0.2790
 5843TIP3    H139088   5.201   0.516   0.451 -0.2366  1.3959  0.1810
 5843TIP3    H239089   5.240   0.466   0.313  1.9243 -0.7129  1.5297
 5844TIP3   OH239090   7.074   4.025   1.462  0.1576  0.6464  0.3094
 5844TIP3    H139091   7.019   4.042   1.538  1.2528  1.6869  0.8832
 5844TIP3    H239092   7.089   4.112   1.424 -0.8872  0.0776 -1.4568
 5845TIP3   OH239093   5.948   6.140   1.269 -0.1177  0.0597  0.0248
 5845TIP3    H139094   5.941   6.082   1.193  0.7995  0.7647 -0.6057
 5845TIP3    H239095   6.023   6.107   1.318 -0.2210  0.0965  0.2111
 5846TIP3   OH239096   6.729   6.531   7.427  0.3386  0.7591 -0.4653
 5846TIP3    H139097   6.818   6.499   7.440 -0.1642 -1.1072 -1.4043
 5846TIP3    H239098   6.737   6.591   7.352  0.5140 -0.9021 -1.8240
 5847TIP3   OH239099   5.834   1.753   0.871  0.2089 -0.4284  0.3346
 5847TIP3    H139100   5.890   1.726   0.943  1.2805 -1.3826 -0.8262
 5847TIP3    H239101   5.754   1.700   0.880  0.1737 -0.2564  1.0338
 5848TIP3   OH239102   3.925   3.517   0.913  0.3588  0.1309 -0.1880
 5848TIP3    H139103   3.914   3.454   0.985  0.0650 -0.0910 -0.4249
 5848TIP3    H239104   3.996   3.574   0.941  2.6019 -2.0968 -1.2471
 5849TIP3   OH239105   1.499   3.733   0.715  0.3854 -0.3078 -0.2720
 5849TIP3    H139106   1.414   3.718   0.673 -0.2943  2.3609  0.0432
 5849TIP3    H239107   1.510   3.659   0.775 -0.8403 -1.6538 -1.6810
 5850TIP3   OH239108   3.173   5.502   0.749  0.4704 -0.0574  0.0751
 5850TIP3    H139109   3.168   5.409   0.726 -0.7385 -0.0754  0.3821
 5850TIP3    H239110   3.082   5.532   0.747  1.0897  1.7851 -2.6410
 5851TIP3   OH239111   5.991   5.823   6.746 -0.3154  0.6349 -0.0284
 5851TIP3    H139112   6.040   5.887   6.797 -0.4113  0.3197  0.4689
 5851TIP3    H239113   5.993   5.743   6.800 -0.3467  0.2750 -0.5541
 5852TIP3   OH239114   5.936   6.186   6.946 -0.1211 -0.0627  0.3690
 5852TIP3    H139115   5.914   6.237   7.024  0.7801 -0.2946  0.7746
 5852TIP3    H239116   5.853   6.178   6.899 -0.3533  1.4599  0.4918
 5853TIP3   OH239117   3.251   5.982   8.012 -0.2177  0.5557 -0.7133
 5853TIP3    H139118   3.201   5.910   8.050  0.6248  0.8904  1.0999
 5853TIP3    H239119   3.342   5.956   8.021  0.1952  2.7089  1.8620
 5854TIP3   OH239120   6.570   1.147   0.113 -0.1729  0.2950  0.2611
 5854TIP3    H139121   6.618   1.133   0.195  1.4392  0.6403 -0.6146
 5854TIP3    H239122   6.480   1.165   0.141 -0.1067 -1.7428  1.8581
 5855TIP3   OH239123   3.456   0.797   1.078  0.0926 -0.3812  0.2067
 5855TIP3    H139124   3.526   0.861   1.089 -2.6484  2.8103  0.0071
 5855TIP3    H239125   3.472   0.758   0.992  2.8239 -1.3089  1.1076
 5856TIP3   OH239126   4.341   2.584   0.142  0.4186 -0.5580  0.5269
 5856TIP3    H139127   4.368   2.675   0.131  0.3344 -0.5517  0.3724
 5856TIP3    H239128   4.312   2.579   0.233 -1.0485 -0.0452  0.1067
 5857TIP3   OH239129   6.964   4.103   6.610  0.3269 -0.1219  0.1931
 5857TIP3    H139130   6.891   4.057   6.568 -0.1670  0.8126  0.0185
 5857TIP3    H239131   7.020   4.130   6.537 -0.0777  0.7289  0.1941
 5858TIP3   OH239132   2.944   3.117   5.856  0.4648  0.3688 -0.0318
 5858TIP3    H139133   3.028   3.096   5.816  0.3042  0.0146 -0.1832
 5858TIP3    H239134   2.921   3.203   5.820  0.9173  0.6203  0.2663
 5859TIP3   OH239135   2.013   5.970   0.851 -0.4817 -0.1550 -0.2204
 5859TIP3    H139136   2.016   5.885   0.808  0.4870 -0.8335  1.1659
 5859TIP3    H239137   2.000   5.950   0.944 -0.2512  1.1955  0.1152
 5860TIP3   OH239138   0.855   2.814   0.716 -0.2910  0.3325  0.1517
 5860TIP3    H139139   0.808   2.839   0.795 -0.2498  0.4292  0.1457
 5860TIP3    H239140   0.943   2.849   0.727 -0.8768  2.2022 -0.8632
 5861TIP3   OH239141   0.795   6.593   0.832 -0.1798 -0.4372  0.0200
 5861TIP3    H139142   0.813   6.684   0.855  1.0332 -0.8198  0.6548
 5861TIP3    H239143   0.804   6.546   0.915 -1.2053 -1.0730 -0.2290
 5862TIP3   OH239144   3.379   0.452   1.429  0.4702 -0.2741 -0.6295
 5862TIP3    H139145   3.317   0.525   1.437  0.5086 -0.0494 -2.2705
 5862TIP3    H239146   3.358   0.395   1.503  0.0030  1.0636  0.3034
 5863TIP3   OH239147   4.473   4.606   1.836  0.0314 -0.0166 -0.0555
 5863TIP3    H139148   4.500   4.517   1.859 -0.1071  0.2147  1.0327
 5863TIP3    H239149   4.544   4.662   1.866 -0.1208  0.2938 -0.2666
 5864TIP3   OH239150   4.778   5.199   0.245  0.0322  0.2072 -0.0228
 5864TIP3    H139151   4.731   5.203   0.328 -0.0959 -0.7289 -0.0466
 5864TIP3    H239152   4.739   5.125   0.199  0.3255  0.5197 -0.7789
 5865TIP3   OH239153   5.320   6.962   2.027 -0.2507 -0.3866 -0.0913
 5865TIP3    H139154   5.366   7.045   2.023 -1.0983 -0.0445 -3.9111
 5865TIP3    H239155   5.389   6.896   2.036  0.8460  0.3397 -2.8676
 5866TIP3   OH239156   3.643   5.600   1.378  0.1344  0.1282 -0.4143
 5866TIP3    H139157   3.737   5.598   1.360 -0.2859  0.4109 -2.8256
 5866TIP3    H239158   3.619   5.508   1.392  0.9595  0.1727  1.4011
 5867TIP3   OH239159   5.792   5.313   7.338 -0.2453  0.2909  0.5698
 5867TIP3    H139160   5.791   5.383   7.273  2.4930  0.8229  1.0242
 5867TIP3    H239161   5.726   5.251   7.308 -0.4681  1.5256 -1.5796
 5868TIP3   OH239162   6.939   5.165   0.024  0.2365  0.0409 -0.1585
 5868TIP3    H139163   6.969   5.135  -0.062 -1.5965  2.8051 -1.8343
 5868TIP3    H239164   6.849   5.133   0.030  0.3452 -0.1023  0.7279
 5869TIP3   OH239165   1.090   2.425   6.400  0.2228  0.2934  0.2384
 5869TIP3    H139166   1.036   2.488   6.353  0.5920  0.1006 -0.4542
 5869TIP3    H239167   1.139   2.379   6.331  0.3018 -0.4258  0.7677
 5870TIP3   OH239168   3.951   4.902   7.470  0.3966  0.1147  0.0605
 5870TIP3    H139169   4.027   4.956   7.448  0.4840 -1.2849 -3.3953
 5870TIP3    H239170   3.877   4.950   7.431  0.0619 -0.6044 -0.1870
 5871TIP3   OH239171   5.322   2.510   6.766 -0.1197  0.4841  0.1844
 5871TIP3    H139172   5.312   2.435   6.824  2.8530 -0.3176 -0.2645
 5871TIP3    H239173   5.373   2.477   6.692  2.3757  3.2358  0.5698
 5872TIP3   OH239174   5.050   1.937   7.557  0.2488 -0.6747  0.0757
 5872TIP3    H139175   5.018   1.919   7.469  1.0593 -1.3890 -0.0706
 5872TIP3    H239176   5.017   1.864   7.610 -1.7574  0.6587  0.7485
 5873TIP3   OH239177   3.961   1.643   2.205  0.2798  0.3430  0.1172
 5873TIP3    H139178   3.868   1.628   2.220  0.3476  0.4747  0.7087
 5873TIP3    H239179   3.995   1.559   2.177 -0.0561  0.3472 -0.3128
 5874TIP3   OH239180   1.596   6.994   7.253  0.3307 -0.7628 -0.2761
 5874TIP3    H139181   1.586   6.901   7.274  0.1469 -0.7659 -0.3765
 5874TIP3    H239182   1.507   7.023   7.231  0.4532 -0.6657 -0.6510
 5875TIP3   OH239183   5.333   6.103   6.017 -0.2569 -0.1777  0.1842
 5875TIP3    H139184   5.307   6.187   5.980  0.9448 -0.1116 -0.5224
 5875TIP3    H239185   5.369   6.054   5.943  0.7215 -0.6323  0.9460
 5876TIP3   OH239186   6.685   5.650   1.374  0.1928 -0.3365  0.1867
 5876TIP3    H139187   6.755   5.626   1.434  0.2612  0.6365  0.5044
 5876TIP3    H239188   6.678   5.575   1.314  0.9280 -0.7964  0.6646
 5877TIP3   OH239189   1.922   4.704   7.587 -0.2206 -0.0594  0.0280
 5877TIP3    H139190   1.925   4.674   7.496 -0.7013 -0.0701  0.0146
 5877TIP3    H239191   1.879   4.633   7.634 -2.3423  1.0417 -0.1824
 5878TIP3   OH239192   3.865   4.414   0.114 -0.1279 -0.2877  0.2149
 5878TIP3    H139193   3.794   4.446   0.169  0.2122 -1.3347  1.2865
 5878TIP3    H239194   3.822   4.379   0.036 -0.5792  1.6405 -0.4247
 5879TIP3   OH239195   4.272   3.129   1.099 -0.0500  0.9119 -0.5507
 5879TIP3    H139196   4.322   3.152   1.177 -0.3293 -2.0166  0.5455
 5879TIP3    H239197   4.338   3.099   1.037 -0.2629 -1.8069  0.4739
 5880TIP3   OH239198   2.047   2.605   7.919 -0.4350  0.1365  0.0262
 5880TIP3    H139199   2.073   2.514   7.908 -0.4571  0.3081 -1.5787
 5880TIP3    H239200   2.055   2.621   8.013 -0.3064 -1.4719  0.3050
 5881TIP3   OH239201   4.607   4.358   1.885  0.5391 -0.0783 -0.0886
 5881TIP3    H139202   4.608   4.263   1.897  0.8412 -0.0834 -0.1776
 5881TIP3    H239203   4.688   4.378   1.839  0.1387  0.1377 -0.7074
 5882TIP3   OH239204   5.271   4.587   7.182 -0.2317  0.3618 -0.1307
 5882TIP3    H139205   5.290   4.532   7.258 -1.4890  0.3546  0.2061
 5882TIP3    H239206   5.181   4.618   7.197 -0.7986 -0.2843 -2.0002
 5883TIP3   OH239207   0.759   1.494   1.793 -0.1719 -0.6156  0.3002
 5883TIP3    H139208   0.747   1.558   1.864 -0.6492  1.2336 -1.3933
 5883TIP3    H239209   0.670   1.466   1.772 -0.1943  0.2280 -0.7812
 5884TIP3   OH239210   4.664   5.185   0.491 -0.0256 -0.3358  0.0843
 5884TIP3    H139211   4.670   5.096   0.527 -2.3334 -0.5507  0.0096
 5884TIP3    H239212   4.674   5.242   0.567 -0.6765 -0.7073  0.4535
 5885TIP3   OH239213   3.985   4.794   1.694 -0.5722  0.2709 -0.8856
 5885TIP3    H139214   4.047   4.722   1.703 -0.4072  0.2851 -1.7667
 5885TIP3    H239215   3.927   4.767   1.623 -1.9336  0.0110  0.3094
 5886TIP3   OH239216   4.043   1.936   2.597  0.0601 -0.4302  0.5053
 5886TIP3    H139217   3.956   1.906   2.626 -0.0297  0.2072  0.9201
 5886TIP3    H239218   4.034   1.949   2.503 -0.6590  0.7920  0.7253
 5887TIP3   OH239219   2.856   1.366   0.045  0.2192  0.4184 -0.1666
 5887TIP3    H139220   2.854   1.450  -0.001 -1.2879  0.6712  0.3199
 5887TIP3    H239221   2.780   1.319   0.011  0.8388 -0.5936 -0.1458
 5888TIP3   OH239222   5.647   3.259   8.080  0.6726 -0.4034  0.4733
 5888TIP3    H139223   5.725   3.313   8.064  1.0730 -1.8453 -2.8723
 5888TIP3    H239224   5.589   3.279   8.007 -1.8222  0.0433  2.5094
 5889TIP3   OH239225   5.282   2.856   7.985  0.3439  0.4916 -0.3452
 5889TIP3    H139226   5.376   2.843   7.974  0.5397  1.4703  0.1292
 5889TIP3    H239227   5.250   2.874   7.897  0.6464  0.4112 -0.4715
 5890TIP3   OH239228   2.770   5.015   7.409  0.0376  0.5092  0.0913
 5890TIP3    H139229   2.810   4.936   7.373  0.1184  0.8900 -0.6712
 5890TIP3    H239230   2.725   5.055   7.334 -0.7910  0.6879  0.6862
 5891TIP3   OH239231   3.686   7.041   8.000  0.4548 -0.0828 -0.2279
 5891TIP3    H139232   3.614   7.014   7.943 -0.0016 -0.1643  0.3782
 5891TIP3    H239233   3.710   7.128   7.969 -1.1901  0.7480  0.7739
 5892TIP3   OH239234   0.469   6.544   1.395  0.0125 -0.4161 -0.7100
 5892TIP3    H139235   0.499   6.578   1.479  1.5275 -0.3082 -1.2758
 5892TIP3    H239236   0.383   6.585   1.381  0.4495  0.7784  0.0498
 5893TIP3   OH239237   4.628   5.274   0.782 -0.1705  0.4334 -0.7927
 5893TIP3    H139238   4.662   5.270   0.872 -1.3373  0.4017 -0.3451
 5893TIP3    H239239   4.574   5.196   0.773 -0.6087  0.7909 -1.2998
 5894TIP3   OH239240   6.051   4.252   0.519 -0.3218  0.2325 -0.1966
 5894TIP3    H139241   6.139   4.214   0.517 -0.8598 -1.1163  1.3083
 5894TIP3    H239242   6.062   4.332   0.572 -0.3550 -0.9110  1.5819
 5895TIP3   OH239243   0.437   7.047   0.063 -0.5586  0.4803  0.2463
 5895TIP3    H139244   0.492   6.972   0.089 -0.5576  0.4478  0.1513
 5895TIP3    H239245   0.373   7.010   0.003 -0.7229  0.5063  0.4058
 5896TIP3   OH239246   0.087   0.027   0.939 -0.9926 -0.3948 -0.0671
 5896TIP3    H139247   0.073  -0.004   0.850 -1.0358  0.3824 -0.3311
 5896TIP3    H239248   0.107   0.120   0.930 -2.8153  0.1150  0.8579
 5897TIP3   OH239249   0.719   6.008   6.613  0.1527 -0.6615 -0.4560
 5897TIP3    H139250   0.731   5.921   6.576 -1.4110 -1.0571 -0.0807
 5897TIP3    H239251   0.807   6.038   6.634  0.5485 -3.1572  1.6632
 5898TIP3   OH239252   5.885   2.321   0.808 -0.4693 -0.0886 -0.1829
 5898TIP3    H139253   5.811   2.264   0.828 -0.1110 -0.1950  0.8264
 5898TIP3    H239254   5.952   2.299   0.873 -0.4903  1.7603  0.5082
 5899TIP3   OH239255   6.855   6.672   7.962 -0.2625 -0.4028 -0.7547
 5899TIP3    H139256   6.896   6.731   8.025 -0.4695 -0.0203 -0.9727
 5899TIP3    H239257   6.926   6.617   7.931 -0.0365 -0.1656 -0.6598
 5900TIP3   OH239258   6.575   4.560   1.308  0.3464  0.3524  0.4399
 5900TIP3    H139259   6.638   4.531   1.373  1.7632  3.9491  0.8027
 5900TIP3    H239260   6.627   4.580   1.230 -0.9244 -0.8466 -0.7506
 5901TIP3   OH239261   5.287   4.341   6.784 -0.4757 -0.2039  0.7643
 5901TIP3    H139262   5.363   4.377   6.738 -0.4086  1.1494  1.9083
 5901TIP3    H239263   5.310   4.249   6.800  1.4783  0.5172  2.2599
 5902TIP3   OH239264   2.149   1.764   7.383 -0.6215  0.2985  0.1258
 5902TIP3    H139265   2.092   1.838   7.405 -0.1322  0.3153  1.4184
 5902TIP3    H239266   2.233   1.785   7.424 -1.2241 -2.1501  2.8562
 5903TIP3   OH239267   2.202   4.189   0.530 -0.0367 -0.1427 -0.6609
 5903TIP3    H139268   2.132   4.126   0.512  0.1468 -0.3401 -0.6928
 5903TIP3    H239269   2.225   4.225   0.444  0.6425 -0.8741 -0.7907
 5904TIP3   OH239270   2.551   0.023   6.999  0.8121 -0.6372  0.0603
 5904TIP3    H139271   2.640   0.057   6.987  1.0929 -1.2483  0.4322
 5904TIP3    H239272   2.520   0.007   6.910 -0.1507  2.7096 -0.2822
 5905TIP3   OH239273   2.027   3.284   6.934  0.2260  0.1702 -0.0390
 5905TIP3    H139274   2.046   3.241   6.851 -0.4157 -0.0926 -0.0561
 5905TIP3    H239275   2.090   3.356   6.940 -0.4596  0.8910 -1.2841
 5906TIP3   OH239276   4.450   2.221   0.351 -0.1069  0.1024 -0.0019
 5906TIP3    H139277   4.401   2.165   0.290 -1.1010  1.1333 -0.1881
 5906TIP3    H239278   4.451   2.173   0.433 -1.1000 -0.1268 -0.1107
 5907TIP3   OH239279   6.203   4.397   1.254 -0.2790 -0.0183 -0.0323
 5907TIP3    H139280   6.273   4.338   1.225 -1.8914 -1.3898 -1.2927
 5907TIP3    H239281   6.221   4.412   1.346  1.9591  0.0785 -0.4442
 5908TIP3   OH239282   6.431   2.364   0.535 -0.1154  0.2403  0.2964
 5908TIP3    H139283   6.472   2.278   0.521  3.0565  1.6190  0.8000
 5908TIP3    H239284   6.453   2.414   0.457 -1.6249  0.7678  0.1900
 5909TIP3   OH239285   6.039   2.530   1.090  0.2278  0.6282  0.4186
 5909TIP3    H139286   6.074   2.539   1.002  0.1138 -2.3242  0.0054
 5909TIP3    H239287   5.960   2.584   1.091  0.6160  1.2339 -1.0743
 5910TIP3   OH239288   3.388   1.726   8.018  0.2394  0.7160 -0.6174
 5910TIP3    H139289   3.411   1.770   8.100  0.0396  0.2869 -0.3280
 5910TIP3    H239290   3.460   1.665   8.003 -1.4982 -1.9114  1.2144
 5911TIP3   OH239291   2.316   1.225   8.080 -0.2682 -0.0755 -0.1859
 5911TIP3    H139292   2.293   1.189   7.994 -0.2577 -1.0332  0.2079
 5911TIP3    H239293   2.411   1.233   8.078  0.2197 -4.0448  1.2095
 5912TIP3   OH239294   2.132   1.848   7.818  0.4146 -0.6222 -0.0143
 5912TIP3    H139295   2.196   1.800   7.871  2.9536 -0.0699 -2.4905
 5912TIP3    H239296   2.172   1.933   7.803 -1.8783  0.5140  0.1549
 5913TIP3   OH239297   3.421   3.700   7.645  0.4754  0.2830 -0.1585
 5913TIP3    H139298   3.435   3.660   7.559  0.8617  0.3862 -0.1465
 5913TIP3    H239299   3.447   3.632   7.707 -2.0418 -0.6489 -0.0654
 5914TIP3   OH239300   6.776   6.888   0.231  0.0842  0.0158  0.4861
 5914TIP3    H139301   6.762   6.795   0.251  1.9743 -0.0851  1.4483
 5914TIP3    H239302   6.838   6.888   0.158  0.2034  0.5214  0.5862
 5915TIP3   OH239303   4.988   3.907   1.132 -0.1663  0.1174 -0.1134
 5915TIP3    H139304   4.902   3.934   1.163  0.7248  1.2011  1.4949
 5915TIP3    H239305   5.043   3.910   1.211  1.1425 -1.3469 -0.9647
 5916TIP3   OH239306   2.779   6.064   1.093 -0.8293 -0.4080 -0.2233
 5916TIP3    H139307   2.860   6.038   1.138 -0.3992  1.6927  0.2628
 5916TIP3    H239308   2.718   6.085   1.164 -1.5680 -1.2548 -0.5979
 5917TIP3   OH239309   0.353   5.191   6.337  0.7400  0.2296  0.6577
 5917TIP3    H139310   0.281   5.174   6.277  0.8975  2.6227 -0.2423
 5917TIP3    H239311   0.425   5.136   6.304  0.4905  0.7096 -0.7174
 5918TIP3   OH239312   6.789   3.996   0.269  0.7424 -0.2280 -0.0020
 5918TIP3    H139313   6.707   3.953   0.245  1.5788 -1.5391 -0.5581
 5918TIP3    H239314   6.834   4.010   0.186  1.9283 -1.2481  0.4563
 5919TIP3   OH239315   2.316   5.444   1.770  0.7132  0.7702 -0.5204
 5919TIP3    H139316   2.258   5.497   1.824  1.5095  1.3420 -0.2090
 5919TIP3    H239317   2.389   5.421   1.828  2.1661  2.3804 -1.6535
 5920TIP3   OH239318   5.796   4.984   1.529 -0.5424 -0.3565  0.1545
 5920TIP3    H139319   5.702   5.002   1.526 -0.4876 -0.2074 -0.7301
 5920TIP3    H239320   5.806   4.900   1.485 -0.4600 -1.2007  1.7734
 5921TIP3   OH239321   4.345   2.229   6.947 -0.5885 -0.1093 -0.3255
 5921TIP3    H139322   4.313   2.269   6.867 -0.7768  1.1064  0.3458
 5921TIP3    H239323   4.350   2.301   7.010 -1.8086 -1.2741  1.1713
 5922TIP3   OH239324   2.252   5.077   1.130 -0.5413  0.0572 -0.2652
 5922TIP3    H139325   2.340   5.065   1.165 -0.2760  0.1037 -0.9164
 5922TIP3    H239326   2.260   5.061   1.036 -1.2226  0.0862 -0.3370
 5923TIP3   OH239327   0.241   2.521   1.021  0.5560 -0.1740 -0.0539
 5923TIP3    H139328   0.325   2.565   1.032  1.4061 -1.2896 -1.7890
 5923TIP3    H239329   0.191   2.578   0.962  0.1667  0.3977  0.8294
 5924TIP3   OH239330   5.600   5.680   1.267 -0.5985 -0.4503 -0.7755
 5924TIP3    H139331   5.671   5.728   1.309  0.1820 -1.3616 -1.0512
 5924TIP3    H239332   5.608   5.591   1.299 -0.7943 -0.8603 -1.8411
 5925TIP3   OH239333   4.594   7.011   0.674  0.3533 -0.2625  0.1634
 5925TIP3    H139334   4.611   7.103   0.696 -0.8416  0.0407 -0.1947
 5925TIP3    H239335   4.511   6.991   0.718 -0.9291 -0.3037 -2.2455
 5926TIP3   OH239336   5.485   0.243   1.455  0.9750  0.3404 -0.1837
 5926TIP3    H139337   5.467   0.173   1.392 -2.6817 -0.0479  1.1939
 5926TIP3    H239338   5.576   0.229   1.482  2.1661 -0.3575 -4.2069
 5927TIP3   OH239339   2.561   4.809   1.326 -0.3725 -0.2950  0.8034
 5927TIP3    H139340   2.651   4.837   1.346 -0.4115 -0.2805  0.9622
 5927TIP3    H239341   2.549   4.730   1.379  0.2078 -1.3927 -0.6752
 5928TIP3   OH239342   3.798   0.669   7.251 -0.9882 -0.0120 -0.3226
 5928TIP3    H139343   3.708   0.680   7.283 -1.1564 -0.1388 -0.7564
 5928TIP3    H239344   3.794   0.693   7.159 -0.6023 -0.1413 -0.3718
 5929TIP3   OH239345   5.023   5.423   1.062  0.0034 -0.1304 -0.0627
 5929TIP3    H139346   4.994   5.496   1.116 -1.0688 -1.4615  1.1743
 5929TIP3    H239347   5.103   5.392   1.105  0.6215  0.4603 -0.7514
 5930TIP3   OH239348   6.179   4.880   0.910 -0.1733 -0.2023  0.1806
 5930TIP3    H139349   6.203   4.828   0.833 -0.4545  1.4663 -1.0610
 5930TIP3    H239350   6.198   4.823   0.984  2.3230 -0.9910 -1.0084
 5931TIP3   OH239351   0.954   5.437   2.143 -0.3089  0.6458  0.1414
 5931TIP3    H139352   0.967   5.486   2.062 -0.9919  0.6328  0.0235
 5931TIP3    H239353   1.023   5.370   2.142  0.1424  1.1177 -0.0694
 5932TIP3   OH239354   6.512   4.342   0.088  0.1294  0.7546 -0.1051
 5932TIP3    H139355   6.513   4.358  -0.006 -1.1368  1.1768 -0.0541
 5932TIP3    H239356   6.454   4.266   0.099  1.3577 -0.1487  0.2127
 5933TIP3   OH239357   6.233   4.311   7.494  0.3757  0.1835 -0.1263
 5933TIP3    H139358   6.283   4.231   7.474 -0.4409 -0.9248  2.0533
 5933TIP3    H239359   6.146   4.279   7.518 -0.7053  1.9357 -1.6089
 5934TIP3   OH239360   2.030   0.247   1.479  0.1414  0.5733  0.2161
 5934TIP3    H139361   2.052   0.239   1.572 -0.1967  0.6020  0.2999
 5934TIP3    H239362   2.089   0.187   1.434 -1.0043 -0.8713  0.6364
 5935TIP3   OH239363   4.592   5.664   7.645 -0.0858 -0.6615  0.5311
 5935TIP3    H139364   4.592   5.736   7.581  1.0322 -1.7699 -0.7348
 5935TIP3    H239365   4.679   5.666   7.684  0.3510 -2.0478 -0.3425
 5936TIP3   OH239366   2.122   6.636   7.627  0.6999 -0.0961  0.2146
 5936TIP3    H139367   2.199   6.663   7.676  1.1163 -2.3871  0.8885
 5936TIP3    H239368   2.152   6.561   7.575 -0.3793  0.7173 -1.6487
 5937TIP3   OH239369   5.641   4.726   8.109  0.1461 -0.1770 -0.1056
 5937TIP3    H139370   5.635   4.757   8.019 -1.7733 -0.3408 -0.0621
 5937TIP3    H239371   5.730   4.694   8.118  0.3477 -0.1679 -1.9493
 5938TIP3   OH239372   4.324   4.901   1.570 -0.5140 -0.1142 -0.0209
 5938TIP3    H139373   4.363   4.953   1.641 -0.3456  0.5506 -0.5913
 5938TIP3    H239374   4.302   4.817   1.611 -2.8374  1.1716  1.5010
 5939TIP3   OH239375   4.168   4.551   7.991 -0.0912  0.6830  0.2151
 5939TIP3    H139376   4.154   4.569   7.898  0.6329  1.7889  0.3040
 5939TIP3    H239377   4.199   4.461   7.994  0.6557  0.9033 -0.6874
 5940TIP3   OH239378   4.059   6.280   6.768  0.1852  0.0250 -0.0229
 5940TIP3    H139379   3.999   6.297   6.840 -0.1096 -1.3471  0.0656
 5940TIP3    H239380   4.145   6.304   6.803 -0.1482  0.8786  0.2380
 5941TIP3   OH239381   2.246   3.303   6.309  0.0301 -0.2749 -0.2870
 5941TIP3    H139382   2.336   3.308   6.340 -0.2708  1.6225  0.3377
 5941TIP3    H239383   2.240   3.371   6.242 -0.8784 -0.5472 -0.4923
 5942TIP3   OH239384   2.073   2.925   0.264  0.0528  0.4330 -0.3391
 5942TIP3    H139385   2.094   2.990   0.330  0.9521 -1.1761  1.0148
 5942TIP3    H239386   2.142   2.858   0.274 -2.3356 -2.0379  0.1325
 5943TIP3   OH239387   4.570   0.475   7.593 -0.5912 -0.3389  0.0794
 5943TIP3    H139388   4.550   0.381   7.597  2.0113 -0.9336  0.3209
 5943TIP3    H239389   4.557   0.507   7.682 -1.2438 -0.5184  0.0510
 5944TIP3   OH239390   4.574   6.108   1.118  0.3087 -0.2176  0.0610
 5944TIP3    H139391   4.497   6.064   1.082 -0.1464 -0.2474  1.0511
 5944TIP3    H239392   4.562   6.102   1.213  2.6877 -2.3016  0.2625
 5945TIP3   OH239393   3.710   2.068   0.893  0.5119 -0.4035 -0.1801
 5945TIP3    H139394   3.624   2.094   0.861 -0.2849 -3.2745 -0.4401
 5945TIP3    H239395   3.734   1.992   0.840  1.4255 -2.1021  2.5703
 5946TIP3   OH239396   6.396   1.950   7.346  0.4054 -0.0108 -0.3781
 5946TIP3    H139397   6.414   1.926   7.437  2.0227  0.9818 -0.4075
 5946TIP3    H239398   6.328   2.017   7.352  0.1789 -0.2721  0.0605
 5947TIP3   OH239399   4.811   6.241   1.078 -0.6608  0.4353 -0.5666
 5947TIP3    H139400   4.737   6.192   1.114 -0.8260  1.5123  0.6374
 5947TIP3    H239401   4.858   6.178   1.024 -2.5533 -0.2179 -1.4838
 5948TIP3   OH239402   4.290   5.162   0.714  0.1512 -0.0090 -0.4817
 5948TIP3    H139403   4.252   5.183   0.800 -0.9950  0.0678 -1.0125
 5948TIP3    H239404   4.366   5.107   0.735  0.3182  0.6173  0.6269
 5949TIP3   OH239405   6.933   4.420   0.312 -0.7734 -0.1720  0.7057
 5949TIP3    H139406   6.857   4.366   0.332 -1.8805  1.2382  0.3972
 5949TIP3    H239407   6.938   4.482   0.385  0.0271 -0.2183  0.6901
 5950TIP3   OH239408   6.223   1.156   0.649 -0.1808  0.6476 -0.2024
 5950TIP3    H139409   6.270   1.136   0.568  2.0111  3.6891  0.1987
 5950TIP3    H239410   6.293   1.172   0.713 -1.8536  0.2096  1.7742
 5951TIP3   OH239411   0.835   6.218   7.148  0.5923 -0.1103 -0.0933
 5951TIP3    H139412   0.849   6.148   7.212  0.1571  0.1252  0.2670
 5951TIP3    H239413   0.850   6.177   7.063  3.2024  0.0917  0.2528
 5952TIP3   OH239414   0.701   6.390   1.609 -0.0148 -0.1510 -0.2532
 5952TIP3    H139415   0.678   6.304   1.573  0.1322 -0.0615 -0.5659
 5952TIP3    H239416   0.796   6.387   1.617 -0.0229 -0.0690 -0.1330
 5953TIP3   OH239417   2.516   3.460   8.109 -0.4347  0.5740  0.4084
 5953TIP3    H139418   2.579   3.512   8.158  1.3190  0.6155 -1.8060
 5953TIP3    H239419   2.465   3.524   8.059 -1.9276  0.4982  1.7598
 5954TIP3   OH239420   6.342   0.827   0.222  0.5654  0.4638 -0.4418
 5954TIP3    H139421   6.410   0.803   0.284 -0.4815 -0.3897  0.4094
 5954TIP3    H239422   6.387   0.874   0.152  2.0524 -0.3356 -0.0294
 5955TIP3   OH239423   6.834   5.421   1.400 -0.5137 -1.1346  0.1179
 5955TIP3    H139424   6.795   5.349   1.350 -2.2608 -0.2108  0.1369
 5955TIP3    H239425   6.820   5.397   1.492  1.5520 -2.1956  0.2004
 5956TIP3   OH239426   6.049   5.966   0.163 -0.0628 -0.3941 -0.4824
 5956TIP3    H139427   6.084   5.996   0.079  1.3161 -1.8566 -0.4407
 5956TIP3    H239428   6.111   5.997   0.228  0.1333 -1.3102 -0.2261
 5957TIP3   OH239429   0.392   1.549   0.384  0.2012 -0.3139  0.4006
 5957TIP3    H139430   0.351   1.541   0.470  0.4340  1.0576  0.6617
 5957TIP3    H239431   0.447   1.471   0.376 -2.5639 -2.3027 -0.0415
 5958TIP3   OH239432   1.057   5.320   2.428 -1.0346 -0.3550 -0.3236
 5958TIP3    H139433   0.999   5.360   2.363  0.2806 -1.5456 -2.3172
 5958TIP3    H239434   1.117   5.389   2.453 -0.1061 -0.4499 -2.1593
 5959TIP3   OH239435   1.056   6.449   0.624 -0.2482 -0.1553 -0.1577
 5959TIP3    H139436   0.978   6.445   0.570  0.1193 -0.7195 -0.6522
 5959TIP3    H239437   1.070   6.359   0.654 -0.3848  0.1285  0.7853
 5960TIP3   OH239438   5.834   3.503   1.772  0.0597  0.6025 -0.2479
 5960TIP3    H139439   5.902   3.441   1.796 -1.9841 -1.7442 -0.2924
 5960TIP3    H239440   5.819   3.555   1.851 -2.4786 -3.1200  1.8624
 5961TIP3   OH239441   5.772   4.298   0.885  0.1223 -0.4476  0.8363
 5961TIP3    H139442   5.802   4.207   0.874  2.8820  0.3827  0.9734
 5961TIP3    H239443   5.852   4.346   0.908 -1.3108  2.0104  0.7920
 5962TIP3   OH239444   2.669   6.319   6.804 -0.2353  0.7900 -0.0693
 5962TIP3    H139445   2.617   6.318   6.723 -0.1082  1.6097 -0.1701
 5962TIP3    H239446   2.739   6.383   6.786 -1.4343  2.5721  1.4537
 5963TIP3   OH239447   0.742   3.879   7.299  0.0872  0.2104  0.0194
 5963TIP3    H139448   0.803   3.848   7.366 -0.1678  0.6864  0.4709
 5963TIP3    H239449   0.673   3.924   7.348  0.1315  0.9502 -0.5872
 5964TIP3   OH239450   5.282   4.340   0.750 -0.5628  0.1795  0.2965
 5964TIP3    H139451   5.305   4.247   0.738  0.1057  0.3442  0.3126
 5964TIP3    H239452   5.217   4.356   0.681  0.4122  0.0841 -0.6587
 5965TIP3   OH239453   6.542   6.166   0.728  0.2184  0.0664  0.5716
 5965TIP3    H139454   6.506   6.231   0.787  0.6911  0.1224  0.8029
 5965TIP3    H239455   6.606   6.118   0.781  2.4915  1.7688 -0.5666
 5966TIP3   OH239456   0.597   1.971   7.900 -0.3110 -0.0241 -0.3744
 5966TIP3    H139457   0.578   1.877   7.901  1.4988 -0.3982 -0.8436
 5966TIP3    H239458   0.648   1.986   7.979 -1.4310  0.7587  0.2152
 5967TIP3   OH239459   3.857   3.310   1.139  0.0639  0.4157 -0.0175
 5967TIP3    H139460   3.790   3.291   1.204  0.7328  0.3780  0.6663
 5967TIP3    H239461   3.884   3.224   1.107 -0.6614  0.4557 -0.7623
 5968TIP3   OH239462   7.067   5.912   2.145  0.1057 -0.3473 -0.3793
 5968TIP3    H139463   7.056   5.903   2.239  0.8003  1.4681 -0.0936
 5968TIP3    H239464   7.138   5.976   2.135  0.2304 -0.7341 -2.1219
 5969TIP3   OH239465   4.263   3.310   0.834  0.0418  1.1150  0.2985
 5969TIP3    H139466   4.260   3.406   0.832 -1.4321  1.1135  0.9799
 5969TIP3    H239467   4.236   3.288   0.924 -1.3036  0.0336 -0.3569
 5970TIP3   OH239468   5.667   4.864   0.544  0.2537  0.1227  0.7110
 5970TIP3    H139469   5.688   4.849   0.636  1.5073 -2.5077  0.0477
 5970TIP3    H239470   5.592   4.807   0.526  0.1750  0.4231  0.0497
 5971TIP3   OH239471   6.643   1.586   1.165 -0.1042  0.2225 -0.0983
 5971TIP3    H139472   6.696   1.558   1.240 -1.0742  0.7684  0.8067
 5971TIP3    H239473   6.639   1.681   1.173 -2.1941  0.1123  0.5296
 5972TIP3   OH239474   5.667   3.597   1.549 -0.1608 -0.2052  0.0185
 5972TIP3    H139475   5.736   3.546   1.593 -0.1788 -1.0512 -0.9017
 5972TIP3    H239476   5.594   3.535   1.540 -0.2057 -0.0090 -1.0673
 5973TIP3   OH239477   5.772   5.846   1.437  0.9271 -0.0734  0.2162
 5973TIP3    H139478   5.806   5.894   1.513  0.5817  1.6960 -0.7157
 5973TIP3    H239479   5.835   5.864   1.367 -0.4790  1.0526 -0.7995
 5974TIP3   OH239480   1.416   3.185   0.784  0.2866 -0.5329 -0.8114
 5974TIP3    H139481   1.461   3.250   0.730  1.2652 -1.4070 -1.0572
 5974TIP3    H239482   1.426   3.102   0.737 -1.1320 -0.8375 -0.6073
 5975TIP3   OH239483   6.804   4.604   7.540  0.0436 -0.1981 -0.0769
 5975TIP3    H139484   6.811   4.690   7.499  1.4379 -0.6072 -0.7052
 5975TIP3    H239485   6.849   4.614   7.624  0.5459 -0.4095 -0.3169
 5976TIP3   OH239486   4.339   1.699   6.972  0.0954 -0.7214 -0.4525
 5976TIP3    H139487   4.312   1.616   6.932 -0.8378  0.1366 -1.6542
 5976TIP3    H239488   4.268   1.721   7.032 -0.2600 -0.1636 -1.0748
 5977TIP3   OH239489   4.548   4.204   0.208  0.7312 -0.1113 -0.5521
 5977TIP3    H139490   4.584   4.116   0.194  0.1894 -0.3131 -0.7095
 5977TIP3    H239491   4.599   4.240   0.281 -0.2239 -1.2494  0.7209
 5978TIP3   OH239492   5.605   5.412   1.314 -0.2666 -0.2812 -0.2762
 5978TIP3    H139493   5.536   5.346   1.304 -0.8038 -0.1811  2.4483
 5978TIP3    H239494   5.682   5.373   1.272 -1.1877 -1.6601 -0.7344
 5979TIP3   OH239495   1.458   6.556   1.855 -0.2780  0.2167 -0.2482
 5979TIP3    H139496   1.380   6.528   1.903 -0.7726  1.8016 -0.0900
 5979TIP3    H239497   1.500   6.620   1.912  1.4269 -0.9863 -0.1193
 5980TIP3   OH239498   2.958   2.928   0.608  0.1203 -0.6939  1.0317
 5980TIP3    H139499   2.964   3.022   0.592  0.5597 -1.0466 -0.9889
 5980TIP3    H239500   3.007   2.888   0.537 -0.5837 -2.4866  1.5149
 5981TIP3   OH239501   0.067   5.490   1.714 -0.1993  0.3013  0.0782
 5981TIP3    H139502   0.129   5.557   1.684  1.3124 -0.8527  0.5440
 5981TIP3    H239503   0.115   5.408   1.705 -1.5770 -0.5882  0.7476
 5982TIP3   OH239504   3.757   4.729   0.340 -0.2456  0.4604  0.2749
 5982TIP3    H139505   3.772   4.823   0.354  1.2689  0.3150 -0.2779
 5982TIP3    H239506   3.832   4.700   0.289 -1.7329 -0.6484 -1.3371
 5983TIP3   OH239507   0.772   5.927   0.605 -0.0081  0.4752  0.3320
 5983TIP3    H139508   0.714   5.882   0.667 -1.1092  0.3794 -0.7439
 5983TIP3    H239509   0.828   5.858   0.570 -1.7066 -0.0951 -1.3268
 5984TIP3   OH239510   6.523   4.829   6.774  0.1620  0.3115 -0.2028
 5984TIP3    H139511   6.515   4.736   6.750  0.0482  0.1981  0.2741
 5984TIP3    H239512   6.525   4.875   6.690  0.8138 -0.1690 -0.4520
 5985TIP3   OH239513   2.325   0.444   6.998  0.5152  0.1616  0.2559
 5985TIP3    H139514   2.315   0.349   7.000  0.6428  0.1310 -0.4778
 5985TIP3    H239515   2.356   0.463   6.910  1.6708  0.7777  0.7900
 5986TIP3   OH239516   4.845   3.586   7.538 -0.1479 -0.4919  0.3124
 5986TIP3    H139517   4.882   3.519   7.481  0.1249 -0.7056  0.7440
 5986TIP3    H239518   4.919   3.621   7.587  0.0035  1.3915 -1.1986
 5987TIP3   OH239519   6.949   7.085   1.088  0.9314 -0.2165  0.3089
 5987TIP3    H139520   6.978   7.118   1.002  1.2334 -0.7600  0.1999
 5987TIP3    H239521   6.869   7.133   1.106  1.6652  0.9892  0.4027
 5988TIP3   OH239522   6.371   2.552   1.379 -0.1085 -0.0827 -0.4755
 5988TIP3    H139523   6.309   2.521   1.446 -0.3490 -0.9037 -1.0798
 5988TIP3    H239524   6.331   2.633   1.346 -0.3398 -0.0529 -0.1281
 5989TIP3   OH239525   0.541   3.791   1.122 -0.1400  0.0051 -0.0520
 5989TIP3    H139526   0.562   3.884   1.118  0.3907 -0.1339 -0.4834
 5989TIP3    H239527   0.486   3.782   1.200 -1.1793  0.8748 -0.6614
 5990TIP3   OH239528   2.080   1.686   1.787  0.4039 -1.1288  0.2154
 5990TIP3    H139529   2.046   1.643   1.708 -0.2037 -1.0427  0.4305
 5990TIP3    H239530   2.091   1.615   1.850 -0.1302 -1.0364  0.4087
 5991TIP3   OH239531   2.256   0.200   1.131 -0.1657  0.7806 -0.8293
 5991TIP3    H139532   2.206   0.222   1.052  0.5294  3.0903 -0.6526
 5991TIP3    H239533   2.331   0.259   1.129  0.4560  0.0718  0.9727
 5992TIP3   OH239534   1.626   3.850   6.026 -0.2774  0.2634  0.6441
 5992TIP3    H139535   1.587   3.854   6.113 -0.6773 -0.7640  0.5150
 5992TIP3    H239536   1.680   3.771   6.028  2.1360  1.8590  0.9626
 5993TIP3   OH239537   1.988   0.028   0.237  0.1430 -0.1076 -0.1335
 5993TIP3    H139538   1.963   0.115   0.266  0.0323 -0.1907  0.0214
 5993TIP3    H239539   2.083   0.025   0.249  0.5798  1.0413 -2.9458
 5994TIP3   OH239540   6.947   6.250   0.788 -0.0564  0.2418 -0.4305
 5994TIP3    H139541   6.928   6.277   0.699 -0.1356  5.0055  0.9028
 5994TIP3    H239542   6.861   6.233   0.827 -0.0750 -0.9793 -1.0014
 5995TIP3   OH239543   5.131   1.724   0.675 -0.3604 -0.0285 -0.5446
 5995TIP3    H139544   5.065   1.686   0.617 -0.7348 -2.8533  1.6616
 5995TIP3    H239545   5.208   1.669   0.664  0.6174  1.3601 -0.7445
 5996TIP3   OH239546   6.987   0.445   0.338 -0.0710 -0.5844 -0.4393
 5996TIP3    H139547   6.894   0.424   0.328 -0.7378  2.4631 -1.3524
 5996TIP3    H239548   6.989   0.516   0.403  1.6515 -0.8674 -0.1501
 5997TIP3   OH239549   2.921   0.513   0.790 -0.3626 -0.1563 -0.5433
 5997TIP3    H139550   2.887   0.462   0.864  0.9501 -2.2714 -1.3448
 5997TIP3    H239551   2.882   0.472   0.713  1.1092 -0.2958 -1.2272
 5998TIP3   OH239552   4.805   1.796   1.188 -0.0105  0.6651  0.6094
 5998TIP3    H139553   4.884   1.744   1.198  1.0202  2.2280  0.7909
 5998TIP3    H239554   4.776   1.779   1.099  0.8369  0.5051  0.3603
 5999TIP3   OH239555   6.562   2.769   2.176 -0.6597 -0.6330 -0.1102
 5999TIP3    H139556   6.490   2.745   2.119 -0.3542  0.1300 -0.8104
 5999TIP3    H239557   6.524   2.768   2.264 -1.8185  0.9293 -0.5795
 6000TIP3   OH239558   6.149   3.581   2.116  0.1509  0.7408 -0.2123
 6000TIP3    H139559   6.089   3.514   2.083 -0.3967  1.5192 -0.8255
 6000TIP3    H239560   6.230   3.566   2.068  0.3455 -0.0999  0.3694
 6001TIP3   OH239561   4.596   5.537   0.682 -0.7377 -0.4012  0.0489
 6001TIP3    H139562   4.510   5.514   0.718 -0.9349 -1.1458 -0.8987
 6001TIP3    H239563   4.650   5.459   0.697  0.3766  0.7672  2.4704
 6002TIP3   OH239564   1.494   0.657   7.632  0.0386 -0.0174  0.1857
 6002TIP3    H139565   1.492   0.581   7.574  0.5534 -1.4020  1.9185
 6002TIP3    H239566   1.581   0.695   7.619 -0.7137  1.1156 -1.6964
 6003TIP3   OH239567   6.033   6.198   7.425 -0.3711  0.6489 -0.1934
 6003TIP3    H139568   6.112   6.249   7.439  0.1009 -0.4462  1.2277
 6003TIP3    H239569   6.023   6.194   7.330  0.2550  2.3335 -0.3369
 6004TIP3   OH239570   6.820   6.264   0.124 -0.6259 -0.1057  0.3123
 6004TIP3    H139571   6.885   6.333   0.135  0.0926 -1.0292  2.1096
 6004TIP3    H239572   6.780   6.254   0.210 -1.9596 -0.7432 -0.3537
 6005TIP3   OH239573   6.519   4.595   6.413  0.1921  0.2428 -0.0252
 6005TIP3    H139574   6.611   4.618   6.398  0.2649 -0.5419 -0.8468
 6005TIP3    H239575   6.502   4.623   6.503  1.5886 -0.7259  0.5688
 6006TIP3   OH239576   5.934   3.225   0.891 -0.0132  0.1218 -0.4155
 6006TIP3    H139577   5.933   3.277   0.810  0.0018 -0.4203 -0.7665
 6006TIP3    H239578   5.849   3.242   0.931  0.2581  0.9577 -0.1815
 6007TIP3   OH239579   2.233   3.853   1.713 -0.4908  1.1882  0.3139
 6007TIP3    H139580   2.212   3.851   1.620 -0.6355  0.0355  0.3617
 6007TIP3    H239581   2.319   3.893   1.718 -0.0034  0.2471 -0.4165
 6008TIP3   OH239582   6.681   2.212   7.713  0.3086 -0.1510  0.0240
 6008TIP3    H139583   6.595   2.210   7.755  1.1130  0.6034  1.7280
 6008TIP3    H239584   6.741   2.174   7.777  1.6826  1.7745 -0.0662
 6009TIP3   OH239585   2.986   5.896   1.972  0.1177  0.3189  0.4475
 6009TIP3    H139586   2.912   5.956   1.979  0.1581  0.2998  1.0131
 6009TIP3    H239587   3.044   5.938   1.909  0.3644  1.1117  1.1952
 6010TIP3   OH239588   3.706   5.860   7.824 -0.1283  0.2871 -0.1735
 6010TIP3    H139589   3.748   5.942   7.848 -1.2991 -0.1589  3.8994
 6010TIP3    H239590   3.777   5.803   7.796  1.5895  0.7048  3.1007
 6011TIP3   OH239591   3.164   0.975   0.670 -0.2984 -0.0596  0.0307
 6011TIP3    H139592   3.103   1.043   0.698  0.0297  0.6907 -1.0479
 6011TIP3    H239593   3.238   0.984   0.729 -0.4218  0.2647  0.1375
 6012TIP3   OH239594   6.690   5.337   2.039  0.6539  0.5707 -0.0649
 6012TIP3    H139595   6.775   5.294   2.053 -0.7988 -2.6109 -0.5298
 6012TIP3    H239596   6.626   5.272   2.065 -1.6937  3.8800  2.8105
 6013TIP3   OH239597   1.684   6.361   7.909  0.5797  0.3968 -0.2560
 6013TIP3    H139598   1.764   6.412   7.900  0.8572  0.1345  0.6690
 6013TIP3    H239599   1.656   6.344   7.819 -0.2067  3.2596 -0.6212
 6014TIP3   OH239600   5.503   3.892   2.116  0.4300  0.5465  0.3591
 6014TIP3    H139601   5.507   3.832   2.190 -1.0221  2.0617  1.6778
 6014TIP3    H239602   5.580   3.869   2.063 -0.5837 -3.1265  0.2935
 6015TIP3   OH239603   6.953   2.642   0.594 -0.1775 -0.6726  0.2749
 6015TIP3    H139604   6.894   2.675   0.526  0.2261 -1.1954 -0.3304
 6015TIP3    H239605   6.905   2.656   0.676 -1.2208 -1.2600 -0.2259
 6016TIP3   OH239606   1.675   1.635   6.453 -0.3119  0.3253 -0.7114
 6016TIP3    H139607   1.596   1.689   6.444 -0.4976  0.0110 -0.9812
 6016TIP3    H239608   1.642   1.550   6.483  0.0292  0.5097  0.1870
 6017TIP3   OH239609   5.743   2.004   0.607  0.0083  0.4893  0.1224
 6017TIP3    H139610   5.728   2.083   0.659 -1.9445 -0.0961  0.4851
 6017TIP3    H239611   5.718   2.029   0.518  1.4422  0.8945 -0.1845
 6018TIP3   OH239612   2.967   3.553   1.944  0.2772 -0.0563  0.3543
 6018TIP3    H139613   2.891   3.594   1.987  0.7500 -0.5845  1.7068
 6018TIP3    H239614   2.963   3.461   1.971  0.8792 -0.2798 -0.3157
 6019TIP3   OH239615   5.401   2.494   1.001 -0.2063 -0.3109  0.0874
 6019TIP3    H139616   5.418   2.538   1.083  2.2420 -1.2752  0.1248
 6019TIP3    H239617   5.315   2.452   1.013  0.4668 -1.0513  2.4023
 6020TIP3   OH239618   6.881   1.067   0.566 -0.1443 -0.1733 -0.5064
 6020TIP3    H139619   6.851   0.978   0.582 -1.5036  0.1365 -1.2816
 6020TIP3    H239620   6.889   1.105   0.654 -1.6591 -0.3781 -0.2724
 6021TIP3   OH239621   0.586   5.209   7.224 -0.5413 -0.3954 -0.2544
 6021TIP3    H139622   0.506   5.240   7.182  0.0360  0.7593 -0.5178
 6021TIP3    H239623   0.654   5.272   7.198  0.1644 -0.5728  1.0820
 6022TIP3   OH239624   1.497   4.528   1.578 -0.3769 -0.1015  0.0541
 6022TIP3    H139625   1.502   4.491   1.490  2.8166 -1.0535  0.5760
 6022TIP3    H239626   1.527   4.618   1.567  1.4324 -0.6478  0.3701
 6023TIP3   OH239627   5.074   4.712   7.881  0.1228 -0.6502 -0.1880
 6023TIP3    H139628   5.151   4.676   7.925  1.4621  1.0820 -1.0309
 6023TIP3    H239629   5.069   4.803   7.911 -0.6301 -0.2731 -1.3896
 6024TIP3   OH239630   6.991   3.560   6.891 -0.3467 -0.1797  0.1308
 6024TIP3    H139631   6.959   3.536   6.804 -1.3029  1.2761  0.0647
 6024TIP3    H239632   7.084   3.538   6.889 -0.4372 -0.5104 -1.1242
 6025TIP3   OH239633   2.818   2.781   6.709 -0.3686 -0.3316 -0.2383
 6025TIP3    H139634   2.890   2.829   6.668  0.5559 -1.6851 -0.2395
 6025TIP3    H239635   2.837   2.783   6.803 -1.7287  1.5276  0.0452
 6026TIP3   OH239636   0.508   4.064   7.172 -0.5062 -0.1100 -0.1628
 6026TIP3    H139637   0.415   4.074   7.150 -0.1706  0.5600 -1.3020
 6026TIP3    H239638   0.538   3.990   7.120 -0.4253 -0.4200  0.3177
 6027TIP3   OH239639   5.294   0.326   7.306 -0.1332  0.1539  0.3221
 6027TIP3    H139640   5.302   0.249   7.363 -0.5587  0.5102  0.8670
 6027TIP3    H239641   5.382   0.336   7.268  0.2249  0.0647  1.1099
 6028TIP3   OH239642   1.369   6.389   7.069  0.0218  0.3377  0.1565
 6028TIP3    H139643   1.409   6.362   7.152 -0.5120 -0.1541  0.2604
 6028TIP3    H239644   1.294   6.442   7.094 -0.5421 -0.3751  0.0112
 6029TIP3   OH239645   1.491   4.491   1.311 -0.5492  0.2543  0.3220
 6029TIP3    H139646   1.432   4.564   1.289 -1.8751 -0.5360  1.1816
 6029TIP3    H239647   1.475   4.427   1.242  0.2436  0.5527 -0.1477
 6030TIP3   OH239648   5.342   4.265   7.946  0.1990  0.5391  0.3747
 6030TIP3    H139649   5.316   4.286   7.856  0.3770 -1.6760 -0.2135
 6030TIP3    H239650   5.266   4.288   7.998 -0.8179 -0.4402 -0.6475
 6031TIP3   OH239651   6.794   3.122   7.457  0.8545  0.1721  0.0916
 6031TIP3    H139652   6.819   3.049   7.514 -1.5650  0.2028  1.2703
 6031TIP3    H239653   6.754   3.080   7.381 -0.8997  0.2377  0.9504
 6032TIP3   OH239654   2.171   4.635   1.155 -0.0122  0.3667  0.2304
 6032TIP3    H139655   2.180   4.678   1.240  2.1185  0.2684  0.0925
 6032TIP3    H239656   2.167   4.542   1.176 -0.0188  0.3744  0.2653
 6033TIP3   OH239657   0.327   2.275   0.571  0.2835 -0.4553  0.7713
 6033TIP3    H139658   0.362   2.193   0.606  1.5593  0.2427  1.1536
 6033TIP3    H239659   0.351   2.341   0.635 -0.2945  0.3091  0.2143
 6034TIP3   OH239660   6.268   1.255   7.707  0.0362 -0.7437  0.5487
 6034TIP3    H139661   6.175   1.241   7.726 -0.5127  0.1817 -1.4078
 6034TIP3    H239662   6.306   1.167   7.712 -1.4543 -1.5340 -1.3156
 6035TIP3   OH239663   3.597   5.680   7.030  0.2064  0.3447  0.2511
 6035TIP3    H139664   3.618   5.597   7.072 -0.2137 -0.2822 -0.7493
 6035TIP3    H239665   3.561   5.655   6.945 -0.9704  1.5231  0.3955
 6036TIP3   OH239666   0.942   1.861   0.336 -0.0987 -0.0140 -0.3157
 6036TIP3    H139667   0.852   1.873   0.365  0.1563  0.1689  0.3907
 6036TIP3    H239668   0.983   1.807   0.404  0.5138  0.4808 -0.2869
 6037TIP3   OH239669   1.037   6.990   8.120  0.2066  0.3599  0.2143
 6037TIP3    H139670   0.983   7.020   8.048 -1.1240 -0.7709  0.7370
 6037TIP3    H239671   1.074   7.071   8.158 -2.3146  1.2599  0.8096
 6038TIP3   OH239672   6.432   4.980   7.692  0.0810  0.4697 -0.1970
 6038TIP3    H139673   6.417   5.067   7.655 -0.6270 -0.0690 -1.2053
 6038TIP3    H239674   6.353   4.931   7.671  1.1134 -0.8932 -1.0668
 6039TIP3   OH239675   4.250   6.041   7.865  0.5550 -0.0194 -0.2039
 6039TIP3    H139676   4.331   5.991   7.876  0.0398 -1.1715 -1.4483
 6039TIP3    H239677   4.184   5.989   7.909  0.1426 -0.0767 -0.8865
 6040TIP3   OH239678   7.038   4.327   0.584 -0.2437  0.3859  0.3207
 6040TIP3    H139679   7.022   4.373   0.667 -1.1737  2.3711 -0.9284
 6040TIP3    H239680   7.071   4.395   0.525  0.7622 -1.0882 -0.8416
 6041TIP3   OH239681   2.639   0.431   7.149  0.4553  0.7555  0.1989
 6041TIP3    H139682   2.660   0.486   7.074  1.0781  0.5252  0.1998
 6041TIP3    H239683   2.544   0.417   7.143  0.6059  0.2101 -0.9030
 6042TIP3   OH239684   4.147   6.252   7.098 -0.4526  0.1962 -0.1211
 6042TIP3    H139685   4.130   6.169   7.055 -1.2463 -0.7372  1.9414
 6042TIP3    H239686   4.182   6.308   7.029 -0.3033 -1.7055 -1.6246
 6043TIP3   OH239687   4.760   4.064   0.606  0.0910 -0.6363 -0.4954
 6043TIP3    H139688   4.705   4.000   0.653 -2.2526  0.2074 -1.9994
 6043TIP3    H239689   4.777   4.132   0.671 -0.3248 -1.0970  0.1127
 6044TIP3   OH239690   0.292   3.831   7.902 -0.1953  0.4576  0.0968
 6044TIP3    H139691   0.369   3.836   7.846 -0.1420  1.7414  0.2541
 6044TIP3    H239692   0.275   3.922   7.927 -1.7013  0.1813  0.1409
 6045TIP3   OH239693   2.412   3.126   1.526  0.1449 -0.0896  0.8805
 6045TIP3    H139694   2.455   3.043   1.549  1.1066 -0.0027 -0.5198
 6045TIP3    H239695   2.318   3.105   1.528  0.3474 -1.0013  1.3264
 6046TIP3   OH239696   5.804   5.135   6.884  0.0672  0.2632 -0.0849
 6046TIP3    H139697   5.751   5.200   6.932  1.4426 -0.3999  2.4253
 6046TIP3    H239698   5.775   5.051   6.919  0.7256 -0.2643 -0.8251
 6047TIP3   OH239699   5.830   4.471   1.373 -0.0848 -0.3254 -0.2223
 6047TIP3    H139700   5.842   4.394   1.428  1.6799 -1.6361 -2.3865
 6047TIP3    H239701   5.912   4.520   1.382  0.2634 -0.6044 -1.7563
 6048TIP3   OH239702   0.021   6.088   1.910 -0.4294 -0.0302  0.4885
 6048TIP3    H139703   0.071   6.031   1.968  0.2625  1.8459  1.7564
 6048TIP3    H239704  -0.064   6.097   1.953 -0.4003  0.2365  0.4875
 6049TIP3   OH239705   1.112   1.144   7.537  0.2961  0.3990  0.4367
 6049TIP3    H139706   1.029   1.177   7.502  0.2261 -0.1067  0.1209
 6049TIP3    H239707   1.089   1.107   7.622 -0.0306 -0.8356 -0.1685
 6050TIP3   OH239708   0.303   0.416   7.435  0.3462 -0.4961 -0.5644
 6050TIP3    H139709   0.332   0.327   7.420 -0.5844 -0.9951  0.4845
 6050TIP3    H239710   0.327   0.434   7.526 -2.5346 -0.9338  0.3451
 6051TIP3   OH239711   4.993   6.413   6.242 -0.3148 -0.3723  0.3912
 6051TIP3    H139712   5.030   6.482   6.186  0.0148 -0.8926 -0.0409
 6051TIP3    H239713   4.966   6.345   6.181 -0.8042 -0.5470  0.8054
 6052TIP3   OH239714   5.762   0.388   6.679 -0.5122 -0.1904  0.2658
 6052TIP3    H139715   5.791   0.473   6.646 -2.1664 -0.4231 -1.8699
 6052TIP3    H239716   5.678   0.406   6.722 -0.6460 -0.6499  0.2023
 6053TIP3   OH239717   0.798   5.595   7.586  0.6222 -0.0594  0.2753
 6053TIP3    H139718   0.874   5.652   7.580  1.8915 -1.6754  0.4288
 6053TIP3    H239719   0.763   5.612   7.674  2.3686 -1.1376  1.2316
 6054TIP3   OH239720   0.995   5.055   2.508  0.0413 -0.4303  0.0245
 6054TIP3    H139721   1.025   5.142   2.482  1.0839 -0.8312 -0.1544
 6054TIP3    H239722   0.909   5.070   2.547 -0.3454  0.5289 -1.1328
 6055TIP3   OH239723   6.274   3.012   0.601 -0.7117 -0.3498 -0.3680
 6055TIP3    H139724   6.251   3.095   0.559 -0.1513 -0.8693 -1.7307
 6055TIP3    H239725   6.215   2.947   0.562 -0.8177 -0.6919  0.3350
 6056TIP3   OH239726   2.591   2.875   7.573  0.1485 -0.2451 -0.4786
 6056TIP3    H139727   2.586   2.834   7.487 -2.8414 -1.0615  0.0385
 6056TIP3    H239728   2.657   2.824   7.621  1.5294 -0.0335 -2.1021
 6057TIP3   OH239729   5.994   6.416   1.038 -0.5282  0.4065  0.4037
 6057TIP3    H139730   6.033   6.407   0.950  1.0910 -1.6428  1.2727
 6057TIP3    H239731   5.969   6.508   1.044 -1.8085  0.3227 -2.6777
 6058TIP3   OH239732   5.081   5.244   8.003  0.2828  0.3040  0.2556
 6058TIP3    H139733   5.114   5.334   7.997 -1.3996  1.0023  1.1825
 6058TIP3    H239734   4.988   5.251   7.982  0.7328 -1.6992 -2.7197
 6059TIP3   OH239735   6.399   5.680   2.549 -0.9000  0.0758  0.0773
 6059TIP3    H139736   6.398   5.608   2.612  1.7250 -0.7057 -0.7079
 6059TIP3    H239737   6.365   5.642   2.468 -1.4469  0.2854  0.2044
 6060TIP3   OH239738   2.504   4.904   0.297  0.3992 -0.3254  0.5279
 6060TIP3    H139739   2.423   4.936   0.337 -0.0318  1.5711 -1.7335
 6060TIP3    H239740   2.478   4.826   0.248 -0.5673  1.4120 -1.8727
 6061TIP3   OH239741   1.465   3.708   6.526 -0.1074 -0.1977  0.5377
 6061TIP3    H139742   1.408   3.632   6.532  1.2638 -1.1478  1.9225
 6061TIP3    H239743   1.478   3.736   6.617 -0.5369  1.6551  0.0567
 6062TIP3   OH239744   0.781   6.519   7.969  0.1749 -0.2897  0.6591
 6062TIP3    H139745   0.747   6.493   7.884 -0.0150 -0.7834  0.8879
 6062TIP3    H239746   0.856   6.576   7.948  0.6126 -1.0399  0.1626
 6063TIP3   OH239747   6.011   5.688   1.932 -0.1507  0.4110 -0.1030
 6063TIP3    H139748   6.075   5.676   2.002  0.2353  0.4666 -0.4459
 6063TIP3    H239749   5.947   5.749   1.968  0.3102  0.8166  0.0312
 6064TIP3   OH239750   5.784   4.857   6.951 -0.4132 -0.1475  0.4333
 6064TIP3    H139751   5.689   4.851   6.940 -0.6527  1.3674  1.5442
 6064TIP3    H239752   5.819   4.820   6.870 -1.9654  0.3199 -0.4798
 6065TIP3   OH239753   6.182   4.029   1.975  0.4150  0.6051  0.5168
 6065TIP3    H139754   6.176   3.951   1.920 -0.5856  1.0733 -0.0544
 6065TIP3    H239755   6.110   4.019   2.038 -1.5009  2.3977 -1.3131
 6066TIP3   OH239756   6.259   4.086   7.100  0.5816  0.0859  0.5155
 6066TIP3    H139757   6.173   4.071   7.139  0.3721 -0.5122 -0.1694
 6066TIP3    H239758   6.246   4.160   7.040  0.1450 -1.0509 -0.8301
 6067TIP3   OH239759   0.908   3.950   0.791  0.0786  0.2089 -0.7110
 6067TIP3    H139760   0.977   4.015   0.780  2.3638 -1.8479  0.8971
 6067TIP3    H239761   0.893   3.915   0.703 -0.8785  2.5269 -1.5148
 6068TIP3   OH239762   1.457   1.729   1.005 -0.3478  0.0644 -0.3055
 6068TIP3    H139763   1.384   1.671   0.988 -2.2595  2.5130 -0.7442
 6068TIP3    H239764   1.417   1.815   1.020  2.2676  0.9757  1.8938
 6069TIP3   OH239765   5.931   5.608   7.334 -0.2353 -0.4707  0.2413
 6069TIP3    H139766   5.981   5.587   7.255  1.1456  3.1022  0.0812
 6069TIP3    H239767   5.997   5.638   7.397 -1.8329  1.7891  0.9073
 6070TIP3   OH239768   0.075   2.943   7.439 -0.1394 -0.4577 -0.0148
 6070TIP3    H139769   0.049   2.895   7.517  1.4160  0.2670  0.9651
 6070TIP3    H239770   0.168   2.962   7.452 -0.4551  1.8415 -0.8870
 6071TIP3   OH239771   1.779   5.177   7.379 -0.8258  0.0327 -0.0290
 6071TIP3    H139772   1.695   5.138   7.352 -0.2805 -1.7587  0.8113
 6071TIP3    H239773   1.759   5.221   7.461 -0.8533 -0.8216  0.4336
 6072TIP3   OH239774   5.913   4.410   5.642  0.2140  0.0471  0.0724
 6072TIP3    H139775   5.898   4.316   5.648 -0.2032 -0.0484 -2.0817
 6072TIP3    H239776   5.828   4.450   5.659  0.0380 -0.0323 -0.6161
 6073TIP3   OH239777   6.491   0.331   0.923 -0.3106 -0.3125  0.0123
 6073TIP3    H139778   6.472   0.320   1.016  1.5339  1.3791  0.6267
 6073TIP3    H239779   6.448   0.413   0.900 -0.5631 -0.6085 -0.5865
 6074TIP3   OH239780   3.031   4.531   5.943  0.1460  0.5155  0.5930
 6074TIP3    H139781   3.124   4.522   5.962  0.3538 -0.0168 -0.6134
 6074TIP3    H239782   3.017   4.477   5.865 -1.1859  0.5328  0.8057
 6075TIP3   OH239783   0.250   6.522   0.833 -0.6385  0.8996  0.5512
 6075TIP3    H139784   0.199   6.441   0.821  3.5292 -1.8338  0.2378
 6075TIP3    H239785   0.258   6.558   0.745 -0.9194  0.6666  0.4284
 6076TIP3   OH239786   2.675   6.201   7.079  0.7404  0.4027  0.5265
 6076TIP3    H139787   2.723   6.243   7.008 -0.7703 -0.0972 -0.8470
 6076TIP3    H239788   2.583   6.215   7.056  0.2321 -0.4838  1.9591
 6077TIP3   OH239789   0.835   5.033   1.032  0.4214  0.2088  0.1092
 6077TIP3    H139790   0.752   5.057   0.990  1.2040  2.1227 -0.4209
 6077TIP3    H239791   0.896   5.021   0.960  0.9063  0.0611  0.5436
 6078TIP3   OH239792   2.162   4.455   0.629 -0.3326 -0.1082  0.3975
 6078TIP3    H139793   2.167   4.471   0.724  0.8481  1.4022  0.0982
 6078TIP3    H239794   2.188   4.363   0.619  0.4800 -0.0037  1.4525
 6079TIP3   OH239795   4.982   5.128   1.156 -0.4167  0.6222  0.0628
 6079TIP3    H139796   5.031   5.128   1.074 -0.1436 -2.7765  0.1830
 6079TIP3    H239797   5.032   5.070   1.214 -2.7438 -0.1897  1.3067
 6080TIP3   OH239798   6.577   4.644   0.245  0.2372  0.7394  0.0681
 6080TIP3    H139799   6.662   4.685   0.260  0.6247 -0.3709  0.9929
 6080TIP3    H239800   6.588   4.594   0.164  0.2691  1.1200 -0.1619
 6081TIP3   OH239801   6.127   3.568   8.015  0.0899  0.3720 -0.2669
 6081TIP3    H139802   6.152   3.658   8.036 -0.6945  0.5920 -0.2781
 6081TIP3    H239803   6.057   3.547   8.077  0.3523 -0.2739 -0.1869
 6082TIP3   OH239804   5.471   4.617   0.677 -0.4501 -0.0425 -0.0691
 6082TIP3    H139805   5.530   4.543   0.691  0.3007  0.3042 -1.3791
 6082TIP3    H239806   5.413   4.616   0.753 -0.6926 -2.2087 -0.2581
 6083TIP3   OH239807   4.019   4.831   1.129  0.2634  0.5025 -0.1472
 6083TIP3    H139808   4.059   4.911   1.094  0.6051  0.4797  0.1892
 6083TIP3    H239809   4.090   4.788   1.177 -0.4898  1.1251  1.5642
 6084TIP3   OH239810   5.892   0.697   0.676 -0.0498  0.1028  0.8836
 6084TIP3    H139811   5.892   0.722   0.768  0.5809  1.5648  0.5029
 6084TIP3    H239812   5.949   0.620   0.672  2.4677  1.8876  1.2555
 6085TIP3   OH239813   6.865   1.485   0.602 -0.2810 -0.3904  0.0273
 6085TIP3    H139814   6.881   1.412   0.661 -1.2762 -2.5252 -2.2771
 6085TIP3    H239815   6.910   1.462   0.521 -1.8955  0.8011 -1.2495
 6086TIP3   OH239816   6.493   3.911   1.780 -0.3203  0.1499  0.5401
 6086TIP3    H139817   6.406   3.913   1.820 -0.4826 -2.1907  0.3543
 6086TIP3    H239818   6.544   3.852   1.835  0.7411  0.3615 -0.2021
 6087TIP3   OH239819   5.546   6.277   0.214  0.3591 -0.0590 -0.4488
 6087TIP3    H139820   5.455   6.298   0.194  0.3996 -0.0572 -0.6323
 6087TIP3    H239821   5.593   6.293   0.132  0.6103  0.4365 -0.2111
 6088TIP3   OH239822   4.290   5.291   7.347  0.3517 -0.4669 -0.0532
 6088TIP3    H139823   4.198   5.318   7.339  0.7854  0.9230 -0.6498
 6088TIP3    H239824   4.339   5.371   7.326  1.7129 -1.7244 -1.8452
 6089TIP3   OH239825   6.551   6.957   1.064 -0.2544 -0.2099  0.3589
 6089TIP3    H139826   6.625   6.961   1.125 -0.1769 -0.3451  0.2733
 6089TIP3    H239827   6.568   7.027   1.001 -0.2339 -0.1952  0.3809
 6090TIP3   OH239828   6.141   4.225   7.913  0.2225 -0.2324 -0.2600
 6090TIP3    H139829   6.071   4.228   7.848  0.4029  1.1634 -0.4020
 6090TIP3    H239830   6.193   4.303   7.895  0.9878 -0.5038  0.7680
 6091TIP3   OH239831   3.774   1.763   0.989 -0.1080 -0.2497  0.0233
 6091TIP3    H139832   3.753   1.838   1.045 -0.6914 -0.0170 -0.5012
 6091TIP3    H239833   3.786   1.690   1.051 -0.6253  0.0284  0.4591
 6092TIP3   OH239834   0.894   2.654   0.257 -0.0268 -0.0962 -0.0995
 6092TIP3    H139835   0.900   2.626   0.349  2.8562  0.2209 -0.1366
 6092TIP3    H239836   0.801   2.664   0.241 -0.6859 -2.0463  2.2366
 6093TIP3   OH239837   1.604   6.972   1.171  0.0597 -0.2282  0.0465
 6093TIP3    H139838   1.531   6.961   1.109 -0.2623  1.4605  0.0976
 6093TIP3    H239839   1.665   6.902   1.149 -2.3512 -2.7958  1.1309
 6094TIP3   OH239840   6.598   5.754   1.966 -0.1510  0.4663  0.1473
 6094TIP3    H139841   6.543   5.694   2.018  0.5687 -0.8176 -0.5563
 6094TIP3    H239842   6.559   5.840   1.980 -0.5818 -0.0141  2.0055
 6095TIP3   OH239843   1.408   3.140   7.494  0.0018  0.4774 -0.2447
 6095TIP3    H139844   1.431   3.062   7.444  0.3346  0.7753 -0.5562
 6095TIP3    H239845   1.322   3.165   7.460 -0.8624 -0.6976  0.9989
 6096TIP3   OH239846   1.197   2.484   6.652 -0.2981  0.5661 -0.1440
 6096TIP3    H139847   1.126   2.519   6.707  0.3900 -0.3846  1.3782
 6096TIP3    H239848   1.152   2.446   6.576 -1.3072  1.3611  0.0438
 6097TIP3   OH239849   2.327   6.328   0.889 -0.2774  0.3025  0.0393
 6097TIP3    H139850   2.411   6.342   0.847 -0.3488 -0.7644 -0.4607
 6097TIP3    H239851   2.264   6.324   0.817 -0.4269 -1.3264  0.2339
 6098TIP3   OH239852   3.195   4.058   0.737 -0.0607  0.2458 -0.0940
 6098TIP3    H139853   3.114   4.035   0.692  0.5377 -1.7698 -0.2265
 6098TIP3    H239854   3.265   4.033   0.676  0.6794  1.8712  0.0524
 6099TIP3   OH239855   3.827   4.883   0.794 -0.0825 -0.2456 -0.4909
 6099TIP3    H139856   3.914   4.893   0.832 -1.0575 -0.0875  1.7370
 6099TIP3    H239857   3.843   4.842   0.709  1.9937 -2.4834  0.9065
 6100TIP3   OH239858   1.064   0.079   7.321 -0.0901  0.0482  0.5621
 6100TIP3    H139859   1.092   0.067   7.230 -0.2568 -3.1606  0.8636
 6100TIP3    H239860   1.016   0.161   7.321  1.3186  0.9322 -1.9014
 6101TIP3   OH239861   1.168   6.561   7.265  0.3201  0.0289 -0.9067
 6101TIP3    H139862   1.252   6.599   7.238  0.1564 -0.0223 -1.5011
 6101TIP3    H239863   1.136   6.515   7.187 -1.1714  1.6531 -1.2905
 6102TIP3   OH239864   3.677   4.959   6.829 -0.3070 -0.0797  0.2692
 6102TIP3    H139865   3.651   5.049   6.810 -0.3471 -0.1506 -0.0207
 6102TIP3    H239866   3.652   4.910   6.751 -0.6955 -0.4256  0.6098
 6103TIP3   OH239867   5.102   4.910   1.276 -0.1744  0.2572 -0.3427
 6103TIP3    H139868   5.156   4.917   1.355  0.3877 -0.9107 -0.6012
 6103TIP3    H239869   5.163   4.879   1.209 -0.5844  1.5114 -1.3172
 6104TIP3   OH239870   6.339   5.097   7.280 -0.1466  0.0092  0.6586
 6104TIP3    H139871   6.426   5.134   7.268  0.7972 -2.1904  0.5968
 6104TIP3    H239872   6.327   5.093   7.375  1.0473 -2.4418  0.7333
 6105TIP3   OH239873   0.703   3.032   0.536 -0.0634  0.5095  0.1936
 6105TIP3    H139874   0.714   3.049   0.630 -1.4476  2.1172  0.0867
 6105TIP3    H239875   0.791   3.010   0.505  0.6391  1.2293  1.6304
 6106TIP3   OH239876   2.235   4.624   0.900  0.1592  0.0091 -0.5990
 6106TIP3    H139877   2.271   4.690   0.840 -0.8941 -0.6383 -1.9944
 6106TIP3    H239878   2.220   4.672   0.982  0.0987  1.3354 -1.3598
 6107TIP3   OH239879   1.749   4.286   6.930  0.0795 -0.0415  0.1808
 6107TIP3    H139880   1.808   4.351   6.894  1.5900 -0.7210  1.3831
 6107TIP3    H239881   1.798   4.245   7.001 -1.2673 -1.6819  0.2046
 6108TIP3   OH239882   4.988   4.565   7.181  0.5246  0.3722  0.0405
 6108TIP3    H139883   4.922   4.616   7.228  0.7158  2.4012 -1.8123
 6108TIP3    H239884   4.944   4.536   7.102  1.2281 -0.0634 -0.1928
 6109TIP3   OH239885   6.996   4.734   1.209  0.3575  0.3650  0.5252
 6109TIP3    H139886   6.942   4.699   1.138  1.0130 -0.7194  0.5344
 6109TIP3    H239887   6.937   4.739   1.284  0.2931 -0.9932  0.5856
 6110TIP3   OH239888   5.728   2.366   1.859  0.7594  0.3478 -0.0457
 6110TIP3    H139889   5.695   2.441   1.909  0.0560  0.2611 -0.3636
 6110TIP3    H239890   5.649   2.323   1.826  1.0868 -1.3449  1.2764
 6111TIP3   OH239891   1.035   0.019   7.598 -0.0871  0.1535 -0.1925
 6111TIP3    H139892   0.991  -0.066   7.588 -0.3246  0.0306  1.6729
 6111TIP3    H239893   1.055   0.046   7.508 -2.9427 -0.3190 -1.0271
 6112TIP3   OH239894   1.993   1.798   0.662  0.1500 -0.9177  0.1252
 6112TIP3    H139895   2.071   1.778   0.714  1.2952  0.1783 -1.1308
 6112TIP3    H239896   1.964   1.884   0.694 -1.7881 -2.1906  1.9988
 6113TIP3   OH239897   0.600   1.658   1.470  0.0146 -0.3905 -0.4691
 6113TIP3    H139898   0.533   1.609   1.517 -0.9404  1.1166 -0.2069
 6113TIP3    H239899   0.601   1.744   1.513  1.3865 -0.0543 -1.1445
 6114TIP3   OH239900   6.961   5.677   0.510  0.0296  0.1809  0.0097
 6114TIP3    H139901   7.041   5.660   0.461 -0.1177 -0.3163 -0.0599
 6114TIP3    H239902   6.989   5.733   0.583  0.4064  0.1622 -0.1213
 6115TIP3   OH239903   1.407   5.582   6.898 -0.3232  0.3203 -0.6100
 6115TIP3    H139904   1.460   5.550   6.825 -0.3799  2.1940 -1.5125
 6115TIP3    H239905   1.356   5.506   6.926  0.2213 -0.6039 -2.0507
 6116TIP3   OH239906   0.898   0.689   1.563 -1.1313  0.2653  0.2232
 6116TIP3    H139907   0.902   0.745   1.485  1.5966 -1.3073 -0.8348
 6116TIP3    H239908   0.825   0.630   1.547 -2.0286  1.4372 -0.0741
 6117TIP3   OH239909   4.839   4.858   1.715 -0.1925  0.1450  1.0525
 6117TIP3    H139910   4.854   4.921   1.645 -3.2710  0.5295  0.6893
 6117TIP3    H239911   4.857   4.773   1.675 -0.0653  0.4934  0.3606
 6118TIP3   OH239912   4.245   4.704   0.252 -0.2929 -0.1314 -0.0728
 6118TIP3    H139913   4.297   4.734   0.326  1.5044 -1.1368 -0.8870
 6118TIP3    H239914   4.286   4.622   0.226 -2.0417 -0.7396 -1.0246
 6119TIP3   OH239915   0.506   2.135   6.612 -0.4553 -0.7773  0.0050
 6119TIP3    H139916   0.419   2.166   6.586 -1.3441 -2.8570  0.4231
 6119TIP3    H239917   0.532   2.075   6.543 -0.8788 -2.8542  1.5968
 6120TIP3   OH239918   5.553   4.502   1.299 -0.6334  0.1418 -0.0528
 6120TIP3    H139919   5.557   4.455   1.216 -0.4952  0.6579 -0.3362
 6120TIP3    H239920   5.639   4.487   1.339 -0.6774 -0.0540 -0.0293
 6121TIP3   OH239921   4.191   5.093   1.172  0.0756 -0.2610  0.2755
 6121TIP3    H139922   4.140   5.157   1.222  1.6193  0.8559  0.4371
 6121TIP3    H239923   4.258   5.063   1.232  2.0222  1.1710 -1.1418
 6122TIP3   OH239924   5.389   5.569   1.065  0.4658  0.3632  0.4620
 6122TIP3    H139925   5.426   5.492   1.022  1.1729  0.6400  0.5598
 6122TIP3    H239926   5.457   5.597   1.126  0.1044  0.8996  0.6205
 6123TIP3   OH239927   0.145   5.279   2.410  0.3630  0.7791 -0.0446
 6123TIP3    H139928   0.134   5.332   2.331 -0.0007 -0.1036 -0.5972
 6123TIP3    H239929   0.093   5.324   2.477 -1.6741 -0.0230 -1.0473
 6124TIP3   OH239930   1.019   6.595   6.839  0.6444  0.4167 -0.0725
 6124TIP3    H139931   0.943   6.537   6.844  2.5573 -2.0352  1.4596
 6124TIP3    H239932   0.983   6.680   6.812 -2.3563 -1.1721 -1.2485
 6125TIP3   OH239933   0.159   3.532   7.774  0.1536  0.6518 -0.0119
 6125TIP3    H139934   0.166   3.610   7.830 -1.0836  2.3178 -2.0805
 6125TIP3    H239935   0.091   3.479   7.817  0.3655  1.1350  0.9444
 6126TIP3   OH239936   3.989   1.735   0.101 -0.2797  0.1263 -0.1600
 6126TIP3    H139937   3.922   1.797   0.129 -2.3118 -2.0008 -0.1757
 6126TIP3    H239938   3.993   1.670   0.171 -1.5842 -2.3104 -2.2910
 6127TIP3   OH239939   2.929   6.526   7.769 -0.7407 -0.3826  0.1459
 6127TIP3    H139940   2.905   6.617   7.787 -0.3546 -0.0117 -1.1252
 6127TIP3    H239941   2.887   6.506   7.686  1.7526 -0.3084 -1.1930
 6128TIP3   OH239942   6.724   6.096   0.938 -0.1226  0.2343  0.3601
 6128TIP3    H139943   6.731   6.147   1.018 -0.6218  2.5283 -1.0003
 6128TIP3    H239944   6.635   6.059   0.940 -1.1269  2.4912 -0.3474
 6129TIP3   OH239945   1.806   3.547   1.136  0.3414 -0.7850 -0.2252
 6129TIP3    H139946   1.788   3.457   1.110  0.4350 -0.0437 -3.1112
 6129TIP3    H239947   1.902   3.553   1.138  0.3801 -0.2639 -2.1094
 6130TIP3   OH239948   6.464   1.140   6.141  0.2694  0.2153 -0.0920
 6130TIP3    H139949   6.390   1.111   6.087  0.3224 -0.4079  0.1689
 6130TIP3    H239950   6.480   1.230   6.113 -1.5578  0.8720  0.8955
 6131TIP3   OH239951   1.638   4.665   2.011  0.3717  0.0453 -0.4120
 6131TIP3    H139952   1.726   4.700   2.004  0.0856  0.5208 -1.8018
 6131TIP3    H239953   1.631   4.601   1.940 -1.2539  1.9362 -2.0444
 6132TIP3   OH239954   0.144   3.731   1.945  0.6018 -0.9056  0.5500
 6132TIP3    H139955   0.106   3.774   2.022  1.0934  1.9881 -0.7729
 6132TIP3    H239956   0.204   3.666   1.981  0.1285 -0.2262  2.6207
 6133TIP3   OH239957   0.967   5.725   0.528 -0.5359  0.1642 -0.1709
 6133TIP3    H139958   0.946   5.677   0.608  0.8314  1.1216  0.7859
 6133TIP3    H239959   0.983   5.657   0.462  1.7445 -0.7423  1.2540
 6134TIP3   OH239960   2.501   5.184   6.724  0.1427  0.2025  0.1443
 6134TIP3    H139961   2.495   5.279   6.712  0.5754  0.1109 -0.9453
 6134TIP3    H239962   2.595   5.167   6.724  0.1349  0.0038  2.4480
 6135TIP3   OH239963   6.911   5.367   6.085 -0.2987  0.0495 -0.0405
 6135TIP3    H139964   6.835   5.309   6.076  0.3284 -0.8124  0.2378
 6135TIP3    H239965   6.935   5.389   5.995 -1.0088  0.5003 -0.1262
 6136TIP3   OH239966   0.735   7.011   1.869  0.1497  0.4297  0.1029
 6136TIP3    H139967   0.738   7.064   1.948  1.1825  1.2140 -0.4443
 6136TIP3    H239968   0.646   6.976   1.866  0.4132 -0.5027  2.1946
 6137TIP3   OH239969   1.643   4.474   1.779 -0.3350  0.6197  0.1423
 6137TIP3    H139970   1.575   4.488   1.714 -3.0505  3.4137  3.4081
 6137TIP3    H239971   1.613   4.399   1.830 -0.6981  1.4767  1.2080
 6138TIP3   OH239972   6.885   6.851   0.980  0.4865 -0.6635  0.6560
 6138TIP3    H139973   6.924   6.924   1.026 -0.4359  0.1442  0.1837
 6138TIP3    H239974   6.855   6.888   0.897 -3.4754 -0.6417  1.9894
 6139TIP3   OH239975   5.537   0.079   7.697 -0.2202 -0.6821 -0.4316
 6139TIP3    H139976   5.528   0.162   7.745 -1.2671 -0.5641 -0.8168
 6139TIP3    H239977   5.604   0.097   7.631  0.1297 -0.3898 -0.0036
 6140TIP3   OH239978   1.849   3.838   1.148  0.1760  0.1156  0.0818
 6140TIP3    H139979   1.868   3.860   1.239 -1.2528 -0.6060  0.5749
 6140TIP3    H239980   1.835   3.743   1.148 -0.4075  0.1860 -0.7658
 6141TIP3   OH239981   0.196   0.406   1.919  0.0154  0.8369 -0.1296
 6141TIP3    H139982   0.258   0.333   1.924 -0.2498  0.6786  1.1150
 6141TIP3    H239983   0.154   0.396   1.834  0.6087  0.0386 -0.3357
 6142TIP3   OH239984   6.950   2.375   7.552  0.2725  0.3249  0.1741
 6142TIP3    H139985   6.988   2.287   7.559  1.1213  0.8004  1.8185
 6142TIP3    H239986   6.901   2.374   7.470  1.8187 -1.1018 -0.7637
 6143TIP3   OH239987   0.948   4.899   7.215  0.4303  0.6906  0.2837
 6143TIP3    H139988   0.867   4.921   7.167 -1.4869 -1.1413  2.5418
 6143TIP3    H239989   1.011   4.879   7.146 -1.2173  1.5397 -1.5340
 6144TIP3   OH239990   1.294   0.323   2.123 -0.1127  0.0106  0.2544
 6144TIP3    H139991   1.327   0.349   2.037  0.4804  3.1208  1.3378
 6144TIP3    H239992   1.201   0.348   2.121  0.2254  1.3602  0.9675
 6145TIP3   OH239993   6.987   3.770   7.442 -0.5747 -0.4975  0.2542
 6145TIP3    H139994   6.941   3.781   7.359 -1.8017 -0.5961  0.8969
 6145TIP3    H239995   6.992   3.676   7.455 -0.9918 -0.4791  0.5982
 6146TIP3   OH239996   1.326   1.138   6.126 -0.4565 -0.3609 -0.1424
 6146TIP3    H139997   1.340   1.093   6.209 -0.1301  0.2945  0.1612
 6146TIP3    H239998   1.411   1.136   6.082 -0.9605 -1.9337 -1.0881
 6147TIP3   OH239999   1.947   2.318   0.426 -0.0948  0.3000  0.1305
 6147TIP3    H140000   1.946   2.270   0.343  3.6863  1.1465 -0.5163
 6147TIP3    H240001   1.974   2.253   0.491 -1.6856 -0.0343  0.4647
 6148TIP3   OH240002   6.491   6.566   1.026  0.1398  0.2676  0.2346
 6148TIP3    H140003   6.513   6.490   1.080  0.0453  0.3822  0.4368
 6148TIP3    H240004   6.568   6.622   1.030 -0.0923  0.5607  0.7530
 6149TIP3   OH240005   5.106   6.944   7.695  0.2605 -0.0882  0.2408
 6149TIP3    H140006   5.195   6.961   7.728  0.8741  0.0445 -1.4047
 6149TIP3    H240007   5.083   7.024   7.647 -0.2661 -0.5800 -0.3349
 6150TIP3   OH240008   0.435   5.373   0.320 -0.6106  0.0397  0.3726
 6150TIP3    H140009   0.350   5.412   0.342 -0.1586  1.2234  0.0830
 6150TIP3    H240010   0.468   5.338   0.403 -1.2650 -0.1961  0.5331
 6151TIP3   OH240011   1.656   0.082   8.039 -0.5523 -0.1330 -0.0676
 6151TIP3    H140012   1.747   0.067   8.063  0.0053  0.6668 -1.5977
 6151TIP3    H240013   1.612   0.104   8.121  0.8863  0.6643  0.4962
 6152TIP3   OH240014   3.264   1.843   7.774 -0.2482 -0.1335 -0.0856
 6152TIP3    H140015   3.299   1.841   7.864  0.7534  0.4260 -0.4513
 6152TIP3    H240016   3.322   1.903   7.728 -1.1347  0.0554 -0.9628
 6153TIP3   OH240017   4.213   4.839   7.990  0.6961 -0.4818 -0.0148
 6153TIP3    H140018   4.276   4.850   8.061  0.1491 -1.3044  0.6163
 6153TIP3    H240019   4.173   4.754   8.007  0.3765 -0.5762 -1.1726
 6154TIP3   OH240020   4.691   0.091   0.963  0.1539  0.0744  0.0584
 6154TIP3    H140021   4.704   0.172   0.913 -2.0221  1.1918  1.2232
 6154TIP3    H240022   4.644   0.118   1.041 -1.8612 -2.5233 -0.1832
 6155TIP3   OH240023   3.417   1.278   6.456 -0.7946 -0.1220 -0.4079
 6155TIP3    H140024   3.487   1.259   6.519 -1.9840  0.6163  1.1592
 6155TIP3    H240025   3.452   1.352   6.404 -0.6279  0.6054  0.7236
 6156TIP3   OH240026   2.355   5.747   0.269 -0.4692  0.1933  0.1513
 6156TIP3    H140027   2.424   5.685   0.247 -0.2016  0.1633  1.0759
 6156TIP3    H240028   2.345   5.801   0.190 -0.0790 -0.4363 -0.3300
 6157TIP3   OH240029   1.580   1.048   0.851  0.2218  0.3052 -0.0073
 6157TIP3    H140030   1.552   0.985   0.785  0.3521 -0.2443  0.4496
 6157TIP3    H240031   1.675   1.051   0.844  0.2252  0.3607  0.0529
 6158TIP3   OH240032   3.845   1.026   7.064  0.4303  0.1399  0.0342
 6158TIP3    H140033   3.899   1.024   6.985  0.2578 -1.6205 -0.0540
 6158TIP3    H240034   3.796   0.944   7.062 -0.9513  0.9225  1.0200
 6159TIP3   OH240035   1.191   3.946   1.314  0.2959  0.5538 -0.4864
 6159TIP3    H140036   1.115   3.897   1.345  0.7781 -0.5029 -0.9393
 6159TIP3    H240037   1.257   3.933   1.382  0.2776  0.9468 -0.3946
 6160TIP3   OH240038   2.161   1.318   0.685 -0.1700  0.0416  0.0332
 6160TIP3    H140039   2.114   1.399   0.666  0.0401  0.4098  1.0308
 6160TIP3    H240040   2.250   1.335   0.654 -0.5722 -0.4674 -1.3901
 6161TIP3   OH240041   2.073   6.642   5.957  0.2851 -0.0807 -0.4885
 6161TIP3    H140042   2.119   6.705   6.011  0.7583 -0.4867 -0.4155
 6161TIP3    H240043   1.983   6.674   5.953  0.2583 -0.0335  0.5092
 6162TIP3   OH240044   2.151   6.081   8.007  0.5630  0.1578  0.8144
 6162TIP3    H140045   2.151   6.148   8.076  1.2069  0.2293  0.7560
 6162TIP3    H240046   2.059   6.070   7.983  0.2681 -0.3362  2.1292
 6163TIP3   OH240047   1.745   6.752   0.998  0.1704  0.0189 -0.7663
 6163TIP3    H140048   1.791   6.681   0.953 -1.1620 -1.2868 -0.1204
 6163TIP3    H240049   1.686   6.787   0.931 -0.1118 -0.3493 -0.7103
 6164TIP3   OH240050   2.614   2.161   7.091  0.6718  0.0002 -0.2762
 6164TIP3    H140051   2.708   2.165   7.073  0.6661 -2.7112 -1.1082
 6164TIP3    H240052   2.576   2.123   7.012 -1.2409  1.6851 -0.2098
 6165TIP3   OH240053   0.759   1.469   7.417  0.5432 -0.1295  0.3785
 6165TIP3    H140054   0.665   1.485   7.417  0.7188  0.9210 -0.1256
 6165TIP3    H240055   0.774   1.415   7.339  0.4786  0.4025 -0.0006
 6166TIP3   OH240056   1.931   6.586   6.621  0.0554  0.0019  0.1366
 6166TIP3    H140057   1.909   6.535   6.698 -1.6814  0.9395  0.2884
 6166TIP3    H240058   1.930   6.677   6.651  1.0554  0.2752 -0.6072
 6167TIP3   OH240059   3.172   3.897   7.147  0.0850 -0.0226 -0.0930
 6167TIP3    H140060   3.148   3.941   7.065  0.6220 -1.4652 -1.0354
 6167TIP3    H240061   3.131   3.811   7.141 -0.0596 -0.0574  1.2674
 6168TIP3   OH240062   3.851   1.173   1.498  0.0766 -0.7802 -0.1196
 6168TIP3    H140063   3.770   1.123   1.488 -0.9205  0.8085 -0.1898
 6168TIP3    H240064   3.887   1.146   1.582 -1.1051 -0.6935  0.4198
 6169TIP3   OH240065   3.533   6.700   7.284 -0.1422 -0.3497 -0.2833
 6169TIP3    H140066   3.565   6.786   7.256  0.1338 -0.4088 -0.1383
 6169TIP3    H240067   3.604   6.663   7.335 -0.2529 -0.6785 -0.3701
 6170TIP3   OH240068   0.159   6.539   6.852  0.1530 -0.0581  0.4763
 6170TIP3    H140069   0.079   6.577   6.889  0.2913  0.6047  0.0982
 6170TIP3    H240070   0.131   6.500   6.769 -0.0113 -0.8877  0.9187
 6171TIP3   OH240071   4.827   6.913   7.914  0.2213 -0.2666  0.8554
 6171TIP3    H140072   4.861   6.860   7.842 -0.3813 -0.8496  0.9969
 6171TIP3    H240073   4.811   6.999   7.875  2.0922  0.1118  0.8424
 6172TIP3   OH240074   1.735   4.562   1.188  0.0424 -0.4276 -0.2905
 6172TIP3    H140075   1.653   4.562   1.237  0.3894  0.8857  0.3135
 6172TIP3    H240076   1.740   4.650   1.150  2.0426  0.1346  1.1777
 6173TIP3   OH240077   0.275   0.076   0.488 -0.3687 -0.1115 -0.5467
 6173TIP3    H140078   0.200   0.044   0.539 -1.1968 -0.1470 -1.7570
 6173TIP3    H240079   0.352   0.037   0.531 -1.0861 -0.5822  0.3356
 6174TIP3   OH240080   2.065   4.912   1.276  0.0666  0.0450  0.1506
 6174TIP3    H140081   2.107   4.993   1.246 -1.2227  0.6068 -0.1941
 6174TIP3    H240082   2.098   4.900   1.365  0.4011  0.8611  0.1464
 6175TIP3   OH240083   6.569   3.819   7.268  0.5696 -0.4825 -0.1512
 6175TIP3    H140084   6.549   3.900   7.221  0.0819 -0.5026  0.0226
 6175TIP3    H240085   6.549   3.750   7.205  0.2068 -0.4976 -0.0198
 6176TIP3   OH240086   1.550   0.843   0.648 -0.0558 -0.3739 -0.1046
 6176TIP3    H140087   1.578   0.755   0.623  2.0465 -0.2095  1.4999
 6176TIP3    H240088   1.455   0.838   0.653  0.0236 -2.4588 -0.3858
 6177TIP3   OH240089   3.112   6.163   0.878 -0.0119 -0.0555  0.9925
 6177TIP3    H140090   3.184   6.117   0.920 -0.6202 -2.3223 -0.3388
 6177TIP3    H240091   3.150   6.197   0.797 -0.0757 -0.0288  0.9743
 6178TIP3   OH240092   6.402   0.704   0.973 -0.1288  0.5283  0.4307
 6178TIP3    H140093   6.320   0.738   0.937 -0.6723 -2.6212 -1.5113
 6178TIP3    H240094   6.376   0.666   1.057 -1.3667 -3.1811 -1.5228
 6179TIP3   OH240095   6.999   6.946   0.479  0.4233 -0.0991 -0.7707
 6179TIP3    H140096   7.013   6.862   0.437 -0.0826 -1.0155  0.8688
 6179TIP3    H240097   7.067   7.003   0.443  1.8726 -1.6840 -0.5570
 6180TIP3   OH240098   7.065   3.460   0.912 -0.4096  0.5115 -0.4763
 6180TIP3    H140099   7.137   3.507   0.953  0.2542  0.3089 -1.4024
 6180TIP3    H240100   7.001   3.448   0.983  0.8850 -0.1951  0.5882
 6181TIP3   OH240101   6.532   1.247   6.787  0.8008 -0.4737  0.0681
 6181TIP3    H140102   6.627   1.244   6.798  0.8704 -3.1108 -0.9827
 6181TIP3    H240103   6.498   1.242   6.877  1.6143 -0.3830  0.3886
 6182TIP3   OH240104   1.537   2.501   0.261  0.5956 -0.3281  0.3043
 6182TIP3    H140105   1.515   2.509   0.168  0.0525 -1.8869  0.2717
 6182TIP3    H240106   1.631   2.481   0.262  0.5066 -0.7584  0.0637
 6183TIP3   OH240107   2.441   0.319   7.614  0.3561  0.2002  0.6624
 6183TIP3    H140108   2.504   0.367   7.560 -0.0595  0.7831  0.6866
 6183TIP3    H240109   2.358   0.363   7.599 -0.5299 -2.0362 -1.1887
 6184TIP3   OH240110   0.359   0.548   7.817 -0.3999  0.6427 -0.0958
 6184TIP3    H140111   0.268   0.518   7.811 -1.2917  3.3196 -0.4761
 6184TIP3    H240112   0.355   0.628   7.869  1.8538  0.4490  0.4370
 6185TIP3   OH240113   0.567   4.050   7.437  0.3100  0.7750  0.3449
 6185TIP3    H140114   0.538   4.056   7.347 -0.2879  2.0206  0.6076
 6185TIP3    H240115   0.493   4.080   7.489  1.0076  1.0742  1.1920
 6186TIP3   OH240116   2.449   5.582   7.018 -0.5907  0.3290 -0.1114
 6186TIP3    H140117   2.412   5.556   7.102 -2.1946 -2.0405 -1.4896
 6186TIP3    H240118   2.380   5.635   6.977 -1.1101 -1.1986 -1.2490
 6187TIP3   OH240119   1.982   5.219   1.513  0.3669 -0.2113 -0.4327
 6187TIP3    H140120   1.998   5.218   1.419  3.0918  2.3308 -0.0315
 6187TIP3    H240121   1.896   5.261   1.523 -0.0762 -0.7856 -1.7627
 6188TIP3   OH240122   3.570   1.250   0.706  0.4941 -0.2812 -0.1202
 6188TIP3    H140123   3.582   1.326   0.764  0.2515 -0.4356  0.1289
 6188TIP3    H240124   3.633   1.185   0.738  2.0842  0.5151 -1.5283
 6189TIP3   OH240125   0.143   5.416   7.281 -0.4016 -0.5359  0.0644
 6189TIP3    H140126   0.223   5.464   7.259 -0.6108  0.2318  0.9266
 6189TIP3    H240127   0.096   5.410   7.198  0.1377 -0.2162 -0.2740
 6190TIP3   OH240128   0.620   6.857   0.472 -0.5086  0.3622  0.2715
 6190TIP3    H140129   0.632   6.775   0.521 -1.2850 -0.4384 -0.8586
 6190TIP3    H240130   0.601   6.922   0.540 -1.5461 -0.7359  1.0713
 6191TIP3   OH240131   0.323   5.952   1.241  0.1308  0.5131  0.0055
 6191TIP3    H140132   0.320   5.863   1.208 -0.4979  0.5411 -0.0108
 6191TIP3    H240133   0.276   6.004   1.176  0.2355  0.8121  0.1657
 6192TIP3   OH240134   0.664   0.543   1.468 -0.1243 -0.2002  0.8982
 6192TIP3    H140135   0.684   0.461   1.514 -2.6088 -1.0899  0.4473
 6192TIP3    H240136   0.569   0.543   1.459 -0.0760  2.3031  0.0520
 6193TIP3   OH240137   1.207   6.675   0.724 -0.1331  0.1998 -0.2880
 6193TIP3    H140138   1.178   6.585   0.715  0.2250  0.0883 -0.3297
 6193TIP3    H240139   1.168   6.704   0.807  0.3775 -0.2335  0.1068
 6194TIP3   OH240140   7.115   2.229   1.924  0.4325 -0.0723  0.5002
 6194TIP3    H140141   7.137   2.301   1.982 -0.1482 -0.1720  0.8391
 6194TIP3    H240142   7.025   2.206   1.946 -0.0142  0.3082 -0.8647
 6195TIP3   OH240143   1.232   6.199   0.525  0.4061  0.3592 -0.5647
 6195TIP3    H140144   1.303   6.207   0.588  0.5914 -1.0866 -0.5580
 6195TIP3    H240145   1.211   6.105   0.525 -2.8399  1.0333  0.8844
 6196TIP3   OH240146   6.319   6.217   1.259 -0.3708 -0.3466  0.1142
 6196TIP3    H140147   6.257   6.178   1.321 -0.4765 -0.5982 -0.1505
 6196TIP3    H240148   6.387   6.151   1.250  0.0697  0.0319  0.6009
 6197TIP3   OH240149   0.371   1.580   1.598 -0.4882 -0.3271 -0.0724
 6197TIP3    H140150   0.359   1.657   1.653  1.3803 -1.0270  1.3356
 6197TIP3    H240151   0.364   1.506   1.658 -2.7744 -1.3386 -1.4825
 6198TIP3   OH240152   0.192   0.715   1.471 -0.1779  0.0813  0.1958
 6198TIP3    H140153   0.111   0.666   1.476  0.1066 -0.7143 -2.1967
 6198TIP3    H240154   0.261   0.649   1.482  0.1653  0.3283 -0.4249
 6199TIP3   OH240155   6.506   2.712   7.930  0.2688 -0.0338  0.3356
 6199TIP3    H140156   6.554   2.767   7.992  0.0628 -0.5876  0.9843
 6199TIP3    H240157   6.534   2.623   7.950  2.1457 -0.0406 -2.0381
 6200TIP3   OH240158   0.350   3.020   7.487  0.3055 -0.6092  0.4007
 6200TIP3    H140159   0.425   3.071   7.457  0.3110 -0.6565  0.3350
 6200TIP3    H240160   0.315   3.071   7.560 -0.8861  0.4983 -0.9197
 6201TIP3   OH240161   6.183   4.800   6.653  0.8119  0.1694 -0.2530
 6201TIP3    H140162   6.180   4.705   6.642  2.2712  0.3247 -2.1722
 6201TIP3    H240163   6.209   4.812   6.745  1.5350 -1.2902 -0.2482
 6202TIP3   OH240164   3.052   6.288   1.763  0.0702  0.6566  0.5016
 6202TIP3    H140165   2.969   6.305   1.807 -0.5640  1.8202 -1.0710
 6202TIP3    H240166   3.110   6.358   1.792 -0.2599  1.2574 -0.2703
 6203TIP3   OH240167   3.933   4.767   5.779 -0.0297 -0.1721 -0.3347
 6203TIP3    H140168   3.898   4.754   5.867  0.6230 -0.8180 -0.1663
 6203TIP3    H240169   4.028   4.774   5.792  0.0180  0.3523 -0.9176
 6204TIP3   OH240170   3.196   1.088   0.348  0.4693  0.3291 -0.1233
 6204TIP3    H140171   3.179   1.110   0.439  0.3954  1.7028 -0.4554
 6204TIP3    H240172   3.245   1.163   0.314 -0.8052  0.5089 -1.6122
 6205TIP3   OH240173   3.386   5.402   1.388 -0.5446 -0.0946 -0.0671
 6205TIP3    H140174   3.367   5.319   1.345 -1.5147  0.1820 -0.1941
 6205TIP3    H240175   3.361   5.469   1.324 -2.7984  0.3413  1.1699
 6206TIP3   OH240176   2.317   4.480   7.796 -0.4422 -0.0504  0.3108
 6206TIP3    H140177   2.251   4.425   7.840 -1.4491 -2.1826 -3.6228
 6206TIP3    H240178   2.270   4.560   7.772 -1.6295 -1.4279 -2.1868
 6207TIP3   OH240179   6.971   2.434   6.217 -0.2132  0.4907 -0.2218
 6207TIP3    H140180   7.042   2.486   6.181 -0.8808  1.2204 -0.4965
 6207TIP3    H240181   6.891   2.478   6.187 -0.7987 -1.1813 -1.2019
 6208TIP3   OH240182   0.776   6.824   0.064  0.7157  0.7454 -0.0074
 6208TIP3    H140183   0.808   6.901   0.110 -0.2993  1.0446  0.1916
 6208TIP3    H240184   0.839   6.811  -0.007  3.1650 -0.5697  2.2697
 6209TIP3   OH240185   7.013   1.026   8.022 -0.4305  1.0265 -0.0629
 6209TIP3    H140186   7.107   1.016   8.037 -0.1087  1.0711 -1.9256
 6209TIP3    H240187   6.974   1.019   8.109  1.1497 -0.5775  0.5419
 6210TIP3   OH240188   0.525   1.057   0.728  0.4346  0.0197 -0.0290
 6210TIP3    H140189   0.613   1.085   0.753 -0.1712  2.0483 -0.1258
 6210TIP3    H240190   0.534   1.030   0.637  1.0541 -0.3328  0.1244
 6211TIP3   OH240191   5.944   4.583   7.507  0.5638 -0.6783  0.0960
 6211TIP3    H140192   5.987   4.656   7.462 -2.0523  0.1937 -1.0657
 6211TIP3    H240193   5.852   4.607   7.510 -0.0456 -2.9969  1.5897
 6212TIP3   OH240194   3.093   0.893   0.210  0.5632 -0.1708  0.6447
 6212TIP3    H140195   3.069   0.861   0.297  1.0490 -1.9846  0.1514
 6212TIP3    H240196   3.119   0.984   0.224 -0.0504 -0.2220  2.2694
 6213TIP3   OH240197   6.457   2.730   6.361  0.0123  0.2783  0.2154
 6213TIP3    H140198   6.529   2.779   6.322 -0.3062  1.6581  1.3247
 6213TIP3    H240199   6.441   2.658   6.300  0.5771  1.4741 -1.3749
 6214TIP3   OH240200   6.978   1.686   0.176  0.4696 -0.9161  0.1075
 6214TIP3    H140201   6.888   1.653   0.175  0.5222 -1.1274 -3.4146
 6214TIP3    H240202   6.970   1.780   0.158  0.8377 -0.4933  2.0511
 6215TIP3   OH240203   0.879   6.108   7.469 -0.0309  0.4133 -0.0279
 6215TIP3    H140204   0.970   6.101   7.440 -0.2069 -0.5148 -0.3719
 6215TIP3    H240205   0.879   6.183   7.529  0.9758  0.3737  0.0360
 6216TIP3   OH240206   6.511   6.035   1.326 -0.0196  0.2355 -0.1585
 6216TIP3    H140207   6.602   6.029   1.295 -0.2129 -1.2679 -0.4596
 6216TIP3    H240208   6.518   6.045   1.421  0.4994  1.6807 -0.3435
 6217TIP3   OH240209   2.694   1.735   0.994 -0.6047 -0.0905 -0.4097
 6217TIP3    H140210   2.769   1.714   1.049 -0.1873  0.3693 -0.8019
 6217TIP3    H240211   2.626   1.762   1.056  0.2930  1.7552 -0.1806
 6218TIP3   OH240212   1.263   5.583   2.429  0.1862 -0.1888  0.0053
 6218TIP3    H140213   1.215   5.656   2.389  0.5918 -1.1599 -2.3420
 6218TIP3    H240214   1.350   5.617   2.446 -0.3923  0.6446  1.3750
 6219TIP3   OH240215   2.729   1.560   6.792  0.0686 -0.1416 -0.6149
 6219TIP3    H140216   2.799   1.496   6.805  0.4154 -0.0789 -2.0196
 6219TIP3    H240217   2.654   1.507   6.766  0.0502 -0.0823 -0.6845
 6220TIP3   OH240218   0.831   0.742   0.569 -0.2314 -0.7262 -0.4062
 6220TIP3    H140219   0.918   0.719   0.604 -0.6367 -1.7989 -0.0866
 6220TIP3    H240220   0.800   0.813   0.626  0.7168  0.1360 -0.9386
 6221TIP3   OH240221   7.078   1.080   0.963 -0.0061 -0.1992 -0.0550
 6221TIP3    H140222   7.066   1.118   0.876  0.6173 -0.8469 -0.4357
 6221TIP3    H240223   7.002   1.108   1.013  0.0045  0.7999 -0.5915
 6222TIP3   OH240224   1.209   3.021   1.673  0.2246 -0.4280 -0.5200
 6222TIP3    H140225   1.256   3.097   1.707 -1.1526 -0.3730  1.3848
 6222TIP3    H240226   1.237   2.948   1.730 -0.7328 -0.7155 -0.4040
 6223TIP3   OH240227   6.813   1.514   1.387  0.5841  0.1705 -0.2805
 6223TIP3    H140228   6.865   1.568   1.447  2.3306 -1.6786 -0.1070
 6223TIP3    H240229   6.873   1.492   1.316 -0.7639  0.2583 -1.4713
 6224TIP3   OH240230   6.795   0.845   1.485  0.2932  0.4662  0.0652
 6224TIP3    H140231   6.796   0.906   1.559 -0.6212  1.4863 -0.7485
 6224TIP3    H240232   6.710   0.860   1.443 -0.1224 -1.6474  0.0790
 6225TIP3   OH240233   2.190   4.708   7.726 -0.0497  0.1046 -0.2264
 6225TIP3    H140234   2.095   4.705   7.714  0.0233  1.6880 -1.4582
 6225TIP3    H240235   2.223   4.748   7.645  1.5799  0.4438  0.5768
 6226TIP3   OH240236   3.990   6.977   0.128 -0.5632 -0.2207 -0.3165
 6226TIP3    H140237   4.002   6.918   0.202  0.7830 -0.1732 -0.4812
 6226TIP3    H240238   3.952   6.923   0.059  2.2139 -1.3769 -1.0444
 6227TIP3   OH240239   3.222   0.529   0.781  0.3963  0.0677  0.0341
 6227TIP3    H140240   3.127   0.539   0.775  0.1142 -2.3763  0.0513
 6227TIP3    H240241   3.253   0.540   0.691 -0.0052 -0.0427 -0.1184
 6228TIP3   OH240242   0.695   1.296   0.543  0.1038 -0.5786  0.0661
 6228TIP3    H140243   0.765   1.361   0.534 -0.5667  0.5254  2.4386
 6228TIP3    H240244   0.649   1.321   0.623 -1.1901 -3.0378  0.1407
 6229TIP3   OH240245   0.739   4.351   6.720  0.2095 -0.6937  0.3340
 6229TIP3    H140246   0.736   4.438   6.759 -2.2132 -0.1977 -0.8590
 6229TIP3    H240247   0.674   4.300   6.769  0.3629 -1.3271 -0.1096
 6230TIP3   OH240248   4.102   6.853   7.055  1.0067 -0.0188  0.0367
 6230TIP3    H140249   4.081   6.916   7.124 -0.0914 -1.6368  1.2219
 6230TIP3    H240250   4.016   6.826   7.020  1.3156 -2.4623  1.0437
 6231TIP3   OH240251   5.080   2.285   7.569 -0.2315  0.0447  0.3829
 6231TIP3    H140252   4.993   2.319   7.549 -0.9281 -2.1427 -0.5157
 6231TIP3    H240253   5.112   2.250   7.486  1.7127  1.2352  0.6035
 6232TIP3   OH240254   1.356   5.564   0.962  0.0970 -0.6348 -0.4350
 6232TIP3    H140255   1.325   5.478   0.991 -0.6612 -0.7082 -1.4497
 6232TIP3    H240256   1.348   5.620   1.039  0.2396 -1.3741  0.1279
 6233TIP3   OH240257   3.213   1.416   7.904 -0.3352  0.7182  0.7992
 6233TIP3    H140258   3.176   1.496   7.943 -0.6377  0.6862  0.5854
 6233TIP3    H240259   3.178   1.345   7.957 -2.6953  0.5018 -0.9618
 6234TIP3   OH240260   1.754   0.892   1.914 -0.3376 -0.0917 -0.1175
 6234TIP3    H140261   1.772   0.929   2.001 -0.4085  0.4393 -0.3258
 6234TIP3    H240262   1.698   0.816   1.931  1.6684 -1.4781  0.5180
 6235TIP3   OH240263   2.129   0.984   6.846 -0.1914 -0.4693  0.0223
 6235TIP3    H140264   2.156   1.005   6.757 -1.3915  0.2877 -0.1859
 6235TIP3    H240265   2.206   0.944   6.886  0.1964 -1.3330 -1.5188
 6236TIP3   OH240266   4.464   3.671   0.540  0.2255  0.3328  0.3171
 6236TIP3    H140267   4.532   3.734   0.517  0.2607  0.3189  0.3831
 6236TIP3    H240268   4.488   3.591   0.493  0.4832  0.2006  0.6748
 6237TIP3   OH240269   5.999   4.995   0.481 -0.2562 -0.1147  0.1978
 6237TIP3    H140270   5.953   5.074   0.451  1.6501  1.0897  0.3970
 6237TIP3    H240271   5.959   4.975   0.566 -2.4305 -0.8180 -0.9354
 6238TIP3   OH240272   6.089   1.361   1.336 -0.2169  0.8186 -0.6949
 6238TIP3    H140273   6.042   1.322   1.262 -1.4060  0.5558  0.1857
 6238TIP3    H240274   6.027   1.423   1.374 -0.0838  0.0338  0.8468
 6239TIP3   OH240275   3.887   4.850   7.744 -0.1641  0.1801 -0.1305
 6239TIP3    H140276   3.894   4.863   7.649 -1.5583  0.2679 -0.2433
 6239TIP3    H240277   3.969   4.810   7.770  0.3599  0.4643 -1.3335
 6240TIP3   OH240278   0.255   1.134   0.510 -0.0378  0.4611 -0.0464
 6240TIP3    H140279   0.313   1.202   0.475 -0.0552 -0.3566 -1.7150
 6240TIP3    H240280   0.301   1.052   0.491 -0.7476 -0.0773  0.5502
 6241TIP3   OH240281   0.760   5.125   1.577 -0.6397 -0.0805 -0.4075
 6241TIP3    H140282   0.823   5.136   1.506 -0.6917 -0.9444 -0.5836
 6241TIP3    H240283   0.674   5.136   1.535 -0.6352  0.4560 -0.2833
 6242TIP3   OH240284   4.245   4.367   0.396 -0.0374  0.1838 -0.3795
 6242TIP3    H140285   4.246   4.394   0.304 -0.9329 -0.9276 -0.7193
 6242TIP3    H240286   4.261   4.273   0.394 -0.8187  0.0264  0.5522
 6243TIP3   OH240287   3.881   0.020   7.781 -0.0922 -0.3083 -0.5475
 6243TIP3    H140288   3.862   0.089   7.845  1.2692  0.3032 -0.7796
 6243TIP3    H240289   3.800   0.011   7.731 -1.0374 -0.5205  1.0087
 6244TIP3   OH240290   6.807   1.185   6.744  0.4471  0.0615 -0.0197
 6244TIP3    H140291   6.766   1.145   6.667 -1.3166 -0.6510  1.2638
 6244TIP3    H240292   6.872   1.121   6.772 -2.1964 -1.9013  1.8750
 6245TIP3   OH240293   1.638   6.713   7.323 -0.0432  0.1345  0.1954
 6245TIP3    H140294   1.595   6.660   7.390  0.4803  1.1984  1.3736
 6245TIP3    H240295   1.720   6.668   7.306 -0.8260 -0.9494 -0.8135
 6246TIP3   OH240296   2.454   6.211   7.975  0.3297  0.1721  0.0707
 6246TIP3    H140297   2.374   6.249   7.938 -0.8368 -1.6402  0.6167
 6246TIP3    H240298   2.476   6.139   7.916  0.6278 -0.3431  0.7941
 6247TIP3   OH240299   2.342   5.940   8.120 -0.0083  0.2773  0.3567
 6247TIP3    H140300   2.272   5.994   8.083  1.3495  0.3327 -2.1941
 6247TIP3    H240301   2.338   5.858   8.071  0.5855 -0.4183  1.4323
 6248TIP3   OH240302   0.763   0.346   1.875  0.1122  0.5497 -0.2115
 6248TIP3    H140303   0.699   0.338   1.804 -0.6291  0.9499  0.4108
 6248TIP3    H240304   0.710   0.356   1.954  0.9257 -0.5922  0.4854
 6249TIP3   OH240305   1.661   2.118   6.664  0.3010  0.1606  0.1246
 6249TIP3    H140306   1.635   2.205   6.695  0.6607  0.0758  0.6862
 6249TIP3    H240307   1.728   2.090   6.727  0.7231 -0.2068 -0.4874
 6250TIP3   OH240308   4.083   4.619   1.416 -0.0619 -0.5551 -0.0342
 6250TIP3    H140309   4.140   4.696   1.425  0.9044 -1.2542 -0.1132
 6250TIP3    H240310   4.086   4.577   1.502 -1.3004 -0.0304  0.2791
 6251TIP3   OH240311   2.602   1.616   2.033 -0.0746 -0.2444 -0.5868
 6251TIP3    H140312   2.508   1.633   2.037  0.0589  0.3626  0.0406
 6251TIP3    H240313   2.615   1.537   2.085 -0.2494 -0.3653 -0.7282
 6252TIP3   OH240314   1.755   0.288   1.441 -1.1859 -0.0508 -0.3494
 6252TIP3    H140315   1.843   0.259   1.465 -1.5914 -0.6020  0.5049
 6252TIP3    H240316   1.732   0.235   1.365  0.2402  1.9375 -2.2422
 6253TIP3   OH240317   5.991   1.218   7.017  0.4325  0.1884  0.3260
 6253TIP3    H140318   6.005   1.264   6.934 -1.2186  0.9568  0.4598
 6253TIP3    H240319   5.959   1.286   7.077  0.4877 -0.6018  1.2597
 6254TIP3   OH240320   2.933   0.266   1.020 -0.2167  0.6549 -0.0942
 6254TIP3    H140321   2.947   0.231   0.932 -0.4571  0.3175  0.0012
 6254TIP3    H240322   3.010   0.321   1.036  0.0356  0.3809 -0.3513
 6255TIP3   OH240323   0.527   3.642   6.511 -0.2578 -0.1422  0.9737
 6255TIP3    H140324   0.509   3.623   6.419 -1.8208 -1.1417  1.4687
 6255TIP3    H240325   0.584   3.571   6.539 -0.5846 -0.3769  1.0413
 6256TIP3   OH240326   2.089   0.600   6.870  0.2255  0.3425 -0.4067
 6256TIP3    H140327   2.054   0.674   6.919  1.7124  1.0684 -0.4403
 6256TIP3    H240328   2.089   0.528   6.934 -2.1415  0.0694 -0.6484
 6257TIP3   OH240329   0.842   3.731   7.745 -0.2078  0.4242 -0.1111
 6257TIP3    H140330   0.802   3.803   7.794 -1.9136 -1.1585  0.8881
 6257TIP3    H240331   0.931   3.726   7.778 -0.4315  1.3384  0.6509
 6258TIP3   OH240332   6.280   2.202   7.419 -0.2830  0.3962 -0.2985
 6258TIP3    H140333   6.371   2.221   7.400 -0.1502 -1.3118 -1.5660
 6258TIP3    H240334   6.231   2.248   7.352 -0.2709  0.3399 -0.3467
 6259TIP3   OH240335   2.538   5.463   0.614 -0.4747 -0.1792  0.0977
 6259TIP3    H140336   2.453   5.427   0.592 -0.5913 -0.3863  0.8794
 6259TIP3    H240337   2.597   5.387   0.617 -0.1871 -0.0022 -0.7578
 6260TIP3   OH240338   4.636   5.221   6.621 -0.5950 -0.0874  0.1322
 6260TIP3    H140339   4.574   5.150   6.637  0.4897 -0.7406  1.5701
 6260TIP3    H240340   4.661   5.252   6.708  1.6938 -0.4026 -0.3600
 6261TIP3   OH240341   1.021   0.247   1.276 -0.1316  0.0256 -0.2960
 6261TIP3    H140342   1.058   0.245   1.364  0.9639  1.2630 -0.7062
 6261TIP3    H240343   1.047   0.163   1.237  0.3023 -0.0757  0.2001
 6262TIP3   OH240344   3.134   6.466   6.721 -0.1097 -0.0567 -0.0674
 6262TIP3    H140345   3.038   6.470   6.728 -0.1151 -1.6314  1.2991
 6262TIP3    H240346   3.159   6.547   6.677 -2.1136  0.1469 -0.8816
 6263TIP3   OH240347   2.857   7.020   7.696  0.6788 -0.4957 -0.4248
 6263TIP3    H140348   2.806   7.098   7.671  0.2178 -0.9204 -0.8066
 6263TIP3    H240349   2.946   7.041   7.667  0.7657  0.3252  0.4095
 6264TIP3   OH240350   5.281   5.827   0.701 -0.0528  0.5343 -0.0900
 6264TIP3    H140351   5.362   5.789   0.668  0.2483  0.7942  0.3427
 6264TIP3    H240352   5.225   5.752   0.720  0.6076  0.2942  0.9374
 6265TIP3   OH240353   6.926   0.441   6.666 -0.2259 -0.7832 -0.2710
 6265TIP3    H140354   6.967   0.499   6.602  1.4156 -1.6942 -0.0625
 6265TIP3    H240355   6.937   0.353   6.630 -0.6637 -1.1737  0.5266
 6266TIP3   OH240356   0.424   0.679   7.554  0.5422 -0.3741  0.1674
 6266TIP3    H140357   0.404   0.631   7.634 -0.1006 -0.9780 -0.3620
 6266TIP3    H240358   0.516   0.658   7.536  1.0066  0.5764  1.3023
 6267TIP3   OH240359   1.822   6.169   1.225  0.1383  0.2681 -0.1699
 6267TIP3    H140360   1.875   6.090   1.217 -0.1710 -0.1383  1.5542
 6267TIP3    H240361   1.829   6.193   1.317 -1.6072  0.9542 -0.1963
 6268TIP3   OH240362   1.463   5.287   1.605 -0.4605 -0.4209 -0.4648
 6268TIP3    H140363   1.415   5.359   1.647 -2.5705 -1.5969 -0.8185
 6268TIP3    H240364   1.555   5.307   1.623 -1.1981  0.1007  3.1202
 6269TIP3   OH240365   6.278   3.343   8.064 -0.3471 -0.3721  0.1321
 6269TIP3    H140366   6.369   3.354   8.094 -0.3548 -1.2521  0.4754
 6269TIP3    H240367   6.253   3.430   8.032  0.6530 -0.1516 -0.0675
 6270TIP3   OH240368   5.478   2.142   6.623 -0.2922  0.8979  0.2614
 6270TIP3    H140369   5.385   2.164   6.632 -0.6884 -0.9756  0.8675
 6270TIP3    H240370   5.522   2.194   6.691 -0.9363  1.4361  0.2729
 6271TIP3   OH240371   0.426   5.498   0.076 -0.1410 -0.1090 -0.5799
 6271TIP3    H140372   0.424   5.453   0.161 -1.1090 -0.9067 -1.0098
 6271TIP3    H240373   0.366   5.448   0.021  0.8180  0.1243 -1.8784
 6272TIP3   OH240374   3.383   5.469   7.921 -0.4204 -0.3518 -0.0580
 6272TIP3    H140375   3.380   5.455   7.826 -0.1056  0.5631 -0.2119
 6272TIP3    H240376   3.448   5.539   7.932 -0.7515 -0.1794  0.8005
 6273TIP3   OH240377   5.687   4.747   6.242  0.1959  0.3690 -0.6160
 6273TIP3    H140378   5.714   4.660   6.272 -0.4121 -0.0521 -1.2735
 6273TIP3    H240379   5.732   4.758   6.158 -1.2834 -0.1466 -1.4978
 6274TIP3   OH240380   3.715   0.914   1.101  0.0359  0.3318 -0.2773
 6274TIP3    H140381   3.760   0.856   1.039  2.2098  0.2670  1.2724
 6274TIP3    H240382   3.686   0.988   1.048 -1.6270 -1.5393 -2.0545
 6275TIP3   OH240383   6.688   0.952   1.100 -0.1619 -0.2856  0.0169
 6275TIP3    H140384   6.661   0.860   1.098 -1.1402 -0.0239  1.0055
 6275TIP3    H240385   6.761   0.954   1.163 -0.3366 -0.3271  0.2190
 6276TIP3   OH240386   6.914   0.197   0.532  0.4150 -0.0521 -0.1908
 6276TIP3    H140387   6.872   0.283   0.531  0.8198  0.1749  1.2356
 6276TIP3    H240388   6.896   0.161   0.445 -1.1478  0.7953 -0.2406
 6277TIP3   OH240389   4.312   0.149   1.358  0.6237  0.0463 -0.1155
 6277TIP3    H140390   4.221   0.175   1.375  1.0422  2.5640 -1.4995
 6277TIP3    H240391   4.360   0.177   1.436  0.9470  3.0317 -1.2998
 6278TIP3   OH240392   0.146   6.593   1.981  0.0501 -0.0855  0.1857
 6278TIP3    H140393   0.222   6.644   2.008 -0.0959  0.0782  0.2916
 6278TIP3    H240394   0.071   6.650   2.001 -0.0501  0.1123 -0.7278
 6279TIP3   OH240395   2.290   5.066   0.851  0.6027 -0.2517  0.3140
 6279TIP3    H140396   2.206   5.107   0.830  0.9289 -0.0102 -0.5657
 6279TIP3    H240397   2.324   5.036   0.766  1.9430  0.7103  0.4923
 6280TIP3   OH240398   4.386   0.174   7.299 -0.0599  0.2257  0.2901
 6280TIP3    H140399   4.476   0.150   7.276  0.4084 -0.5903  2.8369
 6280TIP3    H240400   4.332   0.125   7.236  1.1982 -1.2523  0.3192
 6281TIP3   OH240401   3.411   4.001   0.514 -0.0118  0.3751 -0.2335
 6281TIP3    H140402   3.443   4.090   0.528  0.0587  0.4821 -1.0112
 6281TIP3    H240403   3.407   3.993   0.418 -0.8986 -0.1366 -0.1602
 6282TIP3   OH240404   0.634   5.643   0.284 -0.3465  0.1826  0.4056
 6282TIP3    H140405   0.593   5.720   0.245 -0.6242  0.6570  1.6174
 6282TIP3    H240406   0.575   5.571   0.262 -0.4210  0.4141 -0.1764
 6283TIP3   OH240407   1.053   0.551   1.039  0.2944  0.5653 -0.2334
 6283TIP3    H140408   0.989   0.543   1.109  0.9386 -2.3145  0.1054
 6283TIP3    H240409   1.136   0.568   1.085  0.5539 -0.4080 -0.3196
 6284TIP3   OH240410   3.529   2.380   6.699 -0.1579 -0.3355 -0.4205
 6284TIP3    H140411   3.515   2.388   6.604 -1.1539 -1.1077 -0.3426
 6284TIP3    H240412   3.612   2.425   6.714 -0.3839  0.4921 -1.5428
 6285TIP3   OH240413   4.058   6.444   0.997  0.2167 -0.4650 -0.0377
 6285TIP3    H140414   4.133   6.503   0.990  1.3777 -1.7394  1.3971
 6285TIP3    H240415   4.095   6.357   0.986 -0.9873 -1.1363  1.1579
 6286TIP3   OH240416   5.166   7.115   1.454  0.1261 -0.5193 -0.2507
 6286TIP3    H140417   5.243   7.111   1.399  0.0070  1.0206 -0.5488
 6286TIP3    H240418   5.110   7.182   1.414 -2.0012 -2.5737 -0.8467
 6287TIP3   OH240419   6.086   0.050   1.321 -0.1693  0.2633 -0.4876
 6287TIP3    H140420   6.042  -0.035   1.329 -0.4116  0.2453 -1.8099
 6287TIP3    H240421   6.021   0.113   1.353 -0.0572 -0.0346  0.3255
 6288TIP3   OH240422   5.923   6.706   6.729  0.6461 -0.5164 -0.5958
 6288TIP3    H140423   6.010   6.714   6.767  1.3877 -2.1286 -1.9213
 6288TIP3    H240424   5.936   6.716   6.635 -0.5940 -0.7821 -0.8086
 6289TIP3   OH240425   2.790   5.989   1.395 -0.8691 -0.2301 -0.8966
 6289TIP3    H140426   2.883   6.012   1.398 -0.6361 -0.8249 -2.8376
 6289TIP3    H240427   2.744   6.072   1.408 -0.0798  0.0330  0.2883
 6290TIP3   OH240428   2.197   4.364   0.042 -1.1246  1.1286 -0.4092
 6290TIP3    H140429   2.156   4.311  -0.026  0.9718  0.2249 -1.0192
 6290TIP3    H240430   2.157   4.335   0.124  0.6521 -2.1394 -0.6281
 6291TIP3   OH240431   0.596   6.457   0.326  0.0753 -0.3627  0.4060
 6291TIP3    H140432   0.621   6.368   0.300 -1.5805  0.0015 -2.6681
 6291TIP3    H240433   0.635   6.513   0.259 -1.0625  0.9984  0.8637
 6292TIP3   OH240434   1.999   5.907   2.203  0.0717 -0.6863 -0.0293
 6292TIP3    H140435   2.078   5.960   2.203 -0.3137 -0.0941 -0.4634
 6292TIP3    H240436   2.030   5.817   2.204  0.7350 -0.4542  0.6108
 6293TIP3   OH240437   2.055   4.502   1.692 -0.4919  0.2795 -0.9204
 6293TIP3    H140438   1.989   4.462   1.635 -0.4755 -0.6925 -0.2690
 6293TIP3    H240439   2.031   4.473   1.780  0.9555 -0.3263 -0.7078
 6294TIP3   OH240440   1.794   6.678   0.616  0.1840 -0.3661 -0.1543
 6294TIP3    H140441   1.875   6.709   0.575  1.5148 -2.3622  0.8521
 6294TIP3    H240442   1.743   6.757   0.632  2.5422  1.0934  0.4592
 6295TIP3   OH240443   3.201   7.114   8.004 -0.3716 -0.5293 -0.4012
 6295TIP3    H140444   3.202   7.071   8.090 -0.3214 -1.4986 -0.8859
 6295TIP3    H240445   3.266   7.184   8.012  1.0510 -1.8268 -0.2675
 6296TIP3   OH240446   6.888   5.242   6.522 -0.1808  0.5575  0.0394
 6296TIP3    H140447   6.852   5.318   6.569 -0.2670  1.3311 -1.2502
 6296TIP3    H240448   6.968   5.220   6.570 -0.4775  1.0765  0.7864
 6297TIP3   OH240449   1.689   1.712   7.844  0.2649 -0.2378  0.1285
 6297TIP3    H140450   1.661   1.802   7.832  0.8524  0.1157  1.3413
 6297TIP3    H240451   1.719   1.708   7.934 -1.4459 -2.1220  0.6380
 6298TIP3   OH240452   0.286   4.762   0.713 -0.1765 -0.2165 -0.0136
 6298TIP3    H140453   0.306   4.688   0.771 -3.0444 -1.0580 -0.0439
 6298TIP3    H240454   0.340   4.746   0.635  2.0137 -0.2766  1.4593
 6299TIP3   OH240455   3.074   0.229   0.580 -0.0672 -0.1412 -0.2534
 6299TIP3    H140456   2.980   0.240   0.591 -0.0583 -1.2051  1.0107
 6299TIP3    H240457   3.106   0.202   0.666  1.3630  0.0024 -0.7212
 6300TIP3   OH240458   0.827   1.037   1.779  0.0351  0.0580 -0.2827
 6300TIP3    H140459   0.771   1.098   1.730 -1.4133 -1.7059 -0.8466
 6300TIP3    H240460   0.772   1.007   1.851  0.0196 -2.1399 -1.1843
 6301TIP3   OH240461   2.218   6.089   7.540 -0.3060  0.1351  0.2127
 6301TIP3    H140462   2.257   6.171   7.511  1.1213  0.0366  1.8478
 6301TIP3    H240463   2.270   6.021   7.497  0.0526  0.0338  0.8158
 6302TIP3   OH240464   2.120   7.002   1.634 -0.2829  0.0282 -0.3327
 6302TIP3    H140465   2.057   6.946   1.589 -0.1503 -0.8502  0.5429
 6302TIP3    H240466   2.183   6.941   1.672  1.5958  0.9358 -1.9284
 6303TIP3   OH240467   0.023   3.136   0.602 -0.2150 -0.1731 -0.4319
 6303TIP3    H140468  -0.067   3.110   0.582 -0.1878 -0.8595  0.3355
 6303TIP3    H240469   0.043   3.203   0.536 -1.2358 -0.1104 -0.6930
 6304TIP3   OH240470   0.432   4.311   0.024  0.1227  0.0471 -0.9982
 6304TIP3    H140471   0.381   4.282   0.099 -0.5291  0.3939 -1.3003
 6304TIP3    H240472   0.483   4.385   0.056  0.2361 -0.1298 -0.7665
 6305TIP3   OH240473   4.488   2.643   7.318 -0.1225 -0.3876 -0.3953
 6305TIP3    H140474   4.533   2.673   7.397 -0.6751 -1.2033  0.2378
 6305TIP3    H240475   4.530   2.691   7.247 -0.2355  1.0408  0.4888
 6306TIP3   OH240476   3.053   2.235   0.547  0.0731  1.0533 -0.1664
 6306TIP3    H140477   3.130   2.242   0.490 -0.9363  1.6669 -1.4806
 6306TIP3    H240478   3.062   2.150   0.590  0.4109  0.1953 -1.9053
 6307TIP3   OH240479   0.261   5.679   1.633 -0.4098  0.3825 -0.5924
 6307TIP3    H140480   0.320   5.622   1.583 -0.6850 -0.6488  0.2662
 6307TIP3    H240481   0.317   5.752   1.661  0.2863 -0.2272 -0.3877
 6308TIP3   OH240482   3.324   4.839   1.155 -0.0412  0.0581  0.3274
 6308TIP3    H140483   3.403   4.873   1.198  0.5511 -0.9600  0.0791
 6308TIP3    H240484   3.277   4.792   1.224  0.1067 -0.2314  0.2316
 6309TIP3   OH240485   2.918   6.064   7.851  0.0597  0.0839 -0.5597
 6309TIP3    H140486   2.851   6.004   7.882  0.8418 -0.0499  0.8941
 6309TIP3    H240487   2.872   6.146   7.834 -0.4455  0.0247  0.5240
 6310TIP3   OH240488   6.422   6.368   0.849 -0.2485 -0.0773 -0.1780
 6310TIP3    H140489   6.331   6.338   0.846 -1.0475  2.2940 -1.4145
 6310TIP3    H240490   6.422   6.440   0.912  0.8098 -0.2018 -0.0260
 6311TIP3   OH240491   0.659   4.735   0.996 -0.8498 -0.0589 -0.2833
 6311TIP3    H140492   0.738   4.746   0.943 -0.2489 -1.2734  0.3408
 6311TIP3    H240493   0.594   4.701   0.934 -0.3016 -0.9665 -0.3662
 6312TIP3   OH240494   2.094   7.084   1.906 -0.4066 -1.0060  0.1164
 6312TIP3    H140495   2.102   7.087   1.810 -0.9700 -0.6334  0.0805
 6312TIP3    H240496   2.184   7.079   1.937 -0.1743 -0.1907 -0.4059
 6313TIP3   OH240497   5.088   4.516   1.231 -0.0388 -0.1319  0.1302
 6313TIP3    H140498   5.173   4.559   1.244 -0.4531  0.4049  1.1476
 6313TIP3    H240499   5.068   4.478   1.317  0.3535 -2.4336 -0.7759
 6314TIP3   OH240500   1.382   4.531   2.102  0.6155 -0.2097  0.8037
 6314TIP3    H140501   1.335   4.555   2.182  1.1947  0.9599  0.7984
 6314TIP3    H240502   1.456   4.592   2.097  1.2630 -1.0331 -0.0026
 6315TIP3   OH240503   1.413   4.235   0.880 -0.2724 -0.1759 -0.3218
 6315TIP3    H140504   1.351   4.301   0.849  1.9545  1.4599 -1.4727
 6315TIP3    H240505   1.491   4.248   0.826  1.1297 -2.0952  1.1492
 6316TIP3   OH240506   3.092   2.479   1.345  0.9133  0.2741  0.6902
 6316TIP3    H140507   3.143   2.506   1.421 -0.5338 -0.0846  1.8157
 6316TIP3    H240508   3.013   2.440   1.382  0.0830  0.2972 -1.0101
 6317TIP3   OH240509   6.534   4.029   7.105  0.6451  0.4997  0.1159
 6317TIP3    H140510   6.445   4.061   7.117  0.1792 -1.6843  2.7848
 6317TIP3    H240511   6.587   4.108   7.102 -1.3365  1.8349 -1.5741
 6318TIP3   OH240512   3.259   4.355   2.319  0.5318 -0.1235 -0.3183
 6318TIP3    H140513   3.343   4.323   2.352  1.1631  1.0868 -0.7222
 6318TIP3    H240514   3.258   4.329   2.227  1.9424  2.6606 -1.1993
 6319TIP3   OH240515   1.187   5.907   1.528 -0.4914  0.4371 -0.2632
 6319TIP3    H140516   1.195   5.982   1.469 -4.6964 -0.3260 -2.0011
 6319TIP3    H240517   1.153   5.945   1.610  1.2169  0.9051  0.2558
 6320TIP3   OH240518   3.741   0.859   1.782  0.6479  0.1735  0.9780
 6320TIP3    H140519   3.726   0.808   1.703  0.1741  0.3090  0.9800
 6320TIP3    H240520   3.662   0.846   1.835 -0.5116  2.7422 -0.0108
 6321TIP3   OH240521   3.563   6.426   1.312 -0.1141 -0.7488 -0.2044
 6321TIP3    H140522   3.505   6.350   1.307  0.4859 -1.1403 -1.4322
 6321TIP3    H240523   3.612   6.424   1.230  0.9074  0.1634  0.3688
 6322TIP3   OH240524   3.905   1.932   0.304  0.5240 -0.4665  0.2543
 6322TIP3    H140525   3.969   1.889   0.362  0.4814 -0.7486  0.0907
 6322TIP3    H240526   3.958   1.992   0.251  0.4334  0.5467  1.2873
 6323TIP3   OH240527   3.805   6.856   1.611  0.4381 -0.0652 -0.4407
 6323TIP3    H140528   3.795   6.833   1.703 -3.2029 -1.6259 -1.1475
 6323TIP3    H240529   3.870   6.793   1.578 -0.2155 -1.2450  0.4691
 6324TIP3   OH240530   4.433   5.423   1.756  0.1323  0.3797 -0.4535
 6324TIP3    H140531   4.527   5.438   1.766  0.1238  0.8801 -1.0559
 6324TIP3    H240532   4.421   5.413   1.661  0.0424 -2.9489 -0.1376
 6325TIP3   OH240533   1.351   1.333   1.206  0.1207  0.5588  0.3477
 6325TIP3    H140534   1.350   1.255   1.262 -1.8432  0.3743  0.0961
 6325TIP3    H240535   1.291   1.312   1.135 -0.3042  2.2505  0.1911
 6326TIP3   OH240536   2.306   2.439   0.251  0.2522 -0.7274 -0.7690
 6326TIP3    H140537   2.342   2.352   0.233 -0.4992 -0.8394 -1.7803
 6326TIP3    H240538   2.270   2.433   0.339  2.0351 -0.8366 -0.0313
 6327TIP3   OH240539   6.041   3.066   7.548 -0.4585  0.3272  0.7284
 6327TIP3    H140540   5.991   3.074   7.466  0.0101  1.3282  0.5326
 6327TIP3    H240541   6.042   3.155   7.584  2.6530  0.6754 -0.1389
 6328TIP3   OH240542   0.820   1.527   0.785  0.5664 -0.9182  0.7831
 6328TIP3    H140543   0.790   1.517   0.876  1.3020 -0.1696  1.1127
 6328TIP3    H240544   0.842   1.620   0.777 -1.7954 -0.4461 -0.8884
 6329TIP3   OH240545   0.427   0.542   6.404  0.1533 -0.3496 -0.0948
 6329TIP3    H140546   0.508   0.589   6.422 -0.2801  1.0438 -1.6027
 6329TIP3    H240547   0.443   0.498   6.320 -1.1695  1.2006 -1.1837
 6330TIP3   OH240548   2.867   6.663   6.243 -0.1429 -0.2922 -0.0724
 6330TIP3    H140549   2.814   6.743   6.238  1.0468  0.4678 -0.7962
 6330TIP3    H240550   2.807   6.593   6.218 -0.7167  0.5988 -1.2189
 6331TIP3   OH240551   4.687   0.102   0.115  0.5830 -0.3701 -0.0208
 6331TIP3    H140552   4.730   0.063   0.191  0.4626  0.3055  0.3997
 6331TIP3    H240553   4.756   0.151   0.070  0.6702 -0.8284 -0.3835
 6332TIP3   OH240554   3.834   5.853   1.871  0.1335  0.0267  0.4707
 6332TIP3    H140555   3.818   5.774   1.819  0.1852 -0.2964  0.9404
 6332TIP3    H240556   3.835   5.822   1.962  1.1412  0.4107  0.5970
 6333TIP3   OH240557   2.440   0.853   0.230 -0.2712  0.6282 -0.0604
 6333TIP3    H140558   2.492   0.844   0.150 -1.2982  0.6916 -0.7499
 6333TIP3    H240559   2.472   0.784   0.288 -0.3522 -0.2028 -0.9963
 6334TIP3   OH240560   2.966   1.412   6.712 -0.7447  0.1580 -0.3032
 6334TIP3    H140561   2.953   1.431   6.619  1.0322 -0.6948 -0.7434
 6334TIP3    H240562   2.917   1.331   6.727 -0.2500 -0.2216 -0.7222
 6335TIP3   OH240563   4.585   0.230   2.065 -0.2866  0.7658 -0.2716
 6335TIP3    H140564   4.653   0.201   2.004 -1.2219  1.1815 -1.5197
 6335TIP3    H240565   4.624   0.306   2.109  1.0178 -0.5070  0.8586
 6336TIP3   OH240566   2.969   4.502   7.533  0.0889 -0.3292  0.2314
 6336TIP3    H140567   2.876   4.512   7.553  0.0700 -1.8003  0.9643
 6336TIP3    H240568   2.994   4.422   7.579  1.7739  0.1929  0.2372
 6337TIP3   OH240569   0.116   6.794   0.755  0.5718 -0.0755  0.1725
 6337TIP3    H140570   0.168   6.874   0.763  0.1314  0.5381 -2.4136
 6337TIP3    H240571   0.156   6.746   0.683 -1.1175 -0.6253 -0.4326
 6338TIP3   OH240572   4.087   3.373   1.269 -0.7723 -0.0312 -0.2995
 6338TIP3    H140573   4.142   3.431   1.216 -0.3743 -0.4878 -0.3946
 6338TIP3    H240574   4.004   3.368   1.222 -0.8788  0.6175 -0.1855
 6339TIP3   OH240575   1.770   2.420   0.625  0.4865 -0.2826  0.2554
 6339TIP3    H140576   1.731   2.507   0.620 -0.3727 -0.6481  0.5678
 6339TIP3    H240577   1.832   2.418   0.551  0.0307  0.3538 -0.1523
 6340TIP3   OH240578   0.542   3.181   0.392  0.5487  0.7207 -0.3271
 6340TIP3    H140579   0.612   3.205   0.331  1.4426 -0.9375  0.0347
 6340TIP3    H240580   0.585   3.128   0.459 -1.2438 -1.2141 -0.6699
 6341TIP3   OH240581   4.666   5.976   1.469  0.2451  0.1190  0.7531
 6341TIP3    H140582   4.678   5.948   1.560  2.5235  2.7357  1.3414
 6341TIP3    H240583   4.743   5.941   1.423 -1.5426 -2.3189 -0.5364
 6342TIP3   OH240584   5.540   5.423   6.222 -0.3558  0.5847 -0.2738
 6342TIP3    H140585   5.543   5.390   6.133  0.8617 -1.0296  0.3347
 6342TIP3    H240586   5.610   5.488   6.227 -0.9705  1.2760 -0.7265
 6343TIP3   OH240587   0.913   3.948   1.332 -0.1250 -0.1119 -0.2649
 6343TIP3    H140588   0.902   3.951   1.238  0.4856 -1.1275 -0.3813
 6343TIP3    H240589   0.949   4.034   1.355  1.0713 -0.3546 -1.1523
 6344TIP3   OH240590   1.821   3.373   6.375  0.1737 -0.4988 -0.0805
 6344TIP3    H140591   1.842   3.363   6.283  1.0107  1.4115 -0.1281
 6344TIP3    H240592   1.738   3.422   6.376 -0.5376 -1.6749  0.1872
 6345TIP3   OH240593   4.926   6.705   2.045  0.7795 -0.1351 -0.0086
 6345TIP3    H140594   4.835   6.677   2.042  0.2578  1.4825  0.4042
 6345TIP3    H240595   4.974   6.627   2.072 -0.5506 -0.8209  0.4235
 6346TIP3   OH240596   1.333   3.554   7.057 -0.0353 -0.4062  0.9886
 6346TIP3    H140597   1.266   3.540   7.124  0.8627  0.1297  2.0126
 6346TIP3    H240598   1.367   3.642   7.076 -0.9843  0.4661 -1.2454
 6347TIP3   OH240599   5.562   0.579   1.579 -0.2465  0.3034 -0.2816
 6347TIP3    H140600   5.520   0.635   1.644  0.6876 -0.8478  1.3462
 6347TIP3    H240601   5.555   0.627   1.497  0.1666  2.5841  1.0001
 6348TIP3   OH240602   0.689   6.668   7.711 -0.0148  0.4134 -0.0697
 6348TIP3    H140603   0.686   6.624   7.626 -1.1996  1.3463 -0.5089
 6348TIP3    H240604   0.770   6.635   7.752  0.2571 -0.4749 -1.3063
 6349TIP3   OH240605   5.290   5.678   1.890  0.2916  0.2130  0.0994
 6349TIP3    H140606   5.229   5.752   1.899 -0.9529 -0.9521  1.5441
 6349TIP3    H240607   5.374   5.711   1.922 -0.0094  1.3076 -0.2319
 6350TIP3   OH240608   3.754   4.440   7.560  0.5796 -0.6131 -0.6904
 6350TIP3    H140609   3.699   4.492   7.618 -0.4033 -1.1777 -1.1040
 6350TIP3    H240610   3.814   4.503   7.521  1.3827 -0.2596  1.0786
 6351TIP3   OH240611   6.752   2.095   0.622  0.2227 -0.2368  1.0288
 6351TIP3    H140612   6.820   2.162   0.614  0.6216 -0.7137  0.4589
 6351TIP3    H240613   6.799   2.015   0.643  0.0313 -1.0018 -1.3737
 6352TIP3   OH240614   2.222   0.411   6.475  0.3724  0.3885 -0.1189
 6352TIP3    H140615   2.206   0.486   6.533 -0.0677  0.3494 -0.1850
 6352TIP3    H240616   2.301   0.434   6.427  0.9230  0.2831  0.7285
 6353TIP3   OH240617   3.729   6.542   7.828  0.5931 -0.8787 -0.5808
 6353TIP3    H140618   3.759   6.512   7.914 -0.0405  0.1777  0.0189
 6353TIP3    H240619   3.801   6.596   7.795 -0.3005  1.0473  0.5358
 6354TIP3   OH240620   4.361   0.233   1.634 -0.7606  0.2229 -0.1153
 6354TIP3    H140621   4.395   0.322   1.627 -0.3663 -0.0621 -2.3910
 6354TIP3    H240622   4.360   0.215   1.728  2.0944  1.4803  0.2203
 6355TIP3   OH240623   4.186   0.454   0.424 -0.2500 -0.0698 -0.1221
 6355TIP3    H140624   4.281   0.466   0.429 -0.2589  0.7724 -1.6919
 6355TIP3    H240625   4.174   0.361   0.443  0.8297 -0.0595  0.7010
 6356TIP3   OH240626   1.740   4.637   6.203 -0.2220 -0.0592 -0.1875
 6356TIP3    H140627   1.794   4.590   6.139 -0.3358  1.7573 -1.6554
 6356TIP3    H240628   1.759   4.729   6.187 -0.7469  0.4526  1.9938
 6357TIP3   OH240629   3.460   0.100   0.918  0.2168  0.2411 -0.2716
 6357TIP3    H140630   3.477   0.019   0.870  0.6245  0.9756 -1.3723
 6357TIP3    H240631   3.533   0.106   0.980  1.5746  1.0560 -1.9127
 6358TIP3   OH240632   1.825   3.992   1.624  0.2440  0.4681 -0.1046
 6358TIP3    H140633   1.844   4.080   1.657 -0.7764  0.8544 -0.5256
 6358TIP3    H240634   1.853   3.933   1.694 -0.8487  1.2262  0.9865
 6359TIP3   OH240635   0.444   0.391   1.141  0.2321  0.0991  0.1306
 6359TIP3    H140636   0.390   0.312   1.138 -0.9358  0.9302 -1.1175
 6359TIP3    H240637   0.444   0.417   1.233 -0.4048 -0.6494  0.3458
 6360TIP3   OH240638   1.470   4.959   8.060  0.1083 -0.3834  0.2925
 6360TIP3    H140639   1.500   5.009   8.135  0.3289 -1.1057  0.6881
 6360TIP3    H240640   1.397   4.907   8.093 -1.9938  1.7826 -0.7946
 6361TIP3   OH240641   1.938   7.005   1.085  0.0970 -0.4524  0.6091
 6361TIP3    H140642   1.856   6.961   1.062  0.8769 -1.1312 -0.9158
 6361TIP3    H240643   2.006   6.955   1.041  1.2128  0.9676  0.6734
 6362TIP3   OH240644   0.004   2.735   7.082  0.2696  0.1603 -0.5775
 6362TIP3    H140645   0.078   2.697   7.129 -1.9887 -1.9750  1.3623
 6362TIP3    H240646  -0.020   2.812   7.134  0.0895 -0.0894 -0.2922
 6363TIP3   OH240647   4.412   1.621   0.058 -1.0595  0.4306  0.0992
 6363TIP3    H140648   4.360   1.678   0.001 -0.6117  0.7430 -0.0068
 6363TIP3    H240649   4.372   1.535   0.050 -1.4486  0.6328 -0.1185
 6364TIP3   OH240650   7.019   4.998   6.244  0.2314 -0.4088  0.3216
 6364TIP3    H140651   7.087   5.044   6.294 -0.8147 -0.0455  1.4336
 6364TIP3    H240652   7.025   5.036   6.156 -0.5939  1.8947  1.2110
 6365TIP3   OH240653   2.510   0.499   0.657  0.0068 -0.0327  0.0164
 6365TIP3    H140654   2.481   0.426   0.711  1.1562 -0.6491 -0.1699
 6365TIP3    H240655   2.540   0.565   0.719 -0.7439  0.1585  0.1789
 6366TIP3   OH240656   3.412   4.404   0.192 -0.6228  0.3040 -0.5322
 6366TIP3    H140657   3.485   4.429   0.248 -0.0408  1.3222 -1.7171
 6366TIP3    H240658   3.452   4.351   0.123 -1.3887 -1.2600  0.2206
 6367TIP3   OH240659   2.854   5.785   0.195 -0.3047  0.2552 -0.0006
 6367TIP3    H140660   2.910   5.822   0.127  1.6214 -1.2716  0.7046
 6367TIP3    H240661   2.850   5.852   0.263 -0.8779  1.1194 -0.8854
 6368TIP3   OH240662   0.016   3.278   0.106 -0.1771  0.1081  0.1000
 6368TIP3    H140663  -0.065   3.239   0.141  0.0373  1.0884  1.7719
 6368TIP3    H240664   0.082   3.211   0.118  0.0318  0.6581  2.2644
 6369TIP3   OH240665   6.087   5.095   1.149 -0.0903  0.1828  0.1128
 6369TIP3    H140666   6.124   5.135   1.071  0.3750 -1.0693 -0.3201
 6369TIP3    H240667   6.135   5.013   1.159 -0.8055 -0.1145  1.1648
 6370TIP3   OH240668   0.059   6.394   6.619  0.8001 -0.1137  0.6157
 6370TIP3    H140669  -0.035   6.380   6.603  0.7651  0.0709  0.6516
 6370TIP3    H240670   0.101   6.313   6.591  0.7501  0.2276 -0.4802
 6371TIP3   OH240671   3.673   5.810   0.704  0.2653  0.0799 -0.1659
 6371TIP3    H140672   3.683   5.877   0.636 -0.0704 -0.0499 -0.3465
 6371TIP3    H240673   3.643   5.732   0.657 -0.4101  0.1189  0.1921
 6372TIP3   OH240674   3.599   4.706   0.705  0.1135 -0.1710  0.4913
 6372TIP3    H140675   3.656   4.766   0.755  0.3433  1.5696 -1.7876
 6372TIP3    H240676   3.513   4.714   0.747  0.3208  1.2314  0.6776
 6373TIP3   OH240677   2.724   5.193   0.000 -0.0998 -0.1791 -0.5437
 6373TIP3    H140678   2.637   5.205  -0.037 -0.3789  3.0015  0.9315
 6373TIP3    H240679   2.711   5.203   0.095  1.9648  1.4431 -0.3812
 6374TIP3   OH240680   5.547   0.041   8.069  0.5820 -0.1457  0.2307
 6374TIP3    H140681   5.591   0.084   8.142  1.5892 -1.4198  0.3840
 6374TIP3    H240682   5.618   0.013   8.011 -0.0775 -1.1776 -0.0938
 6375TIP3   OH240683   2.378   3.754   7.047  0.0448 -0.0214 -0.1312
 6375TIP3    H140684   2.289   3.721   7.056 -0.8231  2.3324  0.5171
 6375TIP3    H240685   2.372   3.816   6.974  0.9899  0.6429  0.3531
 6376TIP3   OH240686   3.015   6.596   1.278  0.0596  0.4774  0.3756
 6376TIP3    H140687   2.924   6.619   1.297 -0.0083  1.6205 -1.2244
 6376TIP3    H240688   3.060   6.681   1.275  0.4072  0.2243 -2.6693
 6377TIP3   OH240689   4.351   3.966   7.592 -0.7746 -0.4919 -0.4854
 6377TIP3    H140690   4.264   3.927   7.596 -1.9310  2.0297 -0.5204
 6377TIP3    H240691   4.377   3.957   7.500 -1.8003  0.4339 -0.8737
 6378TIP3   OH240692   4.168   5.063   7.446  0.7279  0.4418  0.0599
 6378TIP3    H140693   4.233   5.113   7.397 -0.1387  0.4824 -1.0553
 6378TIP3    H240694   4.157   5.111   7.528 -1.1521  2.8950 -1.5878
 6379TIP3   OH240695   3.241   6.723   0.980 -0.2015 -0.6874  0.6486
 6379TIP3    H140696   3.151   6.740   1.008 -0.4726  0.0865 -0.6235
 6379TIP3    H240697   3.286   6.806   0.991 -0.4171 -0.2557 -1.5060
 6380TIP3   OH240698   3.512   6.963   1.239  0.0992 -0.4257  0.4067
 6380TIP3    H140699   3.477   6.973   1.150 -0.4617  0.4230  0.7121
 6380TIP3    H240700   3.441   6.919   1.287  0.1279 -0.2519  0.6069
 6381TIP3   OH240701   2.263   1.174   1.590  0.2122 -0.3782  0.5048
 6381TIP3    H140702   2.292   1.253   1.542 -2.0674 -0.4412 -1.0500
 6381TIP3    H240703   2.335   1.112   1.578 -0.0329 -0.1716 -2.3812
 6382TIP3   OH240704   2.456   6.726   1.206 -0.0053  0.4895 -0.0530
 6382TIP3    H140705   2.428   6.807   1.162  1.6320  0.0232 -2.0181
 6382TIP3    H240706   2.396   6.659   1.172 -1.2228  0.7906  1.4136
 6383TIP3   OH240707   3.993   6.521   1.710  0.0963  0.1933  0.1422
 6383TIP3    H140708   3.925   6.560   1.765  1.5693  0.4790  1.8229
 6383TIP3    H240709   4.031   6.453   1.766  1.8087  0.6767 -0.4355
 6384TIP3   OH240710   0.835   7.117   0.541  0.6838 -0.0831  0.5430
 6384TIP3    H140711   0.791   7.071   0.613  2.3709  1.8210  2.8765
 6384TIP3    H240712   0.835   7.209   0.568  0.1621  0.8859 -2.5686
 6385TIP3   OH240713   4.828   5.055   7.077 -0.0856  0.0561 -0.0614
 6385TIP3    H140714   4.800   5.002   7.153  0.3874 -1.2908 -0.8052
 6385TIP3    H240715   4.867   4.991   7.017 -1.6622  0.9046 -2.0279
 6386TIP3   OH240716   3.026   6.891   0.304 -0.7771  0.0069 -0.0642
 6386TIP3    H140717   3.014   6.897   0.398 -0.9358  0.6407 -0.1271
 6386TIP3    H240718   2.967   6.821   0.276 -1.1736  0.2362  0.2160
 6387TIP3   OH240719   4.605   6.892   8.112 -0.1788 -0.1306 -0.0251
 6387TIP3    H140720   4.596   6.987   8.101  2.3378  0.0762 -0.5665
 6387TIP3    H240721   4.630   6.860   8.025  2.0844 -0.8508  0.8478
 6388TIP3   OH240722   4.494   3.251   7.752 -0.5777 -0.9209 -0.3138
 6388TIP3    H140723   4.425   3.317   7.766 -1.2784 -1.7693  0.2475
 6388TIP3    H240724   4.565   3.300   7.709 -1.4716 -0.0072 -0.7745
 6389TIP3   OH240725   4.189   4.248   8.046  0.1933  0.0568 -0.4982
 6389TIP3    H140726   4.244   4.199   8.108  0.4247  1.9450  0.8088
 6389TIP3    H240727   4.099   4.225   8.071  0.2897  0.6354  0.4226
 6390TIP3   OH240728   6.365   0.035   6.788  0.2705  0.0649  0.1611
 6390TIP3    H140729   6.363   0.119   6.833 -0.5356  0.8246 -1.2698
 6390TIP3    H240730   6.458   0.016   6.777  0.4521  0.8357  0.3708
 6391TIP3   OH240731   4.796   7.057   1.759 -0.2628  0.1499  0.0865
 6391TIP3    H140732   4.769   7.146   1.737 -1.9826 -0.4409 -0.2930
 6391TIP3    H240733   4.722   7.002   1.732  0.6924 -1.3739  0.4926
 6392TIP3   OH240734   1.587   3.196   1.549  0.5372  0.0934  0.4551
 6392TIP3    H140735   1.492   3.200   1.552  0.5661  0.6766  0.5903
 6392TIP3    H240736   1.613   3.168   1.637  0.4734 -0.4310  0.3079
 6393TIP3   OH240737   4.951   0.399   0.757  0.4750 -0.2166  0.2040
 6393TIP3    H140738   5.016   0.344   0.713  0.8603  1.5369 -1.4841
 6393TIP3    H240739   5.003   0.466   0.801 -0.1644  1.5213 -1.6090
 6394TIP3   OH240740   4.137   5.333   1.959 -0.0569 -0.4914  0.0375
 6394TIP3    H140741   4.170   5.325   1.870  1.2413 -1.0995  0.5625
 6394TIP3    H240742   4.183   5.264   2.008 -1.6078 -0.9046  0.9294
 6395TIP3   OH240743   1.416   6.903   1.353 -0.0905  0.5219 -0.2621
 6395TIP3    H140744   1.407   6.967   1.424  1.4027 -1.7552  2.0853
 6395TIP3    H240745   1.488   6.936   1.300 -0.5847  1.7575 -0.1950
 6396TIP3   OH240746   2.983   5.727   0.472 -0.0986 -0.0057  0.2330
 6396TIP3    H140747   2.949   5.817   0.467  2.8055  1.0812 -1.3207
 6396TIP3    H240748   3.030   5.723   0.555  1.1220  0.4492 -0.4209
 6397TIP3   OH240749   4.486   5.031   0.833 -0.5541 -0.3101 -0.4883
 6397TIP3    H140750   4.563   4.976   0.837  1.1632  2.0654  0.1968
 6397TIP3    H240751   4.430   5.000   0.904  0.8843 -0.4303  0.6023
 6398TIP3   OH240752   5.062   0.090   7.980 -0.2710 -0.1584  0.3043
 6398TIP3    H140753   5.063   0.101   7.885 -0.8240  1.1744  0.4424
 6398TIP3    H240754   5.154   0.091   8.005 -0.2186  3.6142  0.2045
 6399TIP3   OH240755   1.201   3.461   6.809 -0.3492 -0.4857 -0.5626
 6399TIP3    H140756   1.261   3.454   6.883 -0.0694 -2.1321 -0.9178
 6399TIP3    H240757   1.184   3.555   6.801  0.8761 -0.1395  0.5778
 6400TIP3   OH240758   2.790   5.897   0.691 -0.1054 -0.2782  0.2431
 6400TIP3    H140759   2.731   5.928   0.623 -0.6517  0.8506  1.2064
 6400TIP3    H240760   2.758   5.810   0.714  0.0368 -0.6356 -0.8737
 6401TIP3   OH240761   4.123   5.538   0.528  0.2605  0.2036 -0.0091
 6401TIP3    H140762   4.091   5.620   0.490  1.2042  0.0092 -1.2585
 6401TIP3    H240763   4.105   5.546   0.622  1.1846  2.2532  0.0270
 6402TIP3   OH240764   6.696   4.419   1.521 -0.5708  0.2138  0.2786
 6402TIP3    H140765   6.721   4.494   1.575 -1.0988  0.8325 -0.3207
 6402TIP3    H240766   6.697   4.344   1.581  3.1613  0.1013  0.2190
 6403TIP3   OH240767   4.421   6.368   5.984 -0.1061 -0.0821  0.2091
 6403TIP3    H140768   4.515   6.372   5.967  0.0501  0.7077  1.2525
 6403TIP3    H240769   4.381   6.358   5.897  0.9918 -1.5154 -0.1508
 6404TIP3   OH240770   2.607   3.176   0.713 -0.0111  0.1017 -0.1923
 6404TIP3    H140771   2.688   3.206   0.754 -2.0715  2.4771  2.3495
 6404TIP3    H240772   2.599   3.230   0.634 -0.1576  1.4330  0.7057
 6405TIP3   OH240773   5.757   3.130   1.608  0.3387  0.2158 -0.2559
 6405TIP3    H140774   5.830   3.140   1.669  0.1302 -0.6679  0.1452
 6405TIP3    H240775   5.685   3.177   1.649 -0.0054 -0.9755  0.5382
 6406TIP3   OH240776   3.961   5.668   0.818  0.2827  0.0420 -0.5808
 6406TIP3    H140777   3.897   5.638   0.754 -0.0031 -0.7853  0.0712
 6406TIP3    H240778   3.954   5.604   0.890  1.0268  0.5972 -0.0061
 6407TIP3   OH240779   3.907   0.585   0.670 -0.5834 -0.2206  0.5272
 6407TIP3    H140780   3.819   0.556   0.649 -0.5955  0.2139 -0.0315
 6407TIP3    H240781   3.947   0.603   0.585  0.0953 -0.5665  0.7690
 6408TIP3   OH240782   1.097   2.850   6.437 -0.0418 -0.5808 -1.3089
 6408TIP3    H140783   1.046   2.782   6.393 -0.4123 -0.6492 -0.7800
 6408TIP3    H240784   1.036   2.923   6.446 -0.3562 -1.0234  0.2354
 6409TIP3   OH240785   4.376   5.464   0.817 -0.4390 -0.5436  0.6521
 6409TIP3    H140786   4.405   5.439   0.905 -1.7096 -1.1431  0.9048
 6409TIP3    H240787   4.317   5.394   0.790  0.4056 -0.6810 -0.9393
 6410TIP3   OH240788   5.469   5.560   7.472  0.1596  0.3300 -0.1466
 6410TIP3    H140789   5.472   5.645   7.516  1.3524  0.4887 -0.5145
 6410TIP3    H240790   5.377   5.548   7.449 -0.0690  1.3728  0.1913
 6411TIP3   OH240791   0.821   6.437   0.103 -0.6006 -0.1027 -0.4103
 6411TIP3    H140792   0.828   6.492   0.025  0.6319 -1.1472 -1.0413
 6411TIP3    H240793   0.825   6.347   0.070 -1.0641 -0.5613  0.7598
 6412TIP3   OH240794   1.326   5.040   6.997  0.4075  0.0175 -0.4827
 6412TIP3    H140795   1.356   5.084   6.917 -0.4272 -0.9235 -1.3262
 6412TIP3    H240796   1.407   5.013   7.041  0.8886  1.1030 -0.6723
 6413TIP3   OH240797   2.532   5.901   2.013  0.4210  0.5459  0.7551
 6413TIP3    H140798   2.599   5.846   2.054 -0.8564 -0.6222  1.3158
 6413TIP3    H240799   2.558   5.990   2.034  3.1453  0.2343 -1.1344
 6414TIP3   OH240800   3.053   4.026   7.805 -0.4224 -0.2921  0.0395
 6414TIP3    H140801   3.079   4.063   7.889 -1.8901  0.6538  0.1059
 6414TIP3    H240802   3.135   3.997   7.765  0.5488  1.1770  0.8951
 6415TIP3   OH240803   4.153   6.094   1.307 -0.3683 -0.4296  0.1883
 6415TIP3    H140804   4.067   6.135   1.313  0.6485  1.6981  1.0089
 6415TIP3    H240805   4.203   6.152   1.249  0.3719 -1.9075 -0.6772
 6416TIP3   OH240806   3.958   6.670   7.517 -0.2094  0.1646 -0.1435
 6416TIP3    H140807   4.034   6.612   7.517 -0.8162 -0.6480  0.2074
 6416TIP3    H240808   3.915   6.653   7.602 -1.3250 -0.1349 -0.7499
 6417TIP3   OH240809   1.644   2.620   6.583  0.5870  0.4655 -0.1195
 6417TIP3    H140810   1.734   2.589   6.589  0.5698  0.3414 -0.4854
 6417TIP3    H240811   1.635   2.648   6.492  0.2473  0.4525 -0.0891
 6418TIP3   OH240812   2.901   5.833   6.789 -0.3768  0.1432  0.0665
 6418TIP3    H140813   2.834   5.779   6.832  0.6516 -0.4064  1.0045
 6418TIP3    H240814   2.888   5.817   6.695  0.6335 -2.6755  0.3376
 6419TIP3   OH240815   4.024   1.320   7.791  0.0724 -0.3599  0.7168
 6419TIP3    H140816   4.053   1.387   7.854  0.5385 -0.1109  0.2433
 6419TIP3    H240817   4.102   1.299   7.741 -0.9153  1.6290 -1.7931
 6420TIP3   OH240818   4.542   1.084   1.429  0.5845 -0.0082 -0.0653
 6420TIP3    H140819   4.476   1.081   1.360  0.4308 -2.1033  0.1484
 6420TIP3    H240820   4.625   1.071   1.383  0.7559  1.3769 -0.1761
 6421TIP3   OH240821   4.999   3.826   0.681  0.4893  0.0614  0.5408
 6421TIP3    H140822   4.914   3.815   0.725 -0.2568 -0.9434 -1.1097
 6421TIP3    H240823   5.058   3.854   0.750 -1.0407  0.1231  1.8576
 6422TIP3   OH240824   0.087   5.961   1.642  0.2894 -0.1324 -0.1737
 6422TIP3    H140825   0.065   5.995   1.729 -0.2080 -0.3605 -0.2065
 6422TIP3    H240826   0.183   5.960   1.640  0.3078  0.5909  0.0924
 6423TIP3   OH240827   2.427   4.882   7.399 -0.2175 -0.0995 -0.1583
 6423TIP3    H140828   2.342   4.885   7.354 -0.6129  2.3268  0.7119
 6423TIP3    H240829   2.474   4.959   7.368  0.9951 -0.4639  0.7171
 6424TIP3   OH240830   2.134   0.236   0.621 -0.1543 -0.5965 -1.0098
 6424TIP3    H140831   2.149   0.143   0.638  1.5602 -0.0247  0.8861
 6424TIP3    H240832   2.222   0.273   0.610 -0.5746  1.3562  1.6271
 6425TIP3   OH240833   2.169   0.799   0.206 -0.6289 -0.0526  0.2168
 6425TIP3    H140834   2.162   0.834   0.117 -0.6918  0.5333  0.4505
 6425TIP3    H240835   2.259   0.816   0.232 -0.9203  0.8212  0.6905
 6426TIP3   OH240836   3.129   2.096   7.515  0.1503  0.1227 -0.8000
 6426TIP3    H140837   3.188   2.134   7.580  1.6621 -1.8018 -1.0101
 6426TIP3    H240838   3.168   2.011   7.493 -2.2402 -0.8222 -1.5923
 6427TIP3   OH240839   0.401   0.696   6.641 -0.3739 -0.0858 -0.0309
 6427TIP3    H140840   0.393   0.643   6.561  0.9848 -0.2882 -0.0461
 6427TIP3    H240841   0.493   0.687   6.666 -0.8122 -0.0612  1.5935
 6428TIP3   OH240842   2.787   6.798   0.033 -0.1012  0.5622 -0.1762
 6428TIP3    H140843   2.785   6.849  -0.047 -0.9873  0.1989 -0.3865
 6428TIP3    H240844   2.742   6.852   0.098 -0.6128  0.2629 -0.2774
 6429TIP3   OH240845   3.951   0.176   0.101 -0.2111  0.1483 -0.6197
 6429TIP3    H140846   3.935   0.082   0.111 -1.8540  0.5129  0.3537
 6429TIP3    H240847   4.029   0.181   0.046  1.7978 -1.8272  1.8955
 6430TIP3   OH240848   0.315   4.784   1.018  0.0114 -0.7627 -0.1035
 6430TIP3    H140849   0.394   4.796   1.071 -0.7098  0.4287  0.7160
 6430TIP3    H240850   0.306   4.689   1.011  0.6517 -0.9289  1.1070
 6431TIP3   OH240851   1.275   1.787   0.364 -0.1056  0.0541  0.0906
 6431TIP3    H140852   1.229   1.705   0.383  0.0442 -0.2742 -0.9671
 6431TIP3    H240853   1.264   1.838   0.444  0.0704 -1.1191  0.8840
 6432TIP3   OH240854   0.681   1.582   8.065  0.5810  0.3513 -0.3172
 6432TIP3    H140855   0.709   1.517   8.129 -0.7048  0.0578 -0.0391
 6432TIP3    H240856   0.759   1.635   8.048  2.2021 -2.4903 -2.0768
 6433TIP3   OH240857   3.091   4.990   6.783 -0.3440  0.5417 -0.0992
 6433TIP3    H140858   3.069   5.006   6.875  2.2271 -0.0581  0.6806
 6433TIP3    H240859   3.110   5.076   6.747  2.2014  0.4641  0.9581
 6434TIP3   OH240860   3.095   4.599   0.067 -0.3226  0.1329 -0.1164
 6434TIP3    H140861   3.101   4.595   0.163 -0.7485  0.5614 -0.0729
 6434TIP3    H240862   3.069   4.688   0.048 -1.8484 -0.3956 -0.5606
 6435TIP3   OH240863   1.059   2.681   0.511 -0.6523 -0.4833  0.9731
 6435TIP3    H140864   1.005   2.715   0.583 -1.1824 -1.2511  0.9352
 6435TIP3    H240865   1.141   2.730   0.519 -1.0934  0.1994  1.4517
 6436TIP3   OH240866   5.983   0.884   6.344  0.7352 -0.3573 -0.1764
 6436TIP3    H140867   5.953   0.811   6.290 -1.4927 -0.3460  0.9760
 6436TIP3    H240868   5.971   0.961   6.289 -1.5105 -0.3456  0.2749
 6437TIP3   OH240869   2.741   7.055   1.707 -0.3006 -0.0283 -0.3872
 6437TIP3    H140870   2.805   7.036   1.776 -1.2740  0.3733  0.6495
 6437TIP3    H240871   2.746   7.150   1.695 -1.0445  0.0785  0.0675
 6438TIP3   OH240872   3.391   5.374   1.079  0.1939  0.3549  0.4843
 6438TIP3    H140873   3.339   5.435   1.131 -1.9745  0.2311 -1.4266
 6438TIP3    H240874   3.415   5.424   1.001  0.8288 -0.3575  0.2161
 6439TIP3   OH240875   3.049   0.812   0.462  0.3793  0.2737  0.5659
 6439TIP3    H140876   3.079   0.875   0.527 -0.6027  1.0425  0.2747
 6439TIP3    H240877   3.094   0.730   0.485  1.5608  1.0398  1.0129
 6440TIP3   OH240878   3.996   0.663   1.423  0.2963  0.5209  0.0662
 6440TIP3    H140879   3.977   0.736   1.481 -0.1708  0.7344 -0.3581
 6440TIP3    H240880   3.951   0.588   1.463 -0.9530  0.8960 -0.6069
 6441TIP3   OH240881   5.577   6.452   7.601  0.0122  0.4154 -0.0030
 6441TIP3    H140882   5.513   6.511   7.641  2.6035  2.1190  1.8028
 6441TIP3    H240883   5.610   6.399   7.673  1.3311  0.2396 -0.7025
 6442TIP3   OH240884   2.785   5.423   8.022 -0.0594 -0.5250  0.3678
 6442TIP3    H140885   2.767   5.340   8.064 -1.1206 -0.1697  0.6320
 6442TIP3    H240886   2.699   5.457   7.998  0.3392  0.6553  0.5673
 6443TIP3   OH240887   3.270   5.148   8.068 -0.5292  0.8611 -0.0265
 6443TIP3    H140888   3.220   5.230   8.061 -1.1323  0.5286  0.3476
 6443TIP3    H240889   3.255   5.119   8.158 -0.1174  0.4640 -0.0838
 6444TIP3   OH240890   3.142   6.233   1.261  0.3648 -0.1667  0.3024
 6444TIP3    H140891   3.133   6.142   1.235  0.8122 -0.2641  0.4796
 6444TIP3    H240892   3.076   6.280   1.210  2.1801 -0.1276 -2.1068
 6445TIP3   OH240893   2.116   4.134   0.235 -0.1960  0.3098 -0.0988
 6445TIP3    H140894   2.062   4.064   0.199  0.1010 -1.0146  1.9334
 6445TIP3    H240895   2.191   4.139   0.176 -0.0899 -1.2976 -0.1297
 6446TIP3   OH240896   4.566   3.383   1.650  0.3443  0.6181 -0.2822
 6446TIP3    H140897   4.496   3.419   1.706 -1.5062  0.2226 -2.2804
 6446TIP3    H240898   4.613   3.323   1.707 -1.3119  0.4451  0.9645
 6447TIP3   OH240899   3.614   3.479   0.498 -0.0948 -0.1983  0.0295
 6447TIP3    H140900   3.628   3.421   0.573 -1.2718 -0.3845  0.1245
 6447TIP3    H240901   3.692   3.534   0.495 -0.6432  0.7710  2.2695
 6448TIP3   OH240902   3.038   5.488   1.123 -0.5454  0.4999  0.2172
 6448TIP3    H140903   2.970   5.554   1.111 -1.3248 -0.5492 -1.2265
 6448TIP3    H240904   2.997   5.405   1.099  1.7725  0.0943 -2.7371
 6449TIP3   OH240905   3.395   4.002   0.230 -0.0848  0.4598  0.5919
 6449TIP3    H140906   3.395   3.909   0.206  0.7738  0.7658 -0.6262
 6449TIP3    H240907   3.351   4.046   0.157  1.7336  1.2970 -0.0313
 6450TIP3   OH240908   1.772   5.599   1.764 -0.2594  0.2152  0.8812
 6450TIP3    H140909   1.782   5.693   1.750  1.3139 -0.1769 -0.6810
 6450TIP3    H240910   1.829   5.580   1.838  1.5751  0.0227 -0.5629
 6451TIP3   OH240911   6.069   5.561   1.152  0.0632  0.7015  0.0395
 6451TIP3    H140912   6.149   5.524   1.118  0.0868  1.2316 -0.4900
 6451TIP3    H240913   6.000   5.499   1.128  0.2785  0.3703  0.2833
 6452TIP3   OH240914   2.632   0.183   1.575  0.3391  0.3123 -0.7499
 6452TIP3    H140915   2.635   0.263   1.627  0.9990 -0.2532  0.0977
 6452TIP3    H240916   2.547   0.145   1.595  0.1205  0.6796 -0.9738
 6453TIP3   OH240917   5.228   3.384   7.513 -0.0280  0.8593 -0.2199
 6453TIP3    H140918   5.186   3.462   7.476 -1.4327 -0.0724 -0.6572
 6453TIP3    H240919   5.215   3.317   7.446  0.2716 -0.0134  0.5925
 6454TIP3   OH240920   1.882   0.841   7.877 -0.0426  0.5798 -0.4678
 6454TIP3    H140921   1.960   0.816   7.829  0.5279 -0.0202  0.7468
 6454TIP3    H240922   1.912   0.908   7.939  0.2419 -2.0741  2.3531
 6455TIP3   OH240923   4.962   6.142   0.005 -0.6440 -0.1769  0.3362
 6455TIP3    H140924   4.928   6.209   0.064 -3.0463  0.5989 -1.8078
 6455TIP3    H240925   5.049   6.172  -0.019  0.0274 -0.0775  2.7589
 6456TIP3   OH240926   5.148   0.832   0.641 -0.2567 -0.5700  0.0047
 6456TIP3    H140927   5.239   0.841   0.612 -0.6780  0.9582 -0.9192
 6456TIP3    H240928   5.125   0.920   0.673 -2.1545 -0.2745 -2.0415
 6457TIP3   OH240929   3.996   4.679   0.115  0.1356  0.0340 -0.0126
 6457TIP3    H140930   3.961   4.591   0.128  0.2991 -0.2259 -1.2723
 6457TIP3    H240931   4.081   4.678   0.160 -0.0575 -0.3120  0.3499
 6458TIP3   OH240932   4.116   5.357   1.343  0.3268 -0.4357 -0.2190
 6458TIP3    H140933   4.048   5.405   1.392  1.5437 -0.1218  1.2032
 6458TIP3    H240934   4.125   5.275   1.390  1.2654 -0.2808 -0.1325
 6459TIP3   OH240935   2.761   6.734   0.976 -0.1918 -0.3138  0.4500
 6459TIP3    H140936   2.826   6.716   1.043  0.2374  0.0963  0.1507
 6459TIP3    H240937   2.719   6.650   0.960 -0.1316 -0.4650  1.0542
 6460TIP3   OH240938   2.855   4.365   0.152 -0.5093 -0.0466  0.4143
 6460TIP3    H140939   2.949   4.369   0.170 -1.1353  1.8195  3.4915
 6460TIP3    H240940   2.845   4.407   0.067  1.1837  1.9044  1.1468
 6461TIP3   OH240941   2.109   3.069   1.569  0.1040 -0.2195  0.4574
 6461TIP3    H140942   2.095   2.988   1.520 -2.0585 -0.5152  1.5094
 6461TIP3    H240943   2.048   3.132   1.530  0.2297  0.2820  1.0517
 6462TIP3   OH240944   0.573   5.117   0.872 -0.0235 -0.3066 -0.1134
 6462TIP3    H140945   0.550   5.029   0.843 -0.5517 -0.8168  1.8274
 6462TIP3    H240946   0.576   5.168   0.791  1.8582 -2.4257 -1.4669
 6463TIP3   OH240947   3.252   1.116   1.155 -0.0987  0.5536  0.0038
 6463TIP3    H140948   3.243   1.033   1.203 -1.5206  1.1886  0.8532
 6463TIP3    H240949   3.178   1.116   1.095 -0.7697  1.7424  0.8198
 6464TIP3   OH240950   5.129   1.046   1.922  0.0710 -0.2687 -0.5868
 6464TIP3    H140951   5.066   1.100   1.971  0.5051  0.4533 -0.8207
 6464TIP3    H240952   5.141   1.093   1.839 -0.2106 -1.1828 -1.1502
 6465TIP3   OH240953   3.637   7.091   0.204 -0.1867 -1.0692 -0.1819
 6465TIP3    H140954   3.676   7.060   0.123 -0.5541 -3.5840  0.5603
 6465TIP3    H240955   3.682   7.041   0.273 -2.5189 -1.7238  0.9009
 6466TIP3   OH240956   1.593   0.914   6.967  0.4070 -0.5450  0.1226
 6466TIP3    H140957   1.686   0.901   6.945 -0.1954  0.1605 -3.0702
 6466TIP3    H240958   1.545   0.872   6.896 -1.7182  0.4164  0.9443
 6467TIP3   OH240959   4.339   4.682   0.650 -0.4155 -0.3469 -1.2628
 6467TIP3    H140960   4.417   4.666   0.704 -0.6627  1.5806 -0.2701
 6467TIP3    H240961   4.368   4.746   0.585 -1.7830  2.5471  0.8243
 6468TIP3   OH240962   6.500   4.842   5.915  0.6554 -0.4419  0.2699
 6468TIP3    H140963   6.595   4.835   5.906  0.5856  0.5292 -1.4224
 6468TIP3    H240964   6.470   4.873   5.830 -1.1475 -0.3709  0.9090
 6469TIP3   OH240965   5.576   1.188   6.452 -0.6292 -0.1735  0.2340
 6469TIP3    H140966   5.642   1.165   6.518  0.9787  0.4347 -1.1298
 6469TIP3    H240967   5.572   1.111   6.396  0.5254  0.6085 -0.9483
 6470TIP3   OH240968   6.207   3.651   0.618 -0.1490  0.1814 -0.0640
 6470TIP3    H140969   6.200   3.633   0.524  0.1678 -0.3726  0.0184
 6470TIP3    H240970   6.229   3.744   0.623  0.8325 -0.0203 -0.5643
 6471TIP3   OH240971   0.931   3.776   7.481  0.3028 -0.2408  0.1985
 6471TIP3    H140972   1.007   3.718   7.494 -0.1310 -1.1985 -1.3093
 6471TIP3    H240973   0.878   3.764   7.559  1.8150  0.6125  1.3757
 6472TIP3   OH240974   1.129   5.560   1.415  0.5632 -0.0201 -0.0290
 6472TIP3    H140975   1.154   5.572   1.507 -1.9296  2.8238  0.3298
 6472TIP3    H240976   1.097   5.470   1.411  1.8308 -0.5776  1.5874
 6473TIP3   OH240977   1.001   4.197   1.427 -0.0361  0.0420 -0.2657
 6473TIP3    H140978   1.066   4.265   1.411 -1.1847  1.0023 -0.9495
 6473TIP3    H240979   1.022   4.163   1.514 -0.6887  2.6463  0.9376
 6474TIP3   OH240980   0.419   2.006   6.948 -0.0953 -0.0825  0.2276
 6474TIP3    H140981   0.427   1.921   6.905 -5.3472 -0.2314 -0.7877
 6474TIP3    H240982   0.451   1.991   7.037  1.3689 -2.4073 -0.6388
 6475TIP3   OH240983   4.893   4.509   7.810  0.2448  0.3015 -0.6317
 6475TIP3    H140984   4.822   4.566   7.779 -1.2134 -1.4978 -0.7046
 6475TIP3    H240985   4.963   4.569   7.835 -1.0953  2.0999 -1.0924
 6476TIP3   OH240986   5.948   1.887   1.125 -0.3567  0.3407  0.6303
 6476TIP3    H140987   6.018   1.932   1.173 -0.6634  0.1867  1.2162
 6476TIP3    H240988   5.933   1.943   1.049  1.1188 -0.1543 -0.0478
 6477TIP3   OH240989   1.356   2.442   0.682 -0.4079 -0.2451  0.0192
 6477TIP3    H140990   1.356   2.536   0.665 -0.2355  0.0524  1.5977
 6477TIP3    H240991   1.370   2.402   0.596  1.8678  1.2290 -0.3377
 6478TIP3   OH240992   5.165   7.049   1.128 -0.0400 -0.0436 -0.6163
 6478TIP3    H140993   5.234   6.994   1.092  0.7103 -1.2113  2.4197
 6478TIP3    H240994   5.095   6.988   1.150  0.6201  0.1841  2.3712
 6479TIP3   OH240995   3.045   0.325   7.505  0.1529  0.0524 -0.3607
 6479TIP3    H140996   2.999   0.337   7.422  0.9617  1.7818 -0.5801
 6479TIP3    H240997   3.015   0.397   7.560 -1.1739 -1.6592  1.2514
 6480TIP3   OH240998   5.807   3.807   1.139  0.0068  0.8277  0.0542
 6480TIP3    H140999   5.811   3.819   1.234 -0.4028  2.0647 -0.0775
 6480TIP3    H241000   5.759   3.724   1.127  2.5897 -0.8493  0.9753
 6481TIP3   OH241001   1.888   1.469   7.285  0.1584  0.6176  0.2012
 6481TIP3    H141002   1.829   1.441   7.215 -0.2755  0.3764  0.6535
 6481TIP3    H241003   1.937   1.542   7.248  0.6690 -0.1781 -0.7005
 6482TIP3   OH241004   2.441   6.012   1.497  0.0074 -0.2197 -0.4896
 6482TIP3    H141005   2.379   6.036   1.565 -0.0431 -0.0835 -0.5828
 6482TIP3    H241006   2.501   5.951   1.539  2.1345  2.5529  0.7189
 6483TIP3   OH241007   3.556   7.067   0.742 -0.2317  0.2122 -0.0060
 6483TIP3    H141008   3.609   7.127   0.689  0.0257  0.7641  0.8624
 6483TIP3    H241009   3.601   6.983   0.734  0.9853  0.7526  1.0075
 6484TIP3   OH241010   5.441   1.292   0.440 -0.6002  0.5862 -0.3528
 6484TIP3    H141011   5.454   1.358   0.509 -0.6196  0.4353 -0.2048
 6484TIP3    H241012   5.528   1.255   0.426 -0.6891  0.2572 -0.0467
 6485TIP3   OH241013   3.487   5.103   0.661  0.4648 -0.2608 -0.3647
 6485TIP3    H141014   3.438   5.025   0.634  0.7901 -0.9683  1.0045
 6485TIP3    H241015   3.475   5.105   0.757  0.0121  1.6745 -0.4476
 6486TIP3   OH241016   2.529   0.187   1.306  0.1614  0.1364 -0.2813
 6486TIP3    H141017   2.588   0.191   1.381 -3.3101  2.9365  2.4296
 6486TIP3    H241018   2.495   0.097   1.308 -0.1621  0.2781  1.7315
 6487TIP3   OH241019   2.119   0.047   1.307  0.2713  0.0603 -0.2359
 6487TIP3    H141020   2.160  -0.040   1.304  1.8518  0.8007 -0.1398
 6487TIP3    H241021   2.163   0.096   1.238 -0.4439  0.8840 -0.1103
 6488TIP3   OH241022   6.764   6.629   1.528 -0.5260  0.5562  0.0452
 6488TIP3    H141023   6.787   6.708   1.577 -2.5947  1.6908 -0.7480
 6488TIP3    H241024   6.754   6.561   1.595  1.5184  0.8869  0.7148
 6489TIP3   OH241025   2.855   2.158   6.969 -0.6857  0.5113 -0.7150
 6489TIP3    H141026   2.923   2.094   6.952 -0.6399 -0.1865  1.9125
 6489TIP3    H241027   2.842   2.202   6.885  1.6439 -0.6341 -1.7225
 6490TIP3   OH241028   2.161   2.118   0.588  0.6943  0.1962 -0.6279
 6490TIP3    H141029   2.193   2.069   0.664 -0.1271  0.9229  0.2020
 6490TIP3    H241030   2.230   2.109   0.523  1.5554 -0.1731  0.3229
 6491TIP3   OH241031   3.453   3.433   7.189 -0.3169 -0.4512  0.1266
 6491TIP3    H141032   3.445   3.475   7.275  2.6858  1.7712 -0.5949
 6491TIP3    H241033   3.519   3.364   7.202 -0.1398 -0.3647 -0.3130
 6492TIP3   OH241034   2.132   6.129   1.464 -0.7984  0.2836 -0.0231
 6492TIP3    H141035   2.149   6.083   1.382 -2.2309  0.6409 -0.5407
 6492TIP3    H241036   2.176   6.077   1.531 -1.1905 -1.0469 -0.7818
 6493TIP3   OH241037   1.226   6.416   1.481  0.2849 -0.6110 -0.3573
 6493TIP3    H141038   1.243   6.504   1.514  3.7856 -1.0055 -0.9056
 6493TIP3    H241039   1.238   6.424   1.386 -0.4480 -1.4648 -0.5227
 6494TIP3   OH241040   2.545   6.922   1.827 -0.3628  0.8051 -0.2289
 6494TIP3    H141041   2.621   6.960   1.782 -0.2424 -0.4609 -1.1388
 6494TIP3    H241042   2.523   6.985   1.895  1.6444  1.1124  0.1765
 6495TIP3   OH241043   6.730   1.415   8.044 -0.3673 -0.0050  0.0829
 6495TIP3    H141044   6.750   1.343   7.985 -0.2895  0.6764 -0.7202
 6495TIP3    H241045   6.666   1.468   7.997 -0.7262  0.2427  0.8323
 6496TIP3   OH241046   2.198   0.408   7.471 -0.0341 -0.2613 -0.3721
 6496TIP3    H141047   2.170   0.489   7.515 -0.1389 -0.0915 -0.7473
 6496TIP3    H241048   2.248   0.438   7.396 -0.2667 -0.5423 -0.6391
 6497TIP3   OH241049   6.818   2.820   7.326  0.0709 -0.1131 -0.5028
 6497TIP3    H141050   6.753   2.867   7.273 -0.5103 -0.0769  0.2408
 6497TIP3    H241051   6.776   2.807   7.410  1.7245  1.5592  0.6170
 6498TIP3   OH241052   4.879   5.304   7.264 -0.0157  0.7842  0.2461
 6498TIP3    H141053   4.894   5.219   7.222 -0.4894  1.0764 -0.5216
 6498TIP3    H241054   4.803   5.289   7.321  0.9964  0.2292  1.4836
 6499TIP3   OH241055   0.878   6.278   6.664  0.0109  0.1862  0.3243
 6499TIP3    H141056   0.908   6.338   6.596 -2.1740  0.2526 -0.6195
 6499TIP3    H241057   0.866   6.334   6.741  0.8852  0.4043  0.3153
 6500TIP3   OH241058   5.808   0.331   8.036 -0.3056  0.7486 -0.1202
 6500TIP3    H141059   5.758   0.347   8.116  1.4011  1.3326  0.8585
 6500TIP3    H241060   5.792   0.239   8.016  0.7078  0.0745  1.9642
 6501TIP3   OH241061   1.074   4.517   8.075  0.5065  0.1355 -0.8482
 6501TIP3    H141062   1.034   4.581   8.134  1.7092  1.7119 -1.6961
 6501TIP3    H241063   1.033   4.434   8.099 -0.3577  1.0393  0.9646
 6502TIP3   OH241064   2.027   1.152   1.761 -0.5583  0.1114 -0.4968
 6502TIP3    H141065   2.096   1.150   1.695  1.4451 -2.9851  1.5639
 6502TIP3    H241066   1.985   1.067   1.754 -1.9045  0.6636  0.6256
 6503TIP3   OH241067   4.039   1.174   1.009 -0.1402  0.2405 -0.1030
 6503TIP3    H141068   4.008   1.124   1.084  0.2528 -0.2442 -0.2618
 6503TIP3    H241069   4.098   1.239   1.047 -0.6943  0.6236  0.1095
 6504TIP3   OH241070   5.892   6.453   1.859 -0.1602 -0.1434 -0.4306
 6504TIP3    H141071   5.981   6.418   1.853  0.7598  2.1667 -0.8916
 6504TIP3    H241072   5.899   6.524   1.924 -1.4574  0.6682 -1.1680
 6505TIP3   OH241073   5.232   5.582   1.591 -0.0761  0.2248 -0.6058
 6505TIP3    H141074   5.286   5.596   1.669  0.2501  0.0054 -0.7888
 6505TIP3    H241075   5.287   5.528   1.534  0.1431  1.3302 -1.4569
 6506TIP3   OH241076   2.404   6.082   7.244  0.1262  1.0341  0.3462
 6506TIP3    H141077   2.434   6.159   7.291 -0.6499  1.6364 -0.1298
 6506TIP3    H241078   2.362   6.027   7.311  2.2115  0.1970  1.0112
 6507TIP3   OH241079   0.108   0.441   5.748  0.1264 -0.3806 -0.1357
 6507TIP3    H141080   0.018   0.446   5.780 -0.0380 -0.3469 -0.6024
 6507TIP3    H241081   0.160   0.478   5.819 -0.1983 -0.6955  0.2667
 6508TIP3   OH241082   5.998   0.913   7.866 -0.1127  0.2248 -0.5358
 6508TIP3    H141083   5.945   0.868   7.800 -0.3244 -0.7995  0.3312
 6508TIP3    H241084   5.986   0.863   7.946  0.5509  1.1692  0.1739
 6509TIP3   OH241085   1.723   0.241   2.093  0.7879  0.2743  0.0386
 6509TIP3    H141086   1.773   0.225   2.172 -0.3477  0.4355  0.7986
 6509TIP3    H241087   1.782   0.292   2.037  1.7199 -0.1624  0.6251
 6510TIP3   OH241088   6.220   1.663   1.255 -0.5318 -0.0861 -0.0421
 6510TIP3    H141089   6.287   1.634   1.317 -0.5226 -0.3764 -0.1866
 6510TIP3    H241090   6.206   1.756   1.276 -1.8783 -0.6377  1.6133
 6511TIP3   OH241091   4.797   5.223   6.411 -0.2373 -0.7006  0.1659
 6511TIP3    H141092   4.782   5.300   6.356 -0.6403 -1.4417 -0.7783
 6511TIP3    H241093   4.734   5.232   6.482 -1.6719 -1.1469 -1.0043
 6512TIP3   OH241094   6.599   3.860   0.125  0.0204 -0.7343 -0.3363
 6512TIP3    H141095   6.601   3.768   0.101  0.1209 -0.4322 -1.5127
 6512TIP3    H241096   6.508   3.876   0.150  0.3741 -1.5596  1.5411
 6513TIP3   OH241097   4.320   0.076   1.087 -0.2266  0.0976  0.0196
 6513TIP3    H141098   4.240   0.040   1.048 -0.2141  0.2889 -0.1815
 6513TIP3    H241099   4.297   0.091   1.179  0.1887 -1.7012  0.4348
 6514TIP3   OH241100   1.166   6.129   6.660 -0.5302 -0.0521 -0.0066
 6514TIP3    H141101   1.110   6.080   6.600 -1.0085  2.0271 -1.3053
 6514TIP3    H241102   1.104   6.175   6.717 -0.1424  0.8985 -0.3394
 6515TIP3   OH241103   0.604   2.073   1.505 -0.0293  0.0657 -0.3569
 6515TIP3    H141104   0.589   2.001   1.566 -0.3444  1.6351  1.4675
 6515TIP3    H241105   0.678   2.121   1.542  0.6963  0.2525 -1.9830
 6516TIP3   OH241106   1.404   6.611   6.221  0.1699  0.3824 -0.3000
 6516TIP3    H141107   1.322   6.633   6.266  1.2968  3.3898  0.4455
 6516TIP3    H241108   1.377   6.585   6.133 -1.6512  0.4795  0.2101
 6517TIP3   OH241109   2.897   3.311   1.489  0.2630 -0.1868 -0.0379
 6517TIP3    H141110   2.857   3.224   1.497  2.2376 -1.2061 -0.8607
 6517TIP3    H241111   2.964   3.300   1.422  2.6680  1.1841  2.0546
 6518TIP3   OH241112   4.872   5.610   1.224  0.6456 -0.2226 -0.1175
 6518TIP3    H141113   4.857   5.578   1.312 -0.1910 -1.1720 -0.6026
 6518TIP3    H241114   4.871   5.706   1.233  0.8863 -0.3146  0.9443
 6519TIP3   OH241115   0.552   5.806   7.601  0.2489  0.6024  0.3480
 6519TIP3    H141116   0.584   5.875   7.658 -0.0930  1.2404 -0.2284
 6519TIP3    H241117   0.628   5.782   7.547  0.1846  1.0008  0.0803
 6520TIP3   OH241118   5.325   5.186   1.047  1.0042  0.2803 -0.3039
 6520TIP3    H141119   5.259   5.123   1.018  1.6456 -0.7106  0.3773
 6520TIP3    H241120   5.359   5.224   0.965  1.2484 -0.9018 -0.7603
 6521TIP3   OH241121   2.392   6.989   0.391 -0.5091  0.1487  0.4095
 6521TIP3    H141122   2.379   6.937   0.312  0.5337  1.2491 -0.5079
 6521TIP3    H241123   2.483   6.972   0.416 -0.0374  1.7674 -0.1034
 6522TIP3   OH241124   3.791   1.035   7.789 -0.4308 -0.2422  0.0992
 6522TIP3    H141125   3.699   1.012   7.803 -0.6926 -0.2215 -1.4746
 6522TIP3    H241126   3.811   1.095   7.861 -2.4419  1.8733 -1.0280
 6523TIP3   OH241127   4.728   4.622   1.024 -0.4421  0.4642 -0.4766
 6523TIP3    H141128   4.803   4.563   1.026 -0.2403  0.7496  1.6851
 6523TIP3    H241129   4.762   4.706   1.055 -1.2794  1.0567 -1.1186
 6524TIP3   OH241130   3.537   1.540   6.606 -0.3050  0.1120 -0.5425
 6524TIP3    H141131   3.515   1.465   6.661 -1.6301  0.2020 -0.9290
 6524TIP3    H241132   3.565   1.502   6.523 -0.1880  0.0334 -0.4682
 6525TIP3   OH241133   4.047   1.571   0.717 -0.3828  0.0481  0.1910
 6525TIP3    H141134   4.108   1.623   0.665 -0.7740  0.5992  0.2835
 6525TIP3    H241135   4.062   1.481   0.688  0.0246  0.2533 -0.2412
 6526TIP3   OH241136   3.774   1.565   0.801  0.2739  0.0770 -0.4204
 6526TIP3    H141137   3.867   1.565   0.778  0.3792  0.7758 -0.0131
 6526TIP3    H241138   3.760   1.648   0.847  0.2478 -1.5114  2.6337
 6527TIP3   OH241139   3.243   0.391   6.215  0.3690 -0.1819 -0.4046
 6527TIP3    H141140   3.267   0.322   6.153 -1.9183 -0.3778 -1.0901
 6527TIP3    H241141   3.255   0.473   6.166  0.4997 -0.2178 -0.4345
 6528TIP3   OH241142   4.039   0.315   1.769 -0.0035  0.0140 -0.2362
 6528TIP3    H141143   4.132   0.341   1.767 -0.3815  1.4563  0.4195
 6528TIP3    H241144   4.006   0.350   1.851 -0.4834 -2.8846  0.8440
 6529TIP3   OH241145   6.477   0.659   6.750  0.6690  0.0330  0.4532
 6529TIP3    H141146   6.461   0.565   6.743 -4.6701  0.8093 -0.2442
 6529TIP3    H241147   6.442   0.683   6.836 -0.5104  1.7182 -0.4583
 6530TIP3   OH241148   3.141   0.022   6.253  0.6244  0.6511  0.2441
 6530TIP3    H141149   3.069   0.067   6.298  1.2741 -0.1193  2.0846
 6530TIP3    H241150   3.097  -0.039   6.194 -0.2551  2.8460 -1.4756
 6531TIP3   OH241151   7.011   1.944   0.107 -0.0584  0.3651  0.7573
 6531TIP3    H141152   7.078   1.963   0.041  0.1652  0.0688  0.8966
 6531TIP3    H241153   7.003   2.024   0.158 -1.6565  1.2745 -0.8744
 6532TIP3   OH241154   6.914   4.260   1.437 -0.3197 -0.0539 -0.5169
 6532TIP3    H141155   6.989   4.305   1.477  0.9826 -2.9616  0.4562
 6532TIP3    H241156   6.841   4.277   1.496  0.4921 -0.3756  0.5953
 6533TIP3   OH241157   5.155   5.411   6.793  0.3931  0.4282  0.6394
 6533TIP3    H141158   5.182   5.470   6.863  2.4135  0.7573 -0.3942
 6533TIP3    H241159   5.199   5.443   6.715 -0.2885 -1.0881 -0.4020
 6534TIP3   OH241160   2.342   1.421   1.460  0.0782  0.0272 -0.1892
 6534TIP3    H141161   2.349   1.381   1.373  0.9916  1.4539 -0.7830
 6534TIP3    H241162   2.430   1.455   1.477 -0.3116  0.4681  0.9509
 6535TIP3   OH241163   1.100   5.649   7.557 -0.0308 -0.5946  0.4098
 6535TIP3    H141164   1.108   5.693   7.641  0.4677  0.9546 -0.4259
 6535TIP3    H241165   1.190   5.639   7.526 -0.2264 -0.7502 -0.1215
 6536TIP3   OH241166   2.855   6.567   1.788  0.4722  0.3720 -0.2752
 6536TIP3    H141167   2.829   6.484   1.828  0.8848  0.5884  0.4507
 6536TIP3    H241168   2.780   6.592   1.735  0.4793 -0.6386 -0.7801
 6537TIP3   OH241169   4.285   4.881   1.025 -1.1071  0.0205 -0.6377
 6537TIP3    H141170   4.288   4.794   1.064  0.0015 -0.6359 -2.1213
 6537TIP3    H241171   4.296   4.941   1.099 -0.9643 -1.1362  0.2860
 6538TIP3   OH241172   4.548   0.385   6.123  0.1098 -0.1440  0.1054
 6538TIP3    H141173   4.621   0.331   6.092  0.0425  0.4920 -1.1756
 6538TIP3    H241174   4.565   0.472   6.086 -0.5226  0.3701  1.0033
 6539TIP3   OH241175   4.929   1.158   0.825  0.0801 -0.4090 -0.2127
 6539TIP3    H141176   4.901   1.068   0.844  0.6662 -0.6914 -0.6527
 6539TIP3    H241177   4.944   1.198   0.911 -0.0835 -0.7674 -0.0180
 6540TIP3   OH241178   6.162   3.327   1.674  0.6845 -0.3489  0.2565
 6540TIP3    H141179   6.090   3.266   1.690  0.6136  0.0966  1.7487
 6540TIP3    H241180   6.200   3.342   1.761  0.5694  1.8714 -0.0411
 6541TIP3   OH241181   4.484   6.134   1.732 -0.3064 -0.0367 -0.5688
 6541TIP3    H141182   4.428   6.157   1.806  0.3375 -1.0606  0.2683
 6541TIP3    H241183   4.424   6.099   1.666 -0.6926 -0.8758  0.2136
 6542TIP3   OH241184   4.595   1.969   1.178  1.3615 -0.5922  0.2109
 6542TIP3    H141185   4.535   1.918   1.124  1.7404  0.7332 -1.5073
 6542TIP3    H241186   4.670   1.910   1.192  1.7546 -0.5655 -1.6656
 6543TIP3   OH241187   6.635   4.901   0.631 -0.0096 -0.2596  0.0595
 6543TIP3    H141188   6.572   4.926   0.699 -0.4394 -2.1473  0.3824
 6543TIP3    H241189   6.603   4.817   0.598  0.9609 -0.0233 -1.5272
 6544TIP3   OH241190   5.694   5.497   7.902 -0.7352  0.2168 -0.3635
 6544TIP3    H141191   5.641   5.575   7.922  1.1818  1.3927  0.2615
 6544TIP3    H241192   5.738   5.518   7.820  0.8437  0.3609  0.5088
 6545TIP3   OH241193   3.167   2.436   7.125 -0.1379  0.1793 -0.5527
 6545TIP3    H141194   3.122   2.373   7.181  0.4476  0.0798 -0.1880
 6545TIP3    H241195   3.107   2.450   7.051 -1.6732  1.6007  0.9294
 6546TIP3   OH241196   1.169   0.087   0.632 -0.2730 -0.4928 -0.6569
 6546TIP3    H141197   1.253   0.044   0.645  0.4078  1.1536  0.6067
 6546TIP3    H241198   1.175   0.127   0.546  0.8586  0.9301  0.0608
 6547TIP3   OH241199   2.969   2.175   0.986  0.3797  0.1991 -0.1230
 6547TIP3    H141200   3.030   2.218   1.046  1.0794 -1.0589  0.0949
 6547TIP3    H241201   3.024   2.147   0.912  0.1444 -1.2528  0.2351
 6548TIP3   OH241202   5.842   1.838   7.069  0.5135 -0.5500  0.1382
 6548TIP3    H141203   5.894   1.919   7.067  1.7243 -1.3377 -2.9282
 6548TIP3    H241204   5.752   1.867   7.056  1.0338  0.2715 -1.8055
 6549TIP3   OH241205   1.937   4.765   1.030  0.5779 -0.3195  0.3369
 6549TIP3    H141206   1.949   4.860   1.036  2.2503 -0.2847 -2.6770
 6549TIP3    H241207   1.998   4.729   1.095  3.2399  0.5786 -1.5644
 6550TIP3   OH241208   4.286   6.131   6.874  0.1428  0.3650  0.1509
 6550TIP3    H141209   4.334   6.201   6.829  0.8121  0.2174  0.6252
 6550TIP3    H241210   4.343   6.106   6.946 -0.1916 -0.5380  0.1033
 6551TIP3   OH241211   2.486   5.445   6.696 -0.4757 -0.4610 -0.3126
 6551TIP3    H141212   2.524   5.515   6.644  1.4810  1.6448  3.6625
 6551TIP3    H241213   2.401   5.479   6.723 -0.0074 -0.0237  0.6679
 6552TIP3   OH241214   2.120   6.319   2.001 -0.0431 -0.0663  0.2841
 6552TIP3    H141215   2.074   6.403   2.004 -1.6361 -0.8484 -1.2488
 6552TIP3    H241216   2.050   6.254   2.008  1.3294 -1.3055  3.5066
 6553TIP3   OH241217   5.841   2.963   6.985  0.1964  0.3050  0.2851
 6553TIP3    H141218   5.925   2.970   6.939 -1.0816 -0.3047 -2.2417
 6553TIP3    H241219   5.775   2.981   6.918 -1.7464 -0.3469  1.9626
 6554TIP3   OH241220   3.341   0.335   1.672  0.6826  0.4556 -0.0574
 6554TIP3    H141221   3.392   0.255   1.682  0.5412  0.3112 -0.4948
 6554TIP3    H241222   3.322   0.362   1.762  1.5142  0.5016  0.1073
 6555TIP3   OH241223   4.903   0.898   0.941  0.3246  0.6821  0.0030
 6555TIP3    H141224   4.871   0.892   1.031 -0.1611  0.2172 -0.1948
 6555TIP3    H241225   4.871   0.818   0.899 -0.4851  1.4731 -0.9145
 6556TIP3   OH241226   2.965   0.419   0.099 -0.5096  0.0063  0.1978
 6556TIP3    H141227   2.979   0.418   0.004  0.9101  1.5839  0.3526
 6556TIP3    H241228   3.030   0.357   0.133 -2.8797 -2.6824 -0.0324
 6557TIP3   OH241229   6.918   4.837   0.623  0.7625 -0.2118 -0.0943
 6557TIP3    H141230   6.970   4.915   0.604 -0.2844  0.4154 -0.4474
 6557TIP3    H241231   6.829   4.861   0.596 -0.0532 -0.6153  2.1812
 6558TIP3   OH241232   1.156   6.596   1.706  0.5069 -0.0715 -0.5782
 6558TIP3    H141233   1.080   6.614   1.651  0.6400  1.7023 -0.2279
 6558TIP3    H241234   1.119   6.579   1.793  0.5024  1.1177 -0.3325
 6559TIP3   OH241235   2.970   4.061   0.524 -0.5132 -0.2678 -0.2043
 6559TIP3    H141236   2.926   4.010   0.456  0.2092  1.6165 -2.1501
 6559TIP3    H241237   2.912   4.136   0.538 -0.2017 -0.1805  0.6088
 6560TIP3   OH241238   2.333   0.809   6.475  0.1660  0.0514  0.6065
 6560TIP3    H141239   2.266   0.755   6.516 -0.7008  0.7170  0.0847
 6560TIP3    H241240   2.389   0.837   6.547 -1.3782  1.2703  1.3690
 6561TIP3   OH241241   5.584   5.809   6.036  0.3044  0.3270 -0.4681
 6561TIP3    H141242   5.502   5.761   6.021  2.6696 -2.8585 -4.1114
 6561TIP3    H241243   5.626   5.762   6.108  0.2110  0.2009 -0.4944
 6562TIP3   OH241244   4.537   4.258   7.334 -0.1495 -0.3507  0.2459
 6562TIP3    H141245   4.503   4.257   7.424 -0.0132  0.4868  0.3066
 6562TIP3    H241246   4.460   4.275   7.279 -0.4554 -2.0840  0.0938
 6563TIP3   OH241247   4.439   3.973   1.080  0.0052  0.0083  0.3128
 6563TIP3    H141248   4.494   4.017   1.015 -0.2762 -1.3826 -0.9093
 6563TIP3    H241249   4.445   4.028   1.158 -0.7934  2.4998 -1.3300
 6564TIP3   OH241250   4.744   4.008   1.196  0.0613  0.3183 -0.6789
 6564TIP3    H141251   4.731   3.999   1.291 -0.5635  0.8379 -0.7103
 6564TIP3    H241252   4.675   4.069   1.168 -0.3272 -0.5261 -1.6142
 6565TIP3   OH241253   3.464   5.607   7.498  0.3362 -0.2189  0.0455
 6565TIP3    H141254   3.540   5.593   7.554 -1.6940 -0.2847  2.9081
 6565TIP3    H241255   3.431   5.693   7.523  0.2528  0.4329 -2.1825
 6566TIP3   OH241256   4.761   4.000   6.880 -0.1637  0.1424 -0.5530
 6566TIP3    H141257   4.802   4.016   6.965 -1.5536  0.2063  0.1143
 6566TIP3    H241258   4.734   3.908   6.884  1.0477 -0.2626 -1.4820
 6567TIP3   OH241259   5.193   0.906   1.506 -0.1848  0.1950 -0.0996
 6567TIP3    H141260   5.235   0.833   1.460  1.2589  0.8181  0.2294
 6567TIP3    H241261   5.132   0.864   1.567  0.8813 -0.7456  0.3311
 6568TIP3   OH241262   4.291   0.142   0.556  0.3182  0.6913  0.0519
 6568TIP3    H141263   4.334   0.179   0.633 -1.2707  0.4063  1.1169
 6568TIP3    H241264   4.270   0.052   0.581  2.5538 -0.3952 -1.8706
 6569TIP3   OH241265   3.934   6.044   7.146  0.1840  0.3401  0.8171
 6569TIP3    H141266   3.917   6.068   7.238 -2.9390 -1.2733  0.7078
 6569TIP3    H241267   3.922   5.949   7.144 -0.1815  0.4281 -1.3625
 6570TIP3   OH241268   1.276   2.181   1.072  0.1080 -0.3326 -0.2911
 6570TIP3    H141269   1.281   2.263   1.122  2.9847  0.2195 -1.3665
 6570TIP3    H241270   1.326   2.119   1.124 -0.0657 -0.7665 -0.6456
 6571TIP3   OH241271   3.791   0.824   6.768  0.1359  0.3514  0.5420
 6571TIP3    H141272   3.842   0.906   6.769 -0.3601  0.7311 -1.6113
 6571TIP3    H241273   3.716   0.844   6.711  1.3354 -2.3290 -2.1155
 6572TIP3   OH241274   3.830   5.199   7.164 -0.2430 -0.2547 -0.1399
 6572TIP3    H141275   3.839   5.124   7.105  2.2886 -0.2639  0.1944
 6572TIP3    H241276   3.920   5.225   7.183 -1.0673  1.4884  1.5160
 6573TIP3   OH241277   4.402   6.441   7.391  0.2738 -0.5521  0.2052
 6573TIP3    H141278   4.494   6.437   7.364  0.1295  1.3976 -0.6386
 6573TIP3    H241279   4.400   6.511   7.456 -0.7763  0.0059 -0.4309
 6574TIP3   OH241280   3.898   2.233   7.235 -0.0942 -0.3592 -0.1134
 6574TIP3    H141281   3.921   2.170   7.303  0.6789 -1.0078 -0.9695
 6574TIP3    H241282   3.968   2.227   7.171 -0.0438  1.3254 -0.2501
 6575TIP3   OH241283   1.053   4.859   0.477  0.2625 -0.2354  0.0650
 6575TIP3    H141284   1.074   4.951   0.461  2.2872 -0.5445  0.8342
 6575TIP3    H241285   1.137   4.813   0.471 -0.4970 -1.8396  1.1212
 6576TIP3   OH241286   5.162   6.181   7.474 -0.1245  0.3033  0.2739
 6576TIP3    H141287   5.208   6.206   7.554 -0.8026  0.0331  0.7520
 6576TIP3    H241288   5.093   6.121   7.503  0.5156 -0.9388 -0.6768
 6577TIP3   OH241289   5.093   6.326   7.931  0.4572  0.1605 -0.3554
 6577TIP3    H141290   5.021   6.353   7.873 -0.4473 -1.5547 -0.0627
 6577TIP3    H241291   5.169   6.321   7.874  0.2901  1.6574 -0.7447
 6578TIP3   OH241292   6.063   5.796   1.696  0.4352  0.0982  0.2099
 6578TIP3    H141293   6.047   5.886   1.722  0.1195 -0.2550  1.2690
 6578TIP3    H241294   6.042   5.744   1.774 -0.0849 -0.9437 -0.6002
 6579TIP3   OH241295   5.359   1.591   1.025 -0.1004  0.2272 -0.0333
 6579TIP3    H141296   5.293   1.545   1.078 -1.2445 -0.6184 -2.1333
 6579TIP3    H241297   5.335   1.684   1.033 -0.9489  0.0080  0.0183
 6580TIP3   OH241298   2.835   6.665   0.389 -0.2726  0.3577 -0.2471
 6580TIP3    H141299   2.828   6.574   0.361 -1.2586  0.0068  1.1193
 6580TIP3    H241300   2.800   6.666   0.478  2.1090  1.5923  0.7341
 6581TIP3   OH241301   1.059   3.805   8.093  0.2902  0.0095  0.2130
 6581TIP3    H141302   1.064   3.876   8.029  1.2459  0.5157  0.8192
 6581TIP3    H241303   1.042   3.849   8.176  2.6043 -0.2608  0.8882
 6582TIP3   OH241304   3.992   6.813   0.906  0.3232  0.7737  0.1098
 6582TIP3    H141305   4.024   6.735   0.951 -0.0249 -0.9383 -2.5000
 6582TIP3    H241306   3.901   6.821   0.934  0.5106  0.5532  0.7842
 6583TIP3   OH241307   5.849   5.953   7.942  0.4028 -0.2315 -0.3963
 6583TIP3    H141308   5.775   5.951   8.002  1.0764 -1.3485  0.4385
 6583TIP3    H241309   5.816   5.994   7.862 -0.9619 -0.2751  0.1444
 6584TIP3   OH241310   6.625   0.285   5.972  0.1397  0.3835  0.0483
 6584TIP3    H141311   6.609   0.360   6.030 -1.1310  0.7897 -0.8059
 6584TIP3    H241312   6.539   0.262   5.938  0.5231 -1.4852  0.3043
 6585TIP3   OH241313   6.977   5.010   1.710  0.2307 -0.1691 -0.3555
 6585TIP3    H141314   6.896   5.016   1.660 -0.6073  0.1633  1.0274
 6585TIP3    H241315   7.021   4.933   1.675 -2.1871 -2.2562  1.0581
 6586TIP3   OH241316   5.953   5.206   1.435 -0.0807 -0.1322 -0.4429
 6586TIP3    H141317   5.909   5.134   1.480  0.5644  0.5720  1.3785
 6586TIP3    H241318   5.910   5.212   1.351 -2.4022 -0.4870  0.6844
 6587TIP3   OH241319   1.664   1.151   1.190 -1.0580  0.5710  0.3602
 6587TIP3    H141320   1.622   1.209   1.125 -2.4107  0.1446  0.8404
 6587TIP3    H241321   1.596   1.089   1.214  0.7610 -2.0701 -1.0972
 6588TIP3   OH241322   6.027   7.078   1.626 -0.0984  0.6273  0.0312
 6588TIP3    H141323   5.971   7.024   1.570  1.3555 -0.2933 -0.5832
 6588TIP3    H241324   6.027   7.034   1.711 -0.0624  0.4518 -0.0596
 6589TIP3   OH241325   4.696   1.314   6.994  0.1908  0.2393 -0.2346
 6589TIP3    H141326   4.634   1.341   6.926 -1.9749 -1.6028  0.9342
 6589TIP3    H241327   4.702   1.219   6.986 -0.9750 -0.1641  2.7959
 6590TIP3   OH241328   4.964   1.523   0.882 -0.5700 -0.1239 -0.6675
 6590TIP3    H141329   4.870   1.525   0.864 -0.7641 -0.9051  0.2111
 6590TIP3    H241330   4.971   1.533   0.977  0.3334  1.8263 -0.9088
 6591TIP3   OH241331   2.432   3.912   6.573 -0.2014 -0.5625  0.1771
 6591TIP3    H141332   2.366   3.861   6.620  0.7472 -2.0911 -0.0976
 6591TIP3    H241333   2.478   3.961   6.641  0.1377 -1.5728  0.6844
 6592TIP3   OH241334   2.924   1.409   7.693 -0.1525 -0.2386  0.6936
 6592TIP3    H141335   2.896   1.459   7.616 -0.1599  0.3340  1.0611
 6592TIP3    H241336   2.903   1.466   7.767  2.2020  0.3091  0.9665
 6593TIP3   OH241337   1.579   5.299   0.868  0.0610  0.1517  0.0576
 6593TIP3    H141338   1.564   5.368   0.803 -0.2765 -0.4725 -0.5364
 6593TIP3    H241339   1.515   5.316   0.937  1.3214  1.6232  0.8935
 6594TIP3   OH241340   2.120   4.620   0.043  0.2378 -0.5602 -0.4809
 6594TIP3    H141341   2.039   4.573   0.022  0.1338 -1.1795  1.1936
 6594TIP3    H241342   2.185   4.551   0.055  0.2770 -0.2504  1.1908
 6595TIP3   OH241343   3.092   3.863   6.833 -0.3230  0.0338 -0.3818
 6595TIP3    H141344   3.136   3.778   6.835 -0.2386  0.0846 -0.0421
 6595TIP3    H241345   3.046   3.864   6.749 -1.6118 -0.9982  0.2948
 6596TIP3   OH241346   2.814   2.285   6.739  0.3382  0.5582  0.2112
 6596TIP3    H141347   2.812   2.202   6.692  1.2654  0.0391  1.0651
 6596TIP3    H241348   2.723   2.314   6.741  0.1912  0.2593 -1.2998
 6597TIP3   OH241349   6.261   3.440   7.342  0.4055 -0.4175  0.2961
 6597TIP3    H141350   6.247   3.524   7.297 -1.0484  0.8233  2.9874
 6597TIP3    H241351   6.179   3.423   7.387  1.6331 -1.9316  2.0121
 6598TIP3   OH241352   6.700   4.895   7.738  0.1179 -0.2060 -0.1500
 6598TIP3    H141353   6.616   4.935   7.717  0.3330 -0.7971 -2.2318
 6598TIP3    H241354   6.762   4.968   7.739 -0.3939  0.2371  1.4335
 6599TIP3   OH241355   4.019   5.880   7.934 -0.8737  0.3910  0.3612
 6599TIP3    H141356   3.969   5.962   7.936 -3.0522 -0.8862  0.4941
 6599TIP3    H241357   3.995   5.839   7.851  1.2746  0.5037 -0.3484
 6600TIP3   OH241358   0.026   5.492   0.808 -0.5322 -0.0256 -0.4764
 6600TIP3    H141359   0.066   5.549   0.742  1.5567 -0.5309  0.3021
 6600TIP3    H241360   0.073   5.409   0.799  1.5576  0.6372  3.2737
 6601TIP3   OH241361   5.438   0.509   1.238 -0.1626  0.5643  0.4322
 6601TIP3    H141362   5.495   0.433   1.232 -2.4546 -1.2023  0.6095
 6601TIP3    H241363   5.464   0.564   1.164  2.9998  0.7121  1.5837
 6602TIP3   OH241364   5.508   4.067   7.812 -0.4254  0.2181  0.8436
 6602TIP3    H141365   5.491   3.980   7.777  0.8148  0.7402 -1.1759
 6602TIP3    H241366   5.421   4.105   7.826 -0.9586 -0.9530  0.7513
 6603TIP3   OH241367   4.749   4.734   1.364 -0.2449 -0.6559  0.4668
 6603TIP3    H141368   4.831   4.713   1.409  0.6047 -0.1738 -0.8145
 6603TIP3    H241369   4.682   4.686   1.412  0.5320  0.3569  2.6593
 6604TIP3   OH241370   3.104   0.636   6.632  0.5762 -0.0030 -0.9094
 6604TIP3    H141371   3.050   0.704   6.672 -0.2160 -1.1660  0.0344
 6604TIP3    H241372   3.179   0.626   6.690 -0.3681 -1.4037  0.0984
 6605TIP3   OH241373   3.783   0.478   6.652  0.3480 -0.4294  0.0356
 6605TIP3    H141374   3.760   0.393   6.691  2.5020 -0.5171  1.1898
 6605TIP3    H241375   3.811   0.456   6.563 -1.2765 -0.6289 -0.4561
 6606TIP3   OH241376   0.053   1.797   7.543 -0.1935  0.1786  0.2291
 6606TIP3    H141377   0.126   1.788   7.482  0.8218 -0.7347  1.5697
 6606TIP3    H241378   0.026   1.889   7.535  1.6330  0.7347  0.3415
 6607TIP3   OH241379   1.021   2.744   0.955 -0.1199 -0.4338  0.1021
 6607TIP3    H141380   1.050   2.793   0.878 -0.1338  0.8387  0.8835
 6607TIP3    H241381   1.054   2.655   0.941 -1.4364 -0.6133 -2.0881
 6608TIP3   OH241382   6.472   6.361   1.943  0.1708 -0.5235 -0.3214
 6608TIP3    H141383   6.409   6.337   2.011  1.5931  1.2724  1.7095
 6608TIP3    H241384   6.528   6.285   1.934 -1.4351 -1.6362 -1.1843
 6609TIP3   OH241385   2.222   5.992   6.894 -0.1139 -0.2425 -0.4873
 6609TIP3    H141386   2.235   5.918   6.836  0.8225 -0.7109  0.3082
 6609TIP3    H241387   2.302   5.996   6.947 -0.6871  0.5511  0.3447
 6610TIP3   OH241388   5.773   6.616   1.661 -0.0727 -0.2571 -0.2550
 6610TIP3    H141389   5.793   6.554   1.731  0.4575 -0.2472 -0.3902
 6610TIP3    H241390   5.752   6.697   1.707  2.7832  0.4821 -0.1188
 6611TIP3   OH241391   4.885   0.693   7.281 -0.1732 -0.3644 -0.2013
 6611TIP3    H141392   4.944   0.618   7.281 -1.9241 -1.7715 -0.3379
 6611TIP3    H241393   4.798   0.655   7.296 -1.0119  1.6876  0.2383
 6612TIP3   OH241394   4.631   6.587   0.040  0.3260  0.1924 -0.0071
 6612TIP3    H141395   4.591   6.531   0.106 -0.8444  2.4093  1.1991
 6612TIP3    H241396   4.624   6.675   0.075 -0.5525  1.4612 -3.2207
 6613TIP3   OH241397   2.389   3.636   7.920  0.2186 -0.0779  0.3083
 6613TIP3    H141398   2.329   3.600   7.855 -0.4524  0.2724  0.7282
 6613TIP3    H241399   2.431   3.710   7.876 -0.5543  0.4280  0.4157
 6614TIP3   OH241400   5.893   0.582   1.423 -0.3507  0.1722 -0.0714
 6614TIP3    H141401   5.866   0.493   1.448  1.4912 -0.1423  0.8903
 6614TIP3    H241402   5.870   0.636   1.498 -0.8909  0.4008 -0.4008
 6615TIP3   OH241403   2.206   3.110   0.086 -0.0442 -0.0199 -0.0973
 6615TIP3    H141404   2.167   3.050   0.022  0.6270 -0.0432 -0.4836
 6615TIP3    H241405   2.180   3.073   0.171  0.2693 -0.8029 -0.3338
 6616TIP3   OH241406   4.666   5.261   2.094 -0.5697 -0.0102  0.0691
 6616TIP3    H141407   4.624   5.186   2.135 -2.6836  0.9999 -0.1903
 6616TIP3    H241408   4.597   5.327   2.087  1.2802  2.0478  0.4760
 6617TIP3   OH241409   0.770   5.445   0.931 -0.1685  0.2242 -0.0428
 6617TIP3    H141410   0.675   5.446   0.918 -0.3020 -0.9792  0.8632
 6617TIP3    H241411   0.785   5.379   0.999  1.2475  0.9516  0.3687
 6618TIP3   OH241412   4.085   4.116   7.221 -0.3122 -0.7675 -0.5595
 6618TIP3    H141413   4.060   4.044   7.279 -1.0905 -1.2465 -1.4674
 6618TIP3    H241414   4.006   4.171   7.216 -0.1335 -0.5360 -0.8712
 6619TIP3   OH241415   4.270   5.049   0.310  0.3352 -0.3865  0.1116
 6619TIP3    H141416   4.259   5.131   0.357  1.8218 -0.2505  0.2454
 6619TIP3    H241417   4.289   5.075   0.220  0.9543 -0.5820  0.1861
 6620TIP3   OH241418   1.910   6.472   6.883 -0.4406  0.3385  0.3604
 6620TIP3    H141419   1.986   6.415   6.870  0.1705  0.9262  1.2419
 6620TIP3    H241420   1.844   6.415   6.923  0.8555  0.6568  3.0946
 6621TIP3   OH241421   5.006   6.421   1.188  0.4726 -0.3693 -0.5677
 6621TIP3    H141422   5.075   6.400   1.125  0.2199 -0.2823 -0.8677
 6621TIP3    H241423   4.942   6.351   1.179 -0.9203  1.0774 -2.3510
 6622TIP3   OH241424   3.764   6.680   0.031 -0.2042 -0.4520 -0.0876
 6622TIP3    H141425   3.695   6.627   0.070  0.6206 -1.9988 -0.6911
 6622TIP3    H241426   3.820   6.617  -0.016  2.0854  0.6447  1.0767
 6623TIP3   OH241427   6.845   1.056   0.153 -0.6494 -0.3402 -0.3297
 6623TIP3    H141428   6.755   1.058   0.120 -0.9262 -1.0667  0.3597
 6623TIP3    H241429   6.864   1.146   0.178 -1.7515 -0.4612  1.0012
 6624TIP3   OH241430   3.210   4.168   1.345  0.1999  0.2600 -0.4224
 6624TIP3    H141431   3.257   4.085   1.339  0.2184  0.3415 -1.3344
 6624TIP3    H241432   3.228   4.199   1.434  1.5674  0.1079 -0.6413
 6625TIP3   OH241433   6.499   0.035   0.655  0.2937  0.0312  0.1229
 6625TIP3    H141434   6.520  -0.027   0.585  1.1359 -0.7453  1.0519
 6625TIP3    H241435   6.409   0.015   0.679  1.0044 -1.7703  1.3597
 6626TIP3   OH241436   4.799   6.098   7.465 -0.2138 -0.0917 -0.5362
 6626TIP3    H141437   4.829   6.129   7.380  1.2030  1.3247  0.4359
 6626TIP3    H241438   4.867   6.037   7.494 -1.3133 -1.5503 -0.9434
 6627TIP3   OH241439   4.412   4.892   0.079  0.0978 -0.0707 -0.2134
 6627TIP3    H141440   4.486   4.833   0.090 -1.2722 -1.6639  0.7894
 6627TIP3    H241441   4.358   4.878   0.157 -0.8240  1.7113 -0.4893
 6628TIP3   OH241442   5.755   7.038   0.298  0.0325  0.5026 -0.1274
 6628TIP3    H141443   5.664   7.047   0.325 -0.2017  0.1715 -0.7900
 6628TIP3    H241444   5.786   7.128   0.287 -1.0951  0.6162 -2.7890
 6629TIP3   OH241445   4.867   6.833   6.858 -0.2705  0.0552  0.1922
 6629TIP3    H141446   4.904   6.922   6.859 -0.1130  0.0006 -0.4795
 6629TIP3    H241447   4.896   6.796   6.775  1.3707 -1.3503  1.3391
 6630TIP3   OH241448   2.131   5.460   1.515 -0.4494  0.3449  0.0898
 6630TIP3    H141449   2.187   5.468   1.438 -0.3117 -0.3434  0.1212
 6630TIP3    H241450   2.048   5.501   1.488  0.3040  2.0623  0.2990
 6631TIP3   OH241451   6.778   1.256   0.386  0.1412 -0.1735  0.3977
 6631TIP3    H141452   6.855   1.308   0.363  0.8193 -0.9134  0.9569
 6631TIP3    H241453   6.809   1.195   0.453 -1.2180  0.3443  1.5490
 6632TIP3   OH241454   4.056   1.861   1.048 -0.1639  0.3147  0.0941
 6632TIP3    H141455   3.977   1.823   1.009  0.1086  0.2174 -0.3637
 6632TIP3    H241456   4.084   1.795   1.112 -0.7829  0.6120  0.6863
 6633TIP3   OH241457   2.471   4.714   0.047 -0.1060 -0.3204  0.4115
 6633TIP3    H141458   2.565   4.704   0.030  0.6712  2.8907  2.3408
 6633TIP3    H241459   2.433   4.731  -0.039  1.3063 -0.3752 -0.2424
 6634TIP3   OH241460   3.715   4.327   1.461 -0.0214  0.7782  0.3207
 6634TIP3    H141461   3.658   4.321   1.385  0.3297  2.3508 -0.0905
 6634TIP3    H241462   3.750   4.417   1.458  1.5103  0.2390  1.2405
 6635TIP3   OH241463   3.386   4.687   1.666 -0.3951 -0.5255 -0.8431
 6635TIP3    H141464   3.327   4.759   1.689  0.0203 -0.0769 -1.1824
 6635TIP3    H241465   3.376   4.624   1.738 -0.8268 -0.1728 -0.5928
 6636TIP3   OH241466   2.684   4.512   7.543  0.0608  0.5486 -0.0751
 6636TIP3    H141467   2.685   4.529   7.449  0.3105 -2.5426 -0.6769
 6636TIP3    H241468   2.676   4.417   7.551  1.6346  0.5841  3.0074
 6637TIP3   OH241469   2.300   1.467   6.588  0.2984  0.1320  0.5458
 6637TIP3    H141470   2.309   1.429   6.501 -1.1294 -0.7596  0.7654
 6637TIP3    H241471   2.259   1.553   6.573  1.0479  0.4459  0.2655
 6638TIP3   OH241472   0.561   3.160   0.083 -0.0341  0.3983  0.1492
 6638TIP3    H141473   0.524   3.112   0.157  1.8557 -1.2899  0.0524
 6638TIP3    H241474   0.622   3.098   0.042  3.1951  3.1261  0.5664
 6639TIP3   OH241475   4.351   0.474   7.417 -0.6076  0.1070  0.3314
 6639TIP3    H141476   4.424   0.485   7.477  0.2570  2.1404 -1.0373
 6639TIP3    H241477   4.391   0.442   7.336 -1.2236  1.2223 -0.4235
 6640TIP3   OH241478   7.076   4.426   1.683 -0.1414 -0.0941 -0.4315
 6640TIP3    H141479   7.158   4.400   1.723 -0.4086 -0.1268  0.1056
 6640TIP3    H241480   7.009   4.381   1.734 -0.7151  2.8497  1.5569
 6641TIP3   OH241481   6.113   0.255   8.109  0.1062  0.3823  0.0615
 6641TIP3    H141482   6.109   0.267   8.014 -1.7145  0.7859  0.1833
 6641TIP3    H241483   6.178   0.320   8.138  0.6727  0.2504 -0.8961
 6642TIP3   OH241484   0.273   0.330   0.859 -0.1798  0.0140  0.0108
 6642TIP3    H141485   0.318   0.414   0.861 -0.7453  0.3851 -1.9517
 6642TIP3    H241486   0.275   0.304   0.767 -0.0609 -2.0951  0.5867
 6643TIP3   OH241487   1.986   4.104   1.081 -0.3170 -0.0666  0.4642
 6643TIP3    H141488   2.010   4.193   1.055 -1.1514 -0.0760 -0.4039
 6643TIP3    H241489   1.978   4.107   1.176 -0.5469  0.8482  0.4179
 6644TIP3   OH241490   6.936   1.058   1.817 -0.2986 -0.1026 -0.1092
 6644TIP3    H141491   6.871   1.081   1.750  0.7701 -0.2346 -1.2141
 6644TIP3    H241492   6.993   1.135   1.822  0.4180 -0.6228 -0.3101
 6645TIP3   OH241493   0.351   1.494   7.091 -0.2027  0.4559 -0.0079
 6645TIP3    H141494   0.318   1.405   7.082  0.3743  0.2907 -0.4839
 6645TIP3    H241495   0.329   1.537   7.008 -0.1839  0.6602  0.0912
 6646TIP3   OH241496   1.424   0.009   0.798  0.4328 -0.0283  0.1257
 6646TIP3    H141497   1.429  -0.035   0.713  1.1774  0.8876 -0.3096
 6646TIP3    H241498   1.515   0.033   0.818  0.3553 -0.8547  1.5074
 6647TIP3   OH241499   5.396   6.565   0.980  0.3896  0.4440  0.0445
 6647TIP3    H141500   5.330   6.500   0.958  0.5103  0.4822 -0.4420
 6647TIP3    H241501   5.372   6.643   0.930 -0.7113  1.3330  1.8980
 6648TIP3   OH241502   5.123   5.940   0.523  0.3054  0.5162 -0.2448
 6648TIP3    H141503   5.188   5.909   0.587  2.1063 -1.2796 -2.8375
 6648TIP3    H241504   5.039   5.933   0.569  1.7577  1.4162  2.6564
 6649TIP3   OH241505   4.758   3.808   7.427 -0.2727  0.0581  0.2199
 6649TIP3    H141506   4.787   3.723   7.459  0.3890 -0.1769 -0.9768
 6649TIP3    H241507   4.763   3.801   7.332  0.0957  1.5412  0.1122
 6650TIP3   OH241508   0.095   6.521   1.453 -0.6885 -0.4172 -0.8774
 6650TIP3    H141509   0.088   6.430   1.480 -1.7262 -0.0805  0.0140
 6650TIP3    H241510   0.072   6.521   1.360  0.9747 -1.2966 -1.3003
 6651TIP3   OH241511   6.251   0.327   0.471  0.0949 -0.0546 -0.1390
 6651TIP3    H141512   6.216   0.247   0.433 -0.5241 -0.4235  1.1666
 6651TIP3    H241513   6.339   0.304   0.500 -0.6478 -0.7271  1.6519
 6652TIP3   OH241514   2.963   6.005   0.397 -0.2870  0.6452  0.5804
 6652TIP3    H141515   3.044   6.052   0.379 -0.1757  1.2409  2.5266
 6652TIP3    H241516   2.904   6.071   0.433 -1.0337 -0.1619  0.8584
 6653TIP3   OH241517   2.527   2.049   6.821  0.3722 -0.0717 -0.0045
 6653TIP3    H141518   2.485   1.964   6.810  1.5300 -0.6867  0.2289
 6653TIP3    H241519   2.544   2.078   6.731  0.8982 -0.5589 -0.0645
 6654TIP3   OH241520   3.217   0.897   7.579  0.0066  0.3183  0.3304
 6654TIP3    H141521   3.184   0.920   7.492 -1.3420 -2.4312  0.0851
 6654TIP3    H241522   3.184   0.967   7.636 -0.4548  1.2795 -1.0818
 6655TIP3   OH241523   1.351   5.609   1.234  0.5316 -0.1383 -0.4558
 6655TIP3    H141524   1.407   5.669   1.283  1.3058 -0.8403 -0.4663
 6655TIP3    H241525   1.273   5.599   1.289 -0.0726  1.6799 -0.9477
 6656TIP3   OH241526   1.282   5.355   6.949  0.4722 -0.1473 -0.2775
 6656TIP3    H141527   1.233   5.291   7.002  1.9160 -0.6860  0.4392
 6656TIP3    H241528   1.359   5.307   6.919  1.4422  1.1852  0.0531
 6657TIP3   OH241529   4.722   5.937   0.935 -0.8082  0.3125  0.2867
 6657TIP3    H141530   4.665   5.907   0.865 -0.7852  1.6358 -0.3088
 6657TIP3    H241531   4.672   6.005   0.980  0.2025  1.3080 -0.0844
 6658TIP3   OH241532   0.431   4.227   0.536 -1.0145 -0.2934 -0.3355
 6658TIP3    H141533   0.475   4.147   0.564  0.1917  0.5040  0.0777
 6658TIP3    H241534   0.362   4.197   0.478 -1.7020 -1.7709  1.1991
 6659TIP3   OH241535   3.529   4.417   1.703 -0.2930  0.5973 -0.4351
 6659TIP3    H141536   3.475   4.435   1.781  0.9679  0.5092  0.4736
 6659TIP3    H241537   3.600   4.481   1.708  1.9328 -1.8582  0.5853
 6660TIP3   OH241538   2.435   3.290   1.301 -0.6580 -0.4495 -0.4409
 6660TIP3    H141539   2.467   3.235   1.372 -0.7500 -0.1144 -0.1395
 6660TIP3    H241540   2.391   3.229   1.242 -1.0329 -0.6569  0.0463
 6661TIP3   OH241541   5.635   1.589   1.018 -0.1674  0.0422  0.0763
 6661TIP3    H141542   5.541   1.606   1.015  0.1060  1.9136  1.1208
 6661TIP3    H241543   5.664   1.635   1.097  2.1354  2.2000 -1.9361
 6662TIP3   OH241544   4.717   0.395   0.494 -0.0426  0.0677  0.1851
 6662TIP3    H141545   4.756   0.479   0.520  0.4874  0.1971 -0.9836
 6662TIP3    H241546   4.791   0.342   0.465 -0.5091 -0.4003 -0.1558
 6663TIP3   OH241547   6.913   3.908   0.742  0.2743  0.0996 -0.5132
 6663TIP3    H141548   6.934   3.952   0.825 -1.0809 -0.1376 -0.0325
 6663TIP3    H241549   6.917   3.978   0.677  0.0994  0.5527 -0.0464
 6664TIP3   OH241550   5.216   2.749   6.752 -0.1835 -0.0469 -0.6424
 6664TIP3    H141551   5.245   2.671   6.799  2.0793  1.1913  0.0773
 6664TIP3    H241552   5.247   2.735   6.662 -0.6865 -0.4392 -0.7565
 6665TIP3   OH241553   3.694   4.012   2.121  0.1912 -0.6852  0.0312
 6665TIP3    H141554   3.643   3.980   2.047 -0.2310  0.9691 -0.3969
 6665TIP3    H241555   3.782   4.025   2.086 -0.2852  1.2294 -0.4990
 6666TIP3   OH241556   6.181   5.683   0.587  0.1181 -0.5356 -0.4993
 6666TIP3    H141557   6.107   5.727   0.545 -1.0330 -1.9542  0.0245
 6666TIP3    H241558   6.247   5.753   0.598 -2.4065  1.5410  2.1851
 6667TIP3   OH241559   7.107   3.510   7.510 -0.6194 -0.5193 -0.0237
 6667TIP3    H141560   7.147   3.478   7.591 -0.5798 -2.8982 -0.9247
 6667TIP3    H241561   7.039   3.446   7.490 -1.8596  1.0331 -0.9154
 6668TIP3   OH241562   1.995   2.420   7.116 -0.3065  0.5506 -0.0780
 6668TIP3    H141563   2.059   2.362   7.158 -0.3361  0.1808 -0.5368
 6668TIP3    H241564   2.044   2.460   7.044 -1.1574 -1.3227 -1.7368
 6669TIP3   OH241565   5.610   0.116   0.481  0.2837 -0.5122 -0.3250
 6669TIP3    H141566   5.589   0.161   0.563 -1.3629  0.7516 -1.3905
 6669TIP3    H241567   5.531   0.066   0.460 -0.1655  0.8831 -2.1929
 6670TIP3   OH241568   2.312   5.207   1.486 -0.2976  0.2455 -0.0204
 6670TIP3    H141569   2.375   5.238   1.420  0.0911  1.0943  0.7470
 6670TIP3    H241570   2.322   5.112   1.485 -0.2366  0.2533 -1.1281
 6671TIP3   OH241571   6.295   2.631   0.577 -0.2607 -0.3242 -0.0877
 6671TIP3    H141572   6.240   2.555   0.560  1.8953 -2.2705  1.2694
 6671TIP3    H241573   6.275   2.692   0.506 -1.8701 -2.2460 -1.3289
 6672TIP3   OH241574   5.934   6.123   0.973  0.9265 -0.2399 -0.6675
 6672TIP3    H141575   6.023   6.088   0.963  0.8178 -1.0924  1.0566
 6672TIP3    H241576   5.879   6.060   0.926  0.8999 -1.6008  1.1258
 6673TIP3   OH241577   0.164   4.243   1.408 -0.3076  0.7220 -0.3738
 6673TIP3    H141578   0.180   4.212   1.497  0.8834 -0.2282 -0.9023
 6673TIP3    H241579   0.186   4.336   1.411 -0.3610  0.7164  0.3523
 6674TIP3   OH241580   2.502   5.376   7.490  0.4931  0.2529  0.4245
 6674TIP3    H141581   2.506   5.338   7.403 -0.0720  2.6522 -0.6784
 6674TIP3    H241582   2.594   5.379   7.519  0.5175 -2.2600  0.7233
 6675TIP3   OH241583   6.286   3.432   1.030  0.5819 -0.8582 -0.0959
 6675TIP3    H141584   6.216   3.470   1.085  2.8941  1.2275  1.4963
 6675TIP3    H241585   6.246   3.352   0.994 -1.6943 -1.2733  3.0717
 6676TIP3   OH241586   3.940   2.596   0.044  0.2820  0.5299  0.0453
 6676TIP3    H141587   4.031   2.568   0.040  0.3924  0.2326  3.0188
 6676TIP3    H241588   3.935   2.649   0.124 -2.2165  0.2571  0.1058
 6677TIP3   OH241589   4.521   0.030   8.020 -0.3022  0.2397 -0.2324
 6677TIP3    H141590   4.578   0.063   8.090 -1.4868  0.6319  0.5571
 6677TIP3    H241591   4.520   0.099   7.955 -1.0789  0.8836  0.4503
 6678TIP3   OH241592   6.401   6.098   2.179 -0.1978  0.4514  0.0843
 6678TIP3    H141593   6.495   6.082   2.168 -0.4824 -0.2944 -1.5220
 6678TIP3    H241594   6.370   6.025   2.232 -0.1611 -0.2596 -0.8531
 6679TIP3   OH241595   3.015   6.980   0.564 -0.5566  0.5415  0.5800
 6679TIP3    H141596   3.052   7.059   0.603 -0.3352 -0.1252  1.7326
 6679TIP3    H241597   3.017   6.915   0.634 -1.0874 -0.3815 -0.2470
 6680TIP3   OH241598   4.296   6.348   6.227 -0.1999 -0.2974 -0.5184
 6680TIP3    H141599   4.324   6.367   6.137  0.6099  0.7341 -0.0595
 6680TIP3    H241600   4.201   6.358   6.225 -0.0441  1.2801 -0.9148
 6681TIP3   OH241601   1.425   0.233   0.959 -0.5159 -0.0823  0.2685
 6681TIP3    H141602   1.436   0.142   0.930  2.1915 -0.0475  1.0530
 6681TIP3    H241603   1.431   0.228   1.055 -0.1034  0.9466  0.3037
 6682TIP3   OH241604   1.630   6.874   0.773  0.1593 -1.1793  0.1740
 6682TIP3    H141605   1.544   6.885   0.732  0.0074 -1.0099  0.5393
 6682TIP3    H241606   1.657   6.962   0.797  1.0584 -1.0764 -1.1959
 6683TIP3   OH241607   5.563   3.308   1.736  0.3177 -0.0348  0.1489
 6683TIP3    H141608   5.542   3.379   1.797  0.3463 -0.8198  1.0883
 6683TIP3    H241609   5.480   3.263   1.722  0.8574 -1.6757  1.9766
 6684TIP3   OH241610   6.954   0.851   7.384 -0.4626 -0.1483 -0.3937
 6684TIP3    H141611   7.001   0.783   7.335 -0.8529 -1.7211  1.3567
 6684TIP3    H241612   7.014   0.925   7.386  0.9415 -1.2807 -0.2746
 6685TIP3   OH241613   6.903   6.095   1.600  0.6106 -0.2514 -0.3683
 6685TIP3    H141614   6.956   6.019   1.576  0.5416 -0.3122 -0.3303
 6685TIP3    H241615   6.853   6.067   1.677 -0.0365 -0.4482 -0.8556
 6686TIP3   OH241616   5.951   0.228   1.693  1.0341  0.0895  0.1911
 6686TIP3    H141617   5.985   0.140   1.672  0.9315  0.5573 -2.1012
 6686TIP3    H241618   5.857   0.214   1.706  1.1074 -0.2282  0.3977
 6687TIP3   OH241619   6.763   3.223   6.178  0.0144  0.2113  0.1122
 6687TIP3    H141620   6.777   3.237   6.271  3.5045 -0.4350 -0.2536
 6687TIP3    H241621   6.809   3.296   6.135 -0.7054 -0.0427 -1.1191
 6688TIP3   OH241622   1.427   2.733   0.644  0.0461  0.3534 -0.2566
 6688TIP3    H141623   1.443   2.770   0.557 -2.3954  0.4549 -0.6935
 6688TIP3    H241624   1.387   2.804   0.693  1.6471  0.3681  1.0384
 6689TIP3   OH241625   3.957   0.205   0.426  0.6567  0.0736 -0.3262
 6689TIP3    H141626   3.882   0.213   0.367  1.5571  0.6032 -1.4444
 6689TIP3    H241627   4.033   0.217   0.368  1.6114 -1.1155  0.6722
 6690TIP3   OH241628   4.918   2.157   6.862  0.0233  0.2251 -0.2890
 6690TIP3    H141629   4.892   2.065   6.863  3.8556 -0.9652  2.7329
 6690TIP3    H241630   4.861   2.199   6.926  0.7536 -0.8529  1.0881
 6691TIP3   OH241631   2.747   0.275   0.643  0.5619  0.0770  0.1387
 6691TIP3    H141632   2.690   0.288   0.566  0.0076  0.2517  0.5765
 6691TIP3    H241633   2.744   0.181   0.660 -0.4490  0.2268  0.8113
 6692TIP3   OH241634   5.719   2.685   1.410  0.3456 -0.0335  0.7340
 6692TIP3    H141635   5.663   2.694   1.487 -3.8294  0.8785 -2.2163
 6692TIP3    H241636   5.710   2.768   1.364  0.8019 -1.4263 -1.9712
 6693TIP3   OH241637   4.640   0.707   1.506  0.4737  0.1697 -0.1413
 6693TIP3    H141638   4.568   0.716   1.568  0.5025  0.4099 -0.1426
 6693TIP3    H241639   4.599   0.675   1.426  0.0458  2.3304 -0.8126
 6694TIP3   OH241640   1.819   0.240   1.035  0.0384 -0.2503 -0.0836
 6694TIP3    H141641   1.901   0.219   0.991  0.3825 -0.7285  0.7788
 6694TIP3    H241642   1.809   0.334   1.024 -0.0750 -0.4167 -1.5117
 6695TIP3   OH241643   4.758   1.137   0.141  0.5486  0.3541  0.1602
 6695TIP3    H141644   4.822   1.129   0.211  2.2981 -0.3331 -1.4996
 6695TIP3    H241645   4.724   1.227   0.150  0.3098  0.0944  2.2089
 6696TIP3   OH241646   0.208   5.000   0.812 -0.5177  0.5927 -0.6244
 6696TIP3    H141647   0.145   4.977   0.881  0.4896  1.8265  0.7195
 6696TIP3    H241648   0.256   4.919   0.796 -0.0870  0.5545  0.8274
 6697TIP3   OH241649   5.613   1.539   0.047  0.0052  0.3410  0.0902
 6697TIP3    H141650   5.681   1.471   0.040 -0.0831  0.3675 -1.3262
 6697TIP3    H241651   5.626   1.593  -0.031 -0.3713  1.5438  0.8549
 6698TIP3   OH241652   6.594   6.624   8.117  0.1418 -0.1962  0.2743
 6698TIP3    H141653   6.660   6.631   8.048  0.4030 -0.0031  0.5390
 6698TIP3    H241654   6.576   6.531   8.124 -1.0099 -0.0875 -1.1053
 6699TIP3   OH241655   1.839   0.556   2.124 -0.5652  0.3073 -0.1448
 6699TIP3    H141656   1.747   0.544   2.148 -0.2368 -1.7238  0.1865
 6699TIP3    H241657   1.878   0.601   2.200 -1.2662  1.1191 -0.2653
 6700TIP3   OH241658   0.268   4.739   1.753  0.1277 -0.0411  0.5992
 6700TIP3    H141659   0.287   4.755   1.846  2.1555 -0.4150  0.2664
 6700TIP3    H241660   0.340   4.780   1.706 -1.2360  0.7163 -0.8714
 6701TIP3   OH241661   0.576   6.986   1.049  0.1330 -0.3133 -0.2823
 6701TIP3    H141662   0.507   6.937   1.093  0.5320  0.6040  1.3876
 6701TIP3    H241663   0.529   7.049   0.995 -0.3515 -0.1731  0.2941
 6702TIP3   OH241664   1.397   1.626   7.768  0.1118 -0.2280  0.5665
 6702TIP3    H141665   1.391   1.636   7.863 -0.0551 -1.0333  0.6426
 6702TIP3    H241666   1.329   1.685   7.734  1.6131  1.7397  0.8373
 6703TIP3   OH241667   5.269   3.341   6.199 -0.2948 -0.0511  0.1101
 6703TIP3    H141668   5.250   3.377   6.113  0.4749  1.0052  0.3665
 6703TIP3    H241669   5.333   3.271   6.182 -0.8838 -0.5031 -0.2658
 6704TIP3   OH241670   1.478   5.835   1.017 -0.0724 -0.3141 -0.2960
 6704TIP3    H141671   1.518   5.800   1.096 -0.3042  1.7455  0.7695
 6704TIP3    H241672   1.483   5.764   0.954  0.4932 -1.8514  1.4411
 6705TIP3   OH241673   6.412   4.969   0.789  0.0819  0.2903 -0.5488
 6705TIP3    H141674   6.369   5.019   0.720 -0.8481 -2.6907 -2.2509
 6705TIP3    H241675   6.344   4.956   0.856 -0.7225 -1.4828 -1.6597
 6706TIP3   OH241676   6.444   1.045   0.511  0.0512  0.0202  0.6200
 6706TIP3    H141677   6.459   0.952   0.529  0.0842  0.2811  2.0304
 6706TIP3    H241678   6.485   1.061   0.426 -1.5258 -1.6654 -0.5025
 6707TIP3   OH241679   4.912   6.194   7.219 -0.3581  0.0306 -0.0747
 6707TIP3    H141680   5.008   6.194   7.221 -0.2783  3.3400 -0.1328
 6707TIP3    H241681   4.890   6.150   7.137  1.1999  0.9025 -0.9984
 6708TIP3   OH241682   1.579   4.953   0.566  0.3979 -0.7057 -0.5304
 6708TIP3    H141683   1.618   4.986   0.646 -0.5858 -0.7924 -0.0027
 6708TIP3    H241684   1.643   4.973   0.497 -0.1923  2.3850 -0.2577
 6709TIP3   OH241685   5.119   3.715   6.557  0.1382 -0.5925  0.0209
 6709TIP3    H141686   5.117   3.673   6.471 -1.1240 -2.2070  0.8218
 6709TIP3    H241687   5.208   3.699   6.589 -1.1857 -5.3890  1.6006
 6710TIP3   OH241688   6.339   3.822   0.247  0.1706  0.4294 -0.0271
 6710TIP3    H141689   6.330   3.769   0.327  0.1209  0.2906 -0.1236
 6710TIP3    H241690   6.257   3.807   0.200  1.0111 -1.0720 -1.0475
 6711TIP3   OH241691   1.308   0.414   0.514  0.0675  0.0496  0.6357
 6711TIP3    H141692   1.251   0.346   0.477  1.3068 -1.9794  2.3816
 6711TIP3    H241693   1.307   0.397   0.608 -0.3978  3.1104  1.2321
 6712TIP3   OH241694   3.509   5.619   6.521 -0.5037  0.0508 -0.2777
 6712TIP3    H141695   3.463   5.568   6.454 -0.5973  0.8926 -0.8530
 6712TIP3    H241696   3.500   5.710   6.493  2.0583  0.1876 -0.7683
 6713TIP3   OH241697   1.323   6.058   7.308 -0.2725 -0.0874  0.8127
 6713TIP3    H141698   1.382   6.131   7.289 -0.9824  0.3373  0.1931
 6713TIP3    H241699   1.336   6.040   7.401  1.5181 -0.6201  0.4818
 6714TIP3   OH241700   4.642   4.782   8.057  0.1406  0.1800 -0.1033
 6714TIP3    H141701   4.600   4.710   8.011  0.1889  0.0095  0.1235
 6714TIP3    H241702   4.651   4.752   8.147  0.4492  0.3418 -0.0789
 6715TIP3   OH241703   6.959   6.519   1.752 -0.2066 -0.5549  0.9084
 6715TIP3    H141704   6.866   6.498   1.742 -0.4131  1.2477 -1.2076
 6715TIP3    H241705   7.005   6.438   1.728 -1.1320 -0.3070 -1.8148
 6716TIP3   OH241706   1.501   0.330   0.303  0.0105 -0.1185 -0.6228
 6716TIP3    H141707   1.435   0.338   0.373 -0.0589  1.1223 -0.8172
 6716TIP3    H241708   1.527   0.238   0.305 -1.2259 -0.4659 -0.0768
 6717TIP3   OH241709   4.307   6.549   7.117  0.8699 -0.1756 -0.5089
 6717TIP3    H141710   4.313   6.643   7.099 -2.1957  0.2941  0.5393
 6717TIP3    H241711   4.293   6.543   7.211  0.6085 -1.6546 -0.6237
 6718TIP3   OH241712   5.637   6.053   2.222  0.0589 -0.0011 -0.4418
 6718TIP3    H141713   5.686   6.037   2.302 -1.8229 -1.5528  0.4361
 6718TIP3    H241714   5.587   5.973   2.207 -1.7525  1.2979 -1.6188
 6719TIP3   OH241715   4.763   0.819   1.196  0.3668  0.1381 -0.1630
 6719TIP3    H141716   4.684   0.787   1.152  0.3278 -1.1295  0.7975
 6719TIP3    H241717   4.809   0.740   1.223  1.2707  0.8864  0.5231
 6720TIP3   OH241718   0.490   6.927   1.871  0.0824  1.5922  0.1646
 6720TIP3    H141719   0.421   6.968   1.924 -0.4390 -0.1338  0.8896
 6720TIP3    H241720   0.443   6.886   1.799  0.2924  0.1983  0.7950
 6721TIP3   OH241721   2.693   6.916   1.478 -0.8643  0.3256 -0.3832
 6721TIP3    H141722   2.652   6.858   1.542  0.4899 -1.0252 -0.7248
 6721TIP3    H241723   2.728   6.988   1.531  0.3683 -0.8483  0.4358
 6722TIP3   OH241724   7.074   5.363   2.580  0.3565  0.0131  0.0983
 6722TIP3    H141725   7.032   5.293   2.630 -0.3108  1.0328  0.9832
 6722TIP3    H241726   7.019   5.374   2.503  0.4918 -0.4493 -0.0728
 6723TIP3   OH241727   0.617   5.937   6.940 -0.6660 -0.3254 -0.0542
 6723TIP3    H141728   0.705   5.901   6.931 -0.6182 -0.2346  0.0451
 6723TIP3    H241729   0.630   6.022   6.982 -0.8041 -0.3319  0.0031
 6724TIP3   OH241730   0.256   4.801   1.407 -0.2640  0.0791  0.3136
 6724TIP3    H141731   0.200   4.751   1.347 -0.2493  0.5352 -0.0819
 6724TIP3    H241732   0.331   4.828   1.354  0.2621 -0.4031  0.8072
 6725TIP3   OH241733   3.594   5.979   1.395 -0.0269 -0.4686  0.2119
 6725TIP3    H141734   3.569   5.904   1.341  0.6388 -2.0580  2.0389
 6725TIP3    H241735   3.688   5.969   1.410 -0.0901  0.2434  1.1781
 6726TIP3   OH241736   6.481   5.321   6.458 -0.3389 -0.3080 -0.5855
 6726TIP3    H141737   6.480   5.255   6.389  0.5082 -1.4119  0.4363
 6726TIP3    H241738   6.390   5.326   6.489 -0.6376 -0.1039 -1.4823
 6727TIP3   OH241739   3.535   3.208   7.390 -0.0047  0.0905  0.0337
 6727TIP3    H141740   3.584   3.259   7.326  1.7407 -0.7621  0.6489
 6727TIP3    H241741   3.573   3.120   7.385 -1.7789 -0.7076  0.2148
 6728TIP3   OH241742   4.789   0.945   6.841 -0.1087  0.2141 -0.3526
 6728TIP3    H141743   4.815   0.980   6.926  0.8882  0.9677 -0.9587
 6728TIP3    H241744   4.822   1.009   6.778 -1.8694  0.2697 -1.2379
 6729TIP3   OH241745   5.531   1.861   0.740  0.3110  0.0657  0.4198
 6729TIP3    H141746   5.612   1.853   0.689  1.0670  0.9519  1.4689
 6729TIP3    H241747   5.555   1.912   0.816 -0.8830 -1.0191  1.5552
 6730TIP3   OH241748   2.709   5.202   1.568  0.0850 -0.1340 -0.2278
 6730TIP3    H141749   2.765   5.136   1.528  1.5733  1.5524 -1.0308
 6730TIP3    H241750   2.688   5.168   1.654 -0.1839 -2.2028 -1.0895
 6731TIP3   OH241751   3.647   0.072   1.146 -0.8354 -0.2499 -0.0619
 6731TIP3    H141752   3.621  -0.009   1.189 -0.0076 -0.8338 -0.6347
 6731TIP3    H241753   3.589   0.138   1.182  1.4978 -0.2075  3.8776
 6732TIP3   OH241754   6.605   4.770   2.194 -0.3317 -0.0120 -0.5162
 6732TIP3    H141755   6.602   4.847   2.251 -2.3226 -0.5458  0.1567
 6732TIP3    H241756   6.551   4.794   2.119 -2.2834 -1.3000  0.4449
 6733TIP3   OH241757   2.395   5.271   0.021 -0.1647 -0.6757 -0.0858
 6733TIP3    H141758   2.344   5.307  -0.051 -0.0999 -0.9700 -0.2801
 6733TIP3    H241759   2.350   5.190   0.045 -0.4168 -0.3748  0.4732
 6734TIP3   OH241760   5.929   6.113   1.883 -0.3734 -0.0915  0.0890
 6734TIP3    H141761   5.989   6.185   1.868  0.4852 -0.9607 -0.7668
 6734TIP3    H241762   5.932   6.097   1.977  0.3699  0.1963  0.1153
 6735TIP3   OH241763   5.989   5.422   0.699  0.2386  0.3981 -0.3611
 6735TIP3    H141764   5.962   5.401   0.610  1.8062 -1.0360 -0.5101
 6735TIP3    H241765   5.926   5.489   0.727 -2.6770 -1.8987 -1.1412
 6736TIP3   OH241766   0.279   4.682   6.242  0.4518 -0.0996 -0.6584
 6736TIP3    H141767   0.195   4.706   6.203  0.7858 -0.5554 -1.6624
 6736TIP3    H241768   0.256   4.612   6.304  0.1861 -0.6646 -1.3981
 6737TIP3   OH241769   4.163   6.395   0.369 -0.1006 -0.8511 -0.2687
 6737TIP3    H141770   4.181   6.436   0.285 -1.5613  1.0442  0.2798
 6737TIP3    H241771   4.077   6.354   0.358 -0.0925 -0.9867  0.1486
 6738TIP3   OH241772   5.483   4.402   6.602  0.0361 -0.2663 -0.6968
 6738TIP3    H141773   5.510   4.346   6.529  1.4550  0.1353 -0.4934
 6738TIP3    H241774   5.475   4.489   6.564  1.0207 -0.0098 -0.3257
 6739TIP3   OH241775   0.317   5.339   6.804  0.4237 -0.3092  0.1800
 6739TIP3    H141776   0.291   5.265   6.748  0.5599  1.9468 -3.0278
 6739TIP3    H241777   0.243   5.400   6.799  1.2346  0.7439  0.9326
 6740TIP3   OH241778   3.750   6.546   7.381  0.1495 -0.5049  0.0108
 6740TIP3    H141779   3.808   6.618   7.405  0.9206 -1.8158  2.2296
 6740TIP3    H241780   3.808   6.478   7.346 -0.5855 -0.0297 -2.2017
 6741TIP3   OH241781   6.456   0.480   7.122 -0.6725  0.3345 -0.8957
 6741TIP3    H141782   6.550   0.472   7.140 -0.3309  0.6506 -2.4718
 6741TIP3    H241783   6.448   0.565   7.078 -1.6794  0.2251 -0.9253
 6742TIP3   OH241784   2.099   6.691   0.270 -0.1565  0.2469  0.2601
 6742TIP3    H141785   2.168   6.756   0.260 -0.8816  0.9875  0.0304
 6742TIP3    H241786   2.051   6.693   0.188 -1.3808  0.8281  0.9794
 6743TIP3   OH241787   2.525   1.613   0.793 -0.1491 -0.4636 -0.1256
 6743TIP3    H141788   2.607   1.625   0.840  0.1221 -0.0682 -0.6883
 6743TIP3    H241789   2.536   1.665   0.713 -1.1401 -0.0120  0.0276
 6744TIP3   OH241790   1.184   4.063   6.998  0.4894 -0.4602 -0.5166
 6744TIP3    H141791   1.267   4.016   7.002  0.3257 -0.6095  1.4258
 6744TIP3    H241792   1.194   4.135   7.060 -0.9092 -0.5786 -0.1408
 6745TIP3   OH241793   1.296   7.066   1.539 -0.7773 -0.5708 -0.4226
 6745TIP3    H141794   1.262   7.112   1.616 -0.4049 -1.5210  0.3069
 6745TIP3    H241795   1.235   6.994   1.525 -0.0181 -1.2744 -0.1296
 6746TIP3   OH241796   2.120   3.589   1.755 -0.4209  0.6944  0.8779
 6746TIP3    H141797   2.169   3.661   1.716  2.0525 -0.8234  1.0648
 6746TIP3    H241798   2.151   3.585   1.846  0.5483 -1.4626  0.4883
 6747TIP3   OH241799   1.343   5.466   8.119 -0.4707  0.2627 -0.2727
 6747TIP3    H141800   1.304   5.464   8.206 -2.5764 -1.0862 -1.1950
 6747TIP3    H241801   1.317   5.383   8.080 -0.2870  1.2305 -2.5096
 6748TIP3   OH241802   0.660   0.795   6.754  0.4683 -0.0608  0.2311
 6748TIP3    H141803   0.734   0.735   6.757 -0.2156 -1.1154 -2.5207
 6748TIP3    H241804   0.687   0.864   6.694 -0.8586 -0.6156 -1.0297
 6749TIP3   OH241805   6.913   6.372   6.660  0.2487 -0.0135 -0.0266
 6749TIP3    H141806   6.826   6.375   6.619  1.9773  0.5871 -3.7790
 6749TIP3    H241807   6.915   6.286   6.703 -2.1891 -0.0602  0.0802
 6750TIP3   OH241808   1.017   2.071   6.833  0.1643 -0.0089  0.1827
 6750TIP3    H141809   0.995   2.022   6.913 -1.0013 -0.0673 -0.1646
 6750TIP3    H241810   1.043   2.157   6.865  1.1218 -0.4855  0.7230
 6751TIP3   OH241811   2.272   2.804   1.171 -0.3721  0.3546  0.0370
 6751TIP3    H141812   2.291   2.732   1.231  0.6618 -0.0441 -0.7546
 6751TIP3    H241813   2.345   2.864   1.182 -2.1176  2.2136  2.0343
 6752TIP3   OH241814   1.892   2.958   0.068  0.1985 -0.3388 -0.0264
 6752TIP3    H141815   1.954   2.920   0.130 -0.8572 -1.2681  0.4800
 6752TIP3    H241816   1.944   2.975  -0.010  0.9478 -1.7491  0.1446
 6753TIP3   OH241817   3.567   3.249   1.130 -0.1516  0.4994 -0.5484
 6753TIP3    H141818   3.519   3.284   1.055 -0.0212 -1.0808 -1.3698
 6753TIP3    H241819   3.579   3.156   1.111 -0.3481  0.0148  1.5466
 6754TIP3   OH241820   5.227   1.029   6.304 -0.1429 -0.2439  0.1997
 6754TIP3    H141821   5.222   0.958   6.368 -0.7861 -0.7463 -0.4082
 6754TIP3    H241822   5.318   1.029   6.276 -0.2271 -1.0909 -0.0920
 6755TIP3   OH241823   7.021   6.499   7.799 -0.0216 -0.2528 -0.1099
 6755TIP3    H141824   7.051   6.482   7.710  0.7215  0.1478  0.0616
 6755TIP3    H241825   7.083   6.563   7.834 -1.8611  1.7037 -0.2478
 6756TIP3   OH241826   2.931   6.744   5.902  0.0396 -0.8938  0.8352
 6756TIP3    H141827   2.948   6.751   5.808 -2.3444 -2.3778  0.2416
 6756TIP3    H241828   2.968   6.824   5.939  0.5046 -0.0042 -1.4484
 6757TIP3   OH241829   5.597   0.526   0.797  0.0803  0.2216  0.3117
 6757TIP3    H141830   5.552   0.447   0.827 -1.3879  1.2522  0.8134
 6757TIP3    H241831   5.680   0.493   0.761 -0.5483 -1.5580  0.4349
 6758TIP3   OH241832   4.287   3.796   1.247 -0.1415 -0.2035 -0.1140
 6758TIP3    H141833   4.352   3.848   1.199 -0.1220  1.0584  1.2545
 6758TIP3    H241834   4.207   3.802   1.194 -0.6066  2.6138  0.8393
 6759TIP3   OH241835   5.565   0.675   1.058  0.0972 -0.8461  1.0811
 6759TIP3    H141836   5.615   0.644   0.982  1.4070 -0.0103  1.5798
 6759TIP3    H241837   5.619   0.745   1.094 -2.5663  1.7050  0.2433
 6760TIP3   OH241838   2.848   3.541   6.458  0.1804  0.2017  0.2926
 6760TIP3    H141839   2.779   3.608   6.461 -0.0902 -0.1052  1.0200
 6760TIP3    H241840   2.818   3.478   6.393 -0.0292  0.2768  0.3170
 6761TIP3   OH241841   5.981   3.115   1.754 -0.0877  0.0533 -0.1036
 6761TIP3    H141842   5.965   3.091   1.845  3.1797  0.5761  0.6990
 6761TIP3    H241843   6.029   3.041   1.718  0.7331  0.8544 -0.6825
 6762TIP3   OH241844   4.918   0.135   1.929  0.2465 -0.7110 -0.5806
 6762TIP3    H141845   4.883   0.066   1.984 -1.1345 -0.5269 -1.2109
 6762TIP3    H241846   4.943   0.091   1.848  1.0612 -0.7694 -0.2982
 6763TIP3   OH241847   4.157   0.422   7.115  0.1085  0.0549  0.6189
 6763TIP3    H141848   4.238   0.473   7.120 -0.9581  1.6954  1.3279
 6763TIP3    H241849   4.138   0.398   7.205 -1.6280  1.9587  0.7789
 6764TIP3   OH241850   5.097   5.251   6.438 -0.8806 -0.0324 -0.1513
 6764TIP3    H141851   5.166   5.306   6.402 -0.4136 -0.3612  0.2310
 6764TIP3    H241852   5.016   5.284   6.399 -0.5654  0.7021 -0.1845
 6765TIP3   OH241853   4.986   1.735   2.178 -0.1152  0.1982  0.2667
 6765TIP3    H141854   4.924   1.669   2.208  1.9013 -3.0104 -2.2596
 6765TIP3    H241855   4.932   1.811   2.155 -2.7956 -1.5698  0.5833
 6766TIP3   OH241856   0.413   5.744   6.939  0.6603  0.9441  0.0366
 6766TIP3    H141857   0.476   5.814   6.947  0.7353  0.8868 -0.0459
 6766TIP3    H241858   0.340   5.783   6.891  1.0680  0.7310 -0.7692
 6767TIP3   OH241859   4.981   6.996   7.426  0.0772  0.2044 -0.0794
 6767TIP3    H141860   5.029   7.048   7.361  1.4115  1.0597  1.5493
 6767TIP3    H241861   5.029   6.913   7.430  1.3376  0.9863  1.4081
 6768TIP3   OH241862   5.535   0.380   7.178  0.1974 -0.5074  0.1360
 6768TIP3    H141863   5.609   0.363   7.237 -1.3488 -0.2284  2.2327
 6768TIP3    H241864   5.538   0.475   7.162 -0.5702 -0.2345  1.4802
 6769TIP3   OH241865   2.949   6.720   1.600 -0.1626  0.5607 -0.4996
 6769TIP3    H141866   2.864   6.730   1.558 -0.9740  2.3566  1.5020
 6769TIP3    H241867   2.933   6.657   1.670  0.5830 -0.4017 -1.1701
 6770TIP3   OH241868   2.312   3.933   7.293 -0.3314  0.0421  0.0813
 6770TIP3    H141869   2.267   3.956   7.212 -0.9666  0.1846  0.4703
 6770TIP3    H241870   2.249   3.953   7.362 -0.0428 -0.7040  0.5704
 6771TIP3   OH241871   1.572   0.970   7.537 -0.2262  0.1551 -0.3785
 6771TIP3    H141872   1.572   0.923   7.621  3.0622 -0.2651 -0.5181
 6771TIP3    H241873   1.523   1.050   7.554 -0.4207 -0.3701  1.6822
 6772TIP3   OH241874   4.104   0.333   7.758 -0.1828  0.1780 -0.1259
 6772TIP3    H141875   4.064   0.338   7.845  0.5644 -0.1507  0.2361
 6772TIP3    H241876   4.047   0.387   7.703 -0.1363  1.1513  0.7602
 6773TIP3   OH241877   2.923   1.794   7.071 -0.7057 -0.0134  0.3210
 6773TIP3    H141878   2.964   1.713   7.101 -0.1335  0.3151  0.4363
 6773TIP3    H241879   2.970   1.864   7.118  0.3482  0.5281 -1.4891
 6774TIP3   OH241880   5.685   0.520   7.857  0.1577  0.0932 -0.1528
 6774TIP3    H141881   5.724   0.458   7.919 -1.2996  1.5020  2.2326
 6774TIP3    H241882   5.759   0.573   7.827  0.9455 -0.8689  0.0556
 6775TIP3   OH241883   1.528   0.587   1.137 -0.3336 -0.5602 -0.1724
 6775TIP3    H141884   1.462   0.651   1.110  0.4871  0.4935  0.2724
 6775TIP3    H241885   1.538   0.602   1.231  0.6775 -0.5803 -0.2748
 6776TIP3   OH241886   6.736   0.125   1.117  0.5347  0.0857  0.2434
 6776TIP3    H141887   6.678   0.145   1.043  0.4936 -0.9952 -0.0291
 6776TIP3    H241888   6.712   0.188   1.184  1.1767  1.6819 -0.9839
 6777TIP3   OH241889   6.242   6.336   7.556 -0.3804 -0.1364  0.0154
 6777TIP3    H141890   6.237   6.431   7.558 -0.0354 -0.0629 -1.7030
 6777TIP3    H241891   6.336   6.317   7.565 -0.1415 -0.1928 -2.3035
 6778TIP3   OH241892   4.863   1.540   0.190  0.1376 -0.0831  0.3728
 6778TIP3    H141893   4.890   1.600   0.260 -0.5115  2.3326 -1.3530
 6778TIP3    H241894   4.927   1.555   0.120 -1.1232  0.0120 -0.7940
 6779TIP3   OH241895   0.137   0.370   0.553 -0.4039 -0.3272  0.5568
 6779TIP3    H141896   0.133   0.356   0.458 -0.7283  1.7975  0.2430
 6779TIP3    H241897   0.209   0.432   0.565 -0.3091 -0.6508  1.7185
 6780TIP3   OH241898   0.830   6.289   0.787 -0.2859 -0.1463  0.5204
 6780TIP3    H141899   0.835   6.379   0.820  2.3441 -0.0786  0.0954
 6780TIP3    H241900   0.919   6.255   0.799 -1.1197 -2.5070  0.1645
 6781TIP3   OH241901   2.105   5.209   7.537 -0.1487  0.1151  0.1414
 6781TIP3    H141902   2.115   5.117   7.564  0.5431 -0.5028 -2.0701
 6781TIP3    H241903   2.030   5.209   7.478  1.0650  0.5841 -1.4437
 6782TIP3   OH241904   4.653   4.892   2.290  0.3533  0.2078  0.2405
 6782TIP3    H141905   4.734   4.937   2.265  1.3098 -2.2120 -1.1535
 6782TIP3    H241906   4.682   4.810   2.329 -1.4315 -1.1458 -1.1677
 6783TIP3   OH241907   4.335   5.650   2.214  0.1650  0.0078  0.0914
 6783TIP3    H141908   4.387   5.720   2.175 -0.6275  0.4464 -0.2000
 6783TIP3    H241909   4.364   5.646   2.305  0.6857  0.2615 -0.0641
 6784TIP3   OH241910   4.117   1.970   7.246  0.0967 -0.3587 -0.5771
 6784TIP3    H141911   4.208   1.998   7.256  0.1334 -0.6122 -0.1483
 6784TIP3    H241912   4.071   2.013   7.318 -0.5960  1.7203 -2.2165
 6785TIP3   OH241913   5.201   0.972   7.114  0.2025  0.0214  0.0929
 6785TIP3    H141914   5.282   0.922   7.123 -0.1884 -1.0766 -2.3104
 6785TIP3    H241915   5.152   0.928   7.045 -0.4080  3.3497 -1.7314
 6786TIP3   OH241916   4.650   6.993   0.426 -0.1180  0.3201 -0.3406
 6786TIP3    H141917   4.636   7.015   0.518 -0.7230 -0.3255 -0.2810
 6786TIP3    H241918   4.734   7.035   0.404 -0.7084  1.7474  0.0767
 6787TIP3   OH241919   5.404   1.766   6.913 -0.1194  0.0392 -1.0531
 6787TIP3    H141920   5.322   1.807   6.886  0.3306  1.2117 -0.6597
 6787TIP3    H241921   5.403   1.771   7.009  0.9878  1.2168 -1.0923
 6788TIP3   OH241922   2.117   6.348   0.694  0.0682  0.2510  0.0783
 6788TIP3    H141923   2.131   6.398   0.614  1.0056 -1.1176 -0.6517
 6788TIP3    H241924   2.028   6.313   0.686 -0.1454  0.8051  0.0333
 6789TIP3   OH241925   5.224   5.130   0.443  0.2456 -0.3142  0.7714
 6789TIP3    H141926   5.259   5.215   0.418  0.4606 -0.4854  0.4802
 6789TIP3    H241927   5.277   5.067   0.395 -0.5421 -0.5698  0.2164
 6790TIP3   OH241928   6.294   6.765   1.085  0.1654 -0.0919 -0.1191
 6790TIP3    H141929   6.329   6.676   1.083  0.4299  0.0061 -0.0011
 6790TIP3    H241930   6.369   6.819   1.111 -0.5955 -0.1469  2.3694
 6791TIP3   OH241931   0.475   7.022   6.390  0.3207  0.1229  0.6869
 6791TIP3    H141932   0.483   6.929   6.415 -1.3954  0.1491  1.4117
 6791TIP3    H241933   0.504   7.024   6.299 -1.4852 -1.4998  0.0280
 6792TIP3   OH241934   0.192   6.907   7.669 -0.1898  0.0202 -0.1907
 6792TIP3    H141935   0.216   6.884   7.579 -0.8718  0.9164 -0.6061
 6792TIP3    H241936   0.224   6.996   7.680  0.8353 -0.4498  0.8201
 6793TIP3   OH241937   6.329   6.132   7.789  0.0898 -0.3790  0.2553
 6793TIP3    H141938   6.412   6.094   7.761  0.7848  1.5056 -0.2866
 6793TIP3    H241939   6.350   6.221   7.815 -1.7685  0.1307  0.1094
 6794TIP3   OH241940   1.228   0.385   1.826 -0.4808  0.4648  0.6062
 6794TIP3    H141941   1.246   0.451   1.758 -0.2546 -0.1205  0.0947
 6794TIP3    H241942   1.144   0.347   1.800  0.8437 -1.6080 -0.8386
 6795TIP3   OH241943   0.124   5.466   1.288  0.4454  0.2137  0.0438
 6795TIP3    H141944   0.094   5.379   1.260  0.7702  0.3827 -0.8332
 6795TIP3    H241945   0.048   5.522   1.278  0.2886  0.0713  0.4287
 6796TIP3   OH241946   1.044   2.866   7.797 -0.0861  0.6623 -0.7406
 6796TIP3    H141947   1.061   2.952   7.837 -2.4476  1.0756 -0.5651
 6796TIP3    H241948   1.090   2.804   7.854 -2.1094  1.3966  1.8180
 6797TIP3   OH241949   2.433   4.251   1.579 -0.4708 -0.5346 -0.0671
 6797TIP3    H141950   2.491   4.217   1.511 -3.0925 -1.4655 -1.9141
 6797TIP3    H241951   2.456   4.202   1.658  1.0209 -1.1205 -0.8626
 6798TIP3   OH241952   5.867   0.151   0.592  0.2590 -0.6919 -0.4365
 6798TIP3    H141953   5.933   0.084   0.572  0.9694  0.1758 -1.0519
 6798TIP3    H241954   5.789   0.122   0.546  1.0520 -0.2287 -2.1028
 6799TIP3   OH241955   5.696   6.385   0.405  0.4240 -0.3499 -0.1927
 6799TIP3    H141956   5.784   6.355   0.382  1.0808  1.1560  0.2546
 6799TIP3    H241957   5.642   6.360   0.331  1.6517  0.5327 -1.4222
 6800TIP3   OH241958   4.985   1.563   6.478  0.3341 -0.1143 -0.1116
 6800TIP3    H141959   5.038   1.576   6.557  0.9388  1.6347 -0.7836
 6800TIP3    H241960   4.942   1.479   6.492  1.6647 -0.5766  1.3837
 6801TIP3   OH241961   3.087   4.132   6.945 -0.3445 -0.1815 -0.2085
 6801TIP3    H141962   2.991   4.123   6.947 -0.3056 -0.4942  1.9778
 6801TIP3    H241963   3.117   4.056   6.896 -1.3700  1.8404 -4.1658
 6802TIP3   OH241964   5.503   5.930   7.204  0.1638  0.3312  0.2084
 6802TIP3    H141965   5.570   5.868   7.231  0.0980  0.9079  1.7853
 6802TIP3    H241966   5.547   5.989   7.142  0.8402  0.1034  0.4715
 6803TIP3   OH241967   4.763   4.630   7.555  0.5664  0.6161 -0.2886
 6803TIP3    H141968   4.775   4.547   7.510  0.1714 -0.7569  2.1052
 6803TIP3    H241969   4.773   4.696   7.486  1.7820 -1.3506 -2.0344
 6804TIP3   OH241970   6.605   4.999   2.329 -0.4737 -0.7722  0.2866
 6804TIP3    H141971   6.558   5.053   2.265  0.1120  0.5174  0.9101
 6804TIP3    H241972   6.623   5.059   2.402 -0.9569 -2.1700  1.5708
 6805TIP3   OH241973   0.385   4.863   6.436  0.2564  0.3690 -0.3110
 6805TIP3    H141974   0.358   4.781   6.394 -0.9256  0.5843  0.0058
 6805TIP3    H241975   0.418   4.917   6.364 -2.7744  1.1559 -1.1828
 6806TIP3   OH241976   3.798   6.100   1.162  0.5634  0.7014 -0.2929
 6806TIP3    H141977   3.829   6.184   1.198 -0.5346  0.6768  0.7276
 6806TIP3    H241978   3.804   6.039   1.235 -2.6751  0.8920  0.2146
 6807TIP3   OH241979   3.397   1.296   0.047 -0.6847  0.3548  0.3295
 6807TIP3    H141980   3.302   1.299   0.053 -0.7236  0.4619 -0.3485
 6807TIP3    H241981   3.415   1.250  -0.035 -0.1740  2.3171 -0.6830
 6808TIP3   OH241982   4.939   7.043   2.118  0.2163 -0.2456  0.1384
 6808TIP3    H141983   4.940   7.090   2.201  2.5132  2.2967 -1.2018
 6808TIP3    H241984   4.850   7.011   2.109 -0.1037 -0.4868  3.4918
 6809TIP3   OH241985   4.514   4.435   0.067 -0.4131 -0.2625  0.1537
 6809TIP3    H141986   4.571   4.406  -0.005  0.3184  2.3174 -0.3257
 6809TIP3    H241987   4.527   4.368   0.135  1.0121 -1.2377 -1.0253
 6810TIP3   OH241988   3.907   3.477   6.677  0.0850 -0.6157 -0.1762
 6810TIP3    H141989   3.833   3.453   6.734  0.0302 -1.7116 -0.6842
 6810TIP3    H241990   3.876   3.458   6.589  0.2332  0.9190 -0.5649
 6811TIP3   OH241991   1.330   2.152   0.274 -0.2652 -0.1487  0.1733
 6811TIP3    H141992   1.402   2.094   0.298 -1.2968 -0.8605  1.5962
 6811TIP3    H241993   1.297   2.116   0.191 -0.4213 -1.1552  0.6705
 6812TIP3   OH241994   0.813   0.029   1.392  0.5425  0.4298  0.4819
 6812TIP3    H141995   0.855   0.017   1.307  0.2937 -0.3394  0.4671
 6812TIP3    H241996   0.722   0.048   1.371  0.4622  0.1499  0.5802
 6813TIP3   OH241997   2.651   4.157   1.390  0.0007 -0.0516  0.2372
 6813TIP3    H141998   2.687   4.233   1.345 -1.3632  1.0697  0.9974
 6813TIP3    H241999   2.605   4.108   1.321 -0.3202  0.5597  0.0147
 6814TIP3   OH242000   0.749   7.047   0.250  0.6528 -0.6508  1.0283
 6814TIP3    H142001   0.690   7.116   0.218  1.1555 -0.8371 -0.3636
 6814TIP3    H242002   0.742   7.051   0.345 -0.7088  0.1158  0.9093
 6815TIP3   OH242003   5.356   6.384   0.414  0.8106 -0.3780  0.0215
 6815TIP3    H142004   5.425   6.433   0.459 -1.0540  0.9898  1.5026
 6815TIP3    H242005   5.311   6.450   0.362  0.4287 -1.2014 -0.6978
 6816TIP3   OH242006   1.808   5.744   0.897 -0.2726  0.5016  0.0648
 6816TIP3    H142007   1.728   5.736   0.846 -0.7166 -1.2075  0.9885
 6816TIP3    H242008   1.878   5.746   0.832 -0.8600 -1.3062 -0.6527
 6817TIP3   OH242009   0.638   6.694   1.876  0.2549  0.1358 -0.2896
 6817TIP3    H142010   0.592   6.776   1.892  0.2492  0.2862 -1.0497
 6817TIP3    H242011   0.726   6.708   1.912  0.4311  0.6735 -0.9270
 6818TIP3   OH242012   4.586   4.437   6.672 -0.1983  0.1423 -0.1168
 6818TIP3    H142013   4.548   4.356   6.638 -0.4698  0.7680 -1.3345
 6818TIP3    H242014   4.514   4.480   6.719  0.4680 -1.2400  2.2081
 6819TIP3   OH242015   2.893   6.388   6.458 -0.3535 -0.3013 -0.4571
 6819TIP3    H142016   2.829   6.410   6.526 -0.1677  0.1160 -0.4140
 6819TIP3    H242017   2.848   6.407   6.376 -1.3475 -2.8355 -0.5422
 6820TIP3   OH242018   6.188   6.767   0.795  0.1288  0.0970  0.3405
 6820TIP3    H142019   6.225   6.689   0.838  0.1947 -0.2062 -0.2671
 6820TIP3    H242020   6.095   6.748   0.787  0.3894 -0.5852 -1.2200
 6821TIP3   OH242021   3.546   5.464   0.536  0.5535  0.0906 -0.3334
 6821TIP3    H142022   3.569   5.376   0.509 -0.1991  0.0921 -1.0159
 6821TIP3    H242023   3.495   5.499   0.463  0.4858  0.9363  0.1069
 6822TIP3   OH242024   2.186   1.115   0.381 -0.0488 -0.4742  0.0189
 6822TIP3    H142025   2.163   1.083   0.294  0.9995 -0.8770 -0.1190
 6822TIP3    H242026   2.245   1.189   0.364  2.6988 -2.4971  0.3912
 6823TIP3   OH242027   5.554   5.556   1.542  0.6540  0.4631  0.2407
 6823TIP3    H142028   5.647   5.581   1.539  1.2753 -1.7252  0.1749
 6823TIP3    H242029   5.545   5.491   1.472 -0.6353 -0.2761  1.0858
 6824TIP3   OH242030   5.972   6.635   7.437 -0.2696  0.7271  0.3492
 6824TIP3    H142031   6.035   6.702   7.409 -0.9574  0.1894 -2.6047
 6824TIP3    H242032   6.025   6.569   7.481  0.7133  2.0730  1.2424
 6825TIP3   OH242033   6.250   0.475   0.786  0.1943 -0.2479 -0.3629
 6825TIP3    H142034   6.244   0.510   0.874 -1.8867  0.1259 -0.6420
 6825TIP3    H242035   6.200   0.394   0.788  0.5143 -0.4698 -1.0815
 6826TIP3   OH242036   5.191   3.282   1.074 -0.2733  0.0881  0.7130
 6826TIP3    H142037   5.260   3.283   1.008  0.9746  1.7446  2.0055
 6826TIP3    H242038   5.198   3.366   1.118 -1.8183 -0.5365  2.2115
 6827TIP3   OH242039   0.847   5.239   0.066  0.1633 -0.6162 -0.1648
 6827TIP3    H142040   0.845   5.166   0.004 -0.1772 -1.9916  1.4383
 6827TIP3    H242041   0.888   5.202   0.145  1.9316  1.4878 -0.0428
 6828TIP3   OH242042   3.383   4.728   6.361 -0.6571  0.1814 -0.5717
 6828TIP3    H142043   3.318   4.791   6.331 -1.2828 -0.4446 -0.5506
 6828TIP3    H242044   3.332   4.648   6.380 -0.3691  0.6820  2.6299
 6829TIP3   OH242045   3.786   2.654   0.662 -0.2262 -0.0985 -0.0125
 6829TIP3    H142046   3.757   2.691   0.579  0.4532 -0.6257 -0.4912
 6829TIP3    H242047   3.882   2.655   0.657 -0.1913 -0.8019  0.4654
 6830TIP3   OH242048   5.355   5.938   7.849  0.3299 -1.0466 -0.0860
 6830TIP3    H142049   5.403   5.985   7.917  0.0757 -0.3976 -0.3576
 6830TIP3    H242050   5.283   5.895   7.896 -1.0974  1.1074 -0.2334
 6831TIP3   OH242051   6.386   0.283   1.579  0.4972  0.1045 -0.5254
 6831TIP3    H142052   6.429   0.199   1.596  0.2322 -0.2510 -1.5592
 6831TIP3    H242053   6.336   0.301   1.658 -1.0559 -1.7145 -1.0447
 6832TIP3   OH242054   1.282   6.772   2.355 -0.5073 -0.0645  0.2665
 6832TIP3    H142055   1.348   6.840   2.339 -0.4635 -0.1506  0.0732
 6832TIP3    H242056   1.243   6.757   2.269 -0.1381 -0.6744  0.2047
 6833TIP3   OH242057   2.381   6.605   2.150  0.1721  0.1015 -0.3354
 6833TIP3    H142058   2.450   6.632   2.089  1.0728  0.3429  0.7612
 6833TIP3    H242059   2.419   6.619   2.237 -1.8823  1.8544  0.3329
 6834TIP3   OH242060   5.667   6.109   6.770 -0.0487  0.3333 -0.2392
 6834TIP3    H142061   5.610   6.141   6.700 -0.5465  3.1495  1.3991
 6834TIP3    H242062   5.618   6.126   6.850  1.1039 -1.5936  0.9171
 6835TIP3   OH242063   4.637   0.740   0.455  0.0186  0.3022  0.0461
 6835TIP3    H142064   4.728   0.727   0.479 -0.8095 -2.0120  2.2054
 6835TIP3    H242065   4.622   0.679   0.383 -0.4298 -1.2228  1.3865
 6836TIP3   OH242066   5.879   1.811   7.898 -0.4102  0.3290 -0.0142
 6836TIP3    H142067   5.917   1.750   7.834 -0.2701 -0.0784  0.4526
 6836TIP3    H242068   5.799   1.767   7.927  0.0621  0.0366  0.8552
 6837TIP3   OH242069   2.697   4.338   0.371  0.4266  0.1077 -0.2630
 6837TIP3    H142070   2.689   4.243   0.365 -0.9406  0.1160  0.9519
 6837TIP3    H242071   2.759   4.362   0.303  0.7980 -1.6596 -0.5650
 6838TIP3   OH242072   2.479   6.068   0.360 -0.0357  0.1751  0.1670
 6838TIP3    H142073   2.438   6.091   0.444 -0.6312 -1.3953  0.3219
 6838TIP3    H242074   2.481   6.150   0.311 -1.7550  0.6287  0.8370
 6839TIP3   OH242075   2.858   6.272   0.877  0.4171  0.3220  0.2417
 6839TIP3    H142076   2.816   6.198   0.923  1.0129 -0.6261 -0.7155
 6839TIP3    H242077   2.947   6.242   0.861 -0.1872  0.0323 -2.8699
 6840TIP3   OH242078   2.310   1.228   1.876 -0.0012  0.1492  0.1018
 6840TIP3    H142079   2.380   1.166   1.900 -0.1997 -0.2789 -0.4016
 6840TIP3    H242080   2.305   1.221   1.781 -0.9522 -0.0643  0.1657
 6841TIP3   OH242081   2.597   6.508   0.999 -0.1912  0.4702 -0.0494
 6841TIP3    H142082   2.503   6.521   1.011  0.2640  2.7313  1.3880
 6841TIP3    H242083   2.604   6.444   0.928 -2.8210 -0.8547  0.8263
 6842TIP3   OH242084   6.516   0.064   0.922 -1.1865  0.1088 -0.1472
 6842TIP3    H142085   6.524   0.046   0.829 -1.6540  0.5897 -0.2815
 6842TIP3    H242086   6.488   0.156   0.927 -0.7367  0.2227  0.4766
 6843TIP3   OH242087   1.818   2.497   2.364  0.2162  0.3393 -0.1086
 6843TIP3    H142088   1.830   2.449   2.281  2.1109 -0.7345  0.7561
 6843TIP3    H242089   1.860   2.581   2.349 -1.2498  0.9472 -0.9145
 6844TIP3   OH242090   1.705   0.085   1.269 -0.1926  0.5825 -0.0766
 6844TIP3    H142091   1.653   0.018   1.223  1.7826 -1.9733  1.2426
 6844TIP3    H242092   1.749   0.133   1.199  0.9887 -1.7570 -1.0276
 6845TIP3   OH242093   5.451   1.947   1.736  0.2733  0.0639 -0.6022
 6845TIP3    H142094   5.492   1.861   1.727 -0.4557 -0.2823 -0.6513
 6845TIP3    H242095   5.420   1.949   1.827  0.4583  0.3516 -0.5441
 6846TIP3   OH242096   2.532   0.945   1.371  0.3318 -0.4764  0.2876
 6846TIP3    H142097   2.473   0.881   1.331 -0.2905  1.1491 -1.4861
 6846TIP3    H242098   2.503   0.951   1.462 -1.4207 -0.6438 -0.2436
 6847TIP3   OH242099   1.371   0.858   7.095  0.2122  0.6068  0.3739
 6847TIP3    H142100   1.323   0.936   7.066  0.9796  1.5761  1.6470
 6847TIP3    H242101   1.461   0.873   7.068  0.0501 -0.6411 -0.9033
 6848TIP3   OH242102   0.933   6.581   1.373  0.1198  0.2378 -0.3344
 6848TIP3    H142103   0.850   6.611   1.336 -0.2216 -0.4252 -0.1020
 6848TIP3    H242104   0.934   6.617   1.462  0.3516  0.7279 -0.5268
 6849TIP3   OH242105   3.839   4.135   1.200  0.1666 -0.0789 -0.6527
 6849TIP3    H142106   3.892   4.214   1.203 -0.8030  0.5349  1.1621
 6849TIP3    H242107   3.862   4.087   1.280 -0.9558 -0.4919 -0.5623
 6850TIP3   OH242108   0.161   4.692   6.805  0.4872 -1.1034  0.1133
 6850TIP3    H142109   0.072   4.672   6.775  0.3758  0.7327 -0.8640
 6850TIP3    H242110   0.187   4.769   6.754  2.7229 -1.7283  0.2382
 6851TIP3   OH242111   4.716   6.977   1.172  0.2513  0.4726  0.0148
 6851TIP3    H142112   4.636   6.983   1.225  0.7294 -0.9505  0.9447
 6851TIP3    H242113   4.699   7.032   1.096 -1.4167  0.5887  0.4533
 6852TIP3   OH242114   1.171   2.519   2.441  0.5334  0.5212  0.9201
 6852TIP3    H142115   1.194   2.607   2.469 -0.4750  0.5346  1.7478
 6852TIP3    H242116   1.076   2.513   2.456  0.5052 -0.5212  0.3850
 6853TIP3   OH242117   6.138   5.988   2.374  0.3667 -0.2162 -0.1150
 6853TIP3    H142118   6.143   5.927   2.447 -0.2358 -1.3081 -0.9579
 6853TIP3    H242119   6.227   5.992   2.339  0.1809 -1.5416 -0.7772
 6854TIP3   OH242120   4.041   5.441   7.950 -0.1295 -0.1975 -0.1581
 6854TIP3    H142121   3.992   5.472   8.027  0.6117  0.0818  0.2055
 6854TIP3    H242122   3.988   5.369   7.916  0.3352 -1.3851  1.5599
 6855TIP3   OH242123   0.604   0.906   1.979 -0.3702 -0.2037  0.0649
 6855TIP3    H142124   0.687   0.863   1.997 -0.3847 -0.5990 -0.8144
 6855TIP3    H242125   0.555   0.900   2.061  0.4843  0.0782  0.5988
 6856TIP3   OH242126   0.299   6.355   1.282 -0.5795  0.1345  0.1357
 6856TIP3    H142127   0.350   6.407   1.345 -1.8068  0.6141  0.7600
 6856TIP3    H242128   0.363   6.323   1.219  0.9023 -1.4517  2.3714
 6857TIP3   OH242129   0.970   6.728   2.350 -0.1432 -0.2556  0.3584
 6857TIP3    H142130   1.028   6.782   2.297 -0.4816  1.2616  1.5027
 6857TIP3    H242131   1.029   6.686   2.414 -0.2285  0.9507  1.2462
 6858TIP3   OH242132   2.113   0.812   7.743  0.1706  0.4586 -0.5054
 6858TIP3    H142133   2.163   0.731   7.730 -1.1007 -0.3950 -0.2875
 6858TIP3    H242134   2.178   0.881   7.751  1.2516 -0.4429 -1.4992
 6859TIP3   OH242135   2.070   7.005   7.026 -0.2445 -0.3440 -0.2414
 6859TIP3    H142136   2.047   7.024   6.935 -0.9627 -3.3509 -0.7504
 6859TIP3    H242137   1.986   6.997   7.071  0.0905  0.3532  0.5123
 6860TIP3   OH242138   0.531   5.842   1.477  0.6306 -0.1513  0.0223
 6860TIP3    H142139   0.479   5.849   1.397 -0.3632 -0.1510  0.6539
 6860TIP3    H242140   0.549   5.748   1.485  0.1651 -0.2338  0.1440
 6861TIP3   OH242141   2.720   0.772   2.077  0.1199 -0.1254  0.0888
 6861TIP3    H142142   2.775   0.727   2.013  0.8571  0.0179  0.6277
 6861TIP3    H242143   2.633   0.733   2.065  0.0316  0.5489 -1.6505
 6862TIP3   OH242144   5.203   0.405   0.586 -0.0159  0.2563 -0.6399
 6862TIP3    H142145   5.295   0.382   0.596  0.2498  0.9960 -1.3963
 6862TIP3    H242146   5.156   0.323   0.600  0.6978  0.0554  0.6582
 6863TIP3   OH242147   3.046   5.447   1.494 -0.4675  0.3863  0.5259
 6863TIP3    H142148   3.030   5.536   1.464 -1.8029  0.2866  0.9000
 6863TIP3    H242149   3.017   5.391   1.422  0.4697  0.2514  0.2474
 6864TIP3   OH242150   4.546   6.875   1.715  0.4297  0.0022  0.2409
 6864TIP3    H142151   4.479   6.879   1.647 -0.3181  0.6229  1.0044
 6864TIP3    H242152   4.603   6.802   1.688 -0.2076 -0.1588 -0.7124
 6865TIP3   OH242153   1.644   6.701   1.406 -0.2903  0.0198 -0.4485
 6865TIP3    H142154   1.573   6.678   1.345  0.1373 -0.7841 -0.6493
 6865TIP3    H242155   1.627   6.647   1.483 -0.0370  0.0181 -0.3954
 6866TIP3   OH242156   3.785   0.898   2.096 -0.3123  0.3304 -0.6066
 6866TIP3    H142157   3.833   0.851   2.028  1.0915 -0.1297  0.6786
 6866TIP3    H242158   3.694   0.871   2.084  0.3971 -2.4601 -0.1477
 6867TIP3   OH242159   0.352   3.170   1.499  0.2809 -0.5814  0.3772
 6867TIP3    H142160   0.264   3.142   1.522 -0.6109  3.0813  1.7982
 6867TIP3    H242161   0.366   3.139   1.410 -1.9344 -2.2925  0.6042
 6868TIP3   OH242162   3.122   2.100   1.708 -0.1007  0.0651  0.0193
 6868TIP3    H142163   3.193   2.068   1.765  0.6632 -2.6579 -2.3583
 6868TIP3    H242164   3.155   2.088   1.620 -2.6652  0.9617 -1.1090
 6869TIP3   OH242165   2.567   3.804   0.905 -0.6912 -0.0017  0.1063
 6869TIP3    H142166   2.651   3.850   0.907 -0.1616 -0.8821 -1.3084
 6869TIP3    H242167   2.590   3.712   0.901 -1.7064 -0.2202 -1.2863
 6870TIP3   OH242168   6.041   1.934   1.797 -0.2776 -0.3022  0.3156
 6870TIP3    H142169   5.954   1.909   1.765 -0.6301 -0.0149  1.0239
 6870TIP3    H242170   6.066   1.863   1.856 -1.3077  1.0046  2.3738
 6871TIP3   OH242171   6.085   0.527   0.545 -0.3961 -0.2371 -0.2541
 6871TIP3    H142172   6.080   0.516   0.450  1.6804  0.1152 -0.4094
 6871TIP3    H242173   6.136   0.452   0.575 -0.8675 -0.2339  0.5752
 6872TIP3   OH242174   5.279   5.241   1.578  0.4489 -0.2495  0.2013
 6872TIP3    H142175   5.312   5.268   1.492  1.2208 -0.7513  0.3320
 6872TIP3    H242176   5.184   5.236   1.567  0.3283  1.9118  0.0080
 6873TIP3   OH242177   3.928   2.788   7.987  0.3436  0.0461 -0.1568
 6873TIP3    H142178   3.895   2.864   8.034 -1.8066 -0.5629 -0.6275
 6873TIP3    H242179   3.954   2.727   8.057  0.4507  0.5141  0.2202
 6874TIP3   OH242180   3.548   6.733   1.598 -0.8167  0.0608 -0.1094
 6874TIP3    H142181   3.621   6.794   1.598  0.7668 -1.7704 -0.5417
 6874TIP3    H242182   3.511   6.739   1.686  1.8344 -1.2478  1.1597
 6875TIP3   OH242183   4.205   6.967   1.299 -0.2672  1.1726  0.6000
 6875TIP3    H142184   4.119   7.004   1.276 -1.4648 -1.8057  0.0514
 6875TIP3    H242185   4.208   6.883   1.253  2.9714  1.2195  0.6127
 6876TIP3   OH242186   1.019   3.173   7.627  0.6581  0.2201 -0.1590
 6876TIP3    H142187   0.938   3.123   7.634  0.5835  0.6009  2.3113
 6876TIP3    H242188   1.019   3.229   7.705  3.1578  0.4102 -0.2580
 6877TIP3   OH242189   2.498   0.016   0.741  0.5245 -0.0314  0.3163
 6877TIP3    H142190   2.528  -0.060   0.790  4.0902 -1.0098 -3.0384
 6877TIP3    H242191   2.424  -0.016   0.689  0.4657 -0.5668  0.7341
 6878TIP3   OH242192   6.399   5.196   1.059 -0.0504  0.7114  0.0748
 6878TIP3    H142193   6.478   5.191   1.006 -1.4085 -0.8124 -1.8452
 6878TIP3    H242194   6.404   5.120   1.117  0.1007  0.8685  0.2702
 6879TIP3   OH242195   4.851   3.541   8.030 -0.1523  0.6057 -0.2577
 6879TIP3    H142196   4.870   3.470   7.969  0.4440  1.1651 -0.7271
 6879TIP3    H242197   4.782   3.592   7.987  1.1477  1.7252 -1.0512
 6880TIP3   OH242198   0.685   2.217   7.322 -0.1608 -0.9268 -0.4731
 6880TIP3    H142199   0.634   2.181   7.394  1.1967  0.3258  1.1583
 6880TIP3    H242200   0.769   2.171   7.327  0.5159  0.3025 -0.2153
 6881TIP3   OH242201   4.067   4.570   0.446 -0.3135  0.2165  0.3773
 6881TIP3    H142202   4.093   4.622   0.370  2.5239  0.9358  1.7599
 6881TIP3    H242203   4.113   4.487   0.435 -2.0647 -0.7048 -0.0620
 6882TIP3   OH242204   6.871   0.686   0.070 -0.0501  0.3011  0.2259
 6882TIP3    H142205   6.923   0.608   0.048  0.6639  0.5253  1.0987
 6882TIP3    H242206   6.817   0.701  -0.007  0.7914 -0.2584 -0.4820
 6883TIP3   OH242207   5.016   2.160   0.634  0.1281  0.1667  0.1982
 6883TIP3    H142208   5.088   2.098   0.634  0.4544  0.5323  1.4659
 6883TIP3    H242209   5.050   2.238   0.678 -0.5303  0.9563 -0.6499
 6884TIP3   OH242210   1.612   3.253   0.963 -0.1397  0.0347  0.2502
 6884TIP3    H142211   1.622   3.226   1.054  0.0205 -0.3677  0.1130
 6884TIP3    H242212   1.526   3.220   0.938  0.6300 -1.5618 -0.3375
 6885TIP3   OH242213   6.604   0.832   0.720  0.2673 -0.4817 -0.6645
 6885TIP3    H142214   6.615   0.925   0.738  1.8801 -0.8812  0.5214
 6885TIP3    H242215   6.692   0.801   0.700  0.1944 -2.3068  1.6591
 6886TIP3   OH242216   4.849   2.278   6.588 -0.7496 -0.0035  0.1707
 6886TIP3    H142217   4.928   2.324   6.559 -0.1544 -1.6864 -0.9288
 6886TIP3    H242218   4.868   2.251   6.677 -0.7623  1.0987  0.5155
 6887TIP3   OH242219   6.793   5.508   1.855 -0.0957 -0.3068 -0.2792
 6887TIP3    H142220   6.798   5.586   1.909 -1.2475 -0.2528 -0.2455
 6887TIP3    H242221   6.772   5.437   1.916  0.1054 -0.5093 -0.4395
 6888TIP3   OH242222   4.127   3.322   7.954 -0.1532  0.1168 -0.2716
 6888TIP3    H142223   4.170   3.385   7.896  1.5145 -0.0600  0.7554
 6888TIP3    H242224   4.052   3.291   7.903  0.2041  1.3668 -1.5976
 6889TIP3   OH242225   3.849   2.124   8.016  0.0920 -0.3567 -0.6848
 6889TIP3    H142226   3.835   2.219   8.022 -0.7327 -0.5360  0.5463
 6889TIP3    H242227   3.940   2.112   8.043  0.0853  0.0593 -0.4560
 6890TIP3   OH242228   4.439   1.391   2.238  0.5541 -0.1353  0.1796
 6890TIP3    H142229   4.372   1.414   2.303 -1.6996 -0.7705 -1.8021
 6890TIP3    H242230   4.468   1.476   2.203 -2.0740  0.0891 -1.6305
 6891TIP3   OH242231   6.516   5.926   2.463  1.0867 -0.7812  0.0882
 6891TIP3    H142232   6.475   5.858   2.516  1.9940 -0.9756  0.5512
 6891TIP3    H242233   6.482   5.911   2.375  0.3115 -1.0531  0.4334
 6892TIP3   OH242234   4.764   5.566   1.783 -0.3369 -0.0643 -0.3800
 6892TIP3    H142235   4.805   5.501   1.840 -1.1086 -0.4200 -0.2155
 6892TIP3    H242236   4.719   5.626   1.844 -0.5485 -0.0204 -0.5778
 6893TIP3   OH242237   5.189   6.302   1.005 -0.4099 -0.3933 -0.0241
 6893TIP3    H142238   5.156   6.339   0.923 -0.8062  0.6233  0.5855
 6893TIP3    H242239   5.226   6.218   0.980 -3.6146 -1.6739 -0.6941
 6894TIP3   OH242240   4.517   1.229   2.014  0.4113 -0.1643  0.4009
 6894TIP3    H142241   4.564   1.155   2.054 -0.3895 -0.3192  1.0844
 6894TIP3    H242242   4.492   1.283   2.089 -0.8353 -0.2894  0.0891
 6895TIP3   OH242243   4.698   2.966   1.323  0.2544  0.5072  0.6474
 6895TIP3    H142244   4.677   3.047   1.370  1.0259  0.1890  1.5532
 6895TIP3    H242245   4.617   2.943   1.278  0.0240  1.7804  0.3814
 6896TIP3   OH242246   1.025   5.579   0.059  0.0851  0.3425 -0.5465
 6896TIP3    H142247   0.933   5.569   0.035  0.3546 -1.1122 -1.0527
 6896TIP3    H242248   1.024   5.584   0.155 -0.5962  1.3014 -0.6012
 6897TIP3   OH242249   4.402   7.059   1.572 -0.0129  0.4280 -0.2156
 6897TIP3    H142250   4.406   7.120   1.646 -1.6417  0.1851  0.1047
 6897TIP3    H242251   4.331   7.092   1.517 -0.6714 -0.9590 -0.2281
 6898TIP3   OH242252   5.672   6.227   0.636 -0.4770  0.6874 -0.4722
 6898TIP3    H142253   5.630   6.145   0.612  2.2651 -0.1829 -2.5763
 6898TIP3    H242254   5.683   6.274   0.554  1.7505  1.2789  0.1177
 6899TIP3   OH242255   7.071   0.006   1.335 -0.2776  0.2417 -0.1510
 6899TIP3    H142256   7.023  -0.024   1.258  0.6267  0.9590 -1.0080
 6899TIP3    H242257   7.039   0.095   1.350  1.1612  0.9335 -1.0665
 6900TIP3   OH242258   5.623   4.357   7.495 -0.1519  0.5969  0.0528
 6900TIP3    H142259   5.678   4.366   7.418 -0.1008 -0.5976 -0.0639
 6900TIP3    H242260   5.538   4.331   7.461  0.0914 -0.7404  0.4463
 6901TIP3   OH242261   6.636   1.304   1.497  0.7240  0.8201  0.2006
 6901TIP3    H142262   6.695   1.354   1.439  0.9176 -0.3306 -0.6051
 6901TIP3    H242263   6.561   1.282   1.442  0.1364  1.1262  0.8614
 6902TIP3   OH242264   3.499   5.809   1.198 -0.1872  0.1779  0.7598
 6902TIP3    H142265   3.533   5.793   1.110 -1.1749 -0.5793  0.5092
 6902TIP3    H242266   3.496   5.723   1.239  0.8640  0.6099  1.7565
 6903TIP3   OH242267   1.997   2.276   7.843 -0.0264 -0.3908 -0.3248
 6903TIP3    H142268   2.068   2.212   7.846 -0.9375 -1.3962 -0.0639
 6903TIP3    H242269   1.990   2.298   7.750  0.6664 -0.2376 -0.3459
 6904TIP3   OH242270   5.315   1.177   0.217  0.1623  0.2974 -0.1436
 6904TIP3    H142271   5.220   1.192   0.222 -0.1036 -0.3514 -2.5301
 6904TIP3    H242272   5.351   1.222   0.293 -1.9948  1.1567  0.3975
 6905TIP3   OH242273   0.185   2.928   1.850 -0.3654  0.0546 -0.5914
 6905TIP3    H142274   0.248   2.998   1.867  1.9321 -1.7246 -1.5318
 6905TIP3    H242275   0.132   2.923   1.929  2.2045  0.0196  1.1689
 6906TIP3   OH242276   3.347   4.332   1.133 -0.0852  0.0459  0.1917
 6906TIP3    H142277   3.310   4.287   1.209 -0.1155 -0.4670 -0.1255
 6906TIP3    H242278   3.439   4.348   1.157  0.1121 -0.8092  0.0313
 6907TIP3   OH242279   0.774   3.926   7.881 -0.8962  0.0148 -0.2229
 6907TIP3    H142280   0.723   3.965   7.953  1.0594  2.0532  0.1236
 6907TIP3    H242281   0.757   3.984   7.806 -0.4688 -0.2993 -0.5654
 6908TIP3   OH242282   0.867   2.469   2.150 -0.0542 -0.7350 -0.1476
 6908TIP3    H142283   0.855   2.402   2.217  2.8869 -0.1782  1.0433
 6908TIP3    H242284   0.945   2.442   2.103  0.6896  1.3942 -0.1827
 6909TIP3   OH242285   0.476   4.000   0.194 -0.2400 -0.1342 -0.5537
 6909TIP3    H142286   0.413   4.046   0.250 -1.7871 -3.0201  0.1358
 6909TIP3    H242287   0.509   3.929   0.249  0.3100 -1.3409 -2.4243
 6910TIP3   OH242288   1.276   3.432   2.348  0.1049  0.3555 -0.2277
 6910TIP3    H142289   1.217   3.381   2.403 -0.0733 -0.9212 -1.5891
 6910TIP3    H242290   1.219   3.472   2.282  0.2689  2.1606  0.6967
 6911TIP3   OH242291   0.750   5.443   1.656  0.1347 -0.0220 -0.1587
 6911TIP3    H142292   0.831   5.491   1.671  0.5113 -0.6043 -0.3025
 6911TIP3    H242293   0.766   5.394   1.575 -0.6929  0.5739 -0.6799
 6912TIP3   OH242294   0.681   3.230   2.185  0.2399 -0.1380 -0.5135
 6912TIP3    H142295   0.679   3.164   2.115 -1.6851 -0.3662 -0.2620
 6912TIP3    H242296   0.623   3.299   2.154 -0.0700  0.0793  0.5473
 6913TIP3   OH242297   0.558   3.039   2.372 -0.0030  0.1838  0.4191
 6913TIP3    H142298   0.612   3.108   2.334 -1.1365 -0.5686 -2.6821
 6913TIP3    H242299   0.594   2.958   2.337 -0.6922 -0.5914  1.4748
 6914TIP3   OH242300   2.780   3.554   7.217 -0.3826 -0.2209 -0.3096
 6914TIP3    H142301   2.689   3.578   7.199 -0.3736  0.1717  0.1487
 6914TIP3    H242302   2.805   3.608   7.292 -0.1731 -1.2707  0.3765
 6915TIP3   OH242303   3.914   0.400   0.930 -0.4036  0.0033 -0.6100
 6915TIP3    H142304   3.823   0.430   0.927 -0.9924 -1.7940 -1.6418
 6915TIP3    H242305   3.944   0.422   1.018 -2.6500 -1.6213  0.6181
 6916TIP3   OH242306   6.972   0.998   2.106 -0.1203  0.0975 -0.5004
 6916TIP3    H142307   6.919   1.006   2.027 -4.1038  3.6171  2.2872
 6916TIP3    H242308   7.010   1.085   2.119  0.4597 -0.4161  1.4907
 6917TIP3   OH242309   1.245   4.613   6.888  0.5370  0.0856  0.1592
 6917TIP3    H142310   1.320   4.665   6.860  0.0045  0.7365 -0.1051
 6917TIP3    H242311   1.213   4.572   6.807  0.6363 -0.2138  0.2749
 6918TIP3   OH242312   1.638   4.297   0.682  0.4652 -0.8781 -0.1131
 6918TIP3    H142313   1.590   4.317   0.602 -0.3140 -1.5665  0.1642
 6918TIP3    H242314   1.728   4.326   0.665 -0.5702  2.8618  0.2917
 6919TIP3   OH242315   3.872   1.831   1.698  0.7453  0.1457  0.4369
 6919TIP3    H142316   3.868   1.907   1.755 -1.0563  0.0284  0.5147
 6919TIP3    H242317   3.872   1.756   1.757 -1.1019  0.0248  0.3261
 6920TIP3   OH242318   1.561   6.039   7.995 -0.0375  0.5497  0.4923
 6920TIP3    H142319   1.623   6.064   7.927  0.6041  1.5521  1.4353
 6920TIP3    H242320   1.553   6.116   8.051 -0.4726 -0.2883  1.6195
 6921TIP3   OH242321   3.784   3.765   2.310  0.2734 -0.3112  0.3454
 6921TIP3    H142322   3.786   3.858   2.285  2.1358 -0.5152 -0.3605
 6921TIP3    H242323   3.872   3.748   2.343 -0.4967 -1.4800  1.8681
 6922TIP3   OH242324   3.331   2.797   2.221 -0.6012 -0.2984  0.5711
 6922TIP3    H142325   3.263   2.795   2.288 -1.5000  2.1873 -0.2171
 6922TIP3    H242326   3.373   2.882   2.232  0.1909 -0.4536 -1.0940
 6923TIP3   OH242327   3.263   1.350   2.224 -0.0458  0.2672 -0.0106
 6923TIP3    H142328   3.202   1.276   2.220  0.6911 -0.2404 -2.1399
 6923TIP3    H242329   3.342   1.319   2.182 -0.1415  2.6597 -2.0740
 6924TIP3   OH242330   2.586   2.414   2.417 -0.1525 -0.5243  0.3854
 6924TIP3    H142331   2.655   2.360   2.380  0.4941 -0.9602  2.1902
 6924TIP3    H242332   2.545   2.359   2.484 -0.6611  0.5767  0.9988
 6925TIP3   OH242333   0.379   5.821   0.890  0.0870  0.4349  0.2284
 6925TIP3    H142334   0.417   5.887   0.949  1.0903 -0.3965  0.5229
 6925TIP3    H242335   0.297   5.797   0.933 -0.7366  2.1259 -0.3349
 6926TIP3   OH242336   1.529   3.315   2.035  0.6103  0.5401  0.1238
 6926TIP3    H142337   1.586   3.340   1.963  1.2967 -0.6935  0.2321
 6926TIP3    H242338   1.561   3.365   2.110  0.7068  0.8476 -0.1232
 6927TIP3   OH242339   6.628   6.755   7.779  0.0267 -0.5515  0.1067
 6927TIP3    H142340   6.539   6.762   7.814  0.3260 -0.7160  0.9057
 6927TIP3    H242341   6.637   6.829   7.719 -1.1105 -1.2829 -0.9904
 6928TIP3   OH242342   2.843   2.355   1.916  0.6082  0.3992 -0.4708
 6928TIP3    H142343   2.824   2.261   1.915  2.8205 -0.1111  0.7449
 6928TIP3    H242344   2.839   2.379   2.009  3.2714  0.7583 -0.4135
 6929TIP3   OH242345   2.177   3.020   2.348 -0.5865  0.0883  0.6662
 6929TIP3    H142346   2.263   3.063   2.344 -1.7819  2.5896  0.7305
 6929TIP3    H242347   2.197   2.928   2.365  2.0600  0.7713  1.5451
 6930TIP3   OH242348   4.851   4.871   1.137  0.0252  0.5133  0.0424
 6930TIP3    H142349   4.929   4.918   1.167  0.2980 -0.5051  0.9493
 6930TIP3    H242350   4.817   4.828   1.215  0.8274 -2.2917 -1.0902
 6931TIP3   OH242351   6.037   3.054   0.054  0.3088  0.3211  0.0199
 6931TIP3    H142352   6.064   3.070   0.144 -3.6139  1.4842  1.0805
 6931TIP3    H242353   6.019   3.141   0.018 -2.1780 -0.3383 -0.4817
 6932TIP3   OH242354   5.301   4.558   0.934 -0.3051  0.7003  0.0191
 6932TIP3    H142355   5.219   4.607   0.930 -0.9517 -0.4105 -0.5383
 6932TIP3    H242356   5.282   4.476   0.889  0.9465  0.1888  0.4087
 6933TIP3   OH242357   4.184   2.601   7.678  0.7523 -0.6245  0.1668
 6933TIP3    H142358   4.117   2.560   7.734  2.2092 -0.4748  2.0812
 6933TIP3    H242359   4.265   2.592   7.728  2.0320 -0.0694 -1.7585
 6934TIP3   OH242360   2.625   1.096   0.963 -0.1575 -1.1491 -0.8249
 6934TIP3    H142361   2.640   1.047   0.882 -0.2226  0.2119 -1.6755
 6934TIP3    H242362   2.534   1.078   0.986 -0.9221  0.5227 -2.4818
 6935TIP3   OH242363   5.034   3.549   2.083 -0.5088 -0.1040  0.8140
 6935TIP3    H142364   5.063   3.633   2.118  0.4852  0.0769 -0.3966
 6935TIP3    H242365   4.939   3.554   2.082 -0.4283  1.3499 -0.0844
 6936TIP3   OH242366   5.081   4.419   0.601 -0.2548 -0.5599  0.3671
 6936TIP3    H142367   5.075   4.494   0.542  0.6087  0.2562  1.3080
 6936TIP3    H242368   4.990   4.390   0.612 -0.6509  0.6968  0.4593
 6937TIP3   OH242369   0.154   5.258   0.842  0.3144  0.0483 -0.0097
 6937TIP3    H142370   0.204   5.178   0.824  2.8204  1.0198  2.4191
 6937TIP3    H242371   0.071   5.227   0.877  0.8310 -1.5175 -0.1455
 6938TIP3   OH242372   4.640   3.867   0.433 -0.2894  0.1752 -0.0723
 6938TIP3    H142373   4.712   3.804   0.430 -0.1667  0.3433 -0.6027
 6938TIP3    H242374   4.681   3.949   0.461 -0.0852  0.5419 -1.4348
 6939TIP3   OH242375   2.637   1.696   1.305  0.3005 -0.3795 -0.1168
 6939TIP3    H142376   2.644   1.617   1.358 -0.6764 -1.0428 -0.9595
 6939TIP3    H242377   2.563   1.744   1.343  0.3975 -0.2498 -0.0921
 6940TIP3   OH242378   3.575   4.171   1.227  0.0384 -0.1286 -0.1947
 6940TIP3    H142379   3.537   4.105   1.284  0.6540  2.3770  3.2760
 6940TIP3    H242380   3.667   4.146   1.219  0.4091  0.5830  1.6112
 6941TIP3   OH242381   3.540   5.050   1.258 -0.0443  0.1576 -0.7522
 6941TIP3    H142382   3.590   5.023   1.335 -0.7219  1.2831  0.0891
 6941TIP3    H242383   3.599   5.033   1.184  0.7113 -0.6621  0.0280
 6942TIP3   OH242384   5.048   2.814   1.857  0.6467  0.2988 -0.1933
 6942TIP3    H142385   5.107   2.889   1.844  0.7298  0.4725  1.0781
 6942TIP3    H242386   4.975   2.849   1.908 -0.3476 -0.0267 -1.3632
 6943TIP3   OH242387   2.585   3.654   0.610 -0.3004  0.0197  0.0414
 6943TIP3    H142388   2.618   3.733   0.652  0.3032 -0.5919  0.7102
 6943TIP3    H242389   2.647   3.637   0.539 -0.2951  0.0025  0.0503
 6944TIP3   OH242390   3.353   3.980   7.320 -0.0371  0.3181  0.4276
 6944TIP3    H142391   3.288   3.963   7.252  0.3353  1.5675 -0.2590
 6944TIP3    H242392   3.325   3.927   7.394 -1.1765 -0.0598 -0.2626
 6945TIP3   OH242393   6.714   2.688   6.924 -0.2510  0.0399 -0.4187
 6945TIP3    H142394   6.679   2.621   6.865  0.9853 -2.7372  1.8969
 6945TIP3    H242395   6.636   2.727   6.964 -0.9989  0.1717 -1.9659
 6946TIP3   OH242396   4.341   3.173   1.685  0.1170  0.3415 -0.2574
 6946TIP3    H142397   4.301   3.173   1.772 -0.4875 -0.0198 -0.5241
 6946TIP3    H242398   4.418   3.117   1.693 -1.1590 -1.5042 -0.4792
 6947TIP3   OH242399   4.903   4.988   1.487 -0.4936 -0.3593 -0.2280
 6947TIP3    H142400   4.943   4.917   1.436 -1.3807  0.3000 -1.8785
 6947TIP3    H242401   4.891   5.058   1.423 -0.2854  1.0184  1.2342
 6948TIP3   OH242402   6.041   4.407   0.818  0.0093 -0.2763 -0.5144
 6948TIP3    H142403   6.041   4.457   0.899  1.1474  0.1220 -0.7510
 6948TIP3    H242404   6.069   4.320   0.843  0.3491 -0.1566 -0.4816
 6949TIP3   OH242405   0.043   3.950   7.228  0.1452 -0.0259  0.3961
 6949TIP3    H142406  -0.038   3.926   7.184  0.6350 -0.3086 -0.3687
 6949TIP3    H242407   0.015   3.990   7.311 -0.7866  0.4209 -0.1243
 6950TIP3   OH242408   5.859   2.047   6.831  0.3417 -0.3596 -0.1445
 6950TIP3    H142409   5.787   2.024   6.890 -0.3059  0.3747 -0.6415
 6950TIP3    H242410   5.832   2.012   6.746  1.3258 -1.5152 -0.0008
 6951TIP3   OH242411   6.941   2.644   1.964 -0.4408  0.8029  0.2908
 6951TIP3    H142412   6.860   2.601   1.990 -0.7158  0.1805 -1.5275
 6951TIP3    H242413   7.002   2.625   2.035 -0.7471 -2.0763 -0.1800
 6952TIP3   OH242414   0.383   2.393   1.866 -0.2627 -0.5409 -0.2482
 6952TIP3    H142415   0.475   2.367   1.872 -0.6116 -1.3406  2.8473
 6952TIP3    H242416   0.338   2.334   1.927 -2.5911  0.8072 -0.6196
 6953TIP3   OH242417   3.936   3.636   1.961 -0.1732  0.1220  0.2005
 6953TIP3    H142418   3.932   3.564   2.025 -0.9171 -0.4346 -0.4549
 6953TIP3    H242419   4.025   3.669   1.967 -0.4269  0.5434  2.0413
 6954TIP3   OH242420   5.751   3.862   1.979 -0.1378 -1.0074 -0.0345
 6954TIP3    H142421   5.829   3.872   2.034 -0.5333  2.8909 -0.0867
 6954TIP3    H242422   5.774   3.905   1.897 -2.6933  1.1207  0.3272
 6955TIP3   OH242423   5.111   1.699   1.852  0.0772  0.2288  0.6963
 6955TIP3    H142424   5.130   1.792   1.842 -0.3076  0.1629 -0.6400
 6955TIP3    H242425   5.016   1.695   1.866  0.0962  0.0342  0.7742
 6956TIP3   OH242426   0.770   2.465   0.966  0.1626  0.1814  0.5350
 6956TIP3    H142427   0.798   2.419   0.887 -2.2880 -3.0759  1.4141
 6956TIP3    H242428   0.746   2.553   0.937  2.7246  0.1950 -1.6691
 6957TIP3   OH242429   6.117   3.774   1.100  0.3446  0.1789  0.0141
 6957TIP3    H142430   6.083   3.686   1.113  0.2689  0.1776 -0.1855
 6957TIP3    H242431   6.040   3.831   1.109 -0.0698  0.0242 -2.3227
 6958TIP3   OH242432   2.162   1.566   7.706  0.0566 -0.0499  0.5062
 6958TIP3    H142433   2.253   1.568   7.676 -0.8902  0.6239 -2.4156
 6958TIP3    H242434   2.146   1.654   7.741 -0.4617  0.9382 -2.1243
 6959TIP3   OH242435   2.142   0.396   0.012 -0.3428 -0.1133  0.0781
 6959TIP3    H142436   2.207   0.364  -0.051  0.6313  1.0588  0.4674
 6959TIP3    H242437   2.110   0.318   0.056  1.2868 -0.6452  0.3385
 6960TIP3   OH242438   5.366   3.943   0.437 -0.2778 -0.5167 -0.2790
 6960TIP3    H142439   5.438   3.898   0.480 -1.1664 -1.2109  0.4897
 6960TIP3    H242440   5.356   3.898   0.353  1.5159  0.8992 -1.3031
 6961TIP3   OH242441   0.077   5.077   1.861  0.4312 -0.2650 -0.1406
 6961TIP3    H142442   0.010   5.043   1.801 -0.7333  1.4221  0.1894
 6961TIP3    H242443   0.117   5.150   1.813 -0.9757  1.5350  1.3857
 6962TIP3   OH242444   0.296   4.819   2.504 -0.3849  0.2813 -0.1372
 6962TIP3    H142445   0.374   4.844   2.456  0.5487 -2.0077  0.1236
 6962TIP3    H242446   0.253   4.902   2.526  2.8846  1.6892  1.2707
 6963TIP3   OH242447   2.308   4.031   6.307  0.1104 -0.4742 -0.1057
 6963TIP3    H142448   2.239   3.989   6.255 -1.7810 -0.2292  2.0985
 6963TIP3    H242449   2.334   3.964   6.371 -0.0588  0.3311  0.8309
 6964TIP3   OH242450   2.082   2.318   8.111 -0.2291  0.4405  0.3275
 6964TIP3    H142451   2.170   2.346   8.086  0.5479 -1.3910  0.8992
 6964TIP3    H242452   2.042   2.289   8.029  0.3778 -0.4853  0.3551
 6965TIP3   OH242453   1.321   4.248   1.655 -0.7888 -0.7493 -0.4533
 6965TIP3    H142454   1.392   4.237   1.718  0.9193  1.3037 -1.9752
 6965TIP3    H242455   1.273   4.325   1.687 -1.3351 -1.1228 -0.3629
 6966TIP3   OH242456   1.451   4.241   1.193 -0.1463  0.3250  0.3301
 6966TIP3    H142457   1.364   4.232   1.154 -0.5904 -1.1577  1.6037
 6966TIP3    H242458   1.510   4.204   1.128 -0.9223 -2.5504  1.1868
 6967TIP3   OH242459   3.748   4.261   1.718 -0.8187  0.5061  0.2606
 6967TIP3    H142460   3.670   4.313   1.699 -0.2347  1.0373 -0.6993
 6967TIP3    H242461   3.780   4.234   1.632  0.4906  0.9242  0.6129
 6968TIP3   OH242462   0.129   5.042   2.511  0.2982  0.3193  0.2715
 6968TIP3    H142463   0.154   5.126   2.474  2.2532 -0.1173  0.5804
 6968TIP3    H242464   0.045   5.059   2.555  0.4585  1.9829 -0.0503
 6969TIP3   OH242465   1.285   6.514   2.437  0.4477 -0.5707  0.4645
 6969TIP3    H142466   1.335   6.516   2.519 -0.3661 -1.2633  0.9927
 6969TIP3    H242467   1.279   6.606   2.411  1.4037 -0.4196  0.7585
 6970TIP3   OH242468   1.191   0.475   7.837 -0.4160 -0.1938  0.5087
 6970TIP3    H142469   1.144   0.554   7.811  1.0053  0.3975 -0.3159
 6970TIP3    H242470   1.274   0.507   7.874 -0.1830 -1.2599  0.9376
 6971TIP3   OH242471   4.145   3.776   0.810 -0.2814  0.0408  0.0302
 6971TIP3    H142472   4.138   3.836   0.735  0.4766  1.3634  0.9851
 6971TIP3    H242473   4.209   3.710   0.782 -1.4313 -0.5683 -1.1886
 6972TIP3   OH242474   3.163   5.016   2.065 -0.2167  0.8404 -0.5963
 6972TIP3    H142475   3.218   5.036   1.990 -2.0928  1.7401 -1.7698
 6972TIP3    H242476   3.120   4.934   2.042 -0.5099  0.9271 -0.3631
 6973TIP3   OH242477   3.018   4.426   2.111 -0.3143 -0.3971  0.3876
 6973TIP3    H142478   3.086   4.370   2.075 -0.6313 -0.4841 -0.0732
 6973TIP3    H242479   3.043   4.438   2.203 -0.1451 -1.1307  0.4390
 6974TIP3   OH242480   3.083   3.628   0.549 -0.0742  0.0577  0.2824
 6974TIP3    H142481   3.080   3.671   0.464  2.3939 -0.4838 -0.0933
 6974TIP3    H242482   3.167   3.582   0.551 -0.3018 -0.3453  2.8128
 6975TIP3   OH242483   1.845   6.320   0.667 -0.5692  0.7957 -0.4274
 6975TIP3    H142484   1.832   6.238   0.619 -1.0014  1.1540 -0.9333
 6975TIP3    H242485   1.757   6.354   0.681 -0.5081  0.1407  1.6233
 6976TIP3   OH242486   4.823   5.536   1.480 -0.1256 -0.0004 -0.2665
 6976TIP3    H142487   4.742   5.576   1.512 -0.8327 -0.3344 -1.6286
 6976TIP3    H242488   4.866   5.504   1.559 -0.3806  1.8731  0.6765
 6977TIP3   OH242489   4.370   3.447   1.116 -0.0011 -0.6227 -0.4656
 6977TIP3    H142490   4.421   3.439   1.197 -0.8183  1.8020  0.3358
 6977TIP3    H242491   4.386   3.536   1.085 -0.1878 -1.3187 -2.6684
 6978TIP3   OH242492   5.771   5.727   1.041 -0.1562  0.8181 -0.2237
 6978TIP3    H142493   5.688   5.752   1.081 -1.0142 -1.5164 -0.4326
 6978TIP3    H242494   5.829   5.709   1.115 -0.5030  0.3883 -0.0560
 6979TIP3   OH242495   2.532   4.819   7.682 -0.1247 -0.0303 -0.3347
 6979TIP3    H142496   2.518   4.845   7.591  0.6306 -1.9336 -1.0142
 6979TIP3    H242497   2.568   4.731   7.677 -2.5465 -1.2021  1.9331
 6980TIP3   OH242498   1.537   4.242   1.870 -0.0617 -0.1608 -0.1691
 6980TIP3    H142499   1.582   4.158   1.882  0.1399 -0.1771 -1.0017
 6980TIP3    H242500   1.458   4.235   1.923  0.8452 -0.1858  1.2029
 6981TIP3   OH242501   3.009   5.706   1.400 -0.0941 -0.0978 -0.1536
 6981TIP3    H142502   2.987   5.723   1.308  0.3838 -1.3009 -0.5142
 6981TIP3    H242503   2.958   5.769   1.450 -1.7019 -0.5873 -1.1601
 6982TIP3   OH242504   3.653   6.454   0.435  0.1958  0.3354 -0.0888
 6982TIP3    H142505   3.578   6.410   0.394  1.4274 -0.7891 -1.2207
 6982TIP3    H242506   3.630   6.459   0.528 -0.9929 -0.5897 -0.3147
 6983TIP3   OH242507   3.330   3.522   0.488  0.1307  0.3238 -0.2380
 6983TIP3    H142508   3.422   3.499   0.482 -0.3602 -2.1635  1.1960
 6983TIP3    H242509   3.298   3.519   0.397  1.3201  0.6583 -0.6700
 6984TIP3   OH242510   3.350   3.115   0.832  0.4009 -0.1266 -0.1768
 6984TIP3    H142511   3.303   3.171   0.771 -2.5804  0.2703  2.3357
 6984TIP3    H242512   3.390   3.175   0.895  0.5983 -0.6719  0.2270
 6985TIP3   OH242513   5.818   5.565   1.520  0.1154  0.2158  0.2165
 6985TIP3    H142514   5.849   5.656   1.525  0.0119  0.1716  1.9320
 6985TIP3    H242515   5.897   5.513   1.508  0.5210  0.2611  2.6174
 6986TIP3   OH242516   5.879   5.766   0.568  0.1046  0.1844 -0.1762
 6986TIP3    H142517   5.794   5.760   0.525  0.6158 -0.6073 -1.0927
 6986TIP3    H242518   5.864   5.737   0.657 -0.9731  1.8544  0.2101
 6987TIP3   OH242519   2.641   4.624   1.126  0.1909 -0.3608 -0.3344
 6987TIP3    H142520   2.588   4.544   1.122 -1.5505  0.5808  2.2921
 6987TIP3    H242521   2.606   4.672   1.201  3.4125  1.3290  0.1613
 6988TIP3   OH242522   0.838   4.266   1.161  0.0476 -0.1345  0.4117
 6988TIP3    H142523   0.873   4.272   1.072 -1.1457  0.9998 -0.0037
 6988TIP3    H242524   0.915   4.254   1.217  0.9428  0.7380 -0.6233
 6989TIP3   OH242525   4.629   0.275   6.383 -0.1169  0.3648  0.1483
 6989TIP3    H142526   4.581   0.291   6.301  1.3857  0.3877 -0.7514
 6989TIP3    H242527   4.693   0.208   6.360  4.4273  4.5817 -0.4011
 6990TIP3   OH242528   3.420   6.210   1.304 -0.1370  0.0208  0.3308
 6990TIP3    H142529   3.475   6.132   1.319  0.2301  0.4896  1.4313
 6990TIP3    H242530   3.331   6.177   1.308  0.0178 -0.3682  0.6951
 6991TIP3   OH242531   4.054   1.841   0.513 -0.0970 -0.1273 -0.0896
 6991TIP3    H142532   4.095   1.862   0.597  1.9826 -1.5122 -0.7013
 6991TIP3    H242533   4.092   1.756   0.489  1.5737  1.5861 -3.8085
 6992TIP3   OH242534   5.798   3.479   1.344 -0.5306 -0.0743 -0.4402
 6992TIP3    H142535   5.750   3.546   1.393  0.7758  0.1025  0.6138
 6992TIP3    H242536   5.872   3.457   1.399  1.8693  1.2635 -2.9967
 6993TIP3   OH242537   4.320   3.571   0.744 -0.1422  0.5197  0.4882
 6993TIP3    H142538   4.361   3.613   0.820  1.6918  0.0928 -0.2527
 6993TIP3    H242539   4.368   3.606   0.669  0.0721 -1.3817 -0.2675
 6994TIP3   OH242540   4.270   2.779   1.156 -0.3260 -0.2811 -0.0644
 6994TIP3    H142541   4.273   2.874   1.168  0.3570 -0.0984 -1.5415
 6994TIP3    H242542   4.176   2.759   1.150 -0.4423  0.7664 -2.8666
 6995TIP3   OH242543   6.234   6.312   2.083  0.9298  0.0717 -0.4917
 6995TIP3    H142544   6.191   6.356   2.156  0.4702 -1.1755 -0.0112
 6995TIP3    H242545   6.278   6.236   2.122  2.3126  0.4745 -1.2035
 6996TIP3   OH242546   1.059   5.644   1.995  0.5971  0.1348  0.3376
 6996TIP3    H142547   1.066   5.674   2.086  4.2546  0.8884 -0.1449
 6996TIP3    H242548   1.032   5.721   1.946  0.4710  0.2020  0.5109
 6997TIP3   OH242549   5.106   4.872   7.124 -0.3465 -0.6669 -0.4356
 6997TIP3    H142550   5.115   4.967   7.117 -0.7273 -0.5616  0.4245
 6997TIP3    H242551   5.074   4.844   7.038  2.4857 -0.3635 -1.6428
 6998TIP3   OH242552   4.055   0.627   7.344  0.0136  0.2529  0.3846
 6998TIP3    H142553   4.031   0.539   7.373 -3.7770  1.7533  2.1225
 6998TIP3    H242554   3.996   0.645   7.271  0.9789  1.2555 -0.1579
 6999TIP3   OH242555   1.108   4.407   0.367 -0.6123 -0.1450 -0.1563
 6999TIP3    H142556   1.051   4.484   0.364 -0.5851 -0.1805 -2.1385
 6999TIP3    H242557   1.197   4.443   0.365 -0.5688 -0.1747  0.8088
 7000TIP3   OH242558   6.840   4.395   1.164  0.7756 -0.0827  0.8196
 7000TIP3    H142559   6.808   4.392   1.254  2.7590  0.2474  1.5746
 7000TIP3    H242560   6.786   4.461   1.121 -0.6313 -0.7330  1.5750
 7001TIP3   OH242561   0.162   4.282   2.406 -0.1546 -0.0965 -0.1283
 7001TIP3    H142562   0.184   4.374   2.388 -2.6500  0.1302 -2.3770
 7001TIP3    H242563   0.112   4.285   2.487 -3.0864  1.0003 -1.9091
 7002TIP3   OH242564   6.969   5.359   0.194 -0.1113  0.1988  0.2436
 7002TIP3    H142565   7.059   5.386   0.177 -0.5759  0.9199 -1.1848
 7002TIP3    H242566   6.956   5.283   0.137  0.1156 -0.9547  1.7066
 7003TIP3   OH242567   5.833   3.690   0.628  0.4862 -0.3884  0.5650
 7003TIP3    H142568   5.855   3.782   0.643 -1.3478  0.1369  0.1421
 7003TIP3    H242569   5.903   3.641   0.672  0.3180  1.1886  2.6642
 7004TIP3   OH242570   6.759   3.570   2.057 -0.2196  0.2166 -0.3247
 7004TIP3    H142571   6.710   3.527   2.127 -2.1662  1.2530 -1.0347
 7004TIP3    H242572   6.814   3.634   2.103  1.2236 -1.5986  0.5556
 7005TIP3   OH242573   0.043   7.088   0.216 -0.0513 -0.4994 -0.2041
 7005TIP3    H142574   0.039   6.996   0.244  0.1016 -0.0860  1.2112
 7005TIP3    H242575   0.039   7.084   0.121  1.7927 -2.0836 -0.2406
 7006TIP3   OH242576   3.837   6.656   1.128  0.0583  0.3486  0.1252
 7006TIP3    H142577   3.888   6.621   1.202  0.7103 -1.1400 -0.9910
 7006TIP3    H242578   3.810   6.743   1.156  0.8347  0.0512  1.8698
 7007TIP3   OH242579   0.895   2.769   7.433  0.5438 -0.0345  0.5546
 7007TIP3    H142580   0.858   2.825   7.501  0.7870  0.1582  0.5291
 7007TIP3    H242581   0.983   2.805   7.418  0.3918  0.0812 -0.0496
 7008TIP3   OH242582   4.924   1.229   2.002 -0.1114 -0.1361  0.4432
 7008TIP3    H142583   4.853   1.180   1.961  0.4309  0.6045 -1.4021
 7008TIP3    H242584   4.882   1.310   2.032 -0.9643 -1.5624  3.3208
 7009TIP3   OH242585   5.015   4.028   7.445 -0.4407 -0.0776 -0.4594
 7009TIP3    H142586   5.085   4.085   7.413 -1.7723  2.0833  0.4379
 7009TIP3    H242587   4.935   4.065   7.409 -1.3695 -1.1318  0.4938
 7010TIP3   OH242588   0.395   3.850   1.368 -0.0060  0.5085  0.1901
 7010TIP3    H142589   0.457   3.913   1.407 -1.2925  0.9616  1.5485
 7010TIP3    H242590   0.317   3.857   1.422 -0.8326 -0.9338 -0.7905
 7011TIP3   OH242591   0.203   4.548   2.420  0.0788  0.3288  0.5290
 7011TIP3    H142592   0.249   4.625   2.453 -0.3267 -0.0110  1.9222
 7011TIP3    H242593   0.121   4.584   2.385 -0.0639  0.5519  1.0764
 7012TIP3   OH242594   6.537   4.704   0.862  0.6807  0.2897 -0.2868
 7012TIP3    H142595   6.567   4.656   0.786  0.1364  0.9327 -0.9151
 7012TIP3    H242596   6.496   4.783   0.826 -1.1046 -0.2243  0.5727
 7013TIP3   OH242597   0.428   4.191   1.306 -0.3819  0.4217 -0.0186
 7013TIP3    H142598   0.333   4.192   1.318 -0.4619  3.3011 -0.5114
 7013TIP3    H242599   0.463   4.238   1.382  0.5535  0.6781 -0.5928
 7014TIP3   OH242600   4.191   6.213   0.790  0.1150  0.1147 -0.2074
 7014TIP3    H142601   4.271   6.216   0.842 -0.1370 -0.4482  0.2140
 7014TIP3    H242602   4.205   6.277   0.720 -0.6807  3.0780  2.2182
 7015TIP3   OH242603   1.516   4.413   6.847  0.6611 -0.2485  0.6491
 7015TIP3    H142604   1.576   4.356   6.894  2.2035  0.7595 -0.0532
 7015TIP3    H242605   1.429   4.383   6.873  1.4407 -2.2867  1.0241
 7016TIP3   OH242606   0.615   5.293   1.110  0.2034  0.2001 -0.1854
 7016TIP3    H142607   0.612   5.225   1.043 -2.5704 -1.0898  1.1798
 7016TIP3    H242608   0.526   5.329   1.112  0.1564  0.0428  2.9531
 7017TIP3   OH242609   1.516   6.461   2.255 -0.0932 -0.1481  0.4258
 7017TIP3    H142610   1.565   6.540   2.233  2.1354 -1.9692 -1.4424
 7017TIP3    H242611   1.448   6.490   2.315  1.7687  2.8917  1.1412
 7018TIP3   OH242612   2.729   5.356   1.884 -0.3378 -0.2584  0.0134
 7018TIP3    H142613   2.683   5.388   1.962 -1.0781  0.6690 -0.8018
 7018TIP3    H242614   2.714   5.261   1.886 -1.6672 -0.0621  0.1729
 7019TIP3   OH242615   0.133   0.381   1.664  0.1127  0.7070 -0.0240
 7019TIP3    H142616   0.060   0.421   1.616 -0.4321  1.0517  1.0621
 7019TIP3    H242617   0.207   0.385   1.604 -0.8567 -0.0025 -1.2970
 7020TIP3   OH242618   1.798   5.904   1.767  0.2025 -0.2498  0.3967
 7020TIP3    H142619   1.765   5.924   1.680 -1.4777 -1.1629  0.8109
 7020TIP3    H242620   1.874   5.962   1.778 -0.8280  1.3639 -0.8256
 7021TIP3   OH242621   1.597   1.224   1.972 -1.0976 -0.0235 -0.1333
 7021TIP3    H142622   1.624   1.169   2.045 -0.6101 -0.0635 -0.3397
 7021TIP3    H242623   1.508   1.252   1.994 -0.7410  0.4481  0.7649
 7022TIP3   OH242624   3.462   0.420   1.968 -0.3783  0.2975 -0.1809
 7022TIP3    H142625   3.445   0.504   1.926  0.5952 -0.6392 -2.5628
 7022TIP3    H242626   3.386   0.366   1.945 -0.5188  0.2113  0.4792
 7023TIP3   OH242627   3.957   4.941   0.099  0.3964  0.3493 -0.1850
 7023TIP3    H142628   3.894   4.949   0.028 -1.1303 -0.2948  1.0690
 7023TIP3    H242629   3.975   4.847   0.105  0.6117  0.4106  0.1891
 7024TIP3   OH242630   0.632   5.748   1.789  0.1575 -0.4972 -0.5937
 7024TIP3    H142631   0.576   5.671   1.778 -0.1319 -0.2713 -0.7036
 7024TIP3    H242632   0.720   5.716   1.768  0.2264 -1.1003  0.5947
 7025TIP3   OH242633   1.305   6.313   6.480  0.2919  0.8523  0.6062
 7025TIP3    H142634   1.303   6.406   6.501 -0.6751  0.8618  0.5121
 7025TIP3    H242635   1.264   6.271   6.556 -0.4210  0.6132  0.0906
 7026TIP3   OH242636   3.124   2.257   0.139  0.2854  0.4916  0.5688
 7026TIP3    H142637   3.075   2.332   0.106  1.1791  0.6423 -0.4378
 7026TIP3    H242638   3.065   2.182   0.129 -0.1530  0.8600  0.4258
 7027TIP3   OH242639   4.170   1.267   0.149 -0.2666  0.2734  0.8768
 7027TIP3    H142640   4.230   1.266   0.223 -1.8736 -0.3727  2.1915
 7027TIP3    H242641   4.121   1.185   0.156  1.0815 -0.8742 -2.1866
 7028TIP3   OH242642   2.291   6.653   6.664  0.0353  0.7899  0.0325
 7028TIP3    H142643   2.362   6.689   6.717  1.2175  0.0096 -0.9888
 7028TIP3    H242644   2.270   6.722   6.601  1.9652 -0.0329 -1.6072
 7029TIP3   OH242645   0.100   3.053   1.561  0.1470 -0.3233  0.4715
 7029TIP3    H142646   0.069   3.075   1.649  0.7482  0.0388  0.5979
 7029TIP3    H242647   0.058   2.970   1.540 -2.5005  1.1137 -0.1724
 7030TIP3   OH242648   3.211   5.814   1.651  0.4455 -0.0334 -0.3468
 7030TIP3    H142649   3.249   5.726   1.654  0.6569  0.1202  2.8499
 7030TIP3    H242650   3.265   5.865   1.711  0.0491  2.1923 -1.8389
 7031TIP3   OH242651   3.476   4.906   6.584  0.0924  0.0355  0.0265
 7031TIP3    H142652   3.447   4.875   6.498  0.8890  0.7712 -0.5163
 7031TIP3    H242653   3.559   4.951   6.567 -1.0122  2.4492  0.7714
 7032TIP3   OH242654   3.580   0.107   0.499  0.2085 -0.0717  0.7182
 7032TIP3    H142655   3.641   0.165   0.453  0.6613 -1.5809 -0.6303
 7032TIP3    H242656   3.499   0.158   0.506  0.8615  1.0283  0.3110
 7033TIP3   OH242657   4.173   1.313   1.450 -0.7422  0.2685  0.5839
 7033TIP3    H142658   4.208   1.250   1.513 -1.2553 -0.8825 -0.2538
 7033TIP3    H242659   4.249   1.362   1.419 -0.2062 -0.5974  0.5220
 7034TIP3   OH242660   3.183   6.566   1.786  0.3045 -0.8735 -0.0337
 7034TIP3    H142661   3.207   6.519   1.706  2.1416  1.3429 -0.8096
 7034TIP3    H242662   3.110   6.622   1.760  0.7837 -0.2866 -0.1255
 7035TIP3   OH242663   2.564   0.209   1.965 -0.0447  0.1879  0.7281
 7035TIP3    H142664   2.543   0.302   1.955 -1.6285 -0.0846  1.2837
 7035TIP3    H242665   2.655   0.201   1.939 -0.0425  1.8236  0.2187
 7036TIP3   OH242666   5.373   6.427   1.904 -0.5424  0.1178  0.5272
 7036TIP3    H142667   5.322   6.402   1.827 -0.6268 -0.3582  0.7371
 7036TIP3    H242668   5.351   6.362   1.970  0.6711 -0.3572  0.4764
 7037TIP3   OH242669   2.641   6.054   0.863 -0.4698 -0.0129  0.2563
 7037TIP3    H142670   2.691   6.014   0.792  0.2998 -0.2309  0.9075
 7037TIP3    H242671   2.702   6.055   0.938 -1.2389  0.2745  0.8904
 7038TIP3   OH242672   3.726   3.889   0.564  0.3672  0.0412 -0.0357
 7038TIP3    H142673   3.684   3.866   0.647  1.0821  0.0423  0.3275
 7038TIP3    H242674   3.773   3.810   0.539  1.5506  0.5917  0.4266
 7039TIP3   OH242675   2.411   5.600   1.548  0.8256  0.2421  0.3075
 7039TIP3    H142676   2.332   5.558   1.583  0.2665  0.1804 -1.0078
 7039TIP3    H242677   2.483   5.560   1.597  0.1256 -0.6026  0.6630
 7040TIP3   OH242678   2.194   0.573   0.918  0.1097 -0.5401 -0.4635
 7040TIP3    H142679   2.198   0.667   0.902  0.6826 -0.3914  0.5300
 7040TIP3    H242680   2.279   0.551   0.954 -0.2023 -1.3536 -0.2175
 7041TIP3   OH242681   3.863   1.755   7.969  0.5149 -0.3175  0.6078
 7041TIP3    H142682   3.918   1.757   8.047  0.1545  2.1321  0.8465
 7041TIP3    H242683   3.925   1.759   7.896  0.7510  1.5476  0.8642
 7042TIP3   OH242684   4.939   0.617   0.551 -0.1504 -0.3624  0.3127
 7042TIP3    H142685   4.964   0.562   0.625  0.4912  1.2735  1.3408
 7042TIP3    H242686   5.012   0.678   0.540 -1.2196  0.8452 -0.2481
 7043TIP3   OH242687   2.791   6.268   1.457 -0.6117  0.4705 -0.3162
 7043TIP3    H142688   2.730   6.320   1.407 -1.4839  0.1986  0.4439
 7043TIP3    H242689   2.856   6.330   1.489 -1.2869  0.9986  0.0474
 7044TIP3   OH242690   2.998   5.418   7.813  0.0785 -0.1692  0.1292
 7044TIP3    H142691   3.008   5.509   7.785  1.6983 -0.6012 -0.8010
 7044TIP3    H242692   2.930   5.421   7.880 -0.6890  1.5575 -0.6954
 7045TIP3   OH242693   6.236   3.755   1.870  0.1626 -0.2423 -0.2832
 7045TIP3    H142694   6.295   3.682   1.854 -1.0011 -1.1947 -0.2987
 7045TIP3    H242695   6.151   3.726   1.836 -0.0245  1.6174 -1.4883
 7046TIP3   OH242696   6.822   4.911   1.012 -0.1710 -0.2058 -0.3083
 7046TIP3    H142697   6.869   4.883   0.934  1.6440 -0.5367  0.8527
 7046TIP3    H242698   6.871   4.988   1.042 -1.6144  0.6872 -0.2082
 7047TIP3   OH242699   5.767   6.654   1.382  0.1819  0.0889 -0.4937
 7047TIP3    H142700   5.828   6.726   1.364  1.1299 -0.3986  0.7184
 7047TIP3    H242701   5.781   6.633   1.474  0.2752 -1.9758 -0.9638
 7048TIP3   OH242702   4.355   5.994   2.308  0.3449 -0.5306  0.1173
 7048TIP3    H142703   4.283   5.957   2.359  0.6262 -2.1086 -0.6079
 7048TIP3    H242704   4.382   5.924   2.249  1.8110  0.3811 -0.3369
 7049TIP3   OH242705   4.118   6.201   2.572  0.3695 -0.1451 -0.1337
 7049TIP3    H142706   4.122   6.139   2.499  0.5317  0.9081 -1.0338
 7049TIP3    H242707   4.029   6.237   2.568  0.3878 -0.0688  0.1682
 7050TIP3   OH242708   1.096   0.877   7.425 -0.9286  0.1285 -0.4935
 7050TIP3    H142709   1.045   0.936   7.370 -0.9591 -0.2569 -0.8834
 7050TIP3    H242710   1.146   0.935   7.483  0.8248  0.6189 -2.4348
 7051TIP3   OH242711   5.203   6.280   1.745 -0.2764  0.2865  0.4169
 7051TIP3    H142712   5.141   6.269   1.817 -1.1029 -0.8134 -0.4491
 7051TIP3    H242713   5.149   6.299   1.669  0.6336  2.0863  0.1864
 7052TIP3   OH242714   4.011   6.321   1.508 -0.6713  0.1218 -0.0366
 7052TIP3    H142715   4.091   6.268   1.513 -0.2204  0.6820 -1.1530
 7052TIP3    H242716   4.015   6.377   1.585  0.7670  1.1916 -0.8618
 7053TIP3   OH242717   2.204   2.340   0.759  0.2102 -0.3082  0.7637
 7053TIP3    H142718   2.249   2.313   0.839 -0.1742 -0.2569  0.9984
 7053TIP3    H242719   2.228   2.274   0.694 -0.5001 -1.0600  1.2557
 7054TIP3   OH242720   4.748   6.665   1.633  0.6036 -0.1141  0.7461
 7054TIP3    H142721   4.788   6.615   1.705  1.9628  0.4381  0.3995
 7054TIP3    H242722   4.777   6.619   1.554 -0.3021 -0.3070  0.5268
 7055TIP3   OH242723   2.815   4.877   1.428 -0.2563  0.2253 -0.0225
 7055TIP3    H142724   2.844   4.837   1.510 -1.1138 -0.4832 -0.0465
 7055TIP3    H242725   2.888   4.932   1.401 -0.2341  1.0110  1.5764
 7056TIP3   OH242726   5.032   6.905   1.808 -0.2384 -0.3040 -0.0292
 7056TIP3    H142727   4.954   6.955   1.785 -0.1842 -0.9105 -1.6265
 7056TIP3    H242728   5.062   6.868   1.724  1.6625 -0.2065  0.5805
 7057TIP3   OH242729   3.501   6.668   0.934 -0.2713  0.0326  0.4362
 7057TIP3    H142730   3.537   6.592   0.981 -1.0081  0.6213  1.9708
 7057TIP3    H242731   3.407   6.660   0.945 -0.3309  1.3288  0.8454
 7058TIP3   OH242732   6.726   6.265   1.448  0.7017 -0.0452  0.1953
 7058TIP3    H142733   6.642   6.275   1.492  1.9814 -1.1780  2.9736
 7058TIP3    H242734   6.785   6.229   1.514  3.0674 -0.5017 -2.0499
 7059TIP3   OH242735   1.168   5.113   0.071  0.3645 -0.4396 -0.4081
 7059TIP3    H142736   1.150   5.025   0.037  3.5901 -0.7871 -1.4230
 7059TIP3    H242737   1.144   5.172  -0.000 -1.9946 -0.4562  0.3481
 7060TIP3   OH242738   3.615   1.583   7.978 -0.2950  0.0667  0.3264
 7060TIP3    H142739   3.689   1.643   7.967  0.0388 -0.4639 -0.2965
 7060TIP3    H242740   3.650   1.510   8.029 -0.4678 -0.0512  0.2758
 7061TIP3   OH242741   6.263   6.432   1.626 -0.4747  0.1549 -0.4285
 7061TIP3    H142742   6.321   6.458   1.555  0.6970 -3.2887 -0.8222
 7061TIP3    H242743   6.177   6.423   1.584 -0.7972  2.6918 -0.3846
 7062TIP3   OH242744   4.545   1.316   1.125 -0.3053 -0.0459  0.2089
 7062TIP3    H142745   4.523   1.328   1.033  0.2494  0.5998  0.1537
 7062TIP3    H242746   4.507   1.231   1.148  2.0401 -1.6054 -1.4207
 7063TIP3   OH242747   5.117   6.215   1.483  0.2167  0.4955  0.1664
 7063TIP3    H142748   5.114   6.137   1.538  0.5243  0.5021  0.1931
 7063TIP3    H242749   5.113   6.181   1.394  1.5002  0.3758  0.1421
 7064TIP3   OH242750   2.207   4.376   7.078 -0.5199 -0.2959 -0.4742
 7064TIP3    H142751   2.116   4.400   7.060 -0.2034  0.3551 -1.2446
 7064TIP3    H242752   2.218   4.395   7.171 -0.7622  1.0393 -0.6987
 7065TIP3   OH242753   7.072   5.818   2.388 -0.0883  0.4048  0.7709
 7065TIP3    H142754   6.999   5.762   2.414 -1.5240  1.1812 -1.3976
 7065TIP3    H242755   7.131   5.818   2.464 -2.3866 -0.1614  2.6234
 7066TIP3   OH242756   6.794   0.063   0.294 -0.2760 -0.1982  0.3557
 7066TIP3    H142757   6.820  -0.029   0.287  0.1613 -0.5103  4.4406
 7066TIP3    H242758   6.700   0.063   0.272 -0.0758 -1.4652 -0.5331
 7067TIP3   OH242759   6.175   0.223   0.879  0.4223 -0.5452  0.0639
 7067TIP3    H142760   6.219   0.181   0.953 -1.1457 -1.1415  0.7022
 7067TIP3    H242761   6.097   0.263   0.918 -0.4846 -0.9551 -1.2816
 7068TIP3   OH242762   6.967   5.097   2.513  0.4669  0.5312 -0.2226
 7068TIP3    H142763   6.966   5.010   2.553  0.6107  1.3700  1.6485
 7068TIP3    H242764   6.946   5.081   2.421 -1.3099 -1.3058  0.4538
 7069TIP3   OH242765   0.074   6.723   1.244 -0.0130 -0.0692  0.2604
 7069TIP3    H142766  -0.010   6.678   1.239 -1.3748  2.4820 -0.7207
 7069TIP3    H242767   0.074   6.783   1.169  2.5098  0.2875  0.4812
 7070TIP3   OH242768   0.277   6.922   0.309  0.2141 -0.4746  0.0032
 7070TIP3    H142769   0.297   7.010   0.341 -1.0271  0.0174 -0.5395
 7070TIP3    H242770   0.359   6.889   0.273  0.6447  0.5141  0.0883
 7071TIP3   OH242771   3.864   1.557   7.097 -0.0264  0.6245  0.5235
 7071TIP3    H142772   3.782   1.551   7.146  0.1973 -1.3835  0.7055
 7071TIP3    H242773   3.840   1.532   7.007  0.7481 -2.2694  1.0526
 7072TIP3   OH242774   6.705   2.403   0.912  0.3880  0.3129 -0.0954
 7072TIP3    H142775   6.642   2.452   0.860 -1.0122  0.8769  2.0745
 7072TIP3    H242776   6.761   2.470   0.952  1.5424 -0.1220 -0.9443
 7073TIP3   OH242777   6.556   6.518   0.468  0.3537  0.0232  0.0623
 7073TIP3    H142778   6.541   6.424   0.472  2.1868 -0.2979 -0.3913
 7073TIP3    H242779   6.483   6.552   0.416  0.1397 -1.2475 -0.4813
 7074TIP3   OH242780   6.204   2.562   0.863 -0.2334  0.2293 -0.1896
 7074TIP3    H142781   6.178   2.520   0.781 -2.1671  1.2853 -0.1524
 7074TIP3    H242782   6.219   2.653   0.839 -1.0290  0.5882  0.6494
 7075TIP3   OH242783   0.056   0.117   0.631  0.3633  0.2656  0.2416
 7075TIP3    H142784  -0.038   0.136   0.633  0.1846 -0.6205  3.1839
 7075TIP3    H242785   0.097   0.200   0.607 -1.0585  1.2874  1.2355
 7076TIP3   OH242786   2.053   0.954   0.929 -0.3829  0.0409 -0.1211
 7076TIP3    H142787   2.085   1.044   0.939  1.3625 -0.5459 -0.4099
 7076TIP3    H242788   2.129   0.899   0.944 -1.3352 -1.3900 -0.4484
 7077TIP3   OH242789   4.791   6.760   0.562 -0.3068 -0.1050 -0.4208
 7077TIP3    H142790   4.768   6.757   0.655 -0.2984  0.3464 -0.4027
 7077TIP3    H242791   4.707   6.759   0.516 -0.3343  0.5538 -0.3833
 7078TIP3   OH242792   6.215   5.269   1.361  0.2032 -0.2588 -0.4816
 7078TIP3    H142793   6.131   5.231   1.387 -0.5413  1.9347  0.4935
 7078TIP3    H242794   6.241   5.220   1.283 -1.9709 -0.9817 -0.7924
   7.11834   7.11834   8.12164
