Title
82282
    1SAPS     N    1   3.329   1.934  11.231 -0.6884 -0.1413  0.0099
    1SAPS   HN1    2   3.367   1.856  11.172  1.6733 -0.0976  1.4025
    1SAPS   HN2    3   3.404   2.004  11.245 -1.6963  0.4285  2.8325
    1SAPS   HN3    4   3.308   1.894  11.325  1.0022  1.0530  0.9128
    1SAPS   C12    5   3.210   1.991  11.158 -0.0881 -0.0149 -0.3223
    1SAPS  H12A    6   3.136   1.913  11.155 -1.5577  1.3347  0.2901
    1SAPS   C13    7   3.145   2.120  11.225  0.1093  1.1281 -0.5562
    1SAPS  O13A    8   3.184   2.172  11.332  0.1655  0.4915  0.0363
    1SAPS  O13B    9   3.039   2.165  11.171 -0.2241  0.2980  0.7811
    1SAPS   C11   10   3.243   2.015  11.004  0.4289 -0.5528  0.5298
    1SAPS  H11A   11   3.148   2.043  10.954  1.4030  1.6169 -0.1872
    1SAPS  H11B   12   3.275   1.917  10.961  0.2389  0.4022 -1.8728
    1SAPS     P   13   3.435   2.107  10.848  0.0233 -0.0266 -0.2714
    1SAPS   O13   14   3.462   2.249  10.807  0.1539  0.1006  0.2088
    1SAPS   O14   15   3.558   2.023  10.873 -0.2501 -0.0214 -0.1152
    1SAPS   O12   16   3.340   2.112  10.981  0.7316  0.1833 -0.0376
    1SAPS   O11   17   3.351   2.028  10.740 -0.3114 -0.1129 -0.2994
    1SAPS    C1   18   3.233   2.108  10.690 -1.1575 -0.0083 -0.2766
    1SAPS    HA   19   3.161   2.141  10.768  0.6760  2.6555  0.3722
    1SAPS    HB   20   3.260   2.209  10.651 -0.2253 -0.3046 -0.4059
    1SAPS    C2   21   3.164   2.028  10.574  0.1267  0.3650  0.7858
    1SAPS    HS   22   3.085   2.092  10.529 -1.8966 -1.2302  2.0039
    1SAPS   O21   23   3.107   1.903  10.618 -0.3212  0.3530  0.3903
    1SAPS   C21   24   2.995   1.903  10.686  0.3634  0.3698 -0.2704
    1SAPS   O22   25   2.957   2.003  10.747 -0.8211 -0.0490 -0.0551
    1SAPS   C22   26   2.924   1.766  10.672 -0.3489 -0.0905  0.4761
    1SAPS   H2R   27   2.996   1.689  10.635 -0.8038 -0.1818 -0.2363
    1SAPS   H2S   28   2.904   1.726  10.773 -3.3146 -2.6323 -1.0392
    1SAPS    C3   29   3.263   1.986  10.459  0.0947  0.3284  0.4341
    1SAPS    HX   30   3.227   1.902  10.395  0.0652  0.0187  0.8604
    1SAPS    HY   31   3.352   1.946  10.510  0.6327 -1.7982 -2.0583
    1SAPS   O31   32   3.301   2.097  10.376 -0.7676 -0.2488 -0.4430
    1SAPS   C31   33   3.205   2.131  10.292  0.3104  0.2602  0.5902
    1SAPS   O32   34   3.102   2.068  10.275  0.2206  0.2304  0.4867
    1SAPS   C32   35   3.249   2.260  10.212 -0.0190 -0.1762 -0.7467
    1SAPS   H2X   36   3.350   2.244  10.168  0.6678 -0.5535  0.9399
    1SAPS   H2Y   37   3.259   2.344  10.284  1.9497 -0.6675 -0.4153
    1SAPS   C23   38   2.792   1.776  10.584  0.2163  0.8331  0.3609
    1SAPS   H3R   39   2.723   1.844  10.639 -1.2141  0.9818 -1.5423
    1SAPS   H3S   40   2.746   1.675  10.595  0.6370  0.6541  0.4622
    1SAPS   C24   41   2.824   1.808  10.437 -0.4789 -0.3242  0.1320
    1SAPS   H4R   42   2.896   1.742  10.384  0.4317 -0.3376  1.3761
    1SAPS   H4S   43   2.879   1.903  10.452 -0.5342 -0.5942  2.1341
    1SAPS   C25   44   2.701   1.824  10.354 -0.6873  0.2892 -0.3122
    1SAPS   H5R   45   2.619   1.854  10.421 -1.5834 -1.8846 -0.4160
    1SAPS   C26   46   2.682   1.803  10.224 -0.2073 -0.5840  0.1646
    1SAPS   H6R   47   2.577   1.819  10.193 -0.2369 -0.7555  0.1749
    1SAPS   C27   48   2.788   1.751  10.126 -0.5789  0.6882 -0.0184
    1SAPS   H7R   49   2.746   1.678  10.055 -1.1694 -0.1642  1.1967
    1SAPS   H7S   50   2.862   1.690  10.183 -0.8091  1.7004  1.3997
    1SAPS   C28   51   2.876   1.855  10.064  0.1489  0.0165 -0.3493
    1SAPS   H8R   52   2.925   1.916  10.141  1.0562 -0.6515 -0.3837
    1SAPS   C29   53   2.904   1.876   9.938 -0.3975 -0.4951 -0.5313
    1SAPS   H9R   54   2.976   1.957   9.919 -0.5809 -0.4851 -1.1923
    1SAPS  C210   55   2.851   1.808   9.818 -0.5316 -0.2102  0.5994
    1SAPS  H10R   56   2.754   1.758   9.843 -1.1521  0.0043 -1.3008
    1SAPS  H10S   57   2.913   1.716   9.811 -1.9921 -1.0756 -1.6671
    1SAPS  C211   58   2.859   1.878   9.685  0.5217 -0.2664 -0.0930
    1SAPS  H11R   59   2.829   1.984   9.687  1.8691  0.1032  2.7419
    1SAPS  C212   60   2.887   1.818   9.567 -0.7421 -0.3793 -0.0649
    1SAPS  H12R   61   2.895   1.879   9.476  1.4809 -1.3565 -0.5384
    1SAPS  C213   62   2.925   1.669   9.557  0.3001  0.2381  0.4501
    1SAPS  H13R   63   2.952   1.627   9.656 -1.7410 -0.3502  0.7808
    1SAPS  H13S   64   3.024   1.662   9.507  0.5183  1.4894  0.6989
    1SAPS  C214   65   2.822   1.587   9.486 -0.5580 -0.2769  0.2937
    1SAPS  H14R   66   2.754   1.529   9.549 -1.8732  0.2350 -0.6410
    1SAPS  C215   67   2.816   1.561   9.358  0.0611 -0.1170  0.1976
    1SAPS  H15R   68   2.741   1.493   9.315 -0.6410  0.8623 -0.1285
    1SAPS  C216   69   2.910   1.621   9.252 -0.8640  0.3486 -0.5780
    1SAPS  H16R   70   2.922   1.538   9.179 -1.1903  1.0414 -1.4328
    1SAPS  H16S   71   3.010   1.646   9.292 -1.2348 -1.7403  1.7336
    1SAPS  C217   72   2.862   1.747   9.166  0.7567  0.6257  0.0988
    1SAPS  H17R   73   2.843   1.838   9.227  0.4055  1.7107 -1.5889
    1SAPS  H17S   74   2.778   1.700   9.110  3.5149 -0.6397 -3.1279
    1SAPS  C218   75   2.971   1.774   9.065  0.4349 -0.2680 -0.7099
    1SAPS  H18R   76   3.001   1.689   8.999  1.6254  0.1466 -0.7221
    1SAPS  H18S   77   3.049   1.813   9.134 -1.3866  1.9035  0.1838
    1SAPS  C219   78   2.957   1.898   8.973  0.3964 -0.8569  0.2510
    1SAPS  H19R   79   3.051   1.910   8.914 -1.2427  2.3163 -1.8417
    1SAPS  H19S   80   2.935   1.983   9.041 -0.4111 -1.2005  0.4272
    1SAPS  C220   81   2.843   1.892   8.868  0.0366  1.2244  0.4893
    1SAPS  H20R   82   2.846   1.808   8.795 -1.9296  1.2829  0.3045
    1SAPS  H20S   83   2.828   1.984   8.807 -1.0139  0.3228 -0.6341
    1SAPS  H20T   84   2.759   1.872   8.938 -0.1781 -0.8227 -0.3208
    1SAPS   C33   85   3.144   2.301  10.108 -0.1838  0.0201 -0.6368
    1SAPS   H3X   86   3.155   2.411  10.092  2.1017  0.0990  1.1563
    1SAPS   H3Y   87   3.048   2.291  10.162 -0.3681  1.7355 -0.6193
    1SAPS   C34   88   3.151   2.226   9.969 -0.4267 -0.0790 -0.8325
    1SAPS   H4X   89   3.145   2.120  10.002  2.5147  0.8986  3.2111
    1SAPS   H4Y   90   3.244   2.237   9.911 -1.1948 -1.0181 -2.2704
    1SAPS   C35   91   3.031   2.257   9.870  0.3517  0.2555  0.1274
    1SAPS   H5X   92   2.996   2.360   9.893  0.2415  0.1454  0.4472
    1SAPS   H5Y   93   2.956   2.177   9.887  0.9959 -0.2651  0.5676
    1SAPS   C36   94   3.074   2.254   9.722 -0.1962  0.1302  0.3903
    1SAPS   H6X   95   3.111   2.151   9.705 -1.5669 -0.3006 -0.0497
    1SAPS   H6Y   96   3.156   2.328   9.708  0.6492 -1.3338 -2.8214
    1SAPS   C37   97   2.966   2.287   9.624 -0.1780 -0.0288  0.2981
    1SAPS   H7X   98   2.939   2.393   9.643 -2.8210 -0.7551  0.9175
    1SAPS   H7Y   99   2.876   2.223   9.639  0.8745 -1.4104  0.7765
    1SAPS   C38  100   2.996   2.256   9.474  0.4049  0.8192 -0.6038
    1SAPS   H8X  101   3.013   2.146   9.470 -0.8514  0.6283 -0.8346
    1SAPS   H8Y  102   3.090   2.302   9.436  1.0504  1.2808  1.4614
    1SAPS   C39  103   2.877   2.281   9.391 -0.3989  0.6448  0.9440
    1SAPS   H9X  104   2.873   2.388   9.362 -1.7847  0.0311 -1.2775
    1SAPS   H9Y  105   2.778   2.245   9.428 -1.2956  0.8505 -1.2148
    1SAPS  C310  106   2.896   2.223   9.246  0.0555  0.7263  0.1941
    1SAPS  H10X  107   2.883   2.113   9.244  1.2372  0.5770  0.1355
    1SAPS  H10Y  108   2.997   2.251   9.208  0.7010  0.0913  1.3940
    1SAPS  C311  109   2.792   2.288   9.156  1.2736  0.3161 -0.1057
    1SAPS  H11X  110   2.798   2.399   9.159 -0.6460  0.4470 -0.4914
    1SAPS  H11Y  111   2.697   2.248   9.198  1.3381 -0.1491 -0.4021
    1SAPS  C312  112   2.791   2.254   9.006 -0.4814  0.1931 -0.2795
    1SAPS  H12X  113   2.743   2.156   8.987  1.8168 -1.4623  2.0651
    1SAPS  H12Y  114   2.899   2.235   8.988  0.0456  0.7134  2.0958
    1SAPS  C313  115   2.737   2.364   8.912  0.1965  0.5606  1.1409
    1SAPS  H13X  116   2.770   2.460   8.956 -0.9706  0.5783  2.0041
    1SAPS  H13Y  117   2.627   2.353   8.912  0.0665  1.7777  0.0433
    1SAPS  C314  118   2.798   2.349   8.769  0.0221 -0.4194  0.8241
    1SAPS  H14X  119   2.754   2.256   8.729 -0.7428 -0.5225  1.8925
    1SAPS  H14Y  120   2.909   2.349   8.777 -0.0169 -1.6635  1.3961
    1SAPS  C315  121   2.750   2.457   8.670 -0.0751  0.1734  0.1439
    1SAPS  H15X  122   2.641   2.442   8.655 -0.6726  1.7632  2.5989
    1SAPS  H15Y  123   2.793   2.453   8.568 -2.0838  0.7409 -0.7534
    1SAPS  C316  124   2.752   2.599   8.724  0.1601 -0.1947  0.5812
    1SAPS  H16X  125   2.843   2.608   8.787  0.1071 -2.5083  1.0533
    1SAPS  H16Y  126   2.670   2.619   8.797 -0.2401  1.2454 -0.2456
    1SAPS  C317  127   2.754   2.694   8.605  0.2360 -0.8751  0.2211
    1SAPS  H17X  128   2.709   2.783   8.653  1.6740 -0.1867  0.3276
    1SAPS  H17Y  129   2.680   2.671   8.526  2.4638 -1.6388 -1.7075
    1SAPS  C318  130   2.897   2.724   8.552 -0.1172 -0.0103  0.4785
    1SAPS  H18X  131   2.965   2.752   8.635  0.9041 -2.5407  0.5138
    1SAPS  H18Y  132   2.883   2.811   8.485 -0.3784  0.2561  0.8732
    1SAPS  H18Z  133   2.938   2.640   8.493  0.0353 -0.6067  1.4241
    2SAPS     N  134   0.789   2.605  10.892  0.5392 -0.0983  0.7754
    2SAPS   HN1  135   0.686   2.605  10.904  0.2757 -1.0107 -1.3232
    2SAPS   HN2  136   0.829   2.672  10.961 -1.7040 -0.1947  2.1978
    2SAPS   HN3  137   0.817   2.630  10.795  2.2113 -1.7918  0.7846
    2SAPS   C12  138   0.831   2.479  10.940 -0.1090  0.0616  0.6791
    2SAPS  H12A  139   0.933   2.453  10.915 -0.2980 -1.2809  1.2781
    2SAPS   C13  140   0.821   2.457  11.098  0.3446 -0.5473 -0.5838
    2SAPS  O13A  141   0.785   2.547  11.177 -0.2100 -0.2193  0.1128
    2SAPS  O13B  142   0.885   2.356  11.143 -0.5373 -0.2885 -0.4963
    2SAPS   C11  143   0.750   2.369  10.871  0.5199  0.1536  0.6812
    2SAPS  H11A  144   0.648   2.389  10.910  1.0751 -0.1522  2.3623
    2SAPS  H11B  145   0.798   2.273  10.901  1.2763  0.6830  1.1869
    2SAPS     P  146   0.650   2.292  10.643 -0.2706 -0.1421  0.1969
    2SAPS   O13  147   0.516   2.300  10.707  0.5265 -0.3795  0.6092
    2SAPS   O14  148   0.662   2.320  10.497  0.1681 -0.2188  0.1853
    2SAPS   O12  149   0.761   2.370  10.728 -0.5457 -0.1986 -0.1925
    2SAPS   O11  150   0.685   2.146  10.672  0.0062 -0.6290  0.1169
    2SAPS    C1  151   0.817   2.094  10.663 -0.0087  0.5718 -0.7004
    2SAPS    HA  152   0.903   2.164  10.664  0.3202  0.1823 -1.2842
    2SAPS    HB  153   0.831   2.022  10.747  1.0529  1.5910  0.0104
    2SAPS    C2  154   0.816   2.004  10.533 -0.2279 -0.0372  0.5067
    2SAPS    HS  155   0.916   1.957  10.534 -0.9011 -1.5188  0.5095
    2SAPS   O21  156   0.789   2.076  10.412  0.1856  0.0468 -0.0543
    2SAPS   C21  157   0.899   2.141  10.373  0.3972 -0.4899  0.0577
    2SAPS   O22  158   1.010   2.148  10.426  0.3672  0.6805  0.4675
    2SAPS   C22  159   0.860   2.200  10.249 -0.4456  0.3343  0.0335
    2SAPS   H2R  160   0.837   2.119  10.177 -1.0547 -0.2221  0.8482
    2SAPS   H2S  161   0.761   2.247  10.260 -0.8566  0.2724 -2.9548
    2SAPS    C3  162   0.720   1.873  10.541 -0.4315  0.2298 -1.1783
    2SAPS    HX  163   0.619   1.914  10.562 -0.4677 -0.0556 -0.7944
    2SAPS    HY  164   0.744   1.807  10.627 -2.3231  0.6624 -0.3118
    2SAPS   O31  165   0.723   1.787  10.429  0.0890 -0.0379  0.0536
    2SAPS   C31  166   0.657   1.826  10.316 -0.1028 -0.2179 -0.2026
    2SAPS   O32  167   0.578   1.923  10.302  0.7367  0.0375  0.4261
    2SAPS   C32  168   0.698   1.729  10.206 -0.8022 -0.2573  0.0283
    2SAPS   H2X  169   0.626   1.645  10.207 -1.7230  0.5281  1.4344
    2SAPS   H2Y  170   0.800   1.688  10.227 -0.6546  1.3188  2.6110
    2SAPS   C23  171   0.969   2.295  10.185 -0.0809 -0.5653 -0.6404
    2SAPS   H3R  172   1.061   2.233  10.177  2.1807  2.3615  1.5090
    2SAPS   H3S  173   0.987   2.389  10.242  1.9639 -1.2142 -0.1871
    2SAPS   C24  174   0.933   2.328  10.042  0.9003 -0.3473  0.1115
    2SAPS   H4R  175   0.933   2.238   9.977  3.0630 -0.6444  0.4890
    2SAPS   H4S  176   1.018   2.389  10.003 -0.8128  3.4527  2.1411
    2SAPS   C25  177   0.802   2.406  10.024  0.0164  0.3389  0.3207
    2SAPS   H5R  178   0.775   2.471  10.108 -1.0979 -1.4145  1.3305
    2SAPS   C26  179   0.728   2.409   9.908 -0.1454 -0.2827  0.0678
    2SAPS   H6R  180   0.630   2.458   9.914  0.4563  1.2428 -1.9218
    2SAPS   C27  181   0.759   2.350   9.775 -0.1489 -0.0533  0.3865
    2SAPS   H7R  182   0.858   2.301   9.782 -0.4447 -0.4127  2.6118
    2SAPS   H7S  183   0.771   2.435   9.704  1.0398  0.3142  1.0222
    2SAPS   C28  184   0.640   2.265   9.725 -0.3500 -0.5932 -0.8165
    2SAPS   H8R  185   0.549   2.254   9.787 -0.5764 -0.8427 -1.1964
    2SAPS   C29  186   0.643   2.199   9.609 -0.6648  0.5728 -0.5134
    2SAPS   H9R  187   0.552   2.142   9.587 -0.3957 -0.3555  0.6898
    2SAPS  C210  188   0.749   2.187   9.504  0.0817 -0.1801 -0.0889
    2SAPS  H10R  189   0.692   2.153   9.414 -2.3646  0.1259  1.2911
    2SAPS  H10S  190   0.820   2.112   9.545 -1.3988 -0.8916  1.2296
    2SAPS  C211  191   0.830   2.306   9.452  0.1974 -0.1214  0.0279
    2SAPS  H11R  192   0.791   2.403   9.484  0.4969  0.1221 -0.3374
    2SAPS  C212  193   0.951   2.304   9.396  0.0990  0.0258 -0.0258
    2SAPS  H12R  194   1.015   2.393   9.382 -0.0354  0.0568 -0.4376
    2SAPS  C213  195   1.025   2.176   9.361  0.0610  0.6095  0.0482
    2SAPS  H13R  196   0.986   2.131   9.267 -1.1585  0.7540  0.4810
    2SAPS  H13S  197   1.013   2.089   9.429  0.3924 -0.0633 -0.7436
    2SAPS  C214  198   1.171   2.199   9.326  0.0837  0.0587 -0.3943
    2SAPS  H14R  199   1.242   2.200   9.411  0.8817 -1.0215 -1.0357
    2SAPS  C215  200   1.230   2.210   9.201 -0.4495 -0.9819 -0.0552
    2SAPS  H15R  201   1.333   2.247   9.200 -0.7674 -0.0926 -0.5189
    2SAPS  C216  202   1.157   2.221   9.066 -0.3370  0.7196  0.0535
    2SAPS  H16R  203   1.209   2.300   9.006  0.6595 -0.2646 -0.3898
    2SAPS  H16S  204   1.053   2.259   9.075 -0.4780  0.4028 -0.2329
    2SAPS  C217  205   1.136   2.092   8.976  0.1818  0.5749  0.3434
    2SAPS  H17R  206   1.074   2.113   8.887 -1.4226  0.6507  1.4544
    2SAPS  H17S  207   1.077   2.026   9.044  1.7050 -0.8643  0.3221
    2SAPS  C218  208   1.266   2.020   8.945 -0.4788 -1.0786  0.2627
    2SAPS  H18R  209   1.339   2.104   8.945 -0.2438 -1.2819 -0.2919
    2SAPS  H18S  210   1.261   1.972   8.845 -1.2656 -0.4340 -0.0062
    2SAPS  C219  211   1.299   1.909   9.044 -0.1901  0.7546 -0.2067
    2SAPS  H19R  212   1.223   1.829   9.050  1.0801 -0.7226 -3.2423
    2SAPS  H19S  213   1.298   1.958   9.144 -2.9146  0.4353 -0.0566
    2SAPS  C220  214   1.436   1.844   9.019 -0.3371  0.3310  0.1442
    2SAPS  H20R  215   1.461   1.769   9.098 -0.1618  0.2165 -0.0198
    2SAPS  H20S  216   1.514   1.922   9.023  0.4846 -0.5646  2.9066
    2SAPS  H20T  217   1.455   1.800   8.919  1.3008 -0.0446  0.6132
    2SAPS   C33  218   0.697   1.801  10.072 -0.1235  0.9341 -0.6106
    2SAPS   H3X  219   0.763   1.891  10.076  0.9272  0.0900  1.9232
    2SAPS   H3Y  220   0.591   1.832  10.058 -1.0384  0.3673  4.0352
    2SAPS   C34  221   0.738   1.699   9.958  0.2682 -0.6203  0.0403
    2SAPS   H4X  222   0.662   1.618   9.958 -1.3313  0.8404 -0.3286
    2SAPS   H4Y  223   0.840   1.661   9.981  0.5599  0.7324  1.0612
    2SAPS   C35  224   0.744   1.775   9.827 -0.2962  0.4654  0.2742
    2SAPS   H5X  225   0.813   1.861   9.840 -1.1957  1.2698 -0.1761
    2SAPS   H5Y  226   0.642   1.810   9.797  0.4489  0.9639 -1.7971
    2SAPS   C36  227   0.801   1.702   9.714  0.4452  0.1832  0.4921
    2SAPS   H6X  228   0.734   1.616   9.691 -1.3812  2.0456 -1.4787
    2SAPS   H6Y  229   0.897   1.668   9.758 -0.5873 -2.8787  0.4848
    2SAPS   C37  230   0.811   1.785   9.582  0.0377  0.5444  0.0391
    2SAPS   H7X  231   0.871   1.876   9.604 -1.7846  1.6223  0.6255
    2SAPS   H7Y  232   0.707   1.810   9.553  0.2033 -1.1540 -2.1076
    2SAPS   C38  233   0.874   1.714   9.462 -0.4461 -0.7072  0.0649
    2SAPS   H8X  234   0.806   1.632   9.430 -1.4434  0.0211  0.2711
    2SAPS   H8Y  235   0.977   1.681   9.488  1.2846  0.9349 -4.2396
    2SAPS   C39  236   0.875   1.803   9.335 -0.5241 -0.3031 -0.6399
    2SAPS   H9X  237   0.981   1.820   9.305 -0.7295  1.3506 -0.4757
    2SAPS   H9Y  238   0.838   1.903   9.365 -0.5145  0.2143 -2.3032
    2SAPS  C310  239   0.773   1.757   9.229  0.1807 -0.6336 -0.6624
    2SAPS  H10X  240   0.676   1.742   9.281  0.2507  2.0124  0.2758
    2SAPS  H10Y  241   0.819   1.661   9.196  1.3686 -0.1154 -0.5510
    2SAPS  C311  242   0.760   1.839   9.103 -0.3223 -0.2573  0.2181
    2SAPS  H11X  243   0.692   1.781   9.039 -0.2113  0.4266 -0.5247
    2SAPS  H11Y  244   0.852   1.858   9.043 -0.9494  0.0262 -0.6556
    2SAPS  C312  245   0.706   1.980   9.139 -0.1173 -0.1308 -0.2147
    2SAPS  H12X  246   0.792   2.041   9.173 -0.7121 -0.2160  1.4657
    2SAPS  H12Y  247   0.629   1.960   9.216 -0.3130 -2.4065 -0.9636
    2SAPS  C313  248   0.635   2.046   9.024  0.0467 -0.4260  0.2586
    2SAPS  H13X  249   0.536   2.010   8.989 -1.1570  3.2058 -0.2805
    2SAPS  H13Y  250   0.707   2.031   8.941 -0.4315  0.4553 -0.3302
    2SAPS  C314  251   0.615   2.201   9.054  0.6978 -0.5862  0.6449
    2SAPS  H14X  252   0.550   2.211   9.143  1.4200 -2.0516  1.3596
    2SAPS  H14Y  253   0.558   2.235   8.965  0.7913 -2.9843 -0.3737
    2SAPS  C315  254   0.737   2.294   9.065 -0.2272 -0.0146 -0.3511
    2SAPS  H15X  255   0.803   2.293   8.975  0.5636  1.6931  0.1804
    2SAPS  H15Y  256   0.803   2.273   9.151 -0.6703  1.6093  0.4108
    2SAPS  C316  257   0.705   2.443   9.083 -0.4296 -0.4880 -0.0715
    2SAPS  H16X  258   0.635   2.452   9.169  1.9069  1.0879  1.7601
    2SAPS  H16Y  259   0.670   2.495   8.991 -0.2131 -0.1203  0.0494
    2SAPS  C317  260   0.830   2.521   9.121 -0.5665  0.3163 -0.0463
    2SAPS  H17X  261   0.892   2.469   9.197 -0.0321  0.7700 -0.1712
    2SAPS  H17Y  262   0.793   2.602   9.187  0.8737  2.6866 -2.0320
    2SAPS  C318  263   0.912   2.584   9.005 -0.1607  0.3323 -0.3366
    2SAPS  H18X  264   0.841   2.634   8.936 -0.8886  1.1263  0.9710
    2SAPS  H18Y  265   0.953   2.498   8.948  0.0917  1.0622 -1.2564
    2SAPS  H18Z  266   1.001   2.645   9.032 -1.3101  1.5267  0.8179
    3SAPS     N  267   1.088   4.073  11.124 -0.1296 -0.1498 -0.2305
    3SAPS   HN1  268   1.072   4.008  11.203 -0.8955  0.4032  0.0774
    3SAPS   HN2  269   1.013   4.062  11.052 -3.3663 -1.2222  3.1436
    3SAPS   HN3  270   1.179   4.059  11.075 -2.4135 -1.0724 -4.4812
    3SAPS   C12  271   1.108   4.213  11.188 -0.3460  0.2901 -0.7674
    3SAPS  H12A  272   1.039   4.224  11.270  1.9225  2.1310  0.9289
    3SAPS   C13  273   1.242   4.238  11.250  0.2645 -0.7472 -0.8861
    3SAPS  O13A  274   1.337   4.159  11.215  0.3181 -0.2851  0.1051
    3SAPS  O13B  275   1.261   4.333  11.319 -0.0581 -0.4363  0.1358
    3SAPS   C11  276   1.079   4.314  11.079 -0.7983  0.7614 -0.4742
    3SAPS  H11A  277   1.086   4.416  11.122 -0.2824 -0.1485  1.6494
    3SAPS  H11B  278   0.973   4.305  11.047 -1.4573 -0.7131  2.0109
    3SAPS     P  279   1.215   4.418  10.877  0.0220  0.0771  0.5914
    3SAPS   O13  280   1.111   4.521  10.884 -0.0290 -0.4805  0.5917
    3SAPS   O14  281   1.350   4.454  10.928  0.0827 -0.0136  0.0533
    3SAPS   O12  282   1.166   4.303  10.967 -0.2891  0.7963  0.0578
    3SAPS   O11  283   1.211   4.362  10.730  0.4693 -0.3566  0.2367
    3SAPS    C1  284   1.308   4.258  10.693 -0.3923  0.0233  0.1325
    3SAPS    HA  285   1.312   4.191  10.782  3.3772  1.4425  1.1251
    3SAPS    HB  286   1.264   4.193  10.615 -0.1144 -0.9996  0.8217
    3SAPS    C2  287   1.439   4.324  10.640  0.5248 -1.3642  0.3851
    3SAPS    HS  288   1.460   4.400  10.719 -1.0217  0.8177 -1.2239
    3SAPS   O21  289   1.417   4.381  10.505 -0.6410  0.0823  0.0897
    3SAPS   C21  290   1.504   4.478  10.475 -0.8937  0.6211  0.3984
    3SAPS   O22  291   1.592   4.519  10.551  0.1266 -0.5652  0.1281
    3SAPS   C22  292   1.466   4.544  10.338 -0.1662 -0.2745  0.3299
    3SAPS   H2R  293   1.396   4.480  10.280  0.7912 -1.6064  0.6118
    3SAPS   H2S  294   1.426   4.642  10.369  1.3830  0.1247  1.0745
    3SAPS    C3  295   1.554   4.220  10.642  0.1300  0.3156 -0.1065
    3SAPS    HX  296   1.561   4.191  10.749  0.0200 -0.1012 -0.2130
    3SAPS    HY  297   1.649   4.270  10.614  0.9059 -1.2120 -0.2275
    3SAPS   O31  298   1.538   4.112  10.549  0.2593 -0.4277 -0.4816
    3SAPS   C31  299   1.596   4.002  10.601 -0.3540  0.2318  0.4930
    3SAPS   O32  300   1.659   3.987  10.706 -0.0916  0.4626 -0.0014
    3SAPS   C32  301   1.585   3.894  10.490 -0.3538  0.1972 -0.0040
    3SAPS   H2X  302   1.663   3.821  10.521 -1.3773 -0.9118  0.0272
    3SAPS   H2Y  303   1.608   3.937  10.390 -1.3810 -1.4920 -1.0063
    3SAPS   C23  304   1.584   4.571  10.249 -0.1034  0.3178 -0.0327
    3SAPS   H3R  305   1.648   4.482  10.231 -0.1395 -0.1310  1.9379
    3SAPS   H3S  306   1.642   4.658  10.288  0.3306 -0.6934  1.6512
    3SAPS   C24  307   1.542   4.592  10.101  0.5269 -0.0017  0.8633
    3SAPS   H4R  308   1.514   4.493  10.058  1.3322 -0.0560  0.4600
    3SAPS   H4S  309   1.639   4.606  10.049  0.1992 -2.8715 -0.6081
    3SAPS   C25  310   1.450   4.711  10.068 -0.2903 -0.7293  0.6611
    3SAPS   H5R  311   1.445   4.787  10.148 -1.2151 -1.2256  1.0918
    3SAPS   C26  312   1.398   4.739   9.948  0.0849 -0.0268  0.6111
    3SAPS   H6R  313   1.348   4.836   9.939  0.8871  0.5646  2.2178
    3SAPS   C27  314   1.416   4.649   9.822 -0.3527 -0.2644  0.1988
    3SAPS   H7R  315   1.337   4.571   9.834 -1.1426  0.4890 -0.0088
    3SAPS   H7S  316   1.510   4.590   9.826  0.5649  1.2418  2.0167
    3SAPS   C28  317   1.402   4.726   9.697 -0.2267 -0.5937  0.1937
    3SAPS   H8R  318   1.377   4.833   9.698 -0.3194 -0.6151  1.9420
    3SAPS   C29  319   1.403   4.668   9.579  0.4600 -1.0188  0.0415
    3SAPS   H9R  320   1.382   4.729   9.491  0.1450  0.6381  1.2414
    3SAPS  C210  321   1.412   4.518   9.549  0.3882 -0.4310  0.7222
    3SAPS  H10R  322   1.416   4.467   9.647  1.4784  0.7873  1.3274
    3SAPS  H10S  323   1.509   4.501   9.496 -0.2453  1.8030 -1.2761
    3SAPS  C211  324   1.296   4.456   9.485  0.5717  0.0166  0.0370
    3SAPS  H11R  325   1.207   4.440   9.548 -0.6059  4.3270 -0.4126
    3SAPS  C212  326   1.298   4.401   9.364  0.3829  0.2682 -0.0657
    3SAPS  H12R  327   1.207   4.349   9.329  0.2343  0.4933 -0.0147
    3SAPS  C213  328   1.408   4.401   9.261  0.9086  0.1109 -0.5552
    3SAPS  H13R  329   1.425   4.296   9.229 -0.7848 -0.4161  0.2017
    3SAPS  H13S  330   1.511   4.429   9.290  1.6110 -2.9616  0.0945
    3SAPS  C214  331   1.367   4.500   9.150  0.3091 -0.1782  0.7609
    3SAPS  H14R  332   1.344   4.602   9.186  0.0558 -0.1925  0.6389
    3SAPS  C215  333   1.347   4.474   9.022 -0.1394 -0.6609  0.1335
    3SAPS  H15R  334   1.308   4.557   8.961 -0.2468 -2.0949 -1.8050
    3SAPS  C216  335   1.368   4.342   8.951  0.5876 -0.0282  0.0040
    3SAPS  H16R  336   1.401   4.263   9.022  1.2608 -1.5965 -2.0237
    3SAPS  H16S  337   1.450   4.350   8.877 -0.2549  1.2758 -0.8138
    3SAPS  C217  338   1.244   4.298   8.873 -0.1640 -0.6412 -0.5480
    3SAPS  H17R  339   1.142   4.313   8.914  0.4299  1.9217  0.1267
    3SAPS  H17S  340   1.266   4.192   8.852  0.5117 -0.2899 -1.6820
    3SAPS  C218  341   1.245   4.359   8.730 -0.2684  0.7046  0.2290
    3SAPS  H18R  342   1.334   4.333   8.669  0.7287  3.4042  0.4810
    3SAPS  H18S  343   1.236   4.469   8.730 -0.9021  0.6534 -0.0743
    3SAPS  C219  344   1.121   4.320   8.646 -0.0452 -0.0430  0.3191
    3SAPS  H19R  345   1.144   4.341   8.539 -0.3931 -0.4518  0.1629
    3SAPS  H19S  346   1.038   4.383   8.686  1.1906  1.1342  1.0783
    3SAPS  C220  347   1.090   4.172   8.649 -0.6265  0.1301  0.2488
    3SAPS  H20R  348   1.181   4.109   8.665 -0.8711 -0.2231  0.2394
    3SAPS  H20S  349   1.042   4.140   8.555  0.8228  0.1765 -0.5280
    3SAPS  H20T  350   1.020   4.150   8.733  0.2791 -0.3089  0.9055
    3SAPS   C33  351   1.449   3.825  10.476  0.0083 -0.3457 -0.6861
    3SAPS   H3X  352   1.374   3.902  10.447  0.9082  0.9339  0.3424
    3SAPS   H3Y  353   1.410   3.794  10.575 -1.4917  0.5100 -0.9962
    3SAPS   C34  354   1.444   3.711  10.378  0.3554  0.2791  0.1926
    3SAPS   H4X  355   1.525   3.642  10.411  0.7081  0.3009 -0.6179
    3SAPS   H4Y  356   1.490   3.748  10.284  0.6723  1.7945  0.9154
    3SAPS   C35  357   1.312   3.654  10.369 -0.1739 -0.1241  0.0386
    3SAPS   H5X  358   1.240   3.736  10.346 -2.0628 -1.9086 -0.5411
    3SAPS   H5Y  359   1.272   3.624  10.469 -0.4674  1.7919  0.5335
    3SAPS   C36  360   1.298   3.537  10.270  0.2071  0.6368 -0.4233
    3SAPS   H6X  361   1.192   3.510  10.288  0.7384 -0.6145  0.9442
    3SAPS   H6Y  362   1.370   3.459  10.303  0.5805  1.6570  1.2394
    3SAPS   C37  363   1.335   3.575  10.124 -0.3772  0.1276  0.0224
    3SAPS   H7X  364   1.304   3.489  10.062  2.3783 -0.7329 -0.2291
    3SAPS   H7Y  365   1.445   3.585  10.128 -0.4483  1.5906 -0.9834
    3SAPS   C38  366   1.272   3.703  10.067  0.7696 -1.2697 -0.5579
    3SAPS   H8X  367   1.292   3.793  10.130 -1.7044  0.7836 -2.5857
    3SAPS   H8Y  368   1.165   3.683  10.049  0.7827 -0.6912 -1.3374
    3SAPS   C39  369   1.307   3.732   9.920 -0.8637 -0.0590  0.3236
    3SAPS   H9X  370   1.418   3.732   9.917 -0.8688 -1.6714 -0.5209
    3SAPS   H9Y  371   1.276   3.835   9.896  1.7390  0.6478 -0.2386
    3SAPS  C310  372   1.245   3.638   9.816 -0.2664 -0.2886  0.4488
    3SAPS  H10X  373   1.135   3.628   9.823 -0.3670  0.6918  0.3425
    3SAPS  H10Y  374   1.291   3.538   9.832 -0.2254 -0.2986  0.2670
    3SAPS  C311  375   1.273   3.685   9.676  0.3592  0.8741  0.3568
    3SAPS  H11X  376   1.380   3.714   9.669  0.2646  0.9045 -1.1390
    3SAPS  H11Y  377   1.215   3.778   9.660 -0.6708  0.6753  2.7759
    3SAPS  C312  378   1.227   3.582   9.561 -0.2912  0.8654  0.6174
    3SAPS  H12X  379   1.159   3.638   9.493  2.5746  1.1287 -2.1411
    3SAPS  H12Y  380   1.178   3.493   9.605 -0.0317  1.9070  3.0823
    3SAPS  C313  381   1.357   3.540   9.487 -0.1115  0.1531  0.1706
    3SAPS  H13X  382   1.429   3.499   9.561  0.6519  0.8639 -0.1717
    3SAPS  H13Y  383   1.409   3.629   9.447  2.0121 -0.3303  1.7498
    3SAPS  C314  384   1.329   3.439   9.372  0.5985  0.2019 -0.4749
    3SAPS  H14X  385   1.261   3.484   9.296  0.4633 -0.7213 -0.9065
    3SAPS  H14Y  386   1.264   3.362   9.417 -0.6949  0.2195 -2.2543
    3SAPS  C315  387   1.459   3.394   9.322 -0.3100 -0.1683  0.0224
    3SAPS  H15X  388   1.506   3.344   9.409 -0.4649  1.0484  0.8052
    3SAPS  H15Y  389   1.522   3.481   9.298 -2.5908  1.7678  0.8573
    3SAPS  C316  390   1.449   3.294   9.204  0.7823  0.3389 -0.2731
    3SAPS  H16X  391   1.554   3.259   9.202  1.1417  1.2627  1.6444
    3SAPS  H16Y  392   1.434   3.349   9.109 -0.8981  0.5171  0.0613
    3SAPS  C317  393   1.357   3.174   9.221 -0.0005 -0.9041  0.0847
    3SAPS  H17X  394   1.253   3.192   9.186 -0.7694  0.2937  2.8147
    3SAPS  H17Y  395   1.357   3.153   9.330 -3.5431  1.6483  0.6919
    3SAPS  C318  396   1.405   3.060   9.142  0.4261 -0.8096  0.1762
    3SAPS  H18X  397   1.501   3.023   9.183  1.0144 -1.4856 -1.7575
    3SAPS  H18Y  398   1.431   3.091   9.039  0.8640  0.4476  0.6500
    3SAPS  H18Z  399   1.330   2.978   9.145 -1.3170  0.7367 -0.0779
    4SAPS     N  400   3.800   5.435  11.082 -0.3533  0.4302 -0.5336
    4SAPS   HN1  401   3.876   5.363  11.074 -0.1873  0.3562  1.5690
    4SAPS   HN2  402   3.831   5.512  11.019  1.5766 -0.8160 -1.1744
    4SAPS   HN3  403   3.800   5.469  11.180 -2.2294 -1.8919  0.3147
    4SAPS   C12  404   3.673   5.385  11.041  0.3393 -0.6370  0.4037
    4SAPS  H12A  405   3.682   5.280  11.066 -1.4577 -1.1872 -1.1592
    4SAPS   C13  406   3.544   5.441  11.104  0.4621  0.2727 -0.1851
    4SAPS  O13A  407   3.546   5.521  11.195  0.1857  0.1197  0.1289
    4SAPS  O13B  408   3.438   5.409  11.039  0.5724  0.0550  0.2928
    4SAPS   C11  409   3.663   5.403  10.884  0.9818 -0.2364  0.7492
    4SAPS  H11A  410   3.630   5.508  10.872 -0.4705 -0.3942  3.1143
    4SAPS  H11B  411   3.579   5.339  10.848 -1.2106  2.5642  0.7441
    4SAPS     P  412   3.862   5.493  10.741  0.0760  0.0601 -0.9736
    4SAPS   O13  413   3.907   5.576  10.855 -0.8261  0.1826 -0.6714
    4SAPS   O14  414   3.959   5.439  10.650 -0.1897 -1.0802 -0.3044
    4SAPS   O12  415   3.778   5.370  10.808 -0.6345  0.2173 -0.4318
    4SAPS   O11  416   3.752   5.566  10.664 -0.3868  0.4824  0.4049
    4SAPS    C1  417   3.696   5.509  10.542  0.4641 -0.3314  0.3839
    4SAPS    HA  418   3.706   5.588  10.465 -0.1070  0.1206  0.7737
    4SAPS    HB  419   3.743   5.414  10.508 -1.2217 -0.9724 -0.2127
    4SAPS    C2  420   3.541   5.486  10.560  0.2758 -0.1663  0.0068
    4SAPS    HS  421   3.528   5.442  10.661  1.9746  1.0407  0.7777
    4SAPS   O21  422   3.489   5.409  10.450  0.2276  0.0574  0.4864
    4SAPS   C21  423   3.443   5.289  10.485 -0.2283  0.1294  0.5280
    4SAPS   O22  424   3.456   5.243  10.596  0.2242 -0.4917 -0.3896
    4SAPS   C22  425   3.374   5.224  10.366  0.2910  0.1900  0.4194
    4SAPS   H2R  426   3.297   5.297  10.336  1.3649  0.9230 -0.6024
    4SAPS   H2S  427   3.452   5.204  10.289 -1.1271 -3.4389 -0.1590
    4SAPS    C3  428   3.457   5.619  10.569  0.4091 -0.2337  1.0173
    4SAPS    HX  429   3.504   5.685  10.644 -0.3776  1.6559 -0.1136
    4SAPS    HY  430   3.357   5.613  10.616 -1.3647 -1.6384 -2.6741
    4SAPS   O31  431   3.451   5.689  10.440 -0.1989 -0.1448 -0.8442
    4SAPS   C31  432   3.329   5.692  10.389  0.0275  0.2485 -0.1408
    4SAPS   O32  433   3.229   5.646  10.435 -0.2802 -0.5709 -0.3242
    4SAPS   C32  434   3.344   5.774  10.259 -0.4257 -0.7338  0.1518
    4SAPS   H2X  435   3.390   5.718  10.176  0.6350  2.1189 -1.2665
    4SAPS   H2Y  436   3.408   5.864  10.278  0.4361 -1.1222 -0.9107
    4SAPS   C23  437   3.308   5.086  10.394  0.2010 -0.1588  0.0598
    4SAPS   H3R  438   3.235   5.077  10.478  0.4359 -1.9227  0.0966
    4SAPS   H3S  439   3.383   5.006  10.415  2.1651  1.3118 -1.2416
    4SAPS   C24  440   3.231   5.032  10.272  0.9061 -0.0090  0.1634
    4SAPS   H4R  441   3.212   4.923  10.275 -2.0426  0.4496 -0.2854
    4SAPS   H4S  442   3.296   5.059  10.187 -0.9414  1.3232 -0.8590
    4SAPS   C25  443   3.097   5.101  10.255 -0.1119  0.1730  0.5436
    4SAPS   H5R  444   3.026   5.055  10.325 -1.4534 -1.5651 -1.8700
    4SAPS   C26  445   3.062   5.206  10.177 -0.0892  0.5699 -0.0731
    4SAPS   H6R  446   2.957   5.239  10.181 -0.7455 -1.3976 -0.5185
    4SAPS   C27  447   3.161   5.274  10.085  0.1106 -0.1843 -0.5744
    4SAPS   H7R  448   3.144   5.249   9.978  0.2674 -0.3970 -0.5501
    4SAPS   H7S  449   3.267   5.248  10.109  0.5864  2.0671 -0.1566
    4SAPS   C28  450   3.150   5.423  10.107  0.4623  0.2053 -0.1691
    4SAPS   H8R  451   3.150   5.460  10.210 -0.5936 -1.0558  0.2982
    4SAPS   C29  452   3.126   5.513  10.016  0.4427 -0.0891 -0.1845
    4SAPS   H9R  453   3.124   5.619  10.042  2.2389 -0.4308  1.4377
    4SAPS  C210  454   3.095   5.488   9.865 -0.4675 -0.1910  0.4697
    4SAPS  H10R  455   3.021   5.553   9.816  0.1456  0.2362  0.1046
    4SAPS  H10S  456   3.052   5.385   9.866  1.2203 -0.9300 -0.1698
    4SAPS  C211  457   3.212   5.482   9.780  0.0298 -0.0863  0.0073
    4SAPS  H11R  458   3.310   5.473   9.830 -0.6583 -1.7402  1.0948
    4SAPS  C212  459   3.219   5.489   9.644  0.5885  0.2820  0.4866
    4SAPS  H12R  460   3.311   5.467   9.589  0.1622 -0.2377 -0.0273
    4SAPS  C213  461   3.092   5.501   9.555 -0.1155  0.7548  0.6551
    4SAPS  H13R  462   3.021   5.578   9.591 -1.5500 -0.5853  0.7609
    4SAPS  H13S  463   3.035   5.408   9.577 -0.5565  0.5994 -1.0644
    4SAPS  C214  464   3.100   5.508   9.408 -0.5288  0.0438  0.0832
    4SAPS  H14R  465   3.064   5.605   9.371 -0.7965  0.6344  1.8168
    4SAPS  C215  466   3.137   5.415   9.320  0.3462  0.2961 -0.0219
    4SAPS  H15R  467   3.131   5.445   9.215  2.9315 -2.1512 -0.9505
    4SAPS  C216  468   3.175   5.272   9.352  0.0068  0.1558  0.0118
    4SAPS  H16R  469   3.202   5.260   9.459 -3.3414 -0.8604  0.7895
    4SAPS  H16S  470   3.259   5.233   9.291  0.2543  0.4335  0.1743
    4SAPS  C217  471   3.051   5.181   9.329 -0.4132 -0.2338 -0.3208
    4SAPS  H17R  472   2.966   5.224   9.385  0.8938 -0.6324  2.0459
    4SAPS  H17S  473   3.074   5.080   9.369 -1.9883 -0.8726 -1.0092
    4SAPS  C218  474   3.020   5.160   9.180  0.2029 -0.3793  0.1814
    4SAPS  H18R  475   3.097   5.088   9.148  0.8554  1.4703 -2.6349
    4SAPS  H18S  476   3.032   5.255   9.122 -1.4785  0.2157  0.7801
    4SAPS  C219  477   2.883   5.102   9.155 -0.2939  0.5300 -0.0168
    4SAPS  H19R  478   2.798   5.170   9.180 -0.4096  0.0619  0.8902
    4SAPS  H19S  479   2.870   5.012   9.219  1.0955  0.6367  0.4301
    4SAPS  C220  480   2.870   5.064   9.013  0.1741  0.2480  0.4734
    4SAPS  H20R  481   2.904   5.151   8.952  0.1848  0.5404  0.8951
    4SAPS  H20S  482   2.766   5.037   8.983  0.1328 -0.4784  1.2683
    4SAPS  H20T  483   2.930   4.973   8.993  1.0673  0.2120  3.1406
    4SAPS   C33  484   3.210   5.813  10.191 -0.7180  0.1229 -0.5855
    4SAPS   H3X  485   3.171   5.897  10.253 -1.5732 -1.3977  0.9640
    4SAPS   H3Y  486   3.138   5.728  10.190 -1.0954  0.4392 -0.8026
    4SAPS   C34  487   3.205   5.871  10.045  0.0120 -0.3558 -0.4138
    4SAPS   H4X  488   3.245   5.795   9.974  0.4469 -0.6314  0.1264
    4SAPS   H4Y  489   3.270   5.961  10.031  0.5323 -0.6013  0.3683
    4SAPS   C35  490   3.058   5.885   9.997 -0.3231 -0.3080 -0.3670
    4SAPS   H5X  491   3.014   5.981  10.033 -1.3785 -1.5926  1.8978
    4SAPS   H5Y  492   3.000   5.802  10.043 -1.6049  1.3912  1.1591
    4SAPS   C36  493   3.042   5.902   9.845 -0.1819  0.3183  0.6148
    4SAPS   H6X  494   3.116   5.840   9.791  0.2346  1.8850 -0.6714
    4SAPS   H6Y  495   3.083   5.999   9.810 -0.0668  0.8911  2.2981
    4SAPS   C37  496   2.901   5.863   9.785 -0.0831 -0.1691  0.3561
    4SAPS   H7X  497   2.827   5.943   9.809  1.5244  1.6521 -0.5730
    4SAPS   H7Y  498   2.877   5.766   9.833  0.1593 -0.1334  0.5497
    4SAPS   C38  499   2.909   5.842   9.633  0.5567 -0.5496 -0.2574
    4SAPS   H8X  500   2.994   5.771   9.626 -0.5054 -1.8842  0.3041
    4SAPS   H8Y  501   2.944   5.936   9.584 -0.4444 -0.2546 -0.4097
    4SAPS   C39  502   2.785   5.787   9.565  0.1942  0.1960 -0.3498
    4SAPS   H9X  503   2.699   5.856   9.580  0.7265  0.7057  0.3638
    4SAPS   H9Y  504   2.760   5.684   9.601  1.9076 -0.5104 -1.1482
    4SAPS  C310  505   2.805   5.780   9.410  0.3012 -0.0313 -0.0950
    4SAPS  H10X  506   2.899   5.725   9.392  1.0192  1.2303 -0.2541
    4SAPS  H10Y  507   2.809   5.884   9.371  0.9416 -0.0706 -0.1261
    4SAPS  C311  508   2.689   5.714   9.343 -0.8349  0.8057 -0.4274
    4SAPS  H11X  509   2.595   5.770   9.359 -1.6193  0.0063 -2.1405
    4SAPS  H11Y  510   2.677   5.608   9.374  1.8209 -0.0727 -2.2148
    4SAPS  C312  511   2.703   5.714   9.188  0.2376  0.1458  0.0516
    4SAPS  H12X  512   2.709   5.818   9.147 -0.2777  0.1464 -0.0270
    4SAPS  H12Y  513   2.617   5.667   9.137  0.4911  0.5591 -0.7782
    4SAPS  C313  514   2.824   5.627   9.140  0.4049  0.1745 -0.0161
    4SAPS  H13X  515   2.829   5.531   9.196 -0.4738 -0.6250 -1.2656
    4SAPS  H13Y  516   2.919   5.678   9.167  1.2119 -1.1444 -0.3121
    4SAPS  C314  517   2.819   5.594   8.994  0.0163 -0.2025  0.1441
    4SAPS  H14X  518   2.799   5.696   8.955  0.5698  1.2563  3.4784
    4SAPS  H14Y  519   2.733   5.528   8.974 -0.0887  0.6963 -2.5086
    4SAPS  C315  520   2.954   5.538   8.951  0.1823 -0.7099  0.6047
    4SAPS  H15X  521   2.968   5.440   9.000  1.0870 -1.2347 -0.6881
    4SAPS  H15Y  522   3.038   5.605   8.982 -1.5082  1.3594  0.8637
    4SAPS  C316  523   2.962   5.522   8.798  0.1122  0.5153 -0.3824
    4SAPS  H16X  524   2.872   5.467   8.763  1.4018  0.5829 -4.0509
    4SAPS  H16Y  525   3.051   5.458   8.782 -1.4737 -1.2913 -2.2982
    4SAPS  C317  526   2.969   5.646   8.712  0.1043 -0.1061  0.7143
    4SAPS  H17X  527   2.877   5.705   8.735 -0.1676 -1.3714  2.9286
    4SAPS  H17Y  528   2.965   5.610   8.607  3.1586 -0.1027  0.5602
    4SAPS  C318  529   3.093   5.733   8.733 -0.2743  0.4307 -0.2678
    4SAPS  H18X  530   3.190   5.687   8.764 -1.2410 -3.2246 -2.3034
    4SAPS  H18Y  531   3.078   5.809   8.812  1.0149  0.1161  0.2870
    4SAPS  H18Z  532   3.103   5.793   8.640  0.1134  0.5148 -0.1730
    5SAPS     N  533   0.655   4.077  11.284  0.2468  0.6939 -0.3402
    5SAPS   HN1  534   0.692   3.984  11.256 -0.3321  0.4086 -0.1639
    5SAPS   HN2  535   0.729   4.135  11.328  1.0906 -2.0572  2.0370
    5SAPS   HN3  536   0.572   4.060  11.344  2.4302 -1.4120  2.2090
    5SAPS   C12  537   0.591   4.148  11.163  0.2927 -0.1269 -0.1102
    5SAPS  H12A  538   0.546   4.077  11.095  1.2339  1.6106 -2.6216
    5SAPS   C13  539   0.475   4.246  11.211 -0.1454 -0.3889  0.1718
    5SAPS  O13A  540   0.454   4.267  11.334  0.6686  0.1640 -0.3679
    5SAPS  O13B  541   0.422   4.316  11.127  0.4139 -0.9296  0.1096
    5SAPS   C11  542   0.699   4.237  11.087  0.0712 -0.4879  0.2761
    5SAPS  H11A  543   0.746   4.306  11.160 -3.3468  1.2851  0.9000
    5SAPS  H11B  544   0.635   4.302  11.024  1.5954  1.1583  0.4093
    5SAPS     P  545   0.784   4.085  10.895  0.2075  0.9440  0.2152
    5SAPS   O13  546   0.914   4.024  10.876 -0.0001 -0.1289 -0.1670
    5SAPS   O14  547   0.669   3.983  10.900 -0.7009  0.5273  0.2132
    5SAPS   O12  548   0.802   4.158  11.027  0.0473 -0.4201  0.1697
    5SAPS   O11  549   0.740   4.203  10.796 -0.3031 -0.7513 -0.2207
    5SAPS    C1  550   0.854   4.293  10.764  0.4714 -0.1586  0.1219
    5SAPS    HA  551   0.827   4.397  10.790 -4.0472 -1.5732  1.6148
    5SAPS    HB  552   0.949   4.272  10.817 -1.2520 -1.8673  2.6343
    5SAPS    C2  553   0.900   4.290  10.612 -0.2648 -0.2930 -0.0846
    5SAPS    HS  554   0.962   4.378  10.581 -1.7393  1.0289  0.6647
    5SAPS   O21  555   0.782   4.289  10.532 -0.3045  1.0293  0.1205
    5SAPS   C21  556   0.693   4.384  10.524  0.3478 -0.4740 -0.2794
    5SAPS   O22  557   0.695   4.493  10.578  0.0041 -0.7485 -0.2405
    5SAPS   C22  558   0.580   4.342  10.431  0.7490  0.7128  0.3077
    5SAPS   H2R  559   0.579   4.234  10.407  4.2501  0.6053  0.3875
    5SAPS   H2S  560   0.481   4.361  10.478  0.6402 -1.9610  1.2477
    5SAPS    C3  561   0.983   4.163  10.579 -0.3915  0.0839  0.2117
    5SAPS    HX  562   0.923   4.076  10.612 -0.9538  1.1642  2.0733
    5SAPS    HY  563   1.073   4.152  10.643  0.0176 -0.9469 -0.5247
    5SAPS   O31  564   1.005   4.147  10.441 -0.2680 -0.4003 -0.2900
    5SAPS   C31  565   1.110   4.069  10.414  0.1101 -0.0444 -0.6932
    5SAPS   O32  566   1.166   3.996  10.489  0.3744  0.1463  0.1428
    5SAPS   C32  567   1.142   4.071  10.265  0.1890  0.2908  0.5607
    5SAPS   H2X  568   1.064   4.120  10.202 -0.2346  0.5459  1.2828
    5SAPS   H2Y  569   1.161   3.966  10.237  1.1343  1.0231 -1.6554
    5SAPS   C23  570   0.583   4.408  10.289  0.1192  0.4766  0.0309
    5SAPS   H3R  571   0.676   4.373  10.239  0.0171 -1.6439  1.2537
    5SAPS   H3S  572   0.599   4.518  10.298  2.2247  0.2380 -0.3780
    5SAPS   C24  573   0.466   4.373  10.191 -0.0186  0.1333  1.1647
    5SAPS   H4R  574   0.373   4.377  10.252 -1.7626 -0.9604 -1.3615
    5SAPS   H4S  575   0.480   4.269  10.156 -0.1490  0.0794  1.2714
    5SAPS   C25  576   0.462   4.481  10.085  0.2314 -0.6453  0.9537
    5SAPS   H5R  577   0.514   4.576  10.104 -1.2319  0.6114 -1.1915
    5SAPS   C26  578   0.405   4.460   9.966 -0.9567 -0.3809  0.5548
    5SAPS   H6R  579   0.394   4.548   9.900  1.0138 -1.1911 -0.8910
    5SAPS   C27  580   0.345   4.333   9.915  0.4645  1.0434 -0.0139
    5SAPS   H7R  581   0.295   4.277   9.997  0.7990 -0.9713 -1.1554
    5SAPS   H7S  582   0.429   4.264   9.888  0.5855  1.0323  0.3826
    5SAPS   C28  583   0.237   4.325   9.803  0.1692 -0.3879  0.2510
    5SAPS   H8R  584   0.137   4.300   9.841 -0.5679  1.2860 -0.5548
    5SAPS   C29  585   0.252   4.367   9.681 -0.4559  0.1550  0.4463
    5SAPS   H9R  586   0.165   4.347   9.618  0.0746 -3.4115  0.7505
    5SAPS  C210  587   0.390   4.404   9.622  0.0091  0.2574 -0.6435
    5SAPS  H10R  588   0.466   4.402   9.702 -0.6696 -1.8061 -0.0269
    5SAPS  H10S  589   0.381   4.513   9.601  2.2066  0.4635 -0.5989
    5SAPS  C211  590   0.447   4.331   9.503 -0.7367  0.3799 -1.2600
    5SAPS  H11R  591   0.458   4.225   9.528 -1.0083  0.4298 -0.9285
    5SAPS  C212  592   0.487   4.374   9.387  0.0515  0.0846  0.0987
    5SAPS  H12R  593   0.519   4.295   9.317 -0.8304 -1.1258  1.0554
    5SAPS  C213  594   0.477   4.512   9.329 -0.4411  0.6244 -0.1756
    5SAPS  H13R  595   0.563   4.531   9.262 -1.2850  3.1188 -0.6099
    5SAPS  H13S  596   0.484   4.589   9.409  1.0473  0.6584 -0.3147
    5SAPS  C214  597   0.344   4.535   9.253  0.7314 -0.1931  0.1309
    5SAPS  H14R  598   0.253   4.490   9.297  0.4416  0.4798  0.2269
    5SAPS  C215  599   0.332   4.594   9.131 -0.1094 -0.4315 -0.2103
    5SAPS  H15R  600   0.231   4.609   9.089 -0.0128  0.6583 -0.0542
    5SAPS  C216  601   0.445   4.653   9.049  0.7980 -0.3314  0.1360
    5SAPS  H16R  602   0.546   4.646   9.096  0.9120  0.1822 -0.0266
    5SAPS  H16S  603   0.438   4.763   9.033  0.9783 -0.5806 -1.8742
    5SAPS  C217  604   0.468   4.592   8.913 -0.6304 -0.6785  0.5758
    5SAPS  H17R  605   0.392   4.619   8.837  0.4236  0.9025  0.0388
    5SAPS  H17S  606   0.470   4.482   8.924 -0.9263 -0.8484 -0.9656
    5SAPS  C218  607   0.598   4.651   8.844 -0.8370  0.3632 -0.0605
    5SAPS  H18R  608   0.600   4.762   8.845 -0.2906  0.3811 -1.6309
    5SAPS  H18S  609   0.693   4.627   8.897 -0.8770  1.4346  0.5105
    5SAPS  C219  610   0.615   4.601   8.697 -0.1781  0.0460 -0.5946
    5SAPS  H19R  611   0.528   4.639   8.640 -0.7208  0.5481  0.5365
    5SAPS  H19S  612   0.606   4.491   8.709  0.3299 -0.1601 -2.0464
    5SAPS  C220  613   0.755   4.639   8.640 -0.2592  0.0023 -0.1764
    5SAPS  H20R  614   0.774   4.749   8.634  1.1734 -0.3853 -4.1351
    5SAPS  H20S  615   0.751   4.606   8.535  1.6545 -0.6835 -0.0615
    5SAPS  H20T  616   0.840   4.591   8.694  0.2579  0.5487 -0.4950
    5SAPS   C33  617   1.278   4.124  10.234 -0.0380  0.3372  0.0352
    5SAPS   H3X  618   1.352   4.066  10.293 -2.5459 -2.8973  0.1547
    5SAPS   H3Y  619   1.277   4.233  10.256 -1.8523  0.8013 -2.1999
    5SAPS   C34  620   1.306   4.103  10.086 -0.3409 -0.2472  0.5079
    5SAPS   H4X  621   1.217   4.124  10.024 -0.8354 -2.8246  0.3028
    5SAPS   H4Y  622   1.323   3.993  10.077 -2.3710 -0.4332 -1.4427
    5SAPS   C35  623   1.422   4.188  10.023  0.0300  0.1707  0.3459
    5SAPS   H5X  624   1.507   4.204  10.094 -0.9280  1.6225  1.1684
    5SAPS   H5Y  625   1.388   4.289   9.995  0.4786  0.3555  0.4641
    5SAPS   C36  626   1.482   4.126   9.894 -0.0751 -0.0076  0.6049
    5SAPS   H6X  627   1.501   4.017   9.909 -0.3758 -0.2938 -1.0253
    5SAPS   H6Y  628   1.574   4.180   9.864  0.4997 -0.8018  0.9366
    5SAPS   C37  629   1.382   4.132   9.778 -0.6936 -0.2852  0.0600
    5SAPS   H7X  630   1.350   4.230   9.739 -1.0357 -0.3540  0.1614
    5SAPS   H7Y  631   1.287   4.089   9.818 -2.2535  1.9294 -1.2049
    5SAPS   C38  632   1.429   4.049   9.664 -0.1864  0.3175 -0.4374
    5SAPS   H8X  633   1.428   3.943   9.699 -0.2564  0.5776  0.3524
    5SAPS   H8Y  634   1.536   4.073   9.645  0.0643  0.3904  1.0190
    5SAPS   C39  635   1.350   4.055   9.537  0.2029  0.1975  0.6053
    5SAPS   H9X  636   1.367   4.157   9.496 -0.2668  0.1033  0.1738
    5SAPS   H9Y  637   1.248   4.037   9.576 -0.3796 -1.1379 -1.4364
    5SAPS  C310  638   1.396   3.946   9.443  0.1835  0.1944 -0.7226
    5SAPS  H10X  639   1.327   3.861   9.460 -0.1699  0.2776 -1.7445
    5SAPS  H10Y  640   1.493   3.907   9.481 -0.1090 -0.1458 -0.3214
    5SAPS  C311  641   1.403   3.983   9.293 -0.2546 -0.1421 -0.4841
    5SAPS  H11X  642   1.500   4.032   9.269 -1.7432  2.3495 -1.5397
    5SAPS  H11Y  643   1.326   4.059   9.271 -0.8984 -0.3430  0.9495
    5SAPS  C312  644   1.403   3.861   9.200  0.1649 -0.0414 -0.4379
    5SAPS  H12X  645   1.324   3.798   9.247 -1.3578  0.9915 -1.5353
    5SAPS  H12Y  646   1.501   3.811   9.214 -1.1296 -1.9821  2.0531
    5SAPS  C313  647   1.377   3.907   9.059 -0.5040 -0.6500 -0.1745
    5SAPS  H13X  648   1.446   3.993   9.048  0.1785 -1.3268 -1.3092
    5SAPS  H13Y  649   1.275   3.948   9.041  0.1546  1.1023  0.0153
    5SAPS  C314  650   1.428   3.817   8.947 -0.4557  0.0850  0.6698
    5SAPS  H14X  651   1.516   3.762   8.987 -0.5214 -0.8822 -0.4667
    5SAPS  H14Y  652   1.475   3.876   8.865  0.2961 -0.5712  0.6183
    5SAPS  C315  653   1.327   3.707   8.887  0.1434  0.4089  0.3390
    5SAPS  H15X  654   1.266   3.650   8.961  0.7106  1.9051  1.9926
    5SAPS  H15Y  655   1.393   3.626   8.849  0.2378  0.9318 -0.6221
    5SAPS  C316  656   1.230   3.760   8.775 -0.4478  1.2893 -0.5171
    5SAPS  H16X  657   1.181   3.851   8.815 -1.7454  0.2385  0.3642
    5SAPS  H16Y  658   1.144   3.692   8.759 -1.1813  1.7533  1.3225
    5SAPS  C317  659   1.294   3.790   8.639 -1.0187  0.1135 -0.5773
    5SAPS  H17X  660   1.390   3.837   8.672 -0.4113 -0.8365 -0.9757
    5SAPS  H17Y  661   1.241   3.864   8.576 -1.2794 -0.0865 -0.5904
    5SAPS  C318  662   1.343   3.673   8.554 -0.4751  0.8238 -0.2860
    5SAPS  H18X  663   1.256   3.618   8.511  2.0910 -1.8690 -2.2056
    5SAPS  H18Y  664   1.405   3.606   8.617  0.6045  2.1546  0.0936
    5SAPS  H18Z  665   1.413   3.701   8.473  1.2938 -3.7186 -0.4500
    6SAPS     N  666   0.171   4.259  10.877  0.5529 -0.0238 -0.4531
    6SAPS   HN1  667   0.195   4.285  10.779  0.6747 -1.5531 -0.8424
    6SAPS   HN2  668   0.068   4.242  10.876  1.0565 -3.2576 -1.5918
    6SAPS   HN3  669   0.182   4.333  10.950  0.3780 -0.4671  0.0230
    6SAPS   C12  670   0.228   4.127  10.930  0.4878  0.4338 -0.0684
    6SAPS  H12A  671   0.334   4.145  10.931  0.2061  2.1913  1.3151
    6SAPS   C13  672   0.182   4.092  11.073 -0.5879 -0.2194 -0.2098
    6SAPS  O13A  673   0.065   4.122  11.105 -0.7999 -0.2772 -0.2137
    6SAPS  O13B  674   0.244   4.000  11.135 -0.1497 -0.1257 -0.4119
    6SAPS   C11  675   0.199   4.012  10.829  0.0865  0.3749  1.2437
    6SAPS  H11A  676   0.257   3.928  10.872  0.9643  0.0050 -0.6250
    6SAPS  H11B  677   0.247   4.036  10.732  1.0096 -0.5752  1.4678
    6SAPS     P  678   0.019   3.825  10.830 -0.2949 -0.0665 -0.1209
    6SAPS   O13  679   0.059   3.770  10.962  0.0474 -0.2998 -0.4939
    6SAPS   O14  680  -0.123   3.809  10.798 -0.4692  0.0575 -0.1554
    6SAPS   O12  681   0.061   3.978  10.822  0.1734 -0.0157  0.1999
    6SAPS   O11  682   0.111   3.759  10.717 -0.0636  0.3957  0.0807
    6SAPS    C1  683   0.103   3.800  10.581 -0.5152 -0.1471 -0.2199
    6SAPS    HA  684   0.018   3.871  10.565  0.1014  1.0556  1.5979
    6SAPS    HB  685   0.191   3.861  10.554 -0.0694 -0.4052  0.6274
    6SAPS    C2  686   0.108   3.681  10.480  0.1469  0.2149  0.2496
    6SAPS    HS  687   0.201   3.622  10.494  0.9287  1.4210  0.1630
    6SAPS   O21  688   0.111   3.731  10.340 -0.3824  0.5594 -0.3277
    6SAPS   C21  689   0.229   3.787  10.292 -0.4115  0.6728  0.9659
    6SAPS   O22  690   0.333   3.791  10.357 -0.2046  0.3299 -0.0844
    6SAPS   C22  691   0.215   3.826  10.146 -0.0370 -0.1726  0.7293
    6SAPS   H2R  692   0.197   3.728  10.098 -1.1776  0.7313 -0.7011
    6SAPS   H2S  693   0.130   3.897  10.139  2.3575  2.8659  1.3256
    6SAPS    C3  694  -0.020   3.598  10.494  0.0738  0.3167 -0.2751
    6SAPS    HX  695  -0.101   3.665  10.528 -1.8712 -0.3200 -3.4978
    6SAPS    HY  696  -0.001   3.521  10.572  0.8127 -0.1258 -0.8875
    6SAPS   O31  697  -0.065   3.519  10.379 -0.4296 -0.5807  0.4325
    6SAPS   C31  698  -0.156   3.581  10.306  0.1331 -0.0728  0.0312
    6SAPS   O32  699  -0.192   3.699  10.315 -0.0361 -0.2282  0.4668
    6SAPS   C32  700  -0.190   3.488  10.189 -0.4561  0.1127 -0.6913
    6SAPS   H2X  701  -0.235   3.392  10.223  2.2877 -1.0989 -0.3073
    6SAPS   H2Y  702  -0.095   3.467  10.135 -1.3447 -0.3730 -2.0953
    6SAPS   C23  703   0.338   3.897  10.093 -0.6932 -0.1443  0.9736
    6SAPS   H3R  704   0.423   3.828  10.075  0.7136  1.8186 -0.0519
    6SAPS   H3S  705   0.381   3.967  10.167 -0.2544 -0.3047  0.8737
    6SAPS   C24  706   0.321   3.966   9.956  0.0426 -0.0842  0.6232
    6SAPS   H4R  707   0.398   4.046   9.969 -0.3698 -0.0001  2.6645
    6SAPS   H4S  708   0.223   4.018   9.952  0.4787  0.7144 -0.0762
    6SAPS   C25  709   0.348   3.872   9.840 -0.0589 -0.5789  0.3430
    6SAPS   H5R  710   0.418   3.788   9.851  1.9618  1.1738  1.4322
    6SAPS   C26  711   0.301   3.897   9.717  0.4418 -0.2778  0.6623
    6SAPS   H6R  712   0.328   3.831   9.632  1.5340 -0.2974  1.0231
    6SAPS   C27  713   0.208   4.000   9.658 -0.1514  0.2838  0.3289
    6SAPS   H7R  714   0.266   4.077   9.603 -0.6670 -0.1939 -0.8940
    6SAPS   H7S  715   0.146   4.057   9.730  0.4748  0.6289  0.6026
    6SAPS   C28  716   0.111   3.934   9.559 -0.1541 -0.2482 -0.1543
    6SAPS   H8R  717   0.038   3.874   9.616  0.1930  1.3406  2.0378
    6SAPS   C29  718   0.108   3.951   9.429  0.8753 -0.0942 -0.1395
    6SAPS   H9R  719   0.027   3.899   9.375  0.6038 -0.0209  0.1939
    6SAPS  C210  720   0.208   4.032   9.353  0.1119 -0.4139  0.3106
    6SAPS  H10R  721   0.235   4.125   9.406 -1.4550 -0.4718  1.2458
    6SAPS  H10S  722   0.152   4.070   9.265  0.2126 -0.8446  0.0588
    6SAPS  C211  723   0.333   3.950   9.316 -0.7837 -0.7143 -0.2492
    6SAPS  H11R  724   0.375   3.887   9.396  0.6806  0.8978  0.2996
    6SAPS  C212  725   0.404   3.968   9.203  0.5431  0.2155  0.5897
    6SAPS  H12R  726   0.483   3.896   9.178  1.1563  0.9379  0.4296
    6SAPS  C213  727   0.373   4.057   9.093 -0.2574 -0.4674 -0.5938
    6SAPS  H13R  728   0.463   4.078   9.031 -0.1694 -1.2466 -0.7403
    6SAPS  H13S  729   0.330   4.152   9.130  2.7182  1.1608 -1.0955
    6SAPS  C214  730   0.273   4.000   8.995 -0.3898 -0.2775 -0.1972
    6SAPS  H14R  731   0.185   3.956   9.045 -0.8788  0.3156 -0.5305
    6SAPS  C215  732   0.302   3.968   8.865 -0.0319  0.3030 -0.0675
    6SAPS  H15R  733   0.220   3.925   8.804  0.6428 -0.1164 -0.6896
    6SAPS  C216  734   0.428   3.983   8.787  0.1313 -0.4051  0.0816
    6SAPS  H16R  735   0.437   3.898   8.716  2.0620 -0.5989  0.5297
    6SAPS  H16S  736   0.510   3.961   8.859  0.9906 -0.1334 -0.8028
    6SAPS  C217  737   0.445   4.114   8.711  0.8335 -0.3972 -0.2726
    6SAPS  H17R  738   0.432   4.199   8.782  1.2203  0.8309 -1.6488
    6SAPS  H17S  739   0.367   4.113   8.632  1.0991 -1.1802 -0.5233
    6SAPS  C218  740   0.582   4.121   8.642 -0.2333 -0.3040 -0.1449
    6SAPS  H18R  741   0.625   4.026   8.606  3.4644 -0.7588  4.8118
    6SAPS  H18S  742   0.664   4.148   8.713 -0.6371 -1.9941  0.9902
    6SAPS  C219  743   0.584   4.214   8.527 -0.6225  0.7638  0.2454
    6SAPS  H19R  744   0.529   4.308   8.548  2.2599  2.1984  1.6320
    6SAPS  H19S  745   0.540   4.163   8.439  0.3201  0.3040  0.0341
    6SAPS  C220  746   0.719   4.266   8.477 -0.5594 -1.0106 -0.0217
    6SAPS  H20R  747   0.706   4.334   8.389  2.3849  2.2840  1.9464
    6SAPS  H20S  748   0.796   4.192   8.447 -0.1417 -1.5064  2.2119
    6SAPS  H20T  749   0.779   4.318   8.555  0.6958 -1.4117 -0.7179
    6SAPS   C33  750  -0.277   3.553  10.078 -0.0456  0.2754  0.4428
    6SAPS   H3X  751  -0.235   3.655  10.067  0.3473  0.0653 -0.0633
    6SAPS   H3Y  752  -0.374   3.563  10.131 -0.6231  1.9479 -0.8910
    6SAPS   C34  753  -0.291   3.468   9.954  0.2275 -0.0267  0.2752
    6SAPS   H4X  754  -0.195   3.484   9.900  1.3776 -1.3902  1.8687
    6SAPS   H4Y  755  -0.367   3.510   9.885  0.3459 -1.7427 -0.9232
    6SAPS   C35  756  -0.306   3.315   9.975 -0.1485 -0.3743 -0.0508
    6SAPS   H5X  757  -0.411   3.296  10.006 -0.6320  1.9457 -0.2340
    6SAPS   H5Y  758  -0.230   3.281  10.049  0.5154  0.2436 -0.4468
    6SAPS   C36  759  -0.281   3.230   9.854  0.7135 -0.2634 -0.3896
    6SAPS   H6X  760  -0.287   3.122   9.880 -1.2264 -0.3005 -0.9248
    6SAPS   H6Y  761  -0.179   3.247   9.812  0.7631  2.4028  0.7313
    6SAPS   C37  762  -0.380   3.257   9.738 -0.3949 -0.4262 -0.9043
    6SAPS   H7X  763  -0.363   3.360   9.698 -1.1728  1.3219  3.0455
    6SAPS   H7Y  764  -0.485   3.264   9.773 -0.3945  0.0630 -0.9887
    6SAPS   C38  765  -0.366   3.154   9.634  0.0807  0.6023  0.3930
    6SAPS   H8X  766  -0.417   3.064   9.675  1.3173  0.2581  1.2174
    6SAPS   H8Y  767  -0.264   3.132   9.597 -0.5790 -1.3597 -0.3593
    6SAPS   C39  768  -0.442   3.198   9.510  0.3205 -0.6676  0.2153
    6SAPS   H9X  769  -0.391   3.289   9.471 -2.0665  1.6056  2.1753
    6SAPS   H9Y  770  -0.550   3.216   9.530  0.5874 -0.0440  1.1083
    6SAPS  C310  771  -0.430   3.086   9.407 -0.7551  0.3450  0.9327
    6SAPS  H10X  772  -0.425   2.994   9.469 -0.7912  0.8213  1.6461
    6SAPS  H10Y  773  -0.331   3.091   9.358 -0.2930 -1.8919  1.6273
    6SAPS  C311  774  -0.541   3.076   9.301  1.0321  0.0285 -0.1941
    6SAPS  H11X  775  -0.641   3.116   9.326 -0.2230 -3.0781 -0.0235
    6SAPS  H11Y  776  -0.561   2.972   9.268  2.5299  0.4709 -2.6692
    6SAPS  C312  777  -0.501   3.140   9.169 -0.5245 -0.9992  0.2440
    6SAPS  H12X  778  -0.400   3.104   9.140  0.6676  2.5221 -0.1660
    6SAPS  H12Y  779  -0.512   3.250   9.174  3.0056 -0.6311  1.1567
    6SAPS  C313  780  -0.596   3.097   9.051  0.5812 -0.4225 -0.8732
    6SAPS  H13X  781  -0.595   2.987   9.034  0.3151 -0.3881 -1.1171
    6SAPS  H13Y  782  -0.561   3.142   8.955  0.6176  0.3985 -0.4739
    6SAPS  C314  783  -0.751   3.119   9.076  0.0377 -0.4171  0.3891
    6SAPS  H14X  784  -0.772   3.221   9.114  0.0182 -0.8782  1.6372
    6SAPS  H14Y  785  -0.783   3.045   9.153 -1.3915 -2.4574 -2.0841
    6SAPS  C315  786  -0.852   3.088   8.963 -0.2900 -0.1674  0.0382
    6SAPS  H15X  787  -0.827   3.169   8.891  2.2674  2.6280  3.9390
    6SAPS  H15Y  788  -0.943   3.125   9.016 -0.3266  0.0068 -0.1450
    6SAPS  C316  789  -0.842   2.949   8.893 -0.6173  0.1364  0.1825
    6SAPS  H16X  790  -0.829   2.868   8.967 -0.9670 -1.1888 -1.1781
    6SAPS  H16Y  791  -0.761   2.939   8.818 -0.0844 -1.0288  0.9057
    6SAPS  C317  792  -0.969   2.922   8.801 -0.1569  0.0076  0.2001
    6SAPS  H17X  793  -1.064   2.938   8.857 -1.1943 -4.3462 -0.1174
    6SAPS  H17Y  794  -0.960   2.818   8.763  0.4626  0.1422 -0.0249
    6SAPS  C318  795  -0.973   3.014   8.677 -0.0337 -0.1816  0.4568
    6SAPS  H18X  796  -0.876   3.047   8.634 -0.4028 -1.9787 -1.8806
    6SAPS  H18Y  797  -1.026   3.105   8.712 -0.7365 -0.4612  0.1169
    6SAPS  H18Z  798  -1.034   2.966   8.598 -1.8834  2.1224  0.4226
    7SAPS     N  799   2.417   5.679  10.767 -0.1160  0.0861  0.2203
    7SAPS   HN1  800   2.447   5.723  10.857 -1.2459 -1.1545  1.2294
    7SAPS   HN2  801   2.497   5.651  10.706 -1.8004 -1.1056 -1.4905
    7SAPS   HN3  802   2.376   5.757  10.712  3.0631  1.0256 -0.9287
    7SAPS   C12  803   2.326   5.571  10.794 -0.1385 -0.5863  0.0765
    7SAPS  H12A  804   2.345   5.494  10.721  2.6066 -0.9206  1.0996
    7SAPS   C13  805   2.346   5.499  10.927 -0.1383  0.2091 -0.1099
    7SAPS  O13A  806   2.445   5.522  10.997  0.1149  1.1297 -0.1022
    7SAPS  O13B  807   2.266   5.408  10.962  0.1572  0.4898  0.5918
    7SAPS   C11  808   2.182   5.624  10.795 -0.3339 -0.9785 -0.0773
    7SAPS  H11A  809   2.163   5.685  10.886 -0.5967 -1.1101 -0.0450
    7SAPS  H11B  810   2.111   5.539  10.798 -0.1818 -1.0561  1.7804
    7SAPS     P  811   2.016   5.723  10.617 -0.1770  0.5306 -0.3739
    7SAPS   O13  812   1.915   5.708  10.727 -0.0731  0.2369  0.0931
    7SAPS   O14  813   2.006   5.842  10.530  0.0490 -0.2299  0.0849
    7SAPS   O12  814   2.160   5.710  10.681  0.0064  0.4940 -0.2582
    7SAPS   O11  815   2.004   5.586  10.525  0.5635  0.6037 -0.0435
    7SAPS    C1  816   2.124   5.534  10.468  0.0266 -0.3910 -0.3750
    7SAPS    HA  817   2.199   5.496  10.540 -0.9124 -0.2857  0.6578
    7SAPS    HB  818   2.095   5.447  10.405  1.3161 -2.1551  1.3932
    7SAPS    C2  819   2.200   5.633  10.373 -0.4360 -0.4674  0.3214
    7SAPS    HS  820   2.251   5.705  10.441 -1.9552  0.2954  0.6757
    7SAPS   O21  821   2.102   5.694  10.281  0.5921  0.0790 -0.1884
    7SAPS   C21  822   2.134   5.818  10.249  0.3359 -0.4640 -0.0386
    7SAPS   O22  823   2.230   5.877  10.289  0.0679 -0.0244  0.2586
    7SAPS   C22  824   2.021   5.872  10.159 -0.3828 -0.1106  0.2759
    7SAPS   H2R  825   1.923   5.831  10.191 -1.0791  0.7853 -0.6968
    7SAPS   H2S  826   2.024   5.981  10.182 -0.7443  0.0404 -0.3742
    7SAPS    C3  827   2.309   5.551  10.291  0.9088 -0.1987 -0.0623
    7SAPS    HX  828   2.368   5.498  10.368  1.0308 -0.9004 -0.6315
    7SAPS    HY  829   2.379   5.617  10.235  0.5797  0.7189  0.5893
    7SAPS   O31  830   2.246   5.456  10.208 -0.5834 -0.1569 -0.1878
    7SAPS   C31  831   2.208   5.499  10.092 -0.7690  0.0271  0.3735
    7SAPS   O32  832   2.242   5.602  10.035  0.8406  0.1696  0.0572
    7SAPS   C32  833   2.115   5.392  10.039  0.2483 -0.1622  0.6477
    7SAPS   H2X  834   2.024   5.398  10.102 -0.3715 -1.1524 -0.1321
    7SAPS   H2Y  835   2.151   5.289  10.059 -1.6082 -1.2537 -1.4160
    7SAPS   C23  836   2.047   5.855  10.010 -0.1588 -0.6080 -0.4599
    7SAPS   H3R  837   2.055   5.746   9.989 -1.4196 -1.0198  1.0963
    7SAPS   H3S  838   2.146   5.897   9.983  0.7154 -2.0895  0.3325
    7SAPS   C24  839   1.927   5.900   9.924  0.4515 -0.7857 -0.1365
    7SAPS   H4R  840   1.831   5.856   9.958 -0.8766  2.3603  0.4136
    7SAPS   H4S  841   1.953   5.864   9.822 -0.1664 -0.4236 -0.4252
    7SAPS   C25  842   1.902   6.045   9.924 -0.0839 -0.1598 -0.2644
    7SAPS   H5R  843   1.903   6.097  10.021 -0.7615  0.0264 -0.3556
    7SAPS   C26  844   1.888   6.125   9.818 -0.4689  0.3763  0.0333
    7SAPS   H6R  845   1.860   6.229   9.844 -1.7092 -0.0922  0.6367
    7SAPS   C27  846   1.886   6.082   9.673  0.2339  0.6022 -0.1166
    7SAPS   H7R  847   1.970   6.009   9.672 -0.9098 -0.7413  0.2276
    7SAPS   H7S  848   1.911   6.171   9.611 -1.8391 -0.5042 -2.6263
    7SAPS   C28  849   1.767   6.005   9.622  0.3103 -0.2387  0.2917
    7SAPS   H8R  850   1.691   5.973   9.694 -2.0206 -0.3861 -2.1335
    7SAPS   C29  851   1.757   5.963   9.493 -0.1174 -0.3551  0.1123
    7SAPS   H9R  852   1.665   5.910   9.464  0.8211 -1.3163 -1.1545
    7SAPS  C210  853   1.849   5.995   9.380 -0.4029  0.9553 -0.0267
    7SAPS  H10R  854   1.955   6.002   9.413 -1.0875 -0.7615  2.5973
    7SAPS  H10S  855   1.815   6.092   9.336 -1.4231  0.7857  0.3636
    7SAPS  C211  856   1.851   5.886   9.268  0.4191 -0.2767  0.1315
    7SAPS  H11R  857   1.896   5.790   9.295 -1.9600 -2.1347 -2.2238
    7SAPS  C212  858   1.786   5.885   9.155  0.0410  0.0318  1.0208
    7SAPS  H12R  859   1.797   5.799   9.087 -0.8547 -0.7158  1.8059
    7SAPS  C213  860   1.699   5.993   9.088  0.3438  0.5900  0.5389
    7SAPS  H13R  861   1.762   6.084   9.101  0.3744  0.6794 -0.2041
    7SAPS  H13S  862   1.599   5.994   9.136  0.1960 -0.3747  0.2563
    7SAPS  C214  863   1.714   5.956   8.936  0.3888 -0.4017 -0.9059
    7SAPS  H14R  864   1.820   5.963   8.907  0.8393 -1.1802  0.4852
    7SAPS  C215  865   1.617   5.927   8.844  0.2578 -0.1293 -0.0576
    7SAPS  H15R  866   1.644   5.890   8.744  0.0849  0.3203 -0.2723
    7SAPS  C216  867   1.472   5.925   8.881  0.0530  0.3153  0.9611
    7SAPS  H16R  868   1.408   5.932   8.791  0.5356 -2.3748  0.3687
    7SAPS  H16S  869   1.445   6.013   8.944 -0.9296 -0.3309  1.4466
    7SAPS  C217  870   1.434   5.805   8.965  0.0767 -0.4087 -0.1001
    7SAPS  H17R  871   1.326   5.811   8.991  0.0561  1.1367 -0.4996
    7SAPS  H17S  872   1.486   5.804   9.063  0.4084  1.4759 -0.2455
    7SAPS  C218  873   1.462   5.663   8.895 -0.1390 -0.2082  0.3428
    7SAPS  H18R  874   1.547   5.665   8.823 -0.6222  0.3048 -0.2170
    7SAPS  H18S  875   1.376   5.633   8.831 -0.3915  0.7315  0.2307
    7SAPS  C219  876   1.471   5.546   8.998 -0.0313 -0.3999  0.0944
    7SAPS  H19R  877   1.391   5.533   9.074  0.2551  1.2291  0.6792
    7SAPS  H19S  878   1.572   5.559   9.043  1.3314  0.0389 -2.9802
    7SAPS  C220  879   1.473   5.413   8.924 -0.4132 -0.1654  0.2904
    7SAPS  H20R  880   1.561   5.422   8.857 -0.0684  0.8163  0.8616
    7SAPS  H20S  881   1.378   5.399   8.868 -0.4981  1.2523  0.0550
    7SAPS  H20T  882   1.495   5.329   8.994  0.0726 -0.6506 -0.4371
    7SAPS   C33  883   2.068   5.415   9.895  0.0486 -0.2170 -0.3201
    7SAPS   H3X  884   2.011   5.509   9.878 -0.2113 -0.3787 -0.3425
    7SAPS   H3Y  885   1.987   5.343   9.873 -0.1774 -0.1234  0.1973
    7SAPS   C34  886   2.181   5.399   9.796 -0.0611 -0.2740 -0.8821
    7SAPS   H4X  887   2.238   5.303   9.795  0.7525  0.2124 -2.3586
    7SAPS   H4Y  888   2.257   5.475   9.822 -1.6339  1.7210 -1.9307
    7SAPS   C35  889   2.144   5.416   9.649  0.1706  0.2060 -0.2146
    7SAPS   H5X  890   2.225   5.389   9.577 -0.2135 -0.1630 -0.5063
    7SAPS   H5Y  891   2.112   5.521   9.635 -0.8580  0.0117  0.6427
    7SAPS   C36  892   2.014   5.337   9.606  0.3493 -0.5431 -0.6809
    7SAPS   H6X  893   1.929   5.393   9.649  2.1094  1.0650  0.8073
    7SAPS   H6Y  894   2.009   5.233   9.647 -1.7732  0.3318  1.3952
    7SAPS   C37  895   1.997   5.335   9.449  0.2652 -0.3626 -0.0311
    7SAPS   H7X  896   2.039   5.239   9.412  0.5682 -0.4176  0.4650
    7SAPS   H7Y  897   2.046   5.425   9.406  0.9323  1.2058  3.8020
    7SAPS   C38  898   1.848   5.349   9.424 -0.3620  0.0119 -0.1994
    7SAPS   H8X  899   1.811   5.448   9.460 -1.3858  0.4931 -2.4954
    7SAPS   H8Y  900   1.800   5.264   9.476  0.9102 -2.1528 -2.4746
    7SAPS   C39  901   1.803   5.349   9.274  0.6727  0.6140 -0.2999
    7SAPS   H9X  902   1.692   5.362   9.273  0.3293 -1.8588  1.0576
    7SAPS   H9Y  903   1.817   5.253   9.221  0.5355  1.3616 -1.7119
    7SAPS  C310  904   1.881   5.452   9.183 -0.3945 -0.3692  0.2766
    7SAPS  H10X  905   1.992   5.442   9.186 -0.3495  0.1251  0.3508
    7SAPS  H10Y  906   1.859   5.552   9.225 -1.1799  0.0011 -1.0044
    7SAPS  C311  907   1.834   5.466   9.037 -0.0411  0.0310 -0.6791
    7SAPS  H11X  908   1.826   5.569   8.994  0.3386  0.2015 -0.3426
    7SAPS  H11Y  909   1.730   5.427   9.038 -0.0575  0.0844 -0.2667
    7SAPS  C312  910   1.931   5.395   8.946 -0.2278 -0.2514  0.5473
    7SAPS  H12X  911   1.915   5.285   8.954 -3.5915  0.2119  1.1866
    7SAPS  H12Y  912   2.030   5.430   8.980  0.6679 -4.1200  2.2014
    7SAPS  C313  913   1.922   5.410   8.794  0.5781 -0.7747  0.6824
    7SAPS  H13X  914   1.830   5.369   8.747 -0.3686 -0.5046  2.2749
    7SAPS  H13Y  915   1.988   5.331   8.751  1.5861  0.4667 -0.0963
    7SAPS  C314  916   1.966   5.545   8.732  0.0279  0.3742  0.5810
    7SAPS  H14X  917   2.077   5.543   8.731  0.0180 -0.9517  0.7836
    7SAPS  H14Y  918   1.941   5.630   8.798 -0.6776  0.7520 -0.1579
    7SAPS  C315  919   1.921   5.580   8.580  0.4660  0.2103 -0.1089
    7SAPS  H15X  920   1.930   5.488   8.518  2.8008  1.6152 -1.9332
    7SAPS  H15Y  921   1.987   5.664   8.548  1.2042 -0.4290 -0.2681
    7SAPS  C316  922   1.772   5.625   8.574 -1.2588  0.2750  0.0606
    7SAPS  H16X  923   1.767   5.722   8.628 -1.8408  0.4169 -0.2302
    7SAPS  H16Y  924   1.705   5.550   8.621 -2.1769  0.8825 -0.2649
    7SAPS  C317  925   1.725   5.650   8.426 -0.1319 -0.1742 -0.3760
    7SAPS  H17X  926   1.768   5.745   8.390  0.6729  0.0907  1.2726
    7SAPS  H17Y  927   1.615   5.669   8.430 -0.2019 -0.9211  1.7183
    7SAPS  C318  928   1.763   5.529   8.335 -0.0670 -0.1934  0.4630
    7SAPS  H18X  929   1.873   5.529   8.320  0.1362  1.5706  1.8124
    7SAPS  H18Y  930   1.711   5.514   8.239  0.4793  1.4444 -0.1031
    7SAPS  H18Z  931   1.738   5.437   8.393  0.9371 -0.5274  0.3820
    8SAPS     N  932   6.632   5.920  10.778  0.1581 -0.1771  0.7431
    8SAPS   HN1  933   6.604   5.836  10.724  0.3482  0.0414  0.2964
    8SAPS   HN2  934   6.653   6.005  10.720  1.8718 -1.2876 -0.3285
    8SAPS   HN3  935   6.716   5.899  10.836 -0.4018 -0.8445  1.3118
    8SAPS   C12  936   6.520   5.957  10.867 -0.2419 -0.4246  0.5000
    8SAPS  H12A  937   6.550   6.053  10.906 -0.7945  1.0217 -2.4308
    8SAPS   C13  938   6.387   5.996  10.803 -0.6869  0.1802  0.5101
    8SAPS  O13A  939   6.385   6.057  10.687 -0.3430 -0.6471 -0.1307
    8SAPS  O13B  940   6.288   6.007  10.878 -0.1953  0.4862  0.2709
    8SAPS   C11  941   6.500   5.849  10.981 -1.0680  0.2100  0.4734
    8SAPS  H11A  942   6.452   5.757  10.943 -0.3638  0.2628 -0.5924
    8SAPS  H11B  943   6.422   5.882  11.053  1.1996  2.1239  2.1351
    8SAPS     P  944   6.611   5.733  11.185  0.1723 -0.1932 -0.0183
    8SAPS   O13  945   6.739   5.726  11.254  0.3921 -0.6160 -0.2799
    8SAPS   O14  946   6.503   5.781  11.272 -0.0008  0.4680  0.3339
    8SAPS   O12  947   6.622   5.817  11.053  0.5898 -0.3788  0.6721
    8SAPS   O11  948   6.566   5.596  11.119 -0.5574 -0.2579  0.0914
    8SAPS    C1  949   6.665   5.509  11.059 -0.0801  0.1430 -0.5530
    8SAPS    HA  950   6.762   5.515  11.112  0.8203  1.3146 -2.2602
    8SAPS    HB  951   6.640   5.404  11.083  2.9152 -0.2899  0.9097
    8SAPS    C2  952   6.689   5.540  10.910  0.0233 -0.1869 -0.3253
    8SAPS    HS  953   6.710   5.649  10.912 -1.0672  0.0198 -0.1482
    8SAPS   O21  954   6.570   5.496  10.840 -0.1909 -0.5314 -0.3515
    8SAPS   C21  955   6.541   5.563  10.725  0.0388  0.4642  0.2407
    8SAPS   O22  956   6.592   5.670  10.692  0.2223 -0.4124 -0.5567
    8SAPS   C22  957   6.432   5.492  10.653 -0.2621  0.1338  0.1196
    8SAPS   H2R  958   6.376   5.428  10.724 -1.6251  1.2785  0.1039
    8SAPS   H2S  959   6.364   5.566  10.605  2.4155  3.0108  0.6056
    8SAPS    C3  960   6.819   5.466  10.857  0.7868 -0.2760 -0.0255
    8SAPS    HX  961   6.810   5.367  10.905 -1.0571 -1.0132 -1.8195
    8SAPS    HY  962   6.905   5.521  10.901 -0.0083  0.3128  0.8136
    8SAPS   O31  963   6.820   5.454  10.710 -0.4568  0.1334  0.3177
    8SAPS   C31  964   6.936   5.422  10.660  0.6405  0.4675  0.6622
    8SAPS   O32  965   7.034   5.388  10.720 -0.2466  0.1430  0.6766
    8SAPS   C32  966   6.913   5.434  10.504 -0.8173  0.9224 -0.7828
    8SAPS   H2X  967   6.894   5.539  10.476  1.1546  1.2147 -1.1378
    8SAPS   H2Y  968   6.828   5.371  10.471 -0.0769 -0.1461 -0.6901
    8SAPS   C23  969   6.489   5.410  10.538  0.5479  0.1172  0.3293
    8SAPS   H3R  970   6.531   5.313  10.575 -3.2468 -1.3593  1.0563
    8SAPS   H3S  971   6.574   5.455  10.482  3.1880 -1.2421  3.0621
    8SAPS   C24  972   6.378   5.367  10.439  0.1573  0.6217 -0.3719
    8SAPS   H4R  973   6.350   5.450  10.371 -2.9104 -0.1666 -0.1371
    8SAPS   H4S  974   6.284   5.343  10.493  0.5356 -3.0482 -1.2234
    8SAPS   C25  975   6.411   5.251  10.345 -0.6549 -0.7182  0.4212
    8SAPS   H5R  976   6.403   5.154  10.397 -2.0922 -1.4026 -1.0296
    8SAPS   C26  977   6.432   5.258  10.209 -0.1319 -0.6114 -0.1076
    8SAPS   H6R  978   6.460   5.169  10.149  1.6995 -0.1302  0.0115
    8SAPS   C27  979   6.434   5.380  10.126  0.4484 -0.2025  0.5210
    8SAPS   H7R  980   6.522   5.369  10.059 -0.3228 -0.8979 -0.4048
    8SAPS   H7S  981   6.444   5.468  10.192  1.9930 -0.3457  0.5029
    8SAPS   C28  982   6.308   5.390  10.044  0.6113  0.1461 -0.4318
    8SAPS   H8R  983   6.212   5.362  10.091 -0.6986  4.5675 -0.2264
    8SAPS   C29  984   6.295   5.432   9.917 -0.0110 -0.4140 -0.3496
    8SAPS   H9R  985   6.193   5.435   9.875 -0.3447  0.4890  0.4943
    8SAPS  C210  986   6.402   5.486   9.824 -0.3897 -0.7770 -0.8958
    8SAPS  H10R  987   6.432   5.396   9.767  1.6274 -1.4998  1.2109
    8SAPS  H10S  988   6.500   5.515   9.866 -0.1013 -1.0531 -1.3784
    8SAPS  C211  989   6.346   5.592   9.739 -0.3019 -0.3129  1.1191
    8SAPS  H11R  990   6.336   5.689   9.791 -1.4186 -0.6312  1.5203
    8SAPS  C212  991   6.298   5.585   9.612  0.0365 -0.2147  0.3035
    8SAPS  H12R  992   6.272   5.679   9.560  2.0197 -0.3776 -1.0296
    8SAPS  C213  993   6.290   5.463   9.518  0.2603 -0.4143 -0.6501
    8SAPS  H13R  994   6.208   5.466   9.443  2.0157 -1.0295 -2.6412
    8SAPS  H13S  995   6.246   5.390   9.588  0.5682 -0.3110 -0.3431
    8SAPS  C214  996   6.420   5.417   9.448 -0.4037 -1.4416  0.0370
    8SAPS  H14R  997   6.515   5.434   9.500  1.2141  0.7433 -3.4416
    8SAPS  C215  998   6.418   5.363   9.327  0.3967 -0.3914  0.0743
    8SAPS  H15R  999   6.517   5.341   9.286 -0.1580  1.5439 -2.4182
    8SAPS  C216 1000   6.302   5.347   9.227  0.1636  0.1758  0.2617
    8SAPS  H16R 1001   6.252   5.446   9.228  0.5678  0.4095 -1.4913
    8SAPS  H16S 1002   6.230   5.269   9.261 -0.4386  1.6288  2.3937
    8SAPS  C217 1003   6.360   5.317   9.080  0.3154 -0.5685  0.4128
    8SAPS  H17R 1004   6.274   5.289   9.015  2.0992 -0.0895 -2.2184
    8SAPS  H17S 1005   6.415   5.220   9.084  0.1041 -0.7639 -0.9792
    8SAPS  C218 1006   6.442   5.432   9.021 -0.6298  0.4226 -0.7296
    8SAPS  H18R 1007   6.527   5.442   9.092 -0.8641 -1.7919 -0.0921
    8SAPS  H18S 1008   6.382   5.524   9.040 -1.2653  0.0799 -1.0606
    8SAPS  C219 1009   6.477   5.419   8.881  0.2929 -0.4379 -0.6427
    8SAPS  H19R 1010   6.539   5.329   8.858  0.7119 -0.2196 -0.3683
    8SAPS  H19S 1011   6.545   5.503   8.856 -0.2095 -0.8679 -3.6937
    8SAPS  C220 1012   6.370   5.413   8.773  0.9798 -0.9236  0.5444
    8SAPS  H20R 1013   6.285   5.482   8.792  1.8264  1.1245 -2.5955
    8SAPS  H20S 1014   6.330   5.311   8.754  3.4764 -2.0983  1.2924
    8SAPS  H20T 1015   6.414   5.447   8.677 -0.6352  2.4572  0.9372
    8SAPS   C33 1016   7.041   5.386  10.426 -0.7763 -0.4372  0.2960
    8SAPS   H3X 1017   7.050   5.279  10.456  0.4502 -0.9388 -1.7666
    8SAPS   H3Y 1018   7.129   5.441  10.466 -0.8241 -1.6066  2.0863
    8SAPS   C34 1019   7.025   5.401  10.271 -0.1318 -0.6252  0.4972
    8SAPS   H4X 1020   7.011   5.510  10.255 -0.0938 -0.6818  0.0894
    8SAPS   H4Y 1021   6.934   5.346  10.240 -0.5333 -0.4422  1.3342
    8SAPS   C35 1022   7.156   5.375  10.187  0.9328  0.4485 -0.2752
    8SAPS   H5X 1023   7.178   5.266  10.192 -0.4880  0.2302  1.5067
    8SAPS   H5Y 1024   7.239   5.438  10.225 -0.1637  1.9369 -0.3303
    8SAPS   C36 1025   7.152   5.420  10.040  0.3175  0.6532  0.5427
    8SAPS   H6X 1026   7.124   5.528  10.035  1.1696  0.9109  1.1310
    8SAPS   H6Y 1027   7.061   5.373   9.997  0.4971 -0.8784  1.7998
    8SAPS   C37 1028   7.281   5.372   9.970 -0.2384  0.0966 -0.0654
    8SAPS   H7X 1029   7.303   5.278  10.025  2.0261 -1.9774 -4.3320
    8SAPS   H7Y 1030   7.361   5.447   9.992 -0.5128 -0.1826  1.9796
    8SAPS   C38 1031   7.259   5.353   9.824 -0.0230 -0.3967 -0.1079
    8SAPS   H8X 1032   7.183   5.275   9.803 -1.8702  2.0336 -2.8897
    8SAPS   H8Y 1033   7.357   5.313   9.789  0.8107 -1.0760  2.8554
    8SAPS   C39 1034   7.218   5.481   9.750  0.1431  0.4595  0.0017
    8SAPS   H9X 1035   7.305   5.550   9.749 -0.7133  1.5519 -0.7915
    8SAPS   H9Y 1036   7.143   5.534   9.813  0.5184 -0.6316  1.3879
    8SAPS  C310 1037   7.166   5.460   9.608 -0.4336 -0.1039  0.2678
    8SAPS  H10X 1038   7.055   5.462   9.607 -0.4770 -1.4895 -1.8398
    8SAPS  H10Y 1039   7.197   5.359   9.574  2.9296  0.4346  1.5847
    8SAPS  C311 1040   7.226   5.556   9.504 -0.5237 -0.4499  0.1277
    8SAPS  H11X 1041   7.327   5.513   9.489 -1.1725 -0.6776 -3.9825
    8SAPS  H11Y 1042   7.247   5.651   9.557  2.3990 -2.1030  2.0528
    8SAPS  C312 1043   7.162   5.564   9.371 -0.1538  0.1822  0.2905
    8SAPS  H12X 1044   7.067   5.623   9.363 -0.9688 -1.3172 -1.3567
    8SAPS  H12Y 1045   7.125   5.461   9.351  0.8826  0.3691 -2.7454
    8SAPS  C313 1046   7.255   5.593   9.249  0.8811  0.0603 -0.2437
    8SAPS  H13X 1047   7.212   5.541   9.161 -0.0920  0.9550 -0.3066
    8SAPS  H13Y 1048   7.352   5.542   9.266  0.2571 -1.4772 -1.1412
    8SAPS  C314 1049   7.268   5.745   9.236 -0.4316  0.5011  0.6575
    8SAPS  H14X 1050   7.303   5.784   9.334 -0.1966  1.0702  0.3492
    8SAPS  H14Y 1051   7.166   5.788   9.226 -0.5113  0.0248 -0.5126
    8SAPS  C315 1052   7.371   5.798   9.137  0.7940 -0.6559  0.2125
    8SAPS  H15X 1053   7.343   5.900   9.103  0.1616 -1.8733 -3.1894
    8SAPS  H15Y 1054   7.354   5.735   9.047 -0.9477  0.4725 -0.2654
    8SAPS  C316 1055   7.513   5.770   9.180  0.5394 -0.0595  0.4379
    8SAPS  H16X 1056   7.519   5.667   9.221  1.0293 -0.3484 -0.3360
    8SAPS  H16Y 1057   7.539   5.834   9.267  1.3788  0.8642 -0.4792
    8SAPS  C317 1058   7.619   5.781   9.071  0.1911  0.9359  0.2984
    8SAPS  H17X 1059   7.610   5.882   9.025  0.6987  1.7001  1.8426
    8SAPS  H17Y 1060   7.590   5.700   9.000  0.5629 -0.1575  1.3757
    8SAPS  C318 1061   7.765   5.779   9.108 -1.0400  0.5219 -0.2209
    8SAPS  H18X 1062   7.813   5.810   9.013 -0.0962 -0.4797 -0.0761
    8SAPS  H18Y 1063   7.802   5.684   9.153  0.9385  0.5380 -1.7477
    8SAPS  H18Z 1064   7.795   5.857   9.181  2.1255 -0.2162 -0.6470
    9SAPS     N 1065   2.634   1.306   6.143 -0.6708  0.0246  0.0427
    9SAPS   HN1 1066   2.737   1.301   6.133 -0.7765 -3.8082  0.3385
    9SAPS   HN2 1067   2.616   1.223   6.203  1.1139 -1.0534 -0.8785
    9SAPS   HN3 1068   2.574   1.288   6.060 -0.0716 -0.4996 -0.2839
    9SAPS   C12 1069   2.601   1.433   6.222 -0.5822  0.9429  0.9952
    9SAPS  H12A 1070   2.611   1.523   6.163 -0.2294  0.9627  1.0820
    9SAPS   C13 1071   2.453   1.444   6.275  0.0474  0.1430 -0.3925
    9SAPS  O13A 1072   2.362   1.370   6.233  0.1660 -0.7152  0.1085
    9SAPS  O13B 1073   2.426   1.540   6.354 -0.3929 -0.7068 -0.0281
    9SAPS   C11 1074   2.692   1.430   6.348  0.3285 -0.8053  0.2303
    9SAPS  H11A 1075   2.650   1.346   6.408 -2.3236  2.7882  3.6876
    9SAPS  H11B 1076   2.677   1.524   6.405 -0.3556  0.5700 -2.1520
    9SAPS     P 1077   2.946   1.494   6.337 -0.0024 -0.1023 -0.2073
    9SAPS   O13 1078   3.068   1.413   6.360  0.2191  0.2101 -0.6448
    9SAPS   O14 1079   2.937   1.592   6.225 -0.1225 -0.4684  0.5270
    9SAPS   O12 1080   2.823   1.394   6.318  0.1219  0.2573  0.2558
    9SAPS   O11 1081   2.915   1.571   6.471  0.3471 -0.0262  0.9480
    9SAPS    C1 1082   2.858   1.700   6.468  0.0691  0.0897 -0.3291
    9SAPS    HA 1083   2.938   1.770   6.437  1.3042 -1.0743  0.1783
    9SAPS    HB 1084   2.776   1.700   6.393 -0.4014  2.9974  0.1233
    9SAPS    C2 1085   2.800   1.736   6.604 -0.1117 -0.4900  0.5521
    9SAPS    HS 1086   2.754   1.837   6.592  0.8317 -0.0114  0.8422
    9SAPS   O21 1087   2.914   1.729   6.693 -0.2958  0.2860  0.0670
    9SAPS   C21 1088   2.920   1.828   6.775 -0.0042 -0.8410 -1.0368
    9SAPS   O22 1089   2.833   1.914   6.789  0.0437  0.1113 -0.1556
    9SAPS   C22 1090   3.031   1.809   6.886 -0.0597  0.2428 -0.0852
    9SAPS   H2R 1091   2.986   1.769   6.979  2.9454  0.0650  1.3524
    9SAPS   H2S 1092   3.098   1.733   6.839  1.2477  0.5674  1.2224
    9SAPS    C3 1093   2.687   1.638   6.637 -0.4617  0.7648 -0.5760
    9SAPS    HX 1094   2.714   1.531   6.626 -1.9163  0.2432  0.7828
    9SAPS    HY 1095   2.606   1.654   6.563 -1.1227  1.4039  0.2668
    9SAPS   O31 1096   2.638   1.655   6.779 -0.1119 -0.3770 -0.2012
    9SAPS   C31 1097   2.557   1.760   6.785  0.6294 -0.4606  0.4088
    9SAPS   O32 1098   2.522   1.830   6.688 -0.2053 -0.2462 -0.3639
    9SAPS   C32 1099   2.542   1.789   6.931  0.1799 -0.3672 -0.5104
    9SAPS   H2X 1100   2.641   1.833   6.957 -0.9958  0.9221  1.8966
    9SAPS   H2Y 1101   2.536   1.692   6.984  1.0904 -0.6034 -0.8227
    9SAPS   C23 1102   3.105   1.951   6.929  0.0732  0.4124  1.0925
    9SAPS   H3R 1103   3.077   2.037   6.865 -1.9613  0.8680  2.5553
    9SAPS   H3S 1104   3.214   1.925   6.928 -0.0918 -0.4103  2.2578
    9SAPS   C24 1105   3.092   1.985   7.076 -0.2210  0.0078  0.0028
    9SAPS   H4R 1106   3.166   2.066   7.090 -0.4093  0.0700  0.6264
    9SAPS   H4S 1107   3.139   1.901   7.130 -0.5644  0.1594  0.5352
    9SAPS   C25 1108   2.947   2.003   7.131  0.1190 -0.7099  0.2728
    9SAPS   H5R 1109   2.870   1.971   7.059  1.2638  0.6208 -1.5969
    9SAPS   C26 1110   2.917   2.073   7.245 -0.0731 -0.3320  0.1976
    9SAPS   H6R 1111   2.815   2.069   7.287  0.1503  4.3602  1.4710
    9SAPS   C27 1112   3.009   2.132   7.344 -0.0409  0.1312 -0.1932
    9SAPS   H7R 1113   3.106   2.148   7.292  1.2390  2.4716  2.8066
    9SAPS   H7S 1114   3.022   2.060   7.427  1.2195 -0.6569 -1.0615
    9SAPS   C28 1115   2.967   2.274   7.385 -0.2882  0.2744  0.3245
    9SAPS   H8R 1116   2.984   2.351   7.308 -1.2777 -1.8323 -2.0523
    9SAPS   C29 1117   2.919   2.325   7.503  0.2606 -0.1003  0.1311
    9SAPS   H9R 1118   2.902   2.433   7.499  0.7761 -0.0657 -1.4906
    9SAPS  C210 1119   2.876   2.257   7.631  0.9111 -0.0775 -0.2085
    9SAPS  H10R 1120   2.840   2.157   7.600 -0.0766 -0.2038  1.2728
    9SAPS  H10S 1121   2.786   2.308   7.673  1.4310 -0.4298  1.3986
    9SAPS  C211 1122   2.997   2.249   7.735  0.2669  0.6772 -0.0497
    9SAPS  H11R 1123   3.086   2.215   7.679 -1.6526 -1.2782 -2.0105
    9SAPS  C212 1124   3.006   2.280   7.865  0.0736 -0.4094 -0.7996
    9SAPS  H12R 1125   3.101   2.255   7.915  1.0239 -0.9974 -2.8575
    9SAPS  C213 1126   2.897   2.326   7.958 -0.3072 -0.1006  0.7638
    9SAPS  H13R 1127   2.871   2.250   8.035 -0.1670 -0.9018  0.0279
    9SAPS  H13S 1128   2.806   2.353   7.899  0.0730  0.8635  0.6116
    9SAPS  C214 1129   2.943   2.452   8.035  0.1047 -0.6536 -0.3227
    9SAPS  H14R 1130   3.017   2.517   7.985 -0.8234  0.7716  0.1268
    9SAPS  C215 1131   2.895   2.492   8.152  0.2336  0.6611 -0.6019
    9SAPS  H15R 1132   2.945   2.578   8.198 -0.8023 -0.1444  2.1662
    9SAPS  C216 1133   2.787   2.439   8.246  0.1352  0.8407 -0.0560
    9SAPS  H16R 1134   2.832   2.403   8.341 -0.2419 -2.9725 -1.2183
    9SAPS  H16S 1135   2.744   2.349   8.195  0.0521  0.5921  0.4445
    9SAPS  C217 1136   2.662   2.529   8.276 -0.1450  0.3560 -0.3688
    9SAPS  H17R 1137   2.680   2.621   8.335  2.3443  0.9503 -1.9805
    9SAPS  H17S 1138   2.600   2.460   8.337  0.1981  0.2326 -0.1571
    9SAPS  C218 1139   2.580   2.568   8.154  0.3799  0.0557  0.1620
    9SAPS  H18R 1140   2.576   2.482   8.084  1.1871 -0.6833  1.0117
    9SAPS  H18S 1141   2.612   2.662   8.103 -1.5643  0.2355 -0.7838
    9SAPS  C219 1142   2.428   2.606   8.192 -0.0055 -0.5812 -0.2409
    9SAPS  H19R 1143   2.409   2.667   8.283  0.2024  0.8163 -1.1207
    9SAPS  H19S 1144   2.375   2.509   8.202  0.2672 -0.5720  1.6460
    9SAPS  C220 1145   2.355   2.676   8.080  0.6799  0.0083 -0.1401
    9SAPS  H20R 1146   2.399   2.631   7.988  0.4704  1.5420 -1.0064
    9SAPS  H20S 1147   2.362   2.787   8.078  0.1209  0.0881  1.8909
    9SAPS  H20T 1148   2.244   2.664   8.075  0.5394  0.3961  1.9026
    9SAPS   C33 1149   2.424   1.880   6.963 -0.4103 -0.5795 -0.4596
    9SAPS   H3X 1150   2.333   1.825   6.929 -1.3678  0.1448  0.8768
    9SAPS   H3Y 1151   2.423   1.974   6.905  1.2831 -0.6971 -0.6934
    9SAPS   C34 1152   2.410   1.911   7.117 -0.4852  0.7222 -0.2426
    9SAPS   H4X 1153   2.423   1.824   7.185  1.8175  1.7275  0.6492
    9SAPS   H4Y 1154   2.303   1.938   7.133 -0.9822 -0.2166 -1.8165
    9SAPS   C35 1155   2.494   2.025   7.166 -1.3199  0.1949  0.6441
    9SAPS   H5X 1156   2.454   2.111   7.106  0.4761  1.5357  1.3262
    9SAPS   H5Y 1157   2.603   2.015   7.149 -1.4284 -3.2136  1.7298
    9SAPS   C36 1158   2.462   2.057   7.312  0.2984  0.5260  0.5297
    9SAPS   H6X 1159   2.513   2.000   7.393 -2.1728  0.1288  1.8704
    9SAPS   H6Y 1160   2.354   2.036   7.329 -0.0709  1.3320 -0.7818
    9SAPS   C37 1161   2.481   2.209   7.342  0.1312  0.3017  0.2323
    9SAPS   H7X 1162   2.455   2.261   7.247 -2.4294  2.5914  2.1419
    9SAPS   H7Y 1163   2.590   2.224   7.358  0.2799  0.3196 -0.7279
    9SAPS   C38 1164   2.402   2.254   7.462 -0.2507 -0.0784  0.4745
    9SAPS   H8X 1165   2.300   2.211   7.459  0.0909 -0.8214 -1.7937
    9SAPS   H8Y 1166   2.391   2.363   7.448 -2.4343 -0.3814 -0.3318
    9SAPS   C39 1167   2.477   2.233   7.595  0.2231  0.2976  1.1750
    9SAPS   H9X 1168   2.583   2.265   7.601  0.4507  0.0274 -1.0055
    9SAPS   H9Y 1169   2.475   2.122   7.601  0.7078  0.1482 -1.0817
    9SAPS  C310 1170   2.393   2.273   7.715 -0.0700 -0.2473 -0.8439
    9SAPS  H10X 1171   2.291   2.231   7.724 -0.3781  0.9576  1.8243
    9SAPS  H10Y 1172   2.360   2.378   7.702  0.2986 -0.1030 -0.6408
    9SAPS  C311 1173   2.459   2.239   7.848 -0.0466  1.0359  0.2231
    9SAPS  H11X 1174   2.547   2.304   7.865  0.1860  0.3500  1.6361
    9SAPS  H11Y 1175   2.488   2.133   7.836 -0.0462  1.0113  0.4509
    9SAPS  C312 1176   2.366   2.236   7.969 -0.1846  0.0698  0.1745
    9SAPS  H12X 1177   2.284   2.168   7.939  0.6339 -1.1033  0.5814
    9SAPS  H12Y 1178   2.319   2.333   7.998 -0.1726 -0.5621  2.3914
    9SAPS  C313 1179   2.456   2.183   8.078  0.4197 -0.1840  0.4829
    9SAPS  H13X 1180   2.535   2.261   8.074 -1.2464  1.4661 -0.8946
    9SAPS  H13Y 1181   2.494   2.079   8.065 -4.0583 -1.7026 -1.3300
    9SAPS  C314 1182   2.392   2.189   8.218 -0.1147  0.1141  0.8371
    9SAPS  H14X 1183   2.288   2.151   8.205 -1.0124  1.8243  2.7250
    9SAPS  H14Y 1184   2.374   2.295   8.246  3.1489  0.4043  2.1169
    9SAPS  C315 1185   2.469   2.106   8.311 -0.4896 -0.3457 -0.0643
    9SAPS  H15X 1186   2.574   2.141   8.319 -0.7817  0.5710 -0.2404
    9SAPS  H15Y 1187   2.475   2.002   8.272 -1.9079 -0.8451  0.9965
    9SAPS  C316 1188   2.406   2.091   8.457 -0.2404 -0.7627  0.2830
    9SAPS  H16X 1189   2.481   2.040   8.521  1.3805  2.1514  0.7860
    9SAPS  H16Y 1190   2.313   2.031   8.451 -1.0349  0.5225 -0.3814
    9SAPS  C317 1191   2.378   2.220   8.540  0.4832  0.1284  0.7059
    9SAPS  H17X 1192   2.294   2.271   8.488  2.8262  0.0321 -3.3876
    9SAPS  H17Y 1193   2.464   2.290   8.533 -1.5500  2.8077  1.7601
    9SAPS  C318 1194   2.332   2.196   8.689 -0.6679 -0.5167  0.3109
    9SAPS  H18X 1195   2.233   2.146   8.693 -1.5024  1.2237  2.2869
    9SAPS  H18Y 1196   2.322   2.296   8.736 -0.2656 -0.1628 -0.3617
    9SAPS  H18Z 1197   2.404   2.138   8.751 -0.3407  0.7158  1.1040
   10SAPS     N 1198   2.198   1.299   6.029 -0.2885 -0.3114 -0.4709
   10SAPS   HN1 1199   2.269   1.348   6.088  1.0423 -0.1134 -2.2142
   10SAPS   HN2 1200   2.203   1.353   5.941 -1.1414  0.1819 -0.2262
   10SAPS   HN3 1201   2.106   1.306   6.077  0.1503  1.7154  0.1223
   10SAPS   C12 1202   2.243   1.157   6.022 -0.1101 -0.5715  0.4823
   10SAPS  H12A 1203   2.196   1.117   5.933 -2.5344 -2.6645  2.6373
   10SAPS   C13 1204   2.395   1.124   6.000 -0.7756 -0.3267  0.2461
   10SAPS  O13A 1205   2.466   1.214   5.957  0.4126 -0.2465  0.1790
   10SAPS  O13B 1206   2.426   1.004   5.971 -0.0855  0.0722 -0.5467
   10SAPS   C11 1207   2.183   1.083   6.146  0.1728 -0.5494 -0.2899
   10SAPS  H11A 1208   2.216   1.143   6.234  1.3415 -1.6779  0.0663
   10SAPS  H11B 1209   2.227   0.981   6.154  0.5104 -0.4076 -0.3050
   10SAPS     P 1210   1.950   1.146   6.243  0.1007  0.1020  0.2934
   10SAPS   O13 1211   1.969   1.295   6.224 -0.2686  0.0756 -0.4956
   10SAPS   O14 1212   1.813   1.091   6.231  0.4932 -0.2723 -0.0065
   10SAPS   O12 1213   2.043   1.071   6.142 -0.3447 -0.0869  0.0011
   10SAPS   O11 1214   2.018   1.108   6.375 -0.0812 -0.2464 -0.0253
   10SAPS    C1 1215   2.002   0.983   6.438 -0.2362 -0.8351  0.2518
   10SAPS    HA 1216   1.909   0.973   6.498  1.2493  1.2329  2.9834
   10SAPS    HB 1217   2.008   0.901   6.363  2.5794 -1.5870  1.2372
   10SAPS    C2 1218   2.123   0.970   6.538  0.0585  0.0733 -0.0177
   10SAPS    HS 1219   2.221   0.972   6.487 -0.2983 -1.5055 -0.7967
   10SAPS   O21 1220   2.097   0.849   6.619  0.0624  0.5911  0.2151
   10SAPS   C21 1221   2.207   0.779   6.641 -0.3003 -0.4891 -0.2208
   10SAPS   O22 1222   2.321   0.804   6.604  0.1128  0.1693  0.3313
   10SAPS   C22 1223   2.168   0.655   6.721 -0.0515  0.7016 -0.4507
   10SAPS   H2R 1224   2.127   0.687   6.819  0.0419 -0.1429 -0.1349
   10SAPS   H2S 1225   2.086   0.592   6.681 -0.6882  0.6443  0.9009
   10SAPS    C3 1226   2.115   1.089   6.631 -0.0523  0.3136  0.6050
   10SAPS    HX 1227   2.023   1.071   6.690 -0.4726  2.5001  0.6438
   10SAPS    HY 1228   2.098   1.183   6.575  2.4639  1.8276  2.2458
   10SAPS   O31 1229   2.232   1.103   6.712 -0.7068 -0.1472 -0.4561
   10SAPS   C31 1230   2.224   1.194   6.816 -0.6267  0.3939  0.2419
   10SAPS   O32 1231   2.128   1.262   6.836  0.2533  0.4885 -0.0593
   10SAPS   C32 1232   2.357   1.189   6.893  0.7824  0.8874  0.3955
   10SAPS   H2X 1233   2.434   1.189   6.812  1.4482  0.4375  1.0187
   10SAPS   H2Y 1234   2.354   1.089   6.941  1.1640  0.6477 -0.0701
   10SAPS   C23 1235   2.271   0.544   6.745  0.6986  0.0219  0.3173
   10SAPS   H3R 1236   2.332   0.534   6.653  1.9013 -1.4178  1.2275
   10SAPS   H3S 1237   2.223   0.444   6.739  0.1107  0.3351 -0.1972
   10SAPS   C24 1238   2.351   0.552   6.878 -0.1599  0.4577  0.2213
   10SAPS   H4R 1239   2.408   0.456   6.888 -0.5074  0.2127 -0.1579
   10SAPS   H4S 1240   2.268   0.535   6.950  0.0945  2.4121  1.0076
   10SAPS   C25 1241   2.438   0.672   6.903 -0.2854  0.2415 -0.2415
   10SAPS   H5R 1242   2.517   0.697   6.831 -1.2109 -0.4537 -1.5248
   10SAPS   C26 1243   2.416   0.764   7.003  0.2105  0.0650 -0.0813
   10SAPS   H6R 1244   2.479   0.852   7.020 -0.7325  0.7538 -0.0848
   10SAPS   C27 1245   2.317   0.761   7.116  0.2975  0.5286 -0.3786
   10SAPS   H7R 1246   2.340   0.674   7.180  1.9843  1.5960  0.4869
   10SAPS   H7S 1247   2.213   0.747   7.077  0.0778  0.3199  0.2870
   10SAPS   C28 1248   2.318   0.892   7.190 -0.0311  0.7274  1.3197
   10SAPS   H8R 1249   2.260   0.971   7.140  1.3167  0.2076 -1.1262
   10SAPS   C29 1250   2.381   0.921   7.304 -0.9124  0.2811 -0.6953
   10SAPS   H9R 1251   2.370   1.026   7.336 -1.5837  0.6590 -2.1394
   10SAPS  C210 1252   2.478   0.834   7.377  0.0965 -0.0159 -0.5353
   10SAPS  H10R 1253   2.545   0.789   7.301  1.4811  0.6456  0.2748
   10SAPS  H10S 1254   2.419   0.750   7.419 -1.2990  0.2349 -1.9492
   10SAPS  C211 1255   2.560   0.906   7.487  0.2515  0.0978 -0.9782
   10SAPS  H11R 1256   2.653   0.951   7.449  0.1339  0.4713 -0.8244
   10SAPS  C212 1257   2.533   0.909   7.620  0.8060 -0.4716 -1.0394
   10SAPS  H12R 1258   2.589   0.977   7.687 -1.5815 -0.1063  0.6310
   10SAPS  C213 1259   2.413   0.852   7.689 -0.2367 -0.3674 -0.3634
   10SAPS  H13R 1260   2.438   0.755   7.738  0.1984 -0.6925 -1.2212
   10SAPS  H13S 1261   2.347   0.825   7.604  0.3099  0.4946 -1.0658
   10SAPS  C214 1262   2.353   0.962   7.774  0.4584  0.8544 -0.1187
   10SAPS  H14R 1263   2.333   1.055   7.717  0.3735  0.4628 -0.7342
   10SAPS  C215 1264   2.329   0.946   7.907  0.9511  0.0141 -0.2478
   10SAPS  H15R 1265   2.295   1.037   7.959 -0.4018  0.6959 -2.2959
   10SAPS  C216 1266   2.336   0.823   7.996  0.0006 -0.0905 -0.1258
   10SAPS  H16R 1267   2.347   0.741   7.921 -1.7141  1.4140 -2.0819
   10SAPS  H16S 1268   2.249   0.804   8.063  0.7738 -0.5227  0.7601
   10SAPS  C217 1269   2.452   0.822   8.104  0.0337  0.4771  0.1080
   10SAPS  H17R 1270   2.443   0.918   8.159 -0.3986 -0.4715  1.7259
   10SAPS  H17S 1271   2.548   0.814   8.050 -0.8370  0.4181 -1.4524
   10SAPS  C218 1272   2.435   0.703   8.202 -0.1837  0.6009 -0.0374
   10SAPS  H18R 1273   2.422   0.606   8.149 -0.2981 -0.4733  1.9019
   10SAPS  H18S 1274   2.339   0.708   8.258 -0.3724  1.0087 -0.4009
   10SAPS  C219 1275   2.551   0.694   8.300  0.3587 -0.2682  0.1377
   10SAPS  H19R 1276   2.579   0.791   8.346 -0.4445  0.3506 -0.6697
   10SAPS  H19S 1277   2.641   0.652   8.249  0.9014 -0.6638  1.3940
   10SAPS  C220 1278   2.513   0.604   8.416 -0.5764 -0.4985 -0.7630
   10SAPS  H20R 1279   2.431   0.652   8.473  0.9676  1.1307  0.1759
   10SAPS  H20S 1280   2.601   0.597   8.484 -1.3346  1.7758  0.5121
   10SAPS  H20T 1281   2.472   0.504   8.389 -0.1634 -1.7551  3.0539
   10SAPS   C33 1282   2.370   1.307   6.992  0.3648 -0.0271  0.8850
   10SAPS   H3X 1283   2.351   1.409   6.954  2.5742  0.6633  1.5248
   10SAPS   H3Y 1284   2.479   1.318   7.012  0.2959  3.1333 -0.2477
   10SAPS   C34 1285   2.307   1.282   7.133 -0.3629  0.1489  0.3629
   10SAPS   H4X 1286   2.363   1.193   7.169 -0.9962 -1.9507 -3.6373
   10SAPS   H4Y 1287   2.200   1.253   7.133 -0.8187  1.7568  1.4877
   10SAPS   C35 1288   2.335   1.397   7.226  0.3721  0.4189 -0.3273
   10SAPS   H5X 1289   2.250   1.469   7.223 -0.2818 -0.1037  3.0159
   10SAPS   H5Y 1290   2.428   1.451   7.199  1.6569 -1.3964  0.3765
   10SAPS   C36 1291   2.356   1.349   7.372  0.0406  0.8157  0.6761
   10SAPS   H6X 1292   2.452   1.294   7.382 -0.1202  0.1289 -1.3289
   10SAPS   H6Y 1293   2.272   1.278   7.388  1.0621 -0.6657 -0.4167
   10SAPS   C37 1294   2.321   1.458   7.462  0.4160 -0.8518 -0.2727
   10SAPS   H7X 1295   2.218   1.497   7.445  0.6525  0.8640  1.9559
   10SAPS   H7Y 1296   2.382   1.547   7.438 -0.7078  0.2970  1.0206
   10SAPS   C38 1297   2.325   1.424   7.615  0.1335  0.4406 -0.5408
   10SAPS   H8X 1298   2.262   1.333   7.627  0.5190 -0.0330 -2.0585
   10SAPS   H8Y 1299   2.275   1.505   7.672 -1.5697 -1.2059  0.3688
   10SAPS   C39 1300   2.470   1.383   7.668  1.0910  0.3173 -0.5390
   10SAPS   H9X 1301   2.530   1.476   7.659  0.5883  0.6436 -0.5870
   10SAPS   H9Y 1302   2.505   1.302   7.601  0.4776 -1.0837  0.7975
   10SAPS  C310 1303   2.470   1.322   7.810  0.3226 -0.4961 -0.7321
   10SAPS  H10X 1304   2.397   1.239   7.821 -0.4407  0.2504 -0.0051
   10SAPS  H10Y 1305   2.427   1.401   7.876  0.2986  0.4424 -1.8461
   10SAPS  C311 1306   2.609   1.283   7.857 -0.1855  0.1838  0.2208
   10SAPS  H11X 1307   2.688   1.360   7.844 -0.3067  0.3135  0.2411
   10SAPS  H11Y 1308   2.640   1.194   7.798 -0.9823 -0.6646  1.0745
   10SAPS  C312 1309   2.614   1.225   8.002 -0.0317  0.1913  0.1255
   10SAPS  H12X 1310   2.592   1.117   7.993 -0.8756  0.3121  0.7105
   10SAPS  H12Y 1311   2.545   1.294   8.055 -0.4495  0.3380 -0.6006
   10SAPS  C313 1312   2.747   1.233   8.077 -0.6367  0.3243  0.4725
   10SAPS  H13X 1313   2.795   1.332   8.061  0.3269  0.0379  1.5924
   10SAPS  H13Y 1314   2.816   1.157   8.036  0.7980  3.0224 -2.3193
   10SAPS  C314 1315   2.726   1.201   8.223 -0.4483 -0.0679 -0.4211
   10SAPS  H14X 1316   2.725   1.297   8.278 -0.0203 -1.5064  2.2118
   10SAPS  H14Y 1317   2.815   1.144   8.258 -1.3122 -2.2069 -1.5868
   10SAPS  C315 1318   2.603   1.125   8.265  1.3612  0.4892 -0.4725
   10SAPS  H15X 1319   2.608   1.029   8.210 -0.3686  0.0982  0.0173
   10SAPS  H15Y 1320   2.511   1.186   8.252  1.2176 -0.1129 -2.3187
   10SAPS  C316 1321   2.606   1.095   8.409  0.4110 -0.4540 -0.1105
   10SAPS  H16X 1322   2.616   1.184   8.474 -1.3857  0.8271 -1.5284
   10SAPS  H16Y 1323   2.699   1.036   8.422  1.7143  1.4664 -0.5240
   10SAPS  C317 1324   2.488   1.012   8.463  0.2384  0.0857  0.3392
   10SAPS  H17X 1325   2.542   0.944   8.533 -0.3407 -1.8084 -1.0205
   10SAPS  H17Y 1326   2.446   0.947   8.384 -2.1976  0.2618  1.4431
   10SAPS  C318 1327   2.372   1.083   8.540 -0.8366 -0.3539 -0.6571
   10SAPS  H18X 1328   2.273   1.034   8.527 -2.1970  1.7159  1.5506
   10SAPS  H18Y 1329   2.360   1.179   8.485  0.3266  0.3098  0.2405
   10SAPS  H18Z 1330   2.387   1.095   8.649  2.5153 -2.7548 -0.7635
   11SAPS     N 1331   4.212   4.300   6.028  0.1221 -0.4487  0.4294
   11SAPS   HN1 1332   4.245   4.397   6.014 -0.8631 -0.1241  0.3259
   11SAPS   HN2 1333   4.180   4.278   5.932  0.0288 -1.4620  0.6823
   11SAPS   HN3 1334   4.133   4.287   6.095  0.3047 -2.7354  0.2542
   11SAPS   C12 1335   4.334   4.221   6.061 -0.0347 -0.0304  0.1879
   11SAPS  H12A 1336   4.360   4.242   6.164 -0.9714 -2.4751  0.9512
   11SAPS   C13 1337   4.307   4.072   6.052 -0.6287 -0.2925 -0.7005
   11SAPS  O13A 1338   4.215   4.018   5.990 -0.8355 -0.2971 -0.0933
   11SAPS  O13B 1339   4.406   3.992   6.087  0.2998 -0.5157  0.0711
   11SAPS   C11 1340   4.455   4.267   5.971 -0.0304  0.1889 -0.2630
   11SAPS  H11A 1341   4.420   4.256   5.867 -1.8758 -0.1895  0.3820
   11SAPS  H11B 1342   4.532   4.189   5.994 -0.0398  0.1498 -0.3677
   11SAPS     P 1343   4.652   4.448   6.017  0.1999 -0.5115  0.5849
   11SAPS   O13 1344   4.735   4.322   6.039  0.2199 -0.2723  0.3781
   11SAPS   O14 1345   4.673   4.538   5.897  0.4986  0.5738  0.0175
   11SAPS   O12 1346   4.497   4.402   6.001  0.1072 -0.1190  0.1135
   11SAPS   O11 1347   4.651   4.531   6.148 -0.3224  0.2531 -0.0607
   11SAPS    C1 1348   4.548   4.628   6.171 -0.0606 -0.4038  0.3133
   11SAPS    HA 1349   4.590   4.720   6.217  1.9092 -0.0935 -2.0000
   11SAPS    HB 1350   4.492   4.659   6.081 -2.4277  1.4488  2.3771
   11SAPS    C2 1351   4.444   4.561   6.269 -0.8813 -0.2106 -0.1642
   11SAPS    HS 1352   4.430   4.461   6.222  0.3452  0.2353 -1.4823
   11SAPS   O21 1353   4.334   4.651   6.274  0.7317  0.6963 -0.0497
   11SAPS   C21 1354   4.225   4.588   6.275  0.5319 -0.6442  0.3450
   11SAPS   O22 1355   4.206   4.469   6.289  0.6373 -0.0448 -0.2453
   11SAPS   C22 1356   4.112   4.689   6.260  0.5271 -0.1795  0.3967
   11SAPS   H2R 1357   4.157   4.789   6.243  1.1402 -0.4666  0.3192
   11SAPS   H2S 1358   4.057   4.646   6.174 -2.7153 -1.4987  3.0074
   11SAPS    C3 1359   4.504   4.541   6.409 -0.2085 -0.1114 -0.4394
   11SAPS    HX 1360   4.534   4.643   6.442  0.8254 -0.1225 -1.2937
   11SAPS    HY 1361   4.597   4.480   6.405 -1.0993 -1.5827  0.8067
   11SAPS   O31 1362   4.413   4.487   6.515 -0.0192 -0.0602  0.1492
   11SAPS   C31 1363   4.401   4.355   6.516 -0.3934  0.4745  1.0684
   11SAPS   O32 1364   4.452   4.276   6.436  0.4810 -0.4535  0.4380
   11SAPS   C32 1365   4.310   4.310   6.635  0.4625  0.1040 -0.3141
   11SAPS   H2X 1366   4.317   4.199   6.642 -0.2291  0.1144  0.7224
   11SAPS   H2Y 1367   4.204   4.338   6.622  0.7286  1.3236  0.0683
   11SAPS   C23 1368   4.023   4.699   6.379 -0.1978 -0.2816 -0.4641
   11SAPS   H3R 1369   3.988   4.596   6.402  0.3352 -0.3748 -0.0571
   11SAPS   H3S 1370   3.934   4.754   6.341 -0.3426  0.3718  0.7817
   11SAPS   C24 1371   4.084   4.777   6.495  0.0432 -0.0652 -0.4076
   11SAPS   H4R 1372   4.121   4.867   6.442  0.4697  0.6585  1.0805
   11SAPS   H4S 1373   4.184   4.737   6.522 -1.1629 -0.7405  3.4148
   11SAPS   C25 1374   3.989   4.793   6.612 -0.1534 -0.1163  0.5285
   11SAPS   H5R 1375   3.900   4.856   6.595  0.1604  0.3382  0.5742
   11SAPS   C26 1376   4.000   4.739   6.736 -0.4241  0.3100 -0.3758
   11SAPS   H6R 1377   3.920   4.765   6.807 -1.4636  0.2221 -1.4961
   11SAPS   C27 1378   4.102   4.641   6.791  0.4379  0.2095  1.1748
   11SAPS   H7R 1379   4.180   4.699   6.845  1.4097  1.8552 -1.8675
   11SAPS   H7S 1380   4.152   4.580   6.712  2.1374  0.9686  1.6299
   11SAPS   C28 1381   4.036   4.549   6.887  0.5796  0.4059  0.0708
   11SAPS   H8R 1382   3.943   4.506   6.848 -0.1039  1.9968 -0.1237
   11SAPS   C29 1383   4.080   4.509   7.011  0.4448  0.0982  0.2155
   11SAPS   H9R 1384   4.012   4.439   7.062 -0.2288  0.4463 -0.1943
   11SAPS  C210 1385   4.202   4.559   7.086  0.8300 -0.6023  0.2706
   11SAPS  H10R 1386   4.285   4.593   7.022 -0.1978 -2.9661 -2.3981
   11SAPS  H10S 1387   4.238   4.471   7.144  0.4574 -0.3788  0.8567
   11SAPS  C211 1388   4.176   4.675   7.180  0.4045  0.0970  0.4380
   11SAPS  H11R 1389   4.129   4.767   7.141 -1.5729 -0.6068  1.1038
   11SAPS  C212 1390   4.209   4.686   7.308 -0.2188 -0.1263  0.3658
   11SAPS  H12R 1391   4.185   4.781   7.358  1.4643  0.5029 -0.0078
   11SAPS  C213 1392   4.286   4.584   7.388  0.0003 -0.0134  0.0530
   11SAPS  H13R 1393   4.304   4.491   7.330  0.9748 -0.0420  0.3899
   11SAPS  H13S 1394   4.224   4.544   7.471  0.1716 -2.8699 -1.1395
   11SAPS  C214 1395   4.418   4.621   7.451  0.4196 -1.0650  1.0029
   11SAPS  H14R 1396   4.491   4.666   7.383 -0.4404 -1.5697 -0.2623
   11SAPS  C215 1397   4.462   4.601   7.579  0.1860 -0.5152  0.1059
   11SAPS  H15R 1398   4.557   4.648   7.607  0.6285 -0.3250 -1.6730
   11SAPS  C216 1399   4.390   4.529   7.690  0.3454  0.2607  0.8387
   11SAPS  H16R 1400   4.445   4.447   7.740 -0.4827 -0.8868 -0.1116
   11SAPS  H16S 1401   4.304   4.479   7.641  0.5914  0.5273  0.1308
   11SAPS  C217 1402   4.344   4.627   7.788 -0.0779 -0.0536  1.0615
   11SAPS  H17R 1403   4.305   4.720   7.742  2.3990  0.7109  0.4264
   11SAPS  H17S 1404   4.433   4.659   7.847  0.9128 -1.4696  0.3574
   11SAPS  C218 1405   4.244   4.575   7.890  0.0259 -0.0614  0.7876
   11SAPS  H18R 1406   4.172   4.509   7.836 -0.6614  2.1478 -1.1063
   11SAPS  H18S 1407   4.182   4.658   7.931  1.4080 -0.0229  2.8611
   11SAPS  C219 1408   4.308   4.490   8.001  0.6400  0.0026 -0.1994
   11SAPS  H19R 1409   4.376   4.558   8.056  2.5180 -0.6758 -1.6410
   11SAPS  H19S 1410   4.374   4.418   7.949  1.7824  0.0286  1.1957
   11SAPS  C220 1411   4.202   4.414   8.076 -0.2265  0.3333 -0.0189
   11SAPS  H20R 1412   4.246   4.324   8.124  0.7818  0.4718 -0.6639
   11SAPS  H20S 1413   4.121   4.385   8.004  0.3566  0.6080 -0.7983
   11SAPS  H20T 1414   4.154   4.480   8.151 -0.1972 -1.1041  1.2688
   11SAPS   C33 1415   4.361   4.363   6.770 -0.1188  0.6734 -1.0802
   11SAPS   H3X 1416   4.271   4.374   6.834  0.0091 -1.0311 -0.5694
   11SAPS   H3Y 1417   4.405   4.464   6.761  2.6588 -0.2611  1.3144
   11SAPS   C34 1418   4.455   4.265   6.848  0.4046  0.3738 -0.3669
   11SAPS   H4X 1419   4.546   4.236   6.791  0.5389 -1.5131  0.7533
   11SAPS   H4Y 1420   4.402   4.178   6.893  0.3825  0.3479 -0.4433
   11SAPS   C35 1421   4.508   4.343   6.973 -0.3838 -0.9503 -0.2149
   11SAPS   H5X 1422   4.427   4.404   7.017 -0.4762 -1.0852 -0.2000
   11SAPS   H5Y 1423   4.582   4.418   6.938 -1.2020 -0.6688 -1.3696
   11SAPS   C36 1424   4.565   4.254   7.083 -0.2733 -0.1834 -0.1907
   11SAPS   H6X 1425   4.661   4.214   7.043  0.3810 -0.2112  1.3530
   11SAPS   H6Y 1426   4.496   4.169   7.104 -1.0613  0.5473  0.2099
   11SAPS   C37 1427   4.587   4.331   7.216  0.2739 -0.0909 -0.0282
   11SAPS   H7X 1428   4.483   4.339   7.255 -0.4717  2.3990 -2.3391
   11SAPS   H7Y 1429   4.640   4.429   7.211  0.2093  0.0172  1.2103
   11SAPS   C38 1430   4.664   4.243   7.318  0.0255 -0.2710  0.0940
   11SAPS   H8X 1431   4.764   4.224   7.273  0.2294  0.2645  0.3161
   11SAPS   H8Y 1432   4.609   4.147   7.308 -2.6979  1.1890  0.6326
   11SAPS   C39 1433   4.660   4.290   7.463 -0.3070  0.5481  0.6068
   11SAPS   H9X 1434   4.556   4.324   7.483  0.5074  4.0228 -0.6010
   11SAPS   H9Y 1435   4.734   4.373   7.462 -1.2137  1.3836  2.0479
   11SAPS  C310 1436   4.691   4.176   7.562  0.4700  0.8926  0.0712
   11SAPS  H10X 1437   4.786   4.129   7.526  1.5514  0.5849  3.1269
   11SAPS  H10Y 1438   4.610   4.101   7.553  0.7716  0.5205  0.4277
   11SAPS  C311 1439   4.697   4.205   7.714 -0.5738 -0.5374  0.3882
   11SAPS  H11X 1440   4.593   4.244   7.726 -0.3860  1.1409 -2.7108
   11SAPS  H11Y 1441   4.769   4.283   7.746  0.4787 -0.2029 -2.6579
   11SAPS  C312 1442   4.732   4.081   7.787 -0.0558  0.3913 -0.2790
   11SAPS  H12X 1443   4.841   4.078   7.808 -0.0190  0.2586 -0.4907
   11SAPS  H12Y 1444   4.712   4.002   7.711  0.1591  0.7239 -0.6879
   11SAPS  C313 1445   4.657   4.075   7.922 -0.1727  0.6279  0.1318
   11SAPS  H13X 1446   4.546   4.070   7.911 -0.1961 -0.1484  0.7382
   11SAPS  H13Y 1447   4.690   4.165   7.979 -0.9610  1.4629 -0.6940
   11SAPS  C314 1448   4.705   3.945   7.992  0.3989 -0.6839 -0.0743
   11SAPS  H14X 1449   4.815   3.947   8.004  0.5106 -1.2805 -1.0041
   11SAPS  H14Y 1450   4.676   3.857   7.932  1.9412 -0.1345 -1.6679
   11SAPS  C315 1451   4.642   3.915   8.130  0.0719  0.7352 -0.4924
   11SAPS  H15X 1452   4.533   3.922   8.107 -0.0407  0.0204 -0.2130
   11SAPS  H15Y 1453   4.660   3.992   8.208 -0.5732  2.0386 -1.6089
   11SAPS  C316 1454   4.662   3.774   8.186 -0.9421 -0.4520  0.6353
   11SAPS  H16X 1455   4.765   3.776   8.227 -0.1707 -4.4062 -0.9005
   11SAPS  H16Y 1456   4.650   3.701   8.104  0.9855 -0.5688  0.4406
   11SAPS  C317 1457   4.581   3.736   8.316 -0.4658 -0.1797 -0.0045
   11SAPS  H17X 1458   4.598   3.627   8.332 -3.1456 -0.5189  0.7447
   11SAPS  H17Y 1459   4.473   3.760   8.305 -0.0998  2.4722  1.7838
   11SAPS  C318 1460   4.637   3.805   8.444  0.9767  0.0602  0.1341
   11SAPS  H18X 1461   4.628   3.912   8.416  0.0079  0.0159  0.2677
   11SAPS  H18Y 1462   4.745   3.780   8.449  1.0234  0.1066 -0.5043
   11SAPS  H18Z 1463   4.576   3.793   8.535 -0.2893  1.2391 -0.5498
   12SAPS     N 1464   3.513   6.181   6.302  0.4072  0.4648 -0.2144
   12SAPS   HN1 1465   3.460   6.234   6.373 -1.5112  2.0445 -2.7641
   12SAPS   HN2 1466   3.615   6.200   6.304  0.6768 -0.9076 -0.3849
   12SAPS   HN3 1467   3.484   6.197   6.204 -3.5043  0.3345  0.8299
   12SAPS   C12 1468   3.480   6.035   6.334 -0.1249  0.1081  0.3413
   12SAPS  H12A 1469   3.401   6.038   6.407 -0.8303  1.4055 -0.4632
   12SAPS   C13 1470   3.425   5.953   6.215 -0.1161 -0.2363  0.4207
   12SAPS  O13A 1471   3.407   6.023   6.104 -0.2607  0.5892 -0.3140
   12SAPS  O13B 1472   3.395   5.829   6.214 -0.4253 -0.2082 -0.7737
   12SAPS   C11 1473   3.612   5.964   6.383 -0.6782  0.1477  0.1361
   12SAPS  H11A 1474   3.591   5.856   6.403  0.6941  0.0563  1.1021
   12SAPS  H11B 1475   3.641   6.014   6.478  0.8532 -0.1938 -0.1455
   12SAPS     P 1476   3.826   5.877   6.270  0.5253  0.5814  0.1141
   12SAPS   O13 1477   3.754   5.759   6.225  0.3202  0.3961 -0.5994
   12SAPS   O14 1478   3.928   5.935   6.171  0.5684 -0.1399 -0.6605
   12SAPS   O12 1479   3.721   5.992   6.292 -0.3552  0.0739  0.2151
   12SAPS   O11 1480   3.893   5.864   6.417  0.3308  0.5052  0.3887
   12SAPS    C1 1481   3.983   5.956   6.477  0.3922  0.0517  0.2614
   12SAPS    HA 1482   4.086   5.942   6.438 -0.2040 -0.0625 -1.3023
   12SAPS    HB 1483   3.946   6.061   6.475  2.2218  0.7159  0.5114
   12SAPS    C2 1484   3.993   5.919   6.625  0.1041  0.2426 -0.1495
   12SAPS    HS 1485   4.055   5.994   6.679 -0.0963  0.0817  0.3078
   12SAPS   O21 1486   4.047   5.786   6.648  0.6713 -0.1611  0.5026
   12SAPS   C21 1487   4.176   5.782   6.635  0.1667 -0.1010 -1.0035
   12SAPS   O22 1488   4.245   5.882   6.622 -0.2173  0.7429  0.3999
   12SAPS   C22 1489   4.230   5.645   6.644 -0.0259 -0.1665 -0.2654
   12SAPS   H2R 1490   4.152   5.578   6.684 -1.1219  0.5115 -1.2364
   12SAPS   H2S 1491   4.246   5.621   6.537  1.3139  0.5992 -0.2480
   12SAPS    C3 1492   3.852   5.937   6.684  0.5728  0.6402 -0.2038
   12SAPS    HX 1493   3.788   5.858   6.638 -0.1576  0.0365  1.7822
   12SAPS    HY 1494   3.799   6.031   6.659  3.7151  2.5542  0.0723
   12SAPS   O31 1495   3.852   5.913   6.826  0.1860  0.0591  0.2179
   12SAPS   C31 1496   3.908   5.999   6.903  0.0893 -0.0339 -0.4903
   12SAPS   O32 1497   3.966   6.099   6.875 -0.1058  0.0782  0.1463
   12SAPS   C32 1498   3.890   5.949   7.050  0.4369  0.6967 -0.4071
   12SAPS   H2X 1499   3.886   5.838   7.047  1.4377  0.6493 -0.0191
   12SAPS   H2Y 1500   3.793   5.997   7.076  0.3997  0.6220 -0.4051
   12SAPS   C23 1501   4.372   5.642   6.719  0.3973  0.7939 -0.0752
   12SAPS   H3R 1502   4.436   5.724   6.679  0.4150  0.4115 -0.8357
   12SAPS   H3S 1503   4.421   5.545   6.697  0.6049  0.9540 -0.3222
   12SAPS   C24 1504   4.360   5.658   6.873 -0.1938  0.8376  0.6468
   12SAPS   H4R 1505   4.350   5.765   6.902  1.1881  0.8610  1.0973
   12SAPS   H4S 1506   4.461   5.629   6.909 -0.1966 -0.5226 -0.4126
   12SAPS   C25 1507   4.247   5.583   6.944  0.0428 -0.8296  0.9216
   12SAPS   H5R 1508   4.173   5.541   6.875 -0.1054  0.7583  0.0890
   12SAPS   C26 1509   4.237   5.569   7.074  0.1055 -0.2697  0.7833
   12SAPS   H6R 1510   4.170   5.500   7.127  1.3797 -3.2202 -1.2934
   12SAPS   C27 1511   4.326   5.636   7.174 -0.2648  0.2553 -0.1962
   12SAPS   H7R 1512   4.267   5.708   7.235 -1.6556 -1.5358  0.6285
   12SAPS   H7S 1513   4.395   5.703   7.118 -1.8882  1.4668 -0.8008
   12SAPS   C28 1514   4.414   5.540   7.248 -0.3911 -0.7790 -0.5164
   12SAPS   H8R 1515   4.488   5.481   7.192  0.3840  0.7631 -1.1500
   12SAPS   C29 1516   4.412   5.524   7.376  0.3982 -0.7444 -0.0548
   12SAPS   H9R 1517   4.474   5.448   7.425  0.0745 -2.5677 -2.4162
   12SAPS  C210 1518   4.329   5.581   7.486  0.2971 -0.2558  0.0831
   12SAPS  H10R 1519   4.261   5.652   7.434 -0.0033  1.8090  3.1994
   12SAPS  H10S 1520   4.401   5.646   7.541 -0.1261 -0.3237  0.7170
   12SAPS  C211 1521   4.239   5.488   7.567 -0.4438  0.1081 -0.1145
   12SAPS  H11R 1522   4.279   5.458   7.665 -0.2427  0.0924 -0.2014
   12SAPS  C212 1523   4.116   5.442   7.539 -0.4541 -0.3202  0.1836
   12SAPS  H12R 1524   4.060   5.381   7.612 -1.5468 -1.1707 -1.3143
   12SAPS  C213 1525   4.036   5.471   7.410  0.0950 -0.0804  0.6715
   12SAPS  H13R 1526   4.109   5.479   7.327  1.8973 -0.7199  2.1684
   12SAPS  H13S 1527   3.997   5.575   7.405  1.5805  0.4962  0.8052
   12SAPS  C214 1528   3.920   5.380   7.380  0.5794  0.1377 -0.1667
   12SAPS  H14R 1529   3.934   5.278   7.420 -2.3526 -0.2413  0.0406
   12SAPS  C215 1530   3.814   5.396   7.299 -0.5062  0.3469 -0.3153
   12SAPS  H15R 1531   3.734   5.320   7.299 -1.1763  1.0372  0.2976
   12SAPS  C216 1532   3.790   5.526   7.220 -0.2624  0.8381 -0.1905
   12SAPS  H16R 1533   3.854   5.603   7.268 -0.8480  0.0842  1.8717
   12SAPS  H16S 1534   3.683   5.550   7.234 -0.7051 -0.3101 -1.5087
   12SAPS  C217 1535   3.824   5.529   7.069 -0.7335  0.1229 -0.2611
   12SAPS  H17R 1536   3.933   5.538   7.054 -1.0708  1.2238 -2.3031
   12SAPS  H17S 1537   3.785   5.630   7.042  0.5402  0.9943  1.0886
   12SAPS  C218 1538   3.747   5.429   6.980  0.2228  0.4472 -0.3114
   12SAPS  H18R 1539   3.651   5.401   7.029 -0.2387  2.2460 -0.1819
   12SAPS  H18S 1540   3.806   5.335   6.967  2.7143  1.8852  0.1883
   12SAPS  C219 1541   3.716   5.485   6.844 -0.0419  0.3326  0.3350
   12SAPS  H19R 1542   3.674   5.587   6.859 -1.3170 -0.3446  1.4622
   12SAPS  H19S 1543   3.643   5.417   6.794  1.1947  0.7669 -2.1741
   12SAPS  C220 1544   3.837   5.500   6.751 -0.3949 -0.1204 -0.0615
   12SAPS  H20R 1545   3.807   5.547   6.655 -1.1792 -0.1288  0.1760
   12SAPS  H20S 1546   3.873   5.397   6.727  0.8871  0.2683  0.1489
   12SAPS  H20T 1547   3.922   5.556   6.796  0.5679 -1.1065 -0.6280
   12SAPS   C33 1548   4.005   6.005   7.136  0.5823  0.5801  0.5635
   12SAPS   H3X 1549   4.007   6.116   7.131  0.2789  0.5672  0.0549
   12SAPS   H3Y 1550   4.104   5.963   7.107 -0.1281 -2.4043  2.2405
   12SAPS   C34 1551   4.000   5.951   7.280  0.0746 -0.8348 -0.4052
   12SAPS   H4X 1552   4.100   5.971   7.323  0.1104 -1.9803  0.0696
   12SAPS   H4Y 1553   3.992   5.841   7.262 -0.8570 -1.0609  1.3342
   12SAPS   C35 1554   3.877   6.001   7.359  0.3451  0.0449 -0.0472
   12SAPS   H5X 1555   3.784   5.973   7.305  0.6187 -0.4739 -0.2515
   12SAPS   H5Y 1556   3.884   6.112   7.361  1.0778 -0.0040  0.5082
   12SAPS   C36 1557   3.863   5.932   7.492  0.8578 -0.1893  0.7301
   12SAPS   H6X 1558   3.816   5.833   7.475  1.3626  0.0268 -2.2028
   12SAPS   H6Y 1559   3.785   5.986   7.550 -0.0991  2.2434 -2.6167
   12SAPS   C37 1560   3.989   5.906   7.566 -0.1191 -0.4519  0.1913
   12SAPS   H7X 1561   4.053   5.997   7.574  2.4551 -2.1667 -0.1487
   12SAPS   H7Y 1562   4.054   5.840   7.504  2.1598  1.1654  0.7919
   12SAPS   C38 1563   3.972   5.855   7.706  0.9122  0.2399 -0.3933
   12SAPS   H8X 1564   3.908   5.765   7.715 -1.4372  1.5085 -3.3195
   12SAPS   H8Y 1565   3.922   5.937   7.761  0.3073  0.2681 -0.9789
   12SAPS   C39 1566   4.103   5.818   7.777  0.1433 -0.4236 -0.3003
   12SAPS   H9X 1567   4.147   5.919   7.794  0.5983 -0.3720 -1.7508
   12SAPS   H9Y 1568   4.169   5.755   7.714 -0.5220  0.0067 -1.4387
   12SAPS  C310 1569   4.084   5.771   7.918 -0.2573  0.4354 -0.1094
   12SAPS  H10X 1570   4.171   5.717   7.961 -0.7633  0.1527  0.5727
   12SAPS  H10Y 1571   4.003   5.696   7.907 -0.5564  0.9190 -1.2218
   12SAPS  C311 1572   4.033   5.870   8.022  0.2990 -0.4279 -0.6209
   12SAPS  H11X 1573   3.926   5.880   7.993  0.1233 -0.2252  0.0698
   12SAPS  H11Y 1574   4.088   5.966   8.007 -1.5066  0.4806 -1.5866
   12SAPS  C312 1575   4.045   5.818   8.166  0.2410 -0.2480  0.2688
   12SAPS  H12X 1576   4.004   5.715   8.170  1.6461 -0.8501 -0.7923
   12SAPS  H12Y 1577   3.980   5.876   8.236  1.9530  2.5588 -0.4074
   12SAPS  C313 1578   4.175   5.837   8.230 -0.4496  0.0657 -0.2403
   12SAPS  H13X 1579   4.213   5.941   8.218  1.4980 -0.3392  2.0630
   12SAPS  H13Y 1580   4.254   5.783   8.174 -0.4533  0.5524 -0.7147
   12SAPS  C314 1581   4.182   5.808   8.382  0.2734 -0.0376 -0.3458
   12SAPS  H14X 1582   4.291   5.803   8.401 -0.1058  0.7520  2.1399
   12SAPS  H14Y 1583   4.136   5.710   8.409 -1.5168  1.2018  1.2955
   12SAPS  C315 1584   4.116   5.916   8.467  0.6212 -0.5831 -0.2123
   12SAPS  H15X 1585   4.014   5.929   8.424  1.4555 -2.0167 -2.6986
   12SAPS  H15Y 1586   4.158   6.016   8.446  0.9840 -0.7668 -0.3547
   12SAPS  C316 1587   4.094   5.877   8.614  0.2997 -0.6182 -0.4108
   12SAPS  H16X 1588   4.186   5.829   8.653  1.7708  2.4310 -0.0032
   12SAPS  H16Y 1589   4.017   5.797   8.606 -1.3518  1.0027 -1.1189
   12SAPS  C317 1590   4.035   5.986   8.712  0.0614 -0.2689  0.0947
   12SAPS  H17X 1591   3.941   6.028   8.671  0.8741 -1.8342 -3.5476
   12SAPS  H17Y 1592   4.106   6.072   8.708  1.4564 -1.2916  1.8503
   12SAPS  C318 1593   4.002   5.951   8.860 -0.0909 -0.2018 -0.5252
   12SAPS  H18X 1594   4.083   5.886   8.900  0.5782  1.3930  0.7435
   12SAPS  H18Y 1595   3.905   5.900   8.876 -0.9688  1.9836  1.3163
   12SAPS  H18Z 1596   4.001   6.044   8.919 -1.5934 -0.8453  0.4951
   13SAPS     N 1597   4.637   3.871   6.056 -0.1506  0.2922 -0.0728
   13SAPS   HN1 1598   4.677   3.880   6.152  1.2516 -0.0863 -0.6169
   13SAPS   HN2 1599   4.689   3.938   5.997 -1.5239 -0.6189 -2.4001
   13SAPS   HN3 1600   4.535   3.893   6.054  0.2147  2.0187 -0.2953
   13SAPS   C12 1601   4.646   3.721   6.011 -0.4118  0.4341  0.7518
   13SAPS  H12A 1602   4.549   3.674   6.014  0.1488 -0.7647  0.8025
   13SAPS   C13 1603   4.706   3.704   5.865 -0.9478 -0.3495  0.8421
   13SAPS  O13A 1604   4.687   3.792   5.782  0.6283 -0.1192 -0.2389
   13SAPS  O13B 1605   4.737   3.588   5.830 -0.5223  0.2715 -0.0081
   13SAPS   C11 1606   4.739   3.654   6.116  0.0315  0.7087  0.0649
   13SAPS  H11A 1607   4.834   3.712   6.116  0.8373 -0.5622 -1.7887
   13SAPS  H11B 1608   4.747   3.546   6.091 -0.9374  0.4517  0.8187
   13SAPS     P 1609   4.769   3.616   6.369 -0.0411 -0.2342 -0.0391
   13SAPS   O13 1610   4.901   3.594   6.315 -0.7333  0.3598  0.3507
   13SAPS   O14 1611   4.761   3.713   6.480 -0.3985  0.4661  0.5014
   13SAPS   O12 1612   4.677   3.667   6.248 -0.4437  0.9033  0.4498
   13SAPS   O11 1613   4.696   3.480   6.404 -0.5655  0.2865 -0.1184
   13SAPS    C1 1614   4.612   3.459   6.516  0.2470 -0.4068 -0.4708
   13SAPS    HA 1615   4.619   3.353   6.549  1.6931 -1.3056 -3.5454
   13SAPS    HB 1616   4.637   3.525   6.602  1.6261  1.1642 -2.0527
   13SAPS    C2 1617   4.463   3.485   6.483 -0.2958  0.5917  0.0688
   13SAPS    HS 1618   4.447   3.586   6.439  0.4298  0.8008  0.2718
   13SAPS   O21 1619   4.388   3.465   6.609 -0.2254  0.6364  0.1497
   13SAPS   C21 1620   4.272   3.512   6.602  0.4455 -0.1082 -0.0029
   13SAPS   O22 1621   4.229   3.581   6.511  0.7647 -0.8993 -0.0010
   13SAPS   C22 1622   4.198   3.488   6.735  0.4176 -0.4800 -0.1743
   13SAPS   H2R 1623   4.263   3.426   6.801  1.6266 -0.2668 -1.1398
   13SAPS   H2S 1624   4.202   3.590   6.779 -2.5950 -0.1605 -0.5250
   13SAPS    C3 1625   4.415   3.374   6.381 -0.2339 -1.7359 -0.1032
   13SAPS    HX 1626   4.480   3.371   6.291  1.0005 -0.5309  0.7215
   13SAPS    HY 1627   4.316   3.406   6.342 -1.0250 -2.0424  1.6030
   13SAPS   O31 1628   4.423   3.245   6.441 -0.9331 -0.6512 -0.3000
   13SAPS   C31 1629   4.307   3.194   6.479  0.4379 -0.3600  0.1268
   13SAPS   O32 1630   4.194   3.240   6.468  0.0429 -0.0540 -0.1477
   13SAPS   C32 1631   4.338   3.062   6.551 -0.6848  0.0073  0.1133
   13SAPS   H2X 1632   4.422   3.082   6.621  0.0614  0.0243 -0.7741
   13SAPS   H2Y 1633   4.379   2.995   6.473 -2.7102 -2.8988  1.4589
   13SAPS   C23 1634   4.058   3.435   6.712  0.0941 -0.0849 -0.5364
   13SAPS   H3R 1635   4.074   3.341   6.655  1.0295  0.6381 -1.5028
   13SAPS   H3S 1636   3.988   3.497   6.652  0.0807  0.8396  0.4065
   13SAPS   C24 1637   4.003   3.395   6.851  0.2908  0.2246  0.3995
   13SAPS   H4R 1638   4.076   3.334   6.909  2.3455  0.8293 -1.4983
   13SAPS   H4S 1639   3.911   3.334   6.844 -0.6110  1.7265 -1.0543
   13SAPS   C25 1640   3.972   3.514   6.932  0.9079  0.1515 -0.0978
   13SAPS   H5R 1641   3.944   3.602   6.872  1.2104 -0.2685 -0.8615
   13SAPS   C26 1642   3.981   3.522   7.070  0.0924 -0.1886 -1.0001
   13SAPS   H6R 1643   3.953   3.621   7.109 -0.6192 -0.8524  0.2010
   13SAPS   C27 1644   4.016   3.418   7.168  0.0866  0.7640  0.1367
   13SAPS   H7R 1645   4.127   3.416   7.180  0.1902 -0.3415 -0.8280
   13SAPS   H7S 1646   3.982   3.315   7.143  1.6837  0.0112  0.9702
   13SAPS   C28 1647   3.948   3.439   7.303 -0.7514  0.3639 -0.3532
   13SAPS   H8R 1648   3.913   3.541   7.323  0.2562  0.3765  1.4088
   13SAPS   C29 1649   3.927   3.353   7.405 -0.8895 -0.3313 -0.7450
   13SAPS   H9R 1650   3.879   3.401   7.492  1.3408  0.2356  0.2073
   13SAPS  C210 1651   3.948   3.206   7.427  0.4955 -0.7348 -0.9348
   13SAPS  H10R 1652   3.990   3.166   7.332  1.3367  1.7889 -1.6661
   13SAPS  H10S 1653   3.848   3.159   7.434  0.3464 -0.4151 -0.8961
   13SAPS  C211 1654   4.033   3.176   7.542 -0.0580 -0.0182  0.2000
   13SAPS  H11R 1655   4.114   3.250   7.548 -0.4066  0.2908  1.0581
   13SAPS  C212 1656   4.016   3.080   7.634  0.2640  0.9339 -0.1696
   13SAPS  H12R 1657   4.061   3.093   7.734 -2.4226  1.6431  1.0264
   13SAPS  C213 1658   3.907   2.982   7.645  0.1324  0.0314  0.4794
   13SAPS  H13R 1659   3.939   2.882   7.611  1.4338  1.3044 -2.1498
   13SAPS  H13S 1660   3.828   2.981   7.567  0.5457 -2.7574  0.0469
   13SAPS  C214 1661   3.848   2.969   7.780 -0.4636  0.7273 -1.2748
   13SAPS  H14R 1662   3.876   2.875   7.829  1.6416  1.1276 -1.6806
   13SAPS  C215 1663   3.789   3.067   7.853  0.4001  0.0608 -0.3638
   13SAPS  H15R 1664   3.757   3.062   7.958  0.5290  0.5152 -0.3003
   13SAPS  C216 1665   3.761   3.203   7.803  0.3742  0.1401 -0.4953
   13SAPS  H16R 1666   3.652   3.221   7.809  0.9412  3.0514  2.2105
   13SAPS  H16S 1667   3.772   3.196   7.692  0.1101 -0.1910 -0.5019
   13SAPS  C217 1668   3.849   3.328   7.844  0.2524  0.4283  0.4938
   13SAPS  H17R 1669   3.823   3.408   7.772  0.9872  0.7264  0.5519
   13SAPS  H17S 1670   3.950   3.293   7.812  0.0214  0.6261 -0.4589
   13SAPS  C218 1671   3.853   3.381   7.990  0.5059 -0.8750  0.2506
   13SAPS  H18R 1672   3.856   3.295   8.061  3.0065  0.2286  1.5146
   13SAPS  H18S 1673   3.756   3.434   8.002  0.2192 -1.4038  0.3199
   13SAPS  C219 1674   3.960   3.486   8.013 -0.2182 -0.2312  0.0242
   13SAPS  H19R 1675   3.970   3.542   7.918  0.3673 -1.6330 -0.7469
   13SAPS  H19S 1676   4.061   3.441   8.020 -1.0938 -2.2921 -0.2705
   13SAPS  C220 1677   3.942   3.580   8.130 -0.0861 -1.1111  0.2956
   13SAPS  H20R 1678   3.857   3.647   8.105  0.5957 -0.6106 -0.6919
   13SAPS  H20S 1679   4.040   3.630   8.140 -1.3123  0.9083  2.8298
   13SAPS  H20T 1680   3.921   3.543   8.233 -1.0766  0.0226  0.5093
   13SAPS   C33 1681   4.225   3.006   6.638 -0.0871 -0.0107 -0.5251
   13SAPS   H3X 1682   4.138   2.989   6.571 -1.4590  1.3816  0.8591
   13SAPS   H3Y 1683   4.197   3.086   6.710  0.6889 -2.2468  2.3283
   13SAPS   C34 1684   4.268   2.873   6.692 -0.0432 -0.0046 -0.1420
   13SAPS   H4X 1685   4.375   2.878   6.720 -0.3285  0.4496  0.8855
   13SAPS   H4Y 1686   4.271   2.798   6.610 -1.2344 -1.6332  1.2684
   13SAPS   C35 1687   4.172   2.828   6.799  0.6763 -0.3803  0.0055
   13SAPS   H5X 1688   4.078   2.804   6.746  0.5665  0.1193 -0.0303
   13SAPS   H5Y 1689   4.159   2.907   6.876  0.1765 -1.1182  0.6777
   13SAPS   C36 1690   4.225   2.704   6.873 -0.5187 -0.9414  0.1821
   13SAPS   H6X 1691   4.332   2.724   6.897 -1.2935  3.6679  0.1525
   13SAPS   H6Y 1692   4.213   2.609   6.816 -3.7525 -0.5541  0.1329
   13SAPS   C37 1693   4.162   2.685   7.012 -0.1986 -0.2882  0.1369
   13SAPS   H7X 1694   4.055   2.654   7.005 -0.8719  1.7258  1.0513
   13SAPS   H7Y 1695   4.152   2.785   7.059  0.8196  0.3752 -1.0151
   13SAPS   C38 1696   4.247   2.593   7.098  0.5462  0.5116  0.0244
   13SAPS   H8X 1697   4.340   2.643   7.133  0.1498  1.7475 -0.6641
   13SAPS   H8Y 1698   4.271   2.499   7.044  1.3045  2.1174 -2.4780
   13SAPS   C39 1699   4.167   2.576   7.226  0.3801 -0.0484  0.2293
   13SAPS   H9X 1700   4.075   2.526   7.187 -0.5172  0.9394  1.0518
   13SAPS   H9Y 1701   4.151   2.678   7.266 -0.5713 -0.1442  0.0974
   13SAPS  C310 1702   4.226   2.477   7.334  0.0299  0.7213 -0.2196
   13SAPS  H10X 1703   4.335   2.491   7.344 -0.0449  1.0521  0.1729
   13SAPS  H10Y 1704   4.200   2.378   7.292 -0.7686  1.1076 -0.6502
   13SAPS  C311 1705   4.163   2.494   7.473  0.3317  0.3520 -0.4872
   13SAPS  H11X 1706   4.166   2.392   7.518 -0.8988  0.2953 -0.5158
   13SAPS  H11Y 1707   4.057   2.519   7.450 -0.1280 -2.2028 -1.3000
   13SAPS  C312 1708   4.227   2.594   7.572  0.4038 -0.0196 -0.8221
   13SAPS  H12X 1709   4.228   2.691   7.518 -0.6945  2.1158  2.8619
   13SAPS  H12Y 1710   4.333   2.564   7.588  1.3249  3.4867 -0.0216
   13SAPS  C313 1711   4.145   2.619   7.704  0.5026  0.0338  0.2713
   13SAPS  H13X 1712   4.039   2.637   7.679  0.5986  1.1497  0.6598
   13SAPS  H13Y 1713   4.181   2.708   7.760 -0.0933 -0.7297  1.9068
   13SAPS  C314 1714   4.165   2.505   7.801 -0.1636 -0.4616 -0.1231
   13SAPS  H14X 1715   4.265   2.464   7.777  0.0609 -0.2779  0.4770
   13SAPS  H14Y 1716   4.094   2.421   7.785  1.5031 -1.5523 -2.0216
   13SAPS  C315 1717   4.178   2.542   7.949  0.2431 -0.4071  0.4758
   13SAPS  H15X 1718   4.088   2.597   7.983  0.5134  0.4747 -0.2402
   13SAPS  H15Y 1719   4.252   2.625   7.949 -1.1316  0.8665 -2.3153
   13SAPS  C316 1720   4.216   2.419   8.034  0.0691  0.5253  0.4749
   13SAPS  H16X 1721   4.283   2.366   7.963  2.0964  1.0191  1.9813
   13SAPS  H16Y 1722   4.126   2.358   8.059  0.6242 -1.4944 -2.1723
   13SAPS  C317 1723   4.295   2.454   8.157 -0.2404  0.3921 -0.7307
   13SAPS  H17X 1724   4.298   2.361   8.217 -0.3847  1.3655  0.8095
   13SAPS  H17Y 1725   4.249   2.541   8.208  1.7325 -0.2400  2.2156
   13SAPS  C318 1726   4.436   2.498   8.125  0.0643  0.4563  0.0166
   13SAPS  H18X 1727   4.423   2.589   8.063  1.3483  0.3059 -0.5073
   13SAPS  H18Y 1728   4.493   2.413   8.079 -2.1904 -1.8155  1.3004
   13SAPS  H18Z 1729   4.484   2.533   8.219 -1.9575  1.7349  0.5887
   14SAPS     N 1730   4.656   5.411   5.880 -0.0478  0.4479  0.2026
   14SAPS   HN1 1731   4.635   5.400   5.981  0.4923 -2.5309  0.0273
   14SAPS   HN2 1732   4.680   5.315   5.847 -2.0910  0.1047 -0.3228
   14SAPS   HN3 1733   4.738   5.474   5.870  0.3198 -0.4725 -3.3708
   14SAPS   C12 1734   4.540   5.479   5.818  0.4276 -0.7171  0.2809
   14SAPS  H12A 1735   4.509   5.552   5.892  0.2277 -0.3529 -0.1663
   14SAPS   C13 1736   4.575   5.562   5.696  0.6758 -0.0543 -1.0742
   14SAPS  O13A 1737   4.692   5.558   5.653  0.2722 -0.2561 -0.5772
   14SAPS  O13B 1738   4.518   5.674   5.678 -0.3432  0.3379  0.8099
   14SAPS   C11 1739   4.419   5.382   5.780  0.4982 -0.2475 -0.3106
   14SAPS  H11A 1740   4.455   5.309   5.705  2.3355  0.0580  0.2476
   14SAPS  H11B 1741   4.333   5.437   5.736  0.1047 -0.0053  0.7423
   14SAPS     P 1742   4.246   5.225   5.887  0.0378 -0.3430  0.1239
   14SAPS   O13 1743   4.145   5.287   5.973  0.3853 -0.1529 -0.3107
   14SAPS   O14 1744   4.211   5.197   5.743 -0.5382 -0.3678 -0.8637
   14SAPS   O12 1745   4.382   5.304   5.898 -0.7920  0.3714  0.1619
   14SAPS   O11 1746   4.282   5.081   5.943  0.4952 -0.0886 -0.2650
   14SAPS    C1 1747   4.378   5.057   6.046 -0.0335  0.2054 -0.0387
   14SAPS    HA 1748   4.442   4.970   6.020  0.1646  0.0887  0.8159
   14SAPS    HB 1749   4.444   5.146   6.047 -0.3451  0.4346  0.1329
   14SAPS    C2 1750   4.328   5.039   6.187  0.9706 -0.4518 -0.3402
   14SAPS    HS 1751   4.253   4.957   6.182  1.1289 -0.6592  0.5792
   14SAPS   O21 1752   4.271   5.163   6.233  0.2846 -0.7386 -1.0574
   14SAPS   C21 1753   4.139   5.168   6.232  0.5383  0.7105  1.1376
   14SAPS   O22 1754   4.070   5.096   6.165  0.5204  0.0787 -0.2713
   14SAPS   C22 1755   4.085   5.290   6.318  0.1122  0.5933 -0.1455
   14SAPS   H2R 1756   4.181   5.341   6.344  0.7385 -0.7321  0.1748
   14SAPS   H2S 1757   4.029   5.357   6.249  0.9221  0.3306 -1.0759
   14SAPS    C3 1758   4.439   4.990   6.279  0.2344  0.1457 -0.8119
   14SAPS    HX 1759   4.516   5.070   6.281  1.3598 -0.8875 -2.0579
   14SAPS    HY 1760   4.476   4.895   6.235  0.7125 -0.3585  0.6536
   14SAPS   O31 1761   4.379   4.968   6.408  0.3969 -0.2793 -0.2554
   14SAPS   C31 1762   4.471   4.908   6.489  0.2880  0.0823  0.0835
   14SAPS   O32 1763   4.587   4.905   6.456  0.5584  0.1862  0.4131
   14SAPS   C32 1764   4.420   4.865   6.626 -0.3003 -0.0214 -0.8773
   14SAPS   H2X 1765   4.356   4.775   6.612  0.4630 -1.0095  1.5926
   14SAPS   H2Y 1766   4.365   4.951   6.669 -1.7433 -0.8901 -0.9697
   14SAPS   C23 1767   3.987   5.249   6.429  0.8409  0.0507 -0.0763
   14SAPS   H3R 1768   3.901   5.189   6.391  0.2340 -0.0390  1.3940
   14SAPS   H3S 1769   3.947   5.341   6.478  1.6884  1.0301 -1.1874
   14SAPS   C24 1770   4.045   5.164   6.538  0.4497 -0.6363  0.4684
   14SAPS   H4R 1771   4.102   5.074   6.503  3.6547  0.3848  2.8017
   14SAPS   H4S 1772   3.964   5.138   6.609  0.5410  1.9610  1.5587
   14SAPS   C25 1773   4.152   5.234   6.622 -0.2270 -0.2263  0.1914
   14SAPS   H5R 1774   4.209   5.310   6.565 -0.2675 -0.6900 -0.4805
   14SAPS   C26 1775   4.154   5.235   6.756  0.4843 -0.3412  0.0101
   14SAPS   H6R 1776   4.246   5.279   6.796 -0.6903  2.0641  0.1669
   14SAPS   C27 1777   4.072   5.148   6.850  0.2117 -0.9386  0.5117
   14SAPS   H7R 1778   4.111   5.044   6.851 -2.4339 -1.9980 -1.1430
   14SAPS   H7S 1779   3.965   5.146   6.818  0.0570 -0.3215  0.9886
   14SAPS   C28 1780   4.077   5.210   6.988  0.2230 -0.2911 -0.1491
   14SAPS   H8R 1781   4.004   5.292   7.001  2.6019  2.0556 -1.0935
   14SAPS   C29 1782   4.151   5.166   7.091 -0.1583  0.4142  0.0312
   14SAPS   H9R 1783   4.135   5.224   7.183 -1.7650 -1.9949  1.3470
   14SAPS  C210 1784   4.253   5.054   7.103  0.0095 -0.3055 -0.3965
   14SAPS  H10R 1785   4.254   5.003   7.004 -1.2786 -0.6628 -0.2351
   14SAPS  H10S 1786   4.214   4.980   7.176  1.1452  0.9051  1.4533
   14SAPS  C211 1787   4.392   5.092   7.136  0.1759 -0.7169  0.6667
   14SAPS  H11R 1788   4.456   5.089   7.047 -0.6739  1.1460 -0.0330
   14SAPS  C212 1789   4.433   5.120   7.263  0.5621 -0.1216  0.7674
   14SAPS  H12R 1790   4.536   5.156   7.275  0.2417  1.2192 -0.4441
   14SAPS  C213 1791   4.356   5.129   7.390  0.7857  0.1720  0.1036
   14SAPS  H13R 1792   4.253   5.164   7.367  1.1831  0.0814 -1.9708
   14SAPS  H13S 1793   4.411   5.213   7.439 -1.8881  1.3991  1.0906
   14SAPS  C214 1794   4.373   5.010   7.477  0.2071 -0.6590  0.3032
   14SAPS  H14R 1795   4.381   4.915   7.422  0.2730  0.0094 -0.8585
   14SAPS  C215 1796   4.374   5.006   7.611 -0.4287 -0.2974  0.5373
   14SAPS  H15R 1797   4.392   4.910   7.663  2.6285  0.6990  1.4625
   14SAPS  C216 1798   4.345   5.113   7.716 -0.1037 -0.2759 -0.1555
   14SAPS  H16R 1799   4.353   5.211   7.665 -2.9351 -0.4837 -1.0895
   14SAPS  H16S 1800   4.438   5.116   7.777  0.0322 -2.4109 -0.2109
   14SAPS  C217 1801   4.218   5.106   7.799 -0.8868  0.8480  0.0311
   14SAPS  H17R 1802   4.131   5.060   7.747  0.4709 -0.2916 -1.2603
   14SAPS  H17S 1803   4.196   5.210   7.832  0.9420  1.2288  0.1238
   14SAPS  C218 1804   4.252   5.023   7.921  0.4828 -0.0047 -0.6074
   14SAPS  H18R 1805   4.354   5.043   7.960  0.7051 -0.2048 -1.0822
   14SAPS  H18S 1806   4.262   4.913   7.908 -1.6752 -0.0762 -1.8431
   14SAPS  C219 1807   4.145   5.049   8.029 -0.2153 -0.4623 -0.7829
   14SAPS  H19R 1808   4.047   5.002   8.006 -1.4251  1.2429  0.7532
   14SAPS  H19S 1809   4.117   5.155   8.045  1.0764 -0.4336  1.4911
   14SAPS  C220 1810   4.210   5.000   8.157  0.7270  0.1789 -0.1393
   14SAPS  H20R 1811   4.307   5.053   8.169 -1.3134  3.3910  3.3549
   14SAPS  H20S 1812   4.222   4.890   8.160  2.2878  0.3220 -0.5296
   14SAPS  H20T 1813   4.164   5.041   8.249 -1.4440  1.5447 -1.7696
   14SAPS   C33 1814   4.531   4.838   6.729 -0.1437  0.5794  0.1059
   14SAPS   H3X 1815   4.591   4.932   6.731  1.5383 -0.4844  1.4286
   14SAPS   H3Y 1816   4.593   4.753   6.695 -0.8251  0.6635 -1.3764
   14SAPS   C34 1817   4.487   4.809   6.874 -0.5024 -0.0143 -0.0963
   14SAPS   H4X 1818   4.442   4.707   6.876 -0.2624 -0.0993  1.4746
   14SAPS   H4Y 1819   4.422   4.891   6.911  1.8352  0.7563  2.4642
   14SAPS   C35 1820   4.610   4.810   6.962 -0.4372 -0.1882 -0.3083
   14SAPS   H5X 1821   4.645   4.911   6.993 -2.2853  0.1882  0.6274
   14SAPS   H5Y 1822   4.690   4.744   6.924  0.1052  0.2571  0.0529
   14SAPS   C36 1823   4.578   4.725   7.088 -0.3896 -0.1464 -0.3922
   14SAPS   H6X 1824   4.566   4.617   7.065  2.8225 -0.6531  0.1623
   14SAPS   H6Y 1825   4.479   4.745   7.134 -0.7876 -2.8638  0.0341
   14SAPS   C37 1826   4.683   4.736   7.196  0.5965 -0.3631  0.4119
   14SAPS   H7X 1827   4.784   4.721   7.153  2.2334  1.7850  3.3014
   14SAPS   H7Y 1828   4.664   4.652   7.266 -0.4403 -0.1985  0.3349
   14SAPS   C38 1829   4.689   4.859   7.288 -0.8050  0.8963 -0.6359
   14SAPS   H8X 1830   4.594   4.866   7.346 -0.4917  0.8875 -0.1151
   14SAPS   H8Y 1831   4.705   4.949   7.226 -1.9722  0.6958 -1.2331
   14SAPS   C39 1832   4.812   4.834   7.377 -0.0616  0.3959  0.0158
   14SAPS   H9X 1833   4.897   4.826   7.307 -1.6485  1.0054 -2.0537
   14SAPS   H9Y 1834   4.798   4.730   7.414 -1.2449  0.2024 -0.9308
   14SAPS  C310 1835   4.839   4.928   7.494 -0.1201 -0.2596  0.9205
   14SAPS  H10X 1836   4.831   5.024   7.440 -0.9222 -1.2135 -0.7151
   14SAPS  H10Y 1837   4.941   4.918   7.538  0.4396  0.4198 -0.2160
   14SAPS  C311 1838   4.738   4.935   7.605 -0.4025 -0.1675 -0.4834
   14SAPS  H11X 1839   4.710   4.834   7.643 -1.3038  0.4629  0.5627
   14SAPS  H11Y 1840   4.647   4.989   7.574  0.3081 -0.3512 -3.0192
   14SAPS  C312 1841   4.794   5.020   7.724 -0.0023 -0.2639  0.6905
   14SAPS  H12X 1842   4.779   5.125   7.691 -2.9499 -1.4131 -1.9046
   14SAPS  H12Y 1843   4.902   4.995   7.729  0.1626  0.2182 -0.3604
   14SAPS  C313 1844   4.727   5.009   7.865  0.2008  0.2220 -0.0375
   14SAPS  H13X 1845   4.735   4.905   7.902 -0.9916  0.7946  1.9344
   14SAPS  H13Y 1846   4.621   5.041   7.853 -0.6248 -2.3027  0.1425
   14SAPS  C314 1847   4.786   5.105   7.968 -0.6301 -0.4389 -0.3617
   14SAPS  H14X 1848   4.768   5.206   7.925  2.4463 -0.3434 -1.5569
   14SAPS  H14Y 1849   4.896   5.095   7.976 -0.7897 -0.4022  2.0556
   14SAPS  C315 1850   4.716   5.109   8.111 -0.7817 -0.3779 -0.4490
   14SAPS  H15X 1851   4.701   5.001   8.128 -0.7786 -0.2511  0.3505
   14SAPS  H15Y 1852   4.617   5.156   8.096  0.6440  3.1454  0.5583
   14SAPS  C316 1853   4.796   5.166   8.218  0.4538  1.2331 -0.2495
   14SAPS  H16X 1854   4.809   5.276   8.218  3.1739  0.9458  0.9566
   14SAPS  H16Y 1855   4.899   5.127   8.211  0.5837  1.6613 -0.6991
   14SAPS  C317 1856   4.754   5.136   8.360 -0.0682 -0.8773 -0.5853
   14SAPS  H17X 1857   4.811   5.168   8.451 -1.4459 -0.7765  0.2485
   14SAPS  H17Y 1858   4.756   5.025   8.355  2.8730 -1.0372  1.9231
   14SAPS  C318 1859   4.611   5.160   8.399 -0.5103 -0.2271 -0.4959
   14SAPS  H18X 1860   4.597   5.265   8.433  0.1213 -0.4710  0.5604
   14SAPS  H18Y 1861   4.573   5.095   8.481 -2.4293  3.1120  1.3604
   14SAPS  H18Z 1862   4.545   5.135   8.313  0.7332 -1.0748 -1.2175
   15SAPS     N 1863   5.079   5.040   6.192  0.5345 -0.8308 -0.5936
   15SAPS   HN1 1864   5.022   5.114   6.238 -0.7365 -0.8832 -2.0376
   15SAPS   HN2 1865   5.036   4.951   6.221  1.5855 -1.3768 -0.6796
   15SAPS   HN3 1866   5.180   5.047   6.215 -0.0428  0.9389  1.6510
   15SAPS   C12 1867   5.081   5.061   6.040  1.0901 -0.6908 -0.0434
   15SAPS  H12A 1868   4.979   5.073   6.005  1.2237  0.4833 -0.0583
   15SAPS   C13 1869   5.138   5.190   5.985  0.3041  0.4713  0.1597
   15SAPS  O13A 1870   5.187   5.275   6.063  0.5849  0.6887 -0.0408
   15SAPS  O13B 1871   5.102   5.228   5.864 -0.4150 -0.0183 -0.1968
   15SAPS   C11 1872   5.160   4.952   5.968 -1.0083  0.0650  0.3426
   15SAPS  H11A 1873   5.260   4.946   6.016 -0.6173 -0.5812 -0.5345
   15SAPS  H11B 1874   5.181   4.955   5.859  0.9199 -1.3486  0.6572
   15SAPS     P 1875   5.149   4.703   6.063 -0.1559  0.3240  0.1234
   15SAPS   O13 1876   5.091   4.582   5.996  0.4160  0.3891 -0.7261
   15SAPS   O14 1877   5.290   4.703   6.086 -0.2004  0.5507 -0.0270
   15SAPS   O12 1878   5.094   4.827   5.985 -0.4227  0.3558  0.0442
   15SAPS   O11 1879   5.083   4.734   6.199 -0.1979 -0.4344 -0.2680
   15SAPS    C1 1880   4.935   4.719   6.204 -0.1013 -0.0827 -0.1868
   15SAPS    HA 1881   4.885   4.810   6.166  0.6842  0.6001  0.3914
   15SAPS    HB 1882   4.897   4.635   6.142 -0.6487 -0.2370  0.3519
   15SAPS    C2 1883   4.891   4.685   6.351 -0.4700  1.2402 -0.0825
   15SAPS    HS 1884   4.789   4.727   6.361 -1.5600 -1.6337  1.7333
   15SAPS   O21 1885   4.966   4.751   6.453  0.3565  0.2424  0.0340
   15SAPS   C21 1886   4.955   4.886   6.453 -0.1599 -0.1706  0.4322
   15SAPS   O22 1887   4.891   4.949   6.371  0.9867  0.4379 -0.3996
   15SAPS   C22 1888   5.046   4.943   6.562 -0.4087 -0.3277  0.5258
   15SAPS   H2R 1889   5.143   4.893   6.541  0.4386  1.1020  1.0011
   15SAPS   H2S 1890   5.073   5.048   6.542  1.2753 -1.2346 -2.1554
   15SAPS    C3 1891   4.888   4.529   6.376  1.1277 -0.6237  0.2772
   15SAPS    HX 1892   4.989   4.491   6.353  0.2432 -1.2962 -2.6404
   15SAPS    HY 1893   4.817   4.478   6.307 -1.3274 -0.7313  2.7763
   15SAPS   O31 1894   4.831   4.516   6.509  0.0601  0.4123 -0.7573
   15SAPS   C31 1895   4.919   4.470   6.600 -0.2628 -0.0212 -0.0616
   15SAPS   O32 1896   5.032   4.438   6.578  0.1977 -0.4313 -0.1607
   15SAPS   C32 1897   4.877   4.492   6.743 -0.0468 -0.5090  0.5970
   15SAPS   H2X 1898   4.775   4.452   6.760 -1.2976  2.6377  0.9848
   15SAPS   H2Y 1899   4.883   4.603   6.755  1.1710 -0.6396  1.2860
   15SAPS   C23 1900   5.022   4.916   6.720  0.3515  0.6887 -0.2645
   15SAPS   H3R 1901   5.097   4.968   6.784  0.4124 -1.0094  1.0574
   15SAPS   H3S 1902   5.024   4.806   6.734 -1.0570  0.7968  0.9324
   15SAPS   C24 1903   4.877   4.970   6.761 -0.1914  0.8143 -0.0851
   15SAPS   H4R 1904   4.857   4.920   6.858  1.8991 -0.1818 -0.1427
   15SAPS   H4S 1905   4.793   4.930   6.700 -1.6426 -1.0392  2.9831
   15SAPS   C25 1906   4.860   5.120   6.757 -0.1140  0.6774 -0.1149
   15SAPS   H5R 1907   4.852   5.163   6.656 -0.2327  0.9145 -0.0058
   15SAPS   C26 1908   4.837   5.206   6.853  0.4751  0.2020  0.2850
   15SAPS   H6R 1909   4.813   5.305   6.813 -0.5031 -0.4391 -0.7811
   15SAPS   C27 1910   4.832   5.185   7.000 -0.4892 -0.7857  0.2366
   15SAPS   H7R 1911   4.938   5.197   7.030 -0.7774 -0.9149  1.3346
   15SAPS   H7S 1912   4.807   5.080   7.025 -1.8711 -0.5171  0.0557
   15SAPS   C28 1913   4.748   5.285   7.083  0.6743 -0.0397  0.1607
   15SAPS   H8R 1914   4.656   5.324   7.036 -0.2325 -1.0098  1.0998
   15SAPS   C29 1915   4.762   5.312   7.215  0.7108 -0.5433  0.9686
   15SAPS   H9R 1916   4.688   5.383   7.255  0.4209  0.2385 -0.8920
   15SAPS  C210 1917   4.862   5.259   7.319 -0.4881  0.7523  1.0912
   15SAPS  H10R 1918   4.915   5.171   7.276 -3.2317  0.0230 -1.0059
   15SAPS  H10S 1919   4.810   5.224   7.411  2.1795 -2.7398  1.3707
   15SAPS  C211 1920   4.966   5.366   7.332 -0.2083  0.0482  0.2037
   15SAPS  H11R 1921   4.998   5.406   7.235 -0.1091 -0.0271  0.2059
   15SAPS  C212 1922   5.027   5.415   7.441 -0.8558  1.1238 -0.7352
   15SAPS  H12R 1923   5.117   5.477   7.423 -0.2575  0.6314  0.5147
   15SAPS  C213 1924   5.016   5.371   7.586 -0.9725  0.7708  0.2772
   15SAPS  H13R 1925   5.117   5.384   7.630  0.3774 -1.1774 -2.1477
   15SAPS  H13S 1926   5.007   5.261   7.578 -0.7854  0.7126  0.8420
   15SAPS  C214 1927   4.907   5.418   7.675 -0.3882 -0.0096 -0.1447
   15SAPS  H14R 1928   4.806   5.428   7.631 -0.9799  3.2772  1.7491
   15SAPS  C215 1929   4.913   5.435   7.804  0.2916  0.5435  1.3379
   15SAPS  H15R 1930   4.822   5.461   7.860 -0.2958  1.6986 -0.1114
   15SAPS  C216 1931   5.036   5.412   7.885 -0.2407 -0.1886 -0.3111
   15SAPS  H16R 1932   5.120   5.472   7.844  0.8492 -1.0452  0.6097
   15SAPS  H16S 1933   5.068   5.306   7.881 -1.2303 -0.5397  0.7322
   15SAPS  C217 1934   5.021   5.439   8.033 -0.2865  0.2315  0.3050
   15SAPS  H17R 1935   5.116   5.418   8.088 -1.6250  0.5731  2.8318
   15SAPS  H17S 1936   4.943   5.369   8.069  0.2360 -0.0281  0.9453
   15SAPS  C218 1937   4.997   5.585   8.073 -0.2343  1.0223 -0.2366
   15SAPS  H18R 1938   4.906   5.626   8.024 -1.1802 -1.2771 -0.4609
   15SAPS  H18S 1939   5.088   5.646   8.052  2.8626 -3.1875  0.2007
   15SAPS  C219 1940   4.968   5.595   8.226 -0.1114 -0.8877 -0.1745
   15SAPS  H19R 1941   5.063   5.612   8.281  0.6264  0.3205 -1.7802
   15SAPS  H19S 1942   4.930   5.500   8.268 -2.3547 -0.3441 -0.8811
   15SAPS  C220 1943   4.874   5.712   8.263 -0.5684  0.5050  0.5519
   15SAPS  H20R 1944   4.912   5.802   8.210  1.3136  0.0958  1.1925
   15SAPS  H20S 1945   4.864   5.718   8.373 -0.4943  0.6730  0.5477
   15SAPS  H20T 1946   4.771   5.702   8.222  0.7035 -2.8435 -2.1805
   15SAPS   C33 1947   4.974   4.431   6.848 -0.0711 -0.1891 -1.1889
   15SAPS   H3X 1948   4.986   4.503   6.931  0.0658 -2.0749  0.4630
   15SAPS   H3Y 1949   5.079   4.415   6.817 -0.4871 -1.4318 -2.0469
   15SAPS   C34 1950   4.907   4.300   6.893 -0.3335  0.0988  0.1629
   15SAPS   H4X 1951   4.888   4.240   6.802  1.9098  1.4532 -1.2412
   15SAPS   H4Y 1952   4.808   4.330   6.935 -2.1351 -3.7449 -1.1031
   15SAPS   C35 1953   4.996   4.229   7.005  0.4475  0.5530 -0.7288
   15SAPS   H5X 1954   5.091   4.200   6.957 -0.6817  3.1320 -4.8218
   15SAPS   H5Y 1955   4.942   4.139   7.042 -0.1064  0.4728 -1.7052
   15SAPS   C36 1956   5.016   4.318   7.131  0.1795  1.3693  0.4024
   15SAPS   H6X 1957   4.924   4.366   7.170 -1.8670 -0.3028 -2.2087
   15SAPS   H6Y 1958   5.092   4.394   7.100 -0.2079  1.5075 -0.2164
   15SAPS   C37 1959   5.076   4.234   7.250  0.1743  0.5786  0.2896
   15SAPS   H7X 1960   5.157   4.165   7.219 -0.2523  0.1491  0.1356
   15SAPS   H7Y 1961   5.001   4.164   7.293 -0.4762 -0.1854 -2.0603
   15SAPS   C38 1962   5.111   4.315   7.379 -0.2981  0.8597  0.4867
   15SAPS   H8X 1963   5.039   4.399   7.391  1.6187  2.4018  1.4886
   15SAPS   H8Y 1964   5.207   4.370   7.366 -0.4858  1.0728  0.0282
   15SAPS   C39 1965   5.127   4.238   7.511 -0.1906 -0.0213 -0.5327
   15SAPS   H9X 1966   5.210   4.166   7.494  1.6967  2.2604 -1.2192
   15SAPS   H9Y 1967   5.036   4.178   7.532  2.0781 -3.4006  0.1543
   15SAPS  C310 1968   5.164   4.325   7.626  0.2472 -0.4525 -0.4921
   15SAPS  H10X 1969   5.121   4.427   7.619  2.2065  0.4429  0.3355
   15SAPS  H10Y 1970   5.274   4.335   7.612  0.2251 -1.7979 -1.8042
   15SAPS  C311 1971   5.144   4.251   7.760  0.1565  0.7182  0.2523
   15SAPS  H11X 1972   5.169   4.144   7.747 -0.3928  0.3603  2.0385
   15SAPS  H11Y 1973   5.034   4.248   7.776  0.0734 -3.0738 -0.6396
   15SAPS  C312 1974   5.229   4.310   7.877  0.0843 -0.0751 -0.2281
   15SAPS  H12X 1975   5.208   4.419   7.870 -0.8688 -0.3869 -2.7214
   15SAPS  H12Y 1976   5.338   4.294   7.865 -0.4418 -2.3495 -2.1746
   15SAPS  C313 1977   5.190   4.248   8.013 -0.2357  0.0539  0.1412
   15SAPS  H13X 1978   5.278   4.255   8.080  0.5992 -0.4961 -0.8777
   15SAPS  H13Y 1979   5.169   4.139   8.003  1.8145 -0.4957  1.4507
   15SAPS  C314 1980   5.072   4.313   8.090 -0.4065 -0.2370  0.6001
   15SAPS  H14X 1981   4.974   4.300   8.040  1.1342  0.4620 -2.7101
   15SAPS  H14Y 1982   5.097   4.417   8.119  2.5104 -0.5336 -0.7003
   15SAPS  C315 1983   5.046   4.243   8.233 -0.0276  0.0748  0.3258
   15SAPS  H15X 1984   5.015   4.140   8.203  1.0827 -0.0781 -0.3544
   15SAPS  H15Y 1985   4.951   4.283   8.273 -0.3926 -1.6487  1.2643
   15SAPS  C316 1986   5.157   4.253   8.341  0.5655 -0.1388  0.6757
   15SAPS  H16X 1987   5.176   4.362   8.345 -1.6459  0.4296 -2.4040
   15SAPS  H16Y 1988   5.247   4.195   8.311 -0.3785 -0.9878 -0.6036
   15SAPS  C317 1989   5.116   4.214   8.490  0.3162  0.3312  0.6469
   15SAPS  H17X 1990   5.205   4.223   8.556  1.0787  2.8695 -0.6581
   15SAPS  H17Y 1991   5.077   4.110   8.490  0.1150  0.4063  0.2087
   15SAPS  C318 1992   4.993   4.295   8.552 -0.5542 -0.0648  0.1888
   15SAPS  H18X 1993   4.944   4.224   8.622  0.6302 -1.8494 -0.7412
   15SAPS  H18Y 1994   4.912   4.312   8.478  1.5766 -1.3964 -2.5242
   15SAPS  H18Z 1995   5.024   4.388   8.604 -0.8379 -0.4366  1.0327
   16SAPS     N 1996   6.677   0.277   6.275  0.4014  0.6570 -0.5859
   16SAPS   HN1 1997   6.662   0.370   6.230 -1.7219  1.0988  0.9792
   16SAPS   HN2 1998   6.724   0.285   6.368  0.3044  0.6829 -0.5397
   16SAPS   HN3 1999   6.744   0.227   6.214  2.4520  1.2259  1.1274
   16SAPS   C12 2000   6.552   0.205   6.306 -0.0685  0.1908 -0.0830
   16SAPS  H12A 2001   6.494   0.264   6.375 -1.7991 -0.7515 -0.7063
   16SAPS   C13 2002   6.466   0.159   6.184 -0.0023 -0.5426  0.6648
   16SAPS  O13A 2003   6.488   0.220   6.076  1.0520  0.1304 -0.0942
   16SAPS  O13B 2004   6.351   0.120   6.210  0.6312  0.6328  0.1602
   16SAPS   C11 2005   6.600   0.077   6.384  0.0950  0.3852  0.8596
   16SAPS  H11A 2006   6.658   0.008   6.319 -1.0447  1.3093 -1.1938
   16SAPS  H11B 2007   6.509   0.023   6.420  0.0761 -0.0232  0.1860
   16SAPS     P 2008   6.780   0.031   6.584  0.2513  0.0659 -0.0945
   16SAPS   O13 2009   6.882  -0.029   6.498  0.4856 -0.1076 -0.0647
   16SAPS   O14 2010   6.833   0.116   6.692  0.0312  0.6439  0.3510
   16SAPS   O12 2011   6.685   0.114   6.494 -0.2476 -0.6936  0.4769
   16SAPS   O11 2012   6.698  -0.085   6.645  0.3148 -0.5408  0.1079
   16SAPS    C1 2013   6.576  -0.054   6.728 -0.1198 -0.2550  0.7813
   16SAPS    HA 2014   6.541   0.049   6.706  1.3272 -0.3092 -1.9795
   16SAPS    HB 2015   6.491  -0.118   6.696  0.9623 -1.5008  0.3448
   16SAPS    C2 2016   6.603  -0.068   6.882  0.4717  0.2023 -0.4294
   16SAPS    HS 2017   6.684   0.003   6.912  0.5289 -0.1100  0.1635
   16SAPS   O21 2018   6.639  -0.206   6.922 -0.4342  1.1571  0.4869
   16SAPS   C21 2019   6.768  -0.221   6.940  0.8804 -0.2899 -0.3246
   16SAPS   O22 2020   6.858  -0.142   6.925 -0.4846  0.1883 -0.8408
   16SAPS   C22 2021   6.793  -0.359   7.014 -0.2156 -0.2441 -0.3472
   16SAPS   H2R 2022   6.721  -0.432   6.972 -0.3078 -0.5165  0.2779
   16SAPS   H2S 2023   6.895  -0.396   6.989  0.0040  0.0085  0.1601
   16SAPS    C3 2024   6.480  -0.018   6.959  0.2329  0.5994  0.1725
   16SAPS    HX 2025   6.390  -0.076   6.930  0.6719 -0.6942  1.3748
   16SAPS    HY 2026   6.442   0.083   6.932 -1.3668  0.8374  3.1338
   16SAPS   O31 2027   6.496  -0.035   7.100  0.6811 -0.1470  0.2265
   16SAPS   C31 2028   6.564   0.067   7.153 -0.3953  0.1734  0.4878
   16SAPS   O32 2029   6.599   0.171   7.098 -0.2666 -0.7015 -0.3044
   16SAPS   C32 2030   6.574   0.049   7.302 -0.3076  0.1139 -0.0055
   16SAPS   H2X 2031   6.633  -0.044   7.310 -1.6574 -0.7808 -0.2633
   16SAPS   H2Y 2032   6.467   0.039   7.330 -0.2638  1.5308  0.7265
   16SAPS   C23 2033   6.778  -0.344   7.171 -0.4646 -0.2632 -0.6479
   16SAPS   H3R 2034   6.762  -0.447   7.209  0.0630 -0.1005  0.0441
   16SAPS   H3S 2035   6.690  -0.289   7.210 -1.4079 -1.1580 -1.5259
   16SAPS   C24 2036   6.908  -0.285   7.234  0.4398 -0.4318 -0.6496
   16SAPS   H4R 2037   6.995  -0.303   7.167 -0.1371  0.9339 -1.7883
   16SAPS   H4S 2038   6.932  -0.339   7.328 -0.2759 -0.3727 -0.4296
   16SAPS   C25 2039   6.895  -0.142   7.273  0.2383 -0.9496 -0.2184
   16SAPS   H5R 2040   6.865  -0.083   7.185 -1.3230 -1.2359  0.0982
   16SAPS   C26 2041   6.914  -0.095   7.397 -0.2590 -0.0795  0.0302
   16SAPS   H6R 2042   6.894   0.011   7.418 -1.1815  0.2529 -2.3987
   16SAPS   C27 2043   6.950  -0.164   7.525  0.3507  0.2946 -0.0040
   16SAPS   H7R 2044   6.999  -0.105   7.605  0.7400 -1.6963  1.2595
   16SAPS   H7S 2045   7.016  -0.252   7.506 -0.7032 -0.6002  0.4480
   16SAPS   C28 2046   6.829  -0.232   7.575  0.0896 -0.6029 -0.6587
   16SAPS   H8R 2047   6.747  -0.245   7.502 -1.1735 -1.1166  0.8119
   16SAPS   C29 2048   6.820  -0.276   7.701  0.3743 -0.4983  0.5799
   16SAPS   H9R 2049   6.724  -0.322   7.728 -0.3791  0.5078 -0.3752
   16SAPS  C210 2050   6.918  -0.277   7.815  0.0214  0.2877  0.2250
   16SAPS  H10R 2051   6.892  -0.191   7.880 -1.1867  0.1081 -0.0212
   16SAPS  H10S 2052   7.017  -0.236   7.785  0.3198  1.4641  2.6852
   16SAPS  C211 2053   6.911  -0.398   7.907  0.2762 -0.3300 -0.4116
   16SAPS  H11R 2054   6.840  -0.474   7.872 -1.4507 -0.5619  3.2976
   16SAPS  C212 2055   6.990  -0.430   8.011  0.2049 -0.5629  0.4139
   16SAPS  H12R 2056   6.957  -0.518   8.068  0.4874 -0.1221  1.2597
   16SAPS  C213 2057   7.107  -0.348   8.060 -0.2501  0.2929 -0.4051
   16SAPS  H13R 2058   7.162  -0.302   7.975 -0.9707 -1.6903 -2.0141
   16SAPS  H13S 2059   7.170  -0.422   8.114 -0.7767  0.2800  0.2028
   16SAPS  C214 2060   7.051  -0.237   8.153  0.0837 -0.5184  0.1025
   16SAPS  H14R 2061   7.044  -0.134   8.116  0.2573 -1.6085 -3.1737
   16SAPS  C215 2062   7.027  -0.249   8.290 -1.0026  0.1947 -0.1965
   16SAPS  H15R 2063   6.986  -0.165   8.348 -0.8782 -0.5083  0.9182
   16SAPS  C216 2064   7.054  -0.376   8.371  0.0811  0.2839 -0.1806
   16SAPS  H16R 2065   7.110  -0.455   8.317  2.1250  1.0922  0.6622
   16SAPS  H16S 2066   6.952  -0.406   8.401 -1.3439  3.3603 -1.7236
   16SAPS  C217 2067   7.132  -0.344   8.502  0.4425  0.2255  0.5252
   16SAPS  H17R 2068   7.132  -0.443   8.553 -1.0213 -0.4117 -0.6653
   16SAPS  H17S 2069   7.072  -0.273   8.562 -1.2075  1.8712 -2.9536
   16SAPS  C218 2070   7.266  -0.295   8.484 -0.6996  0.7201 -0.0619
   16SAPS  H18R 2071   7.266  -0.209   8.414 -0.5833  0.2811 -0.6043
   16SAPS  H18S 2072   7.337  -0.371   8.444  0.1589  0.1275  2.4867
   16SAPS  C219 2073   7.335  -0.236   8.611  0.8335  0.5044  1.0113
   16SAPS  H19R 2074   7.266  -0.161   8.655  1.0784  1.9233 -0.9553
   16SAPS  H19S 2075   7.416  -0.169   8.576  1.8463 -1.1151  0.1676
   16SAPS  C220 2076   7.368  -0.348   8.709  0.3887 -0.0108  0.9946
   16SAPS  H20R 2077   7.435  -0.419   8.655  1.0185  2.5081 -1.6594
   16SAPS  H20S 2078   7.275  -0.392   8.752  0.1696  0.9728  1.5276
   16SAPS  H20T 2079   7.427  -0.302   8.792  1.4439  2.5817 -1.1344
   16SAPS   C33 2080   6.636   0.184   7.357 -0.1676 -0.4083  0.0470
   16SAPS   H3X 2081   6.569   0.271   7.340 -1.3013 -1.1688  0.5397
   16SAPS   H3Y 2082   6.730   0.215   7.306 -0.7073  2.0184  0.4316
   16SAPS   C34 2083   6.665   0.169   7.507  0.3751 -0.1372  0.3119
   16SAPS   H4X 2084   6.741   0.092   7.533  1.2200  0.7274  0.4006
   16SAPS   H4Y 2085   6.570   0.155   7.563  0.8085 -2.1362  0.5800
   16SAPS   C35 2086   6.704   0.304   7.558 -0.1163 -0.0944  0.0959
   16SAPS   H5X 2087   6.646   0.394   7.527  0.0735  0.0918  0.2822
   16SAPS   H5Y 2088   6.811   0.328   7.543 -0.3886  1.0621 -0.0396
   16SAPS   C36 2089   6.684   0.304   7.708 -0.2159 -0.3885 -0.3456
   16SAPS   H6X 2090   6.756   0.227   7.742  1.1109  1.3620  0.9371
   16SAPS   H6Y 2091   6.581   0.271   7.737 -0.9308  1.1064 -1.1435
   16SAPS   C37 2092   6.718   0.435   7.779 -0.1237  0.4027  0.6883
   16SAPS   H7X 2093   6.649   0.518   7.752 -0.9591 -0.3325  0.5541
   16SAPS   H7Y 2094   6.821   0.460   7.745 -0.4243  1.8726  0.8345
   16SAPS   C38 2095   6.713   0.431   7.932  0.2150  0.4149 -0.1600
   16SAPS   H8X 2096   6.611   0.406   7.968 -0.0680 -1.3088 -2.0055
   16SAPS   H8Y 2097   6.735   0.534   7.967 -0.7799  0.5306  0.1249
   16SAPS   C39 2098   6.824   0.337   7.990 -0.0274 -0.6945  0.1726
   16SAPS   H9X 2099   6.924   0.377   7.961 -0.8437  1.2502  0.0023
   16SAPS   H9Y 2100   6.816   0.232   7.953  1.4930 -1.0666  0.8644
   16SAPS  C310 2101   6.811   0.338   8.140 -0.2373  0.2283 -0.4787
   16SAPS  H10X 2102   6.711   0.306   8.176 -0.7938 -0.2670 -2.3904
   16SAPS  H10Y 2103   6.829   0.441   8.178 -0.4642 -0.6256  2.0276
   16SAPS  C311 2104   6.908   0.246   8.215 -0.0563 -0.2391  0.1621
   16SAPS  H11X 2105   7.013   0.278   8.198  0.5009  0.0802  3.8778
   16SAPS  H11Y 2106   6.913   0.140   8.180  1.3816  0.6426 -2.5066
   16SAPS  C312 2107   6.884   0.247   8.365 -0.1087 -0.3075  0.3497
   16SAPS  H12X 2108   6.784   0.210   8.396  0.7905 -1.2214  2.1603
   16SAPS  H12Y 2109   6.872   0.350   8.405  0.1119 -0.7439  1.5499
   16SAPS  C313 2110   7.004   0.188   8.440  0.6519  0.4119 -0.4726
   16SAPS  H13X 2111   7.092   0.256   8.451  0.2434  0.6764  1.3397
   16SAPS  H13Y 2112   7.047   0.106   8.379  1.5580  0.2537  0.3561
   16SAPS  C314 2113   6.952   0.135   8.576  0.8021  0.0653 -0.5777
   16SAPS  H14X 2114   6.893   0.044   8.553  1.5384 -0.7499  0.7055
   16SAPS  H14Y 2115   6.882   0.207   8.623 -0.5136 -1.9482  0.6118
   16SAPS  C315 2116   7.069   0.118   8.667 -0.3751  0.1839  0.0744
   16SAPS  H15X 2117   7.134   0.207   8.655 -1.6557  1.0937 -0.1519
   16SAPS  H15Y 2118   7.120   0.029   8.625 -2.1360 -0.4075 -0.8672
   16SAPS  C316 2119   7.030   0.096   8.819 -0.5880 -0.1251  0.6221
   16SAPS  H16X 2120   6.938   0.036   8.835  0.2406 -1.3614  0.8282
   16SAPS  H16Y 2121   6.995   0.196   8.853  0.4756 -0.0378  1.4741
   16SAPS  C317 2122   7.142   0.051   8.923 -0.2108 -0.5952 -0.5942
   16SAPS  H17X 2123   7.218   0.131   8.933 -2.8420  1.6951  1.8376
   16SAPS  H17Y 2124   7.192  -0.044   8.892  1.9307  0.1799  0.3509
   16SAPS  C318 2125   7.078   0.023   9.059  0.1498 -0.1248 -0.4750
   16SAPS  H18X 2126   7.002   0.102   9.076  0.1965 -0.0853 -0.4500
   16SAPS  H18Y 2127   7.154   0.018   9.139  0.6816 -0.8924 -1.0111
   16SAPS  H18Z 2128   7.026  -0.072   9.034 -1.2607  0.1159  1.4553
   17SAPC     N 2129   4.332   3.382  10.418 -0.1985  0.2732 -0.5691
   17SAPC   C12 2130   4.432   3.337  10.523 -0.1648 -0.3513  0.4590
   17SAPC  H12A 2131   4.401   3.238  10.554  0.6890 -1.2705 -1.5364
   17SAPC  H12B 2132   4.429   3.401  10.609  1.7660  0.4667 -0.0525
   17SAPC   C13 2133   4.354   3.291  10.303  0.0132  0.4559 -0.5980
   17SAPC  H13A 2134   4.454   3.295  10.264 -1.0306  0.4597 -3.4152
   17SAPC  H13B 2135   4.337   3.186  10.321  0.5647  0.3507 -0.6909
   17SAPC  H13C 2136   4.287   3.310  10.220 -0.6639  0.3111 -0.0870
   17SAPC   C14 2137   4.197   3.373  10.478  0.3993 -0.9395 -0.0233
   17SAPC  H14A 2138   4.182   3.277  10.525 -0.8550 -0.8896 -0.3049
   17SAPC  H14B 2139   4.182   3.449  10.554 -1.1797 -0.3463 -0.9179
   17SAPC  H14C 2140   4.135   3.377  10.390  0.7838 -0.4434 -0.2746
   17SAPC   C15 2141   4.371   3.523  10.388 -0.1419  0.1547 -0.2965
   17SAPC  H15A 2142   4.338   3.597  10.460 -0.4040  0.4115 -0.6842
   17SAPC  H15B 2143   4.478   3.539  10.388  0.5489 -3.7248  2.0693
   17SAPC  H15C 2144   4.332   3.560  10.295 -0.1913  1.1358  0.0964
   17SAPC   C11 2145   4.579   3.328  10.483 -0.3222  0.6261 -1.4224
   17SAPC  H11A 2146   4.626   3.299  10.579 -0.5705  1.4209 -1.0558
   17SAPC  H11B 2147   4.611   3.431  10.457  0.0629  0.3211 -2.1856
   17SAPC     P 2148   4.634   3.101  10.377 -0.0682 -0.1955  0.2568
   17SAPC   O13 2149   4.762   3.074  10.307 -0.6543 -0.2682 -0.0698
   17SAPC   O14 2150   4.627   3.048  10.515  0.2024 -0.1035  0.2510
   17SAPC   O12 2151   4.611   3.255  10.361 -0.2061  0.5968  0.3480
   17SAPC   O11 2152   4.522   3.026  10.295  0.6057 -0.0885  0.3239
   17SAPC    C1 2153   4.503   2.883  10.289 -0.1053  0.2089 -0.0282
   17SAPC    HA 2154   4.578   2.827  10.349 -0.3753  1.3047  1.3563
   17SAPC    HB 2155   4.413   2.863  10.350  0.4641  2.3838  1.5936
   17SAPC    C2 2156   4.470   2.834  10.141 -0.1331  0.3728 -0.2879
   17SAPC    HS 2157   4.446   2.726  10.149 -1.5123  0.7644  1.1640
   17SAPC   O21 2158   4.581   2.861  10.050  0.1785 -0.0398  0.0537
   17SAPC   C21 2159   4.690   2.818  10.094  0.4326  0.6609  0.1646
   17SAPC   O22 2160   4.703   2.716  10.161 -0.3080 -0.0128 -0.8531
   17SAPC   C22 2161   4.806   2.883  10.018  0.0338  0.6469  0.3081
   17SAPC   H2R 2162   4.778   2.871   9.911 -1.2004 -1.3346  0.8298
   17SAPC   H2S 2163   4.814   2.990  10.046 -0.8765  1.0624 -0.9606
   17SAPC    C3 2164   4.342   2.909  10.085  0.4238 -0.1923 -0.5058
   17SAPC    HX 2165   4.377   3.015  10.079 -2.3162  0.7164 -1.2947
   17SAPC    HY 2166   4.260   2.904  10.159  0.5645  0.0482 -0.3327
   17SAPC   O31 2167   4.299   2.849   9.963  0.1297  0.9757  0.5585
   17SAPC   C31 2168   4.247   2.731   9.962 -0.7397  0.2809 -0.5252
   17SAPC   O32 2169   4.224   2.662  10.061 -0.2060  0.5504  0.3052
   17SAPC   C32 2170   4.233   2.682   9.815 -0.0587  0.4207 -0.2645
   17SAPC   H2X 2171   4.337   2.664   9.780 -0.5599  0.1373 -1.6080
   17SAPC   H2Y 2172   4.189   2.761   9.752 -2.4660 -1.4116 -0.9507
   17SAPC   C23 2173   4.947   2.815  10.033  0.5389 -0.7311 -0.0889
   17SAPC   H3R 2174   4.931   2.706  10.044  1.3018 -0.9781 -1.3942
   17SAPC   H3S 2175   4.985   2.853  10.131  0.2454  0.0732 -0.2778
   17SAPC   C24 2176   5.049   2.843   9.924 -0.1558  0.5544 -0.2011
   17SAPC   H4R 2177   4.998   2.807   9.832  1.0835  1.0065 -1.0745
   17SAPC   H4S 2178   5.148   2.794   9.933 -1.0566 -1.9115 -3.0740
   17SAPC   C25 2179   5.087   2.990   9.928  0.2681 -0.0074 -0.2423
   17SAPC   H5R 2180   5.118   3.027  10.027 -2.0275 -2.0021  1.2737
   17SAPC   C26 2181   5.090   3.065   9.817 -0.0879 -0.0372 -0.1701
   17SAPC   H6R 2182   5.128   3.168   9.824  1.1105 -0.3655 -1.6617
   17SAPC   C27 2183   5.064   3.031   9.673 -0.4225 -0.0464  0.0654
   17SAPC   H7R 2184   5.128   2.951   9.631 -0.1225  0.0104  0.4185
   17SAPC   H7S 2185   5.099   3.115   9.609  0.0756  0.1435  0.5834
   17SAPC   C28 2186   4.917   3.004   9.651  0.0249 -1.3815  0.6727
   17SAPC   H8R 2187   4.854   3.006   9.741 -0.9691 -0.8957 -0.0311
   17SAPC   C29 2188   4.858   2.983   9.533 -0.3648 -0.1548  0.2280
   17SAPC   H9R 2189   4.751   2.960   9.537 -0.2741 -0.5750  0.2165
   17SAPC  C210 2190   4.928   2.975   9.400 -0.0033  0.0902 -0.4166
   17SAPC  H10R 2191   5.008   3.051   9.388  0.1908  0.6669  3.8367
   17SAPC  H10S 2192   4.856   3.006   9.322 -0.3274  1.3117  0.3654
   17SAPC  C211 2193   4.991   2.842   9.380  0.2307  0.3253 -0.7796
   17SAPC  H11R 2194   5.049   2.812   9.468 -1.0361 -0.4860 -0.1927
   17SAPC  C212 2195   4.978   2.762   9.272 -0.1235 -0.2103  0.8153
   17SAPC  H12R 2196   5.045   2.675   9.278 -0.1797 -0.4836 -1.8016
   17SAPC  C213 2197   4.904   2.777   9.140 -0.2057  0.8444 -0.0767
   17SAPC  H13R 2198   4.976   2.818   9.066  1.0550  0.0963  0.7268
   17SAPC  H13S 2199   4.816   2.845   9.146 -0.1425  1.2010 -2.7540
   17SAPC  C214 2200   4.855   2.641   9.098  0.4324 -0.1291 -0.3617
   17SAPC  H14R 2201   4.819   2.574   9.177  0.8076 -2.9887 -2.5349
   17SAPC  C215 2202   4.852   2.590   8.974 -0.1348 -0.2429  0.2975
   17SAPC  H15R 2203   4.806   2.491   8.969  0.4868 -0.4301 -2.4394
   17SAPC  C216 2204   4.888   2.642   8.839 -0.0147 -0.2704 -0.4805
   17SAPC  H16R 2205   4.998   2.658   8.831 -0.1409  0.5440 -0.6445
   17SAPC  H16S 2206   4.835   2.738   8.824  0.1664 -0.2446 -0.9528
   17SAPC  C217 2207   4.836   2.540   8.730  0.1283 -0.0441 -0.1563
   17SAPC  H17R 2208   4.858   2.601   8.639 -1.1439  1.3415  0.4518
   17SAPC  H17S 2209   4.730   2.510   8.738  0.1362  0.2785  1.2978
   17SAPC  C218 2210   4.932   2.421   8.713  0.1768 -0.5257  0.2500
   17SAPC  H18R 2211   4.920   2.353   8.801 -0.8623 -1.5842 -0.6825
   17SAPC  H18S 2212   5.039   2.450   8.715 -0.0466  0.2515  1.5147
   17SAPC  C219 2213   4.893   2.348   8.589  0.4025  0.4632 -0.6452
   17SAPC  H19R 2214   4.906   2.426   8.511  0.3671 -0.1635 -1.2837
   17SAPC  H19S 2215   4.789   2.309   8.596  0.9786 -0.7032  1.8250
   17SAPC  C220 2216   4.984   2.226   8.550 -0.3106 -0.0218  0.2874
   17SAPC  H20R 2217   4.945   2.186   8.454  2.1075  0.7896 -1.0627
   17SAPC  H20S 2218   4.971   2.160   8.639  1.0064  1.8040  1.8805
   17SAPC  H20T 2219   5.085   2.270   8.543 -0.6137  0.3879 -1.8810
   17SAPC   C33 2220   4.160   2.540   9.817  0.2130  0.1875  0.0390
   17SAPC   H3X 2221   4.052   2.547   9.841  0.4172 -0.5748  1.2258
   17SAPC   H3Y 2222   4.213   2.478   9.893  0.0632  0.6844  0.5481
   17SAPC   C34 2223   4.179   2.458   9.691 -0.8520 -0.2970 -0.1976
   17SAPC   H4X 2224   4.118   2.366   9.704 -1.2946 -0.4980 -3.2290
   17SAPC   H4Y 2225   4.281   2.415   9.683 -1.2172 -0.9592 -1.5560
   17SAPC   C35 2226   4.130   2.530   9.561 -0.0679  0.4715  0.5917
   17SAPC   H5X 2227   4.202   2.606   9.523 -2.1234  1.6701 -1.0685
   17SAPC   H5Y 2228   4.043   2.588   9.598 -0.6225  0.3374 -0.4569
   17SAPC   C36 2229   4.084   2.427   9.458  0.1767  0.0997  0.4477
   17SAPC   H6X 2230   3.995   2.381   9.507  0.1952 -0.5592 -0.1276
   17SAPC   H6Y 2231   4.155   2.344   9.440  0.5205  0.9270 -2.1454
   17SAPC   C37 2232   4.049   2.477   9.322 -0.6400  0.2284 -0.5975
   17SAPC   H7X 2233   3.990   2.571   9.330 -1.0764 -0.2228  1.7796
   17SAPC   H7Y 2234   3.987   2.405   9.266  0.2681  0.1871 -1.5785
   17SAPC   C38 2235   4.178   2.527   9.252  0.3083  0.1807  0.0661
   17SAPC   H8X 2236   4.235   2.448   9.200  0.1943  1.3227 -1.8220
   17SAPC   H8Y 2237   4.252   2.561   9.327  1.0549 -1.9716  0.3464
   17SAPC   C39 2238   4.156   2.640   9.152 -0.4127  0.3404 -0.8421
   17SAPC   H9X 2239   4.248   2.678   9.102  0.2498  1.4524  1.1798
   17SAPC   H9Y 2240   4.109   2.723   9.210 -1.4790 -1.2153  0.5653
   17SAPC  C310 2241   4.054   2.593   9.048 -0.1936 -0.2332 -0.6042
   17SAPC  H10X 2242   3.955   2.556   9.083  0.8210 -1.0098  1.5591
   17SAPC  H10Y 2243   4.108   2.502   9.013  0.7288 -0.9049  2.4132
   17SAPC  C311 2244   4.021   2.684   8.928  0.8616 -0.7031  0.5575
   17SAPC  H11X 2245   4.102   2.756   8.903  0.0495  0.1946  0.4751
   17SAPC  H11Y 2246   3.937   2.750   8.957 -0.6038 -0.7898 -3.1497
   17SAPC  C312 2247   3.964   2.610   8.806 -0.2083 -0.6008  0.1341
   17SAPC  H12X 2248   3.913   2.673   8.731  1.7033  0.9841  0.1406
   17SAPC  H12Y 2249   3.882   2.546   8.847 -0.9961  0.3742  0.0932
   17SAPC  C313 2250   4.064   2.519   8.739 -0.3783 -0.3260 -0.5525
   17SAPC  H13X 2251   4.018   2.468   8.652  0.5699 -0.3942 -1.0257
   17SAPC  H13Y 2252   4.080   2.434   8.810  0.4291  2.2180  2.4324
   17SAPC  C314 2253   4.194   2.587   8.690 -0.4753  0.4321 -0.3907
   17SAPC  H14X 2254   4.232   2.665   8.760 -2.1886 -1.3680  2.6475
   17SAPC  H14Y 2255   4.179   2.631   8.589 -0.5119 -1.0053 -1.0270
   17SAPC  C315 2256   4.311   2.493   8.668  0.8215  0.1629 -0.3847
   17SAPC  H15X 2257   4.395   2.533   8.607  0.2687  1.7928 -0.0883
   17SAPC  H15Y 2258   4.277   2.408   8.604  1.9602  1.1956 -2.4163
   17SAPC  C316 2259   4.364   2.437   8.802  0.0982 -0.1001 -0.3459
   17SAPC  H16X 2260   4.278   2.385   8.847 -0.0151  1.5290  1.3798
   17SAPC  H16Y 2261   4.392   2.520   8.870  1.3260 -2.5947  2.2887
   17SAPC  C317 2262   4.485   2.338   8.785  0.2746 -0.6358  0.3156
   17SAPC  H17X 2263   4.571   2.394   8.742 -1.0262  1.0953 -0.0785
   17SAPC  H17Y 2264   4.454   2.254   8.719 -0.8974  1.5894 -2.0862
   17SAPC  C318 2265   4.537   2.283   8.924 -0.2821 -0.5961  0.1937
   17SAPC  H18X 2266   4.469   2.211   8.974 -2.1025  0.5354 -0.6100
   17SAPC  H18Y 2267   4.633   2.228   8.908 -0.6386 -1.3043  0.4661
   17SAPC  H18Z 2268   4.556   2.362   8.999  0.4645 -0.1655 -0.4334
   18SAPC     N 2269   5.504   2.703  10.547  0.1712  0.3869  0.2405
   18SAPC   C12 2270   5.521   2.608  10.431 -0.2057 -0.0086  0.2494
   18SAPC  H12A 2271   5.462   2.521  10.459  0.5422 -0.9637 -1.0782
   18SAPC  H12B 2272   5.625   2.578  10.427  0.1070  1.2513 -1.2250
   18SAPC   C13 2273   5.587   2.659  10.664  0.4273  0.0318 -0.4909
   18SAPC  H13A 2274   5.571   2.725  10.748  0.8634 -0.1928 -0.2273
   18SAPC  H13B 2275   5.563   2.559  10.699  1.1901  0.3408  0.9187
   18SAPC  H13C 2276   5.691   2.660  10.636  0.4564 -1.4406 -0.4922
   18SAPC   C14 2277   5.570   2.837  10.506 -0.3957 -0.7664  0.1721
   18SAPC  H14A 2278   5.548   2.917  10.576 -1.4690 -1.9436  1.2197
   18SAPC  H14B 2279   5.676   2.833  10.485 -0.4605  2.0186 -0.9372
   18SAPC  H14C 2280   5.516   2.868  10.418  0.7470 -4.5768 -1.9828
   18SAPC   C15 2281   5.358   2.731  10.586 -0.9069 -0.3767  0.4637
   18SAPC  H15A 2282   5.354   2.808  10.661  0.5711  1.3369 -1.1751
   18SAPC  H15B 2283   5.303   2.781  10.509 -0.0610  0.6076  0.4959
   18SAPC  H15C 2284   5.310   2.644  10.630 -0.3150  0.5176  2.9691
   18SAPC   C11 2285   5.467   2.650  10.295 -0.6857 -0.1270  0.5393
   18SAPC  H11A 2286   5.507   2.572  10.227  0.1445 -1.0354  2.0350
   18SAPC  H11B 2287   5.507   2.750  10.267 -0.7189  0.2528  1.8170
   18SAPC     P 2288   5.243   2.527  10.281 -0.2020  0.0571  0.0566
   18SAPC   O13 2289   5.270   2.436  10.394  1.0867 -0.5110 -0.0155
   18SAPC   O14 2290   5.101   2.566  10.268 -0.5890  0.1078 -0.1089
   18SAPC   O12 2291   5.328   2.662  10.293  0.2377 -0.1355 -0.0860
   18SAPC   O11 2292   5.296   2.456  10.157 -0.0903  0.7442 -0.0088
   18SAPC    C1 2293   5.285   2.516  10.030 -0.0604 -0.1924 -0.2581
   18SAPC    HA 2294   5.178   2.539  10.008 -0.2762 -1.4141 -0.5659
   18SAPC    HB 2295   5.345   2.608  10.020 -0.3105 -0.0804 -0.6950
   18SAPC    C2 2296   5.331   2.412   9.924  0.1914  0.2594  0.4978
   18SAPC    HS 2297   5.401   2.452   9.847 -0.8922 -0.0283 -0.6558
   18SAPC   O21 2298   5.214   2.357   9.862 -0.0282  0.2714 -0.2287
   18SAPC   C21 2299   5.160   2.443   9.782  0.5872  0.5037 -0.1928
   18SAPC   O22 2300   5.211   2.548   9.750  0.2281  0.1848 -0.6599
   18SAPC   C22 2301   5.025   2.373   9.741 -0.4705 -0.1739  0.8045
   18SAPC   H2R 2302   5.053   2.266   9.730  0.2107 -0.0129  0.9179
   18SAPC   H2S 2303   4.950   2.376   9.822  0.4019 -1.1882  1.6668
   18SAPC    C3 2304   5.410   2.293   9.980 -0.2950 -0.3040  1.0062
   18SAPC    HX 2305   5.343   2.224  10.036 -2.2435 -0.9036 -1.9818
   18SAPC    HY 2306   5.487   2.333  10.050  1.0372 -2.3440  0.7790
   18SAPC   O31 2307   5.469   2.218   9.873 -0.1907 -0.1985  0.4336
   18SAPC   C31 2308   5.526   2.106   9.905 -0.5593  1.0484  0.2373
   18SAPC   O32 2309   5.544   2.060  10.016 -0.7271 -0.3592  0.1835
   18SAPC   C32 2310   5.576   2.048   9.780 -0.2350 -0.0529 -0.3469
   18SAPC   H2X 2311   5.656   1.976   9.806  0.5007  1.4874  1.8094
   18SAPC   H2Y 2312   5.626   2.129   9.723  0.7975  1.6226  2.8469
   18SAPC   C23 2313   4.974   2.412   9.597  0.3669  0.7906  0.1846
   18SAPC   H3R 2314   4.884   2.350   9.578  1.6374 -1.8880  2.5667
   18SAPC   H3S 2315   5.047   2.380   9.521  1.0357 -1.2307  1.6548
   18SAPC   C24 2316   4.936   2.564   9.586  0.0700 -0.3192  0.1229
   18SAPC   H4R 2317   4.873   2.580   9.496 -1.0283 -0.2134  0.9012
   18SAPC   H4S 2318   5.033   2.618   9.588  1.0491 -2.0530  0.4377
   18SAPC   C25 2319   4.855   2.603   9.704 -0.0145  0.0268  0.2941
   18SAPC   H5R 2320   4.902   2.592   9.803 -2.1435 -0.5351  1.2772
   18SAPC   C26 2321   4.728   2.636   9.708 -0.3350  0.4352 -0.1082
   18SAPC   H6R 2322   4.686   2.662   9.806 -0.5673 -1.6138  0.3719
   18SAPC   C27 2323   4.631   2.660   9.594  0.9801  0.1453 -0.2285
   18SAPC   H7R 2324   4.559   2.577   9.584  1.7050 -0.7180  1.4309
   18SAPC   H7S 2325   4.679   2.681   9.496  1.4490  1.9696  0.3651
   18SAPC   C28 2326   4.540   2.783   9.623  0.7065 -0.2448 -0.0663
   18SAPC   H8R 2327   4.496   2.803   9.721 -0.4071 -1.3833 -0.3264
   18SAPC   C29 2328   4.498   2.872   9.527 -0.3357  0.3446  0.3354
   18SAPC   H9R 2329   4.427   2.949   9.562 -3.0168 -1.6622 -0.5475
   18SAPC  C210 2330   4.523   2.880   9.379 -0.0340 -0.0341  0.1070
   18SAPC  H10R 2331   4.630   2.907   9.374  0.0952 -0.3154  1.2258
   18SAPC  H10S 2332   4.460   2.967   9.349  0.1381 -0.4931 -1.6557
   18SAPC  C211 2333   4.503   2.757   9.298 -0.3106 -0.2469 -0.3057
   18SAPC  H11R 2334   4.494   2.663   9.356 -0.4905 -0.8427 -1.2856
   18SAPC  C212 2335   4.505   2.761   9.161 -0.6318  0.0003 -0.8166
   18SAPC  H12R 2336   4.479   2.670   9.106 -1.3143 -0.6442  0.5379
   18SAPC  C213 2337   4.530   2.882   9.067  0.7481 -0.3942 -0.1404
   18SAPC  H13R 2338   4.624   2.862   9.011 -0.3189 -1.9494 -1.4209
   18SAPC  H13S 2339   4.537   2.969   9.136  0.9340 -1.7885  1.6405
   18SAPC  C214 2340   4.402   2.884   8.983  0.4615  0.7284 -0.2201
   18SAPC  H14R 2341   4.313   2.896   9.048 -0.0779 -1.5818 -0.4829
   18SAPC  C215 2342   4.390   2.892   8.852  0.3706  0.2727 -0.2757
   18SAPC  H15R 2343   4.291   2.911   8.808  0.0332 -2.4787 -0.7775
   18SAPC  C216 2344   4.502   2.900   8.755  0.8555 -0.2188  0.4973
   18SAPC  H16R 2345   4.603   2.870   8.790 -0.1399 -3.0228  1.0711
   18SAPC  H16S 2346   4.515   3.005   8.722 -0.1219  0.6206  2.6452
   18SAPC  C217 2347   4.485   2.808   8.631  0.4766  0.2538 -0.2098
   18SAPC  H17R 2348   4.377   2.788   8.612  0.3777  0.6982 -0.1247
   18SAPC  H17S 2349   4.548   2.720   8.657  0.5217 -0.1026 -1.4845
   18SAPC  C218 2350   4.538   2.870   8.501 -0.3382 -0.0192 -0.5533
   18SAPC  H18R 2351   4.646   2.887   8.520 -0.6308  1.6683 -0.3229
   18SAPC  H18S 2352   4.498   2.970   8.475 -1.3188 -0.4852 -0.8498
   18SAPC  C219 2353   4.529   2.765   8.383  0.1592  0.4304 -0.6103
   18SAPC  H19R 2354   4.430   2.717   8.398 -0.2799  1.8242  1.0981
   18SAPC  H19S 2355   4.610   2.694   8.409 -0.4740 -0.3108 -0.6555
   18SAPC  C220 2356   4.537   2.819   8.240  0.0344 -0.3819 -0.3282
   18SAPC  H20R 2357   4.644   2.848   8.232 -0.3727  0.6907 -2.2265
   18SAPC  H20S 2358   4.472   2.907   8.219 -1.6162 -0.8507  2.5850
   18SAPC  H20T 2359   4.513   2.743   8.163 -0.4955  1.3251 -1.9007
   18SAPC   C33 2360   5.453   1.997   9.702 -0.0006  1.1234 -0.6280
   18SAPC   H3X 2361   5.367   2.067   9.699 -2.2339 -1.5789 -1.4358
   18SAPC   H3Y 2362   5.414   1.904   9.749  1.4138  0.2429 -1.1482
   18SAPC   C34 2363   5.487   1.961   9.558 -0.2545  0.2859  0.1044
   18SAPC   H4X 2364   5.569   1.887   9.555  0.1085  0.6942 -0.0571
   18SAPC   H4Y 2365   5.519   2.053   9.505  0.6008  0.0924  0.2831
   18SAPC   C35 2366   5.368   1.908   9.478  0.3670  0.6929  0.4721
   18SAPC   H5X 2367   5.289   1.985   9.492 -0.5534 -0.4221  1.5313
   18SAPC   H5Y 2368   5.343   1.817   9.536  0.3092  0.3945 -0.0235
   18SAPC   C36 2369   5.401   1.871   9.337  0.1072  0.2731 -0.2263
   18SAPC   H6X 2370   5.469   1.783   9.336 -0.7474 -0.4168  0.8451
   18SAPC   H6Y 2371   5.461   1.952   9.290  1.2094 -0.4538 -0.0958
   18SAPC   C37 2372   5.276   1.832   9.258 -0.0358 -0.2376  0.2647
   18SAPC   H7X 2373   5.219   1.925   9.236 -1.5784 -1.0673  0.6659
   18SAPC   H7Y 2374   5.220   1.761   9.323 -0.3814 -0.0029  0.2245
   18SAPC   C38 2375   5.299   1.750   9.127 -0.0106 -0.0466  0.0307
   18SAPC   H8X 2376   5.205   1.743   9.067  1.8249 -0.3145 -2.9096
   18SAPC   H8Y 2377   5.311   1.644   9.159  4.1817  0.5861  0.7898
   18SAPC   C39 2378   5.401   1.805   9.033 -0.0142 -0.5092 -0.7659
   18SAPC   H9X 2379   5.504   1.798   9.072  1.4176  5.6081 -2.9703
   18SAPC   H9Y 2380   5.389   1.915   9.032 -1.0399 -0.5768  1.3285
   18SAPC  C310 2381   5.384   1.760   8.892 -0.1986  0.6925 -0.3714
   18SAPC  H10X 2382   5.381   1.649   8.900 -0.1063  0.6665 -0.6880
   18SAPC  H10Y 2383   5.479   1.778   8.837 -0.6183 -1.2274 -1.7623
   18SAPC  C311 2384   5.275   1.832   8.822  0.2786  0.0318  0.7595
   18SAPC  H11X 2385   5.272   1.941   8.842  1.0968  1.1183 -4.1851
   18SAPC  H11Y 2386   5.178   1.788   8.855  1.6233 -1.2655  3.0639
   18SAPC  C312 2387   5.297   1.823   8.664 -0.0847 -0.3432 -0.2253
   18SAPC  H12X 2388   5.369   1.746   8.628 -1.5512  0.1402 -4.5500
   18SAPC  H12Y 2389   5.341   1.923   8.642  1.5592 -1.2308 -1.0797
   18SAPC  C313 2390   5.170   1.800   8.584  0.7507 -0.0667 -0.0392
   18SAPC  H13X 2391   5.099   1.845   8.656  1.6723 -1.6577  1.9039
   18SAPC  H13Y 2392   5.145   1.693   8.571  3.6265 -0.6337 -1.3305
   18SAPC  C314 2393   5.165   1.872   8.451 -0.3930  0.2382  0.6479
   18SAPC  H14X 2394   5.245   1.829   8.387 -1.3437 -1.3476  0.5005
   18SAPC  H14Y 2395   5.185   1.979   8.473 -2.2800  1.1305 -1.7292
   18SAPC  C315 2396   5.026   1.862   8.394  0.1603 -0.1526 -0.4027
   18SAPC  H15X 2397   4.953   1.909   8.464  1.8220  0.7416  0.7537
   18SAPC  H15Y 2398   4.990   1.757   8.387 -0.4129  0.1679 -2.6212
   18SAPC  C316 2399   5.006   1.929   8.255 -0.1217  0.3376  0.5924
   18SAPC  H16X 2400   5.065   2.021   8.235 -0.1775  0.0339 -1.0383
   18SAPC  H16Y 2401   4.897   1.953   8.248 -1.4946 -4.9769  1.1760
   18SAPC  C317 2402   5.031   1.833   8.138  0.1460 -0.8092 -0.6031
   18SAPC  H17X 2403   4.962   1.749   8.163 -2.0577  1.7829  2.3589
   18SAPC  H17Y 2404   5.134   1.791   8.136 -0.7956 -3.2481  0.2910
   18SAPC  C318 2405   4.994   1.886   7.997 -0.2358  0.3885  0.3172
   18SAPC  H18X 2406   5.002   1.807   7.920 -3.6548  0.9566 -0.7149
   18SAPC  H18Y 2407   5.065   1.963   7.959  0.9817 -0.7550  0.2173
   18SAPC  H18Z 2408   4.893   1.931   8.003 -0.9330 -0.9266 -1.2541
   19SAPC     N 2409   4.682   3.939  10.846 -0.7190  0.1313  0.7288
   19SAPC   C12 2410   4.767   3.919  10.720  0.3225  0.2087  0.2003
   19SAPC  H12A 2411   4.776   3.813  10.705  2.8360  0.6054 -1.2479
   19SAPC  H12B 2412   4.869   3.949  10.737  0.1560  0.7984  0.1794
   19SAPC   C13 2413   4.565   3.841  10.833  0.6041  0.2057 -0.0169
   19SAPC  H13A 2414   4.601   3.739  10.826 -1.2564 -0.2972 -2.7297
   19SAPC  H13B 2415   4.489   3.844  10.909  0.1394 -0.6839 -0.4400
   19SAPC  H13C 2416   4.506   3.849  10.743 -0.9790 -0.0165  0.9907
   19SAPC   C14 2417   4.757   3.887  10.963  0.4228  0.1103  0.1867
   19SAPC  H14A 2418   4.850   3.938  10.981  2.0562 -3.0021  0.9001
   19SAPC  H14B 2419   4.697   3.885  11.053 -2.5126  1.4919 -1.6747
   19SAPC  H14C 2420   4.770   3.782  10.940  1.9287  0.1784  0.6626
   19SAPC   C15 2421   4.650   4.084  10.871 -0.3537  0.9416 -0.5111
   19SAPC  H15A 2422   4.594   4.078  10.963 -0.8158 -1.6733 -0.9369
   19SAPC  H15B 2423   4.738   4.147  10.881 -0.1735  0.3540  1.7856
   19SAPC  H15C 2424   4.591   4.128  10.792 -0.9499  1.2401  0.1014
   19SAPC   C11 2425   4.716   3.975  10.580 -0.5772  0.1534  0.3231
   19SAPC  H11A 2426   4.779   3.927  10.502  0.8011  0.0541  1.4824
   19SAPC  H11B 2427   4.727   4.086  10.583  1.6487  0.0652 -2.6592
   19SAPC     P 2428   4.463   4.028  10.540  0.2551 -0.0247  0.0399
   19SAPC   O13 2429   4.344   3.944  10.566  0.4370 -0.1633 -0.4255
   19SAPC   O14 2430   4.483   4.153  10.622  0.1254 -0.3778  0.2671
   19SAPC   O12 2431   4.582   3.929  10.565  0.0362 -0.3414 -0.1590
   19SAPC   O11 2432   4.485   4.060  10.390 -0.2650 -0.5418 -0.7950
   19SAPC    C1 2433   4.539   4.185  10.337  0.1747  0.3238  0.0030
   19SAPC    HA 2434   4.621   4.227  10.400 -1.1597 -0.0188  2.0285
   19SAPC    HB 2435   4.576   4.163  10.235  1.1810 -0.2732  0.4827
   19SAPC    C2 2436   4.426   4.290  10.321  0.4742  0.0915 -0.5260
   19SAPC    HS 2437   4.399   4.322  10.423  1.1605 -0.8408 -0.0404
   19SAPC   O21 2438   4.304   4.229  10.274 -0.4787  0.3874 -0.4440
   19SAPC   C21 2439   4.196   4.306  10.278 -0.0575 -0.0744 -0.0780
   19SAPC   O22 2440   4.195   4.420  10.320 -0.1991  0.0801  0.8938
   19SAPC   C22 2441   4.076   4.236  10.210 -0.3313 -0.0585  0.1054
   19SAPC   H2R 2442   4.083   4.131  10.245  2.9342 -0.2822 -1.0602
   19SAPC   H2S 2443   3.988   4.298  10.239 -0.5784  0.1447 -1.0899
   19SAPC    C3 2444   4.480   4.403  10.225  0.4583  0.2151  0.0894
   19SAPC    HX 2445   4.582   4.437  10.254  0.7853 -0.2387 -0.5121
   19SAPC    HY 2446   4.414   4.492  10.232  0.2971  0.2541 -1.6404
   19SAPC   O31 2447   4.475   4.365  10.086 -0.0942  0.6515  0.1027
   19SAPC   C31 2448   4.539   4.455  10.013  0.4644 -0.1405 -0.4714
   19SAPC   O32 2449   4.582   4.566  10.045  0.1918 -0.3783 -0.1010
   19SAPC   C32 2450   4.526   4.407   9.872 -0.2293 -0.5557 -0.1553
   19SAPC   H2X 2451   4.417   4.389   9.859 -0.1219 -0.8220 -0.6917
   19SAPC   H2Y 2452   4.565   4.304   9.863  3.0195  0.7113 -1.2901
   19SAPC   C23 2453   4.097   4.232  10.057 -0.3261 -0.4649 -0.6981
   19SAPC   H3R 2454   4.190   4.175  10.035 -0.2432  0.5966 -3.3573
   19SAPC   H3S 2455   4.116   4.335  10.019  1.0786 -0.6950 -0.6485
   19SAPC   C24 2456   3.988   4.174   9.972  0.0619 -0.0981  0.2100
   19SAPC   H4R 2457   3.967   4.073  10.012  0.3424 -0.7441 -1.2331
   19SAPC   H4S 2458   4.021   4.168   9.866  1.7128  1.8303  0.5783
   19SAPC   C25 2459   3.857   4.243   9.984 -0.7335  0.7198  0.1169
   19SAPC   H5R 2460   3.821   4.277  10.082  0.5053  0.1610  0.7872
   19SAPC   C26 2461   3.773   4.277   9.883  0.7429  0.3504  0.3842
   19SAPC   H6R 2462   3.681   4.326   9.917  0.3882 -2.1543  3.2824
   19SAPC   C27 2463   3.783   4.240   9.738  0.2693 -1.0774  0.0134
   19SAPC   H7R 2464   3.788   4.129   9.724  1.3940 -1.1091  0.5980
   19SAPC   H7S 2465   3.878   4.281   9.695 -0.3486 -2.3435 -2.6900
   19SAPC   C28 2466   3.668   4.302   9.660 -0.0792  0.0910  0.0037
   19SAPC   H8R 2467   3.581   4.325   9.723  0.2740 -1.9442  1.2697
   19SAPC   C29 2468   3.647   4.296   9.530 -0.9843  0.3316 -0.0313
   19SAPC   H9R 2469   3.546   4.321   9.493 -1.5036  1.8643  2.2624
   19SAPC  C210 2470   3.747   4.244   9.432 -1.0870  0.3158 -0.0386
   19SAPC  H10R 2471   3.841   4.215   9.483 -2.1615  0.5622  2.1358
   19SAPC  H10S 2472   3.773   4.319   9.354  1.3533 -0.6097 -0.1558
   19SAPC  C211 2473   3.694   4.124   9.367  0.2788 -0.2632 -0.4601
   19SAPC  H11R 2474   3.683   4.038   9.435  1.2185  0.8757  1.1519
   19SAPC  C212 2475   3.693   4.100   9.233 -0.3812  0.1426  0.0465
   19SAPC  H12R 2476   3.640   4.005   9.216  0.6333 -0.3929 -0.1845
   19SAPC  C213 2477   3.744   4.184   9.118  0.1537  0.6594 -0.1190
   19SAPC  H13R 2478   3.854   4.196   9.116  0.1322  0.8210 -0.4534
   19SAPC  H13S 2479   3.699   4.285   9.125 -1.1354  0.0110  1.2473
   19SAPC  C214 2480   3.708   4.129   8.985  1.1780 -0.0953  0.0565
   19SAPC  H14R 2481   3.625   4.056   8.985  1.9867 -1.0275  0.4841
   19SAPC  C215 2482   3.759   4.155   8.865  0.2020 -0.0577 -0.0367
   19SAPC  H15R 2483   3.724   4.097   8.778 -0.7431  0.8846 -0.2961
   19SAPC  C216 2484   3.878   4.239   8.843 -0.3989  0.4344 -0.2609
   19SAPC  H16R 2485   3.960   4.165   8.856 -2.2865 -1.4747  0.9011
   19SAPC  H16S 2486   3.887   4.323   8.915  4.2265 -1.1992  1.2714
   19SAPC  C217 2487   3.873   4.285   8.697  0.4704 -0.6012  0.7504
   19SAPC  H17R 2488   3.781   4.344   8.676  0.8658 -0.1327  0.3175
   19SAPC  H17S 2489   3.895   4.201   8.628 -0.8663 -0.9317  0.7124
   19SAPC  C218 2490   3.974   4.401   8.676 -0.0279 -0.0157  0.0707
   19SAPC  H18R 2491   4.066   4.354   8.718 -0.3005 -0.5106  0.1172
   19SAPC  H18S 2492   3.956   4.480   8.751 -3.3807  0.2025 -0.9102
   19SAPC  C219 2493   3.971   4.456   8.535 -0.5049 -0.5440 -0.0781
   19SAPC  H19R 2494   3.898   4.538   8.521  1.2423  0.6891 -2.1523
   19SAPC  H19S 2495   3.931   4.369   8.480  0.0492 -1.7662  1.3781
   19SAPC  C220 2496   4.100   4.508   8.491 -0.1712  0.2503  0.1866
   19SAPC  H20R 2497   4.172   4.424   8.480  0.0200  0.4906 -0.4363
   19SAPC  H20S 2498   4.139   4.590   8.555  0.6589 -0.3143  0.4164
   19SAPC  H20T 2499   4.088   4.556   8.392  2.9244 -0.5377 -0.6522
   19SAPC   C33 2500   4.596   4.501   9.768 -0.9300 -0.9014  0.0616
   19SAPC   H3X 2501   4.703   4.482   9.790 -0.0649  1.3192 -2.0022
   19SAPC   H3Y 2502   4.569   4.609   9.775 -1.0592 -0.8105 -1.5626
   19SAPC   C34 2503   4.558   4.458   9.628  0.2730 -0.3977 -1.2098
   19SAPC   H4X 2504   4.448   4.471   9.638  0.4493  0.5906 -0.5220
   19SAPC   H4Y 2505   4.576   4.349   9.613 -0.2850 -0.5620 -0.7419
   19SAPC   C35 2506   4.626   4.536   9.514 -0.0588  0.2152  0.4050
   19SAPC   H5X 2507   4.736   4.531   9.521 -0.2780 -2.9620  2.4999
   19SAPC   H5Y 2508   4.590   4.639   9.534 -0.1534 -0.1185  1.9733
   19SAPC   C36 2509   4.581   4.481   9.376 -0.2083  0.1113  0.3701
   19SAPC   H6X 2510   4.477   4.513   9.352  0.0076 -0.9493 -2.1128
   19SAPC   H6Y 2511   4.580   4.370   9.374  0.7995  0.1289 -2.8669
   19SAPC   C37 2512   4.690   4.529   9.281  0.2206  1.0508 -0.4168
   19SAPC   H7X 2513   4.781   4.464   9.287  0.3255  0.9266 -3.0375
   19SAPC   H7Y 2514   4.728   4.629   9.311 -1.8930  1.5090  0.8487
   19SAPC   C38 2515   4.627   4.537   9.147 -0.2362 -0.6395  0.1602
   19SAPC   H8X 2516   4.529   4.589   9.142  0.4213  0.5105 -1.0181
   19SAPC   H8Y 2517   4.606   4.433   9.115  1.2611 -0.6528 -0.8215
   19SAPC   C39 2518   4.732   4.598   9.053 -0.0378  0.8603 -0.5395
   19SAPC   H9X 2519   4.822   4.532   9.050 -0.0414  0.8310  0.0792
   19SAPC   H9Y 2520   4.758   4.701   9.084 -0.0044  1.0333 -1.1199
   19SAPC  C310 2521   4.681   4.621   8.908  0.3996 -0.0043  0.0742
   19SAPC  H10X 2522   4.590   4.683   8.906 -0.2126 -0.8934 -0.1398
   19SAPC  H10Y 2523   4.669   4.521   8.860 -2.1425  1.3005 -2.1446
   19SAPC  C311 2524   4.784   4.684   8.819 -0.0763 -0.2000 -0.1315
   19SAPC  H11X 2525   4.886   4.643   8.837 -0.1804 -0.4379 -0.0786
   19SAPC  H11Y 2526   4.784   4.790   8.849 -0.6091  0.3151 -1.8835
   19SAPC  C312 2527   4.753   4.674   8.669  0.1239 -0.1366  0.1978
   19SAPC  H12X 2528   4.666   4.743   8.660  0.4412  0.1941 -0.3596
   19SAPC  H12Y 2529   4.730   4.569   8.641 -2.1294 -0.3935  2.8326
   19SAPC  C313 2530   4.863   4.738   8.588 -1.0693  0.0844  0.0134
   19SAPC  H13X 2531   4.962   4.695   8.616 -0.0872  0.6389 -2.5264
   19SAPC  H13Y 2532   4.854   4.844   8.621 -2.6124 -0.7032  2.2645
   19SAPC  C314 2533   4.834   4.731   8.442 -0.5261 -0.3933 -0.1874
   19SAPC  H14X 2534   4.871   4.826   8.398 -0.5520  0.3243  1.3290
   19SAPC  H14Y 2535   4.726   4.721   8.419 -0.2792 -2.0385 -0.7110
   19SAPC  C315 2536   4.902   4.612   8.373 -0.5339  0.4582  0.2991
   19SAPC  H15X 2537   4.873   4.526   8.437 -0.2696  0.7009  0.7503
   19SAPC  H15Y 2538   5.011   4.628   8.368 -0.7054  1.9728  1.0806
   19SAPC  C316 2539   4.854   4.592   8.225  0.3488 -0.5874 -0.2333
   19SAPC  H16X 2540   4.757   4.539   8.221 -0.0732  0.1041  0.4955
   19SAPC  H16Y 2541   4.932   4.527   8.180  1.4478 -0.7413  1.8201
   19SAPC  C317 2542   4.845   4.712   8.134 -0.7400 -0.1766 -0.5061
   19SAPC  H17X 2543   4.789   4.791   8.189  0.0785  0.1991 -0.2009
   19SAPC  H17Y 2544   4.780   4.694   8.046 -0.8930  0.6415 -0.5574
   19SAPC  C318 2545   4.985   4.762   8.085 -0.0728 -0.0899  0.2354
   19SAPC  H18X 2546   5.019   4.692   8.006 -0.5183 -1.5031  1.2806
   19SAPC  H18Y 2547   5.057   4.758   8.170 -1.0352 -1.8621  0.9711
   19SAPC  H18Z 2548   4.974   4.865   8.044  0.1094 -0.5710 -1.0189
   20SAPC     N 2549   3.627   1.130  11.192 -0.2132  0.2644  0.3601
   20SAPC   C12 2550   3.620   1.003  11.105 -0.9406 -0.3453 -0.2718
   20SAPC  H12A 2551   3.527   1.010  11.050  0.4147  1.2542 -2.4254
   20SAPC  H12B 2552   3.612   0.913  11.164 -1.8107  1.1425  1.9544
   20SAPC   C13 2553   3.757   1.128  11.266  0.1681  0.8177  0.5295
   20SAPC  H13A 2554   3.759   1.066  11.355  3.9804  0.6808  0.4228
   20SAPC  H13B 2555   3.831   1.087  11.199  0.1160 -1.0347  1.5479
   20SAPC  H13C 2556   3.791   1.223  11.303 -0.4943  1.3348 -0.1836
   20SAPC   C14 2557   3.622   1.253  11.102 -0.3098 -0.0666  0.4621
   20SAPC  H14A 2558   3.706   1.250  11.034  0.8225 -1.3856  1.8799
   20SAPC  H14B 2559   3.532   1.250  11.042 -1.6508  0.8650  2.3789
   20SAPC  H14C 2560   3.623   1.341  11.164  1.7255  3.8132 -4.7650
   20SAPC   C15 2561   3.512   1.129  11.288  0.4114  0.8190 -0.5217
   20SAPC  H15A 2562   3.416   1.133  11.240 -0.4968  0.1678  1.1916
   20SAPC  H15B 2563   3.503   1.042  11.351 -1.0065  0.9161 -0.5609
   20SAPC  H15C 2564   3.514   1.213  11.357  1.9494 -1.6583  2.6155
   20SAPC   C11 2565   3.734   0.998  10.998 -0.8544  0.3868  0.1309
   20SAPC  H11A 2566   3.712   1.080  10.927  0.0712  0.5179 -0.0130
   20SAPC  H11B 2567   3.714   0.901  10.949 -0.3906  0.7526 -0.7959
   20SAPC     P 2568   3.987   0.908  10.971  0.2308  0.5483  0.4445
   20SAPC   O13 2569   4.122   0.973  10.997 -0.2251  0.6069 -0.1819
   20SAPC   O14 2570   3.968   0.767  11.006 -0.1371  0.0127 -0.2370
   20SAPC   O12 2571   3.874   0.998  11.043 -0.1354 -0.2420  0.4900
   20SAPC   O11 2572   3.951   0.941  10.813 -0.2114 -0.0388 -0.7812
   20SAPC    C1 2573   4.043   1.013  10.733  0.1462 -0.2605  0.0932
   20SAPC    HA 2574   3.991   1.082  10.663  0.1142 -0.3550  0.0242
   20SAPC    HB 2575   4.120   1.067  10.793  0.1638 -0.9291  0.6788
   20SAPC    C2 2576   4.111   0.909  10.629 -0.1409  0.3181 -1.5271
   20SAPC    HS 2577   4.197   0.961  10.581  0.4959  0.5611 -0.1606
   20SAPC   O21 2578   4.017   0.871  10.520  0.0976 -0.0315 -0.0727
   20SAPC   C21 2579   3.991   0.966  10.429 -0.3057 -0.5714 -0.2128
   20SAPC   O22 2580   4.042   1.076  10.428 -0.2251  0.2950  0.1544
   20SAPC   C22 2581   3.882   0.914  10.345  0.1247 -0.7013 -0.4724
   20SAPC   H2R 2582   3.908   0.814  10.305 -0.3456 -0.1509 -2.2532
   20SAPC   H2S 2583   3.791   0.905  10.408  0.6375 -0.9408  0.2244
   20SAPC    C3 2584   4.172   0.771  10.694  0.0733  0.0331  0.7363
   20SAPC    HX 2585   4.087   0.721  10.746 -0.8455  0.3663 -0.4205
   20SAPC    HY 2586   4.256   0.792  10.764 -0.3288 -1.0413  1.5520
   20SAPC   O31 2587   4.223   0.688  10.587 -0.5079 -0.8964  0.3927
   20SAPC   C31 2588   4.144   0.600  10.532 -0.0602 -0.0563  0.0015
   20SAPC   O32 2589   4.032   0.567  10.560  0.8570 -0.1455  0.2660
   20SAPC   C32 2590   4.216   0.546  10.413  0.0805  0.0037  0.6122
   20SAPC   H2X 2591   4.221   0.435  10.418  0.5480  0.0505  1.1539
   20SAPC   H2Y 2592   4.321   0.580  10.416  1.0355 -2.8406  0.5861
   20SAPC   C23 2593   3.855   1.003  10.217  0.1774  0.4607  0.1054
   20SAPC   H3R 2594   3.818   1.105  10.243  0.3332  0.5876 -0.1704
   20SAPC   H3S 2595   3.767   0.952  10.172  1.0014  0.3193 -1.3848
   20SAPC   C24 2596   3.960   0.984  10.110  0.1560  0.4097 -0.1224
   20SAPC   H4R 2597   3.973   0.875  10.095 -2.4183 -0.1375  1.4645
   20SAPC   H4S 2598   4.061   1.020  10.141 -0.4785  2.0290  0.0762
   20SAPC   C25 2599   3.933   1.056   9.982 -0.8973 -0.2056 -0.2146
   20SAPC   H5R 2600   3.966   1.161   9.973 -0.7371 -0.3108 -0.9364
   20SAPC   C26 2601   3.870   0.995   9.883 -0.0261  0.1505  0.5303
   20SAPC   H6R 2602   3.843   1.056   9.796 -2.1977  1.0644  1.8267
   20SAPC   C27 2603   3.825   0.853   9.869 -0.0855  0.4174 -0.1203
   20SAPC   H7R 2604   3.812   0.805   9.968  1.0273 -0.9975 -0.6424
   20SAPC   H7S 2605   3.903   0.790   9.822 -1.2861 -0.6579 -0.7302
   20SAPC   C28 2606   3.685   0.834   9.809  0.7871  0.9285  0.0306
   20SAPC   H8R 2607   3.597   0.883   9.855 -2.4525 -1.6498 -3.1628
   20SAPC   C29 2608   3.650   0.765   9.700  0.3995 -0.0836 -0.0478
   20SAPC   H9R 2609   3.549   0.754   9.657  1.4830 -2.4757 -2.1282
   20SAPC  C210 2610   3.743   0.697   9.603  0.1502  0.3291 -0.3056
   20SAPC  H10R 2611   3.685   0.612   9.559  0.9686 -0.6884  0.5684
   20SAPC  H10S 2612   3.809   0.634   9.666  0.5817  0.8189 -0.2629
   20SAPC  C211 2613   3.831   0.769   9.501 -0.2213 -0.2215  0.0423
   20SAPC  H11R 2614   3.938   0.770   9.527 -0.5905 -2.0044  1.7466
   20SAPC  C212 2615   3.787   0.849   9.400 -0.0940 -0.3491  0.1463
   20SAPC  H12R 2616   3.864   0.894   9.335 -0.6278 -1.0163 -0.9706
   20SAPC  C213 2617   3.643   0.870   9.356  0.7485 -0.3817  1.0671
   20SAPC  H13R 2618   3.574   0.814   9.422  0.1555  0.7205  1.4063
   20SAPC  H13S 2619   3.620   0.821   9.259  0.5197  1.6718  0.0417
   20SAPC  C214 2620   3.603   1.016   9.351  0.1007  0.0075  0.0071
   20SAPC  H14R 2621   3.579   1.060   9.449  0.8734 -0.9220  0.6178
   20SAPC  C215 2622   3.596   1.096   9.243  0.1703  0.5480  0.0391
   20SAPC  H15R 2623   3.561   1.200   9.252  0.6719  0.7720 -0.6021
   20SAPC  C216 2624   3.626   1.047   9.102  0.4445 -0.4062  0.1380
   20SAPC  H16R 2625   3.523   1.031   9.063 -0.5510  0.7092  2.2014
   20SAPC  H16S 2626   3.673   0.947   9.093 -0.1239 -0.6249 -0.3786
   20SAPC  C217 2627   3.715   1.144   9.019  0.4044  0.9493 -0.1390
   20SAPC  H17R 2628   3.654   1.235   8.999 -1.5230 -0.7093 -1.9852
   20SAPC  H17S 2629   3.725   1.095   8.920 -1.3116 -0.0794  0.1783
   20SAPC  C218 2630   3.855   1.179   9.082  0.3395  0.5799 -0.2400
   20SAPC  H18R 2631   3.937   1.110   9.053 -0.9086 -1.4655  0.9939
   20SAPC  H18S 2632   3.850   1.180   9.193  1.0109 -1.4472 -0.1744
   20SAPC  C219 2633   3.919   1.308   9.021 -0.5493  0.2035  0.3128
   20SAPC  H19R 2634   3.843   1.389   9.033 -1.7525 -0.6732 -1.2064
   20SAPC  H19S 2635   3.914   1.294   8.911  0.5073 -0.6027  0.3603
   20SAPC  C220 2636   4.060   1.354   9.063  0.1645 -0.1074  0.5257
   20SAPC  H20R 2637   4.064   1.361   9.174  0.5005  1.0157  0.4465
   20SAPC  H20S 2638   4.098   1.448   9.018 -0.3175 -0.8956 -1.5650
   20SAPC  H20T 2639   4.145   1.292   9.028  1.1267  2.5573 -2.1044
   20SAPC   C33 2640   4.160   0.613  10.287 -0.3650 -0.7919  0.3487
   20SAPC   H3X 2641   4.205   0.714  10.285 -1.2822 -0.3799  0.2540
   20SAPC   H3Y 2642   4.051   0.632  10.289 -0.2556  0.2698 -2.1529
   20SAPC   C34 2643   4.196   0.527  10.164  0.5521  0.8710 -0.6309
   20SAPC   H4X 2644   4.132   0.437  10.155  0.9026  0.5646 -0.1015
   20SAPC   H4Y 2645   4.295   0.477  10.175 -0.0619 -0.5847 -1.5687
   20SAPC   C35 2646   4.187   0.596  10.031  0.5090  0.1885 -0.3881
   20SAPC   H5X 2647   4.269   0.671  10.040  0.7078 -0.0043 -0.5851
   20SAPC   H5Y 2648   4.088   0.645  10.027 -0.1836 -0.7715  3.2722
   20SAPC   C36 2649   4.204   0.502   9.908  0.0435 -0.3606 -0.5414
   20SAPC   H6X 2650   4.138   0.413   9.917 -1.1464  0.5084 -0.4768
   20SAPC   H6Y 2651   4.308   0.463   9.902 -0.4299 -1.3247 -2.8029
   20SAPC   C37 2652   4.161   0.559   9.769 -0.1764 -0.6514 -0.2511
   20SAPC   H7X 2653   4.239   0.630   9.736  0.1337 -1.6997 -1.8138
   20SAPC   H7Y 2654   4.064   0.613   9.766  0.0756 -0.2559 -1.4253
   20SAPC   C38 2655   4.156   0.442   9.663  0.7178  0.0021 -0.1979
   20SAPC   H8X 2656   4.065   0.382   9.687  1.1396 -1.7938 -2.8459
   20SAPC   H8Y 2657   4.244   0.375   9.672  0.9260  0.3646  0.4491
   20SAPC   C39 2658   4.133   0.477   9.517 -0.0380 -0.3713 -0.2131
   20SAPC   H9X 2659   4.223   0.520   9.467  2.1796 -0.8712  3.1345
   20SAPC   H9Y 2660   4.067   0.566   9.519 -0.6380 -0.8351  1.1861
   20SAPC  C310 2661   4.072   0.355   9.434  0.0587  0.1819 -0.3153
   20SAPC  H10X 2662   3.972   0.329   9.475 -0.0946  0.2623 -0.6302
   20SAPC  H10Y 2663   4.135   0.264   9.432 -0.0331  0.1209 -2.2779
   20SAPC  C311 2664   4.050   0.387   9.285  0.0552 -0.7889  0.1139
   20SAPC  H11X 2665   4.140   0.433   9.238 -0.6341  0.0546 -0.3998
   20SAPC  H11Y 2666   3.963   0.453   9.265 -0.6181 -1.2562  1.4549
   20SAPC  C312 2667   4.028   0.254   9.204  0.4286 -0.0002  0.6356
   20SAPC  H12X 2668   3.967   0.185   9.265  0.1468 -0.5601 -0.2712
   20SAPC  H12Y 2669   4.133   0.227   9.176  0.8850  2.2671  0.1071
   20SAPC  C313 2670   3.963   0.273   9.070  0.1515 -0.6955  0.0288
   20SAPC  H13X 2671   4.015   0.352   9.013  0.5413 -0.8945  0.1089
   20SAPC  H13Y 2672   3.861   0.316   9.083 -0.0992 -1.3352  0.2210
   20SAPC  C314 2673   3.974   0.140   8.991 -0.9284  0.0610 -0.6344
   20SAPC  H14X 2674   3.896   0.069   9.027  1.4920 -3.7211 -2.4263
   20SAPC  H14Y 2675   4.073   0.095   9.017  0.0062  2.4476  0.1031
   20SAPC  C315 2676   3.951   0.150   8.838 -0.5919  0.0359 -0.4509
   20SAPC  H15X 2677   4.025   0.226   8.803 -1.0780 -0.7533 -3.2980
   20SAPC  H15Y 2678   3.849   0.188   8.815 -1.0953 -0.3906  1.0009
   20SAPC  C316 2679   3.986   0.016   8.760 -0.0929 -0.8185  0.1422
   20SAPC  H16X 2680   3.892  -0.040   8.738  0.0392 -1.8805  2.1639
   20SAPC  H16Y 2681   4.055  -0.051   8.815 -0.4836 -0.7885  0.6752
   20SAPC  C317 2682   4.051   0.056   8.625 -0.0606  1.0949 -0.7546
   20SAPC  H17X 2683   4.083  -0.040   8.578  1.1028 -0.2326  2.5843
   20SAPC  H17Y 2684   4.144   0.114   8.642 -0.3183  1.3628 -0.2379
   20SAPC  C318 2685   3.956   0.133   8.527 -0.5656  0.2436 -0.1198
   20SAPC  H18X 2686   3.923   0.229   8.572  1.8781 -0.3598  3.1749
   20SAPC  H18Y 2687   3.866   0.082   8.486  0.6660 -0.2928 -2.2408
   20SAPC  H18Z 2688   4.023   0.161   8.443  1.8000  0.7829  1.8748
   21SAPC     N 2689   3.922   6.652  10.840  0.2544  0.5987  0.0557
   21SAPC   C12 2690   3.928   6.643  10.686 -0.1025 -0.3473  0.4041
   21SAPC  H12A 2691   3.928   6.744  10.647  0.8656 -0.4945  0.0042
   21SAPC  H12B 2692   3.838   6.593  10.654  0.1239 -0.5654  0.0989
   21SAPC   C13 2693   3.929   6.513  10.894 -0.3640 -1.0864  0.7176
   21SAPC  H13A 2694   3.851   6.450  10.854  0.7225  0.4646 -4.2008
   21SAPC  H13B 2695   4.028   6.472  10.877 -1.0651 -1.5722 -2.6353
   21SAPC  H13C 2696   3.912   6.525  11.000  1.3617  1.1359  0.7724
   21SAPC   C14 2697   4.026   6.743  10.894 -0.3231 -0.1241  0.1231
   21SAPC  H14A 2698   4.003   6.849  10.891 -2.2990 -0.5459 -1.3085
   21SAPC  H14B 2699   4.037   6.721  10.999  0.0401  0.1117  0.1325
   21SAPC  H14C 2700   4.117   6.728  10.839 -0.1994  3.6831 -0.8736
   21SAPC   C15 2701   3.786   6.704  10.876  0.0976 -0.5391  0.1089
   21SAPC  H15A 2702   3.786   6.810  10.860 -0.3919 -0.4087  0.9349
   21SAPC  H15B 2703   3.696   6.674  10.824  0.0819  0.5869 -0.5220
   21SAPC  H15C 2704   3.773   6.687  10.982  3.3240 -1.5513  0.3871
   21SAPC   C11 2705   4.050   6.577  10.620 -0.7809  0.6395 -0.0355
   21SAPC  H11A 2706   4.018   6.555  10.516 -0.9464 -0.0676  0.1650
   21SAPC  H11B 2707   4.074   6.480  10.668  0.1117  0.6452 -0.4540
   21SAPC     P 2708   4.206   6.770  10.541 -0.3665  0.1737  0.3119
   21SAPC   O13 2709   4.230   6.862  10.649 -0.1383 -0.1380 -0.1529
   21SAPC   O14 2710   4.306   6.746  10.435  0.2666  0.8868 -0.0020
   21SAPC   O12 2711   4.173   6.640  10.615  0.2286 -0.3478  0.2652
   21SAPC   O11 2712   4.063   6.805  10.487 -0.3550 -0.3482  0.3872
   21SAPC    C1 2713   4.031   6.936  10.435  0.1475 -0.3705  0.2407
   21SAPC    HA 2714   3.925   6.943  10.467  0.0301 -0.8163 -0.0415
   21SAPC    HB 2715   4.079   7.019  10.491 -2.6532  0.5200  1.4349
   21SAPC    C2 2716   4.034   6.932  10.278  0.1241  0.6091  0.3177
   21SAPC    HS 2717   3.966   7.012  10.243 -0.2120  0.5944  0.9406
   21SAPC   O21 2718   3.986   6.807  10.225 -0.0503  0.1984 -0.1190
   21SAPC   C21 2719   3.871   6.752  10.275 -0.0062  0.3544 -0.0368
   21SAPC   O22 2720   3.786   6.818  10.334 -0.1590 -0.4495  0.4603
   21SAPC   C22 2721   3.865   6.601  10.247  0.3600 -0.5468  0.0740
   21SAPC   H2R 2722   3.951   6.560  10.303 -0.4332  0.4521  2.0446
   21SAPC   H2S 2723   3.772   6.561  10.294 -0.8871  2.2840  0.1422
   21SAPC    C3 2724   4.171   6.961  10.225  0.1983  0.1854 -0.0859
   21SAPC    HX 2725   4.240   6.880  10.255 -0.2555 -0.2570 -0.2277
   21SAPC    HY 2726   4.216   7.050  10.274 -0.4983  1.0168 -0.9535
   21SAPC   O31 2727   4.164   6.995  10.086  0.1950  0.5265  0.6798
   21SAPC   C31 2728   4.187   6.893  10.002  0.2717  0.5669 -0.3718
   21SAPC   O32 2729   4.213   6.781  10.035 -1.0656  0.3603 -0.1481
   21SAPC   C32 2730   4.167   6.931   9.848 -0.3721 -0.4278 -0.3340
   21SAPC   H2X 2731   4.259   6.987   9.818 -0.9147 -0.8524 -2.8822
   21SAPC   H2Y 2732   4.079   6.998   9.846  0.3356  0.5195 -0.5677
   21SAPC   C23 2733   3.876   6.562  10.098  0.8339  0.4287  0.5109
   21SAPC   H3R 2734   3.916   6.459  10.091  1.3813  0.6527  0.1930
   21SAPC   H3S 2735   3.949   6.631  10.048  0.4690  1.8972  1.9651
   21SAPC   C24 2736   3.745   6.572  10.023  0.5275  0.0315 -0.4124
   21SAPC   H4R 2737   3.713   6.677  10.001 -0.9766  0.0067  1.4426
   21SAPC   H4S 2738   3.667   6.524  10.086  2.0957 -1.0457  0.7533
   21SAPC   C25 2739   3.753   6.510   9.887  0.2748 -0.6914 -0.0313
   21SAPC   H5R 2740   3.766   6.401   9.890  1.4678 -0.7228 -3.5180
   21SAPC   C26 2741   3.768   6.568   9.766 -0.8967 -0.2698 -0.1580
   21SAPC   H6R 2742   3.776   6.500   9.679  1.7289 -0.5135  0.2174
   21SAPC   C27 2743   3.781   6.714   9.743 -0.1499  1.2811  0.1122
   21SAPC   H7R 2744   3.875   6.719   9.682  0.1705 -0.9650  0.3920
   21SAPC   H7S 2745   3.805   6.781   9.828  1.5019  1.8155 -0.7352
   21SAPC   C28 2746   3.649   6.759   9.681  0.1670 -0.1514  0.3995
   21SAPC   H8R 2747   3.574   6.784   9.758 -1.1415 -2.2319 -0.1673
   21SAPC   C29 2748   3.632   6.766   9.548  0.1840 -0.0549  0.1414
   21SAPC   H9R 2749   3.538   6.815   9.518  1.0202  0.9581 -0.8917
   21SAPC  C210 2750   3.724   6.717   9.438 -0.1306 -0.3582  0.5491
   21SAPC  H10R 2751   3.677   6.624   9.398  2.1900 -1.2900 -0.0669
   21SAPC  H10S 2752   3.823   6.679   9.471  0.8874  0.5546 -1.3547
   21SAPC  C211 2753   3.737   6.809   9.314  0.1300 -0.0874  0.2691
   21SAPC  H11R 2754   3.799   6.897   9.337 -3.9931  3.0446 -0.0368
   21SAPC  C212 2755   3.664   6.795   9.202 -0.0522 -0.2063  0.7923
   21SAPC  H12R 2756   3.662   6.865   9.117  0.0556 -0.8609  0.2490
   21SAPC  C213 2757   3.556   6.690   9.177 -0.5581  0.3498  0.5044
   21SAPC  H13R 2758   3.455   6.734   9.194 -0.0916  3.2294 -3.4463
   21SAPC  H13S 2759   3.568   6.606   9.249 -1.5301 -0.3404 -0.1202
   21SAPC  C214 2760   3.565   6.625   9.034 -0.2505  0.1300 -0.1616
   21SAPC  H14R 2761   3.622   6.531   9.034 -0.5282 -0.0407 -0.4800
   21SAPC  C215 2762   3.509   6.670   8.919 -0.2430 -0.9946  0.0793
   21SAPC  H15R 2763   3.522   6.602   8.834  3.6250 -0.2186 -0.0728
   21SAPC  C216 2764   3.424   6.792   8.891 -0.0995 -1.3363  0.5051
   21SAPC  H16R 2765   3.388   6.838   8.986 -1.2044 -2.3428  0.5906
   21SAPC  H16S 2766   3.333   6.757   8.837 -0.3215  1.6600 -1.1866
   21SAPC  C217 2767   3.482   6.897   8.804 -0.1041 -0.0472  0.0604
   21SAPC  H17R 2768   3.585   6.922   8.837  0.0983 -0.1283 -0.5021
   21SAPC  H17S 2769   3.416   6.986   8.806 -1.4297 -1.0123  0.1528
   21SAPC  C218 2770   3.489   6.859   8.656  0.5909  0.0394  0.3294
   21SAPC  H18R 2771   3.396   6.813   8.616  1.7785 -0.9182 -1.3516
   21SAPC  H18S 2772   3.570   6.786   8.640 -1.7338 -2.6819  0.5453
   21SAPC  C219 2773   3.521   6.990   8.565  0.2265 -0.3102 -0.6276
   21SAPC  H19R 2774   3.609   7.041   8.609 -1.6330  1.6191  0.9217
   21SAPC  H19S 2775   3.448   7.072   8.579  0.8481 -0.0453  1.2422
   21SAPC  C220 2776   3.552   6.946   8.416  0.1694  0.4890  0.0210
   21SAPC  H20R 2777   3.637   6.875   8.415 -0.7320 -0.6550  2.2217
   21SAPC  H20S 2778   3.571   7.034   8.351  0.0689 -1.5911 -2.9305
   21SAPC  H20T 2779   3.459   6.903   8.371 -0.1052  0.7239  0.3614
   21SAPC   C33 2780   4.159   6.804   9.757  0.0325  0.0806 -0.5727
   21SAPC   H3X 2781   4.080   6.735   9.793 -0.6558  1.6297  0.9901
   21SAPC   H3Y 2782   4.253   6.746   9.755 -1.0453 -1.7024 -0.4120
   21SAPC   C34 2783   4.150   6.834   9.607 -0.0098 -0.4866  0.1377
   21SAPC   H4X 2784   4.227   6.906   9.569 -1.3699  0.0723 -1.6537
   21SAPC   H4Y 2785   4.051   6.883   9.606  0.7520  1.1142  0.3895
   21SAPC   C35 2786   4.162   6.711   9.519 -0.1253 -0.3168  1.1420
   21SAPC   H5X 2787   4.079   6.641   9.541 -1.3395  0.9821  0.6920
   21SAPC   H5Y 2788   4.259   6.659   9.539 -0.1494 -0.8900 -0.1901
   21SAPC   C36 2789   4.159   6.742   9.369  0.1264 -0.2903 -0.2892
   21SAPC   H6X 2790   4.260   6.786   9.354 -0.7168  2.1117  0.8227
   21SAPC   H6Y 2791   4.085   6.823   9.346  0.4106  0.0561  0.0302
   21SAPC   C37 2792   4.125   6.620   9.281  0.4110  0.4964  0.5306
   21SAPC   H7X 2793   4.033   6.575   9.323  1.1948 -0.7064  0.9857
   21SAPC   H7Y 2794   4.207   6.545   9.290  0.0221  0.2957  2.6079
   21SAPC   C38 2795   4.112   6.655   9.137 -0.0541 -0.2062  0.6341
   21SAPC   H8X 2796   4.212   6.690   9.103 -0.0472  1.0504  1.9023
   21SAPC   H8Y 2797   4.033   6.731   9.116 -0.3865 -0.6154  0.4025
   21SAPC   C39 2798   4.077   6.527   9.055 -0.1251 -0.1070  0.9648
   21SAPC   H9X 2799   4.112   6.436   9.108 -1.0723 -0.4728  0.9688
   21SAPC   H9Y 2800   4.119   6.528   8.952 -1.4353  1.2168  0.4249
   21SAPC  C310 2801   3.923   6.505   9.050 -0.9598 -0.1549  0.2683
   21SAPC  H10X 2802   3.874   6.594   9.005 -1.5480 -1.1169 -1.0623
   21SAPC  H10Y 2803   3.887   6.477   9.151 -0.9684 -0.0247  0.3006
   21SAPC  C311 2804   3.887   6.397   8.947 -0.0490  0.2988  0.1139
   21SAPC  H11X 2805   3.788   6.351   8.969  0.4477 -0.9947 -0.2776
   21SAPC  H11Y 2806   3.966   6.318   8.942  0.4871  0.5975  2.8879
   21SAPC  C312 2807   3.886   6.452   8.803  0.5181  0.2857  0.0786
   21SAPC  H12X 2808   3.971   6.521   8.781 -0.2691  1.4757  0.7122
   21SAPC  H12Y 2809   3.795   6.515   8.794 -1.0819 -1.9726  0.1418
   21SAPC  C313 2810   3.872   6.339   8.706 -0.0358 -0.2655 -0.2684
   21SAPC  H13X 2811   3.775   6.293   8.732  0.1706 -0.0097  0.9694
   21SAPC  H13Y 2812   3.946   6.258   8.727 -0.9822 -1.1117 -0.1764
   21SAPC  C314 2813   3.875   6.377   8.558  0.4167 -0.1791 -0.1476
   21SAPC  H14X 2814   3.835   6.294   8.495  1.7444 -0.7046 -0.3018
   21SAPC  H14Y 2815   3.980   6.389   8.525  1.3804 -0.1789  2.7292
   21SAPC  C315 2816   3.804   6.504   8.525 -0.1564 -0.7010 -0.4776
   21SAPC  H15X 2817   3.861   6.598   8.537  0.1756 -0.4962 -3.3392
   21SAPC  H15Y 2818   3.719   6.502   8.597 -0.8266  1.8498 -1.1325
   21SAPC  C316 2819   3.757   6.500   8.376 -0.0538  0.6076 -0.3395
   21SAPC  H16X 2820   3.835   6.489   8.299  2.8050  0.1683  2.5157
   21SAPC  H16Y 2821   3.700   6.596   8.370  0.4045  0.9183  0.1822
   21SAPC  C317 2822   3.643   6.398   8.345 -0.2629 -0.1430 -1.0464
   21SAPC  H17X 2823   3.569   6.405   8.427 -0.1898 -1.1925 -0.8885
   21SAPC  H17Y 2824   3.679   6.293   8.347  2.6505  0.8228  0.9097
   21SAPC  C318 2825   3.580   6.439   8.211 -0.0251  0.4130  0.2901
   21SAPC  H18X 2826   3.501   6.369   8.177  0.6745 -0.0423 -0.4245
   21SAPC  H18Y 2827   3.652   6.451   8.127  0.8455 -0.1971  0.9276
   21SAPC  H18Z 2828   3.537   6.539   8.228  1.4698  0.8544  1.6512
   22SAPC     N 2829   3.288   4.644  10.900 -0.0720 -0.1904  0.1061
   22SAPC   C12 2830   3.157   4.606  10.977  0.1462 -0.7382 -0.3508
   22SAPC  H12A 2831   3.070   4.649  10.930  1.2024  3.2085  1.0613
   22SAPC  H12B 2832   3.159   4.656  11.072  0.2310 -0.6021 -0.4241
   22SAPC   C13 2833   3.283   4.569  10.766  0.5338  0.4225 -0.0385
   22SAPC  H13A 2834   3.365   4.601  10.703  0.0943  0.7153 -0.4658
   22SAPC  H13B 2835   3.286   4.461  10.767 -4.0903  0.1955  0.1831
   22SAPC  H13C 2836   3.196   4.598  10.710 -0.5430 -2.5697 -0.0068
   22SAPC   C14 2837   3.307   4.787  10.870 -0.3784  0.0154  0.0121
   22SAPC  H14A 2838   3.377   4.840  10.933 -0.6630  0.9240 -0.4357
   22SAPC  H14B 2839   3.346   4.799  10.770 -0.4892  0.4357  0.0178
   22SAPC  H14C 2840   3.212   4.838  10.872  0.4182  1.4929  1.4395
   22SAPC   C15 2841   3.406   4.593  10.976  0.3777 -0.1162 -0.3386
   22SAPC  H15A 2842   3.504   4.620  10.941  0.6678 -0.5624  0.1146
   22SAPC  H15B 2843   3.406   4.622  11.080 -1.1533  0.9542 -0.6136
   22SAPC  H15C 2844   3.408   4.485  10.980  0.2856 -0.0831  1.2964
   22SAPC   C11 2845   3.134   4.453  11.002 -0.0155  0.2284 -0.3649
   22SAPC  H11A 2846   3.041   4.432  11.058  0.3368  1.2110  0.5885
   22SAPC  H11B 2847   3.215   4.422  11.070  0.6683 -1.2493 -1.8167
   22SAPC     P 2848   2.996   4.372  10.794 -0.1751 -0.1331  0.0351
   22SAPC   O13 2849   2.888   4.314  10.880 -0.9826  0.6433  0.0568
   22SAPC   O14 2850   2.974   4.502  10.731  0.0421  0.3381  0.2766
   22SAPC   O12 2851   3.131   4.373  10.885 -0.2956 -0.2496  0.2699
   22SAPC   O11 2852   3.034   4.264  10.688  0.1633 -0.1300  0.0414
   22SAPC    C1 2853   3.135   4.287  10.592 -0.2365 -0.3678 -0.7883
   22SAPC    HA 2854   3.194   4.381  10.597 -0.3281 -0.3311 -0.3879
   22SAPC    HB 2855   3.203   4.200  10.603 -1.3305 -0.9752  1.3751
   22SAPC    C2 2856   3.087   4.274  10.450  0.0984 -0.4795  0.5350
   22SAPC    HS 2857   3.009   4.350  10.428  1.6432  0.7339 -0.9077
   22SAPC   O21 2858   3.043   4.138  10.427  0.7381  0.1409  0.2487
   22SAPC   C21 2859   2.916   4.110  10.432 -0.3737 -0.4445  0.2290
   22SAPC   O22 2860   2.826   4.191  10.446 -0.5016  0.7508  0.1177
   22SAPC   C22 2861   2.907   3.960  10.407  0.5042  0.2148 -0.4562
   22SAPC   H2R 2862   2.976   3.905  10.475  0.8694 -0.1355 -1.1096
   22SAPC   H2S 2863   2.804   3.921  10.424  1.4603 -1.1673  2.6494
   22SAPC    C3 2864   3.203   4.300  10.345  0.1377  0.6218  0.3692
   22SAPC    HX 2865   3.166   4.243  10.257  0.1272 -1.5020  1.7263
   22SAPC    HY 2866   3.295   4.244  10.371 -0.2935 -0.4826 -0.4171
   22SAPC   O31 2867   3.237   4.440  10.329 -0.1240 -0.6867  0.1691
   22SAPC   C31 2868   3.167   4.511  10.239 -0.4236 -0.4399  0.4129
   22SAPC   O32 2869   3.073   4.470  10.173  0.2083 -0.5650  0.0133
   22SAPC   C32 2870   3.226   4.652  10.229 -0.2464  0.9282  0.0797
   22SAPC   H2X 2871   3.249   4.688  10.331 -0.2747  0.2585  0.3298
   22SAPC   H2Y 2872   3.149   4.727  10.200 -0.2884  0.9457  0.2362
   22SAPC   C23 2873   2.953   3.922  10.261  0.2942  0.9362 -0.4415
   22SAPC   H3R 2874   2.994   3.821  10.277 -0.4109  0.6057 -0.6912
   22SAPC   H3S 2875   3.034   3.995  10.241  2.3840 -1.9603 -2.9213
   22SAPC   C24 2876   2.853   3.926  10.145  0.1556  0.4550 -0.9298
   22SAPC   H4R 2877   2.774   3.853  10.174  1.9703 -0.7898  1.1353
   22SAPC   H4S 2878   2.902   3.877  10.058  1.7037  1.5143 -0.6723
   22SAPC   C25 2879   2.786   4.058  10.111 -0.2503 -1.0957  0.6519
   22SAPC   H5R 2880   2.735   4.105  10.195 -1.5106  0.8835 -1.1814
   22SAPC   C26 2881   2.763   4.109   9.988  0.2859 -0.0572 -0.0515
   22SAPC   H6R 2882   2.730   4.214   9.983 -0.4662 -0.1878  1.9968
   22SAPC   C27 2883   2.806   4.054   9.853 -0.2777 -0.0940  0.4898
   22SAPC   H7R 2884   2.874   3.967   9.862 -3.3198 -2.9069 -2.4363
   22SAPC   H7S 2885   2.873   4.127   9.801 -0.3777 -2.0143 -2.4851
   22SAPC   C28 2886   2.697   4.021   9.756 -0.0318  0.0248  0.1980
   22SAPC   H8R 2887   2.621   3.947   9.785 -0.4322  0.5290  0.4490
   22SAPC   C29 2888   2.674   4.081   9.635  0.2543 -0.0193 -0.2938
   22SAPC   H9R 2889   2.602   4.030   9.570  1.0022 -0.2333 -0.9647
   22SAPC  C210 2890   2.746   4.197   9.562  1.2650 -0.6146  0.4524
   22SAPC  H10R 2891   2.805   4.259   9.632  1.3271 -0.6277  0.4123
   22SAPC  H10S 2892   2.662   4.254   9.519  0.9193 -0.4578  1.3313
   22SAPC  C211 2893   2.843   4.156   9.457 -0.2322  0.3646 -0.5684
   22SAPC  H11R 2894   2.943   4.145   9.500 -0.1887  1.1785 -0.4523
   22SAPC  C212 2895   2.829   4.133   9.330 -0.6833 -0.1611  0.2703
   22SAPC  H12R 2896   2.923   4.110   9.277 -1.3301  2.4422 -2.1804
   22SAPC  C213 2897   2.698   4.136   9.255 -0.2642 -0.1074 -0.4273
   22SAPC  H13R 2898   2.720   4.167   9.150  0.7049  0.6320 -0.0157
   22SAPC  H13S 2899   2.633   4.212   9.302  0.3928 -0.8235  1.6991
   22SAPC  C214 2900   2.631   4.002   9.265 -0.2902 -0.4382  0.1615
   22SAPC  H14R 2901   2.563   3.998   9.351  1.0791  2.4949  1.4570
   22SAPC  C215 2902   2.643   3.903   9.172 -0.3863 -0.8805 -0.6850
   22SAPC  H15R 2903   2.591   3.806   9.182 -1.6352 -0.2357 -0.7390
   22SAPC  C216 2904   2.720   3.899   9.045  0.3258 -0.5926 -0.0486
   22SAPC  H16R 2905   2.809   3.833   9.059  2.4818  2.2538 -0.0476
   22SAPC  H16S 2906   2.753   4.000   9.014 -0.7539 -0.0989  0.3900
   22SAPC  C217 2907   2.631   3.848   8.933  0.3323 -0.3376  0.4398
   22SAPC  H17R 2908   2.542   3.914   8.929  0.2019 -0.3722  2.3018
   22SAPC  H17S 2909   2.578   3.750   8.943  0.3887 -0.7439 -2.9290
   22SAPC  C218 2910   2.703   3.850   8.794  0.1152  0.1038 -0.6579
   22SAPC  H18R 2911   2.791   3.784   8.783  0.8602  1.2634 -1.7741
   22SAPC  H18S 2912   2.749   3.949   8.774 -0.9831  1.0421  1.2692
   22SAPC  C219 2913   2.603   3.809   8.692  0.1266  1.0358  0.8588
   22SAPC  H19R 2914   2.512   3.867   8.717 -1.1840 -0.4931 -0.2382
   22SAPC  H19S 2915   2.595   3.698   8.698  1.7560  0.6302 -2.8932
   22SAPC  C220 2916   2.645   3.827   8.547  0.7235 -0.1921 -0.1367
   22SAPC  H20R 2917   2.739   3.770   8.529  0.8965 -0.2262  0.8515
   22SAPC  H20S 2918   2.662   3.935   8.526 -1.0422  0.2042  0.4091
   22SAPC  H20T 2919   2.562   3.797   8.481  1.3594 -0.7289 -0.7056
   22SAPC   C33 2920   3.354   4.659  10.145  0.4955 -0.2472  0.4034
   22SAPC   H3X 2921   3.425   4.576  10.165  0.2100 -0.1501  1.8285
   22SAPC   H3Y 2922   3.394   4.759  10.174 -3.4915  2.0151 -1.4513
   22SAPC   C34 2923   3.324   4.661   9.988  0.2579 -0.2627  0.0653
   22SAPC   H4X 2924   3.237   4.728   9.971 -1.1235 -2.4557 -1.7743
   22SAPC   H4Y 2925   3.292   4.557   9.967 -1.8354  0.7296 -1.9301
   22SAPC   C35 2926   3.454   4.706   9.918  0.4231 -0.3985  0.1714
   22SAPC   H5X 2927   3.537   4.635   9.938  1.6647  0.7104 -0.9199
   22SAPC   H5Y 2928   3.477   4.804   9.967  1.1525  0.1484 -1.2364
   22SAPC   C36 2929   3.456   4.703   9.764  0.8406 -0.0866  0.2588
   22SAPC   H6X 2930   3.383   4.778   9.726  1.1874  0.2705  0.3004
   22SAPC   H6Y 2931   3.404   4.609   9.737  0.0258  0.2432  0.6331
   22SAPC   C37 2932   3.581   4.726   9.688 -0.4031  0.1680  0.0563
   22SAPC   H7X 2933   3.660   4.656   9.723 -2.1448 -1.8170  0.1342
   22SAPC   H7Y 2934   3.609   4.831   9.709  2.3967 -0.4250 -0.4246
   22SAPC   C38 2935   3.554   4.698   9.537 -0.0181  0.3915 -0.2891
   22SAPC   H8X 2936   3.480   4.775   9.506 -1.4457 -0.3756  1.1672
   22SAPC   H8Y 2937   3.536   4.589   9.528  1.0607  0.2950 -1.3915
   22SAPC   C39 2938   3.684   4.714   9.457 -0.6326 -0.0838  0.0982
   22SAPC   H9X 2939   3.769   4.659   9.502 -1.3654 -0.3873  1.1108
   22SAPC   H9Y 2940   3.709   4.822   9.456 -1.3292  0.0881  0.8370
   22SAPC  C310 2941   3.666   4.661   9.305  0.0928 -0.3019  1.1607
   22SAPC  H10X 2942   3.620   4.560   9.312 -0.2550 -0.2510 -0.1218
   22SAPC  H10Y 2943   3.766   4.658   9.256  0.1159 -0.2105  1.2026
   22SAPC  C311 2944   3.560   4.748   9.236 -0.7107  1.6886  0.0351
   22SAPC  H11X 2945   3.459   4.733   9.280  0.2652  2.9785  2.8868
   22SAPC  H11Y 2946   3.543   4.711   9.133 -1.6707  3.1348 -0.3484
   22SAPC  C312 2947   3.589   4.896   9.231 -0.9936 -1.2869 -0.5421
   22SAPC  H12X 2948   3.693   4.910   9.196 -1.6406  3.4993 -0.8788
   22SAPC  H12Y 2949   3.586   4.942   9.332  1.4720 -0.1039 -0.9730
   22SAPC  C313 2950   3.493   4.979   9.142  0.0592  0.5576  0.5147
   22SAPC  H13X 2951   3.472   5.076   9.193  0.6813  0.7669  0.3800
   22SAPC  H13Y 2952   3.398   4.923   9.133  1.1074 -1.2848  0.6105
   22SAPC  C314 2953   3.558   5.013   9.004 -0.4278 -0.4873  0.0523
   22SAPC  H14X 2954   3.580   4.912   8.962 -1.7817 -0.3679 -0.9739
   22SAPC  H14Y 2955   3.648   5.076   9.018  0.4138 -1.6416 -0.0983
   22SAPC  C315 2956   3.462   5.084   8.905 -0.4643 -0.1214 -1.0378
   22SAPC  H15X 2957   3.477   5.193   8.910  0.2340 -0.2835  0.9865
   22SAPC  H15Y 2958   3.354   5.067   8.925 -0.4168  0.0113 -0.6734
   22SAPC  C316 2959   3.477   5.037   8.759  0.1379  0.0114 -0.0527
   22SAPC  H16X 2960   3.404   5.097   8.700  0.0550 -0.8361 -0.8176
   22SAPC  H16Y 2961   3.447   4.931   8.746 -3.0263  0.8755 -0.1041
   22SAPC  C317 2962   3.621   5.051   8.704  0.7166  0.6802 -0.0992
   22SAPC  H17X 2963   3.627   5.002   8.605 -1.5746 -0.9691  0.5386
   22SAPC  H17Y 2964   3.692   4.986   8.762 -1.8232 -4.1440 -2.0844
   22SAPC  C318 2965   3.672   5.198   8.691  0.3096 -0.7029 -0.4937
   22SAPC  H18X 2966   3.658   5.256   8.785  1.3596 -2.6884  0.9254
   22SAPC  H18Y 2967   3.618   5.250   8.609 -1.0419 -0.3084  0.6199
   22SAPC  H18Z 2968   3.781   5.196   8.669  0.3152 -0.7157 -0.4664
   23SAPC     N 2969   4.420   6.404  10.596  0.5198  0.6481 -0.4323
   23SAPC   C12 2970   4.496   6.274  10.598  0.6003  0.5606  0.2195
   23SAPC  H12A 2971   4.544   6.271  10.501 -0.3851 -2.9822 -0.2171
   23SAPC  H12B 2972   4.427   6.193  10.613 -1.2208  1.4177 -3.1000
   23SAPC   C13 2973   4.306   6.394  10.505  0.1421  0.1577  0.9480
   23SAPC  H13A 2974   4.251   6.302  10.514  1.7068 -0.7413  1.5514
   23SAPC  H13B 2975   4.253   6.487  10.520 -0.4183 -0.0904  0.5252
   23SAPC  H13C 2976   4.336   6.397  10.401  2.0043 -0.4683  1.4537
   23SAPC   C14 2977   4.353   6.424  10.730 -0.2014  0.0337 -0.4090
   23SAPC  H14A 2978   4.285   6.343  10.753  0.4356  0.1146  1.8591
   23SAPC  H14B 2979   4.427   6.443  10.807 -1.7884  0.3159  1.0797
   23SAPC  H14C 2980   4.290   6.510  10.721 -2.0750 -1.2719 -0.1185
   23SAPC   C15 2981   4.507   6.522  10.568 -0.0010 -0.0022 -0.7536
   23SAPC  H15A 2982   4.579   6.545  10.645 -0.1135 -0.6895 -0.4372
   23SAPC  H15B 2983   4.561   6.504  10.476  1.2168 -3.6720  0.5755
   23SAPC  H15C 2984   4.442   6.607  10.554  1.0724  0.4593 -3.2118
   23SAPC   C11 2985   4.615   6.248  10.695 -0.9922 -0.3192 -0.1238
   23SAPC  H11A 2986   4.648   6.143  10.687  1.8998  0.5950 -0.7072
   23SAPC  H11B 2987   4.564   6.263  10.793 -1.8645  1.7756 -0.8626
   23SAPC     P 2988   4.838   6.340  10.776 -0.3260 -0.5223  0.2853
   23SAPC   O13 2989   4.793   6.389  10.899  0.0045  0.2933 -0.3302
   23SAPC   O14 2990   4.907   6.213  10.771 -0.0516 -0.1335 -0.0412
   23SAPC   O12 2991   4.717   6.343  10.670 -0.1131  0.4765 -0.1622
   23SAPC   O11 2992   4.942   6.444  10.712  0.4126  0.3079 -0.2677
   23SAPC    C1 2993   4.914   6.540  10.614 -0.5395 -0.0307 -0.8240
   23SAPC    HA 2994   4.807   6.556  10.592 -0.2337  2.5281 -0.5386
   23SAPC    HB 2995   4.945   6.641  10.649 -2.2898 -0.1596  1.1755
   23SAPC    C2 2996   4.994   6.496  10.488 -0.4813 -0.4628  0.1739
   23SAPC    HS 2997   4.978   6.574  10.411  1.0877  1.4178  1.6804
   23SAPC   O21 2998   4.956   6.365  10.441 -0.0500 -0.4628  0.2415
   23SAPC   C21 2999   4.845   6.364  10.375  0.4662  0.2704  0.0257
   23SAPC   O22 3000   4.776   6.464  10.356  0.0197  0.8063 -0.3011
   23SAPC   C22 3001   4.816   6.221  10.338  0.4469  0.8034 -0.5640
   23SAPC   H2R 3002   4.906   6.167  10.303 -0.5811 -2.9464  2.3147
   23SAPC   H2S 3003   4.773   6.174  10.429 -0.1426  1.1483 -0.6585
   23SAPC    C3 3004   5.144   6.480  10.534 -0.1728 -0.0667  0.0120
   23SAPC    HX 3005   5.150   6.376  10.574 -1.3743 -0.3736 -0.5724
   23SAPC    HY 3006   5.165   6.549  10.618 -0.5212 -0.2028  0.2096
   23SAPC   O31 3007   5.228   6.494  10.416 -0.4446 -0.8867  0.1903
   23SAPC   C31 3008   5.359   6.510  10.433 -0.1739  0.3283  0.3425
   23SAPC   O32 3009   5.410   6.511  10.541 -0.4422 -0.4780 -0.1713
   23SAPC   C32 3010   5.427   6.506  10.299  1.4175 -0.7583 -0.1463
   23SAPC   H2X 3011   5.350   6.497  10.219 -0.7486 -1.2288  1.9628
   23SAPC   H2Y 3012   5.502   6.424  10.294  1.7660 -0.3804 -1.5314
   23SAPC   C23 3013   4.709   6.215  10.226  0.8321  0.1090  0.1731
   23SAPC   H3R 3014   4.757   6.231  10.127 -1.6858  0.3046 -1.0590
   23SAPC   H3S 3015   4.633   6.296  10.235 -0.6420 -1.4599  2.6651
   23SAPC   C24 3016   4.625   6.084  10.229  0.6072  0.5154 -0.3967
   23SAPC   H4R 3017   4.542   6.087  10.156 -0.1985 -1.0898  0.4248
   23SAPC   H4S 3018   4.568   6.066  10.323  0.1118  1.7243 -0.4653
   23SAPC   C25 3019   4.723   5.969  10.208  0.1242 -0.0272 -0.7287
   23SAPC   H5R 3020   4.780   5.936  10.296  0.0517 -2.2626 -1.5000
   23SAPC   C26 3021   4.747   5.904  10.089  0.0281 -0.5588 -0.5729
   23SAPC   H6R 3022   4.819   5.821  10.082  0.4378 -0.1112 -1.8891
   23SAPC   C27 3023   4.672   5.932   9.960 -0.3078  0.3257 -0.0348
   23SAPC   H7R 3024   4.710   6.028   9.918  0.1678 -0.0782 -0.5409
   23SAPC   H7S 3025   4.563   5.940   9.983 -0.5723 -1.7861 -0.4036
   23SAPC   C28 3026   4.691   5.829   9.854 -0.5826 -0.6533 -0.4189
   23SAPC   H8R 3027   4.782   5.768   9.867 -0.6272 -0.4503  0.8693
   23SAPC   C29 3028   4.635   5.815   9.732  0.1503 -0.2536 -0.3645
   23SAPC   H9R 3029   4.675   5.738   9.665  0.4595  0.6799 -1.2622
   23SAPC  C210 3030   4.529   5.905   9.680  0.5420  0.2193  0.3558
   23SAPC  H10R 3031   4.577   5.994   9.633 -1.7742  1.1557 -0.3301
   23SAPC  H10S 3032   4.457   5.925   9.762 -0.1888  0.0737 -0.2486
   23SAPC  C211 3033   4.451   5.831   9.578  0.7356  0.0434 -0.4975
   23SAPC  H11R 3034   4.355   5.792   9.613  1.1207  0.4161  1.0276
   23SAPC  C212 3035   4.488   5.812   9.452 -0.2099 -0.2079  0.5503
   23SAPC  H12R 3036   4.412   5.772   9.383  1.6103  1.8809 -2.8309
   23SAPC  C213 3037   4.611   5.856   9.378  0.4661  1.0433  0.0960
   23SAPC  H13R 3038   4.678   5.900   9.454 -0.3038  0.8891  0.8682
   23SAPC  H13S 3039   4.579   5.935   9.306  0.9779  1.5614  0.4357
   23SAPC  C214 3040   4.686   5.753   9.298  0.6900 -0.0163 -0.2630
   23SAPC  H14R 3041   4.670   5.658   9.350 -0.5148 -1.1650 -2.5998
   23SAPC  C215 3042   4.750   5.767   9.182  0.4613  0.0386  0.3693
   23SAPC  H15R 3043   4.808   5.682   9.143 -1.8501 -0.1777 -2.7961
   23SAPC  C216 3044   4.762   5.886   9.090 -0.4061  0.0643 -0.7530
   23SAPC  H16R 3045   4.675   5.956   9.087 -0.7359 -0.3738 -1.6622
   23SAPC  H16S 3046   4.758   5.845   8.987  0.9804 -0.6963 -0.5206
   23SAPC  C217 3047   4.897   5.955   9.110 -0.2530 -0.8793  0.1748
   23SAPC  H17R 3048   4.976   5.878   9.098  0.8714  0.0607  1.3631
   23SAPC  H17S 3049   4.898   6.002   9.211  0.7201  0.4932 -0.4606
   23SAPC  C218 3050   4.919   6.053   8.997 -0.3717  0.4016 -0.1785
   23SAPC  H18R 3051   4.839   6.130   9.007  0.8457  1.4213  2.2450
   23SAPC  H18S 3052   4.908   6.004   8.898  1.3027 -0.7951  0.2201
   23SAPC  C219 3053   5.063   6.113   8.999  0.1245 -0.2759  0.9503
   23SAPC  H19R 3054   5.144   6.038   9.009  0.3129  0.2609  3.8156
   23SAPC  H19S 3055   5.076   6.157   9.100 -1.7263  0.1752  1.0139
   23SAPC  C220 3056   5.087   6.216   8.886 -0.5380 -0.3293 -0.2219
   23SAPC  H20R 3057   5.178   6.278   8.901 -1.6639  1.1484  0.4935
   23SAPC  H20S 3058   4.998   6.281   8.889 -0.8601 -0.8232  1.9027
   23SAPC  H20T 3059   5.092   6.148   8.798 -2.0191  0.3934 -0.8832
   23SAPC   C33 3060   5.512   6.638  10.267 -0.0507  0.2676  0.2122
   23SAPC   H3X 3061   5.601   6.631  10.332 -0.1807 -2.2776  0.1978
   23SAPC   H3Y 3062   5.454   6.725  10.305 -0.4795  0.1069 -0.0750
   23SAPC   C34 3063   5.541   6.650  10.121 -0.4194 -0.2662 -0.2585
   23SAPC   H4X 3064   5.447   6.687  10.075 -0.9152  0.1638  1.0596
   23SAPC   H4Y 3065   5.561   6.546  10.089 -1.6717 -0.3005 -0.9619
   23SAPC   C35 3066   5.653   6.742  10.074  0.2558  0.2623  0.6515
   23SAPC   H5X 3067   5.751   6.708  10.115  0.0585 -0.3452  0.6315
   23SAPC   H5Y 3068   5.629   6.846  10.102 -1.9434  0.0855 -0.4454
   23SAPC   C36 3069   5.675   6.735   9.924 -0.4059 -0.1511  1.1028
   23SAPC   H6X 3070   5.766   6.796   9.902 -0.6012  0.2593  1.4130
   23SAPC   H6Y 3071   5.594   6.781   9.865  1.3960  1.6224 -0.0531
   23SAPC   C37 3072   5.700   6.591   9.862  0.2468  0.0816  0.2769
   23SAPC   H7X 3073   5.611   6.536   9.898 -0.5033 -0.0716 -1.7890
   23SAPC   H7Y 3074   5.795   6.560   9.912 -0.0625 -0.3687  0.5793
   23SAPC   C38 3075   5.710   6.592   9.711  0.1931 -0.6535 -0.3721
   23SAPC   H8X 3076   5.786   6.659   9.665  0.6517 -0.5647  0.5106
   23SAPC   H8Y 3077   5.607   6.621   9.679 -0.4779 -1.8407  0.6369
   23SAPC   C39 3078   5.735   6.450   9.666  0.4792 -0.0666 -0.9047
   23SAPC   H9X 3079   5.668   6.373   9.709  3.7938 -0.4528  4.0413
   23SAPC   H9Y 3080   5.829   6.409   9.710  0.3301  0.5169 -0.0284
   23SAPC  C310 3081   5.733   6.436   9.510 -0.7907 -0.0064 -0.5658
   23SAPC  H10X 3082   5.818   6.485   9.459 -0.3587 -1.0188 -0.8264
   23SAPC  H10Y 3083   5.641   6.485   9.471 -2.3099 -1.3998  1.1550
   23SAPC  C311 3084   5.729   6.285   9.481 -0.4306 -0.2341  0.0043
   23SAPC  H11X 3085   5.646   6.247   9.545 -1.5511  0.0256 -1.2838
   23SAPC  H11Y 3086   5.815   6.229   9.524  0.4864  1.1334 -0.0018
   23SAPC  C312 3087   5.702   6.239   9.342  0.7103  0.6287 -0.1625
   23SAPC  H12X 3088   5.607   6.282   9.306 -0.1754 -1.5929 -0.5849
   23SAPC  H12Y 3089   5.674   6.131   9.336  1.4906  0.2460  2.4903
   23SAPC  C313 3090   5.812   6.287   9.240  0.0267 -0.2874 -0.4713
   23SAPC  H13X 3091   5.796   6.218   9.155  0.5619 -2.2642  0.9677
   23SAPC  H13Y 3092   5.920   6.280   9.266 -0.5057 -0.8523  1.6861
   23SAPC  C314 3093   5.777   6.422   9.168  0.3604 -0.2426  0.1025
   23SAPC  H14X 3094   5.767   6.501   9.246  1.5486 -0.2628  0.2911
   23SAPC  H14Y 3095   5.692   6.411   9.098  0.2147  1.8111 -0.0801
   23SAPC  C315 3096   5.885   6.469   9.070 -0.3530 -0.5452  0.0917
   23SAPC  H15X 3097   5.916   6.386   9.002  3.4816  1.9622 -1.3917
   23SAPC  H15Y 3098   5.970   6.497   9.136 -2.0699  0.4685  1.8977
   23SAPC  C316 3099   5.840   6.596   8.986  0.5475  0.6680 -0.5357
   23SAPC  H16X 3100   5.834   6.679   9.059 -1.0900  0.7017 -0.6797
   23SAPC  H16Y 3101   5.743   6.566   8.941  1.4950  0.1054 -2.2722
   23SAPC  C317 3102   5.944   6.627   8.875  0.4227  0.0296 -0.3103
   23SAPC  H17X 3103   5.894   6.698   8.807 -1.1338 -0.6130  0.1545
   23SAPC  H17Y 3104   5.954   6.529   8.823 -3.0730  0.0479 -1.1053
   23SAPC  C318 3105   6.076   6.691   8.916 -0.4680 -0.3068  0.4397
   23SAPC  H18X 3106   6.148   6.709   8.833  0.0875  3.6611  1.6463
   23SAPC  H18Y 3107   6.123   6.614   8.981  0.4080  0.3270  0.5784
   23SAPC  H18Z 3108   6.060   6.778   8.984  0.3336 -0.1476  0.4330
   24SAPC     N 3109   0.019   6.168  11.337  0.4711 -0.3147  0.7220
   24SAPC   C12 3110  -0.056   6.199  11.205  0.0302  0.1885 -0.3546
   24SAPC  H12A 3111  -0.022   6.297  11.174  1.2901 -0.0632  0.2038
   24SAPC  H12B 3112  -0.161   6.211  11.229  0.0701 -3.1116  1.7954
   24SAPC   C13 3113  -0.021   6.269  11.442  0.6665 -0.4039  0.1368
   24SAPC  H13A 3114  -0.128   6.266  11.455  0.6561  0.7513  0.3614
   24SAPC  H13B 3115   0.018   6.227  11.534  3.0373  1.8312  0.2338
   24SAPC  H13C 3116   0.011   6.371  11.426  0.7510  0.2271  3.8687
   24SAPC   C14 3117  -0.027   6.033  11.386  0.1011 -1.0648 -0.3894
   24SAPC  H14A 3118   0.007   5.953  11.322  1.7233  0.3867 -1.3799
   24SAPC  H14B 3119   0.016   6.018  11.484 -1.1409  0.1674  0.3730
   24SAPC  H14C 3120  -0.133   6.025  11.407 -0.3300  1.3901 -1.4590
   24SAPC   C15 3121   0.160   6.169  11.323 -0.3881  0.4756 -0.2094
   24SAPC  H15A 3122   0.194   6.124  11.231 -0.1261 -0.5423  0.3784
   24SAPC  H15B 3123   0.209   6.265  11.318 -2.8270  1.6983 -1.0868
   24SAPC  H15C 3124   0.205   6.125  11.411 -0.7728  0.1857 -0.1517
   24SAPC   C11 3125  -0.011   6.117  11.080 -0.3825 -0.5153 -0.5442
   24SAPC  H11A 3126  -0.074   6.145  10.993 -1.9571  0.6063  0.9196
   24SAPC  H11B 3127  -0.036   6.011  11.102 -0.9024 -0.1178  0.8408
   24SAPC     P 3128   0.180   6.233  10.948 -0.3929  0.2796  0.0352
   24SAPC   O13 3129   0.139   6.212  10.807  0.4401 -0.5091 -0.1282
   24SAPC   O14 3130   0.143   6.367  11.006  0.5264 -1.0325  0.0131
   24SAPC   O12 3131   0.129   6.124  11.044  0.1066  0.3556  0.0919
   24SAPC   O11 3132   0.338   6.213  10.959 -0.1094  0.1645  0.5036
   24SAPC    C1 3133   0.388   6.077  10.979 -0.4177 -0.5287 -0.1271
   24SAPC    HA 3134   0.360   6.043  11.081 -1.8647 -0.1492 -0.3771
   24SAPC    HB 3135   0.356   5.995  10.911 -1.2851 -1.0383  0.8677
   24SAPC    C2 3136   0.545   6.068  10.980 -0.3369 -0.3449  0.3931
   24SAPC    HS 3137   0.588   6.115  11.071 -2.6203  0.7260  0.9467
   24SAPC   O21 3138   0.590   6.143  10.866 -0.3319  0.6084  0.4383
   24SAPC   C21 3139   0.719   6.163  10.856  0.2728  0.1186  0.0859
   24SAPC   O22 3140   0.804   6.130  10.935 -0.2514  0.3765  0.0329
   24SAPC   C22 3141   0.743   6.209  10.718 -0.6347  0.0575  0.3669
   24SAPC   H2R 3142   0.669   6.288  10.692 -2.2609 -0.6526  2.6636
   24SAPC   H2S 3143   0.843   6.256  10.727 -1.3147  1.1805  2.5242
   24SAPC    C3 3144   0.591   5.920  10.963  0.6824  0.0041 -0.5916
   24SAPC    HX 3145   0.533   5.868  11.042 -1.6945  3.3965  0.0021
   24SAPC    HY 3146   0.699   5.911  10.985  0.5360  2.3816  1.2584
   24SAPC   O31 3147   0.563   5.871  10.829 -0.5728 -0.5128 -0.6651
   24SAPC   C31 3148   0.565   5.741  10.827  1.1527  0.5749 -0.4285
   24SAPC   O32 3149   0.596   5.665  10.923 -0.2587 -0.5327 -0.3450
   24SAPC   C32 3150   0.528   5.699  10.682 -0.2473 -0.0407 -0.5908
   24SAPC   H2X 3151   0.455   5.616  10.693 -0.6454  0.4309  0.3626
   24SAPC   H2Y 3152   0.625   5.667  10.638  0.3434  0.0827  0.6235
   24SAPC   C23 3153   0.732   6.088  10.623  0.1692 -0.3086 -0.0124
   24SAPC   H3R 3154   0.630   6.043  10.629 -1.2881  2.8436 -0.0108
   24SAPC   H3S 3155   0.805   6.015  10.663  1.1515  0.5142 -0.2751
   24SAPC   C24 3156   0.770   6.122  10.477 -0.0330  0.5230  0.4912
   24SAPC   H4R 3157   0.860   6.188  10.480  1.0635 -0.8930 -0.7062
   24SAPC   H4S 3158   0.688   6.176  10.425  1.8240  0.4291 -2.7237
   24SAPC   C25 3159   0.794   5.991  10.400  0.0309  0.1604 -0.6500
   24SAPC   H5R 3160   0.731   5.906  10.431  1.2002 -0.6215 -0.3478
   24SAPC   C26 3161   0.894   5.964  10.314 -0.4078 -0.1217 -0.0651
   24SAPC   H6R 3162   0.897   5.864  10.268 -3.6591 -0.4293  0.2667
   24SAPC   C27 3163   0.998   6.067  10.262  0.2997 -0.0029 -0.6759
   24SAPC   H7R 3164   1.090   6.076  10.323  1.1471 -0.0881 -1.9202
   24SAPC   H7S 3165   0.952   6.167  10.264 -1.4340 -0.7368 -2.5874
   24SAPC   C28 3166   1.032   6.029  10.121 -0.5743  0.4566 -0.1935
   24SAPC   H8R 3167   1.127   5.975  10.119 -2.4248 -3.0169  0.7745
   24SAPC   C29 3168   0.956   6.064  10.014 -0.3563  0.8008 -0.0724
   24SAPC   H9R 3169   0.996   6.040   9.915  0.5610  1.9214  0.0147
   24SAPC  C210 3170   0.828   6.146  10.002 -0.0440 -0.5123  0.1288
   24SAPC  H10R 3171   0.866   6.246  10.034 -0.2584  0.1279 -1.5422
   24SAPC  H10S 3172   0.763   6.129  10.090  0.4475  0.9358  0.7950
   24SAPC  C211 3173   0.757   6.143   9.868 -0.2725 -0.7112 -0.5459
   24SAPC  H11R 3174   0.720   6.041   9.849 -0.3926 -1.2060  2.1014
   24SAPC  C212 3175   0.770   6.229   9.765 -0.3134  0.2639 -0.6163
   24SAPC  H12R 3176   0.718   6.208   9.670 -1.0603 -0.5351 -0.0375
   24SAPC  C213 3177   0.852   6.352   9.755  0.0524  0.3179  0.2166
   24SAPC  H13R 3178   0.852   6.408   9.851 -0.4444 -2.1964  1.7252
   24SAPC  H13S 3179   0.795   6.416   9.683  2.4026  1.4983 -0.6377
   24SAPC  C214 3180   0.984   6.336   9.691 -0.3373 -0.3998  0.5741
   24SAPC  H14R 3181   0.988   6.320   9.582  2.2573 -0.0309  0.5879
   24SAPC  C215 3182   1.103   6.339   9.756 -0.1647 -0.2002  0.5431
   24SAPC  H15R 3183   1.195   6.332   9.696  0.1870 -1.1842  1.1856
   24SAPC  C216 3184   1.134   6.354   9.904  0.1528  0.6309 -0.0748
   24SAPC  H16R 3185   1.218   6.289   9.936  0.5296  0.0383 -2.2426
   24SAPC  H16S 3186   1.043   6.322   9.959 -0.3506  0.2775 -1.1119
   24SAPC  C217 3187   1.163   6.496   9.950 -0.7520  0.1635  0.1329
   24SAPC  H17R 3188   1.082   6.569   9.927  2.3548  4.0204  0.8290
   24SAPC  H17S 3189   1.258   6.537   9.910 -0.4238 -0.4298  0.3099
   24SAPC  C218 3190   1.174   6.485  10.102 -0.3505 -0.2091  0.7255
   24SAPC  H18R 3191   1.248   6.406  10.123  2.2463  1.6084 -1.2663
   24SAPC  H18S 3192   1.078   6.448  10.144 -0.7542  0.8882  0.7940
   24SAPC  C219 3193   1.214   6.619  10.169 -0.0874 -0.3265  0.0256
   24SAPC  H19R 3194   1.319   6.645  10.143  0.3569 -0.8794  1.2378
   24SAPC  H19S 3195   1.204   6.607  10.279 -1.5203  0.2919 -0.0240
   24SAPC  C220 3196   1.136   6.742  10.124 -0.0947  0.6909 -0.5236
   24SAPC  H20R 3197   1.141   6.834  10.186 -0.5216  0.4925 -0.1848
   24SAPC  H20S 3198   1.025   6.729  10.119 -0.1922  1.9765 -2.3792
   24SAPC  H20T 3199   1.166   6.769  10.020  2.6952 -1.0810 -0.2372
   24SAPC   C33 3200   0.451   5.793  10.585  0.3065 -0.3122  0.0384
   24SAPC   H3X 3201   0.503   5.892  10.583  0.6242 -0.4626  0.6614
   24SAPC   H3Y 3202   0.350   5.811  10.628  1.3578 -0.4309  2.6421
   24SAPC   C34 3203   0.460   5.743  10.432  0.6962 -0.0111 -0.4322
   24SAPC   H4X 3204   0.421   5.639  10.433  0.3400  0.0780 -2.4997
   24SAPC   H4Y 3205   0.570   5.739  10.413  1.4390 -2.5742  3.6993
   24SAPC   C35 3206   0.401   5.843  10.330 -0.2053 -0.6469  0.1273
   24SAPC   H5X 3207   0.418   5.946  10.367  0.5011 -0.8491  0.3605
   24SAPC   H5Y 3208   0.291   5.830  10.340 -0.2370 -0.5759 -0.1197
   24SAPC   C36 3209   0.450   5.823  10.188 -0.8709  0.1247  0.1689
   24SAPC   H6X 3210   0.429   5.720  10.154 -0.2779 -0.6736  2.1858
   24SAPC   H6Y 3211   0.560   5.834  10.172 -1.0994 -0.5944 -2.0117
   24SAPC   C37 3212   0.384   5.928  10.092 -0.4775  0.2754 -0.5457
   24SAPC   H7X 3213   0.436   6.026  10.101  0.4168 -0.2832  0.6167
   24SAPC   H7Y 3214   0.276   5.942  10.114 -0.0677 -2.5275  3.9863
   24SAPC   C38 3215   0.407   5.889   9.950  0.3859  0.0398 -1.2584
   24SAPC   H8X 3216   0.353   5.799   9.916 -0.9654 -1.2203  3.8136
   24SAPC   H8Y 3217   0.514   5.877   9.921  0.8747  0.8737  0.1312
   24SAPC   C39 3218   0.359   6.002   9.859 -0.3883 -0.0538 -0.2474
   24SAPC   H9X 3219   0.383   6.104   9.897 -1.0624  0.2284 -0.5732
   24SAPC   H9Y 3220   0.248   6.002   9.849 -0.5933 -0.1931  1.6965
   24SAPC  C310 3221   0.388   5.967   9.710 -0.4101  0.3134  0.9168
   24SAPC  H10X 3222   0.328   5.879   9.678 -0.1987  0.9426 -1.3687
   24SAPC  H10Y 3223   0.495   5.946   9.692 -0.6681 -2.6390  2.5774
   24SAPC  C311 3224   0.333   6.070   9.614  0.9169  0.1710 -0.6752
   24SAPC  H11X 3225   0.397   6.159   9.631 -1.9171  1.5984  3.0673
   24SAPC  H11Y 3226   0.232   6.107   9.642  1.5864  1.4923  0.0300
   24SAPC  C312 3227   0.351   6.024   9.469  0.8843 -0.6130  0.6437
   24SAPC  H12X 3228   0.300   5.928   9.445 -1.9361  0.5776  1.7556
   24SAPC  H12Y 3229   0.462   6.015   9.458  1.0318  2.1212 -0.2976
   24SAPC  C313 3230   0.302   6.134   9.373  0.0566 -1.1429  0.5423
   24SAPC  H13X 3231   0.373   6.219   9.377 -1.2738  0.0512 -0.8140
   24SAPC  H13Y 3232   0.211   6.177   9.419 -0.5276 -0.6321 -1.0434
   24SAPC  C314 3233   0.283   6.101   9.226  0.5038 -0.2786  0.9973
   24SAPC  H14X 3234   0.251   5.994   9.227  0.4989 -0.4087 -3.1405
   24SAPC  H14Y 3235   0.384   6.115   9.182  1.1226  0.8915  2.7323
   24SAPC  C315 3236   0.179   6.192   9.147  0.0300  0.9093  0.0149
   24SAPC  H15X 3237   0.210   6.188   9.041 -1.7293 -1.3530 -0.4642
   24SAPC  H15Y 3238   0.177   6.297   9.183 -2.2749  1.0571 -0.4382
   24SAPC  C316 3239   0.041   6.136   9.163  0.5818  0.1269 -0.1733
   24SAPC  H16X 3240   0.008   6.125   9.269 -1.6415 -1.8886 -1.0219
   24SAPC  H16Y 3241   0.034   6.038   9.112  1.0805  0.0287 -0.0569
   24SAPC  C317 3242  -0.062   6.234   9.102 -0.3177  0.7364 -0.0959
   24SAPC  H17X 3243  -0.051   6.334   9.149 -0.1133  0.2324  0.9502
   24SAPC  H17Y 3244  -0.163   6.200   9.136  0.1738 -0.4568  0.2130
   24SAPC  C318 3245  -0.058   6.242   8.950  0.5992  0.3720 -0.5437
   24SAPC  H18X 3246  -0.079   6.138   8.917 -1.4557  0.5875  0.0002
   24SAPC  H18Y 3247   0.040   6.274   8.909  1.9245 -0.7450  1.6413
   24SAPC  H18Z 3248  -0.144   6.306   8.921 -0.9395 -1.2720  0.2972
   25SAPC     N 3249   3.283   3.900   5.763 -0.3576  0.1992 -0.5329
   25SAPC   C12 3250   3.266   3.935   5.909  1.1925 -0.7999 -0.2209
   25SAPC  H12A 3251   3.295   3.849   5.969 -0.0632 -0.8384  0.3516
   25SAPC  H12B 3252   3.166   3.968   5.929  0.9076 -1.0505 -1.1745
   25SAPC   C13 3253   3.183   3.806   5.728  0.0039 -0.5741  0.0963
   25SAPC  H13A 3254   3.082   3.822   5.762  0.6345  0.9750  1.2823
   25SAPC  H13B 3255   3.177   3.809   5.620 -0.7517  1.6416  0.1860
   25SAPC  H13C 3256   3.204   3.702   5.751  0.8114 -0.6638 -0.9580
   25SAPC   C14 3257   3.269   4.012   5.669 -0.1034 -0.7490  0.3491
   25SAPC  H14A 3258   3.282   3.987   5.565 -0.2221  0.2987  0.0743
   25SAPC  H14B 3259   3.167   4.046   5.667 -0.0153 -0.4932  0.1281
   25SAPC  H14C 3260   3.329   4.100   5.686  0.5578 -1.4709  1.8867
   25SAPC   C15 3261   3.425   3.838   5.739 -0.1781 -0.1739 -0.1448
   25SAPC  H15A 3262   3.503   3.910   5.758 -0.8298  0.6752 -0.6355
   25SAPC  H15B 3263   3.437   3.748   5.797 -0.2853  0.0482  0.2271
   25SAPC  H15C 3264   3.431   3.822   5.633  1.6808 -0.9704  0.0711
   25SAPC   C11 3265   3.352   4.065   5.954 -0.4408 -0.5591 -0.2481
   25SAPC  H11A 3266   3.456   4.075   5.917  0.4263 -1.1291  1.9733
   25SAPC  H11B 3267   3.359   4.051   6.064 -0.3525 -0.6494 -0.2654
   25SAPC     P 3268   3.144   4.223   5.999  0.0558 -0.0396  0.0702
   25SAPC   O13 3269   3.108   4.363   5.956 -0.1547  0.1495  0.2051
   25SAPC   O14 3270   3.035   4.130   5.969 -0.2973  0.2164  0.3843
   25SAPC   O12 3271   3.279   4.179   5.924 -0.1983  0.0569 -0.5565
   25SAPC   O11 3272   3.170   4.219   6.150 -0.0716 -0.4816  0.7751
   25SAPC    C1 3273   3.260   4.301   6.219  0.3953  0.2732 -0.3175
   25SAPC    HA 3274   3.357   4.293   6.166  1.2200 -2.3430  1.5385
   25SAPC    HB 3275   3.229   4.408   6.215 -1.1326 -0.1936 -1.6440
   25SAPC    C2 3276   3.281   4.263   6.366  0.6150  0.0621  0.3515
   25SAPC    HS 3277   3.360   4.327   6.409 -0.6056  0.5377  1.9468
   25SAPC   O21 3278   3.306   4.120   6.386 -0.2641  0.3401 -0.6384
   25SAPC   C21 3279   3.426   4.086   6.343 -0.4262 -1.0760  0.0236
   25SAPC   O22 3280   3.507   4.159   6.294 -0.0280 -0.1124 -0.1526
   25SAPC   C22 3281   3.450   3.943   6.391  0.1548  0.1918  0.3200
   25SAPC   H2R 3282   3.362   3.907   6.448 -0.2097  0.6277  0.0373
   25SAPC   H2S 3283   3.456   3.877   6.302 -1.5071  1.9263 -1.1286
   25SAPC    C3 3284   3.156   4.283   6.457 -0.5791  0.6633  0.4884
   25SAPC    HX 3285   3.178   4.229   6.551  1.2360  0.3032 -0.1334
   25SAPC    HY 3286   3.080   4.218   6.410  2.2365 -1.3829 -1.3632
   25SAPC   O31 3287   3.129   4.424   6.462 -0.3849 -0.2768  0.5252
   25SAPC   C31 3288   3.185   4.485   6.573  0.5731  0.1266 -0.1042
   25SAPC   O32 3289   3.275   4.435   6.638 -0.3466  0.3731  0.2824
   25SAPC   C32 3290   3.120   4.620   6.599 -0.7426 -0.1626  0.0391
   25SAPC   H2X 3291   3.014   4.593   6.614 -1.1272 -0.4996 -2.8969
   25SAPC   H2Y 3292   3.111   4.670   6.500 -2.5979  1.0245  0.7944
   25SAPC   C23 3293   3.579   3.920   6.468  0.4556  0.0587 -0.4240
   25SAPC   H3R 3294   3.662   3.982   6.427 -0.7311  2.4523  0.6947
   25SAPC   H3S 3295   3.609   3.814   6.451  2.0720  0.1971  1.4728
   25SAPC   C24 3296   3.560   3.945   6.616  0.3696  0.2003  0.2315
   25SAPC   H4R 3297   3.640   3.889   6.668  2.1168  1.2478 -1.2391
   25SAPC   H4S 3298   3.463   3.898   6.639  0.9025 -1.2622 -0.4250
   25SAPC   C25 3299   3.562   4.093   6.648 -0.0343  0.8316  0.0824
   25SAPC   H5R 3300   3.623   4.153   6.579 -0.1592  1.1368  0.2327
   25SAPC   C26 3301   3.481   4.154   6.741  0.2743 -0.0372  1.1682
   25SAPC   H6R 3302   3.493   4.261   6.762  1.7974  0.5515 -2.2875
   25SAPC   C27 3303   3.392   4.081   6.830  0.4164  0.7091 -0.0056
   25SAPC   H7R 3304   3.447   3.986   6.844  0.0872  0.6168  0.7252
   25SAPC   H7S 3305   3.296   4.054   6.781 -0.6351  0.6743  1.9947
   25SAPC   C28 3306   3.362   4.146   6.958 -0.1764 -0.2793 -0.0137
   25SAPC   H8R 3307   3.319   4.247   6.944  1.4911  0.5202  0.5664
   25SAPC   C29 3308   3.388   4.109   7.086  0.8070  0.6704 -0.3658
   25SAPC   H9R 3309   3.382   4.186   7.164  1.1060  0.2984  0.0243
   25SAPC  C210 3310   3.467   3.983   7.113  0.5952  0.1684 -0.2773
   25SAPC  H10R 3311   3.445   3.900   7.042 -1.7541 -1.1304  1.8753
   25SAPC  H10S 3312   3.441   3.937   7.211  0.6086  1.9398  0.5725
   25SAPC  C211 3313   3.618   4.016   7.108 -0.4216 -0.3166 -1.0134
   25SAPC  H11R 3314   3.662   4.010   7.007 -0.1486  2.2482 -1.0788
   25SAPC  C212 3315   3.689   4.045   7.220 -0.4284 -0.4184 -0.4913
   25SAPC  H12R 3316   3.796   4.066   7.204 -0.6515  0.5313 -0.7324
   25SAPC  C213 3317   3.629   4.062   7.360  0.5398 -0.9736 -1.1774
   25SAPC  H13R 3318   3.579   3.971   7.398 -0.5824  0.4812  0.9462
   25SAPC  H13S 3319   3.548   4.136   7.339  1.8292  0.5202 -1.0033
   25SAPC  C214 3320   3.738   4.108   7.459  1.1659  0.0319 -0.2229
   25SAPC  H14R 3321   3.722   4.210   7.497 -3.1306 -0.8393  0.6550
   25SAPC  C215 3322   3.851   4.038   7.495  0.2007 -0.0097  0.1232
   25SAPC  H15R 3323   3.909   4.089   7.574 -0.6014  0.1459  0.6212
   25SAPC  C216 3324   3.890   3.891   7.466 -0.0308 -1.0951 -0.3736
   25SAPC  H16R 3325   4.001   3.897   7.457 -0.1484 -0.6820 -1.5364
   25SAPC  H16S 3326   3.848   3.862   7.368 -1.9256 -0.0841  0.1257
   25SAPC  C217 3327   3.849   3.784   7.569 -0.5408  0.4174  0.1389
   25SAPC  H17R 3328   3.870   3.826   7.669 -1.6766 -0.6844  0.8522
   25SAPC  H17S 3329   3.919   3.699   7.557 -2.8846 -1.4730 -0.5586
   25SAPC  C218 3330   3.705   3.746   7.552 -0.0932 -0.2072 -0.3991
   25SAPC  H18R 3331   3.686   3.720   7.446 -0.5448  3.6439 -1.3311
   25SAPC  H18S 3332   3.652   3.837   7.587  2.5673  1.9355 -1.7601
   25SAPC  C219 3333   3.662   3.623   7.631 -0.1136  0.4799  0.1183
   25SAPC  H19R 3334   3.722   3.538   7.592 -1.7218  0.2376 -1.9354
   25SAPC  H19S 3335   3.555   3.605   7.605 -0.5785  4.0118 -0.6744
   25SAPC  C220 3336   3.678   3.635   7.782  0.4591 -0.0776  0.7353
   25SAPC  H20R 3337   3.647   3.537   7.823  0.7797 -0.2815  0.4910
   25SAPC  H20S 3338   3.616   3.719   7.819 -1.5148 -1.2935  0.2741
   25SAPC  H20T 3339   3.785   3.658   7.803  0.7334  1.8381 -2.4211
   25SAPC   C33 3340   3.186   4.713   6.699  1.0062  0.2737  0.2860
   25SAPC   H3X 3341   3.152   4.815   6.672  0.2656  0.3048  1.2997
   25SAPC   H3Y 3342   3.297   4.719   6.703  1.2137 -3.1297  1.9053
   25SAPC   C34 3343   3.140   4.695   6.847  1.4667 -0.3288  0.0880
   25SAPC   H4X 3344   3.029   4.692   6.844  1.3633  2.9098 -1.2465
   25SAPC   H4Y 3345   3.166   4.789   6.900  0.9790  0.0561 -0.3635
   25SAPC   C35 3346   3.194   4.585   6.937 -0.6298  0.3758 -0.3563
   25SAPC   H5X 3347   3.302   4.595   6.960 -0.0035 -1.8043 -2.1593
   25SAPC   H5Y 3348   3.166   4.488   6.891 -1.3786  0.2572  0.3410
   25SAPC   C36 3349   3.126   4.592   7.076 -0.2858 -0.6387 -0.5328
   25SAPC   H6X 3350   3.017   4.574   7.064 -0.6295  0.6908  0.4905
   25SAPC   H6Y 3351   3.142   4.693   7.119 -1.1552  0.0355 -1.7459
   25SAPC   C37 3352   3.208   4.482   7.159  0.0505 -0.2894  0.2168
   25SAPC   H7X 3353   3.311   4.519   7.179 -0.5616  0.8295  1.3149
   25SAPC   H7Y 3354   3.215   4.389   7.099  1.8350 -0.1302  0.1551
   25SAPC   C38 3355   3.155   4.450   7.296 -0.0122  0.7521 -0.4402
   25SAPC   H8X 3356   3.064   4.386   7.301 -0.5716  1.5595 -0.1196
   25SAPC   H8Y 3357   3.125   4.541   7.353 -1.2627  0.0552  0.0339
   25SAPC   C39 3358   3.263   4.375   7.380  0.1237 -0.3687  0.6830
   25SAPC   H9X 3359   3.335   4.320   7.314 -2.7124 -1.7061 -1.4305
   25SAPC   H9Y 3360   3.213   4.290   7.433  1.6833  0.0490  2.8760
   25SAPC  C310 3361   3.335   4.465   7.483  0.1358  0.4005 -0.0119
   25SAPC  H10X 3362   3.268   4.515   7.556  0.8458  2.2197 -0.5907
   25SAPC  H10Y 3363   3.378   4.559   7.442  0.3409  1.0178  1.6075
   25SAPC  C311 3364   3.443   4.383   7.568  0.7038  0.2778  0.4285
   25SAPC  H11X 3365   3.496   4.453   7.636  2.6016 -0.0746 -0.6459
   25SAPC  H11Y 3366   3.515   4.342   7.494  0.6682  2.1607 -0.6733
   25SAPC  C312 3367   3.382   4.266   7.640 -0.3625  0.4117  0.1421
   25SAPC  H12X 3368   3.339   4.193   7.568  1.5233 -0.2141 -0.3887
   25SAPC  H12Y 3369   3.303   4.320   7.696  0.9629  0.4029  2.0339
   25SAPC  C313 3370   3.479   4.203   7.743  0.4545  0.2490  0.2625
   25SAPC  H13X 3371   3.566   4.269   7.760 -0.3720  0.9783  1.8034
   25SAPC  H13Y 3372   3.514   4.099   7.723 -0.0935 -0.5469  3.1304
   25SAPC  C314 3373   3.416   4.190   7.890  0.3714 -0.2189  0.1389
   25SAPC  H14X 3374   3.315   4.144   7.883 -0.0473  0.4277  1.7105
   25SAPC  H14Y 3375   3.391   4.291   7.930 -2.6215 -1.3726  1.3405
   25SAPC  C315 3376   3.503   4.111   7.991 -0.9703  0.9694 -0.5618
   25SAPC  H15X 3377   3.516   4.007   7.953 -0.9930 -0.1112  2.2691
   25SAPC  H15Y 3378   3.449   4.096   8.087  1.8114  0.7418  1.0493
   25SAPC  C316 3379   3.644   4.175   8.022  0.7156  0.3610 -0.1328
   25SAPC  H16X 3380   3.629   4.282   8.049 -2.4101 -0.0836  0.1053
   25SAPC  H16Y 3381   3.687   4.190   7.921 -1.7373  2.3850 -0.9227
   25SAPC  C317 3382   3.743   4.096   8.107 -0.1055 -0.0351  0.3317
   25SAPC  H17X 3383   3.702   4.080   8.208 -1.1671 -1.6962 -0.3439
   25SAPC  H17Y 3384   3.841   4.147   8.115  0.4278 -1.0187  0.1296
   25SAPC  C318 3385   3.784   3.954   8.052 -0.6404 -0.4278  0.3316
   25SAPC  H18X 3386   3.814   3.950   7.945 -0.0912 -2.2364  0.5342
   25SAPC  H18Y 3387   3.696   3.891   8.077 -0.4288 -1.0305 -0.4341
   25SAPC  H18Z 3388   3.877   3.913   8.098  0.9710  0.6264 -1.9045
   26SAPC     N 3389   2.238   5.550   6.020 -0.1444 -0.0978  0.1124
   26SAPC   C12 3390   2.327   5.469   6.102 -0.6664  0.4798 -0.0449
   26SAPC  H12A 3391   2.343   5.372   6.058 -0.5681 -0.8542  2.8320
   26SAPC  H12B 3392   2.274   5.454   6.195  0.4593 -0.2271  0.4987
   26SAPC   C13 3393   2.180   5.673   6.094 -0.6198  0.6527  0.0463
   26SAPC  H13A 3394   2.122   5.633   6.176 -1.8879 -1.2729 -1.7305
   26SAPC  H13B 3395   2.257   5.737   6.135 -0.7150  0.5099  0.4519
   26SAPC  H13C 3396   2.118   5.733   6.029  1.2323  1.2154 -1.2512
   26SAPC   C14 3397   2.305   5.604   5.900  0.1744  0.4276  0.5714
   26SAPC  H14A 3398   2.350   5.528   5.837 -1.0378 -0.7302  1.0903
   26SAPC  H14B 3399   2.233   5.658   5.840 -0.2019 -0.1516  0.4897
   26SAPC  H14C 3400   2.378   5.675   5.935  0.6423  0.7115 -0.9173
   26SAPC   C15 3401   2.127   5.464   5.971  0.0206 -0.4682 -0.1800
   26SAPC  H15A 3402   2.073   5.418   6.052  2.4964  2.6402  3.3873
   26SAPC  H15B 3403   2.062   5.528   5.912 -0.5185  0.2921  1.2171
   26SAPC  H15C 3404   2.168   5.389   5.905  0.8357  0.1781 -0.4207
   26SAPC   C11 3405   2.467   5.515   6.150 -0.2181  0.2794 -0.7419
   26SAPC  H11A 3406   2.522   5.539   6.057  2.9093 -0.8301  0.7675
   26SAPC  H11B 3407   2.520   5.425   6.189 -1.0329 -0.3790 -1.1245
   26SAPC     P 3408   2.585   5.646   6.349 -0.1946 -0.2190  0.1097
   26SAPC   O13 3409   2.703   5.698   6.278  0.0006 -0.1477 -0.0671
   26SAPC   O14 3410   2.535   5.740   6.457  0.3195  0.4146  0.4140
   26SAPC   O12 3411   2.466   5.623   6.242  0.0795  0.3861  0.5008
   26SAPC   O11 3412   2.617   5.505   6.412 -0.2608  0.3139  0.2490
   26SAPC    C1 3413   2.505   5.444   6.483  0.0988  0.8143 -0.0008
   26SAPC    HA 3414   2.406   5.456   6.436 -0.0333  0.9453  0.3083
   26SAPC    HB 3415   2.514   5.333   6.480  0.4688  0.8157  0.8024
   26SAPC    C2 3416   2.503   5.479   6.638 -0.3658  0.6663 -0.0661
   26SAPC    HS 3417   2.483   5.588   6.645 -0.4048  0.6603 -0.0830
   26SAPC   O21 3418   2.626   5.437   6.696  0.3207 -0.2340  0.1566
   26SAPC   C21 3419   2.667   5.509   6.807  0.9390  0.2523  0.0067
   26SAPC   O22 3420   2.607   5.608   6.847 -0.0248  0.4172 -0.7409
   26SAPC   C22 3421   2.802   5.467   6.873 -0.1902  0.1220 -0.4070
   26SAPC   H2R 3422   2.883   5.492   6.802  0.6959  0.1778  0.6098
   26SAPC   H2S 3423   2.812   5.528   6.965  1.7397  0.9367 -1.1247
   26SAPC    C3 3424   2.393   5.394   6.707  0.1679 -0.3839 -0.0643
   26SAPC    HX 3425   2.419   5.289   6.684 -0.0732 -0.3998 -0.2603
   26SAPC    HY 3426   2.295   5.411   6.659  0.4007  0.6092 -0.2106
   26SAPC   O31 3427   2.392   5.414   6.847 -0.5633  0.0850 -0.4074
   26SAPC   C31 3428   2.296   5.495   6.895 -0.3859  0.0656 -0.1378
   26SAPC   O32 3429   2.198   5.534   6.838 -0.0314 -0.4598 -0.3619
   26SAPC   C32 3430   2.324   5.516   7.043 -0.0002 -0.2577 -0.1046
   26SAPC   H2X 3431   2.412   5.455   7.070  3.1669  2.2403 -4.2414
   26SAPC   H2Y 3432   2.240   5.470   7.100  0.4363  1.6962  2.2132
   26SAPC   C23 3433   2.798   5.314   6.900 -1.0783  0.3659 -0.2442
   26SAPC   H3R 3434   2.772   5.260   6.806 -0.3006 -1.3731  0.5242
   26SAPC   H3S 3435   2.713   5.303   6.971 -2.6759 -0.6432 -2.2366
   26SAPC   C24 3436   2.935   5.261   6.961  0.0757 -0.2298 -0.2286
   26SAPC   H4R 3437   3.016   5.300   6.896  0.4652 -1.2430 -0.3578
   26SAPC   H4S 3438   2.928   5.150   6.960  0.6135 -0.3114  2.3955
   26SAPC   C25 3439   2.963   5.320   7.101  0.4536 -0.4375 -0.0601
   26SAPC   H5R 3440   2.976   5.430   7.095  0.2090 -0.3767  0.5017
   26SAPC   C26 3441   2.971   5.259   7.224 -0.6426 -0.4731  0.2872
   26SAPC   H6R 3442   2.988   5.321   7.314 -0.8105 -0.9853  0.6723
   26SAPC   C27 3443   2.963   5.116   7.249 -0.9568  0.2373 -0.1622
   26SAPC   H7R 3444   2.923   5.064   7.159  0.7699  1.1268 -1.4575
   26SAPC   H7S 3445   2.890   5.088   7.329 -0.9457  0.2432 -0.1500
   26SAPC   C28 3446   3.086   5.034   7.287  0.5281  0.7614  0.3700
   26SAPC   H8R 3447   3.151   4.995   7.208 -0.3477  0.0526 -0.0021
   26SAPC   C29 3448   3.124   5.024   7.416  0.2235  0.2523 -0.5925
   26SAPC   H9R 3449   3.216   4.967   7.430  0.6194  0.4242 -2.3797
   26SAPC  C210 3450   3.066   5.079   7.539  0.6400  0.9149  0.1406
   26SAPC  H10R 3451   2.991   5.155   7.508  1.5086  1.3506 -0.9309
   26SAPC  H10S 3452   3.156   5.126   7.586 -0.3373  2.1515  0.8058
   26SAPC  C211 3453   3.008   4.967   7.628 -0.7205 -0.2270 -0.2358
   26SAPC  H11R 3454   2.905   4.939   7.605 -1.2234 -1.0146  2.7268
   26SAPC  C212 3455   3.068   4.902   7.730 -0.2248  0.5562 -0.2994
   26SAPC  H12R 3456   3.024   4.817   7.785  1.4867 -1.0756 -1.3710
   26SAPC  C213 3457   3.211   4.931   7.773 -0.2835 -0.2646 -0.0213
   26SAPC  H13R 3458   3.207   4.953   7.882 -0.1579 -1.0177  0.1346
   26SAPC  H13S 3459   3.243   5.025   7.722 -0.3599 -0.5399 -0.5730
   26SAPC  C214 3460   3.310   4.819   7.753  0.3690  0.0949  0.5404
   26SAPC  H14R 3461   3.327   4.800   7.646 -0.1717  1.4460  0.2037
   26SAPC  C215 3462   3.369   4.735   7.841  0.3242  0.3067 -0.0063
   26SAPC  H15R 3463   3.433   4.652   7.805 -0.4499 -1.2165  2.0627
   26SAPC  C216 3464   3.345   4.731   7.990 -0.4573  0.6769 -0.4309
   26SAPC  H16R 3465   3.305   4.826   8.032 -0.9768 -0.6308  2.1164
   26SAPC  H16S 3466   3.430   4.716   8.060 -1.3351 -0.4531  0.4207
   26SAPC  C217 3467   3.234   4.627   8.007 -0.3940 -0.3032  0.6156
   26SAPC  H17R 3468   3.268   4.522   7.992 -2.3667 -0.7060 -1.2422
   26SAPC  H17S 3469   3.148   4.643   7.939 -1.8720 -0.2514  2.4626
   26SAPC  C218 3470   3.168   4.635   8.148 -0.9429 -0.0693  0.7452
   26SAPC  H18R 3471   3.136   4.739   8.171 -0.8725  0.1285 -0.0240
   26SAPC  H18S 3472   3.253   4.628   8.219  1.1034  2.0275 -1.3716
   26SAPC  C219 3473   3.059   4.535   8.162  0.1499 -0.8021 -0.2649
   26SAPC  H19R 3474   2.982   4.563   8.086 -0.7346  1.1726  1.3031
   26SAPC  H19S 3475   3.016   4.543   8.264  1.1987 -1.3001  0.2215
   26SAPC  C220 3476   3.107   4.395   8.140  0.1259 -0.4929  0.0262
   26SAPC  H20R 3477   3.029   4.319   8.161 -0.6927  0.7000  1.3938
   26SAPC  H20S 3478   3.190   4.371   8.210 -0.6028  1.3520  1.5527
   26SAPC  H20T 3479   3.140   4.372   8.036 -2.8766 -1.7569 -0.7041
   26SAPC   C33 3480   2.324   5.664   7.088 -0.0736 -1.2256  0.1370
   26SAPC   H3X 3481   2.220   5.704   7.086  0.3875 -0.0592 -0.7149
   26SAPC   H3Y 3482   2.381   5.723   7.014 -1.7434 -1.3472 -1.2940
   26SAPC   C34 3483   2.388   5.681   7.222  0.2474  0.2504  0.0706
   26SAPC   H4X 3484   2.338   5.623   7.302 -0.5981  0.2675 -0.4372
   26SAPC   H4Y 3485   2.385   5.785   7.260  0.1607  0.5811 -0.8183
   26SAPC   C35 3486   2.538   5.632   7.222  0.4794  0.3178  0.5362
   26SAPC   H5X 3487   2.601   5.672   7.140  3.8472  0.5670  3.0889
   26SAPC   H5Y 3488   2.543   5.521   7.209  3.1642  0.3243  1.1840
   26SAPC   C36 3489   2.610   5.669   7.354 -0.3118 -0.2393 -0.5665
   26SAPC   H6X 3490   2.537   5.662   7.437  0.9912  1.3912  0.7677
   26SAPC   H6Y 3491   2.642   5.775   7.345 -2.1191  0.2173 -1.9449
   26SAPC   C37 3492   2.732   5.575   7.383 -0.3461  0.5320  0.1240
   26SAPC   H7X 3493   2.823   5.602   7.325 -0.1087 -1.8200 -0.6798
   26SAPC   H7Y 3494   2.697   5.475   7.348 -0.5337  0.8689 -0.6450
   26SAPC   C38 3495   2.769   5.569   7.534 -0.3269  0.3011  0.8559
   26SAPC   H8X 3496   2.678   5.552   7.596 -0.0996 -2.8727  0.3933
   26SAPC   H8Y 3497   2.806   5.673   7.548  0.8709  0.3690 -2.4083
   26SAPC   C39 3498   2.862   5.448   7.560  0.2823  0.4325  0.6240
   26SAPC   H9X 3499   2.954   5.451   7.499  0.8924  2.1559  1.5755
   26SAPC   H9Y 3500   2.802   5.355   7.551 -0.2018  1.0111 -2.6924
   26SAPC  C310 3501   2.919   5.478   7.698 -0.0337 -0.1037  1.1315
   26SAPC  H10X 3502   2.847   5.486   7.782 -0.1802 -0.5504  1.0522
   26SAPC  H10Y 3503   2.974   5.574   7.693  0.2186 -0.2360  1.4584
   26SAPC  C311 3504   3.004   5.350   7.739  0.0443  0.3970 -0.1853
   26SAPC  H11X 3505   3.072   5.320   7.656  1.8835 -2.1249  2.1383
   26SAPC  H11Y 3506   2.934   5.266   7.757 -2.1831  2.0838 -0.8030
   26SAPC  C312 3507   3.095   5.386   7.866  0.2011  0.1273 -0.1742
   26SAPC  H12X 3508   3.030   5.416   7.950 -0.6801 -2.0193 -0.0409
   26SAPC  H12Y 3509   3.138   5.483   7.835 -0.2453  1.2514  2.6479
   26SAPC  C313 3510   3.192   5.272   7.902  0.2054 -0.0534 -0.5801
   26SAPC  H13X 3511   3.278   5.253   7.834  0.4230  1.0369 -0.6238
   26SAPC  H13Y 3512   3.132   5.178   7.901  1.4851 -0.9174  1.0541
   26SAPC  C314 3513   3.251   5.293   8.050 -0.0268  0.0622  0.3153
   26SAPC  H14X 3514   3.291   5.396   8.054 -3.4747  1.4526  0.9324
   26SAPC  H14Y 3515   3.326   5.216   8.078  0.2774  0.3920  0.4105
   26SAPC  C315 3516   3.138   5.269   8.167 -0.5752 -0.4341  0.4273
   26SAPC  H15X 3517   3.081   5.177   8.143 -1.1646 -0.2055  0.9264
   26SAPC  H15Y 3518   3.072   5.357   8.149  0.7858  0.2915 -1.0982
   26SAPC  C316 3519   3.199   5.252   8.304 -0.4899 -0.0835 -0.5916
   26SAPC  H16X 3520   3.252   5.343   8.338 -2.8586  1.0085  0.3457
   26SAPC  H16Y 3521   3.275   5.171   8.309 -0.9538 -0.3682  3.5607
   26SAPC  C317 3522   3.091   5.199   8.406 -0.1272  0.1499  0.0086
   26SAPC  H17X 3523   3.140   5.139   8.486 -0.6732  1.3660  1.2821
   26SAPC  H17Y 3524   3.022   5.126   8.360 -1.3738  2.1904 -1.4811
   26SAPC  C318 3525   3.002   5.309   8.467 -0.3650  0.2453 -0.2739
   26SAPC  H18X 3526   3.056   5.400   8.501  0.9772 -0.6997  0.1867
   26SAPC  H18Y 3527   2.943   5.274   8.554  0.4560 -1.6176 -0.4288
   26SAPC  H18Z 3528   2.933   5.339   8.386  2.0025 -0.7531 -2.7367
   27SAPC     N 3529   0.372   6.817   6.680  0.8048 -0.3788 -0.2464
   27SAPC   C12 3530   0.277   6.699   6.667 -0.9228 -0.1651 -0.7216
   27SAPC  H12A 3531   0.227   6.696   6.571  2.1045  0.1972 -2.3930
   27SAPC  H12B 3532   0.194   6.715   6.734 -0.8833  2.4647 -1.2467
   27SAPC   C13 3533   0.309   6.939   6.619 -0.0968 -0.1898 -0.3430
   27SAPC  H13A 3534   0.363   7.027   6.651  0.4648 -0.7039  0.1137
   27SAPC  H13B 3535   0.317   6.939   6.511  0.3132  2.2009 -0.3549
   27SAPC  H13C 3536   0.205   6.958   6.644 -0.8342 -0.6711 -2.9509
   27SAPC   C14 3537   0.388   6.844   6.822 -0.3429  0.2501 -0.4688
   27SAPC  H14A 3538   0.418   6.752   6.870  2.1608  0.1795 -2.0943
   27SAPC  H14B 3539   0.468   6.916   6.830 -0.2724  0.2306 -1.0030
   27SAPC  H14C 3540   0.299   6.882   6.871 -0.0115  3.4612 -2.1872
   27SAPC   C15 3541   0.504   6.785   6.634 -0.1703  0.4623  0.6772
   27SAPC  H15A 3542   0.570   6.870   6.623  1.6572 -1.1889 -1.7744
   27SAPC  H15B 3543   0.541   6.705   6.697  0.1595 -0.3018 -0.4680
   27SAPC  H15C 3544   0.496   6.754   6.531  0.0228  2.2662  0.1116
   27SAPC   C11 3545   0.337   6.560   6.713  0.0994  0.4719  0.9100
   27SAPC  H11A 3546   0.412   6.531   6.636  0.3122  1.1125  0.8724
   27SAPC  H11B 3547   0.259   6.483   6.699 -0.2007  0.5766  1.9842
   27SAPC     P 3548   0.521   6.481   6.890 -0.5562  0.1930 -0.0045
   27SAPC   O13 3549   0.610   6.475   6.769  0.6254  0.3361  0.0022
   27SAPC   O14 3550   0.570   6.555   7.005 -0.3967 -0.2225 -0.2507
   27SAPC   O12 3551   0.396   6.561   6.842 -0.0797  0.2198  0.6706
   27SAPC   O11 3552   0.473   6.338   6.937  0.0607 -0.2692  0.3288
   27SAPC    C1 3553   0.364   6.281   6.872 -0.1476  0.5595 -0.0696
   27SAPC    HA 3554   0.268   6.330   6.899 -1.3285 -1.9675  0.4673
   27SAPC    HB 3555   0.370   6.282   6.761  0.7711 -0.7974 -0.0369
   27SAPC    C2 3556   0.349   6.135   6.916 -0.2683 -0.1085  0.7260
   27SAPC    HS 3557   0.255   6.103   6.867 -0.7137  0.5417  1.1551
   27SAPC   O21 3558   0.348   6.127   7.061  0.3868  0.5503  1.1542
   27SAPC   C21 3559   0.249   6.174   7.125 -0.5390  0.7849 -0.4812
   27SAPC   O22 3560   0.134   6.183   7.080 -0.1185  0.2196 -0.3198
   27SAPC   C22 3561   0.294   6.214   7.265  0.2205 -0.5748  0.6087
   27SAPC   H2R 3562   0.405   6.207   7.271  0.3985  1.2886 -0.0189
   27SAPC   H2S 3563   0.275   6.324   7.266  0.5490 -0.4547 -1.7324
   27SAPC    C3 3564   0.448   6.031   6.864  0.1700  0.3113 -0.0988
   27SAPC    HX 3565   0.543   6.051   6.919  0.5825 -2.6135  0.3194
   27SAPC    HY 3566   0.469   6.049   6.757 -1.5020 -1.1222 -0.6770
   27SAPC   O31 3567   0.401   5.895   6.882  0.2372 -0.0399  0.0988
   27SAPC   C31 3568   0.486   5.801   6.843 -0.2528 -0.4052 -0.5348
   27SAPC   O32 3569   0.596   5.829   6.789  0.2080 -0.4571  0.1576
   27SAPC   C32 3570   0.420   5.659   6.873  0.1162  0.6313 -0.0945
   27SAPC   H2X 3571   0.406   5.619   6.770 -1.7407 -1.2358  0.8323
   27SAPC   H2Y 3572   0.322   5.678   6.921  0.5294  1.6247  0.3655
   27SAPC   C23 3573   0.216   6.159   7.380 -0.0324  0.5505  0.2316
   27SAPC   H3R 3574   0.218   6.049   7.392 -0.7038  0.5262  0.1105
   27SAPC   H3S 3575   0.113   6.199   7.373 -0.4646 -0.7651 -1.1005
   27SAPC   C24 3576   0.261   6.212   7.517  0.0454 -0.1217  0.0856
   27SAPC   H4R 3577   0.176   6.186   7.584  0.1522  1.6501  0.9523
   27SAPC   H4S 3578   0.250   6.323   7.510 -1.0923 -0.1183  1.7056
   27SAPC   C25 3579   0.397   6.161   7.563  0.1257 -0.2939 -0.2221
   27SAPC   H5R 3580   0.476   6.170   7.487 -0.8424  0.3597 -1.1631
   27SAPC   C26 3581   0.422   6.099   7.684  0.1654  0.0069 -0.1785
   27SAPC   H6R 3582   0.527   6.070   7.702 -0.2470 -1.2001  0.3310
   27SAPC   C27 3583   0.325   6.083   7.794  0.2846 -0.1391  0.3405
   27SAPC   H7R 3584   0.224   6.081   7.750  0.1622 -0.9981  0.6395
   27SAPC   H7S 3585   0.312   6.173   7.857  0.3186 -1.1923  1.8929
   27SAPC   C28 3586   0.351   5.964   7.880  0.2720 -0.0027  0.8514
   27SAPC   H8R 3587   0.373   5.874   7.820  0.9201 -0.2093  1.3995
   27SAPC   C29 3588   0.341   5.958   8.012 -0.3052 -0.3713  0.6555
   27SAPC   H9R 3589   0.349   5.861   8.062  1.7667  0.4348  1.9539
   27SAPC  C210 3590   0.304   6.065   8.104  0.0228 -0.4908  0.3116
   27SAPC  H10R 3591   0.305   6.162   8.050 -0.8998 -0.7231 -0.1401
   27SAPC  H10S 3592   0.384   6.076   8.180 -1.3201  1.4401  1.4935
   27SAPC  C211 3593   0.158   6.060   8.154 -0.0071  0.0605  0.9527
   27SAPC  H11R 3594   0.087   6.050   8.071 -0.4969 -0.3142  1.4097
   27SAPC  C212 3595   0.118   6.075   8.282 -0.4306 -1.1222 -0.2141
   27SAPC  H12R 3596   0.014   6.045   8.302 -0.6317  1.2954  2.6958
   27SAPC  C213 3597   0.204   6.086   8.405 -0.4538 -0.1588  1.0101
   27SAPC  H13R 3598   0.194   6.190   8.440 -0.2684  0.1649  0.1246
   27SAPC  H13S 3599   0.310   6.076   8.372 -0.1123  2.2226  1.3269
   27SAPC  C214 3600   0.181   5.995   8.523 -0.3221  0.8106  0.2293
   27SAPC  H14R 3601   0.267   5.931   8.548 -1.2690 -0.6312 -0.1833
   27SAPC  C215 3602   0.067   6.007   8.600 -0.5295  0.2432  0.4016
   27SAPC  H15R 3603   0.059   5.944   8.690  1.4795  1.3021  1.3620
   27SAPC  C216 3604  -0.039   6.110   8.584 -0.2950  0.1433  0.4154
   27SAPC  H16R 3605  -0.020   6.170   8.493 -1.3178  0.8111  0.6315
   27SAPC  H16S 3606  -0.039   6.173   8.675 -2.1147  1.2002 -0.3030
   27SAPC  C217 3607  -0.178   6.047   8.566  0.2273  0.2491 -0.0387
   27SAPC  H17R 3608  -0.180   5.989   8.472 -0.9950  1.0782 -0.5398
   27SAPC  H17S 3609  -0.259   6.122   8.553 -1.6466 -2.1181 -2.4852
   27SAPC  C218 3610  -0.234   5.970   8.687 -0.7828 -0.8799 -0.3714
   27SAPC  H18R 3611  -0.259   6.035   8.774  0.8593  0.8971 -1.1810
   27SAPC  H18S 3612  -0.154   5.904   8.726  0.8072  0.4597 -1.2890
   27SAPC  C219 3613  -0.370   5.896   8.670  0.6758  0.5901 -0.3264
   27SAPC  H19R 3614  -0.355   5.814   8.595 -1.2621 -0.4237  0.3650
   27SAPC  H19S 3615  -0.451   5.952   8.618 -1.0687 -1.9241 -0.4287
   27SAPC  C220 3616  -0.415   5.843   8.802 -0.0121  0.0149 -0.4629
   27SAPC  H20R 3617  -0.347   5.770   8.851 -0.2612  0.9508  1.3117
   27SAPC  H20S 3618  -0.515   5.796   8.792 -0.4049  0.6825  0.2879
   27SAPC  H20T 3619  -0.430   5.913   8.886 -1.7975 -1.0317  0.1167
   27SAPC   C33 3620   0.520   5.575   6.947 -0.5607 -0.3446  0.1103
   27SAPC   H3X 3621   0.620   5.588   6.900  0.0652  0.5190  1.6637
   27SAPC   H3Y 3622   0.495   5.466   6.939 -0.4523 -0.3793  0.2455
   27SAPC   C34 3623   0.537   5.612   7.089 -0.4100 -0.4071 -1.1604
   27SAPC   H4X 3624   0.549   5.721   7.108  0.7844 -0.7105 -0.1405
   27SAPC   H4Y 3625   0.637   5.579   7.124 -0.8070  0.1040  0.5295
   27SAPC   C35 3626   0.420   5.569   7.173 -0.1761 -0.5911 -0.5990
   27SAPC   H5X 3627   0.397   5.462   7.155 -2.6100  0.1589 -2.2934
   27SAPC   H5Y 3628   0.326   5.618   7.138  0.3584  0.2696 -0.8645
   27SAPC   C36 3629   0.445   5.603   7.326 -0.3665  0.0929  0.5001
   27SAPC   H6X 3630   0.453   5.714   7.323 -0.9813  0.1290 -0.0680
   27SAPC   H6Y 3631   0.538   5.550   7.354 -1.9695 -2.4895  1.0068
   27SAPC   C37 3632   0.337   5.537   7.408  0.2212  0.0929 -0.5694
   27SAPC   H7X 3633   0.356   5.428   7.404 -0.7866 -0.0295 -2.6393
   27SAPC   H7Y 3634   0.242   5.566   7.358  0.2843 -2.5855 -2.3108
   27SAPC   C38 3635   0.343   5.569   7.557  0.1559 -0.4787  0.6278
   27SAPC   H8X 3636   0.260   5.522   7.614 -0.9358  1.2654  0.5203
   27SAPC   H8Y 3637   0.326   5.679   7.555  2.6458 -0.0565 -0.8176
   27SAPC   C39 3638   0.474   5.537   7.627  0.3700  0.5516  0.4201
   27SAPC   H9X 3639   0.569   5.575   7.582 -0.0970  1.8817  0.5305
   27SAPC   H9Y 3640   0.483   5.427   7.616 -1.5005  0.5106 -0.9597
   27SAPC  C310 3641   0.487   5.584   7.769 -1.0904  0.0533  0.1050
   27SAPC  H10X 3642   0.459   5.690   7.786 -0.0852  0.6330 -1.7461
   27SAPC  H10Y 3643   0.593   5.583   7.804 -1.1660 -0.1960  0.3292
   27SAPC  C311 3644   0.407   5.488   7.862  0.4631  0.2112 -0.1301
   27SAPC  H11X 3645   0.457   5.389   7.863  2.3574  1.1313 -0.5382
   27SAPC  H11Y 3646   0.304   5.472   7.824  0.0834  0.6413  0.7004
   27SAPC  C312 3647   0.411   5.539   8.009  0.1576  0.1697  0.1388
   27SAPC  H12X 3648   0.350   5.631   8.026  2.5325  1.9527 -0.7060
   27SAPC  H12Y 3649   0.515   5.567   8.039 -0.1240 -0.7153  2.0223
   27SAPC  C313 3650   0.359   5.428   8.106 -0.1078  0.3506  0.7045
   27SAPC  H13X 3651   0.382   5.325   8.071  2.3816  2.1527 -3.3867
   27SAPC  H13Y 3652   0.248   5.434   8.112 -0.1183  0.3746  0.5040
   27SAPC  C314 3653   0.401   5.436   8.256  0.6233  0.0334  0.4790
   27SAPC  H14X 3654   0.512   5.424   8.256  0.7046  0.7753  0.6553
   27SAPC  H14Y 3655   0.360   5.348   8.309  0.4190  1.2803  2.4237
   27SAPC  C315 3656   0.364   5.563   8.338 -0.5854 -0.4527 -0.1130
   27SAPC  H15X 3657   0.256   5.592   8.336  0.1138  2.2896 -0.6535
   27SAPC  H15Y 3658   0.411   5.655   8.297 -3.4566  0.1892 -2.1537
   27SAPC  C316 3659   0.394   5.545   8.486  1.1513  0.3481  0.7129
   27SAPC  H16X 3660   0.339   5.455   8.518  2.6619 -0.2621  1.6300
   27SAPC  H16Y 3661   0.375   5.632   8.553 -0.3578 -0.2918  1.1244
   27SAPC  C317 3662   0.548   5.507   8.514 -0.1207  0.2183 -0.2291
   27SAPC  H17X 3663   0.620   5.584   8.479  0.7220 -0.8093 -0.7773
   27SAPC  H17Y 3664   0.573   5.409   8.469 -0.8542 -0.8230  1.5403
   27SAPC  C318 3665   0.563   5.502   8.667 -0.2186  1.6711  0.2840
   27SAPC  H18X 3666   0.519   5.593   8.714 -2.8143 -0.3578  1.9611
   27SAPC  H18Y 3667   0.670   5.486   8.692  0.0086 -0.5418 -1.9172
   27SAPC  H18Z 3668   0.502   5.413   8.692 -1.3948  2.8031  1.5423
   28SAPC     N 3669   6.604   3.659   6.373  0.1885  0.1547 -0.3827
   28SAPC   C12 3670   6.466   3.593   6.348 -0.7876 -0.4942  0.6953
   28SAPC  H12A 3671   6.389   3.669   6.340 -0.6356 -0.3762  0.3402
   28SAPC  H12B 3672   6.446   3.539   6.439 -0.2888 -0.5169  0.7909
   28SAPC   C13 3673   6.601   3.765   6.483  0.0325  0.3934  0.2157
   28SAPC  H13A 3674   6.584   3.716   6.578  0.8236  0.7034  0.5192
   28SAPC  H13B 3675   6.692   3.824   6.482  1.2029 -1.3863 -1.1499
   28SAPC  H13C 3676   6.514   3.827   6.467  0.3596  0.7130 -0.3351
   28SAPC   C14 3677   6.689   3.550   6.422 -0.0730 -0.2190  0.1213
   28SAPC  H14A 3678   6.642   3.510   6.510 -0.0144  2.1727  1.2871
   28SAPC  H14B 3679   6.694   3.474   6.346 -0.7668 -0.3880  0.2439
   28SAPC  H14C 3680   6.792   3.580   6.434 -0.0540  0.0900 -0.7336
   28SAPC   C15 3681   6.666   3.731   6.255  0.3636 -0.1268 -0.8193
   28SAPC  H15A 3682   6.687   3.657   6.179 -1.3743 -0.1308 -1.3169
   28SAPC  H15B 3683   6.600   3.807   6.215 -1.7575 -1.1864  0.6379
   28SAPC  H15C 3684   6.762   3.772   6.282  0.9932 -1.7117 -0.6023
   28SAPC   C11 3685   6.447   3.500   6.229 -0.3439  0.7585  0.0485
   28SAPC  H11A 3686   6.483   3.549   6.136 -0.9636  1.2215  0.0555
   28SAPC  H11B 3687   6.342   3.476   6.204 -0.1711  1.0170 -0.9671
   28SAPC     P 3688   6.482   3.248   6.316 -0.0159 -0.1495 -0.3238
   28SAPC   O13 3689   6.336   3.250   6.326  0.1136 -0.2022  0.1331
   28SAPC   O14 3690   6.542   3.135   6.246 -0.1997  0.2943  0.8750
   28SAPC   O12 3691   6.526   3.383   6.243  0.1387 -0.5601  0.7501
   28SAPC   O11 3692   6.542   3.271   6.462  0.6662  0.1972  0.3112
   28SAPC    C1 3693   6.669   3.206   6.495  0.5180 -0.6580  0.0779
   28SAPC    HA 3694   6.738   3.207   6.407 -0.2897 -0.5505 -0.5533
   28SAPC    HB 3695   6.725   3.271   6.566  1.9986 -2.0005  0.1693
   28SAPC    C2 3696   6.652   3.070   6.569  0.2197 -0.0243  0.3976
   28SAPC    HS 3697   6.624   2.990   6.497 -2.4621  0.4931  0.8237
   28SAPC   O21 3698   6.536   3.081   6.665 -0.0309 -0.0702 -0.8783
   28SAPC   C21 3699   6.471   2.968   6.688  1.1126  0.3311 -0.6304
   28SAPC   O22 3700   6.486   2.865   6.625 -0.0696  0.4228  0.1382
   28SAPC   C22 3701   6.373   2.983   6.800 -0.4947 -0.2832 -0.5761
   28SAPC   H2R 3702   6.430   3.019   6.889 -0.6242  0.8376 -0.9290
   28SAPC   H2S 3703   6.297   3.050   6.754  0.5199 -0.1607 -2.1117
   28SAPC    C3 3704   6.782   3.027   6.647  0.0778 -0.3012  0.0388
   28SAPC    HX 3705   6.815   3.117   6.702  0.9968 -0.0222 -0.9370
   28SAPC    HY 3706   6.847   3.014   6.557  0.8871  0.9589  0.4290
   28SAPC   O31 3707   6.773   2.911   6.726  0.2830 -0.1200  0.3977
   28SAPC   C31 3708   6.784   2.799   6.658 -0.0607 -0.0881  0.2720
   28SAPC   O32 3709   6.796   2.788   6.537 -0.0091  0.6219 -0.1825
   28SAPC   C32 3710   6.770   2.682   6.752 -0.5424  0.1351 -0.1486
   28SAPC   H2X 3711   6.797   2.589   6.698 -1.5361  0.0846 -0.5594
   28SAPC   H2Y 3712   6.664   2.680   6.786 -0.4623 -0.0821  0.0904
   28SAPC   C23 3713   6.315   2.852   6.836  0.3242  0.9435  0.3349
   28SAPC   H3R 3714   6.392   2.793   6.891  0.4073 -0.2703 -1.0441
   28SAPC   H3S 3715   6.284   2.793   6.747 -1.2638  1.8893  0.2469
   28SAPC   C24 3716   6.193   2.859   6.926 -0.4516  0.2296 -0.1001
   28SAPC   H4R 3717   6.117   2.925   6.878 -0.6360 -0.2075 -0.4086
   28SAPC   H4S 3718   6.164   2.752   6.923  3.3411 -0.8730  0.4817
   28SAPC   C25 3719   6.209   2.901   7.073  0.0663 -0.9028 -0.3538
   28SAPC   H5R 3720   6.235   3.007   7.088 -0.4852 -0.5843 -1.5714
   28SAPC   C26 3721   6.168   2.831   7.184 -0.5950  0.5619 -0.3074
   28SAPC   H6R 3722   6.168   2.881   7.282 -2.0055 -2.6089  1.3740
   28SAPC   C27 3723   6.094   2.701   7.197 -0.7910  0.4733  0.3015
   28SAPC   H7R 3724   6.157   2.655   7.277  0.6223 -0.4906 -1.3303
   28SAPC   H7S 3725   6.111   2.637   7.108 -1.4565  0.8219 -0.0821
   28SAPC   C28 3726   5.949   2.713   7.230  0.5645  0.2129  0.1010
   28SAPC   H8R 3727   5.889   2.689   7.142 -0.8975 -0.8117  1.3538
   28SAPC   C29 3728   5.885   2.755   7.344  0.6038 -0.5039  0.2959
   28SAPC   H9R 3729   5.775   2.763   7.342  0.7092  0.8655 -0.7338
   28SAPC  C210 3730   5.946   2.796   7.477  0.6876  0.1012  0.0361
   28SAPC  H10R 3731   6.045   2.747   7.491  0.4020 -0.1444  1.2583
   28SAPC  H10S 3732   5.879   2.763   7.559  0.0304 -0.9001 -0.8823
   28SAPC  C211 3733   5.968   2.940   7.492  0.1280 -0.2532 -0.0083
   28SAPC  H11R 3734   5.925   2.999   7.410  0.8179 -1.2943 -1.1374
   28SAPC  C212 3735   6.030   2.996   7.597  0.1275 -1.1512  0.1980
   28SAPC  H12R 3736   6.052   3.104   7.600  1.3341 -1.3864  0.2975
   28SAPC  C213 3737   6.078   2.918   7.713 -0.2524  0.9290 -0.5410
   28SAPC  H13R 3738   6.173   2.965   7.745 -0.9647  2.9257 -1.3217
   28SAPC  H13S 3739   6.108   2.814   7.684  1.7983  1.0175  1.1540
   28SAPC  C214 3740   5.980   2.909   7.831  0.2497  0.4366 -0.3632
   28SAPC  H14R 3741   5.873   2.897   7.806  0.6362 -0.8307 -1.4838
   28SAPC  C215 3742   6.010   2.919   7.955 -0.2280 -0.2667 -0.1993
   28SAPC  H15R 3743   5.929   2.903   8.028 -1.3689 -0.2790 -1.4387
   28SAPC  C216 3744   6.150   2.940   8.018 -0.1049 -0.0229  0.3756
   28SAPC  H16R 3745   6.228   2.947   7.939 -1.2388 -1.5674 -0.9263
   28SAPC  H16S 3746   6.174   2.855   8.086 -0.4740  0.6003  1.2999
   28SAPC  C217 3747   6.164   3.066   8.108 -1.1972 -0.6817 -0.6492
   28SAPC  H17R 3748   6.071   3.090   8.163 -0.6582  2.9016 -1.1914
   28SAPC  H17S 3749   6.177   3.147   8.033 -1.8080 -0.1050 -0.1345
   28SAPC  C218 3750   6.291   3.068   8.197 -0.0450 -0.5609  0.4145
   28SAPC  H18R 3751   6.379   3.042   8.133 -0.3564 -1.9218  0.5227
   28SAPC  H18S 3752   6.270   2.993   8.277 -2.4768  1.9506  2.2042
   28SAPC  C219 3753   6.328   3.203   8.258 -1.1038  0.5610 -0.0799
   28SAPC  H19R 3754   6.354   3.264   8.169 -2.6563 -1.0901 -1.7165
   28SAPC  H19S 3755   6.425   3.200   8.313  0.6582  0.7601 -3.0267
   28SAPC  C220 3756   6.217   3.259   8.349 -0.2281 -0.0285 -0.1601
   28SAPC  H20R 3757   6.229   3.366   8.373 -1.0549  0.0378 -0.0280
   28SAPC  H20S 3758   6.203   3.213   8.449 -0.2888  1.4054  0.4971
   28SAPC  H20T 3759   6.125   3.253   8.288 -0.1996  0.6189 -0.2666
   28SAPC   C33 3760   6.853   2.686   6.887 -0.9625  0.5766  0.2446
   28SAPC   H3X 3761   6.866   2.793   6.915  0.0148 -0.0049  2.0469
   28SAPC   H3Y 3762   6.952   2.637   6.873 -1.5730 -0.3902 -0.7398
   28SAPC   C34 3763   6.777   2.615   7.000  0.3974 -0.6766 -0.6122
   28SAPC   H4X 3764   6.839   2.625   7.092  0.8494 -0.1260 -0.9717
   28SAPC   H4Y 3765   6.774   2.507   6.972  0.5700 -0.4907 -1.3805
   28SAPC   C35 3766   6.646   2.691   7.028 -0.2849 -0.6633  0.1010
   28SAPC   H5X 3767   6.559   2.648   6.974 -1.0015 -1.8618  2.1559
   28SAPC   H5Y 3768   6.659   2.800   7.011  1.3097 -0.8486  0.0799
   28SAPC   C36 3769   6.609   2.675   7.183 -0.4600  0.1306  0.5053
   28SAPC   H6X 3770   6.705   2.682   7.238  0.4129 -3.1461 -0.4524
   28SAPC   H6Y 3771   6.574   2.570   7.195 -0.7626  0.4524  2.6403
   28SAPC   C37 3772   6.526   2.785   7.242  0.2796 -0.1893 -0.4901
   28SAPC   H7X 3773   6.438   2.804   7.176  0.9997 -2.8739 -2.3391
   28SAPC   H7Y 3774   6.591   2.873   7.257  0.2637  0.1144 -2.1184
   28SAPC   C38 3775   6.472   2.742   7.379  0.2690  0.0134  0.4692
   28SAPC   H8X 3776   6.419   2.646   7.358  1.1775 -0.2526 -0.6841
   28SAPC   H8Y 3777   6.391   2.810   7.413  0.3511  1.8092 -2.7609
   28SAPC   C39 3778   6.575   2.733   7.492  0.8596  0.2305 -0.0370
   28SAPC   H9X 3779   6.612   2.837   7.507  0.2390  0.7285 -1.8732
   28SAPC   H9Y 3780   6.658   2.662   7.471  0.5435  0.1137 -0.8750
   28SAPC  C310 3781   6.493   2.685   7.617  0.2922 -0.0140 -0.0038
   28SAPC  H10X 3782   6.470   2.576   7.612  4.2520 -0.9391  0.0704
   28SAPC  H10Y 3783   6.401   2.746   7.629 -0.4613  0.0239 -4.8412
   28SAPC  C311 3784   6.562   2.713   7.750 -0.4508  0.2851  0.8514
   28SAPC  H11X 3785   6.583   2.822   7.756  0.1440  0.2865 -1.1967
   28SAPC  H11Y 3786   6.657   2.656   7.741 -1.1983 -0.8938  0.3728
   28SAPC  C312 3787   6.472   2.675   7.873  0.5231  0.5353 -0.2654
   28SAPC  H12X 3788   6.449   2.566   7.863 -0.1174  0.5621  0.8361
   28SAPC  H12Y 3789   6.385   2.742   7.859 -0.1185 -0.6044 -2.0065
   28SAPC  C313 3790   6.543   2.704   8.009  0.3370  0.4352 -0.1008
   28SAPC  H13X 3791   6.539   2.810   8.040 -0.3714  0.7051 -1.0715
   28SAPC  H13Y 3792   6.652   2.688   7.995 -0.1068 -2.0205 -0.9477
   28SAPC  C314 3793   6.503   2.602   8.124 -0.3132 -0.4230  0.3602
   28SAPC  H14X 3794   6.494   2.496   8.095  0.8542 -1.1841  2.6543
   28SAPC  H14Y 3795   6.399   2.634   8.149  0.7011  1.6326  2.2116
   28SAPC  C315 3796   6.588   2.626   8.246 -0.1221  0.0967 -0.7214
   28SAPC  H15X 3797   6.531   2.605   8.338  0.2893  0.5562 -0.3596
   28SAPC  H15Y 3798   6.609   2.734   8.263  2.7373 -0.7317  1.4468
   28SAPC  C316 3799   6.720   2.549   8.244 -0.2156  0.2316 -0.2220
   28SAPC  H16X 3800   6.767   2.574   8.146 -0.5120 -0.2734 -0.4940
   28SAPC  H16Y 3801   6.697   2.440   8.245 -1.6647  0.5467  0.7975
   28SAPC  C317 3802   6.818   2.584   8.353 -0.4369 -0.0511 -0.4504
   28SAPC  H17X 3803   6.766   2.560   8.448 -2.7188 -3.3077 -2.4308
   28SAPC  H17Y 3804   6.828   2.695   8.349  1.0671 -0.1941 -0.9535
   28SAPC  C318 3805   6.958   2.534   8.325 -0.3918  0.0396  0.4809
   28SAPC  H18X 3806   7.000   2.565   8.227  0.0856  0.7148  0.8915
   28SAPC  H18Y 3807   6.957   2.424   8.335  1.9916 -0.2081 -1.7852
   28SAPC  H18Z 3808   7.031   2.578   8.397 -0.8173  0.8385  0.4353
   29SAPC     N 3809   2.395   6.246   6.061 -0.1154  0.0618 -0.7269
   29SAPC   C12 3810   2.353   6.213   6.202 -0.0609 -0.3126 -0.2804
   29SAPC  H12A 3811   2.346   6.308   6.253 -3.7666 -0.1029 -1.0258
   29SAPC  H12B 3812   2.434   6.166   6.254 -0.5003  0.6386  1.2883
   29SAPC   C13 3813   2.305   6.341   5.990  0.2318  0.0290  0.3049
   29SAPC  H13A 3814   2.326   6.350   5.885  0.2983 -0.7355  0.2502
   29SAPC  H13B 3815   2.207   6.297   5.999  0.5629 -0.6647  0.5465
   29SAPC  H13C 3816   2.293   6.434   6.044 -3.1711 -0.5434  0.6406
   29SAPC   C14 3817   2.538   6.307   6.065  0.1456  0.0997  0.4780
   29SAPC  H14A 3818   2.613   6.241   6.106  1.3134  0.5360 -0.9237
   29SAPC  H14B 3819   2.559   6.349   5.967 -0.3510  0.2950  0.4529
   29SAPC  H14C 3820   2.526   6.399   6.121 -0.4209  1.2066 -1.3874
   29SAPC   C15 3821   2.399   6.126   5.970 -0.5622  0.6733  0.3892
   29SAPC  H15A 3822   2.305   6.075   5.984 -0.8451  0.5606 -1.8048
   29SAPC  H15B 3823   2.405   6.168   5.871  0.3013 -0.4329 -0.0382
   29SAPC  H15C 3824   2.487   6.065   5.986  0.2393  2.1311  1.6637
   29SAPC   C11 3825   2.226   6.139   6.232  0.4628  0.0792  0.3505
   29SAPC  H11A 3826   2.223   6.102   6.337 -0.1607  2.4106  1.1871
   29SAPC  H11B 3827   2.222   6.051   6.164  0.0161  0.5712 -0.2658
   29SAPC     P 3828   2.032   6.311   6.289 -0.3134 -0.0920 -0.0563
   29SAPC   O13 3829   2.092   6.448   6.273 -0.0064  0.1049 -0.6860
   29SAPC   O14 3830   1.885   6.291   6.272  0.5645 -0.4360  0.2988
   29SAPC   O12 3831   2.103   6.208   6.197  0.0391  0.1391 -0.1193
   29SAPC   O11 3832   2.058   6.249   6.434 -0.1564 -0.1679 -0.0283
   29SAPC    C1 3833   2.111   6.340   6.531 -0.6333  0.4599  0.1428
   29SAPC    HA 3834   2.222   6.342   6.527 -0.6346 -0.8073 -0.8724
   29SAPC    HB 3835   2.079   6.445   6.520 -0.8278  0.4210  0.3423
   29SAPC    C2 3836   2.062   6.302   6.677  0.1713 -0.0255  1.2275
   29SAPC    HS 3837   2.131   6.370   6.731 -1.1158  0.9562  1.6517
   29SAPC   O21 3838   2.075   6.161   6.711 -0.5289 -0.4143 -0.2355
   29SAPC   C21 3839   2.188   6.124   6.740  0.2330  0.4297 -1.1399
   29SAPC   O22 3840   2.296   6.185   6.743  0.0723 -0.1566  1.0487
   29SAPC   C22 3841   2.175   5.981   6.786 -0.8140  0.2697 -0.3443
   29SAPC   H2R 3842   2.116   5.932   6.705 -0.0861  0.3005 -0.9046
   29SAPC   H2S 3843   2.276   5.939   6.802 -0.7996  1.9375  4.5735
   29SAPC    C3 3844   1.918   6.336   6.711 -0.0274 -0.4703  0.4156
   29SAPC    HX 3845   1.862   6.265   6.646  1.2776 -0.1432 -1.0963
   29SAPC    HY 3846   1.896   6.444   6.699 -1.3764 -0.8729 -0.9420
   29SAPC   O31 3847   1.879   6.285   6.839  0.8523  0.5233 -0.3787
   29SAPC   C31 3848   1.768   6.219   6.849  0.0916 -0.4008 -0.5961
   29SAPC   O32 3849   1.688   6.194   6.758 -0.3445  0.0224  0.3322
   29SAPC   C32 3850   1.770   6.165   6.990  0.4068  0.8846 -0.2944
   29SAPC   H2X 3851   1.773   6.253   7.057 -1.3478 -0.9412  2.3111
   29SAPC   H2Y 3852   1.868   6.121   7.015 -0.2584  0.7645  2.1792
   29SAPC   C23 3853   2.089   5.959   6.911 -0.3767 -0.0742  0.1006
   29SAPC   H3R 3854   2.086   5.849   6.926  2.4375 -0.2480 -0.4087
   29SAPC   H3S 3855   1.982   5.989   6.897 -0.6264 -0.6032  0.8712
   29SAPC   C24 3856   2.137   6.038   7.027  0.0127  0.4448 -0.3887
   29SAPC   H4R 3857   2.060   6.026   7.106  1.6684  3.6828  1.8717
   29SAPC   H4S 3858   2.126   6.146   7.004 -0.7153  0.3443 -0.5069
   29SAPC   C25 3859   2.274   6.019   7.083 -0.2376  0.4741 -0.2583
   29SAPC   H5R 3860   2.353   5.989   7.013  0.2257  1.9390 -0.3726
   29SAPC   C26 3861   2.321   6.044   7.205  0.1109 -0.3403 -0.0278
   29SAPC   H6R 3862   2.428   6.037   7.229  0.3427  1.0373 -0.6125
   29SAPC   C27 3863   2.224   6.101   7.311  0.0655  0.1466 -0.2084
   29SAPC   H7R 3864   2.142   6.157   7.261 -1.6831 -2.8244 -0.7727
   29SAPC   H7S 3865   2.267   6.187   7.366 -0.7349  0.6686 -0.3825
   29SAPC   C28 3866   2.166   6.002   7.408  0.0291  0.0201 -0.0627
   29SAPC   H8R 3867   2.059   5.980   7.395 -0.1611 -0.1393  1.6680
   29SAPC   C29 3868   2.233   5.969   7.518  0.2502 -0.3359 -0.2004
   29SAPC   H9R 3869   2.176   5.910   7.590 -0.3986  0.2326 -0.2464
   29SAPC  C210 3870   2.374   6.007   7.557  0.0050 -0.4319 -0.5733
   29SAPC  H10R 3871   2.418   6.077   7.484  2.4593 -2.1835 -0.8590
   29SAPC  H10S 3872   2.435   5.914   7.553 -0.3798 -0.9702  3.3716
   29SAPC  C211 3873   2.371   6.063   7.700 -0.1115 -0.3798  1.0593
   29SAPC  H11R 3874   2.337   6.168   7.699 -1.4507 -0.7971 -0.4272
   29SAPC  C212 3875   2.399   5.997   7.817 -0.1684  0.2811 -0.1208
   29SAPC  H12R 3876   2.401   6.063   7.905  0.3726 -1.8959  1.5464
   29SAPC  C213 3877   2.435   5.851   7.835  0.6807 -0.1080  0.3029
   29SAPC  H13R 3878   2.376   5.779   7.774  1.6807  0.9883 -2.0028
   29SAPC  H13S 3879   2.414   5.823   7.940 -2.5146 -0.0359 -0.2684
   29SAPC  C214 3880   2.574   5.826   7.791 -0.4119 -0.8499 -0.1004
   29SAPC  H14R 3881   2.622   5.898   7.723 -0.5910 -1.0939 -0.4873
   29SAPC  C215 3882   2.646   5.716   7.823  0.3333  0.6288 -0.1745
   29SAPC  H15R 3883   2.752   5.711   7.794  0.5306  1.6302  0.3508
   29SAPC  C216 3884   2.592   5.603   7.909 -0.8462 -0.4041 -0.9295
   29SAPC  H16R 3885   2.568   5.515   7.846  0.8207 -2.3865  1.1426
   29SAPC  H16S 3886   2.508   5.632   7.976  0.7300  1.1451  0.4278
   29SAPC  C217 3887   2.702   5.556   8.006 -0.5763  0.0549 -0.0852
   29SAPC  H17R 3888   2.804   5.575   7.965  0.2630  0.4111  2.1110
   29SAPC  H17S 3889   2.697   5.449   8.037  2.1634  0.1835  0.9225
   29SAPC  C218 3890   2.709   5.625   8.139  0.0697 -0.1946 -0.0408
   29SAPC  H18R 3891   2.615   5.601   8.192 -1.4878  0.4613 -2.4296
   29SAPC  H18S 3892   2.713   5.736   8.128 -0.0755 -0.0320  1.3931
   29SAPC  C219 3893   2.828   5.577   8.214  0.3379 -0.1667 -0.4691
   29SAPC  H19R 3894   2.916   5.616   8.159  0.1852  2.6501  1.2152
   29SAPC  H19S 3895   2.836   5.466   8.209 -0.6122 -0.1762 -2.3045
   29SAPC  C220 3896   2.853   5.627   8.363 -0.3411 -0.5925 -0.0466
   29SAPC  H20R 3897   2.763   5.611   8.426 -0.8258  4.3203  0.6906
   29SAPC  H20S 3898   2.884   5.734   8.371 -1.4070 -0.3426  0.7806
   29SAPC  H20T 3899   2.937   5.562   8.395  0.7408  0.5862 -0.4201
   29SAPC   C33 3900   1.647   6.083   7.023  0.3523 -0.4311 -0.0905
   29SAPC   H3X 3901   1.656   5.982   6.978  0.8304 -1.2688  1.8671
   29SAPC   H3Y 3902   1.560   6.129   6.972 -0.3405 -0.1807  1.3060
   29SAPC   C34 3903   1.633   6.055   7.173  0.1698  0.0737 -0.5282
   29SAPC   H4X 3904   1.535   6.004   7.185 -0.3054  1.0524 -0.2655
   29SAPC   H4Y 3905   1.632   6.151   7.228  2.3239  0.7408 -1.6200
   29SAPC   C35 3906   1.737   5.969   7.237  0.2296 -0.9951 -0.4686
   29SAPC   H5X 3907   1.835   6.019   7.222  0.3529 -1.2012 -0.3544
   29SAPC   H5Y 3908   1.756   5.881   7.171  0.2650 -0.6696 -0.8944
   29SAPC   C36 3909   1.698   5.912   7.376 -0.0660 -0.1240 -0.2562
   29SAPC   H6X 3910   1.671   5.804   7.369  4.2497 -1.3771  1.0725
   29SAPC   H6Y 3911   1.600   5.961   7.398 -0.1311 -0.8219  1.0316
   29SAPC   C37 3912   1.790   5.926   7.490 -0.0831  0.6999 -0.3256
   29SAPC   H7X 3913   1.812   6.031   7.517  2.0876  0.4145 -0.8904
   29SAPC   H7Y 3914   1.884   5.879   7.455 -0.5813 -1.2419  0.8482
   29SAPC   C38 3915   1.767   5.839   7.610  0.2250  0.1476  0.4622
   29SAPC   H8X 3916   1.783   5.733   7.580 -2.0278 -0.9707  2.9428
   29SAPC   H8Y 3917   1.660   5.848   7.636 -0.2997  0.0725 -1.6430
   29SAPC   C39 3918   1.860   5.870   7.730  1.0217 -0.0543 -0.3272
   29SAPC   H9X 3919   1.844   5.979   7.746 -1.7808 -0.4547 -0.1112
   29SAPC   H9Y 3920   1.969   5.863   7.711  1.3970  0.5699  1.5500
   29SAPC  C310 3921   1.825   5.802   7.867 -0.4261  0.2089 -0.1375
   29SAPC  H10X 3922   1.838   5.692   7.857  3.0024  0.5883 -0.5945
   29SAPC  H10Y 3923   1.718   5.821   7.891 -0.9044 -1.3683 -0.9523
   29SAPC  C311 3924   1.924   5.841   7.977 -0.0847  0.0533  0.0585
   29SAPC  H11X 3925   1.938   5.950   7.994  0.2829  0.4882 -2.7418
   29SAPC  H11Y 3926   2.019   5.803   7.935  0.2106  0.8941 -0.0408
   29SAPC  C312 3927   1.904   5.781   8.114 -0.4580  0.0880 -0.1050
   29SAPC  H12X 3928   1.906   5.670   8.102  2.4831  0.0704  0.2689
   29SAPC  H12Y 3929   1.805   5.811   8.155 -0.0552  0.4313  0.6313
   29SAPC  C313 3930   2.012   5.814   8.216 -0.2975  0.3274  0.3628
   29SAPC  H13X 3931   2.004   5.739   8.297  1.8521 -0.8097 -0.4449
   29SAPC  H13Y 3932   1.990   5.919   8.247 -0.3426  1.1233 -2.2115
   29SAPC  C314 3933   2.156   5.802   8.157  0.7856 -0.0411 -0.3081
   29SAPC  H14X 3934   2.170   5.889   8.090  0.5676  1.2464  1.2730
   29SAPC  H14Y 3935   2.161   5.705   8.103  2.0766 -1.8062  2.8422
   29SAPC  C315 3936   2.260   5.808   8.268  0.3316 -0.3369  0.0585
   29SAPC  H15X 3937   2.244   5.901   8.326  1.1978 -0.9922  1.3611
   29SAPC  H15Y 3938   2.364   5.826   8.233  0.3396 -1.2950 -0.4411
   29SAPC  C316 3939   2.259   5.690   8.360 -0.0105 -0.6343 -0.1295
   29SAPC  H16X 3940   2.257   5.588   8.316  1.3752  0.1038 -1.9686
   29SAPC  H16Y 3941   2.174   5.700   8.431 -0.3790 -0.7985 -0.5475
   29SAPC  C317 3942   2.381   5.693   8.452 -0.3332  0.9024 -0.4579
   29SAPC  H17X 3943   2.366   5.784   8.513 -1.2073  0.6906 -0.3426
   29SAPC  H17Y 3944   2.476   5.704   8.396 -0.3863 -1.5415 -1.1083
   29SAPC  C318 3945   2.391   5.580   8.550  0.1763 -0.4515 -0.3351
   29SAPC  H18X 3946   2.492   5.575   8.596 -0.7713 -1.5072  1.7059
   29SAPC  H18Y 3947   2.377   5.482   8.499  0.6389 -0.1572 -1.0357
   29SAPC  H18Z 3948   2.315   5.578   8.631  0.2652  0.9830 -0.2002
   30SAPC     N 3949   3.051   6.522   6.203 -0.6051  0.4834 -0.2283
   30SAPC   C12 3950   3.092   6.629   6.308  0.5270  0.1583  0.2551
   30SAPC  H12A 3951   3.019   6.630   6.388 -0.4227  1.2653 -0.5964
   30SAPC  H12B 3952   3.081   6.726   6.262  1.6249 -0.4929 -1.4148
   30SAPC   C13 3953   2.906   6.520   6.176 -0.1283 -0.5905  0.4181
   30SAPC  H13A 3954   2.879   6.433   6.118  0.6652 -0.1444 -0.6464
   30SAPC  H13B 3955   2.849   6.522   6.268  1.7312  1.4005  1.5828
   30SAPC  H13C 3956   2.867   6.606   6.123  3.6740 -0.4258 -2.3171
   30SAPC   C14 3957   3.129   6.537   6.079 -0.5966 -0.3407  0.2193
   30SAPC  H14A 3958   3.232   6.526   6.110 -0.0824 -1.3414 -1.7790
   30SAPC  H14B 3959   3.114   6.461   6.004 -0.7966  2.0666 -2.2374
   30SAPC  H14C 3960   3.122   6.635   6.035  0.7101 -0.0941  0.5270
   30SAPC   C15 3961   3.084   6.389   6.272 -0.1348 -0.0221  0.5764
   30SAPC  H15A 3962   3.075   6.305   6.205  2.0211 -0.1179  0.3783
   30SAPC  H15B 3963   3.183   6.408   6.311  0.9770  1.5769 -2.8921
   30SAPC  H15C 3964   3.007   6.380   6.348 -0.4298 -0.6596  0.2075
   30SAPC   C11 3965   3.234   6.616   6.364 -0.1074 -0.1655 -0.0153
   30SAPC  H11A 3966   3.232   6.531   6.437  0.6313  1.6346  2.1435
   30SAPC  H11B 3967   3.260   6.706   6.424  2.5107  0.5233 -2.1068
   30SAPC     P 3968   3.405   6.719   6.183  0.1271 -0.3291 -0.2605
   30SAPC   O13 3969   3.475   6.666   6.059  0.1405  0.4145 -0.0122
   30SAPC   O14 3970   3.299   6.820   6.165  0.5236  0.8838  0.6478
   30SAPC   O12 3971   3.334   6.595   6.260 -0.1275  0.1498  0.1981
   30SAPC   O11 3972   3.508   6.757   6.291 -0.4477 -0.0991  0.2203
   30SAPC    C1 3973   3.603   6.657   6.331  0.2220  0.2080  0.3277
   30SAPC    HA 3974   3.564   6.565   6.378 -0.1227  0.1269 -0.1119
   30SAPC    HB 3975   3.679   6.635   6.253  0.3353 -0.7481  0.7091
   30SAPC    C2 3976   3.697   6.718   6.448  0.2243 -0.2499  0.5927
   30SAPC    HS 3977   3.779   6.645   6.468 -1.6576 -2.2571  1.1514
   30SAPC   O21 3978   3.625   6.743   6.570  0.2787  0.5275  0.0118
   30SAPC   C21 3979   3.579   6.634   6.620  0.2253 -0.5780  0.3340
   30SAPC   O22 3980   3.626   6.521   6.606  0.6445  0.6835 -0.0970
   30SAPC   C22 3981   3.455   6.673   6.699 -0.1016  0.6403 -0.3365
   30SAPC   H2R 3982   3.479   6.754   6.771  0.0685 -0.6046  1.0432
   30SAPC   H2S 3983   3.387   6.710   6.620 -0.3912  0.2523 -0.2761
   30SAPC    C3 3984   3.765   6.855   6.397  0.2142 -0.1288  0.2738
   30SAPC    HX 3985   3.682   6.929   6.393  0.1937 -0.2240 -1.3742
   30SAPC    HY 3986   3.798   6.844   6.291 -1.4926 -1.9269 -0.1075
   30SAPC   O31 3987   3.872   6.889   6.480 -0.1206 -0.5445  0.2499
   30SAPC   C31 3988   3.927   7.012   6.454  0.1661 -0.0042  0.0895
   30SAPC   O32 3989   3.901   7.074   6.350  0.1234  0.1806  0.3981
   30SAPC   C32 3990   4.032   7.060   6.563  0.2769  0.0831 -0.8400
   30SAPC   H2X 3991   4.102   6.978   6.590  0.2535  1.0365  2.3983
   30SAPC   H2Y 3992   3.973   7.063   6.657  0.6444  1.4695 -0.6498
   30SAPC   C23 3993   3.393   6.558   6.776 -0.9867  0.3007 -0.8855
   30SAPC   H3R 3994   3.389   6.468   6.710  3.5324 -0.9559  0.4208
   30SAPC   H3S 3995   3.290   6.587   6.805 -0.7440 -0.3196  0.6161
   30SAPC   C24 3996   3.474   6.521   6.901 -0.4421 -0.3266  0.1178
   30SAPC   H4R 3997   3.568   6.468   6.876 -1.0547 -3.3837  3.6952
   30SAPC   H4S 3998   3.412   6.446   6.956 -2.8658  1.1970 -0.4675
   30SAPC   C25 3999   3.517   6.640   6.988  0.7603  0.4398  0.1342
   30SAPC   H5R 4000   3.603   6.692   6.944 -0.1355  1.1279 -0.8379
   30SAPC   C26 4001   3.464   6.678   7.108  0.2799 -0.1318 -0.1648
   30SAPC   H6R 4002   3.521   6.761   7.154  2.2646 -1.0111 -0.9822
   30SAPC   C27 4003   3.361   6.619   7.193  0.1564 -0.2975 -0.2873
   30SAPC   H7R 4004   3.336   6.515   7.163 -0.0801  0.1440 -1.6347
   30SAPC   H7S 4005   3.269   6.672   7.160 -1.2355 -2.1774  0.4388
   30SAPC   C28 4006   3.386   6.611   7.342 -0.6634 -0.4600 -0.5866
   30SAPC   H8R 4007   3.488   6.581   7.372 -0.1760  1.1949 -0.5227
   30SAPC   C29 4008   3.297   6.633   7.444  0.6395  0.3265 -0.0825
   30SAPC   H9R 4009   3.320   6.605   7.548  2.9366  3.4401  0.3299
   30SAPC  C210 4010   3.153   6.657   7.429 -0.1364  0.4219  0.5716
   30SAPC  H10R 4011   3.096   6.570   7.470 -0.0868 -1.1222 -2.4445
   30SAPC  H10S 4012   3.132   6.673   7.321  2.1121 -0.5223 -0.0259
   30SAPC  C211 4013   3.112   6.786   7.508 -0.7203 -0.3088 -0.9333
   30SAPC  H11R 4014   3.114   6.877   7.446 -0.2574  0.6805  0.5034
   30SAPC  C212 4015   3.097   6.800   7.645  0.2867 -0.0157  0.8316
   30SAPC  H12R 4016   3.077   6.900   7.686  1.1561 -0.6041  2.7392
   30SAPC  C213 4017   3.105   6.685   7.746  0.2328  0.0136 -0.0657
   30SAPC  H13R 4018   3.087   6.585   7.701 -2.6338  0.6166 -0.3825
   30SAPC  H13S 4019   3.018   6.705   7.813  0.2011 -0.3109 -0.0107
   30SAPC  C214 4020   3.232   6.689   7.830 -0.1959 -0.2466 -0.4602
   30SAPC  H14R 4021   3.325   6.673   7.773  0.1601 -1.8015  0.5285
   30SAPC  C215 4022   3.245   6.715   7.960  0.5781  0.0945  0.6092
   30SAPC  H15R 4023   3.346   6.720   8.002  1.5944 -1.7433 -1.5000
   30SAPC  C216 4024   3.136   6.735   8.068 -0.2429 -0.6767  0.2970
   30SAPC  H16R 4025   3.043   6.770   8.019 -0.4119 -0.7920  0.5322
   30SAPC  H16S 4026   3.165   6.819   8.136 -2.5265  0.2271  0.1931
   30SAPC  C217 4027   3.117   6.609   8.147 -0.6299  0.3848  0.4018
   30SAPC  H17R 4028   3.094   6.522   8.083  0.9854  1.0558 -1.1500
   30SAPC  H17S 4029   3.037   6.623   8.222 -0.9194  0.0903  0.1447
   30SAPC  C218 4030   3.236   6.569   8.227 -0.2755 -0.6756 -0.1601
   30SAPC  H18R 4031   3.279   6.662   8.269  1.6860 -0.7951 -1.7936
   30SAPC  H18S 4032   3.315   6.530   8.159 -0.1579 -2.2204  0.8491
   30SAPC  C219 4033   3.222   6.474   8.342 -0.2968  0.1688 -0.4819
   30SAPC  H19R 4034   3.143   6.510   8.410  0.3058  0.9684 -0.1988
   30SAPC  H19S 4035   3.316   6.475   8.400 -1.2791  1.2057  1.1036
   30SAPC  C220 4036   3.173   6.339   8.302 -0.3090  0.3380  0.0781
   30SAPC  H20R 4037   3.155   6.265   8.383 -0.2867 -1.8804 -1.8890
   30SAPC  H20S 4038   3.238   6.290   8.226  1.0372  1.0374  0.7668
   30SAPC  H20T 4039   3.073   6.338   8.254 -0.6215  0.6329  0.7072
   30SAPC   C33 4040   4.093   7.200   6.536  0.3531 -0.0925  0.0333
   30SAPC   H3X 4041   4.012   7.274   6.555  1.7298  0.6167  3.4740
   30SAPC   H3Y 4042   4.122   7.219   6.430 -0.7059  0.3389 -0.1850
   30SAPC   C34 4043   4.208   7.247   6.626  0.3828  0.7653  0.4336
   30SAPC   H4X 4044   4.178   7.231   6.732 -0.9081 -1.3518 -0.2202
   30SAPC   H4Y 4045   4.232   7.355   6.613  1.1636  0.4614 -0.7622
   30SAPC   C35 4046   4.338   7.166   6.611 -0.2673 -0.7361  0.7841
   30SAPC   H5X 4047   4.372   7.170   6.505  1.9330 -1.2633  1.4506
   30SAPC   H5Y 4048   4.311   7.061   6.636 -0.4063 -0.7432  0.6106
   30SAPC   C36 4049   4.455   7.229   6.687 -0.2831  0.0008 -0.4632
   30SAPC   H6X 4050   4.473   7.335   6.661  1.5600 -0.1595  0.0833
   30SAPC   H6Y 4051   4.547   7.174   6.656  0.4504 -0.1139  1.8585
   30SAPC   C37 4052   4.435   7.235   6.836 -0.1812  0.2792  0.4378
   30SAPC   H7X 4053   4.336   7.269   6.873  0.0876  1.4359  0.0866
   30SAPC   H7Y 4054   4.509   7.310   6.872 -1.8216  0.7471  2.9739
   30SAPC   C38 4055   4.459   7.100   6.911  0.2037  0.0977  0.0043
   30SAPC   H8X 4056   4.564   7.072   6.886 -0.0724 -1.6078  0.6974
   30SAPC   H8Y 4057   4.389   7.022   6.873  0.2883  0.6891 -1.3870
   30SAPC   C39 4058   4.436   7.123   7.060 -0.2454 -0.1970 -0.0227
   30SAPC   H9X 4059   4.343   7.184   7.066  0.3317  0.7055 -0.0843
   30SAPC   H9Y 4060   4.524   7.176   7.102 -0.6021 -0.0852  0.5900
   30SAPC  C310 4061   4.426   6.986   7.127  1.3283 -0.2657 -0.3834
   30SAPC  H10X 4062   4.513   6.922   7.101  1.4308 -0.6794  0.9100
   30SAPC  H10Y 4063   4.339   6.931   7.084  2.0713 -0.6122 -1.4529
   30SAPC  C311 4064   4.412   6.986   7.280  0.5793 -0.6365 -0.1312
   30SAPC  H11X 4065   4.510   7.008   7.327  1.3951 -2.4505 -0.9557
   30SAPC  H11Y 4066   4.367   6.886   7.297 -1.6367  0.2808 -0.3708
   30SAPC  C312 4067   4.303   7.094   7.327 -0.2200 -0.0193 -0.1936
   30SAPC  H12X 4068   4.205   7.070   7.280 -1.2596  2.0663  0.8014
   30SAPC  H12Y 4069   4.345   7.192   7.294 -0.4765 -0.4431 -1.8265
   30SAPC  C313 4070   4.281   7.085   7.477  0.5086  0.2495 -0.9996
   30SAPC  H13X 4071   4.227   6.991   7.502  0.1369  0.0497 -2.5193
   30SAPC  H13Y 4072   4.211   7.167   7.503  1.3984  0.6633  0.1676
   30SAPC  C314 4073   4.407   7.085   7.562  0.6013  0.4636  0.3142
   30SAPC  H14X 4074   4.487   7.150   7.520  0.2399  1.8089  1.6856
   30SAPC  H14Y 4075   4.446   6.981   7.566  2.4839  1.2095  2.4329
   30SAPC  C315 4076   4.381   7.130   7.709 -0.5820  0.3217 -0.0537
   30SAPC  H15X 4077   4.286   7.090   7.751  0.0290  0.5025  1.5389
   30SAPC  H15Y 4078   4.374   7.241   7.720  1.0974  0.2218  2.3910
   30SAPC  C316 4079   4.501   7.083   7.795 -0.2026  0.2559  0.1398
   30SAPC  H16X 4080   4.599   7.114   7.753  1.3835 -1.4626  2.4893
   30SAPC  H16Y 4081   4.513   6.973   7.781  3.4621  1.1064 -4.9842
   30SAPC  C317 4082   4.482   7.129   7.943  0.3905  0.2741  0.5214
   30SAPC  H17X 4083   4.476   7.240   7.946  1.0826  0.2987  1.2344
   30SAPC  H17Y 4084   4.583   7.113   7.987 -0.0285  0.4282  1.5559
   30SAPC  C318 4085   4.381   7.052   8.029  1.1008  0.0720 -0.2814
   30SAPC  H18X 4086   4.380   7.079   8.137 -1.2285 -0.6338 -0.0950
   30SAPC  H18Y 4087   4.397   6.943   8.015  1.6623  0.0026  0.8224
   30SAPC  H18Z 4088   4.277   7.070   7.995  1.3035  0.3288 -0.7655
   31SAPC     N 4089   4.898   0.715   6.121  0.0784  0.4948  0.1588
   31SAPC   C12 4090   4.872   0.682   6.267 -0.2405  0.2892  0.2640
   31SAPC  H12A 4091   4.971   0.691   6.311 -1.0755  1.3899  1.9606
   31SAPC  H12B 4092   4.825   0.585   6.273 -0.5338  0.2578 -2.2298
   31SAPC   C13 4093   5.018   0.651   6.073  0.0534  0.0032 -0.4219
   31SAPC  H13A 4094   5.033   0.661   5.966  2.3187  0.7944 -0.0429
   31SAPC  H13B 4095   5.100   0.700   6.123 -0.1488  0.0549 -0.1427
   31SAPC  H13C 4096   5.025   0.544   6.086 -1.0593 -0.0342 -0.0515
   31SAPC   C14 4097   4.785   0.688   6.036  1.1204 -0.1315 -0.5066
   31SAPC  H14A 4098   4.775   0.584   6.007 -1.9996 -0.8028  2.6454
   31SAPC  H14B 4099   4.694   0.713   6.090 -0.5856 -2.0536 -2.3884
   31SAPC  H14C 4100   4.780   0.752   5.949  0.3944 -1.1717 -1.2564
   31SAPC   C15 4101   4.923   0.872   6.126  0.6524 -0.4077  0.0984
   31SAPC  H15A 4102   5.012   0.899   6.182  2.2730  0.9207 -3.0064
   31SAPC  H15B 4103   4.936   0.910   6.026  0.0443  0.4880  0.3582
   31SAPC  H15C 4104   4.836   0.919   6.168  0.6879  0.2294 -0.5508
   31SAPC   C11 4105   4.768   0.773   6.343 -0.2100  0.1967  0.8805
   31SAPC  H11A 4106   4.779   0.883   6.344 -0.8825  0.2913 -0.6977
   31SAPC  H11B 4107   4.780   0.757   6.452  0.3006 -3.9587  0.3148
   31SAPC     P 4108   4.537   0.656   6.374 -0.3447  0.0714 -0.2426
   31SAPC   O13 4109   4.407   0.648   6.297 -0.0699  0.4131 -0.5104
   31SAPC   O14 4110   4.610   0.531   6.404  0.2187 -0.0448 -0.0157
   31SAPC   O12 4111   4.636   0.743   6.295  0.3954  0.1313  0.1734
   31SAPC   O11 4112   4.511   0.739   6.503  0.9351 -0.3794 -0.0182
   31SAPC    C1 4113   4.454   0.870   6.498 -0.0452 -0.7280  0.2743
   31SAPC    HA 4114   4.471   0.928   6.405  0.2166  0.6636  1.1858
   31SAPC    HB 4115   4.347   0.854   6.524  0.4456 -0.9829  2.2559
   31SAPC    C2 4116   4.507   0.938   6.626  0.1107 -0.2162  0.3778
   31SAPC    HS 4117   4.618   0.948   6.616  0.1097 -2.1142 -1.8106
   31SAPC   O21 4118   4.462   0.855   6.743 -0.2232  0.1573  0.2156
   31SAPC   C21 4119   4.563   0.839   6.825 -0.2624  0.4189 -0.3002
   31SAPC   O22 4120   4.672   0.900   6.820 -0.5802 -0.4204 -0.1233
   31SAPC   C22 4121   4.516   0.747   6.944 -0.4821 -0.2417  0.0037
   31SAPC   H2R 4122   4.442   0.680   6.896  1.3494 -2.4768  0.2116
   31SAPC   H2S 4123   4.600   0.675   6.957  1.5710  1.9886 -0.5179
   31SAPC    C3 4124   4.449   1.087   6.638 -0.1378  0.3403 -0.1134
   31SAPC    HX 4125   4.340   1.072   6.620 -0.2126  0.2770  0.3881
   31SAPC    HY 4126   4.479   1.153   6.554 -1.0872  1.4797  0.4294
   31SAPC   O31 4127   4.485   1.149   6.774 -0.0984  0.7135  0.2985
   31SAPC   C31 4128   4.382   1.213   6.824 -0.1314  1.1370  0.5984
   31SAPC   O32 4129   4.290   1.258   6.757  0.4024 -0.3456  0.5684
   31SAPC   C32 4130   4.402   1.240   6.973  0.0251  0.6343  0.2935
   31SAPC   H2X 4131   4.511   1.234   6.996 -0.1105 -0.0774  0.7739
   31SAPC   H2Y 4132   4.355   1.151   7.021  1.6802  0.0087  0.8145
   31SAPC   C23 4133   4.479   0.825   7.075 -0.2327 -0.4689  0.4507
   31SAPC   H3R 4134   4.438   0.746   7.142  0.7296  0.5456  2.2736
   31SAPC   H3S 4135   4.395   0.892   7.047  0.8061  0.1467 -1.2680
   31SAPC   C24 4136   4.584   0.920   7.138  0.8217  0.2388 -0.0729
   31SAPC   H4R 4137   4.540   0.976   7.224 -1.1782  1.7373 -2.0446
   31SAPC   H4S 4138   4.628   0.985   7.059  1.6186  0.8470  0.8557
   31SAPC   C25 4139   4.698   0.836   7.195  0.9321  0.0358  0.5036
   31SAPC   H5R 4140   4.794   0.841   7.141 -0.3659  0.0488 -1.8592
   31SAPC   C26 4141   4.681   0.765   7.309 -0.8242  0.8748 -0.2607
   31SAPC   H6R 4142   4.757   0.688   7.330 -1.9396 -0.4850 -1.0894
   31SAPC   C27 4143   4.564   0.747   7.406  0.4644 -0.5055 -0.0372
   31SAPC   H7R 4144   4.477   0.701   7.355 -1.4507  0.3092  2.3688
   31SAPC   H7S 4145   4.532   0.846   7.445 -0.1209 -0.8808  0.4434
   31SAPC   C28 4146   4.592   0.659   7.528  1.2238  0.4181 -0.2591
   31SAPC   H8R 4147   4.643   0.564   7.503  1.1832  0.2357  0.3562
   31SAPC   C29 4148   4.552   0.688   7.658  0.1283  0.0540 -0.0375
   31SAPC   H9R 4149   4.580   0.611   7.731 -0.2559  0.6315  0.7255
   31SAPC  C210 4150   4.491   0.812   7.706  0.1067 -1.1713 -0.4681
   31SAPC  H10R 4151   4.544   0.903   7.670  1.6677 -0.7863  2.6838
   31SAPC  H10S 4152   4.501   0.825   7.816 -0.6012  0.9942 -0.6391
   31SAPC  C211 4153   4.345   0.839   7.683 -0.5958 -0.1209  0.7857
   31SAPC  H11R 4154   4.288   0.753   7.645 -0.1043 -1.5969  3.2305
   31SAPC  C212 4155   4.275   0.951   7.723 -0.1688  0.4246  0.1962
   31SAPC  H12R 4156   4.167   0.933   7.713  0.1734 -0.9609 -1.3382
   31SAPC  C213 4157   4.330   1.079   7.784  0.3590  0.5464 -0.0502
   31SAPC  H13R 4158   4.341   1.154   7.703  1.8012  1.4515  0.9584
   31SAPC  H13S 4159   4.430   1.056   7.827 -0.3210  0.5662  1.5547
   31SAPC  C214 4160   4.242   1.154   7.883  0.3662  0.0820 -0.3221
   31SAPC  H14R 4161   4.173   1.230   7.843 -1.2303 -1.5290 -0.6774
   31SAPC  C215 4162   4.263   1.141   8.015  0.2881 -0.3877 -0.2911
   31SAPC  H15R 4163   4.194   1.194   8.083 -1.5812 -1.6890 -1.1417
   31SAPC  C216 4164   4.361   1.059   8.094 -0.0032  0.9663  0.8983
   31SAPC  H16R 4165   4.418   0.996   8.023  1.0840  3.5166 -0.5719
   31SAPC  H16S 4166   4.313   1.013   8.183  0.6990 -0.5485  0.5027
   31SAPC  C217 4167   4.476   1.142   8.169  0.9932 -0.1367  0.4924
   31SAPC  H17R 4168   4.420   1.207   8.240 -0.6314  1.7539 -2.3798
   31SAPC  H17S 4169   4.524   1.205   8.091 -0.3703 -0.9809 -1.0739
   31SAPC  C218 4170   4.573   1.057   8.246  0.2709  0.3872  0.0456
   31SAPC  H18R 4171   4.636   0.986   8.188  0.0829  0.4127 -0.1920
   31SAPC  H18S 4172   4.513   0.991   8.312  0.4173 -0.5230 -0.7075
   31SAPC  C219 4173   4.675   1.145   8.315 -0.3792 -0.4810 -0.1224
   31SAPC  H19R 4174   4.638   1.233   8.372  0.3156 -0.2844  0.0341
   31SAPC  H19S 4175   4.739   1.193   8.237  0.0735  0.1844  0.6476
   31SAPC  C220 4176   4.756   1.064   8.424  0.8669 -0.6938 -0.4775
   31SAPC  H20R 4177   4.854   1.113   8.444 -0.5190  1.7106  0.5619
   31SAPC  H20S 4178   4.782   0.968   8.373  0.9995 -0.4577 -0.8624
   31SAPC  H20T 4179   4.701   1.065   8.520  2.3282 -0.9197  0.3711
   31SAPC   C33 4180   4.342   1.371   7.029  0.3815 -0.5144  0.4523
   31SAPC   H3X 4181   4.240   1.381   6.986  0.0889 -1.8409  0.8184
   31SAPC   H3Y 4182   4.400   1.454   6.983 -0.7707 -0.4826 -0.9832
   31SAPC   C34 4183   4.346   1.382   7.178  0.2988 -0.9108  0.4417
   31SAPC   H4X 4184   4.449   1.378   7.221  0.3188 -0.2380  0.4655
   31SAPC   H4Y 4185   4.282   1.300   7.216  0.7979 -0.7864  1.5619
   31SAPC   C35 4186   4.281   1.525   7.223  0.3773 -0.3078 -0.5285
   31SAPC   H5X 4187   4.175   1.531   7.191  0.3392 -0.2216 -0.3862
   31SAPC   H5Y 4188   4.343   1.600   7.169  0.7186  0.8453  1.4220
   31SAPC   C36 4189   4.300   1.552   7.379  0.7563  0.4217  0.4316
   31SAPC   H6X 4190   4.242   1.478   7.437  2.1648 -1.3798 -0.3887
   31SAPC   H6Y 4191   4.254   1.652   7.393 -2.7961 -1.0325 -0.3646
   31SAPC   C37 4192   4.446   1.552   7.422  0.2352 -0.3612  0.1248
   31SAPC   H7X 4193   4.499   1.630   7.365 -0.3020  0.6794  1.0344
   31SAPC   H7Y 4194   4.499   1.455   7.411 -0.7379 -0.7028 -1.7678
   31SAPC   C38 4195   4.457   1.603   7.566 -0.1469 -0.0891  0.4559
   31SAPC   H8X 4196   4.426   1.710   7.564  1.2656  0.4228 -5.6526
   31SAPC   H8Y 4197   4.562   1.593   7.599  0.4403 -0.5979 -1.4759
   31SAPC   C39 4198   4.370   1.527   7.668  1.1203  0.4030  0.2156
   31SAPC   H9X 4199   4.359   1.416   7.667 -0.5547  0.5323  1.8783
   31SAPC   H9Y 4200   4.268   1.565   7.648  1.0310  0.1676  0.2148
   31SAPC  C310 4201   4.395   1.563   7.816 -0.0576  0.0814  0.6533
   31SAPC  H10X 4202   4.417   1.672   7.821  2.1664 -0.3884  1.6587
   31SAPC  H10Y 4203   4.481   1.507   7.857 -0.2047 -0.4707  0.2089
   31SAPC  C311 4204   4.270   1.525   7.903 -0.5791 -0.2842 -0.0129
   31SAPC  H11X 4205   4.258   1.415   7.895  0.6252 -0.5307  1.2318
   31SAPC  H11Y 4206   4.183   1.579   7.860  0.8687  0.2044 -2.3978
   31SAPC  C312 4207   4.297   1.570   8.039  0.2668 -0.2011  0.2210
   31SAPC  H12X 4208   4.312   1.679   8.054  1.5800 -0.5547  1.5067
   31SAPC  H12Y 4209   4.389   1.524   8.080  0.6458  1.2394  1.0093
   31SAPC  C313 4210   4.179   1.535   8.138  0.1934  0.7988  0.5398
   31SAPC  H13X 4211   4.178   1.423   8.142 -0.6685  0.7859 -0.1471
   31SAPC  H13Y 4212   4.086   1.575   8.093  0.3047  0.9649  0.4576
   31SAPC  C314 4213   4.204   1.604   8.277 -0.0670  0.3916  0.4445
   31SAPC  H14X 4214   4.263   1.697   8.262 -2.0398  1.4997 -0.7079
   31SAPC  H14Y 4215   4.270   1.538   8.337 -0.2090 -0.9445 -0.8447
   31SAPC  C315 4216   4.072   1.650   8.345 -0.7543  0.0469  0.3525
   31SAPC  H15X 4217   4.006   1.562   8.358 -1.6364  0.5411 -0.6651
   31SAPC  H15Y 4218   4.011   1.717   8.280 -0.8793 -0.2034  0.2084
   31SAPC  C316 4219   4.084   1.699   8.490 -0.5021  0.1598 -0.1381
   31SAPC  H16X 4220   3.979   1.726   8.516 -0.2646  0.9013  0.0625
   31SAPC  H16Y 4221   4.149   1.788   8.503  0.7362 -0.8254  0.6396
   31SAPC  C317 4222   4.117   1.589   8.597  0.4641  0.4860 -1.0756
   31SAPC  H17X 4223   4.225   1.566   8.603  0.1008 -0.8787  0.7492
   31SAPC  H17Y 4224   4.066   1.497   8.562  1.0512 -0.0806 -0.4474
   31SAPC  C318 4225   4.059   1.616   8.739  0.6246 -0.5903  0.0516
   31SAPC  H18X 4226   4.115   1.551   8.808  2.6453 -0.5554 -1.5020
   31SAPC  H18Y 4227   3.948   1.615   8.729  0.7290 -0.9870 -1.1841
   31SAPC  H18Z 4228   4.089   1.720   8.766  1.3274 -0.8277  0.1759
   32SAPC     N 4229   5.824   1.651   6.225 -0.7309  0.1991 -0.2681
   32SAPC   C12 4230   5.941   1.727   6.162  0.9876  0.1082  0.5037
   32SAPC  H12A 4231   5.913   1.745   6.059  1.2476 -1.3880  0.1562
   32SAPC  H12B 4232   6.017   1.650   6.169 -1.4078 -2.4571 -0.7538
   32SAPC   C13 4233   5.702   1.731   6.225  0.1335  0.7018 -0.5958
   32SAPC  H13A 4234   5.717   1.824   6.279 -0.3982  0.0533  0.6780
   32SAPC  H13B 4235   5.674   1.753   6.123  2.8703 -0.5226 -1.6828
   32SAPC  H13C 4236   5.623   1.677   6.275  2.5337 -0.8577  1.6660
   32SAPC   C14 4237   5.799   1.521   6.158  0.0135  0.1894  0.0537
   32SAPC  H14A 4238   5.705   1.489   6.199  0.0955 -0.4623 -0.2546
   32SAPC  H14B 4239   5.774   1.538   6.054 -1.5706  0.6738  0.5037
   32SAPC  H14C 4240   5.881   1.451   6.167 -0.1378  0.1431  1.0833
   32SAPC   C15 4241   5.856   1.622   6.373  0.0199  0.5681  0.0926
   32SAPC  H15A 4242   5.770   1.576   6.419 -0.0036  1.1624  0.6509
   32SAPC  H15B 4243   5.931   1.546   6.391 -1.0890  0.1674  3.3514
   32SAPC  H15C 4244   5.880   1.716   6.422 -2.9095  1.8568 -0.8206
   32SAPC   C11 4245   5.984   1.862   6.230  0.2616  0.4067 -0.3052
   32SAPC  H11A 4246   5.892   1.918   6.256  2.4930  3.7802  0.6390
   32SAPC  H11B 4247   6.043   1.930   6.165  0.0019 -0.8504 -1.8815
   32SAPC     P 4248   6.184   1.761   6.384  0.4192  0.1212 -0.0385
   32SAPC   O13 4249   6.176   1.628   6.314 -0.3269 -0.3357 -0.4731
   32SAPC   O14 4250   6.303   1.847   6.357 -0.0137 -0.2694 -0.7696
   32SAPC   O12 4251   6.049   1.854   6.359 -0.2345  0.3299 -1.2927
   32SAPC   O11 4252   6.186   1.740   6.537  0.1551 -0.3818 -0.1060
   32SAPC    C1 4253   6.139   1.830   6.639 -0.6776  0.1829 -1.0082
   32SAPC    HA 4254   6.073   1.903   6.588 -1.5352  0.1441  0.0140
   32SAPC    HB 4255   6.079   1.773   6.713 -0.3603  2.2029  0.8686
   32SAPC    C2 4256   6.249   1.918   6.711 -0.1726 -0.5611 -0.6240
   32SAPC    HS 4257   6.303   1.968   6.628  0.2299 -3.9983 -2.4874
   32SAPC   O21 4258   6.331   1.830   6.790 -0.6356  0.3669  0.2613
   32SAPC   C21 4259   6.451   1.877   6.832  0.6056  0.7467 -0.4378
   32SAPC   O22 4260   6.493   1.988   6.813  0.5761 -0.7543  0.2023
   32SAPC   C22 4261   6.525   1.758   6.910 -0.0916  0.2605 -0.2134
   32SAPC   H2R 4262   6.446   1.718   6.977 -1.2487  0.4471 -1.4378
   32SAPC   H2S 4263   6.545   1.675   6.838 -2.0509 -0.2190 -0.2406
   32SAPC    C3 4264   6.174   2.030   6.793 -0.1726 -0.4346  0.5546
   32SAPC    HX 4265   6.122   2.091   6.716 -0.6347  0.5405  1.6126
   32SAPC    HY 4266   6.245   2.103   6.837 -0.1590  0.4991 -0.9732
   32SAPC   O31 4267   6.077   1.981   6.893  0.1880  0.5906 -0.5060
   32SAPC   C31 4268   6.135   1.933   7.003 -0.3433  0.8146  0.1406
   32SAPC   O32 4269   6.252   1.935   7.025  0.4417 -0.0118 -0.3535
   32SAPC   C32 4270   6.036   1.863   7.094 -0.4920 -0.6929 -0.0455
   32SAPC   H2X 4271   6.068   1.757   7.089  1.7912 -0.1296  1.4571
   32SAPC   H2Y 4272   5.933   1.872   7.056 -0.5420  1.9067  0.5715
   32SAPC   C23 4273   6.658   1.812   6.975  0.7859 -0.6947 -0.0010
   32SAPC   H3R 4274   6.635   1.879   7.061  0.1488  0.5510 -1.1221
   32SAPC   H3S 4275   6.720   1.871   6.905  0.1133 -1.4546 -1.2593
   32SAPC   C24 4276   6.731   1.676   7.017  0.1324  0.9701  0.4673
   32SAPC   H4R 4277   6.759   1.615   6.928  0.8071  0.9787  0.6675
   32SAPC   H4S 4278   6.663   1.610   7.074 -1.6075  0.4065 -2.1810
   32SAPC   C25 4279   6.857   1.707   7.099  0.3771  0.0793 -0.3665
   32SAPC   H5R 4280   6.920   1.783   7.049  0.3268 -0.3087 -1.0324
   32SAPC   C26 4281   6.894   1.664   7.224 -0.1484 -0.9629  0.5193
   32SAPC   H6R 4282   6.992   1.702   7.254 -0.5806 -0.4148  1.2457
   32SAPC   C27 4283   6.816   1.571   7.319  0.1465  0.2370  0.2066
   32SAPC   H7R 4284   6.728   1.524   7.270 -1.2203  2.3819  0.5576
   32SAPC   H7S 4285   6.766   1.624   7.403  1.3115  1.6836 -0.0020
   32SAPC   C28 4286   6.905   1.458   7.382  0.3981 -0.6952  0.1785
   32SAPC   H8R 4287   6.949   1.397   7.302 -0.0354 -2.2006  1.0602
   32SAPC   C29 4288   6.939   1.436   7.513  0.3901  0.0478 -0.6896
   32SAPC   H9R 4289   6.999   1.349   7.543  1.5582  1.0445 -0.0399
   32SAPC  C210 4290   6.897   1.521   7.629 -0.0574  0.2263  0.2502
   32SAPC  H10R 4291   6.846   1.615   7.600  0.7744  0.4767 -0.4405
   32SAPC  H10S 4292   6.983   1.559   7.688 -1.0446 -0.3329  2.0689
   32SAPC  C211 4293   6.806   1.450   7.730  0.2023  0.3534 -0.0374
   32SAPC  H11R 4294   6.787   1.344   7.708  2.8147 -0.2196  0.2555
   32SAPC  C212 4295   6.765   1.492   7.850  0.1227  0.7615 -0.3485
   32SAPC  H12R 4296   6.695   1.432   7.909 -1.7581  2.3918 -0.8559
   32SAPC  C213 4297   6.795   1.624   7.916  0.7327 -0.4014  0.0999
   32SAPC  H13R 4298   6.704   1.687   7.916 -0.1792 -1.6997 -0.5571
   32SAPC  H13S 4299   6.873   1.684   7.864 -1.2713  2.1040 -0.1288
   32SAPC  C214 4300   6.855   1.598   8.051 -0.2974  0.2454 -0.6776
   32SAPC  H14R 4301   6.950   1.542   8.056 -0.3255  0.1851 -0.8211
   32SAPC  C215 4302   6.806   1.637   8.174  0.7689  0.0276  0.2135
   32SAPC  H15R 4303   6.851   1.607   8.270 -2.1297 -0.6119  1.4082
   32SAPC  C216 4304   6.675   1.711   8.202 -0.5831  0.8042 -0.3021
   32SAPC  H16R 4305   6.635   1.760   8.110 -1.7531 -2.0359 -1.3663
   32SAPC  H16S 4306   6.694   1.801   8.264  0.4180  0.0659  0.4953
   32SAPC  C217 4307   6.559   1.621   8.256 -0.1521  0.0807  0.0655
   32SAPC  H17R 4308   6.583   1.596   8.362 -0.5910  0.9376  0.3677
   32SAPC  H17S 4309   6.565   1.523   8.203  0.4772 -0.2807  0.7819
   32SAPC  C218 4310   6.425   1.696   8.238  1.0868 -0.3327  0.2711
   32SAPC  H18R 4311   6.394   1.703   8.131  0.1701  3.8777  0.7249
   32SAPC  H18S 4312   6.432   1.800   8.276  0.6310 -0.5499  0.9498
   32SAPC  C219 4313   6.314   1.624   8.321 -0.6162 -0.3445 -0.0671
   32SAPC  H19R 4314   6.230   1.696   8.320  0.7154  1.2361 -0.9291
   32SAPC  H19S 4315   6.343   1.620   8.429 -0.3297  2.7926  0.0202
   32SAPC  C220 4316   6.278   1.488   8.261  0.7424 -0.1221  0.1611
   32SAPC  H20R 4317   6.223   1.416   8.325 -2.1746  0.7857 -1.2447
   32SAPC  H20S 4318   6.377   1.450   8.228  0.3071  0.3702 -1.7777
   32SAPC  H20T 4319   6.214   1.500   8.171 -1.4597  1.1035  1.8223
   32SAPC   C33 4320   6.046   1.920   7.236  0.1665 -0.5010 -0.2470
   32SAPC   H3X 4321   5.991   2.016   7.248  0.6196 -0.2579 -0.1080
   32SAPC   H3Y 4322   6.153   1.928   7.265  0.6408  0.5194 -2.1944
   32SAPC   C34 4323   5.986   1.814   7.336  0.4710  0.2416  0.2560
   32SAPC   H4X 4324   6.063   1.737   7.361  1.0486  0.3445 -1.1427
   32SAPC   H4Y 4325   5.902   1.753   7.298  0.2439  1.1058 -0.6530
   32SAPC   C35 4326   5.955   1.890   7.464 -0.0449  0.0500  0.0027
   32SAPC   H5X 4327   5.873   1.832   7.510 -0.4170  0.1619 -0.5189
   32SAPC   H5Y 4328   5.929   1.997   7.448  1.0925 -0.1559 -3.8969
   32SAPC   C36 4329   6.077   1.904   7.559 -0.2001  0.5373  0.5281
   32SAPC   H6X 4330   6.151   1.968   7.507 -1.3452  0.6544 -1.0028
   32SAPC   H6Y 4331   6.118   1.801   7.566 -0.3495  0.5319  1.4584
   32SAPC   C37 4332   6.048   1.969   7.690 -0.8107  0.5133  1.0078
   32SAPC   H7X 4333   5.992   2.062   7.663 -1.0151 -0.8987 -3.9451
   32SAPC   H7Y 4334   6.147   1.993   7.733  0.2616  0.7815 -1.5393
   32SAPC   C38 4335   5.959   1.888   7.787  0.5823 -0.3807  0.0272
   32SAPC   H8X 4336   5.995   1.784   7.804  1.9600  0.2298  0.8823
   32SAPC   H8Y 4337   5.855   1.877   7.748  0.9098 -1.5847 -0.5340
   32SAPC   C39 4338   5.940   1.957   7.917  0.7094  0.1824 -1.1156
   32SAPC   H9X 4339   5.897   2.059   7.913  0.8604  0.4736  2.7057
   32SAPC   H9Y 4340   6.038   1.969   7.966  1.5701 -3.1267 -1.8729
   32SAPC  C310 4341   5.838   1.881   8.020 -0.3644  0.1387  0.3551
   32SAPC  H10X 4342   5.875   1.776   8.027 -1.7677 -0.4317 -0.5110
   32SAPC  H10Y 4343   5.748   1.870   7.956 -2.0050 -1.8769  2.9136
   32SAPC  C311 4344   5.825   1.961   8.150 -0.4488  0.1162 -0.3046
   32SAPC  H11X 4345   5.735   1.931   8.208 -0.4757  5.7501  2.9491
   32SAPC  H11Y 4346   5.816   2.071   8.137  0.9239  0.2337 -0.3901
   32SAPC  C312 4347   5.941   1.937   8.245 -0.0088  0.2728 -0.0905
   32SAPC  H12X 4348   5.924   2.003   8.333 -2.0857 -0.8507  0.3787
   32SAPC  H12Y 4349   6.035   1.946   8.187 -0.0065 -1.1975 -0.3331
   32SAPC  C313 4350   5.944   1.803   8.316 -0.3261 -0.2653 -0.8797
   32SAPC  H13X 4351   6.034   1.802   8.381 -0.1240  0.3146 -1.1493
   32SAPC  H13Y 4352   5.958   1.733   8.231  0.6361  0.5880 -1.4337
   32SAPC  C314 4353   5.826   1.765   8.405  0.1699  0.0419 -0.6618
   32SAPC  H14X 4354   5.725   1.747   8.362  0.3609  0.0412 -1.1041
   32SAPC  H14Y 4355   5.806   1.848   8.477 -0.5950 -1.3737  0.7778
   32SAPC  C315 4356   5.865   1.628   8.473  0.2508 -0.2626  0.1135
   32SAPC  H15X 4357   5.911   1.567   8.392  0.7555  1.0687 -0.6249
   32SAPC  H15Y 4358   5.773   1.578   8.510 -0.4972  1.4340  0.5776
   32SAPC  C316 4359   5.965   1.645   8.589  0.4422  0.2324  0.8100
   32SAPC  H16X 4360   5.925   1.711   8.670 -0.3524  0.6081  0.1205
   32SAPC  H16Y 4361   6.060   1.682   8.546  0.4053  0.0698  0.5903
   32SAPC  C317 4362   6.002   1.507   8.642 -0.6127 -0.0618  0.7610
   32SAPC  H17X 4363   6.092   1.525   8.705 -1.1398  0.4181  1.3819
   32SAPC  H17Y 4364   6.022   1.422   8.574 -1.8251 -0.6830  1.1624
   32SAPC  C318 4365   5.889   1.460   8.745 -0.2442  1.0674 -0.0645
   32SAPC  H18X 4366   5.885   1.532   8.830 -3.0937  1.0238 -0.1177
   32SAPC  H18Y 4367   5.898   1.362   8.796  2.3607  0.6611 -1.2373
   32SAPC  H18Z 4368   5.789   1.451   8.698  0.3897  2.0559 -1.6327
   33POPC     N 4369   3.959   2.750  10.796  0.3434  0.5324  0.3733
   33POPC   C12 4370   3.973   2.795  10.651  0.2129 -0.6653  0.0525
   33POPC  H12A 4371   3.989   2.702  10.598  1.2333 -0.7466  0.4931
   33POPC  H12B 4372   4.045   2.875  10.646 -0.3104 -0.2620 -1.6211
   33POPC   C13 4373   3.937   2.873  10.872  0.2277 -0.2548  0.6148
   33POPC  H13A 4374   3.845   2.926  10.855  1.6094  2.3481  0.9714
   33POPC  H13B 4375   3.939   2.856  10.979  1.1635 -0.7635  0.5245
   33POPC  H13C 4376   4.009   2.953  10.864 -0.5793  0.4206  0.1322
   33POPC   C14 4377   3.850   2.654  10.824 -0.5945 -0.5128 -0.2571
   33POPC  H14A 4378   3.845   2.625  10.928 -0.8443 -1.7004 -0.5881
   33POPC  H14B 4379   3.753   2.701  10.815 -1.3951 -1.9585  0.6961
   33POPC  H14C 4380   3.865   2.566  10.763 -0.6529 -1.7353  1.4629
   33POPC   C15 4381   4.090   2.693  10.854 -0.3035  0.0272 -0.3845
   33POPC  H15A 4382   4.089   2.591  10.820 -0.7430  0.1468 -0.7349
   33POPC  H15B 4383   4.077   2.703  10.960 -0.2236  0.3982 -0.4071
   33POPC  H15C 4384   4.179   2.734  10.808  0.0711  0.2177  0.4991
   33POPC   C11 4385   3.844   2.859  10.589 -0.7699 -0.3741  0.3172
   33POPC  H11A 4386   3.756   2.794  10.607 -0.3832 -1.2777 -1.0213
   33POPC  H11B 4387   3.861   2.863  10.479 -1.0513  1.0749  0.3100
   33POPC     P 4388   3.906   3.112  10.586  0.1650 -0.3682 -0.1596
   33POPC   O13 4389   4.053   3.093  10.612 -0.0951 -0.7966  0.2950
   33POPC   O14 4390   3.853   3.239  10.638  0.7643 -0.3810 -0.1217
   33POPC   O12 4391   3.826   2.990  10.644  0.1999  0.4420  0.7480
   33POPC   O11 4392   3.886   3.104  10.425 -0.1054  0.0568  0.4712
   33POPC    C1 4393   3.799   3.188  10.352 -0.5970 -0.1909  0.5270
   33POPC    HA 4394   3.822   3.295  10.372 -1.0712  0.2652 -1.3380
   33POPC    HB 4395   3.823   3.195  10.244  1.9717  3.1207  1.2218
   33POPC    C2 4396   3.649   3.152  10.373  0.5531 -0.2123  0.5635
   33POPC    HS 4397   3.613   3.185  10.473 -0.9531  2.8080 -0.8822
   33POPC   O21 4398   3.629   3.016  10.352 -0.0790  0.1760 -0.4855
   33POPC   C21 4399   3.508   2.962  10.349 -0.7947  0.9093 -0.1855
   33POPC   O22 4400   3.406   3.013  10.390 -0.4645  0.1387  0.1175
   33POPC   C22 4401   3.527   2.821  10.308 -0.4784  0.0321 -0.6001
   33POPC   H2R 4402   3.611   2.779  10.368 -1.0308 -0.5504 -0.2236
   33POPC   H2S 4403   3.539   2.825  10.198 -0.5613 -0.7402 -0.6424
   33POPC    C3 4404   3.551   3.235  10.280 -0.5798  0.2757 -0.0892
   33POPC    HX 4405   3.576   3.341  10.300 -0.9013  0.0111  1.7946
   33POPC    HY 4406   3.443   3.225  10.303 -1.0553  1.4423 -1.7104
   33POPC   O31 4407   3.582   3.203  10.140  0.4627 -0.3097 -0.3574
   33POPC   C31 4408   3.507   3.274  10.056  0.2249 -0.1989  0.6595
   33POPC   O32 4409   3.418   3.349  10.093  0.2761  0.1600  0.5767
   33POPC   C32 4410   3.552   3.264   9.911  0.2815 -0.0243 -1.1605
   33POPC   H2X 4411   3.553   3.154   9.894 -0.0262 -0.2816  0.4285
   33POPC   H2Y 4412   3.654   3.309   9.911  0.1700  0.2711  0.7026
   33POPC   C23 4413   3.406   2.734  10.340  0.4425  0.7416 -0.0449
   33POPC   H3R 4414   3.309   2.778  10.307 -0.5190 -1.0800  0.3070
   33POPC   H3S 4415   3.398   2.728  10.450 -0.0869 -1.7834 -0.1837
   33POPC   C24 4416   3.407   2.590  10.279  0.2214 -0.3673  0.1480
   33POPC   H4R 4417   3.317   2.533  10.312 -1.0897  0.3268 -2.0845
   33POPC   H4S 4418   3.487   2.526  10.321  1.7471  0.6737 -1.1554
   33POPC   C25 4419   3.415   2.576  10.122  0.3323  0.5158  0.7431
   33POPC   H5R 4420   3.407   2.470  10.091 -0.0876  0.5791  0.6269
   33POPC   H5S 4421   3.517   2.603  10.088  1.4539 -0.5493  3.1562
   33POPC   C26 4422   3.313   2.666  10.040  0.0599  0.2900  0.2132
   33POPC   H6R 4423   3.324   2.775  10.061 -0.0727  0.3035  0.2089
   33POPC   H6S 4424   3.209   2.642  10.069 -0.4673  0.4157 -1.5111
   33POPC   C27 4425   3.333   2.641   9.892  0.6492 -0.5911 -0.1671
   33POPC   H7R 4426   3.299   2.537   9.870  0.8568 -0.1572 -2.6334
   33POPC   H7S 4427   3.443   2.634   9.875  0.7164 -1.1999  0.4711
   33POPC   C28 4428   3.261   2.748   9.801  0.0903  0.3219  0.1281
   33POPC   H8R 4429   3.315   2.766   9.706  1.1310  0.2221  0.6939
   33POPC   H8S 4430   3.281   2.843   9.855  1.2252  0.7874 -1.0920
   33POPC   C29 4431   3.112   2.727   9.790 -0.0941 -0.8952 -0.2826
   33POPC   H91 4432   3.062   2.721   9.888  0.0576  2.7278  0.0878
   33POPC  C210 4433   3.026   2.732   9.688  0.4233  0.8909 -0.1948
   33POPC  H101 4434   2.924   2.695   9.708 -0.1361  1.1327 -2.3815
   33POPC  C211 4435   3.062   2.737   9.542  0.0872 -0.8804 -0.8267
   33POPC  H11R 4436   3.169   2.721   9.519 -0.1252 -2.7708 -0.5555
   33POPC  H11S 4437   3.038   2.838   9.502  0.7326 -0.1883  0.4921
   33POPC  C212 4438   2.980   2.651   9.447 -0.1440 -0.1470 -0.2064
   33POPC  H12R 4439   2.876   2.689   9.446  0.0361  0.4327  1.1223
   33POPC  H12S 4440   2.984   2.546   9.483  3.0808 -0.2473 -0.6687
   33POPC  C213 4441   3.043   2.650   9.304 -0.1831 -0.1793 -0.5843
   33POPC  H13R 4442   3.056   2.748   9.253  0.1779 -0.4420 -0.9986
   33POPC  H13S 4443   2.964   2.603   9.242  0.0852 -1.2167 -0.1462
   33POPC  C214 4444   3.169   2.561   9.283 -0.1315 -0.0495 -1.0327
   33POPC  H14R 4445   3.168   2.480   9.359  1.3056 -0.9399 -1.9277
   33POPC  H14S 4446   3.258   2.625   9.296  0.0459 -0.2503 -1.2516
   33POPC  C215 4447   3.170   2.491   9.137 -0.0402 -0.1571 -0.0684
   33POPC  H15R 4448   3.084   2.421   9.134  0.2500 -0.6621  2.3453
   33POPC  H15S 4449   3.268   2.440   9.125 -0.6358 -1.1257 -0.7618
   33POPC  C216 4450   3.156   2.593   9.025 -0.1100 -0.3059  0.0814
   33POPC  H16R 4451   3.256   2.637   9.009 -0.2838  0.3691  0.8339
   33POPC  H16S 4452   3.089   2.677   9.055 -0.3079 -0.1613 -0.7397
   33POPC  C217 4453   3.108   2.522   8.897  0.4725  0.4273 -0.4595
   33POPC  H17R 4454   3.098   2.604   8.823 -4.1107  0.6353  0.2555
   33POPC  H17S 4455   3.010   2.472   8.915  0.1969  0.9776 -0.3872
   33POPC  C218 4456   3.211   2.420   8.839 -0.0338 -0.5948 -0.3136
   33POPC  H18R 4457   3.224   2.336   8.910 -0.2258  0.6092  1.1986
   33POPC  H18S 4458   3.306   2.477   8.830 -0.0772 -0.6619 -1.2391
   33POPC  H18T 4459   3.186   2.387   8.736  1.4581 -2.6636 -0.0350
   33POPC   C33 4460   3.470   3.338   9.805 -0.3059 -0.2245 -0.0835
   33POPC   H3X 4461   3.474   3.449   9.812  0.3719 -0.0526 -2.5680
   33POPC   H3Y 4462   3.368   3.295   9.816 -0.9207  0.9101 -1.2377
   33POPC   C34 4463   3.508   3.307   9.659  0.5303  0.1483  0.0641
   33POPC   H4X 4464   3.503   3.198   9.636  2.2781 -0.4411  2.3183
   33POPC   H4Y 4465   3.616   3.324   9.642  0.5276 -0.6863 -0.8236
   33POPC   C35 4466   3.417   3.382   9.552 -0.4286 -0.1694 -0.7172
   33POPC   H5X 4467   3.402   3.490   9.573 -0.5602  0.0244 -1.7822
   33POPC   H5Y 4468   3.313   3.349   9.572 -0.3157 -0.5409 -0.7214
   33POPC   C36 4469   3.473   3.349   9.412 -0.7612  0.2862  0.4656
   33POPC   H6X 4470   3.496   3.241   9.400  1.3035  1.0773 -3.2189
   33POPC   H6Y 4471   3.565   3.408   9.393  1.0269 -1.0570  4.3840
   33POPC   C37 4472   3.370   3.380   9.304 -0.1879  0.8786  0.1559
   33POPC   H7X 4473   3.349   3.489   9.301 -1.6887  0.6043  0.4963
   33POPC   H7Y 4474   3.270   3.334   9.315  0.5870 -0.6107  1.1297
   33POPC   C38 4475   3.431   3.362   9.161  0.7145 -1.0616 -1.1643
   33POPC   H8X 4476   3.462   3.256   9.155 -2.3778 -2.1907  1.3023
   33POPC   H8Y 4477   3.517   3.430   9.141  0.9828 -1.0578 -0.0200
   33POPC   C39 4478   3.327   3.399   9.054 -0.0297  0.5227 -0.4994
   33POPC   H9X 4479   3.288   3.500   9.080  0.0923  0.5193 -0.3056
   33POPC   H9Y 4480   3.250   3.319   9.062 -1.6274  2.0516 -0.3148
   33POPC  C310 4481   3.400   3.412   8.924  0.6828  0.5707  0.4756
   33POPC  H10X 4482   3.491   3.475   8.932  1.5868 -0.3115 -2.2330
   33POPC  H10Y 4483   3.330   3.465   8.855  2.3448  0.5808 -1.2581
   33POPC  C311 4484   3.426   3.281   8.847  0.3951  0.2902 -0.1210
   33POPC  H11X 4485   3.336   3.217   8.835  0.2922 -0.4759  4.0326
   33POPC  H11Y 4486   3.509   3.225   8.895 -0.2575  1.0661  2.0090
   33POPC  C312 4487   3.484   3.298   8.704  0.2834 -0.1101  0.7323
   33POPC  H12X 4488   3.581   3.352   8.696  0.4877 -0.6113 -0.1297
   33POPC  H12Y 4489   3.413   3.359   8.644  0.5402  0.2173  0.7586
   33POPC  C313 4490   3.498   3.168   8.620  0.2410  0.0804 -0.1375
   33POPC  H13X 4491   3.407   3.105   8.609  1.9943 -2.7701  1.0646
   33POPC  H13Y 4492   3.568   3.108   8.682  2.1221  1.9864 -0.3864
   33POPC  C314 4493   3.566   3.179   8.487  0.0684  0.1449 -0.6468
   33POPC  H14X 4494   3.642   3.261   8.483 -0.8754  1.1111  0.9641
   33POPC  H14Y 4495   3.489   3.213   8.415  0.9552  0.5919 -1.3948
   33POPC  C315 4496   3.641   3.049   8.440 -0.5228  0.5132 -0.1783
   33POPC  H15X 4497   3.566   2.968   8.432 -0.5103  0.4352  0.5138
   33POPC  H15Y 4498   3.700   3.010   8.526 -2.7936  1.5123  1.8972
   33POPC  C316 4499   3.717   3.063   8.316 -0.0912 -0.5894  0.1314
   33POPC  H16X 4500   3.759   2.963   8.294 -0.3743 -0.9533  1.2107
   33POPC  H16Y 4501   3.798   3.136   8.333 -1.6133  1.3938 -0.8779
   33POPC  H16Z 4502   3.652   3.104   8.235  0.1741 -4.2974 -2.1021
   34POPC     N 4503   3.169   3.045  10.721  0.2903 -0.1275  0.2694
   34POPC   C12 4504   3.150   3.044  10.872 -0.4485 -0.4261  0.3027
   34POPC  H12A 4505   3.169   2.941  10.900  1.0713 -0.5293 -1.1190
   34POPC  H12B 4506   3.046   3.067  10.891 -0.5733 -0.6143 -0.1692
   34POPC   C13 4507   3.313   3.038  10.675  0.2838 -0.5689 -0.1782
   34POPC  H13A 4508   3.372   2.963  10.726  1.7959  0.2495 -0.6903
   34POPC  H13B 4509   3.319   3.015  10.569  1.0443  1.8751 -0.6929
   34POPC  H13C 4510   3.361   3.132  10.697 -0.3268 -0.2342 -0.2870
   34POPC   C14 4511   3.109   2.913  10.669  0.2127  0.9346 -0.4204
   34POPC  H14A 4512   3.002   2.913  10.681  0.1556  0.5274 -0.9174
   34POPC  H14B 4513   3.106   2.903  10.562  1.8932 -0.6750 -0.3555
   34POPC  H14C 4514   3.146   2.822  10.715  1.3389  0.7204 -1.6908
   34POPC   C15 4515   3.110   3.166  10.658  0.1322  0.7058 -0.0910
   34POPC  H15A 4516   3.131   3.176  10.552  3.1512  0.7629  0.4711
   34POPC  H15B 4517   3.137   3.251  10.718 -0.4599 -0.2629  1.5647
   34POPC  H15C 4518   3.002   3.163  10.655  0.1661 -2.1401 -0.1939
   34POPC   C11 4519   3.241   3.133  10.950 -0.0583 -0.7844 -0.2087
   34POPC  H11A 4520   3.340   3.087  10.967  0.9210  0.9717 -0.9956
   34POPC  H11B 4521   3.186   3.136  11.047 -0.2791 -0.1491 -0.3522
   34POPC     P 4522   3.375   3.346  10.845 -0.2878  0.0368  0.0962
   34POPC   O13 4523   3.505   3.275  10.823 -0.0144  0.0655 -0.5929
   34POPC   O14 4524   3.379   3.464  10.937 -0.3036  0.1143 -0.9548
   34POPC   O12 4525   3.255   3.266  10.900 -0.4819 -0.0070  0.3524
   34POPC   O11 4526   3.312   3.392  10.705  0.8768  0.2390  0.5401
   34POPC    C1 4527   3.281   3.529  10.683 -0.5647  0.1246 -0.1471
   34POPC    HA 4528   3.374   3.590  10.687 -0.8613  0.6752 -1.4018
   34POPC    HB 4529   3.222   3.581  10.762  0.7961  2.0531 -0.3667
   34POPC    C2 4530   3.197   3.554  10.555 -0.1325  0.4578  0.6775
   34POPC    HS 4531   3.192   3.663  10.530 -0.4715 -0.1152 -1.9401
   34POPC   O21 4532   3.059   3.517  10.583 -0.5628 -0.4623 -0.1085
   34POPC   C21 4533   2.977   3.604  10.642  0.5038 -0.4799  0.1682
   34POPC   O22 4534   3.006   3.710  10.691 -0.3259  0.0519 -0.2052
   34POPC   C22 4535   2.833   3.564  10.619  0.0832  0.3710  0.2995
   34POPC   H2R 4536   2.764   3.628  10.678  1.3265 -0.4701  2.7291
   34POPC   H2S 4537   2.814   3.461  10.657 -1.8038  0.5339 -0.1493
   34POPC    C3 4538   3.267   3.480  10.435  0.0716 -0.2258 -0.1637
   34POPC    HX 4539   3.266   3.373  10.463 -1.0111  0.1350  1.2009
   34POPC    HY 4540   3.375   3.507  10.432  0.1460 -0.5705 -0.7280
   34POPC   O31 4541   3.208   3.498  10.308 -0.4889 -0.3972 -0.5445
   34POPC   C31 4542   3.255   3.604  10.241 -0.3921 -0.1205  0.2446
   34POPC   O32 4543   3.322   3.690  10.288  0.4138 -0.1336  0.2675
   34POPC   C32 4544   3.201   3.602  10.099 -0.6378  0.8800 -0.0662
   34POPC   H2X 4545   3.100   3.649  10.099 -1.3513 -0.6282 -0.4813
   34POPC   H2Y 4546   3.191   3.496  10.067  2.4331  0.7577 -0.7851
   34POPC   C23 4547   2.783   3.590  10.478  0.0133 -0.5261  0.3432
   34POPC   H3R 4548   2.787   3.695  10.441 -1.5091  0.0161  1.6642
   34POPC   H3S 4549   2.677   3.560  10.487 -0.1753 -0.1595 -0.6634
   34POPC   C24 4550   2.858   3.502  10.377 -0.2645  0.4259 -0.3275
   34POPC   H4R 4551   2.855   3.396  10.411 -0.5155  1.1652  2.0315
   34POPC   H4S 4552   2.964   3.533  10.377 -0.0666 -0.2319 -0.5511
   34POPC   C25 4553   2.795   3.521  10.240 -0.2037  0.4680 -0.6891
   34POPC   H5R 4554   2.812   3.628  10.216  0.0131  1.3092  2.8572
   34POPC   H5S 4555   2.688   3.493  10.241 -0.0421 -0.1734  0.9163
   34POPC   C26 4556   2.876   3.449  10.124 -0.1185 -0.1837 -0.5415
   34POPC   H6R 4557   2.831   3.348  10.113 -0.3474  0.0739 -1.9827
   34POPC   H6S 4558   2.983   3.436  10.152 -0.1179  2.7782  1.0819
   34POPC   C27 4559   2.877   3.534   9.995 -0.3026 -0.1940  0.3254
   34POPC   H7R 4560   2.968   3.517   9.934 -0.5821 -1.4259  0.2372
   34POPC   H7S 4561   2.875   3.639  10.032 -1.4737 -0.9891  2.6622
   34POPC   C28 4562   2.749   3.525   9.910 -0.0865  0.5835 -0.7924
   34POPC   H8R 4563   2.662   3.497   9.973 -0.4025 -1.1404 -1.9749
   34POPC   H8S 4564   2.763   3.439   9.842 -1.3321 -0.3170  0.0845
   34POPC   C29 4565   2.712   3.650   9.838 -0.3049  0.8240  0.2843
   34POPC   H91 4566   2.671   3.735   9.895  0.0225  2.1173 -1.3568
   34POPC  C210 4567   2.715   3.669   9.705 -0.5132  0.6817 -0.1717
   34POPC  H101 4568   2.669   3.755   9.654 -3.0508 -0.9736 -0.7538
   34POPC  C211 4569   2.767   3.558   9.613  0.2930 -0.3588  0.2612
   34POPC  H11R 4570   2.707   3.465   9.602 -2.5682  1.4409  0.0766
   34POPC  H11S 4571   2.869   3.528   9.647  1.2387 -2.0075 -3.7880
   34POPC  C212 4572   2.785   3.614   9.467 -0.1796 -0.0641 -0.6794
   34POPC  H12R 4573   2.830   3.716   9.465 -3.5115  1.4575 -0.9351
   34POPC  H12S 4574   2.686   3.635   9.422  0.2364 -2.3394 -2.7579
   34POPC  C213 4575   2.879   3.525   9.381 -0.0638  0.0846 -0.4599
   34POPC  H13R 4576   2.849   3.420   9.403  1.4971 -0.3054 -0.1270
   34POPC  H13S 4577   2.983   3.533   9.418  0.4210  0.2218 -1.8060
   34POPC  C214 4578   2.867   3.572   9.234 -0.5003 -0.0647  0.1272
   34POPC  H14R 4579   2.889   3.681   9.234 -1.0044  0.0582  1.9335
   34POPC  H14S 4580   2.760   3.555   9.209 -0.8983  0.9922  1.0754
   34POPC  C215 4581   2.958   3.505   9.133  0.3496  0.1991 -0.5867
   34POPC  H15R 4582   2.929   3.398   9.142 -0.5953  0.3835 -1.3620
   34POPC  H15S 4583   3.060   3.513   9.176  0.0674  0.2008  0.0751
   34POPC  C216 4584   2.946   3.555   8.990 -0.0981 -0.4283 -0.6193
   34POPC  H16R 4585   3.030   3.509   8.934  0.6253  1.7729 -1.3816
   34POPC  H16S 4586   2.946   3.665   9.005  1.6128 -0.4439 -0.3065
   34POPC  C217 4587   2.818   3.507   8.923 -0.6633  0.1034 -0.1286
   34POPC  H17R 4588   2.818   3.561   8.826  1.3314 -0.9077 -0.7295
   34POPC  H17S 4589   2.727   3.542   8.976 -0.0561  0.4508  0.7014
   34POPC  C218 4590   2.819   3.360   8.894 -0.0010  0.7460  0.5254
   34POPC  H18R 4591   2.753   3.319   8.814  1.9556 -1.8937  0.1987
   34POPC  H18S 4592   2.803   3.295   8.983  1.1010  1.3209  1.1413
   34POPC  H18T 4593   2.919   3.351   8.847 -0.0824  0.8806  0.3265
   34POPC   C33 4594   3.299   3.682  10.003 -0.3402 -0.5826  0.0911
   34POPC   H3X 4595   3.402   3.648  10.028 -0.9879 -1.9204  0.9922
   34POPC   H3Y 4596   3.306   3.788  10.033 -0.1778 -0.7771  0.7603
   34POPC   C34 4597   3.253   3.684   9.859 -0.9125  0.2863 -0.4444
   34POPC   H4X 4598   3.216   3.585   9.825 -1.4972 -0.0143  1.0294
   34POPC   H4Y 4599   3.341   3.703   9.794  1.8274 -1.1026  2.7315
   34POPC   C35 4600   3.152   3.789   9.832  0.0921 -0.1999 -0.4712
   34POPC   H5X 4601   3.209   3.884   9.837 -0.5039  0.3780 -3.3815
   34POPC   H5Y 4602   3.083   3.790   9.918  0.4517 -0.2346 -0.1800
   34POPC   C36 4603   3.083   3.785   9.695  0.8811  0.6486 -0.1323
   34POPC   H6X 4604   3.045   3.888   9.676  0.6365  0.7837  1.0372
   34POPC   H6Y 4605   2.995   3.719   9.709  0.9127  0.4735 -0.7284
   34POPC   C37 4606   3.177   3.757   9.576  0.0291  0.2619 -0.1490
   34POPC   H7X 4607   3.108   3.756   9.488  0.4280 -0.2702 -0.4551
   34POPC   H7Y 4608   3.231   3.661   9.590  1.2398  0.8923 -0.4003
   34POPC   C38 4609   3.289   3.857   9.544  0.3235  0.0580 -0.5376
   34POPC   H8X 4610   3.377   3.817   9.598 -0.7005  2.3785  3.0474
   34POPC   H8Y 4611   3.266   3.955   9.590 -0.6308  0.3425 -1.6188
   34POPC   C39 4612   3.337   3.865   9.401 -0.7000  0.0972  0.8899
   34POPC   H9X 4613   3.365   3.761   9.374 -0.4439  0.7319 -1.4843
   34POPC   H9Y 4614   3.428   3.926   9.386  0.9060 -2.6397 -0.9483
   34POPC  C310 4615   3.230   3.926   9.302  0.0157  0.2384  0.6156
   34POPC  H10X 4616   3.184   4.018   9.346 -0.8673 -0.8130  1.9211
   34POPC  H10Y 4617   3.148   3.850   9.304 -0.7564  1.1021  2.6222
   34POPC  C311 4618   3.274   3.946   9.156  0.9037  0.2419 -0.4976
   34POPC  H11X 4619   3.349   4.028   9.158  0.7099  0.4032  0.1994
   34POPC  H11Y 4620   3.200   3.999   9.092 -3.0118 -3.1916  0.9768
   34POPC  C312 4621   3.333   3.819   9.091  0.2108  0.7125 -0.3336
   34POPC  H12X 4622   3.263   3.734   9.106  0.6380  0.6594  1.4957
   34POPC  H12Y 4623   3.431   3.788   9.132  0.0955  2.3041  1.2335
   34POPC  C313 4624   3.347   3.837   8.938 -0.4200  0.3486  0.3131
   34POPC  H13X 4625   3.412   3.760   8.891  0.5307  1.4773 -0.2481
   34POPC  H13Y 4626   3.389   3.940   8.934 -0.5715  0.3601 -1.2859
   34POPC  C314 4627   3.206   3.836   8.875 -0.0846 -0.4634  0.1793
   34POPC  H14X 4628   3.152   3.931   8.894  1.1011  0.5914 -1.5575
   34POPC  H14Y 4629   3.150   3.760   8.934 -2.5532 -0.1260 -1.6311
   34POPC  C315 4630   3.185   3.787   8.724  0.4847 -0.2141  0.2776
   34POPC  H15X 4631   3.245   3.697   8.701  0.8533 -0.0362  0.5366
   34POPC  H15Y 4632   3.230   3.874   8.670  0.5429  0.2693  1.0946
   34POPC  C316 4633   3.042   3.772   8.686 -0.7452  0.1704 -0.1487
   34POPC  H16X 4634   3.037   3.751   8.578  0.2739  1.9551 -0.5707
   34POPC  H16Y 4635   2.987   3.869   8.694  2.0095  1.8138 -0.3232
   34POPC  H16Z 4636   2.986   3.686   8.727  0.8755 -0.6063  0.4736
   35POPC     N 4637   2.289   1.718  11.344  0.3862  0.2649 -0.5242
   35POPC   C12 4638   2.298   1.667  11.196 -0.1026  0.0723 -1.3395
   35POPC  H12A 4639   2.398   1.637  11.171 -0.0637  0.1812 -1.3160
   35POPC  H12B 4640   2.306   1.755  11.134  1.1255  0.8964 -0.0412
   35POPC   C13 4641   2.301   1.599  11.432  0.3209 -0.2089 -0.4883
   35POPC  H13A 4642   2.250   1.514  11.390  1.4803 -1.9084  1.4193
   35POPC  H13B 4643   2.405   1.570  11.442  1.4888  3.7808  0.1448
   35POPC  H13C 4644   2.264   1.610  11.533  1.1204  0.5635 -0.2697
   35POPC   C14 4645   2.391   1.812  11.381  0.2106  0.3012  0.0516
   35POPC  H14A 4646   2.401   1.829  11.487 -0.7727 -1.3966  0.4315
   35POPC  H14B 4647   2.490   1.784  11.349  0.2975  2.0564 -1.2982
   35POPC  H14C 4648   2.373   1.907  11.332 -1.1357  2.0850  3.8192
   35POPC   C15 4649   2.152   1.778  11.372 -0.0948  0.0155 -0.2894
   35POPC  H15A 4650   2.084   1.694  11.371 -0.1980  0.0022  3.3800
   35POPC  H15B 4651   2.129   1.856  11.301  1.2077  0.8239  0.1667
   35POPC  H15C 4652   2.155   1.828  11.467  0.3195  1.3176 -0.9711
   35POPC   C11 4653   2.183   1.572  11.151 -0.4098 -0.4897 -0.1958
   35POPC  H11A 4654   2.217   1.553  11.047  1.9853 -0.3771  0.5381
   35POPC  H11B 4655   2.086   1.625  11.158 -0.0331  0.1045  0.6988
   35POPC     P 4656   2.281   1.330  11.212 -0.3641  0.1364 -0.4857
   35POPC   O13 4657   2.229   1.214  11.293  0.3471 -0.1122 -0.1931
   35POPC   O14 4658   2.423   1.361  11.232 -0.0092 -0.4044  0.3522
   35POPC   O12 4659   2.183   1.454  11.228 -0.0777  0.2814  0.4935
   35POPC   O11 4660   2.265   1.281  11.063 -0.1487 -0.0790  0.3826
   35POPC    C1 4661   2.124   1.252  11.029  0.0581 -0.4658  0.1361
   35POPC    HA 4662   2.047   1.315  11.077 -2.7171 -3.3378 -0.4093
   35POPC    HB 4663   2.094   1.153  11.069 -1.0559 -0.2821 -0.2450
   35POPC    C2 4664   2.112   1.235  10.875 -0.4917  0.6867 -0.3354
   35POPC    HS 4665   2.032   1.159  10.865  0.9863 -1.2109  1.8472
   35POPC   O21 4666   2.228   1.170  10.813  0.1420  0.1873 -0.2655
   35POPC   C21 4667   2.244   1.039  10.832 -0.6887 -0.2528 -0.0413
   35POPC   O22 4668   2.159   0.963  10.866  0.3809  0.5836 -0.4366
   35POPC   C22 4669   2.381   0.996  10.778  1.0943 -0.4086  0.1055
   35POPC   H2R 4670   2.452   0.976  10.861  0.5035  1.1204  0.9958
   35POPC   H2S 4671   2.432   1.071  10.712  1.1335  1.4338  2.1621
   35POPC    C3 4672   2.087   1.366  10.801  0.1484 -0.0068  0.2646
   35POPC    HX 4673   2.175   1.434  10.807  1.0172 -1.0604 -0.2112
   35POPC    HY 4674   1.999   1.412  10.850  0.5592  1.3440 -0.2366
   35POPC   O31 4675   2.047   1.341  10.660  0.8211 -0.6695  0.2542
   35POPC   C31 4676   2.101   1.430  10.573  0.0586 -0.4750 -0.3813
   35POPC   O32 4677   2.159   1.536  10.595 -0.2998  0.6062  0.3131
   35POPC   C32 4678   2.092   1.370  10.430  0.0097 -0.6042 -0.4557
   35POPC   H2X 4679   2.014   1.291  10.432 -0.9575  0.3276 -0.5853
   35POPC   H2Y 4680   2.186   1.316  10.408  1.0521  1.0786 -0.2435
   35POPC   C23 4681   2.367   0.862  10.707 -0.0860  0.6298  0.2077
   35POPC   H3R 4682   2.299   0.794  10.763 -0.3395  1.4945  0.9680
   35POPC   H3S 4683   2.462   0.805  10.704 -0.4780  0.0168 -0.9233
   35POPC   C24 4684   2.312   0.877  10.573 -0.0491 -0.6945  0.2795
   35POPC   H4R 4685   2.232   0.954  10.579  0.7259  0.0682  1.0328
   35POPC   H4S 4686   2.267   0.778  10.549 -3.3925  0.6772  0.6897
   35POPC   C25 4687   2.416   0.910  10.460  0.5123 -0.1040 -0.3647
   35POPC   H5R 4688   2.478   0.823  10.432 -0.2166 -1.1305  1.1737
   35POPC   H5S 4689   2.492   0.982  10.499  0.0057  0.7009 -0.8443
   35POPC   C26 4690   2.347   0.960  10.334 -0.0073 -0.2499  0.1758
   35POPC   H6R 4691   2.270   1.037  10.355  0.3119 -0.2790  1.4848
   35POPC   H6S 4692   2.279   0.881  10.295 -2.1868  1.5868  0.1914
   35POPC   C27 4693   2.441   1.001  10.219  0.0469 -0.6554  0.2528
   35POPC   H7R 4694   2.487   0.906  10.182 -0.2272 -2.0599  3.2933
   35POPC   H7S 4695   2.514   1.074  10.260  0.8626  0.5049 -3.1257
   35POPC   C28 4696   2.367   1.057  10.106 -0.6364 -0.0481 -0.2761
   35POPC   H8R 4697   2.311   1.148  10.139  2.1752  1.7683 -0.3227
   35POPC   H8S 4698   2.287   0.982  10.088 -1.6458  0.3921  2.0597
   35POPC   C29 4699   2.451   1.085   9.986 -0.7195 -0.8257 -0.0388
   35POPC   H91 4700   2.522   1.167  10.003 -0.4291 -0.8829 -0.9706
   35POPC  C210 4701   2.455   1.015   9.876 -0.5911  0.5773  0.0082
   35POPC  H101 4702   2.516   1.048   9.791 -0.4849  1.2295  0.3355
   35POPC  C211 4703   2.376   0.895   9.836  0.6468  0.3124  0.0258
   35POPC  H11R 4704   2.312   0.860   9.920 -0.9262 -0.3077 -1.3962
   35POPC  H11S 4705   2.452   0.814   9.829  2.8713  2.4931 -1.7372
   35POPC  C212 4706   2.304   0.911   9.701 -0.4239  0.3120 -0.0028
   35POPC  H12R 4707   2.237   0.999   9.710 -2.2440 -1.0600  0.1571
   35POPC  H12S 4708   2.244   0.817   9.695 -0.1821  0.3019 -3.1695
   35POPC  C213 4709   2.390   0.918   9.572 -0.8963  0.1419  0.5518
   35POPC  H13R 4710   2.435   0.818   9.555  2.5734  0.9882  4.0680
   35POPC  H13S 4711   2.466   0.999   9.579 -1.7691  0.9854  0.4534
   35POPC  C214 4712   2.305   0.942   9.445 -0.1838  0.9835  0.2456
   35POPC  H14R 4713   2.251   1.037   9.464  1.5745  1.8698  0.9626
   35POPC  H14S 4714   2.237   0.856   9.429  1.0814  0.0764 -0.3647
   35POPC  C215 4715   2.384   0.955   9.318  0.9750  0.9176 -0.7171
   35POPC  H15R 4716   2.458   0.872   9.322 -1.5090 -1.3076 -0.0240
   35POPC  H15S 4717   2.444   1.049   9.324  0.2738  1.2200  2.4499
   35POPC  C216 4718   2.296   0.956   9.193  0.0890  0.1752 -0.5743
   35POPC  H16R 4719   2.204   1.017   9.199  1.1970  1.9027 -0.6655
   35POPC  H16S 4720   2.265   0.850   9.185  1.3107 -0.2508  0.0967
   35POPC  C217 4721   2.375   1.003   9.073  0.1153  0.9316 -0.4455
   35POPC  H17R 4722   2.462   0.936   9.088 -0.1643  1.2606  2.9339
   35POPC  H17S 4723   2.401   1.109   9.091  0.2999  0.5839  1.3782
   35POPC  C218 4724   2.305   0.998   8.943 -0.1523  0.8388 -0.2774
   35POPC  H18R 4725   2.368   1.042   8.862 -1.0610  1.1172 -0.8418
   35POPC  H18S 4726   2.217   1.064   8.959 -1.1922 -0.3786 -0.8226
   35POPC  H18T 4727   2.264   0.902   8.904 -0.1074  1.1549 -1.1194
   35POPC   C33 4728   2.064   1.467  10.317  0.2643  0.6159  0.3091
   35POPC   H3X 4729   2.136   1.552  10.315 -0.1226  0.9757  1.1829
   35POPC   H3Y 4730   1.962   1.510  10.331  0.2779  0.5141  0.7184
   35POPC   C34 4731   2.079   1.393  10.177 -0.0209  0.0496  0.4240
   35POPC   H4X 4732   2.023   1.297  10.184  0.1491 -0.0207  0.9033
   35POPC   H4Y 4733   2.183   1.361  10.151  0.4198  1.9154 -0.1345
   35POPC   C35 4734   2.035   1.475  10.055 -0.1415  0.2656 -0.4343
   35POPC   H5X 4735   2.106   1.555  10.025 -0.7239 -0.5688 -4.3921
   35POPC   H5Y 4736   1.937   1.522  10.080 -0.7017 -2.3755  2.5560
   35POPC   C36 4737   2.005   1.386   9.934 -0.2247  0.5028 -0.1993
   35POPC   H6X 4738   1.906   1.336   9.944 -0.0447  0.1594 -0.1105
   35POPC   H6Y 4739   2.079   1.304   9.932 -1.7582 -1.0047  2.0606
   35POPC   C37 4740   2.003   1.475   9.806  0.2309  0.0289 -0.4294
   35POPC   H7X 4741   2.106   1.513   9.784  0.3563 -0.2483 -0.3264
   35POPC   H7Y 4742   1.931   1.555   9.832 -0.4354 -1.2291  1.7632
   35POPC   C38 4743   1.933   1.394   9.696  0.1592 -0.2905 -0.0668
   35POPC   H8X 4744   1.832   1.360   9.725 -0.4893  1.3257 -0.3488
   35POPC   H8Y 4745   1.988   1.298   9.689  0.5831 -0.3218  2.8169
   35POPC   C39 4746   1.943   1.449   9.551 -0.7945 -0.6273 -0.4168
   35POPC   H9X 4747   2.036   1.507   9.534 -1.1014 -0.0770 -0.2426
   35POPC   H9Y 4748   1.858   1.520   9.538 -1.1752 -1.0621 -0.2824
   35POPC  C310 4749   1.935   1.345   9.439 -0.1543  0.3185  0.2784
   35POPC  H10X 4750   1.835   1.298   9.442 -0.4729  0.6645 -3.2263
   35POPC  H10Y 4751   2.019   1.272   9.441 -1.0386 -0.8015 -2.3075
   35POPC  C311 4752   1.946   1.420   9.309  0.6435  0.3074  0.0716
   35POPC  H11X 4753   2.036   1.486   9.313 -0.8788  2.3515  2.1127
   35POPC  H11Y 4754   1.853   1.472   9.279  0.9146  0.2536 -0.9033
   35POPC  C312 4755   1.979   1.325   9.186  0.6962 -0.0335 -0.3497
   35POPC  H12X 4756   1.916   1.234   9.183 -0.1428  0.5043  0.6559
   35POPC  H12Y 4757   2.081   1.293   9.216  1.6798  0.7364 -2.7755
   35POPC  C313 4758   1.986   1.401   9.052 -0.5368 -0.9861 -0.5461
   35POPC  H13X 4759   2.045   1.494   9.062  0.8092 -1.7722 -0.9529
   35POPC  H13Y 4760   1.889   1.424   9.003 -0.7748 -1.9962 -0.5772
   35POPC  C314 4761   2.065   1.315   8.950  0.2378  0.2858  0.5175
   35POPC  H14X 4762   2.007   1.223   8.932 -0.0016 -0.0754  3.0245
   35POPC  H14Y 4763   2.163   1.286   8.992 -0.2183  0.1174  1.4736
   35POPC  C315 4764   2.104   1.387   8.817  0.0230 -0.2358  0.0252
   35POPC  H15X 4765   2.147   1.486   8.844 -0.1190 -0.8607  2.6174
   35POPC  H15Y 4766   2.004   1.407   8.774  0.9061  0.2668 -1.8662
   35POPC  C316 4767   2.200   1.316   8.718  0.2278 -0.0009 -0.7121
   35POPC  H16X 4768   2.157   1.222   8.677  0.5836 -0.5879  0.2405
   35POPC  H16Y 4769   2.293   1.283   8.770  0.4088 -0.4912 -1.3419
   35POPC  H16Z 4770   2.226   1.382   8.633 -2.6226 -0.3784 -1.9520
   36POPC     N 4771   2.071   6.086  10.836 -0.6785  0.0506  0.6883
   36POPC   C12 4772   2.016   6.153  10.961  0.9331 -0.2775  0.1768
   36POPC  H12A 4773   2.105   6.185  11.012 -0.1311  0.5136  1.5514
   36POPC  H12B 4774   1.970   6.078  11.023  0.4621  0.8023  1.1380
   36POPC   C13 4775   2.145   5.963  10.865 -0.0427 -0.2181  0.3644
   36POPC  H13A 4776   2.195   5.930  10.775 -0.4932 -1.0493  0.4183
   36POPC  H13B 4777   2.232   5.990  10.924 -0.1072 -1.9729  1.3009
   36POPC  H13C 4778   2.090   5.887  10.917  0.1024 -0.2201  0.5163
   36POPC   C14 4779   1.951   6.057  10.752 -0.4552 -0.2500  0.0652
   36POPC  H14A 4780   1.893   5.979  10.799  0.8253 -1.4795 -0.3657
   36POPC  H14B 4781   1.894   6.149  10.744 -0.8951 -0.6628 -1.5850
   36POPC  H14C 4782   1.979   6.030  10.652 -3.3763 -2.3416 -0.2685
   36POPC   C15 4783   2.165   6.186  10.771  0.7742 -0.0041 -0.4574
   36POPC  H15A 4784   2.247   6.203  10.840  0.2624 -0.1631  0.1959
   36POPC  H15B 4785   2.113   6.278  10.750  0.3814 -0.2604 -0.6124
   36POPC  H15C 4786   2.211   6.155  10.679  0.8147 -1.1903 -0.0478
   36POPC   C11 4787   1.919   6.280  10.941  0.7060  0.3061  0.7278
   36POPC  H11A 4788   1.886   6.296  11.046 -4.1292 -3.2952 -0.0418
   36POPC  H11B 4789   1.830   6.264  10.876  1.1672  0.3527  0.0864
   36POPC     P 4790   2.101   6.478  10.979 -0.1790 -0.1635 -0.1481
   36POPC   O13 4791   2.228   6.477  10.902 -0.1249 -0.3194  0.5998
   36POPC   O14 4792   2.112   6.410  11.112  0.3752 -0.1491  0.1360
   36POPC   O12 4793   1.994   6.399  10.899  0.2390  0.6358 -0.1420
   36POPC   O11 4794   2.046   6.624  10.990  0.6234  0.1576 -0.0686
   36POPC    C1 4795   1.921   6.670  10.931  0.7222 -0.2149  1.0579
   36POPC    HA 4796   1.899   6.759  10.994 -1.8534 -1.2166  1.6163
   36POPC    HB 4797   1.840   6.596  10.949 -1.2618  0.9990 -2.3280
   36POPC    C2 4798   1.926   6.711  10.781 -0.1298  0.2841 -0.6401
   36POPC    HS 4799   1.828   6.751  10.745  0.1572  0.5128 -1.1769
   36POPC   O21 4800   1.960   6.598  10.694 -0.2515 -0.1234 -0.6849
   36POPC   C21 4801   1.867   6.507  10.664 -0.4181  0.0695 -0.3461
   36POPC   O22 4802   1.753   6.512  10.702 -0.1887  0.1393 -0.5600
   36POPC   C22 4803   1.930   6.409  10.565 -0.6335 -0.0392  0.3589
   36POPC   H2R 4804   1.842   6.361  10.518  0.7783 -1.1295 -1.2228
   36POPC   H2S 4805   2.004   6.336  10.606  1.9140  0.4896 -3.0461
   36POPC    C3 4806   2.025   6.825  10.751 -0.1029  0.0819  0.1060
   36POPC    HX 4807   2.121   6.781  10.783  0.7663  1.9672  0.1618
   36POPC    HY 4808   2.006   6.914  10.814  1.3055 -0.2387  0.9942
   36POPC   O31 4809   2.020   6.866  10.613  0.8770  0.2670  0.2643
   36POPC   C31 4810   2.120   6.841  10.540 -1.0283  0.6067 -0.1207
   36POPC   O32 4811   2.210   6.759  10.553  0.0466 -0.2979 -0.5850
   36POPC   C32 4812   2.105   6.929  10.421 -0.2618  0.5128 -0.2724
   36POPC   H2X 4813   2.208   6.961  10.393 -0.5339  1.7153  0.1012
   36POPC   H2Y 4814   2.047   7.018  10.454 -1.9211 -0.4570 -0.5445
   36POPC   C23 4815   2.000   6.482  10.446 -0.2734  0.0742  0.2634
   36POPC   H3R 4816   2.084   6.547  10.479 -2.2881  2.1133  1.5547
   36POPC   H3S 4817   1.924   6.549  10.399 -1.6451 -0.2563  1.9816
   36POPC   C24 4818   2.046   6.382  10.356 -0.0630  0.2469 -0.3358
   36POPC   H4R 4819   1.960   6.318  10.326  1.4374 -0.9402 -2.2109
   36POPC   H4S 4820   2.113   6.318  10.418  0.3715  0.1244 -0.9287
   36POPC   C25 4821   2.119   6.443  10.231  0.4705 -0.4336 -0.5803
   36POPC   H5R 4822   2.218   6.483  10.263 -0.4670  0.3248  1.4657
   36POPC   H5S 4823   2.054   6.525  10.194  0.7918 -0.3962 -1.0787
   36POPC   C26 4824   2.133   6.330  10.124  0.4636  0.0760 -0.4178
   36POPC   H6R 4825   2.033   6.297  10.087  0.6949  0.3271 -1.2884
   36POPC   H6S 4826   2.178   6.240  10.171 -0.6589 -2.0281 -3.2273
   36POPC   C27 4827   2.230   6.367  10.012  0.1574  0.0624 -0.7405
   36POPC   H7R 4828   2.330   6.379  10.057 -0.0176 -1.6686  0.1255
   36POPC   H7S 4829   2.204   6.463   9.962  0.2339  0.7897  0.5796
   36POPC   C28 4830   2.240   6.250   9.914  0.4429 -0.5861  0.3727
   36POPC   H8R 4831   2.150   6.238   9.849  1.2525 -0.3929 -0.8028
   36POPC   H8S 4832   2.257   6.150   9.959 -3.5838 -1.6002 -0.1454
   36POPC   C29 4833   2.354   6.295   9.822 -0.1898 -0.1376  0.1819
   36POPC   H91 4834   2.454   6.288   9.866  0.3142 -0.5352 -1.0190
   36POPC  C210 4835   2.354   6.334   9.694  0.3420  1.0924 -0.2890
   36POPC  H101 4836   2.448   6.354   9.640 -0.3167  1.9301 -1.1418
   36POPC  C211 4837   2.231   6.350   9.610 -0.2488  0.2273  0.3666
   36POPC  H11R 4838   2.232   6.459   9.594 -0.6153  0.2297  0.3539
   36POPC  H11S 4839   2.141   6.336   9.674 -0.7002  1.4326 -0.0006
   36POPC  C212 4840   2.211   6.263   9.481  0.0865 -0.0570  0.1968
   36POPC  H12R 4841   2.103   6.255   9.454  0.4284 -1.8667 -0.6495
   36POPC  H12S 4842   2.215   6.153   9.492  2.9958 -0.2266 -1.9237
   36POPC  C213 4843   2.307   6.298   9.369 -0.3780  0.2268  0.1742
   36POPC  H13R 4844   2.331   6.197   9.328 -1.2144  0.2023 -0.2666
   36POPC  H13S 4845   2.398   6.347   9.410  0.4509 -1.1607  0.0341
   36POPC  C214 4846   2.261   6.397   9.247  0.1232  0.2671  0.0739
   36POPC  H14R 4847   2.354   6.430   9.195 -0.8351  3.1638  0.0787
   36POPC  H14S 4848   2.208   6.474   9.308 -1.4584 -0.0980 -0.8218
   36POPC  C215 4849   2.169   6.330   9.139  0.2662 -0.3884 -0.2009
   36POPC  H15R 4850   2.094   6.272   9.196  0.4917 -0.6451 -0.1650
   36POPC  H15S 4851   2.225   6.256   9.078 -1.0823 -1.1247 -0.5586
   36POPC  C216 4852   2.106   6.433   9.038 -0.1086 -0.0583 -0.1678
   36POPC  H16R 4853   2.195   6.472   8.985  0.4489  2.2242  2.3384
   36POPC  H16S 4854   2.052   6.518   9.085  0.0896  1.4013 -2.5125
   36POPC  C217 4855   2.022   6.365   8.929  0.3777 -0.7228  0.3414
   36POPC  H17R 4856   1.921   6.327   8.956 -0.6705  0.4874 -1.7126
   36POPC  H17S 4857   2.085   6.288   8.880  3.7379  1.8359  0.4346
   36POPC  C218 4858   1.990   6.451   8.807 -0.5155  0.1012 -0.0818
   36POPC  H18R 4859   1.925   6.385   8.745 -1.8857  0.5088  0.8904
   36POPC  H18S 4860   2.077   6.475   8.743 -1.1918  0.0735 -1.0298
   36POPC  H18T 4861   1.930   6.542   8.829  1.6074  1.1847  1.3719
   36POPC   C33 4862   2.017   6.871  10.304  0.0723  0.8277  0.1315
   36POPC   H3X 4863   1.918   6.842  10.345  0.2024  0.7923  0.4159
   36POPC   H3Y 4864   2.065   6.783  10.256  0.5576  0.1511  1.8291
   36POPC   C34 4865   2.005   6.980  10.188 -0.5218  0.0350 -1.1614
   36POPC   H4X 4866   2.107   7.008  10.153 -0.5345  1.2537 -0.2304
   36POPC   H4Y 4867   1.958   7.077  10.211 -1.0425 -0.7878  1.3360
   36POPC   C35 4868   1.935   6.917  10.071  0.0976 -0.4536 -0.2258
   36POPC   H5X 4869   1.829   6.891  10.091  0.4062 -1.8182 -0.3122
   36POPC   H5Y 4870   1.980   6.819  10.047  0.6266 -0.9296  2.5188
   36POPC   C36 4871   1.937   6.997   9.943  0.4403 -0.1591 -0.3807
   36POPC   H6X 4872   2.039   7.030   9.913  0.6584 -2.4029 -2.2070
   36POPC   H6Y 4873   1.882   7.093   9.959  0.6052 -0.2337  0.6581
   36POPC   C37 4874   1.874   6.937   9.818  0.7362  0.6697 -0.2607
   36POPC   H7X 4875   1.776   6.888   9.835  0.5777  1.9009  2.9016
   36POPC   H7Y 4876   1.937   6.855   9.778 -0.0853 -0.4231  0.6547
   36POPC   C38 4877   1.854   7.042   9.705  0.0220  0.2506  0.3875
   36POPC   H8X 4878   1.946   7.102   9.690 -0.8812  1.5857  0.0931
   36POPC   H8Y 4879   1.778   7.118   9.736  1.3719  1.4622  0.8008
   36POPC   C39 4880   1.828   6.969   9.570 -0.0126  0.5036 -0.0219
   36POPC   H9X 4881   1.764   6.884   9.602  2.2687  0.1247  3.8636
   36POPC   H9Y 4882   1.928   6.937   9.536 -1.4707 -0.9964 -3.1529
   36POPC  C310 4883   1.761   7.063   9.468 -0.0505  0.4317  0.8280
   36POPC  H10X 4884   1.822   7.154   9.448  0.5179  0.2540  1.7366
   36POPC  H10Y 4885   1.657   7.095   9.490 -0.8474  1.6008 -4.0708
   36POPC  C311 4886   1.736   6.999   9.330  0.6826  0.5297 -0.4461
   36POPC  H11X 4887   1.674   6.911   9.358  0.1953  1.9995  3.2748
   36POPC  H11Y 4888   1.840   6.973   9.301  1.4273  2.5417  0.3757
   36POPC  C312 4889   1.657   7.081   9.220 -0.1717 -0.3494 -0.1376
   36POPC  H12X 4890   1.723   7.169   9.202  0.7942 -1.1657 -0.6121
   36POPC  H12Y 4891   1.560   7.123   9.254  0.7476  0.6647  1.2947
   36POPC  C313 4892   1.652   7.015   9.081 -0.5084 -0.1056 -0.5052
   36POPC  H13X 4893   1.603   6.916   9.093 -0.5979  0.0900  0.7502
   36POPC  H13Y 4894   1.756   7.003   9.044 -0.1770  1.7980 -0.2660
   36POPC  C314 4895   1.585   7.098   8.970  0.0408 -0.4746  1.3226
   36POPC  H14X 4896   1.476   7.094   8.990 -0.2820  1.3360  0.0610
   36POPC  H14Y 4897   1.586   7.033   8.879 -4.6916  1.3719 -0.1782
   36POPC  C315 4898   1.639   7.241   8.946  0.3306 -0.4117 -0.4878
   36POPC  H15X 4899   1.741   7.226   8.906  0.4308  0.3603 -0.5214
   36POPC  H15Y 4900   1.647   7.302   9.038 -2.5715 -0.7067  0.0084
   36POPC  C316 4901   1.550   7.322   8.851 -0.2105  0.7800  0.1087
   36POPC  H16X 4902   1.606   7.413   8.822 -1.4000  1.6436  0.4563
   36POPC  H16Y 4903   1.457   7.370   8.890 -0.1876 -1.1255  2.5783
   36POPC  H16Z 4904   1.514   7.272   8.759 -0.3379 -0.0442  0.6046
   37POPC     N 4905   0.433   1.423   6.435 -0.4720 -0.7283 -0.0037
   37POPC   C12 4906   0.448   1.340   6.563 -0.0679  0.0958  0.1065
   37POPC  H12A 4907   0.547   1.296   6.558  0.1840  0.8135 -2.2102
   37POPC  H12B 4908   0.388   1.251   6.552  0.8936 -0.3506 -1.7449
   37POPC   C13 4909   0.292   1.480   6.419 -0.2338 -0.2245  0.2536
   37POPC  H13A 4910   0.278   1.545   6.504 -0.8668 -1.1625  0.8851
   37POPC  H13B 4911   0.284   1.535   6.326  0.2067  0.2889  0.5168
   37POPC  H13C 4912   0.222   1.398   6.422 -0.8789  0.2987 -0.3214
   37POPC   C14 4913   0.537   1.527   6.435 -0.1041  0.1420  0.2295
   37POPC  H14A 4914   0.522   1.581   6.527 -2.9280 -0.8561  0.4017
   37POPC  H14B 4915   0.633   1.477   6.437 -0.3623 -0.4024 -0.6283
   37POPC  H14C 4916   0.529   1.585   6.344 -2.8433 -1.3442 -0.5294
   37POPC   C15 4917   0.462   1.339   6.316 -0.2668  0.0624  0.3753
   37POPC  H15A 4918   0.455   1.411   6.236 -1.8565 -0.9515 -0.4239
   37POPC  H15B 4919   0.385   1.266   6.294 -1.4371  1.1955  0.6066
   37POPC  H15C 4920   0.562   1.299   6.320  0.4312  1.5991 -1.1338
   37POPC   C11 4921   0.426   1.410   6.700  0.1272  0.3689 -0.4812
   37POPC  H11A 4922   0.433   1.328   6.775 -1.1692  0.3045 -0.4287
   37POPC  H11B 4923   0.323   1.449   6.710  0.5529  1.8298 -1.7490
   37POPC     P 4924   0.483   1.653   6.766 -0.3435  0.5425  0.1816
   37POPC   O13 4925   0.420   1.712   6.648 -0.4095  0.2899  0.1663
   37POPC   O14 4926   0.600   1.726   6.818 -0.1803  0.4740  0.9353
   37POPC   O12 4927   0.527   1.507   6.730 -0.1637 -0.6173 -0.8675
   37POPC   O11 4928   0.373   1.630   6.888 -0.1764  0.1211 -0.0162
   37POPC    C1 4929   0.434   1.625   7.022  0.7180 -0.4284  0.0481
   37POPC    HA 4930   0.521   1.556   7.022 -0.0664 -1.4640  2.8149
   37POPC    HB 4931   0.359   1.580   7.089 -0.9873  3.6819  1.0745
   37POPC    C2 4932   0.474   1.754   7.080  0.0602  0.3912  0.8705
   37POPC    HS 4933   0.583   1.771   7.067  0.4984 -2.3071  0.5955
   37POPC   O21 4934   0.462   1.756   7.222  0.5426  0.4757  0.8082
   37POPC   C21 4935   0.543   1.685   7.304  0.3792 -0.2091  0.1681
   37POPC   O22 4936   0.640   1.616   7.278  0.0879 -0.4195 -0.2139
   37POPC   C22 4937   0.494   1.717   7.449  0.2303 -0.5370 -0.0414
   37POPC   H2R 4938   0.480   1.617   7.496  0.7622 -0.4094  0.3918
   37POPC   H2S 4939   0.398   1.771   7.457  1.3884  1.4040  1.1269
   37POPC    C3 4940   0.390   1.873   7.032 -0.3561  0.5068 -0.3767
   37POPC    HX 4941   0.291   1.827   7.053  0.9194 -1.2343  1.9646
   37POPC    HY 4942   0.402   1.890   6.923  1.8076 -0.2841 -0.2855
   37POPC   O31 4943   0.412   1.990   7.115  0.2450 -0.4032 -0.5904
   37POPC   C31 4944   0.536   2.047   7.105  0.0478  0.5974 -0.7008
   37POPC   O32 4945   0.611   2.024   7.013 -1.0101 -0.0072  0.2520
   37POPC   C32 4946   0.550   2.166   7.202 -0.0509 -0.0562 -0.7955
   37POPC   H2X 4947   0.541   2.141   7.310  0.2068 -0.1674 -0.7976
   37POPC   H2Y 4948   0.472   2.241   7.179 -0.0370  0.7651  1.6584
   37POPC   C23 4949   0.598   1.790   7.540  1.3470  0.0177 -0.0752
   37POPC   H3R 4950   0.694   1.734   7.536  0.3030 -2.0016  2.1078
   37POPC   H3S 4951   0.552   1.779   7.640  0.8282  0.8310 -0.2166
   37POPC   C24 4952   0.606   1.941   7.505 -0.2192 -0.6894 -0.1743
   37POPC   H4R 4953   0.505   1.987   7.518 -0.6301 -1.7934  0.5854
   37POPC   H4S 4954   0.640   1.948   7.399  0.2665 -2.2320 -0.1356
   37POPC   C25 4955   0.706   2.029   7.587  0.8692  0.2229 -0.2568
   37POPC   H5R 4956   0.662   2.130   7.604 -0.3937 -0.0082 -2.0553
   37POPC   H5S 4957   0.803   2.034   7.534  2.0999 -0.2857  1.8656
   37POPC   C26 4958   0.749   1.965   7.724 -0.0595 -0.4777 -0.1361
   37POPC   H6R 4959   0.776   1.859   7.702  0.1949  0.2594 -3.8176
   37POPC   H6S 4960   0.665   1.964   7.797  1.7158  1.4530  1.9807
   37POPC   C27 4961   0.875   2.030   7.791 -0.6143  0.2020  0.7308
   37POPC   H7R 4962   0.963   1.998   7.732 -3.2679 -0.4438 -3.0784
   37POPC   H7S 4963   0.891   1.987   7.891  0.5511 -1.5196 -0.1765
   37POPC   C28 4964   0.886   2.183   7.797 -0.2102  0.3509 -0.4132
   37POPC   H8R 4965   0.786   2.216   7.834 -1.0288 -1.8410 -0.5619
   37POPC   H8S 4966   0.888   2.212   7.690  0.9268  0.4454 -0.3753
   37POPC   C29 4967   1.001   2.232   7.886 -0.9167 -0.5478  0.0447
   37POPC   H91 4968   1.100   2.185   7.875 -0.8683 -0.8206  1.5211
   37POPC  C210 4969   0.999   2.327   7.974  0.0732  0.3568 -0.2592
   37POPC  H101 4970   1.094   2.326   8.031  0.5918  3.0914 -1.0367
   37POPC  C211 4971   0.884   2.412   8.024  0.8741 -0.1681 -0.2179
   37POPC  H11R 4972   0.789   2.392   7.969  2.3807  1.3983 -3.4733
   37POPC  H11S 4973   0.912   2.519   8.016 -0.7325  0.1442 -2.2920
   37POPC  C212 4974   0.856   2.391   8.172  0.2108 -0.3549  0.2037
   37POPC  H12R 4975   0.768   2.452   8.201 -0.1217  0.6555 -2.7065
   37POPC  H12S 4976   0.947   2.407   8.234  1.7282  0.1327 -2.0577
   37POPC  C213 4977   0.820   2.243   8.195  0.3882  0.9820  0.0029
   37POPC  H13R 4978   0.884   2.174   8.135 -2.4512 -0.1760 -1.8655
   37POPC  H13S 4979   0.718   2.216   8.160  0.2590  1.1705  0.2337
   37POPC  C214 4980   0.827   2.208   8.346 -0.6146  1.1918 -0.1509
   37POPC  H14R 4981   0.932   2.224   8.379 -0.5720 -2.1143  1.4801
   37POPC  H14S 4982   0.793   2.106   8.375  0.0108  0.6049 -1.4586
   37POPC  C215 4983   0.730   2.283   8.436 -0.0184 -0.6457  0.0923
   37POPC  H15R 4984   0.695   2.220   8.521  0.4214  0.6436  1.2274
   37POPC  H15S 4985   0.643   2.317   8.376 -0.5228 -2.8824 -0.4923
   37POPC  C216 4986   0.795   2.404   8.505  0.6133  0.0138  0.1194
   37POPC  H16R 4987   0.720   2.481   8.533  1.2270  0.8708 -0.5724
   37POPC  H16S 4988   0.867   2.444   8.430  0.3937 -0.1346 -0.1715
   37POPC  C217 4989   0.862   2.369   8.636 -0.3553 -0.0059 -0.2420
   37POPC  H17R 4990   0.903   2.266   8.626 -0.6340 -0.2113  0.7064
   37POPC  H17S 4991   0.795   2.364   8.724  1.8634 -1.9819  1.3936
   37POPC  C218 4992   0.973   2.473   8.653  0.5836  0.1793 -0.1774
   37POPC  H18R 4993   1.041   2.442   8.735 -1.5451 -1.4657  1.0413
   37POPC  H18S 4994   0.933   2.575   8.670  1.0129  0.3061  0.0777
   37POPC  H18T 4995   1.038   2.474   8.563  0.8312  2.2404 -0.0023
   37POPC   C33 4996   0.689   2.239   7.186  0.3948  0.0931 -0.4089
   37POPC   H3X 4997   0.703   2.279   7.084 -1.2938  2.4075  0.2054
   37POPC   H3Y 4998   0.774   2.171   7.211 -0.9900 -1.2809  0.6352
   37POPC   C34 4999   0.702   2.370   7.280 -0.0578 -0.4955 -0.2212
   37POPC   H4X 5000   0.639   2.457   7.251  0.8634  0.1749 -0.2435
   37POPC   H4Y 5001   0.800   2.421   7.269 -0.0397 -0.3256  0.6496
   37POPC   C35 5002   0.695   2.342   7.431 -0.5799  0.1325  0.6748
   37POPC   H5X 5003   0.763   2.264   7.471  0.2767  1.3454  1.5986
   37POPC   H5Y 5004   0.592   2.308   7.457 -1.1123 -0.3865 -1.8845
   37POPC   C36 5005   0.711   2.480   7.496 -0.2915  0.2366 -0.2895
   37POPC   H6X 5006   0.641   2.546   7.440  1.0748  2.7790  0.8663
   37POPC   H6Y 5007   0.817   2.504   7.475  0.1819 -0.0936  1.6156
   37POPC   C37 5008   0.689   2.488   7.649 -0.0018 -0.3406  0.1854
   37POPC   H7X 5009   0.725   2.588   7.681 -2.6594  1.3093 -1.8230
   37POPC   H7Y 5010   0.745   2.408   7.702  1.3507  1.7379  1.9876
   37POPC   C38 5011   0.543   2.472   7.696 -0.1789  0.5586  0.9451
   37POPC   H8X 5012   0.501   2.382   7.646  1.2228  1.3653 -1.7370
   37POPC   H8Y 5013   0.486   2.561   7.661 -2.8471 -0.8650  1.5251
   37POPC   C39 5014   0.525   2.461   7.845  0.1185 -0.0996 -0.6948
   37POPC   H9X 5015   0.566   2.549   7.898  1.1092 -1.2825  0.5534
   37POPC   H9Y 5016   0.571   2.378   7.904 -1.5869 -0.5236  0.0615
   37POPC  C310 5017   0.372   2.445   7.892  0.0172 -0.2191  0.4404
   37POPC  H10X 5018   0.325   2.363   7.834 -0.1095 -0.1219  0.4039
   37POPC  H10Y 5019   0.315   2.539   7.873 -2.1584 -0.8858  3.2999
   37POPC  C311 5020   0.365   2.405   8.043 -0.2316 -0.1900 -0.1338
   37POPC  H11X 5021   0.264   2.443   8.072 -0.1129 -1.1338  1.6012
   37POPC  H11Y 5022   0.431   2.474   8.101  0.4152 -2.1055  1.4621
   37POPC  C312 5023   0.399   2.262   8.081  0.4925 -0.3172 -0.6420
   37POPC  H12X 5024   0.506   2.240   8.066  0.2532 -2.3389  0.4486
   37POPC  H12Y 5025   0.335   2.187   8.028 -0.1936 -0.0347 -0.2263
   37POPC  C313 5026   0.356   2.241   8.229 -0.3932 -0.4656 -0.3016
   37POPC  H13X 5027   0.335   2.340   8.275  0.8836 -0.3636  0.0761
   37POPC  H13Y 5028   0.442   2.208   8.290  0.3121  0.4365 -0.8036
   37POPC  C314 5029   0.240   2.148   8.239 -0.2924 -0.6053  0.3065
   37POPC  H14X 5030   0.263   2.060   8.175 -0.0681 -1.4636  1.5464
   37POPC  H14Y 5031   0.150   2.202   8.201 -0.2252 -1.2172 -0.7483
   37POPC  C315 5032   0.237   2.091   8.375  0.8776 -0.0496  0.4444
   37POPC  H15X 5033   0.204   2.166   8.451  0.5286  1.5555 -1.2580
   37POPC  H15Y 5034   0.332   2.050   8.414  1.5646  1.4901  0.4182
   37POPC  C316 5035   0.131   1.977   8.376  0.4672  0.9355  0.0021
   37POPC  H16X 5036   0.029   2.019   8.370 -1.3906 -2.9240  2.2675
   37POPC  H16Y 5037   0.114   1.920   8.470 -4.2867  1.2894 -0.5473
   37POPC  H16Z 5038   0.150   1.913   8.287  3.1901 -0.1945  1.3337
   38POPC     N 5039   1.399   5.536   6.536 -0.1148  0.0581 -0.1925
   38POPC   C12 5040   1.419   5.488   6.390 -0.4365  0.1125  0.0725
   38POPC  H12A 5041   1.491   5.545   6.333 -2.0425 -1.0727 -3.2638
   38POPC  H12B 5042   1.324   5.492   6.340 -0.0441 -0.5995 -0.7308
   38POPC   C13 5043   1.282   5.466   6.590 -0.1717 -0.1482 -0.6566
   38POPC  H13A 5044   1.280   5.358   6.593  1.7914 -0.1573  2.6293
   38POPC  H13B 5045   1.260   5.493   6.692 -1.8758 -2.6943 -0.3109
   38POPC  H13C 5046   1.196   5.501   6.535 -1.1531 -0.5480  0.5909
   38POPC   C14 5047   1.526   5.526   6.611 -0.5782  0.0517 -0.0419
   38POPC  H14A 5048   1.502   5.525   6.717 -1.3350  1.1908 -0.1951
   38POPC  H14B 5049   1.570   5.432   6.582 -1.0642 -0.2585  0.2155
   38POPC  H14C 5050   1.595   5.609   6.598 -0.9605  0.1881 -1.2072
   38POPC   C15 5051   1.373   5.684   6.533 -0.2189  0.1133 -0.0300
   38POPC  H15A 5052   1.323   5.723   6.621 -1.8070  0.1948 -0.9442
   38POPC  H15B 5053   1.305   5.692   6.450 -0.7503 -2.2983  0.1462
   38POPC  H15C 5054   1.458   5.746   6.509 -0.1526 -0.0222 -0.1472
   38POPC   C11 5055   1.472   5.344   6.364 -0.0817  0.2086  0.0108
   38POPC  H11A 5056   1.473   5.323   6.255  0.4376 -1.1900  0.2873
   38POPC  H11B 5057   1.403   5.273   6.414  0.7304  0.1461  1.0495
   38POPC     P 5058   1.740   5.361   6.350  0.1637 -0.1861  0.4876
   38POPC   O13 5059   1.826   5.421   6.455  0.5928  0.2248 -0.0372
   38POPC   O14 5060   1.712   5.443   6.225 -0.1919 -0.3324 -0.0491
   38POPC   O12 5061   1.600   5.325   6.419 -0.1871 -0.3882  0.3927
   38POPC   O11 5062   1.816   5.227   6.313 -0.0820  0.2724  0.0862
   38POPC    C1 5063   1.745   5.102   6.340  0.2712  0.7989 -0.1572
   38POPC    HA 5064   1.769   5.027   6.262  0.7543 -1.0672  1.7350
   38POPC    HB 5065   1.635   5.108   6.328  0.3211  2.5576  0.2591
   38POPC    C2 5066   1.790   5.040   6.470  0.2905 -0.6724  0.3308
   38POPC    HS 5067   1.770   4.931   6.467 -3.5689 -0.1126  2.5209
   38POPC   O21 5068   1.717   5.098   6.581  0.6553  0.0062  0.6565
   38POPC   C21 5069   1.586   5.082   6.592  0.0027 -0.4136  0.0627
   38POPC   O22 5070   1.518   5.005   6.526 -0.1068  0.6968  0.7210
   38POPC   C22 5071   1.544   5.177   6.704  0.0114 -0.0182  0.1164
   38POPC   H2R 5072   1.445   5.224   6.684  0.3911  0.8644  0.2891
   38POPC   H2S 5073   1.614   5.263   6.702  1.4424 -1.0838  2.1683
   38POPC    C3 5074   1.945   5.059   6.505  0.8933  0.7065 -0.2668
   38POPC    HX 5075   1.956   5.169   6.504  1.2233  0.6762 -0.1188
   38POPC    HY 5076   2.004   5.018   6.420 -2.1403 -0.4946 -1.8716
   38POPC   O31 5077   1.983   4.994   6.628 -0.3065  0.2932 -0.2724
   38POPC   C31 5078   2.021   5.078   6.726 -0.6009  0.0668  0.3112
   38POPC   O32 5079   2.031   5.200   6.719  0.4804  0.0956 -0.4380
   38POPC   C32 5080   2.077   5.003   6.843 -0.0412  0.4867 -0.7554
   38POPC   H2X 5081   2.137   4.917   6.806 -1.2418 -0.6172 -0.1624
   38POPC   H2Y 5082   1.999   4.947   6.897 -0.3226  1.0721 -0.5483
   38POPC   C23 5083   1.544   5.111   6.834  0.6761 -0.5053 -0.4067
   38POPC   H3R 5084   1.504   5.008   6.837  0.8285 -0.5565 -0.1595
   38POPC   H3S 5085   1.477   5.174   6.897 -0.1328 -1.7494 -0.0034
   38POPC   C24 5086   1.684   5.104   6.893 -0.1627 -0.1922 -0.3610
   38POPC   H4R 5087   1.735   5.189   6.843  1.4275 -2.3237 -2.4701
   38POPC   H4S 5088   1.726   5.009   6.853  0.4893  0.0749 -0.3178
   38POPC   C25 5089   1.684   5.114   7.048  0.6793  0.6135  0.0323
   38POPC   H5R 5090   1.628   5.198   7.094 -2.1434 -0.7498 -0.7910
   38POPC   H5S 5091   1.788   5.113   7.088 -0.2613  0.0326  2.5186
   38POPC   C26 5092   1.611   4.995   7.117 -0.6879  0.3042  0.7923
   38POPC   H6R 5093   1.666   4.899   7.116  1.2452  1.3777  1.9499
   38POPC   H6S 5094   1.511   4.981   7.071 -0.5333 -0.9393  0.8394
   38POPC   C27 5095   1.591   5.039   7.262 -0.0155 -0.0426  0.7032
   38POPC   H7R 5096   1.513   5.118   7.266 -1.1007 -1.0474 -0.3234
   38POPC   H7S 5097   1.688   5.078   7.301  0.1736  0.9264 -0.6978
   38POPC   C28 5098   1.540   4.918   7.348 -0.1020 -0.4906 -0.6844
   38POPC   H8R 5099   1.624   4.844   7.354 -0.6059 -1.1023 -1.0641
   38POPC   H8S 5100   1.451   4.881   7.293  0.2551 -1.0601 -0.8855
   38POPC   C29 5101   1.520   4.970   7.492  0.7167 -0.1918  0.6864
   38POPC   H91 5102   1.416   4.997   7.513  0.7771  0.7844 -0.2344
   38POPC  C210 5103   1.604   4.980   7.598  0.0636  0.7997 -0.0535
   38POPC  H101 5104   1.564   5.030   7.688 -1.8729 -0.8736  0.0390
   38POPC  C211 5105   1.745   4.927   7.607  0.6397 -0.4409 -0.1592
   38POPC  H11R 5106   1.817   4.974   7.536 -0.6127 -0.0773 -1.2013
   38POPC  H11S 5107   1.748   4.819   7.583 -2.5753 -0.2331 -1.7788
   38POPC  C212 5108   1.802   4.940   7.746 -0.6758 -0.8082 -0.7241
   38POPC  H12R 5109   1.789   5.044   7.781  3.4584  0.5055 -2.7255
   38POPC  H12S 5110   1.910   4.912   7.747 -0.6798 -0.8229 -0.6574
   38POPC  C213 5111   1.738   4.861   7.863  0.6174 -0.0868  0.3513
   38POPC  H13R 5112   1.715   4.758   7.828 -2.2591  0.6081  0.0364
   38POPC  H13S 5113   1.641   4.914   7.880  1.0315  0.8170 -0.0675
   38POPC  C214 5114   1.827   4.865   7.989  0.1161  0.0562 -0.1998
   38POPC  H14R 5115   1.867   4.967   8.005  0.7066 -0.3180  0.7334
   38POPC  H14S 5116   1.921   4.808   7.975 -0.3321 -0.1151 -2.9161
   38POPC  C215 5117   1.743   4.812   8.109  0.0746  0.4004  0.9863
   38POPC  H15R 5118   1.689   4.724   8.068  2.5561 -2.4042  3.4693
   38POPC  H15S 5119   1.676   4.890   8.149 -0.9204 -1.3260  2.7434
   38POPC  C216 5120   1.834   4.777   8.223  0.4391 -0.9724 -0.2137
   38POPC  H16R 5121   1.892   4.867   8.252 -0.8104  0.0429 -0.8776
   38POPC  H16S 5122   1.912   4.702   8.196  1.0058  0.1776 -1.8989
   38POPC  C217 5123   1.773   4.732   8.361  0.0793 -0.0664 -0.7060
   38POPC  H17R 5124   1.704   4.648   8.338  1.2257 -0.5482 -2.4609
   38POPC  H17S 5125   1.703   4.810   8.400  1.6831 -0.5494  3.4733
   38POPC  C218 5126   1.884   4.696   8.456  0.2661  0.2688  0.1525
   38POPC  H18R 5127   1.848   4.713   8.560  0.7226  1.6131  0.1001
   38POPC  H18S 5128   1.971   4.760   8.434 -1.1505  1.9723 -0.5637
   38POPC  H18T 5129   1.919   4.592   8.440  0.0891  0.3148 -0.5407
   38POPC   C33 5130   2.146   5.102   6.941  0.1322 -0.3514  0.4246
   38POPC   H3X 5131   2.073   5.174   6.984 -0.3603  1.3613 -3.1151
   38POPC   H3Y 5132   2.208   5.165   6.874 -0.3324 -1.3750 -0.9795
   38POPC   C34 5133   2.248   5.045   7.044 -0.0864  0.2361  0.8147
   38POPC   H4X 5134   2.311   4.972   6.988  1.4021  0.5378  2.0665
   38POPC   H4Y 5135   2.177   4.989   7.108 -1.8464  0.7979 -0.5959
   38POPC   C35 5136   2.338   5.151   7.112 -0.1310 -0.0786 -0.4502
   38POPC   H5X 5137   2.270   5.205   7.182 -0.5986  0.2452 -1.1491
   38POPC   H5Y 5138   2.381   5.223   7.039 -0.2154  0.5680  0.1292
   38POPC   C36 5139   2.457   5.088   7.191 -0.3823  0.4659 -0.0742
   38POPC   H6X 5140   2.527   5.046   7.116 -0.6973  3.1995 -1.9485
   38POPC   H6Y 5141   2.416   5.018   7.267 -1.4166  0.8060 -0.3138
   38POPC   C37 5142   2.543   5.202   7.255 -0.4719 -0.3687 -0.0468
   38POPC   H7X 5143   2.559   5.279   7.176 -1.9718  2.0491  1.9290
   38POPC   H7Y 5144   2.645   5.170   7.282  0.0171 -0.8321 -2.3286
   38POPC   C38 5145   2.472   5.267   7.380 -0.3631 -0.0236 -0.0638
   38POPC   H8X 5146   2.367   5.284   7.346 -0.6198 -1.4468  0.0046
   38POPC   H8Y 5147   2.509   5.372   7.391 -1.3718  0.1819  1.4418
   38POPC   C39 5148   2.478   5.192   7.511 -0.5722  0.7942 -0.6694
   38POPC   H9X 5149   2.565   5.123   7.504  0.4479  1.8700  1.0727
   38POPC   H9Y 5150   2.397   5.116   7.519  1.0595 -1.1817 -2.1993
   38POPC  C310 5151   2.489   5.283   7.636  0.0043 -0.0461 -0.5132
   38POPC  H10X 5152   2.393   5.338   7.646  0.3135  0.1960  1.2892
   38POPC  H10Y 5153   2.568   5.361   7.632 -2.3810  2.5813  1.4109
   38POPC  C311 5154   2.509   5.218   7.774 -0.6124 -0.0716 -0.3694
   38POPC  H11X 5155   2.431   5.140   7.795 -0.3704  0.3663  2.3675
   38POPC  H11Y 5156   2.484   5.283   7.861 -2.8778 -0.6722 -0.5249
   38POPC  C312 5157   2.644   5.141   7.799 -0.6894  0.4105 -0.1797
   38POPC  H12X 5158   2.729   5.211   7.790  0.9484 -1.1089  2.8382
   38POPC  H12Y 5159   2.647   5.060   7.723  0.6949 -0.6302  0.9647
   38POPC  C313 5160   2.654   5.088   7.944  0.0768 -0.4979  0.5417
   38POPC  H13X 5161   2.573   5.013   7.955  0.6852 -1.3247 -0.5260
   38POPC  H13Y 5162   2.641   5.164   8.024 -0.3664  2.6677 -2.3864
   38POPC  C314 5163   2.785   5.009   7.962  0.1995  0.5541 -0.0655
   38POPC  H14X 5164   2.875   5.074   7.960  0.8092 -0.3320 -2.4709
   38POPC  H14Y 5165   2.820   4.943   7.879  0.7447  0.9067 -0.1189
   38POPC  C315 5166   2.795   4.929   8.101  0.3255 -0.1648  0.0855
   38POPC  H15X 5167   2.752   4.990   8.184 -2.3677 -0.5356 -0.9646
   38POPC  H15Y 5168   2.898   4.894   8.120  0.5133 -0.0489 -0.7135
   38POPC  C316 5169   2.712   4.804   8.087  1.1775  0.0216 -0.4196
   38POPC  H16X 5170   2.602   4.819   8.078  1.1089  1.2408  1.9599
   38POPC  H16Y 5171   2.726   4.754   8.186 -1.2029  0.3654  0.1328
   38POPC  H16Z 5172   2.749   4.748   7.999 -1.5071  1.3207 -2.4495
   39POPC     N 5173   6.295   2.532   6.273 -0.2143  0.4963  0.0065
   39POPC   C12 5174   6.203   2.413   6.248 -0.1408 -0.1691  0.4739
   39POPC  H12A 5175   6.107   2.413   6.297 -1.2304  0.2545 -1.5836
   39POPC  H12B 5176   6.242   2.319   6.286  1.4314  1.0291  1.8901
   39POPC   C13 5177   6.233   2.661   6.235 -0.2186  0.1786 -0.4445
   39POPC  H13A 5178   6.202   2.640   6.133  0.2771 -0.4338 -0.4757
   39POPC  H13B 5179   6.144   2.700   6.282 -0.7676  1.4244 -2.4731
   39POPC  H13C 5180   6.305   2.741   6.240 -0.1731  0.0955  0.1988
   39POPC   C14 5181   6.325   2.543   6.421  0.1899  0.2626  0.7034
   39POPC  H14A 5182   6.389   2.462   6.454 -0.6917 -0.4505  0.6894
   39POPC  H14B 5183   6.377   2.634   6.449  0.9793  0.8007 -2.3865
   39POPC  H14C 5184   6.233   2.548   6.476 -1.2122  3.1260 -1.7648
   39POPC   C15 5185   6.426   2.502   6.194 -0.0661 -0.0389 -0.1495
   39POPC  H15A 5186   6.412   2.489   6.088  0.3515  0.4318 -0.2678
   39POPC  H15B 5187   6.476   2.414   6.233 -1.1430  0.1069  1.6316
   39POPC  H15C 5188   6.495   2.586   6.202 -0.4912  0.1856  1.3668
   39POPC   C11 5189   6.159   2.389   6.098 -0.2714  0.4496 -0.0493
   39POPC  H11A 5190   6.082   2.310   6.093 -0.1506  0.2835  0.6201
   39POPC  H11B 5191   6.243   2.337   6.048 -0.3312 -0.8021  1.1204
   39POPC     P 5192   5.963   2.538   6.018 -0.2177 -0.0344 -0.3060
   39POPC   O13 5193   5.881   2.453   5.926 -0.5353 -0.1374 -0.7110
   39POPC   O14 5194   5.950   2.686   6.007  0.1972 -0.5969  0.1468
   39POPC   O12 5195   6.121   2.502   6.022 -0.2473  0.1292 -0.4177
   39POPC   O11 5196   5.921   2.505   6.167 -0.5003  0.5556 -0.1179
   39POPC    C1 5197   5.779   2.503   6.201  0.5754 -0.9147 -0.5777
   39POPC    HA 5198   5.731   2.409   6.166 -2.3796  0.5928 -0.7207
   39POPC    HB 5199   5.718   2.585   6.159  1.4180 -0.9170 -1.8386
   39POPC    C2 5200   5.767   2.488   6.357 -0.3034 -0.3705  0.3134
   39POPC    HS 5201   5.815   2.390   6.380 -1.5351 -1.0129  0.1884
   39POPC   O21 5202   5.627   2.490   6.393 -0.5056 -0.4789  0.0132
   39POPC   C21 5203   5.597   2.425   6.506 -0.3640 -0.2621  0.8320
   39POPC   O22 5204   5.675   2.349   6.566 -0.9243  1.1138  0.1072
   39POPC   C22 5205   5.448   2.452   6.548  0.0915 -0.1153  0.2713
   39POPC   H2R 5206   5.378   2.398   6.481  0.8829  3.2460 -3.4814
   39POPC   H2S 5207   5.431   2.561   6.531 -3.7155 -0.5912  0.6450
   39POPC    C3 5208   5.852   2.598   6.436 -0.4385 -0.1622  0.1647
   39POPC    HX 5209   5.804   2.695   6.414  0.2361  0.0920 -0.1760
   39POPC    HY 5210   5.955   2.602   6.395  0.7054 -0.6240  2.8506
   39POPC   O31 5211   5.856   2.577   6.576  0.0444 -0.2390  0.3390
   39POPC   C31 5212   5.943   2.487   6.612 -0.3209 -0.7818  0.1293
   39POPC   O32 5213   6.012   2.416   6.539 -0.4791 -0.0610  0.3717
   39POPC   C32 5214   5.950   2.489   6.771 -0.3379  0.6880  0.1172
   39POPC   H2X 5215   6.049   2.531   6.799  0.0138 -0.6448  0.9275
   39POPC   H2Y 5216   5.875   2.565   6.804 -1.6676 -1.6191  2.6746
   39POPC   C23 5217   5.419   2.413   6.701 -0.2479  0.2683 -0.2032
   39POPC   H3R 5218   5.420   2.302   6.695  1.5693  0.2328  0.6207
   39POPC   H3S 5219   5.322   2.460   6.729  0.3503  2.7827 -2.1642
   39POPC   C24 5220   5.527   2.459   6.807  0.1865  0.0413  1.0371
   39POPC   H4R 5221   5.614   2.511   6.761  0.0546  0.6946  1.5206
   39POPC   H4S 5222   5.564   2.367   6.857 -0.9125 -0.5634  0.7430
   39POPC   C25 5223   5.475   2.546   6.918 -0.4498  0.7109  0.8750
   39POPC   H5R 5224   5.446   2.647   6.883 -0.8904  0.1087 -0.5015
   39POPC   H5S 5225   5.560   2.569   6.987 -0.4472  0.8748  0.8154
   39POPC   C26 5226   5.365   2.484   7.007 -0.2090  0.1032  0.1494
   39POPC   H6R 5227   5.390   2.378   7.027 -2.0859 -0.4140 -0.1222
   39POPC   H6S 5228   5.264   2.492   6.963  0.4545  0.7316 -1.2770
   39POPC   C27 5229   5.367   2.559   7.139 -0.0397  0.0556  0.4710
   39POPC   H7R 5230   5.333   2.662   7.115  3.7354  1.8307  2.4064
   39POPC   H7S 5231   5.473   2.563   7.169 -0.0391  1.5004  0.2683
   39POPC   C28 5232   5.271   2.495   7.247 -0.2999  0.8959  0.0086
   39POPC   H8R 5233   5.320   2.402   7.282 -1.7029 -0.4277 -1.4795
   39POPC   H8S 5234   5.174   2.479   7.195 -0.3049 -0.9217  0.5420
   39POPC   C29 5235   5.254   2.584   7.367  0.1985 -0.2212  0.0464
   39POPC   H91 5236   5.239   2.691   7.347  1.8877  0.1249  0.5092
   39POPC  C210 5237   5.268   2.546   7.497 -0.5383 -0.1651  0.3907
   39POPC  H101 5238   5.258   2.620   7.578 -0.0072 -1.8768  2.0463
   39POPC  C211 5239   5.291   2.405   7.551  0.0051 -0.1674  0.2065
   39POPC  H11R 5240   5.401   2.408   7.567 -0.0730 -0.6488  0.8380
   39POPC  H11S 5241   5.279   2.325   7.474 -0.3059 -0.4790  0.5769
   39POPC  C212 5242   5.218   2.361   7.677 -0.2060  0.9644 -0.4178
   39POPC  H12R 5243   5.261   2.264   7.711 -2.1585 -0.5284 -2.0906
   39POPC  H12S 5244   5.111   2.337   7.658 -0.3788 -0.5348  2.2143
   39POPC  C213 5245   5.226   2.459   7.795  0.1385 -0.0224  0.0478
   39POPC  H13R 5246   5.161   2.547   7.782 -2.3399 -1.7578  0.4590
   39POPC  H13S 5247   5.332   2.485   7.816  0.6623 -2.1053  0.1319
   39POPC  C214 5248   5.178   2.391   7.916 -0.0266 -0.4020 -0.1795
   39POPC  H14R 5249   5.226   2.444   8.001  1.2649  0.0704 -1.1870
   39POPC  H14S 5250   5.213   2.286   7.924 -1.4997 -1.1302 -2.7697
   39POPC  C215 5251   5.029   2.382   7.929 -0.2305  0.0413 -0.2341
   39POPC  H15R 5252   4.997   2.328   7.837 -1.2162  1.0532 -0.4916
   39POPC  H15S 5253   4.979   2.481   7.922  0.0106  0.0106 -2.9005
   39POPC  C216 5254   4.981   2.296   8.046 -0.0640  0.5462 -0.2531
   39POPC  H16R 5255   5.048   2.208   8.045 -0.1825  0.4582 -0.2841
   39POPC  H16S 5256   4.880   2.252   8.041  0.1899 -0.2030  1.0416
   39POPC  C217 5257   4.997   2.353   8.188 -0.2619 -0.6468  0.2597
   39POPC  H17R 5258   5.099   2.389   8.210 -0.5976 -0.0839  0.9385
   39POPC  H17S 5259   4.969   2.282   8.269 -0.8176  1.4490  1.9635
   39POPC  C218 5260   4.912   2.483   8.197 -0.3406 -0.0423 -0.5588
   39POPC  H18R 5261   4.807   2.449   8.209 -0.1547 -0.6152 -0.5490
   39POPC  H18S 5262   4.906   2.542   8.103  0.9635  0.6539 -0.2250
   39POPC  H18T 5263   4.949   2.542   8.284  0.7490 -0.4637 -0.7326
   39POPC   C33 5264   5.950   2.347   6.821  0.6256 -0.0822  0.0499
   39POPC   H3X 5265   6.037   2.289   6.784  0.6999 -0.9914  1.6171
   39POPC   H3Y 5266   5.860   2.295   6.781  0.4953  0.4275 -0.3271
   39POPC   C34 5267   5.953   2.341   6.976  0.9661 -0.4991 -0.3413
   39POPC   H4X 5268   6.030   2.401   7.030 -0.5368 -1.0651  2.5298
   39POPC   H4Y 5269   5.979   2.236   7.003 -0.4713 -0.2862  1.9872
   39POPC   C35 5270   5.812   2.381   7.033 -0.8163 -0.3155 -0.2755
   39POPC   H5X 5271   5.738   2.308   6.993 -0.9308 -0.0073 -0.6238
   39POPC   H5Y 5272   5.790   2.483   6.996  0.3717 -0.5449 -1.6148
   39POPC   C36 5273   5.814   2.370   7.190  0.0455  0.4611  0.1168
   39POPC   H6X 5274   5.881   2.449   7.229  1.7139 -0.0850 -1.5578
   39POPC   H6Y 5275   5.841   2.264   7.211  1.8073  1.2263  1.7984
   39POPC   C37 5276   5.682   2.395   7.257  0.5775  0.5808  0.6779
   39POPC   H7X 5277   5.607   2.319   7.228  0.0109  1.3821 -0.0121
   39POPC   H7Y 5278   5.663   2.502   7.232 -1.1269  0.2963  0.7548
   39POPC   C38 5279   5.701   2.400   7.409 -0.5749 -0.4882 -0.0427
   39POPC   H8X 5280   5.625   2.476   7.439  0.0201  1.1224 -2.4066
   39POPC   H8Y 5281   5.804   2.439   7.424 -1.7555  2.5658  0.6126
   39POPC   C39 5282   5.689   2.271   7.488 -0.4651  0.3635 -0.2207
   39POPC   H9X 5283   5.763   2.199   7.446 -0.6900 -1.1930  1.9403
   39POPC   H9Y 5284   5.590   2.223   7.483 -0.1205 -0.3886  0.0421
   39POPC  C310 5285   5.718   2.281   7.644  0.1945  0.0586 -0.2342
   39POPC  H10X 5286   5.804   2.351   7.651  1.0032 -0.9097 -0.3267
   39POPC  H10Y 5287   5.731   2.180   7.687 -1.5691 -0.6710 -1.3694
   39POPC  C311 5288   5.612   2.362   7.728 -0.4828  0.2359  0.4143
   39POPC  H11X 5289   5.515   2.308   7.719 -0.0888 -0.5804  1.0538
   39POPC  H11Y 5290   5.601   2.459   7.675  0.3476  0.5544  0.8207
   39POPC  C312 5291   5.643   2.385   7.882 -0.4764  0.1924 -0.1666
   39POPC  H12X 5292   5.569   2.454   7.929 -0.4169  0.9061 -1.1026
   39POPC  H12Y 5293   5.744   2.431   7.889  0.3075 -1.1347 -2.4258
   39POPC  C313 5294   5.663   2.259   7.959  0.3154  0.3524  1.0237
   39POPC  H13X 5295   5.722   2.278   8.051 -0.5282  4.1924  0.8640
   39POPC  H13Y 5296   5.733   2.187   7.911 -0.9807  1.0661 -2.0930
   39POPC  C314 5297   5.547   2.166   7.987  0.4000  0.3870 -0.1044
   39POPC  H14X 5298   5.579   2.061   8.007 -2.9297 -0.9120 -1.1270
   39POPC  H14Y 5299   5.486   2.160   7.894 -1.0249  0.1309  0.8279
   39POPC  C315 5300   5.460   2.223   8.095 -0.0678  0.7083 -0.5036
   39POPC  H15X 5301   5.419   2.322   8.067  0.4274  0.6222 -1.5539
   39POPC  H15Y 5302   5.522   2.251   8.183 -1.3100  0.4825  0.4580
   39POPC  C316 5303   5.351   2.126   8.143 -0.2436 -0.6421  0.0060
   39POPC  H16X 5304   5.284   2.092   8.061 -1.8709  0.2198  0.9430
   39POPC  H16Y 5305   5.302   2.189   8.220 -0.5605 -1.6715  0.6609
   39POPC  H16Z 5306   5.393   2.043   8.203  1.1236  0.6836  0.9167
   40POPC     N 5307   4.660   6.701   6.155  0.1593  0.0649 -0.0140
   40POPC   C12 5308   4.709   6.836   6.177 -0.2562  0.1795 -0.1947
   40POPC  H12A 5309   4.661   6.872   6.267  0.8357  2.3157 -0.4287
   40POPC  H12B 5310   4.675   6.895   6.094 -0.1225 -0.2219 -0.5352
   40POPC   C13 5311   4.690   6.617   6.272 -0.1230  0.9238 -0.6734
   40POPC  H13A 5312   4.630   6.528   6.270  0.8778  0.2515 -1.4678
   40POPC  H13B 5313   4.794   6.590   6.283 -0.7213 -0.8796  0.7915
   40POPC  H13C 5314   4.674   6.669   6.365  0.6698  0.8044 -0.4609
   40POPC   C14 5315   4.517   6.700   6.130  0.4811  0.9227 -0.0340
   40POPC  H14A 5316   4.499   6.736   6.030 -0.8729  1.2314  0.3094
   40POPC  H14B 5317   4.479   6.599   6.137  3.0198 -0.0716 -0.0099
   40POPC  H14C 5318   4.463   6.762   6.201 -0.1023 -0.9402  1.1884
   40POPC   C15 5319   4.727   6.637   6.034 -0.1450  0.1985 -0.3402
   40POPC  H15A 5320   4.681   6.543   6.005 -1.0228  0.7382 -0.7360
   40POPC  H15B 5321   4.831   6.620   6.055 -0.3333  2.2070  2.5629
   40POPC  H15C 5322   4.717   6.707   5.952  0.4980  1.5150  0.6842
   40POPC   C11 5323   4.863   6.858   6.209 -0.7168 -0.3730 -0.1984
   40POPC  H11A 5324   4.880   6.967   6.197 -0.9832  0.0157  2.7567
   40POPC  H11B 5325   4.920   6.809   6.126  1.0710  0.8965  0.2317
   40POPC     P 5326   4.857   6.856   6.474 -0.1506  0.4404 -0.1148
   40POPC   O13 5327   4.735   6.772   6.511  0.0339 -0.2223  0.0518
   40POPC   O14 5328   4.855   7.002   6.474 -0.6620 -0.0016  0.0481
   40POPC   O12 5329   4.916   6.812   6.335 -0.1560 -0.5245  0.1060
   40POPC   O11 5330   4.980   6.805   6.569  0.0865 -0.4314 -0.1104
   40POPC    C1 5331   5.024   6.668   6.559  0.5317  0.8246 -0.6115
   40POPC    HA 5332   5.124   6.668   6.512  0.3876  0.4013 -0.9149
   40POPC    HB 5333   4.952   6.608   6.499  0.4291 -1.7956  1.9820
   40POPC    C2 5334   5.027   6.592   6.687  0.0497  0.1174 -0.0204
   40POPC    HS 5335   5.049   6.483   6.677 -0.4264 -0.0613  0.9094
   40POPC   O21 5336   4.902   6.614   6.761 -0.0603  0.1203  0.3108
   40POPC   C21 5337   4.803   6.527   6.734  0.5696  0.6175  0.0369
   40POPC   O22 5338   4.820   6.426   6.666  0.1931 -0.3538 -1.0919
   40POPC   C22 5339   4.691   6.555   6.829 -0.2352 -0.3913  0.1056
   40POPC   H2R 5340   4.607   6.489   6.799 -0.9963  0.8315 -0.4823
   40POPC   H2S 5341   4.669   6.662   6.807  0.4469 -0.6243 -1.8272
   40POPC    C3 5342   5.144   6.651   6.773  0.1262 -0.0013  0.5305
   40POPC    HX 5343   5.149   6.760   6.753  0.9348 -0.1901 -0.3345
   40POPC    HY 5344   5.244   6.613   6.741  1.5873  3.3142  0.9470
   40POPC   O31 5345   5.124   6.618   6.909 -0.0912 -0.5532  0.2464
   40POPC   C31 5346   5.146   6.716   6.992 -0.2406 -0.4940 -0.1549
   40POPC   O32 5347   5.183   6.832   6.961 -0.5687  0.3310  0.1336
   40POPC   C32 5348   5.133   6.664   7.134  1.2091  0.7687  0.1582
   40POPC   H2X 5349   5.194   6.571   7.133 -1.1289 -0.8166 -1.9633
   40POPC   H2Y 5350   5.026   6.640   7.151  0.4143  2.6418 -1.8813
   40POPC   C23 5351   4.730   6.534   6.980  0.5667  0.5948  0.4242
   40POPC   H3R 5352   4.806   6.610   7.006  1.5278 -0.3478  0.3687
   40POPC   H3S 5353   4.766   6.430   6.996  0.7102 -0.0706 -3.8051
   40POPC   C24 5354   4.607   6.550   7.067 -0.5402  0.2149 -1.0492
   40POPC   H4R 5355   4.547   6.460   7.040 -0.9917  0.7113 -1.7552
   40POPC   H4S 5356   4.544   6.635   7.032 -1.3370 -0.3696 -1.0592
   40POPC   C25 5357   4.637   6.562   7.223  0.0898  0.2886  0.5644
   40POPC   H5R 5358   4.713   6.638   7.249 -0.0845  0.8492 -0.5404
   40POPC   H5S 5359   4.668   6.463   7.262  1.2317 -0.4191 -2.0114
   40POPC   C26 5360   4.510   6.611   7.302  0.4991  0.3003 -0.0572
   40POPC   H6R 5361   4.427   6.565   7.244  0.1393  0.8992 -0.0194
   40POPC   H6S 5362   4.498   6.721   7.292 -0.9828  0.0660 -1.0013
   40POPC   C27 5363   4.502   6.548   7.442 -0.0760  0.4071 -0.0134
   40POPC   H7R 5364   4.582   6.590   7.506  1.1345 -1.2775 -0.3613
   40POPC   H7S 5365   4.520   6.438   7.435  2.4604  0.8038  0.0032
   40POPC   C28 5366   4.369   6.567   7.523  0.0941 -0.2228 -0.8443
   40POPC   H8R 5367   4.374   6.502   7.612 -0.4979  0.0617 -0.6019
   40POPC   H8S 5368   4.278   6.522   7.478 -0.5284 -0.7020  0.8483
   40POPC   C29 5369   4.328   6.702   7.569  0.2130 -0.6788 -0.5185
   40POPC   H91 5370   4.271   6.759   7.493  0.0260 -0.8745 -0.5256
   40POPC  C210 5371   4.332   6.759   7.693 -0.8102  0.9866 -0.2297
   40POPC  H101 5372   4.294   6.862   7.702 -0.5776  0.9592  1.1578
   40POPC  C211 5373   4.383   6.682   7.813  0.0904  0.6066  0.0583
   40POPC  H11R 5374   4.450   6.750   7.870  0.7741  0.5536 -0.6717
   40POPC  H11S 5375   4.437   6.587   7.796  2.3323  1.7362  0.6981
   40POPC  C212 5376   4.268   6.646   7.903  0.3150 -0.6510 -0.2127
   40POPC  H12R 5377   4.201   6.568   7.860  0.7117 -1.2414  0.2322
   40POPC  H12S 5378   4.209   6.739   7.922  1.8127  0.0136  1.2470
   40POPC  C213 5379   4.310   6.581   8.039  0.1246 -0.1535 -0.0466
   40POPC  H13R 5380   4.354   6.481   8.022 -1.1386 -0.4601 -1.6864
   40POPC  H13S 5381   4.217   6.565   8.098  0.3674  0.5206  0.5217
   40POPC  C214 5382   4.403   6.664   8.126  0.3403 -0.3338 -1.2809
   40POPC  H14R 5383   4.365   6.766   8.144 -0.2207 -0.6029 -0.9310
   40POPC  H14S 5384   4.500   6.678   8.073  0.0839 -0.2077 -1.7188
   40POPC  C215 5385   4.440   6.600   8.262 -0.3835  0.2561  0.1625
   40POPC  H15R 5386   4.526   6.658   8.301 -0.6633  0.7951 -0.0224
   40POPC  H15S 5387   4.485   6.501   8.243  3.6064  1.8979  0.5634
   40POPC  C216 5388   4.328   6.574   8.360 -0.6730  0.6251  1.0223
   40POPC  H16R 5389   4.256   6.506   8.310  2.4585 -2.9267  1.1396
   40POPC  H16S 5390   4.269   6.668   8.370  0.8896  1.4898  2.4564
   40POPC  C217 5391   4.380   6.520   8.502  0.5503 -0.3023  0.0937
   40POPC  H17R 5392   4.430   6.600   8.560  0.5895 -1.1717  1.2767
   40POPC  H17S 5393   4.463   6.450   8.476 -0.0135 -0.2766 -1.8249
   40POPC  C218 5394   4.274   6.453   8.592  0.4541 -0.0149 -0.1021
   40POPC  H18R 5395   4.321   6.416   8.686  1.0302 -1.8542 -1.1064
   40POPC  H18S 5396   4.218   6.368   8.550 -0.9252 -0.9142  3.3507
   40POPC  H18T 5397   4.198   6.530   8.618  1.2141  0.0307  2.1190
   40POPC   C33 5398   5.192   6.762   7.236 -0.5164  0.2092  0.3626
   40POPC   H3X 5399   5.133   6.853   7.210 -1.2582 -0.8898 -1.9116
   40POPC   H3Y 5400   5.296   6.787   7.207 -0.7049 -1.2724 -1.6999
   40POPC   C34 5401   5.182   6.725   7.381  0.5839  0.1344 -0.6919
   40POPC   H4X 5402   5.075   6.720   7.410  0.6247  1.4274 -0.3107
   40POPC   H4Y 5403   5.223   6.805   7.446 -0.5496  2.0517 -2.2854
   40POPC   C35 5404   5.268   6.602   7.408 -0.7790  0.3377 -0.8056
   40POPC   H5X 5405   5.369   6.610   7.363  1.0428 -2.9691  2.3905
   40POPC   H5Y 5406   5.226   6.512   7.358  0.2239 -0.2025 -0.6935
   40POPC   C36 5407   5.288   6.580   7.555 -0.5663  0.1991  0.5130
   40POPC   H6X 5408   5.337   6.669   7.600 -0.0003  0.5953 -0.8516
   40POPC   H6Y 5409   5.365   6.501   7.572  1.0881  1.1111 -2.3658
   40POPC   C37 5410   5.156   6.539   7.625 -0.2086  0.5580  0.2397
   40POPC   H7X 5411   5.104   6.473   7.552  0.4872 -0.7855  0.9367
   40POPC   H7Y 5412   5.085   6.624   7.635 -1.8215 -0.7908  0.5216
   40POPC   C38 5413   5.169   6.492   7.770  0.1739  0.1201  0.3536
   40POPC   H8X 5414   5.217   6.392   7.768 -3.3728 -1.7155  1.5981
   40POPC   H8Y 5415   5.070   6.471   7.816  0.8998 -0.1591  1.8305
   40POPC   C39 5416   5.247   6.588   7.862 -0.3876 -0.6386 -0.0809
   40POPC   H9X 5417   5.346   6.614   7.818  0.0747 -1.7951  0.2436
   40POPC   H9Y 5418   5.262   6.542   7.963 -0.5865  0.1140  0.2915
   40POPC  C310 5419   5.167   6.712   7.901 -0.3020  0.0047 -0.3676
   40POPC  H10X 5420   5.069   6.683   7.945  0.4122 -0.9671  0.6080
   40POPC  H10Y 5421   5.140   6.768   7.809 -1.0205 -0.4192 -0.4169
   40POPC  C311 5422   5.233   6.804   8.005 -0.6150  0.3969 -0.8654
   40POPC  H11X 5423   5.180   6.902   8.014  0.8612  0.9792  2.2740
   40POPC  H11Y 5424   5.328   6.842   7.963  0.7192  2.5140  3.7282
   40POPC  C312 5425   5.264   6.750   8.148 -0.7933  0.4796  0.5533
   40POPC  H12X 5426   5.327   6.658   8.156 -1.2162 -0.0393 -1.7624
   40POPC  H12Y 5427   5.165   6.730   8.194 -1.5786  1.9114 -0.4921
   40POPC  C313 5428   5.336   6.864   8.225 -0.0750 -0.3689 -0.4855
   40POPC  H13X 5429   5.270   6.954   8.220  0.2322  0.0158  1.6918
   40POPC  H13Y 5430   5.422   6.889   8.160  0.4291 -1.5876 -0.2979
   40POPC  C314 5431   5.387   6.850   8.367 -0.1227  0.3389  1.1698
   40POPC  H14X 5432   5.427   6.946   8.406  1.5501 -0.0005  0.3657
   40POPC  H14Y 5433   5.469   6.775   8.363  1.0534  1.6287  0.5917
   40POPC  C315 5434   5.280   6.799   8.465  0.1943  0.4957  0.9653
   40POPC  H15X 5435   5.244   6.700   8.431 -0.3871  1.2344 -0.5777
   40POPC  H15Y 5436   5.195   6.870   8.466 -1.4264 -1.4075  1.4438
   40POPC  C316 5437   5.329   6.779   8.605  0.0617  0.1664 -0.2185
   40POPC  H16X 5438   5.258   6.731   8.676  1.3247  0.7059  1.4578
   40POPC  H16Y 5439   5.349   6.877   8.653 -0.5482  1.3451 -2.3284
   40POPC  H16Z 5440   5.427   6.727   8.597  0.2028  0.6701 -1.9044
   41CHL1    C3 5441   4.454   3.812  10.075  0.3207 -0.2571  0.6909
   41CHL1    H3 5442   4.557   3.820  10.034  0.6366 -2.7275  0.9167
   41CHL1    O3 5443   4.475   3.793  10.209 -0.0650  0.0639 -0.3139
   41CHL1   H3' 5444   4.389   3.817  10.244  0.3295 -1.6508  1.9193
   41CHL1    C4 5445   4.381   3.948  10.046  0.4197 -0.0715  0.2093
   41CHL1   H4A 5446   4.285   3.944  10.102 -1.7508  0.4819 -3.2892
   41CHL1   H4B 5447   4.437   4.028  10.099 -1.3186  0.3882  1.3911
   41CHL1    C5 5448   4.364   3.968   9.897  0.0323 -0.5219  0.5510
   41CHL1    C6 5449   4.411   4.078   9.844  0.0084  0.0221 -0.3260
   41CHL1    H6 5450   4.464   4.152   9.906  1.3766 -2.2977  1.3617
   41CHL1    C7 5451   4.394   4.118   9.700  0.0822  0.4346 -0.4801
   41CHL1   H7A 5452   4.366   4.225   9.685  0.4600  0.4371 -1.1991
   41CHL1   H7B 5453   4.490   4.110   9.644 -0.1628 -0.5544 -0.7652
   41CHL1    C8 5454   4.295   4.028   9.621 -0.2248 -0.3225  0.7248
   41CHL1    H8 5455   4.196   4.064   9.655 -0.5257  0.2489 -0.6960
   41CHL1   C14 5456   4.316   4.047   9.473  0.0615 -0.2295 -0.1888
   41CHL1   H14 5457   4.412   3.997   9.450  0.7596  0.4138  1.3005
   41CHL1   C15 5458   4.342   4.187   9.418  0.6315  0.1899 -0.1633
   41CHL1  H15A 5459   4.268   4.261   9.457 -1.4342 -2.6688  1.5232
   41CHL1  H15B 5460   4.446   4.222   9.436 -0.1786  1.4430  2.3823
   41CHL1   C16 5461   4.320   4.172   9.268  0.2914  0.4801 -0.6365
   41CHL1  H16A 5462   4.251   4.248   9.226  1.2178  0.6228 -1.9274
   41CHL1  H16B 5463   4.412   4.186   9.208  0.6167 -2.8377 -1.0430
   41CHL1   C17 5464   4.259   4.032   9.251  0.5611 -0.4065  0.3087
   41CHL1   H17 5465   4.346   3.966   9.229  1.2584  0.8241 -0.6728
   41CHL1   C13 5466   4.205   3.984   9.389  0.1490  0.3196 -0.3338
   41CHL1   C18 5467   4.065   4.046   9.417 -0.2861 -0.5875 -0.1898
   41CHL1  H18A 5468   4.068   4.156   9.436 -3.2540 -0.2793 -1.2893
   41CHL1  H18B 5469   4.001   4.007   9.335 -0.1701  1.9101 -1.5322
   41CHL1  H18C 5470   4.016   4.005   9.508  0.9076  1.9955  1.6958
   41CHL1   C12 5471   4.210   3.834   9.420  0.4209 -0.9957  0.5711
   41CHL1  H12A 5472   4.141   3.784   9.349 -0.4078  0.8370  0.0569
   41CHL1  H12B 5473   4.311   3.799   9.391  0.0984  0.0853 -1.9716
   41CHL1   C11 5474   4.204   3.801   9.569  0.4908 -0.0688 -1.0271
   41CHL1  H11A 5475   4.101   3.837   9.589  1.0439  1.9199 -1.6758
   41CHL1  H11B 5476   4.215   3.691   9.569  0.2651 -0.1240  1.8004
   41CHL1    C9 5477   4.303   3.879   9.656 -0.4613 -0.4333 -0.5229
   41CHL1    H9 5478   4.410   3.852   9.638 -0.3184 -1.1284  1.2897
   41CHL1   C10 5479   4.291   3.856   9.812 -0.1366 -0.5184 -0.3012
   41CHL1   C19 5480   4.141   3.861   9.854  0.1801 -0.1192  0.0273
   41CHL1  H19A 5481   4.091   3.769   9.817 -1.1688  0.2234  0.9925
   41CHL1  H19B 5482   4.122   3.873   9.962  3.5093  2.2410  0.4366
   41CHL1  H19C 5483   4.097   3.946   9.799  0.3123  0.4865  0.8513
   41CHL1    C1 5484   4.352   3.713   9.854  0.2465  0.0252 -0.1417
   41CHL1   H1A 5485   4.280   3.632   9.828  1.9940 -2.1332  1.4377
   41CHL1   H1B 5486   4.445   3.710   9.793 -0.1684  0.7917 -0.8150
   41CHL1    C2 5487   4.377   3.695  10.006  0.0181 -0.3485  0.2366
   41CHL1   H2A 5488   4.424   3.596  10.025  2.0845  0.3219 -1.1541
   41CHL1   H2B 5489   4.278   3.705  10.056  0.9962  0.9498  1.9645
   41CHL1   C20 5490   4.166   4.018   9.131 -0.3247  0.1152 -0.2831
   41CHL1   H20 5491   4.063   4.055   9.151  0.3823  1.5888  0.7122
   41CHL1   C21 5492   4.147   3.868   9.095 -0.5231  0.2454 -0.1742
   41CHL1  H21A 5493   4.239   3.808   9.108 -0.5313  0.2586 -0.0486
   41CHL1  H21B 5494   4.109   3.850   8.993 -1.4047  1.3474 -0.0570
   41CHL1  H21C 5495   4.072   3.821   9.163 -0.9737  1.5904  0.2829
   41CHL1   C22 5496   4.209   4.091   8.998  0.1264 -0.3935 -0.1340
   41CHL1  H22A 5497   4.137   4.075   8.916 -1.0322  2.0837  0.3477
   41CHL1  H22B 5498   4.198   4.200   9.017  0.7986 -0.7550  2.6012
   41CHL1   C23 5499   4.345   4.061   8.942  0.1339 -0.2794  0.8677
   41CHL1  H23A 5500   4.422   4.070   9.022  0.0597 -0.0754  0.9161
   41CHL1  H23B 5501   4.341   3.959   8.898 -0.7860  0.7589 -1.5216
   41CHL1   C24 5502   4.381   4.148   8.818 -0.0171  0.1812 -0.3656
   41CHL1  H24A 5503   4.285   4.160   8.763  0.2393 -0.1287 -0.8868
   41CHL1  H24B 5504   4.413   4.247   8.856  0.0138  0.8878 -2.1718
   41CHL1   C25 5505   4.496   4.100   8.720  0.3027  0.0737  0.4495
   41CHL1   H25 5506   4.461   4.010   8.665  0.3899  2.2645 -3.3616
   41CHL1   C26 5507   4.512   4.195   8.597  0.4647  0.5162 -0.9078
   41CHL1  H26A 5508   4.600   4.164   8.537 -0.5081 -1.3127 -1.4286
   41CHL1  H26B 5509   4.414   4.195   8.543  0.3690  0.8866 -0.7358
   41CHL1  H26C 5510   4.539   4.299   8.623 -0.3941  0.3575  0.6760
   41CHL1   C27 5511   4.624   4.074   8.802 -0.3532  0.1557 -0.0797
   41CHL1  H27A 5512   4.605   3.993   8.876 -0.0860  0.2269  0.0682
   41CHL1  H27B 5513   4.708   4.042   8.736  0.2661  0.0445  0.7544
   41CHL1  H27C 5514   4.651   4.166   8.858  1.9032 -0.8783  0.6081
   42CHL1    C3 5515   4.005   3.292  10.015  0.9913 -0.3126  0.3094
   42CHL1    H3 5516   3.933   3.208  10.012  0.5600  0.0627 -0.0180
   42CHL1    O3 5517   4.037   3.340  10.150  0.7543  0.0650  0.2260
   42CHL1   H3' 5518   3.967   3.396  10.184  0.9560  0.4242  0.0521
   42CHL1    C4 5519   4.133   3.247   9.952  0.2622 -0.2330  0.5929
   42CHL1   H4A 5520   4.217   3.318   9.964  0.9568 -0.9485  0.0156
   42CHL1   H4B 5521   4.177   3.157  10.002  3.8393  0.2424 -1.5176
   42CHL1    C5 5522   4.109   3.220   9.804  0.2165 -1.3339  0.5089
   42CHL1    C6 5523   4.134   3.095   9.761  0.7210 -0.1807 -0.1325
   42CHL1    H6 5524   4.187   3.027   9.829  0.5293 -0.9352 -0.7340
   42CHL1    C7 5525   4.090   3.043   9.628 -1.1814 -0.4217 -0.0305
   42CHL1   H7A 5526   4.158   2.967   9.585 -2.0448 -2.1626  1.5906
   42CHL1   H7B 5527   3.990   2.996   9.643 -1.5934  1.2963  2.8885
   42CHL1    C8 5528   4.075   3.160   9.519 -0.2151  0.9030 -0.6335
   42CHL1    H8 5529   4.175   3.203   9.494  0.5725  0.5249  1.7329
   42CHL1   C14 5530   4.009   3.103   9.395  0.8487  0.7934  0.4291
   42CHL1   H14 5531   3.912   3.071   9.437  2.1363 -2.3828  1.1865
   42CHL1   C15 5532   4.070   2.976   9.329 -0.0841 -0.2974  0.0042
   42CHL1  H15A 5533   4.180   2.989   9.331  0.2877 -3.1713  0.5439
   42CHL1  H15B 5534   4.025   2.886   9.378  0.6500 -0.1682  0.9277
   42CHL1   C16 5535   4.016   2.986   9.186  0.0901  0.2161 -0.3464
   42CHL1  H16A 5536   4.104   2.996   9.118 -0.1456  3.3227 -0.2910
   42CHL1  H16B 5537   3.952   2.898   9.164 -0.3866  0.2478  0.8785
   42CHL1   C17 5538   3.916   3.109   9.174 -1.1364 -0.0056  0.1664
   42CHL1   H17 5539   3.817   3.073   9.209 -2.0704  2.3975  0.0511
   42CHL1   C13 5540   3.966   3.201   9.289 -0.0388  0.1916  0.0073
   42CHL1   C18 5541   4.093   3.279   9.245  0.5885  0.5940  0.1746
   42CHL1  H18A 5542   4.127   3.348   9.325 -0.5788  1.4204 -0.0229
   42CHL1  H18B 5543   4.173   3.209   9.212  1.0883  1.7498 -1.1209
   42CHL1  H18C 5544   4.062   3.347   9.163  1.0137 -0.6152 -1.0077
   42CHL1   C12 5545   3.858   3.299   9.353  0.1390 -0.4498  0.3457
   42CHL1  H12A 5546   3.827   3.374   9.277 -2.2212 -0.4956  1.2271
   42CHL1  H12B 5547   3.762   3.244   9.368  0.9933 -0.9308  4.5082
   42CHL1   C11 5548   3.905   3.363   9.483  0.7812  0.3922  0.0769
   42CHL1  H11A 5549   3.982   3.437   9.451  0.9132  0.5373  0.7384
   42CHL1  H11B 5550   3.822   3.419   9.532 -0.6750 -0.4571 -1.3676
   42CHL1    C9 5551   3.976   3.265   9.579 -0.8593 -0.7628  0.4323
   42CHL1    H9 5552   3.889   3.202   9.606 -1.7468 -0.4301 -1.5113
   42CHL1   C10 5553   4.032   3.325   9.717 -0.1594  0.1479 -0.5350
   42CHL1   C19 5554   4.132   3.437   9.682 -0.2327  0.0507 -0.5189
   42CHL1  H19A 5555   4.193   3.407   9.595  0.7366 -0.1475  0.2148
   42CHL1  H19B 5556   4.063   3.521   9.660 -0.5516  0.1155  0.6518
   42CHL1  H19C 5557   4.203   3.465   9.763 -1.1796 -0.4251  0.5026
   42CHL1    C1 5558   3.907   3.373   9.800  0.5494 -0.2404 -0.1271
   42CHL1   H1A 5559   3.876   3.459   9.737  0.9852 -0.3083 -0.4363
   42CHL1   H1B 5560   3.823   3.301   9.804  0.0769  0.2026 -1.6550
   42CHL1    C2 5561   3.947   3.415   9.935 -0.2620 -0.0349 -0.3946
   42CHL1   H2A 5562   3.855   3.458   9.980 -0.1836  2.4762 -2.5034
   42CHL1   H2B 5563   4.017   3.500   9.944 -0.4443  0.0926 -0.1751
   42CHL1   C20 5564   3.901   3.156   9.032  0.3729 -0.2745  0.0154
   42CHL1   H20 5565   3.994   3.208   9.001  0.8194 -2.0996 -1.8187
   42CHL1   C21 5566   3.788   3.256   9.026  0.7620 -0.5893 -0.3291
   42CHL1  H21A 5567   3.712   3.231   9.102  0.2438 -2.6662 -1.5113
   42CHL1  H21B 5568   3.740   3.248   8.926 -0.9562 -1.0023  0.5224
   42CHL1  H21C 5569   3.827   3.356   9.057  1.1887 -0.4389 -1.3079
   42CHL1   C22 5570   3.875   3.038   8.930  0.1937 -0.2324 -0.2117
   42CHL1  H22A 5571   3.960   2.967   8.925 -0.9308 -1.5961  0.0234
   42CHL1  H22B 5572   3.775   2.992   8.945  1.0145 -1.7507  0.7069
   42CHL1   C23 5573   3.877   3.079   8.783 -0.4808  0.6987 -0.1817
   42CHL1  H23A 5574   3.821   2.999   8.731 -1.1032  0.9239  0.1404
   42CHL1  H23B 5575   3.825   3.175   8.764 -0.2931  0.6057 -1.1768
   42CHL1   C24 5576   4.022   3.087   8.735  0.2771 -0.6658  0.2558
   42CHL1  H24A 5577   4.090   3.152   8.794 -1.1166 -0.5764  1.8044
   42CHL1  H24B 5578   4.056   2.984   8.761 -2.3608 -1.2063  1.7985
   42CHL1   C25 5579   4.044   3.098   8.584  0.1620  0.5303  0.5217
   42CHL1   H25 5580   3.990   3.015   8.534  2.0667  0.4179 -1.4570
   42CHL1   C26 5581   3.992   3.230   8.533 -0.5493 -0.2239  0.4802
   42CHL1  H26A 5582   3.881   3.229   8.544 -0.7429  1.6270 -1.1428
   42CHL1  H26B 5583   4.029   3.316   8.594  1.0132 -1.1739  0.8950
   42CHL1  H26C 5584   4.016   3.244   8.426  0.3185 -0.7085  0.6128
   42CHL1   C27 5585   4.192   3.085   8.549 -0.1397  1.3695  0.1081
   42CHL1  H27A 5586   4.208   3.091   8.439  2.6949  0.6919  0.4345
   42CHL1  H27B 5587   4.249   3.171   8.591 -0.7127  2.1361 -0.6634
   42CHL1  H27C 5588   4.227   2.985   8.581 -0.7455  1.3031  0.5700
   43CHL1    C3 5589   4.834   3.401  10.094  0.4381  0.6012  0.3895
   43CHL1    H3 5590   4.934   3.423  10.052 -0.9751 -0.4382 -3.7667
   43CHL1    O3 5591   4.826   3.396  10.234  0.1289  0.0159 -0.0366
   43CHL1   H3' 5592   4.771   3.320  10.254  1.1460 -0.5373  0.7196
   43CHL1    C4 5593   4.735   3.520  10.048  0.2231  0.0873  0.0001
   43CHL1   H4A 5594   4.639   3.492  10.098  0.7841  0.0686  1.0937
   43CHL1   H4B 5595   4.761   3.619  10.091 -1.5412  0.5614 -0.0009
   43CHL1    C5 5596   4.713   3.528   9.895  0.1590  0.1740 -0.2744
   43CHL1    C6 5597   4.747   3.637   9.827 -0.0007 -0.2306 -0.0516
   43CHL1    H6 5598   4.791   3.721   9.883 -0.4711  0.2719 -0.4350
   43CHL1    C7 5599   4.722   3.662   9.681  1.2698  0.6240 -0.1304
   43CHL1   H7A 5600   4.651   3.747   9.674  1.0425  0.3396 -1.3408
   43CHL1   H7B 5601   4.816   3.682   9.626  1.2198  0.1833 -0.3754
   43CHL1    C8 5602   4.651   3.544   9.606  0.3909  0.2126  0.2154
   43CHL1    H8 5603   4.543   3.555   9.630 -0.1981 -0.5495 -2.0046
   43CHL1   C14 5604   4.658   3.537   9.455 -0.5218 -0.3990 -0.2616
   43CHL1   H14 5605   4.763   3.521   9.424 -0.6990  2.2323 -2.3907
   43CHL1   C15 5606   4.621   3.661   9.384  0.3323  0.2069 -0.9364
   43CHL1  H15A 5607   4.534   3.716   9.426  1.2068  0.4592  0.5619
   43CHL1  H15B 5608   4.711   3.726   9.384  1.0658 -0.7836  0.8511
   43CHL1   C16 5609   4.598   3.626   9.234 -0.4342  0.2603 -0.0886
   43CHL1  H16A 5610   4.494   3.652   9.205 -0.5256  1.0406  0.9184
   43CHL1  H16B 5611   4.678   3.682   9.181  1.8036 -2.2929  0.4697
   43CHL1   C17 5612   4.603   3.468   9.240  0.3738 -0.7973 -0.3913
   43CHL1   H17 5613   4.710   3.442   9.224  0.7330  0.4295 -0.0481
   43CHL1   C13 5614   4.570   3.429   9.389 -0.2830  0.2601 -0.0630
   43CHL1   C18 5615   4.416   3.438   9.421  0.9906 -0.9260 -0.0694
   43CHL1  H18A 5616   4.378   3.535   9.382  0.3347 -1.4839 -0.8402
   43CHL1  H18B 5617   4.359   3.357   9.370 -0.7051  1.2463 -1.7558
   43CHL1  H18C 5618   4.395   3.438   9.530 -0.7304  1.8762 -0.3673
   43CHL1   C12 5619   4.635   3.294   9.427  0.0742  0.4571 -0.5547
   43CHL1  H12A 5620   4.580   3.208   9.384 -1.0091  0.8706 -0.0147
   43CHL1  H12B 5621   4.742   3.286   9.400  0.7552 -1.3075  2.4036
   43CHL1   C11 5622   4.633   3.283   9.584 -0.0806 -0.6876 -0.3890
   43CHL1  H11A 5623   4.527   3.281   9.618 -0.3038 -0.1370 -1.0224
   43CHL1  H11B 5624   4.675   3.182   9.604 -1.9022 -0.9829  2.1418
   43CHL1    C9 5625   4.700   3.401   9.656  0.2646  0.4462 -0.9918
   43CHL1    H9 5626   4.809   3.397   9.638  0.5929 -2.2796  1.1312
   43CHL1   C10 5627   4.676   3.395   9.819  1.2831 -0.3195 -0.1526
   43CHL1   C19 5628   4.529   3.372   9.854  0.1984  0.4437 -0.5215
   43CHL1  H19A 5629   4.500   3.270   9.821  1.7121  0.3996 -1.8084
   43CHL1  H19B 5630   4.509   3.365   9.963 -2.3732  2.3634 -0.7995
   43CHL1  H19C 5631   4.453   3.436   9.802 -1.1036 -1.0390 -0.4715
   43CHL1    C1 5632   4.762   3.272   9.883 -0.1753 -0.0544 -0.4390
   43CHL1   H1A 5633   4.717   3.177   9.845  0.9816 -0.7113 -0.2031
   43CHL1   H1B 5634   4.861   3.277   9.833 -0.3064  0.5236 -0.6437
   43CHL1    C2 5635   4.778   3.267  10.037  0.2178  0.2368 -0.0909
   43CHL1   H2A 5636   4.852   3.187  10.059  1.9582  1.3037 -1.8745
   43CHL1   H2B 5637   4.682   3.232  10.079  0.2024  0.4280  0.0315
   43CHL1   C20 5638   4.521   3.403   9.132 -0.4043 -0.2869  0.6545
   43CHL1   H20 5639   4.419   3.444   9.118 -0.3117 -0.2852 -0.0006
   43CHL1   C21 5640   4.514   3.247   9.147 -0.4293  0.4535 -0.4728
   43CHL1  H21A 5641   4.463   3.220   9.242  0.6501  2.1150  0.6032
   43CHL1  H21B 5642   4.614   3.199   9.149  0.1726  1.6936 -0.2132
   43CHL1  H21C 5643   4.453   3.193   9.072 -0.3160 -1.6981  0.9641
   43CHL1   C22 5644   4.596   3.437   8.990  0.0997 -0.1224 -0.2040
   43CHL1  H22A 5645   4.601   3.548   8.990  0.9350 -0.1545  0.2019
   43CHL1  H22B 5646   4.695   3.390   9.006 -0.5653 -2.0950 -1.6774
   43CHL1   C23 5647   4.521   3.381   8.863 -0.5072  0.4957 -0.0386
   43CHL1  H23A 5648   4.583   3.376   8.771  0.3757 -2.2615  0.6723
   43CHL1  H23B 5649   4.504   3.273   8.878  1.2095 -0.1705 -2.5742
   43CHL1   C24 5650   4.376   3.434   8.832 -0.3451  0.6366 -0.3073
   43CHL1  H24A 5651   4.329   3.349   8.778 -0.8656  2.1456 -2.3184
   43CHL1  H24B 5652   4.306   3.460   8.914  1.5824  0.5029  1.4078
   43CHL1   C25 5653   4.372   3.551   8.738 -0.2203  0.0975  0.3337
   43CHL1   H25 5654   4.468   3.608   8.737 -0.6950  0.8938 -0.4620
   43CHL1   C26 5655   4.339   3.512   8.589  0.5046  0.1264 -0.3906
   43CHL1  H26A 5656   4.340   3.604   8.526 -1.7318  1.6142  1.6635
   43CHL1  H26B 5657   4.414   3.439   8.552  1.4909 -1.0575  3.7183
   43CHL1  H26C 5658   4.243   3.457   8.598  0.5685  0.0394 -0.2408
   43CHL1   C27 5659   4.267   3.658   8.796 -0.1087 -0.4162  0.3436
   43CHL1  H27A 5660   4.281   3.757   8.749 -0.3841 -0.5140  0.0546
   43CHL1  H27B 5661   4.161   3.630   8.779  0.1503  0.2093 -2.4691
   43CHL1  H27C 5662   4.277   3.686   8.903  1.3401  2.2087 -0.4214
   44CHL1    C3 5663   4.995   3.935  10.207  0.6521 -0.4845 -0.7814
   44CHL1    H3 5664   5.019   3.844  10.148  0.1664 -1.8826  1.1230
   44CHL1    O3 5665   5.022   3.912  10.348  0.0256  0.5162 -0.1664
   44CHL1   H3' 5666   5.059   3.995  10.379  1.5374  0.0594 -0.6986
   44CHL1    C4 5667   5.084   4.045  10.151  0.5131 -0.1954  0.7266
   44CHL1   H4A 5668   5.056   4.137  10.206  0.1814  1.4996 -2.1507
   44CHL1   H4B 5669   5.186   4.016  10.186  0.7466  0.8145  0.9022
   44CHL1    C5 5670   5.078   4.061  10.002  0.8424  0.9879 -0.2340
   44CHL1    C6 5671   5.191   4.071   9.922 -0.0225 -0.6005  1.0901
   44CHL1    H6 5672   5.290   4.065   9.968  0.4642  1.0593  0.2916
   44CHL1    C7 5673   5.178   4.099   9.778  0.3197 -0.5871 -0.1198
   44CHL1   H7A 5674   5.240   4.188   9.752 -1.7562  0.7294 -0.7114
   44CHL1   H7B 5675   5.225   4.015   9.724  1.6967  0.6202 -0.8326
   44CHL1    C8 5676   5.038   4.110   9.716  0.2812 -0.3248 -0.1935
   44CHL1    H8 5677   5.013   4.218   9.719  0.5939 -0.2558 -0.0634
   44CHL1   C14 5678   5.028   4.075   9.569  0.1547 -0.3270 -0.9149
   44CHL1   H14 5679   5.035   3.964   9.566  1.7522 -0.3179  0.8792
   44CHL1   C15 5680   5.134   4.134   9.482  0.2887 -0.2022  0.1850
   44CHL1  H15A 5681   5.152   4.238   9.517 -1.0326  0.3035 -0.6078
   44CHL1  H15B 5682   5.237   4.092   9.471  0.9968  2.0125 -2.1761
   44CHL1   C16 5683   5.065   4.121   9.342 -1.2208 -0.2579  1.0217
   44CHL1  H16A 5684   5.052   4.218   9.291  0.1956 -0.5211  0.1159
   44CHL1  H16B 5685   5.130   4.050   9.286  0.2328  0.0101  2.3270
   44CHL1   C17 5686   4.922   4.068   9.365  0.8077 -0.5780 -0.1015
   44CHL1   H17 5687   4.916   3.957   9.363  0.8889 -0.6165  1.4918
   44CHL1   C13 5688   4.885   4.105   9.511  0.9325  0.2008 -0.2378
   44CHL1   C18 5689   4.862   4.258   9.513 -0.1730  0.3705 -0.5999
   44CHL1  H18A 5690   4.759   4.285   9.483 -1.0765 -2.3271 -0.0303
   44CHL1  H18B 5691   4.880   4.310   9.610 -0.4843  1.1145 -0.9334
   44CHL1  H18C 5692   4.936   4.316   9.453  0.1051 -1.4158 -1.9997
   44CHL1   C12 5693   4.776   4.028   9.585  0.2424 -0.0658 -0.2707
   44CHL1  H12A 5694   4.672   4.052   9.552  0.0495  1.2744  1.2902
   44CHL1  H12B 5695   4.800   3.922   9.563 -1.6872 -0.2063 -1.8768
   44CHL1   C11 5696   4.785   4.062   9.730  0.6904 -0.0940 -0.2368
   44CHL1  H11A 5697   4.741   4.163   9.744 -2.5630 -1.6945  1.7636
   44CHL1  H11B 5698   4.725   3.991   9.790 -0.9235  0.8420 -0.7014
   44CHL1    C9 5699   4.928   4.042   9.790  0.1614 -0.9346  0.3256
   44CHL1    H9 5700   4.945   3.933   9.782  1.0919 -0.7196 -0.7265
   44CHL1   C10 5701   4.941   4.073   9.942  0.1554 -0.6867  0.0174
   44CHL1   C19 5702   4.903   4.221   9.977 -0.2518  0.0728  0.6013
   44CHL1  H19A 5703   4.926   4.249  10.082 -1.1114  0.6042  0.6531
   44CHL1  H19B 5704   4.958   4.294   9.913  0.9324  1.4742  3.1303
   44CHL1  H19C 5705   4.794   4.223   9.957 -0.5892  3.7195  2.2967
   44CHL1    C1 5706   4.838   3.983  10.020 -0.2231  0.2579  0.0645
   44CHL1   H1A 5707   4.733   4.006   9.993 -0.1136  1.2854  0.4915
   44CHL1   H1B 5708   4.856   3.877   9.992 -3.6241  0.4004 -2.9987
   44CHL1    C2 5709   4.847   3.983  10.177  0.8796 -0.4539 -0.6012
   44CHL1   H2A 5710   4.785   3.900  10.215 -1.8718  1.1443 -1.4612
   44CHL1   H2B 5711   4.825   4.076  10.235  1.3278 -1.5918  1.4542
   44CHL1   C20 5712   4.829   4.116   9.249 -0.0200 -0.9558 -0.5571
   44CHL1   H20 5713   4.805   4.222   9.272  1.5480 -1.1522  2.1735
   44CHL1   C21 5714   4.686   4.037   9.253 -0.3033 -0.2001 -0.3425
   44CHL1  H21A 5715   4.717   3.930   9.257  1.2527  0.2762  0.9931
   44CHL1  H21B 5716   4.632   4.066   9.161 -1.7960 -1.0463  0.2465
   44CHL1  H21C 5717   4.629   4.074   9.340  0.1391 -0.1637 -0.0673
   44CHL1   C22 5718   4.888   4.100   9.110  0.3062 -0.4646  0.6578
   44CHL1  H22A 5719   4.821   4.150   9.037  0.7846 -1.3312 -0.3874
   44CHL1  H22B 5720   4.987   4.150   9.096  0.0257 -0.3828 -1.2084
   44CHL1   C23 5721   4.920   3.951   9.077  0.2173 -0.1186  0.1042
   44CHL1  H23A 5722   4.993   3.899   9.142  1.4513  1.5003  0.0567
   44CHL1  H23B 5723   4.820   3.902   9.086  0.1670 -0.0972 -0.3200
   44CHL1   C24 5724   4.979   3.930   8.935  0.0385 -0.4555  0.0180
   44CHL1  H24A 5725   4.978   3.820   8.916  4.4813 -0.7932  1.1902
   44CHL1  H24B 5726   4.916   3.974   8.855  0.6013  3.0771  1.4414
   44CHL1   C25 5727   5.117   3.988   8.922  0.6271 -0.3950 -0.5386
   44CHL1   H25 5728   5.118   4.093   8.958 -1.6653 -0.5326  0.0103
   44CHL1   C26 5729   5.231   3.927   9.006  0.4924  0.1680  0.6322
   44CHL1  H26A 5730   5.271   3.835   8.959 -0.5270  0.5408 -1.0249
   44CHL1  H26B 5731   5.305   4.006   9.030  0.2235 -0.0681  2.3196
   44CHL1  H26C 5732   5.206   3.903   9.112 -1.4075 -1.8940 -0.2360
   44CHL1   C27 5733   5.158   3.990   8.778  0.2924 -0.2244 -0.2850
   44CHL1  H27A 5734   5.097   4.066   8.725 -0.2201 -0.0855  0.5043
   44CHL1  H27B 5735   5.263   4.021   8.757  0.2987  0.3368  0.5381
   44CHL1  H27C 5736   5.152   3.886   8.739 -0.8558 -0.9633  1.7595
   45CHL1    C3 5737   1.531   2.107  10.338 -0.3256  0.3559  0.6156
   45CHL1    H3 5738   1.535   2.210  10.380  0.7021  0.1202  1.0933
   45CHL1    O3 5739   1.498   2.015  10.441 -0.4544 -0.1982  0.0039
   45CHL1   H3' 5740   1.424   2.053  10.488 -0.6931  0.3090 -0.7793
   45CHL1    C4 5741   1.435   2.102  10.213 -0.0978 -1.1371 -0.3414
   45CHL1   H4A 5742   1.436   2.002  10.166  0.3404 -1.1384 -0.3303
   45CHL1   H4B 5743   1.337   2.128  10.257  1.4325  3.3782  0.7220
   45CHL1    C5 5744   1.478   2.203  10.100 -0.3127  0.3318 -0.1220
   45CHL1    C6 5745   1.399   2.304  10.063 -0.5673 -0.2716  0.8819
   45CHL1    H6 5746   1.296   2.291  10.097  0.0302 -0.1753  2.8145
   45CHL1    C7 5747   1.426   2.394   9.951 -0.1860 -0.2793  0.5035
   45CHL1   H7A 5748   1.335   2.414   9.891  0.4886  2.5052  0.3513
   45CHL1   H7B 5749   1.450   2.492   9.997  0.7169 -0.2691  0.0194
   45CHL1    C8 5750   1.553   2.365   9.864 -0.1136  0.6779 -0.1912
   45CHL1    H8 5751   1.597   2.460   9.827 -0.8533  0.9811 -0.2948
   45CHL1   C14 5752   1.528   2.284   9.736  0.0101  0.5774 -0.1181
   45CHL1   H14 5753   1.479   2.186   9.751  0.3871  0.2589 -0.9575
   45CHL1   C15 5754   1.436   2.367   9.639 -0.3380 -0.2764 -0.2496
   45CHL1  H15A 5755   1.358   2.296   9.605 -1.9311  0.0539  2.5272
   45CHL1  H15B 5756   1.407   2.465   9.683  0.6499  0.5141 -1.3206
   45CHL1   C16 5757   1.519   2.399   9.508  0.3617 -0.4514 -0.5766
   45CHL1  H16A 5758   1.487   2.343   9.418  0.9947 -1.8630  0.0612
   45CHL1  H16B 5759   1.513   2.507   9.483  0.4007 -0.9025 -2.5886
   45CHL1   C17 5760   1.665   2.365   9.552 -0.1642 -0.1634  1.1142
   45CHL1   H17 5761   1.696   2.448   9.620 -0.6975 -0.3872  1.6345
   45CHL1   C13 5762   1.650   2.241   9.654  0.8342 -0.3607 -0.2064
   45CHL1   C18 5763   1.607   2.119   9.565  0.7020 -0.2728 -0.4825
   45CHL1  H18A 5764   1.516   2.138   9.505  0.2191 -0.5086  0.1692
   45CHL1  H18B 5765   1.692   2.074   9.509  0.9336  0.8714 -1.0625
   45CHL1  H18C 5766   1.577   2.032   9.626  0.9079  0.2210  0.3269
   45CHL1   C12 5767   1.773   2.212   9.737 -0.2045  0.2290 -0.6518
   45CHL1  H12A 5768   1.759   2.105   9.766  1.2270  0.1327 -0.2899
   45CHL1  H12B 5769   1.867   2.223   9.680 -0.2234  3.3441 -0.1603
   45CHL1   C11 5770   1.792   2.294   9.872 -0.2468 -0.3873  0.1647
   45CHL1  H11A 5771   1.884   2.253   9.918  0.6737  0.5385 -0.8273
   45CHL1  H11B 5772   1.817   2.394   9.831  0.7104  0.5195  2.8953
   45CHL1    C9 5773   1.666   2.306   9.952 -0.2612  0.1462 -0.3120
   45CHL1    H9 5774   1.682   2.394  10.018 -2.6148 -1.5458  2.6983
   45CHL1   C10 5775   1.621   2.193  10.052 -0.3877 -0.4327 -0.0581
   45CHL1   C19 5776   1.644   2.052   9.985 -0.1821 -0.1783 -0.7903
   45CHL1  H19A 5777   1.602   2.045   9.882 -0.8138  0.8194 -0.6117
   45CHL1  H19B 5778   1.753   2.030   9.984  0.2724  1.6787  1.7081
   45CHL1  H19C 5779   1.603   1.972  10.051  0.8697  0.6561  0.9033
   45CHL1    C1 5780   1.714   2.183  10.174  1.1313 -0.1495  0.2658
   45CHL1   H1A 5781   1.814   2.161  10.130  0.8699 -0.9743  0.0719
   45CHL1   H1B 5782   1.719   2.286  10.216 -1.0458 -0.3612  1.0879
   45CHL1    C2 5783   1.674   2.080  10.284  0.1241 -0.2422 -0.2783
   45CHL1   H2A 5784   1.750   2.087  10.364 -0.0415  0.4077 -0.1790
   45CHL1   H2B 5785   1.669   1.983  10.229  1.0877 -1.7328  2.1660
   45CHL1   C20 5786   1.774   2.362   9.444 -0.8452  0.8371  0.3232
   45CHL1   H20 5787   1.860   2.302   9.481  0.2698  0.8911 -2.1227
   45CHL1   C21 5788   1.825   2.508   9.438  0.1217  0.2765  0.2527
   45CHL1  H21A 5789   1.734   2.571   9.434 -1.8312 -2.5309 -2.8870
   45CHL1  H21B 5790   1.896   2.531   9.355  0.6154 -1.8608  0.0647
   45CHL1  H21C 5791   1.882   2.524   9.532  0.9344  1.1727 -0.3699
   45CHL1   C22 5792   1.728   2.303   9.315  0.6701  0.1927  0.8735
   45CHL1  H22A 5793   1.667   2.214   9.342  1.5780 -1.1766 -1.4847
   45CHL1  H22B 5794   1.655   2.374   9.269 -0.4585 -1.5450 -0.0568
   45CHL1   C23 5795   1.838   2.258   9.224 -0.3309 -0.1699  0.7113
   45CHL1  H23A 5796   1.892   2.345   9.181 -2.5283  0.4299 -0.9204
   45CHL1  H23B 5797   1.892   2.177   9.277  1.0769  0.1410 -0.2415
   45CHL1   C24 5798   1.773   2.197   9.091  0.5362  0.0219 -0.0943
   45CHL1  H24A 5799   1.850   2.142   9.032 -1.1493 -1.5511 -0.8660
   45CHL1  H24B 5800   1.703   2.117   9.125 -0.5852  1.2793  0.5849
   45CHL1   C25 5801   1.692   2.294   8.995 -0.1926 -0.0682 -0.0414
   45CHL1   H25 5802   1.621   2.354   9.056  1.7804  1.2715  1.0324
   45CHL1   C26 5803   1.782   2.399   8.926  0.1794  0.1789 -0.2413
   45CHL1  H26A 5804   1.842   2.342   8.852  1.9334  0.4031  0.9614
   45CHL1  H26B 5805   1.714   2.473   8.879  0.7689  1.6901  1.2499
   45CHL1  H26C 5806   1.860   2.443   8.992  0.9063 -1.9381  0.3453
   45CHL1   C27 5807   1.618   2.206   8.888  0.0870  0.2634  0.2217
   45CHL1  H27A 5808   1.548   2.255   8.818  0.1738 -0.8372 -0.6649
   45CHL1  H27B 5809   1.703   2.166   8.828  0.8286 -1.4305  2.3247
   45CHL1  H27C 5810   1.572   2.127   8.951  1.1808  1.1635  2.2061
   46CHL1    C3 5811   4.708   0.465  10.110 -0.0180  0.9865 -0.1688
   46CHL1    H3 5812   4.802   0.518  10.087  0.3709 -0.5987 -2.4156
   46CHL1    O3 5813   4.687   0.474  10.248 -0.0836 -0.4755  0.4145
   46CHL1   H3' 5814   4.608   0.422  10.259 -2.5556  3.3012  1.4049
   46CHL1    C4 5815   4.590   0.523  10.036 -0.3696 -0.1194  0.2477
   46CHL1   H4A 5816   4.494   0.480  10.073  0.0998 -1.0264  0.4289
   46CHL1   H4B 5817   4.579   0.630  10.065  1.2900 -0.8006  3.6608
   46CHL1    C5 5818   4.597   0.503   9.885  0.6159  0.1576 -0.0344
   46CHL1    C6 5819   4.586   0.610   9.809 -0.1001 -0.5615  0.0498
   46CHL1    H6 5820   4.567   0.711   9.848  0.2438 -0.9030  1.1323
   46CHL1    C7 5821   4.597   0.609   9.655 -0.2257  0.4532 -0.6974
   46CHL1   H7A 5822   4.514   0.673   9.620  0.0194  1.0228 -0.2389
   46CHL1   H7B 5823   4.692   0.663   9.631 -0.5217  1.5127  0.4922
   46CHL1    C8 5824   4.576   0.469   9.603 -0.4183  0.4200  0.1441
   46CHL1    H8 5825   4.468   0.445   9.616 -0.8215  0.5943 -2.6425
   46CHL1   C14 5826   4.617   0.466   9.458  0.4696 -0.3263  0.4477
   46CHL1   H14 5827   4.723   0.498   9.450  0.6562 -1.3261 -1.3218
   46CHL1   C15 5828   4.543   0.565   9.367  0.2816  0.0338 -0.1643
   46CHL1  H15A 5829   4.438   0.554   9.402  0.8416  1.4831  2.0308
   46CHL1  H15B 5830   4.574   0.672   9.363 -0.6446  0.2488 -2.4533
   46CHL1   C16 5831   4.549   0.500   9.229  0.7026  0.0046  0.3362
   46CHL1  H16A 5832   4.448   0.475   9.191  1.3601 -0.0210 -1.4189
   46CHL1  H16B 5833   4.599   0.557   9.148  1.4089 -1.7911 -0.4971
   46CHL1   C17 5834   4.624   0.363   9.245 -0.1549 -0.4925  0.0027
   46CHL1   H17 5835   4.734   0.375   9.243 -0.3386  1.4182  0.4326
   46CHL1   C13 5836   4.606   0.332   9.395 -0.2792  0.3244 -0.5803
   46CHL1   C18 5837   4.462   0.284   9.417  0.2211 -1.0328  0.4314
   46CHL1  H18A 5838   4.384   0.355   9.383  2.2518  0.9597 -0.1198
   46CHL1  H18B 5839   4.457   0.191   9.356 -0.6848  1.8805 -4.1546
   46CHL1  H18C 5840   4.440   0.259   9.523 -1.7244  0.9658  0.5319
   46CHL1   C12 5841   4.707   0.237   9.470 -0.2266 -0.1510  0.0728
   46CHL1  H12A 5842   4.708   0.140   9.416 -1.5513  0.1138 -0.4721
   46CHL1  H12B 5843   4.811   0.273   9.460  0.0496 -1.0041 -0.1086
   46CHL1   C11 5844   4.675   0.233   9.617 -0.0597  0.1845  0.6646
   46CHL1  H11A 5845   4.583   0.177   9.646 -0.9482  1.0843 -0.3808
   46CHL1  H11B 5846   4.752   0.177   9.674  0.1486 -0.7940 -0.5458
   46CHL1    C9 5847   4.669   0.372   9.685 -0.2445 -0.5809  0.0116
   46CHL1    H9 5848   4.775   0.404   9.673  0.4704 -1.8628  2.5190
   46CHL1   C10 5849   4.631   0.369   9.836  0.0815 -0.9839  0.7768
   46CHL1   C19 5850   4.505   0.281   9.852 -0.1786 -0.0511 -0.0719
   46CHL1  H19A 5851   4.464   0.266   9.954 -2.3250  0.7886 -0.7791
   46CHL1  H19B 5852   4.426   0.324   9.786 -0.4354  1.3821  1.1540
   46CHL1  H19C 5853   4.530   0.174   9.831 -1.7833 -0.3466 -0.5570
   46CHL1    C1 5854   4.753   0.312   9.917 -0.5066 -0.2774  0.5293
   46CHL1   H1A 5855   4.770   0.208   9.882 -0.0142 -0.3884  1.0946
   46CHL1   H1B 5856   4.845   0.367   9.887 -0.6674  0.2261  0.9500
   46CHL1    C2 5857   4.738   0.313  10.071 -0.4279 -0.1852 -0.0783
   46CHL1   H2A 5858   4.835   0.290  10.119 -0.4010  1.6799  0.8042
   46CHL1   H2B 5859   4.658   0.239  10.093 -0.5734  0.2832  0.9887
   46CHL1   C20 5860   4.579   0.259   9.141  0.4587  0.6034 -0.1381
   46CHL1   H20 5861   4.471   0.231   9.144  0.4280  0.9203  1.9275
   46CHL1   C21 5862   4.658   0.131   9.162 -0.0566  0.2097  0.5849
   46CHL1  H21A 5863   4.759   0.154   9.201  1.6217 -1.3366 -2.6530
   46CHL1  H21B 5864   4.662   0.078   9.064  1.7016  2.8831 -0.8488
   46CHL1  H21C 5865   4.602   0.063   9.230 -1.2940  0.7302  0.1096
   46CHL1   C22 5866   4.606   0.307   8.995 -0.2988  0.1549 -0.1281
   46CHL1  H22A 5867   4.586   0.416   8.986  0.4976  0.1559 -2.1239
   46CHL1  H22B 5868   4.714   0.294   8.977 -0.5304  0.5337 -1.8441
   46CHL1   C23 5869   4.508   0.239   8.896 -0.8532 -0.2650  0.0953
   46CHL1  H23A 5870   4.525   0.129   8.900  0.3754 -0.1281 -1.1010
   46CHL1  H23B 5871   4.403   0.250   8.930 -1.8341  1.0009 -3.0861
   46CHL1   C24 5872   4.527   0.282   8.750  0.6184  0.7307 -0.2672
   46CHL1  H24A 5873   4.524   0.393   8.750  0.6050  0.7301 -0.1355
   46CHL1  H24B 5874   4.630   0.253   8.721  0.6183  1.0911 -0.6319
   46CHL1   C25 5875   4.415   0.222   8.655  0.1789 -0.9891 -0.1351
   46CHL1   H25 5876   4.313   0.237   8.696  0.5268 -1.0995  0.7851
   46CHL1   C26 5877   4.422   0.290   8.514 -0.2546  0.7431 -0.3142
   46CHL1  H26A 5878   4.322   0.273   8.468 -0.2363  2.2495 -0.9569
   46CHL1  H26B 5879   4.437   0.398   8.536 -0.4626  1.0642 -1.7259
   46CHL1  H26C 5880   4.508   0.249   8.457 -1.3924 -3.2758  0.6989
   46CHL1   C27 5881   4.434   0.067   8.659  0.5727 -0.0798 -0.3707
   46CHL1  H27A 5882   4.404   0.018   8.754  1.4011 -0.2611 -0.1986
   46CHL1  H27B 5883   4.383   0.015   8.575  1.4427 -0.2978 -0.7778
   46CHL1  H27C 5884   4.544   0.057   8.647  0.8240 -1.0833  2.5709
   47CHL1    C3 5885   5.376   3.512  10.117  0.0611  0.1036  0.5756
   47CHL1    H3 5886   5.459   3.452  10.073 -0.2350  1.0335 -1.3113
   47CHL1    O3 5887   5.379   3.529  10.258  0.5767 -0.0663  0.2716
   47CHL1   H3' 5888   5.328   3.608  10.278  0.4194 -0.0625 -0.1389
   47CHL1    C4 5889   5.367   3.653  10.043 -0.8281  1.1217 -0.3710
   47CHL1   H4A 5890   5.290   3.721  10.087 -2.5239 -0.0860 -1.4326
   47CHL1   H4B 5891   5.452   3.709  10.088 -2.1822  1.0624  2.4332
   47CHL1    C5 5892   5.351   3.650   9.891  0.1610  0.9172  0.4991
   47CHL1    C6 5893   5.430   3.709   9.799 -0.0651  0.5425 -0.1004
   47CHL1    H6 5894   5.509   3.776   9.836 -0.2428  2.6050 -3.2804
   47CHL1    C7 5895   5.417   3.699   9.652 -0.2482  0.1060 -0.1144
   47CHL1   H7A 5896   5.443   3.796   9.605 -1.5737  0.1287 -0.8089
   47CHL1   H7B 5897   5.485   3.619   9.615  1.8915 -0.0909  3.9133
   47CHL1    C8 5898   5.276   3.657   9.616 -0.3922 -0.2491 -0.2367
   47CHL1    H8 5899   5.211   3.746   9.625 -0.8324 -0.3190 -2.4525
   47CHL1   C14 5900   5.266   3.609   9.470 -0.6518 -0.1938 -0.3238
   47CHL1   H14 5901   5.320   3.512   9.471  0.1165  0.2221 -1.0864
   47CHL1   C15 5902   5.337   3.679   9.351  0.1597  0.6672  0.0464
   47CHL1  H15A 5903   5.302   3.785   9.356 -0.7121  0.3281  1.7370
   47CHL1  H15B 5904   5.447   3.686   9.352  0.4061 -2.3629 -0.1430
   47CHL1   C16 5905   5.283   3.613   9.219 -0.5638 -0.4356 -0.6406
   47CHL1  H16A 5906   5.257   3.700   9.156  2.1432  1.3046  0.5425
   47CHL1  H16B 5907   5.354   3.553   9.159 -0.2578 -1.6900  0.9467
   47CHL1   C17 5908   5.164   3.527   9.267  0.3615  0.0286 -0.5361
   47CHL1   H17 5909   5.195   3.423   9.292 -1.0537 -0.7530 -2.0106
   47CHL1   C13 5910   5.133   3.571   9.412  0.2656 -0.7393  0.3930
   47CHL1   C18 5911   5.036   3.691   9.398  1.1008  0.1515 -0.2641
   47CHL1  H18A 5912   5.033   3.753   9.490 -0.5066  1.1626 -0.9686
   47CHL1  H18B 5913   5.069   3.754   9.312 -0.1449 -3.1643 -3.3198
   47CHL1  H18C 5914   4.934   3.657   9.369  0.8878  0.8138 -0.2956
   47CHL1   C12 5915   5.081   3.457   9.501  0.4384  0.4007  0.4613
   47CHL1  H12A 5916   4.977   3.427   9.475  1.7032 -1.7943 -2.3546
   47CHL1  H12B 5917   5.148   3.370   9.488  0.5921  0.0952  3.0118
   47CHL1   C11 5918   5.085   3.484   9.654 -0.2645  0.2364  0.4593
   47CHL1  H11A 5919   5.004   3.556   9.678 -0.2436 -0.1493  1.7008
   47CHL1  H11B 5920   5.057   3.386   9.698  0.1712 -0.2272 -0.2934
   47CHL1    C9 5921   5.223   3.544   9.701  0.4161  0.7200 -0.7509
   47CHL1    H9 5922   5.294   3.460   9.686  1.3583  1.6263 -1.4084
   47CHL1   C10 5923   5.223   3.570   9.854  0.0630  0.2638  0.3480
   47CHL1   C19 5924   5.101   3.656   9.889  0.0099  0.5727 -0.1631
   47CHL1  H19A 5925   5.077   3.740   9.820 -0.5774 -0.8710 -1.7294
   47CHL1  H19B 5926   5.019   3.582   9.878 -1.2288  1.7319  1.0260
   47CHL1  H19C 5927   5.104   3.691   9.994 -0.8706  0.2444 -0.0219
   47CHL1    C1 5928   5.227   3.432   9.933  0.3183  0.6406  0.1711
   47CHL1   H1A 5929   5.132   3.377   9.912  0.1359  0.7524  0.7008
   47CHL1   H1B 5930   5.305   3.364   9.894 -1.2504  0.3077 -2.5658
   47CHL1    C2 5931   5.241   3.439  10.086  0.3977  0.2347  0.2003
   47CHL1   H2A 5932   5.243   3.340  10.136  0.0447 -0.3065 -0.8362
   47CHL1   H2B 5933   5.155   3.501  10.120 -0.1433 -0.6406  0.4528
   47CHL1   C20 5934   5.055   3.514   9.162  0.3945 -0.3031  0.2816
   47CHL1   H20 5935   4.975   3.590   9.176  0.1065 -0.2910 -1.3464
   47CHL1   C21 5936   4.984   3.380   9.197 -0.2765  0.5810  0.0234
   47CHL1  H21A 5937   4.925   3.384   9.291 -0.9360  2.6881 -0.4536
   47CHL1  H21B 5938   5.042   3.286   9.209 -2.8711 -0.9618  0.7549
   47CHL1  H21C 5939   4.908   3.352   9.121  0.2567 -1.5147  0.2359
   47CHL1   C22 5940   5.098   3.518   9.017 -0.7727 -0.7309 -0.3949
   47CHL1  H22A 5941   5.136   3.621   8.997  0.6904 -1.0581  0.6604
   47CHL1  H22B 5942   5.187   3.454   8.999  1.5178  1.7395  1.6871
   47CHL1   C23 5943   4.984   3.498   8.919  0.7533  0.3383 -0.5272
   47CHL1  H23A 5944   4.965   3.389   8.917  0.7793  0.3570 -2.4912
   47CHL1  H23B 5945   4.898   3.556   8.960 -2.1692 -3.4269 -1.0716
   47CHL1   C24 5946   5.033   3.552   8.786  0.4716  0.1040  0.1025
   47CHL1  H24A 5947   5.068   3.657   8.793 -0.1265  0.3539 -0.5086
   47CHL1  H24B 5948   5.120   3.493   8.751  0.2653  0.1997 -0.5807
   47CHL1   C25 5949   4.921   3.545   8.685  0.1432  0.5322 -0.3649
   47CHL1   H25 5950   4.887   3.439   8.690  2.2114 -0.2193 -1.6999
   47CHL1   C26 5951   4.801   3.626   8.720  0.0783  0.7004  0.0147
   47CHL1  H26A 5952   4.763   3.621   8.824 -0.6746  2.2383 -0.1723
   47CHL1  H26B 5953   4.715   3.594   8.658 -0.7059 -3.5025  3.0418
   47CHL1  H26C 5954   4.834   3.730   8.702 -0.3835  0.7506 -0.5432
   47CHL1   C27 5955   4.946   3.571   8.537  0.0326  0.0136  0.6856
   47CHL1  H27A 5956   4.875   3.535   8.460  2.5172  0.9243 -2.1373
   47CHL1  H27B 5957   4.966   3.680   8.536 -1.0352  0.2358  2.0032
   47CHL1  H27C 5958   5.047   3.528   8.519  0.0644  0.1134  0.6236
   48CHL1    C3 5959   5.754   4.182   9.954  0.1982  0.6185  0.4340
   48CHL1    H3 5960   5.712   4.282   9.928 -0.1000  0.3874  0.0331
   48CHL1    O3 5961   5.753   4.168  10.090 -0.0792 -0.2330  0.8963
   48CHL1   H3' 5962   5.755   4.073  10.107  3.7261 -0.8417 -2.2406
   48CHL1    C4 5963   5.651   4.086   9.884  0.0052 -0.6430  0.5382
   48CHL1   H4A 5964   5.665   3.979   9.909  0.2535 -0.4251  1.3653
   48CHL1   H4B 5965   5.553   4.116   9.929  0.8170 -0.6626  2.3493
   48CHL1    C5 5966   5.653   4.098   9.728 -0.2887  0.0193 -0.1246
   48CHL1    C6 5967   5.538   4.117   9.664 -0.6663 -0.5585  0.1931
   48CHL1    H6 5968   5.440   4.128   9.713 -0.0227  0.2230  1.3134
   48CHL1    C7 5969   5.536   4.138   9.516  0.5690  0.2628  0.5215
   48CHL1   H7A 5970   5.451   4.081   9.472  1.9999 -1.3641 -0.1852
   48CHL1   H7B 5971   5.522   4.244   9.487 -0.9844 -0.2052 -0.4936
   48CHL1    C8 5972   5.664   4.080   9.443  0.1872 -0.4652  0.1468
   48CHL1    H8 5973   5.661   3.969   9.441 -1.4054 -0.4257 -1.9725
   48CHL1   C14 5974   5.667   4.135   9.299  0.6129 -0.4325  0.0287
   48CHL1   H14 5975   5.686   4.243   9.313 -0.1070 -0.1723 -0.9634
   48CHL1   C15 5976   5.548   4.105   9.214 -0.5190 -0.9459  0.1978
   48CHL1  H15A 5977   5.520   3.998   9.225 -1.6952 -0.5955  0.6880
   48CHL1  H15B 5978   5.458   4.168   9.233 -0.0191 -0.0841 -0.2181
   48CHL1   C16 5979   5.610   4.142   9.077  0.5848 -0.2931  0.2187
   48CHL1  H16A 5980   5.582   4.069   8.997  1.9328 -1.2075  0.5691
   48CHL1  H16B 5981   5.583   4.240   9.033  1.5566 -0.7339 -1.4158
   48CHL1   C17 5982   5.764   4.149   9.088  0.5517 -0.2210  0.4196
   48CHL1   H17 5983   5.789   4.258   9.089 -1.8348  0.3601  0.4570
   48CHL1   C13 5984   5.795   4.093   9.225 -0.1380  0.4103 -0.0392
   48CHL1   C18 5985   5.801   3.936   9.203  0.2700  0.1443 -0.1605
   48CHL1  H18A 5986   5.714   3.903   9.143 -0.0971  1.5923 -0.4369
   48CHL1  H18B 5987   5.883   3.904   9.136 -1.3290 -0.2963 -1.9245
   48CHL1  H18C 5988   5.793   3.873   9.295 -1.8370 -0.5590 -0.7900
   48CHL1   C12 5989   5.915   4.143   9.295 -0.2582  0.0365  1.4328
   48CHL1  H12A 5990   6.005   4.130   9.232 -0.6911 -2.5555  1.2821
   48CHL1  H12B 5991   5.890   4.251   9.299 -0.3834  0.0254  0.9195
   48CHL1   C11 5992   5.922   4.083   9.438 -0.1268  0.3124  0.2016
   48CHL1  H11A 5993   5.936   3.972   9.433 -2.8825 -0.0888  0.5685
   48CHL1  H11B 5994   6.010   4.134   9.481  0.5720 -0.5785 -0.1534
   48CHL1    C9 5995   5.794   4.122   9.515 -0.3015  0.7332 -0.0613
   48CHL1    H9 5996   5.785   4.233   9.509  0.9392  0.8084 -0.5558
   48CHL1   C10 5997   5.790   4.088   9.672  0.0913 -0.0433  0.1541
   48CHL1   C19 5998   5.841   3.944   9.687 -0.5886 -0.1794  0.8238
   48CHL1  H19A 5999   5.789   3.879   9.613 -1.9586 -0.1173  1.7075
   48CHL1  H19B 6000   5.948   3.938   9.656 -0.5320 -3.7707  1.4191
   48CHL1  H19C 6001   5.827   3.907   9.791 -3.9842  2.0729  1.2513
   48CHL1    C1 6002   5.893   4.175   9.750 -0.0925  0.1680 -0.2079
   48CHL1   H1A 6003   5.988   4.151   9.699 -0.3009 -0.0722 -0.4932
   48CHL1   H1B 6004   5.866   4.279   9.724  2.5042  0.2981 -2.6093
   48CHL1    C2 6005   5.896   4.163   9.897  0.7300 -0.0850 -0.1139
   48CHL1   H2A 6006   5.961   4.246   9.933  0.2926  0.5148 -0.6825
   48CHL1   H2B 6007   5.927   4.063   9.932 -0.9594 -1.0873 -1.4122
   48CHL1   C20 6008   5.838   4.087   8.963  0.5036 -0.2275  0.4954
   48CHL1   H20 6009   5.810   3.979   8.961  1.2118 -0.4414  1.7214
   48CHL1   C21 6010   5.988   4.108   8.982 -0.1106  0.8804 -0.1493
   48CHL1  H21A 6011   6.034   4.113   8.881 -0.0456  0.1657 -0.1570
   48CHL1  H21B 6012   6.025   4.019   9.037 -0.2970 -0.2807 -1.8631
   48CHL1  H21C 6013   6.008   4.205   9.032 -1.2407  1.1381 -0.1654
   48CHL1   C22 6014   5.796   4.148   8.821  0.2803  0.1559  0.3197
   48CHL1  H22A 6015   5.863   4.113   8.740 -0.5973 -0.6191 -0.0890
   48CHL1  H22B 6016   5.694   4.115   8.790  0.2057 -0.2682  1.0002
   48CHL1   C23 6017   5.792   4.301   8.824 -0.4282  0.5979  0.1619
   48CHL1  H23A 6018   5.703   4.328   8.886  0.3450  0.4793  1.3445
   48CHL1  H23B 6019   5.879   4.345   8.877  0.4854  0.8620 -1.5382
   48CHL1   C24 6020   5.795   4.368   8.693 -0.0862  1.0919  0.0527
   48CHL1  H24A 6021   5.861   4.301   8.633 -3.8730 -0.9457 -1.9841
   48CHL1  H24B 6022   5.696   4.364   8.643  1.2949 -1.6040 -2.6657
   48CHL1   C25 6023   5.845   4.511   8.696  0.8022  0.1776 -0.3029
   48CHL1   H25 6024   5.939   4.505   8.754  1.5859 -2.0139 -1.7384
   48CHL1   C26 6025   5.873   4.567   8.556 -1.0544 -0.8830 -0.6742
   48CHL1  H26A 6026   5.777   4.564   8.500 -0.4377 -0.2139 -1.7856
   48CHL1  H26B 6027   5.919   4.668   8.555 -1.7579 -0.5705 -2.0733
   48CHL1  H26C 6028   5.936   4.499   8.495  2.6750  1.4026  0.4370
   48CHL1   C27 6029   5.739   4.609   8.767 -0.1700  0.4420  1.0267
   48CHL1  H27A 6030   5.644   4.590   8.713  0.5461 -0.0796 -0.0697
   48CHL1  H27B 6031   5.741   4.598   8.878  2.5331  0.7505  1.0632
   48CHL1  H27C 6032   5.770   4.713   8.746 -2.3393  1.5780  3.2567
   49CHL1    C3 6033   4.325   6.266  10.092  0.3612 -0.1485  0.5578
   49CHL1    H3 6034   4.357   6.162  10.070 -1.5703 -0.3666 -1.4614
   49CHL1    O3 6035   4.384   6.312  10.208 -0.0355  0.7439  0.0250
   49CHL1   H3' 6036   4.364   6.405  10.199  0.1552  0.7858  0.0326
   49CHL1    C4 6037   4.368   6.344   9.969  0.3250 -0.1954 -0.8162
   49CHL1   H4A 6038   4.354   6.452   9.993  1.8457 -0.2130  0.1973
   49CHL1   H4B 6039   4.479   6.333   9.972  0.3799  0.7447  1.7830
   49CHL1    C5 6040   4.294   6.299   9.846 -0.2187  0.1175 -0.2391
   49CHL1    C6 6041   4.358   6.266   9.734  0.7175 -1.0654  0.3369
   49CHL1    H6 6042   4.466   6.287   9.733  0.1404  2.2059  0.3153
   49CHL1    C7 6043   4.305   6.224   9.599 -0.6306 -0.2621 -0.0886
   49CHL1   H7A 6044   4.341   6.290   9.517 -2.8665  0.3740 -0.5769
   49CHL1   H7B 6045   4.336   6.120   9.575 -0.6697 -0.3761  0.3363
   49CHL1    C8 6046   4.140   6.243   9.600 -0.1796  0.4162 -0.1369
   49CHL1    H8 6047   4.111   6.350   9.591  1.5289  1.0312  1.3956
   49CHL1   C14 6048   4.086   6.153   9.496  0.3389 -1.0407  0.1070
   49CHL1   H14 6049   4.114   6.050   9.526  2.0227 -0.7732 -0.5036
   49CHL1   C15 6050   4.147   6.180   9.352 -0.3869 -0.3745 -0.3640
   49CHL1  H15A 6051   4.168   6.287   9.328  2.1290 -1.2460 -2.3137
   49CHL1  H15B 6052   4.245   6.128   9.343  0.5856  1.3794 -0.0206
   49CHL1   C16 6053   4.036   6.130   9.261  0.0395  0.1623 -0.5403
   49CHL1  H16A 6054   3.998   6.211   9.195 -4.0713  0.3694  1.9021
   49CHL1  H16B 6055   4.077   6.048   9.198 -0.6178  0.2427 -1.0815
   49CHL1   C17 6056   3.912   6.081   9.351 -0.7140  0.1366 -0.1451
   49CHL1   H17 6057   3.925   5.975   9.382 -0.0301 -0.2008 -1.5274
   49CHL1   C13 6058   3.934   6.165   9.480  1.0665 -0.1733 -1.0851
   49CHL1   C18 6059   3.878   6.308   9.445 -1.1272 -0.3610 -0.2005
   49CHL1  H18A 6060   3.768   6.314   9.436 -1.1599  0.7388  0.8149
   49CHL1  H18B 6061   3.912   6.374   9.528  1.4046 -1.3433 -0.4067
   49CHL1  H18C 6062   3.925   6.351   9.353  0.5810 -0.6892  0.4929
   49CHL1   C12 6063   3.871   6.126   9.612  0.3407  0.1811  0.1206
   49CHL1  H12A 6064   3.761   6.136   9.601  0.1827 -0.9512  0.5478
   49CHL1  H12B 6065   3.896   6.020   9.634 -0.2858  0.3408  1.6632
   49CHL1   C11 6066   3.928   6.208   9.732 -0.3065 -0.1948 -0.4469
   49CHL1  H11A 6067   3.882   6.307   9.711 -0.6127 -0.7548 -2.4885
   49CHL1  H11B 6068   3.887   6.166   9.827  2.0357  0.3409  0.8484
   49CHL1    C9 6069   4.080   6.202   9.736  0.3993  0.0186 -0.0069
   49CHL1    H9 6070   4.113   6.097   9.751  0.2400 -0.5851 -3.5572
   49CHL1   C10 6071   4.140   6.284   9.856 -0.7979  0.6540 -0.7097
   49CHL1   C19 6072   4.093   6.428   9.855 -0.3921 -0.2624 -0.3799
   49CHL1  H19A 6073   3.984   6.427   9.877  0.0654  2.4924  2.3409
   49CHL1  H19B 6074   4.137   6.495   9.932 -3.4978  0.5942  0.7340
   49CHL1  H19C 6075   4.103   6.475   9.754  1.9215  0.7964  0.3019
   49CHL1    C1 6076   4.102   6.210   9.990  0.5697  0.1032 -0.4351
   49CHL1   H1A 6077   3.992   6.213  10.002  0.5242  2.8901 -1.2604
   49CHL1   H1B 6078   4.144   6.107   9.996 -0.0151  0.0076  2.4257
   49CHL1    C2 6079   4.175   6.271  10.108 -0.7107  0.1770 -0.0678
   49CHL1   H2A 6080   4.135   6.211  10.192 -0.3404 -0.1179 -0.0987
   49CHL1   H2B 6081   4.135   6.373  10.126 -1.8416 -0.1303 -0.7808
   49CHL1   C20 6082   3.770   6.080   9.287 -0.8999 -0.3968  0.0028
   49CHL1   H20 6083   3.735   6.185   9.274  1.0296  0.1839 -0.6438
   49CHL1   C21 6084   3.671   5.994   9.363  0.2178  0.3396 -0.8042
   49CHL1  H21A 6085   3.677   5.884   9.354  0.0355  0.1681  0.9255
   49CHL1  H21B 6086   3.572   6.018   9.320 -1.7572 -2.3487  2.0110
   49CHL1  H21C 6087   3.658   6.021   9.470  1.0814  0.3645 -0.6946
   49CHL1   C22 6088   3.772   6.033   9.140  0.0594  0.3800 -0.3145
   49CHL1  H22A 6089   3.840   6.101   9.083  1.9583 -1.2806 -0.0735
   49CHL1  H22B 6090   3.806   5.929   9.121  0.0799  0.3387 -0.0385
   49CHL1   C23 6091   3.633   6.037   9.069 -0.3363 -0.5474  0.4103
   49CHL1  H23A 6092   3.577   5.943   9.093 -1.3891 -0.0757 -0.1381
   49CHL1  H23B 6093   3.594   6.132   9.110  3.4701  0.8044  0.9883
   49CHL1   C24 6094   3.650   6.054   8.924 -0.1978  0.0091  0.2216
   49CHL1  H24A 6095   3.733   6.122   8.895 -1.3831  0.7430 -1.5584
   49CHL1  H24B 6096   3.673   5.955   8.880  0.0148 -0.3098  1.0530
   49CHL1   C25 6097   3.526   6.103   8.845  0.7479 -0.0081  0.2733
   49CHL1   H25 6098   3.520   6.211   8.867 -0.3485 -0.0036 -0.0310
   49CHL1   C26 6099   3.543   6.075   8.698  0.5873  0.3519  0.3099
   49CHL1  H26A 6100   3.596   5.981   8.672 -0.2582 -0.2836  0.8597
   49CHL1  H26B 6101   3.441   6.082   8.654 -0.0898  4.8458  2.3874
   49CHL1  H26C 6102   3.614   6.150   8.655  0.2814 -0.4561 -1.6659
   49CHL1   C27 6103   3.393   6.037   8.884 -0.3271  0.2787  0.1253
   49CHL1  H27A 6104   3.353   6.071   8.981 -0.7735  0.3961 -0.0977
   49CHL1  H27B 6105   3.310   6.069   8.817 -0.5497  1.8129  1.0951
   49CHL1  H27C 6106   3.396   5.926   8.881 -1.5751  0.2393  0.2394
   50CHL1    C3 6107   0.320   1.631  10.052  0.2717 -0.0071  0.2582
   50CHL1    H3 6108   0.425   1.598  10.033 -0.3040 -1.7676  0.0462
   50CHL1    O3 6109   0.319   1.652  10.193  0.2253 -0.6448 -0.0300
   50CHL1   H3' 6110   0.232   1.691  10.203  0.6569 -0.2096  2.5264
   50CHL1    C4 6111   0.286   1.766   9.981 -1.0892 -0.1268  0.3853
   50CHL1   H4A 6112   0.184   1.803  10.007 -0.7514  0.1523  1.3369
   50CHL1   H4B 6113   0.345   1.858  10.000  1.1492 -1.8347  1.8702
   50CHL1    C5 6114   0.304   1.756   9.836 -0.1100 -0.6892  0.4571
   50CHL1    C6 6115   0.389   1.836   9.763  0.2415  0.2909  0.0099
   50CHL1    H6 6116   0.441   1.920   9.811  1.0670  0.1242 -0.5947
   50CHL1    C7 6117   0.395   1.821   9.617  0.6115  0.1729 -0.0159
   50CHL1   H7A 6118   0.404   1.918   9.565 -0.9658  0.7123  0.6686
   50CHL1   H7B 6119   0.485   1.759   9.598 -1.2238 -3.0875  1.4459
   50CHL1    C8 6120   0.278   1.742   9.546  0.4938 -0.6018 -0.3628
   50CHL1    H8 6121   0.187   1.806   9.549  1.3138  0.5930 -0.7562
   50CHL1   C14 6122   0.321   1.711   9.403 -0.5331 -0.3745  0.1949
   50CHL1   H14 6123   0.412   1.649   9.417 -0.1064  1.1418  4.8180
   50CHL1   C15 6124   0.379   1.820   9.310  0.4982 -0.3476  0.5979
   50CHL1  H15A 6125   0.309   1.906   9.314  0.6300 -0.0899 -1.9253
   50CHL1  H15B 6126   0.477   1.861   9.345 -0.0912  3.7101 -2.2073
   50CHL1   C16 6127   0.378   1.756   9.171  0.4316 -0.6157 -0.2665
   50CHL1  H16A 6128   0.299   1.813   9.118  1.2147  0.9189  0.1815
   50CHL1  H16B 6129   0.476   1.753   9.118  1.0968 -2.4769  1.0556
   50CHL1   C17 6130   0.317   1.616   9.190  0.4155 -0.1276  0.6187
   50CHL1   H17 6131   0.404   1.550   9.207  0.1742 -0.4212  0.7165
   50CHL1   C13 6132   0.228   1.617   9.320  0.9018 -0.2910 -0.6080
   50CHL1   C18 6133   0.095   1.692   9.295  0.5004 -0.2834 -0.3600
   50CHL1  H18A 6134   0.052   1.721   9.393 -0.0485 -0.5824 -0.5092
   50CHL1  H18B 6135   0.104   1.784   9.233  3.4200  0.1566  0.6183
   50CHL1  H18C 6136   0.027   1.622   9.242  0.4037  0.5256 -1.3328
   50CHL1   C12 6137   0.208   1.481   9.391 -0.0553 -0.2388 -0.7372
   50CHL1  H12A 6138   0.127   1.421   9.345  0.3616 -0.9343 -0.5758
   50CHL1  H12B 6139   0.303   1.424   9.385 -0.6918 -1.4838  0.7408
   50CHL1   C11 6140   0.172   1.503   9.546  0.1562 -0.2247 -0.3554
   50CHL1  H11A 6141   0.065   1.532   9.544 -0.0765 -1.1075 -1.3497
   50CHL1  H11B 6142   0.167   1.402   9.593  0.4988  0.8875  2.1315
   50CHL1    C9 6143   0.264   1.609   9.620  0.7659 -0.7816  0.4636
   50CHL1    H9 6144   0.360   1.557   9.636  1.6228  0.6840  0.1284
   50CHL1   C10 6145   0.225   1.648   9.763 -0.2643  0.7551  0.1422
   50CHL1   C19 6146   0.070   1.688   9.771 -0.8667 -0.0543  0.6146
   50CHL1  H19A 6147   0.004   1.613   9.723 -0.2118 -0.5759  0.5053
   50CHL1  H19B 6148   0.041   1.706   9.877 -1.3685  0.8175  0.3320
   50CHL1  H19C 6149   0.073   1.782   9.713 -0.4357 -0.1647  0.4544
   50CHL1    C1 6150   0.242   1.519   9.851  0.4990 -0.4666 -0.6764
   50CHL1   H1A 6151   0.177   1.438   9.811  1.3184 -1.9064  0.7930
   50CHL1   H1B 6152   0.347   1.490   9.828  0.7954 -0.9414  1.2188
   50CHL1    C2 6153   0.228   1.522  10.006  0.3574  0.1394 -0.1546
   50CHL1   H2A 6154   0.264   1.431  10.059 -0.1617  0.2364  0.3580
   50CHL1   H2B 6155   0.125   1.533  10.044  0.3240 -0.1924 -0.1434
   50CHL1   C20 6156   0.238   1.559   9.060 -0.0183 -0.2938  0.4169
   50CHL1   H20 6157   0.136   1.601   9.054  0.5856  1.2955  0.9975
   50CHL1   C21 6158   0.222   1.411   9.069  0.1355 -0.4291 -0.3871
   50CHL1  H21A 6159   0.216   1.359   8.970  2.8111  1.8366 -1.7881
   50CHL1  H21B 6160   0.135   1.381   9.132  1.5749 -0.6031  1.5419
   50CHL1  H21C 6161   0.306   1.358   9.118 -0.5265 -1.1848 -0.0406
   50CHL1   C22 6162   0.313   1.591   8.932  0.3171 -0.3557  0.1961
   50CHL1  H22A 6163   0.243   1.563   8.850  1.2626 -1.7942 -0.1455
   50CHL1  H22B 6164   0.321   1.701   8.922  0.0580 -0.5722 -3.1662
   50CHL1   C23 6165   0.448   1.533   8.926  0.4808  0.3088 -0.3413
   50CHL1  H23A 6166   0.513   1.549   9.014  0.7595 -0.9037 -0.3292
   50CHL1  H23B 6167   0.433   1.423   8.924 -0.8215  0.4931 -2.2852
   50CHL1   C24 6168   0.511   1.545   8.788  0.1957  0.2161 -0.4698
   50CHL1  H24A 6169   0.431   1.518   8.715 -0.8861  1.7897  0.0942
   50CHL1  H24B 6170   0.540   1.652   8.779 -1.0641  0.5421 -0.8384
   50CHL1   C25 6171   0.627   1.446   8.771 -0.2265  0.2408  0.1014
   50CHL1   H25 6172   0.592   1.343   8.793 -0.9611  0.8766  1.9711
   50CHL1   C26 6173   0.679   1.458   8.625  0.3920  0.2007  0.1186
   50CHL1  H26A 6174   0.766   1.391   8.607  0.4949  0.6581 -1.1236
   50CHL1  H26B 6175   0.597   1.441   8.552 -0.1415 -0.3784  0.8487
   50CHL1  H26C 6176   0.712   1.561   8.599  3.2123 -0.8776 -0.6919
   50CHL1   C27 6177   0.742   1.469   8.867 -0.4662 -0.3597 -0.4291
   50CHL1  H27A 6178   0.816   1.387   8.856 -0.1061  0.0990 -1.5023
   50CHL1  H27B 6179   0.781   1.573   8.858 -1.0528 -0.2765 -2.2291
   50CHL1  H27C 6180   0.705   1.476   8.971 -1.2269 -1.1003 -0.6516
   51CHL1    C3 6181   1.910   4.046  10.321 -0.4045  0.2406 -1.1809
   51CHL1    H3 6182   2.012   4.077  10.287 -0.7202  1.6181 -0.8775
   51CHL1    O3 6183   1.874   4.092  10.455 -0.5186 -0.6095  0.6907
   51CHL1   H3' 6184   1.835   4.179  10.462 -0.5630 -0.7854  3.0951
   51CHL1    C4 6185   1.810   4.092  10.220 -0.0891 -0.1544  0.4904
   51CHL1   H4A 6186   1.710   4.072  10.264 -0.6998  0.8502 -0.3841
   51CHL1   H4B 6187   1.812   4.203  10.205  0.2706 -0.3186 -0.7082
   51CHL1    C5 6188   1.821   4.031  10.080 -0.4858 -0.1731 -0.5622
   51CHL1    C6 6189   1.835   4.108   9.968  0.0092  0.4622 -0.6470
   51CHL1    H6 6190   1.812   4.215   9.979 -1.0054  0.2736 -0.8802
   51CHL1    C7 6191   1.848   4.054   9.828  0.3166 -0.6917  0.5999
   51CHL1   H7A 6192   1.786   4.107   9.753  2.4828  0.2297 -0.5917
   51CHL1   H7B 6193   1.955   4.065   9.801  0.2403  2.8625  1.4682
   51CHL1    C8 6194   1.813   3.902   9.818  0.0452 -0.4353 -0.3455
   51CHL1    H8 6195   1.703   3.892   9.824 -0.1497 -1.4269 -4.4868
   51CHL1   C14 6196   1.853   3.842   9.675 -0.7343 -0.6039 -0.1251
   51CHL1   H14 6197   1.964   3.849   9.666 -0.7245 -1.6429 -0.8816
   51CHL1   C15 6198   1.809   3.914   9.548  0.0046 -0.8582 -0.0487
   51CHL1  H15A 6199   1.704   3.949   9.558 -0.0603  0.5952 -4.6332
   51CHL1  H15B 6200   1.877   3.999   9.526 -0.8574  0.0462  0.7356
   51CHL1   C16 6201   1.802   3.808   9.441 -0.2994  0.4494 -0.6866
   51CHL1  H16A 6202   1.698   3.793   9.406 -0.3241 -0.4821 -0.2282
   51CHL1  H16B 6203   1.879   3.832   9.363  1.3152  0.8248  0.9904
   51CHL1   C17 6204   1.845   3.673   9.505 -0.4843  0.4298  0.2724
   51CHL1   H17 6205   1.956   3.672   9.498 -0.4230 -0.6077  1.1902
   51CHL1   C13 6206   1.809   3.698   9.659  0.1799  0.1625 -0.2923
   51CHL1   C18 6207   1.655   3.673   9.671 -0.2300 -0.4454 -0.0452
   51CHL1  H18A 6208   1.618   3.709   9.770 -2.7854  3.0229 -2.1391
   51CHL1  H18B 6209   1.585   3.719   9.598  0.2877 -1.1515 -0.9844
   51CHL1  H18C 6210   1.637   3.566   9.648  0.0289 -0.6239  0.5742
   51CHL1   C12 6211   1.881   3.615   9.769  0.2061  0.8301  0.1389
   51CHL1  H12A 6212   1.847   3.510   9.773 -1.4619  1.4082  2.0119
   51CHL1  H12B 6213   1.987   3.632   9.741  0.4110 -0.9995 -0.2580
   51CHL1   C11 6214   1.846   3.675   9.908 -0.2832  0.3372  0.6134
   51CHL1  H11A 6215   1.737   3.659   9.926 -0.4510 -0.0457 -0.7595
   51CHL1  H11B 6216   1.902   3.610   9.979 -0.1436  1.0388  1.1500
   51CHL1    C9 6217   1.873   3.824   9.933  0.7425 -0.1031 -0.0446
   51CHL1    H9 6218   1.983   3.832   9.925  0.7681 -0.9633 -0.5764
   51CHL1   C10 6219   1.840   3.875  10.078  0.1980  0.0597  0.0781
   51CHL1   C19 6220   1.699   3.814  10.108  0.9533 -0.5690  0.5563
   51CHL1  H19A 6221   1.664   3.864  10.201  1.2258  2.2721 -0.7988
   51CHL1  H19B 6222   1.627   3.836  10.026  0.0088 -0.3917  1.4299
   51CHL1  H19C 6223   1.704   3.705  10.126  1.5049 -0.6763 -0.2099
   51CHL1    C1 6224   1.951   3.828  10.190 -0.1785  0.4309  0.8208
   51CHL1   H1A 6225   1.953   3.717  10.181 -0.5911  0.4300  0.6859
   51CHL1   H1B 6226   2.051   3.870  10.169  0.5517 -0.0066  3.2825
   51CHL1    C2 6227   1.912   3.893  10.323  0.4299 -0.1344  0.8925
   51CHL1   H2A 6228   1.986   3.854  10.395  1.4225 -1.7487 -0.9447
   51CHL1   H2B 6229   1.818   3.856  10.369  1.1999 -0.0278  2.5957
   51CHL1   C20 6230   1.796   3.548   9.433  0.2628  0.0539  0.1659
   51CHL1   H20 6231   1.685   3.546   9.441  0.0275  1.6133 -2.1211
   51CHL1   C21 6232   1.850   3.415   9.492 -0.4695  0.3738 -0.3046
   51CHL1  H21A 6233   1.797   3.393   9.586 -1.3882  1.3423 -0.5867
   51CHL1  H21B 6234   1.960   3.412   9.508 -0.5186 -0.4439 -0.1101
   51CHL1  H21C 6235   1.842   3.333   9.418  2.8663 -0.3147  0.0003
   51CHL1   C22 6236   1.823   3.562   9.282  0.3307  0.1582  0.3363
   51CHL1  H22A 6237   1.768   3.477   9.236  0.6206  0.6628 -0.9751
   51CHL1  H22B 6238   1.767   3.653   9.254 -0.6755 -0.7299 -0.6153
   51CHL1   C23 6239   1.963   3.578   9.235  0.6133 -0.3941  0.6307
   51CHL1  H23A 6240   2.008   3.658   9.296 -1.8425  1.6492 -0.1507
   51CHL1  H23B 6241   2.019   3.486   9.262 -1.4395 -1.7481  0.4267
   51CHL1   C24 6242   1.980   3.612   9.089 -0.5684  0.6092  0.5494
   51CHL1  H24A 6243   1.937   3.710   9.060 -0.8204  0.6089  0.9124
   51CHL1  H24B 6244   2.088   3.627   9.068 -0.6135  1.0730  0.6444
   51CHL1   C25 6245   1.914   3.502   9.000 -0.9908 -0.8031  0.1448
   51CHL1   H25 6246   1.807   3.488   9.026 -1.2172 -2.4968 -1.5374
   51CHL1   C26 6247   1.919   3.551   8.854 -0.2282 -0.1332 -0.2653
   51CHL1  H26A 6248   1.864   3.644   8.830  2.0256  1.0801 -0.9735
   51CHL1  H26B 6249   2.025   3.566   8.821 -0.2842  1.2146  0.1502
   51CHL1  H26C 6250   1.876   3.474   8.786 -1.1952 -0.7488  1.0343
   51CHL1   C27 6251   1.972   3.360   9.004  0.1084  0.2752 -0.8953
   51CHL1  H27A 6252   1.946   3.298   9.093  1.4169  0.3667 -0.4439
   51CHL1  H27B 6253   1.938   3.298   8.918  1.5849 -0.2589 -1.1083
   51CHL1  H27C 6254   2.080   3.353   8.980  0.8246  1.7141  1.6563
   52CHL1    C3 6255   5.490   2.991  10.043 -0.2775 -0.0095  1.4979
   52CHL1    H3 6256   5.384   2.960  10.055 -0.0873 -1.0622  0.5867
   52CHL1    O3 6257   5.551   2.993  10.169  0.2399  0.6182  0.4750
   52CHL1   H3' 6258   5.636   3.035  10.153 -1.2438  3.6692  0.2417
   52CHL1    C4 6259   5.554   2.885   9.958  0.9001  0.3059  0.1992
   52CHL1   H4A 6260   5.665   2.888   9.951  0.7845  0.2128 -1.9659
   52CHL1   H4B 6261   5.540   2.790  10.013  0.2000  0.4849  0.3412
   52CHL1    C5 6262   5.493   2.892   9.820  0.6538 -0.6154  0.1208
   52CHL1    C6 6263   5.428   2.785   9.771  0.3598 -0.6088 -0.3526
   52CHL1    H6 6264   5.430   2.687   9.821 -0.9024 -1.0317 -1.0810
   52CHL1    C7 6265   5.373   2.776   9.631 -0.0324 -0.2912 -0.4741
   52CHL1   H7A 6266   5.386   2.677   9.584 -3.2100 -0.2200 -1.5728
   52CHL1   H7B 6267   5.263   2.791   9.635  0.2000  1.1407  1.7002
   52CHL1    C8 6268   5.436   2.883   9.537 -0.1375  0.5351 -0.0383
   52CHL1    H8 6269   5.542   2.855   9.519 -0.4872 -2.0317  1.6032
   52CHL1   C14 6270   5.355   2.901   9.408 -0.4177 -0.6800  0.2174
   52CHL1   H14 6271   5.252   2.919   9.445  0.0688 -0.0808  1.2811
   52CHL1   C15 6272   5.342   2.781   9.317  0.2265  0.7264  0.3854
   52CHL1  H15A 6273   5.435   2.720   9.314  0.1212  0.6175 -1.6646
   52CHL1  H15B 6274   5.256   2.720   9.352 -1.6718  1.8430 -2.1619
   52CHL1   C16 6275   5.326   2.833   9.173  0.3271 -0.8241 -0.0114
   52CHL1  H16A 6276   5.409   2.805   9.104  1.5667  1.0534  0.6850
   52CHL1  H16B 6277   5.224   2.811   9.133  0.1048 -0.2353  0.2305
   52CHL1   C17 6278   5.333   2.987   9.185  0.5286  0.2505 -0.2116
   52CHL1   H17 6279   5.233   3.033   9.201  0.4583 -0.3125  1.0182
   52CHL1   C13 6280   5.413   3.008   9.316  0.3077  0.1259 -0.2575
   52CHL1   C18 6281   5.562   2.971   9.294  0.2328  0.1884  0.1920
   52CHL1  H18A 6282   5.635   2.978   9.378 -0.6776  1.2015  0.9240
   52CHL1  H18B 6283   5.575   2.867   9.258  0.5517 -0.1637  1.2800
   52CHL1  H18C 6284   5.601   3.046   9.223 -1.2233 -0.4243 -1.2800
   52CHL1   C12 6285   5.403   3.145   9.387 -0.6389 -0.0013  0.0759
   52CHL1  H12A 6286   5.439   3.224   9.317  2.7369 -0.5337  1.1359
   52CHL1  H12B 6287   5.296   3.163   9.409 -0.1423 -0.0530  2.6179
   52CHL1   C11 6288   5.471   3.155   9.519  0.1774  0.0800  0.2743
   52CHL1  H11A 6289   5.581   3.162   9.507  0.1093  1.3373  0.2664
   52CHL1  H11B 6290   5.434   3.246   9.572  0.4488  0.3774 -0.0442
   52CHL1    C9 6291   5.435   3.023   9.609 -0.6333 -0.1630 -0.0285
   52CHL1    H9 6292   5.327   3.045   9.622 -0.6672  1.5933 -2.8566
   52CHL1   C10 6293   5.514   3.023   9.743  0.0749 -0.5988  0.0414
   52CHL1   C19 6294   5.667   3.048   9.721  1.0423  0.1979  0.3911
   52CHL1  H19A 6295   5.730   3.032   9.812 -0.4837  1.0175  1.6189
   52CHL1  H19B 6296   5.693   2.972   9.644 -0.3569 -1.3098  1.3607
   52CHL1  H19C 6297   5.686   3.153   9.693 -0.6924  0.1301 -1.1327
   52CHL1    C1 6298   5.457   3.138   9.837 -0.2936  0.3002 -0.1185
   52CHL1   H1A 6299   5.488   3.235   9.792  3.6193  0.0326  1.7551
   52CHL1   H1B 6300   5.346   3.140   9.839 -0.2963 -0.0168  0.2294
   52CHL1    C2 6301   5.510   3.129   9.979  0.3646  0.0516  1.0308
   52CHL1   H2A 6302   5.461   3.201  10.048 -0.6522 -0.0715  0.4502
   52CHL1   H2B 6303   5.620   3.138   9.973  0.1147  1.5294 -2.5191
   52CHL1   C20 6304   5.399   3.042   9.056  0.1981 -0.2431  0.1451
   52CHL1   H20 6305   5.499   2.994   9.054 -0.5400 -1.8531  0.8821
   52CHL1   C21 6306   5.412   3.193   9.052 -1.0917 -0.5977 -0.0686
   52CHL1  H21A 6307   5.505   3.213   9.110 -2.6563  0.1819  2.2329
   52CHL1  H21B 6308   5.328   3.237   9.109 -0.7985 -1.4458  1.0468
   52CHL1  H21C 6309   5.433   3.224   8.947  0.2654 -1.7341 -0.1563
   52CHL1   C22 6310   5.312   3.000   8.930 -0.0953  0.4677  0.0831
   52CHL1  H22A 6311   5.342   3.051   8.836  0.0385  1.2239  0.5311
   52CHL1  H22B 6312   5.326   2.892   8.910 -0.2076  0.6266 -0.8459
   52CHL1   C23 6313   5.158   3.033   8.943 -0.3545  0.4738  0.5087
   52CHL1  H23A 6314   5.100   2.983   9.024 -0.1674 -2.4337 -1.0941
   52CHL1  H23B 6315   5.166   3.138   8.980  0.7256  0.9337 -0.9578
   52CHL1   C24 6316   5.093   3.017   8.801 -0.6533  0.3475 -0.6914
   52CHL1  H24A 6317   5.131   3.099   8.737 -1.3029  1.5451  0.4345
   52CHL1  H24B 6318   5.126   2.915   8.770  1.0261  0.2874  1.2025
   52CHL1   C25 6319   4.934   3.012   8.795 -0.0557 -0.0580 -0.6194
   52CHL1   H25 6320   4.904   2.929   8.863 -0.7748 -0.7832 -1.7952
   52CHL1   C26 6321   4.863   3.139   8.838 -0.8388  0.0238  0.7118
   52CHL1  H26A 6322   4.890   3.186   8.935  1.6400  2.4080 -1.0310
   52CHL1  H26B 6323   4.882   3.221   8.766 -0.0612 -1.5095 -0.8656
   52CHL1  H26C 6324   4.754   3.124   8.828 -0.6666 -0.7893  0.0143
   52CHL1   C27 6325   4.905   2.987   8.649  0.6601 -0.8748  0.0586
   52CHL1  H27A 6326   4.934   3.071   8.582 -0.2708  0.1750  0.9584
   52CHL1  H27B 6327   4.946   2.891   8.610  0.9324 -0.7178 -0.0392
   52CHL1  H27C 6328   4.794   2.991   8.643  0.6777  1.1378  0.7430
   53CHL1    C3 6329   6.401   2.733  10.140  0.1916 -0.7079 -0.3212
   53CHL1    H3 6330   6.295   2.765  10.147  1.0024  1.9371  0.3610
   53CHL1    O3 6331   6.465   2.747  10.269  0.3555  0.5757  0.0106
   53CHL1   H3' 6332   6.527   2.819  10.256  1.4686 -0.6017 -1.3375
   53CHL1    C4 6333   6.416   2.580  10.103 -0.2303 -0.3241 -0.3366
   53CHL1   H4A 6334   6.517   2.546  10.135 -0.3729 -1.1101 -0.7153
   53CHL1   H4B 6335   6.354   2.526  10.177 -0.4213  1.8500  1.1618
   53CHL1    C5 6336   6.375   2.556   9.964 -0.4396  0.1999 -0.5445
   53CHL1    C6 6337   6.274   2.467   9.929  0.3913 -0.1891  0.2819
   53CHL1    H6 6338   6.229   2.405  10.008  1.8293 -0.3897  0.9646
   53CHL1    C7 6339   6.220   2.456   9.784  0.7015  0.3410  0.5472
   53CHL1   H7A 6340   6.179   2.357   9.756  1.6029 -0.0149  0.4802
   53CHL1   H7B 6341   6.136   2.529   9.777  2.5788  2.5110  0.0862
   53CHL1    C8 6342   6.321   2.505   9.676 -1.2810 -0.1451 -0.7635
   53CHL1    H8 6343   6.403   2.430   9.681 -2.4406 -1.3111  2.1941
   53CHL1   C14 6344   6.260   2.510   9.543  0.2998  0.3682 -0.4699
   53CHL1   H14 6345   6.187   2.594   9.549  0.7722  0.7863 -0.5470
   53CHL1   C15 6346   6.174   2.394   9.491 -0.2380 -0.0565 -0.6134
   53CHL1  H15A 6347   6.232   2.302   9.514  1.9167  1.3216 -0.4554
   53CHL1  H15B 6348   6.073   2.392   9.538 -0.9777 -0.4681 -2.1695
   53CHL1   C16 6349   6.178   2.418   9.336  0.2631  0.3600 -0.9626
   53CHL1  H16A 6350   6.205   2.320   9.291 -2.8002 -0.8048 -0.3909
   53CHL1  H16B 6351   6.070   2.429   9.312 -0.0489 -0.1954  0.1477
   53CHL1   C17 6352   6.255   2.539   9.308  0.8215  0.1779  0.3089
   53CHL1   H17 6353   6.187   2.626   9.324  1.8051  0.9856  0.1540
   53CHL1   C13 6354   6.347   2.548   9.418  0.5502 -0.2438 -0.3325
   53CHL1   C18 6355   6.457   2.434   9.399  0.4182 -0.1757  0.5530
   53CHL1  H18A 6356   6.413   2.337   9.367  2.3170 -2.0661  3.3175
   53CHL1  H18B 6357   6.534   2.466   9.325  0.5273  0.0994  0.7861
   53CHL1  H18C 6358   6.515   2.409   9.491  0.2512  1.6505  1.1645
   53CHL1   C12 6359   6.401   2.691   9.447  0.3464 -0.0225  0.0140
   53CHL1  H12A 6360   6.470   2.726   9.367  0.8496 -2.1787 -0.5375
   53CHL1  H12B 6361   6.311   2.754   9.462  0.5057  0.4035 -0.8124
   53CHL1   C11 6362   6.470   2.695   9.587 -0.7746 -0.4317  0.1155
   53CHL1  H11A 6363   6.563   2.636   9.576  0.9810  2.3616 -0.7029
   53CHL1  H11B 6364   6.515   2.794   9.609 -0.3127 -0.9964  1.7404
   53CHL1    C9 6365   6.379   2.641   9.704  0.2707 -0.0939 -0.4011
   53CHL1    H9 6366   6.298   2.716   9.701  0.8272  0.4854 -1.4490
   53CHL1   C10 6367   6.436   2.650   9.847 -0.3082 -0.0118 -0.2436
   53CHL1   C19 6368   6.579   2.588   9.835 -0.1298 -0.4739 -0.3865
   53CHL1  H19A 6369   6.612   2.553   9.935 -1.5146 -1.9556 -0.4302
   53CHL1  H19B 6370   6.591   2.498   9.771  2.0935  0.5939 -1.5210
   53CHL1  H19C 6371   6.643   2.665   9.787 -0.1460  0.3105  0.8290
   53CHL1    C1 6372   6.443   2.795   9.899 -0.3760  0.6523  0.0363
   53CHL1   H1A 6373   6.510   2.859   9.837 -3.4240  2.9802 -0.9534
   53CHL1   H1B 6374   6.338   2.829   9.901 -0.2854  0.9199  0.4539
   53CHL1    C2 6375   6.493   2.818  10.046  0.4968  0.6813  0.6587
   53CHL1   H2A 6376   6.481   2.924  10.078 -1.0742  0.1242  2.0063
   53CHL1   H2B 6377   6.601   2.795  10.046  0.2662 -0.5153 -1.6569
   53CHL1   C20 6378   6.318   2.545   9.172  0.4376  0.9339  0.3678
   53CHL1   H20 6379   6.417   2.594   9.183  1.1219 -0.5494  1.0025
   53CHL1   C21 6380   6.237   2.654   9.087 -0.3339 -0.3957  0.9128
   53CHL1  H21A 6381   6.210   2.746   9.142  0.5591 -0.2656  1.1323
   53CHL1  H21B 6382   6.143   2.610   9.047 -0.9637  1.5005  0.2577
   53CHL1  H21C 6383   6.301   2.685   9.002  0.0069 -0.4214  1.1586
   53CHL1   C22 6384   6.328   2.414   9.087  0.0718  0.3812 -0.2513
   53CHL1  H22A 6385   6.362   2.328   9.148 -1.6785  0.5180  0.9482
   53CHL1  H22B 6386   6.230   2.382   9.046  0.9983 -0.5974 -1.7205
   53CHL1   C23 6387   6.424   2.431   8.970 -0.3599  0.3935 -0.2564
   53CHL1  H23A 6388   6.407   2.511   8.895  0.2821  0.7286 -0.0518
   53CHL1  H23B 6389   6.522   2.458   9.015 -0.8126  2.1483 -0.3123
   53CHL1   C24 6390   6.432   2.299   8.894 -0.0479 -0.9047  0.2734
   53CHL1  H24A 6391   6.483   2.233   8.968  1.0264  0.1456  0.4749
   53CHL1  H24B 6392   6.328   2.263   8.876 -0.7705  1.7872 -1.2419
   53CHL1   C25 6393   6.516   2.310   8.769 -0.1746  0.3717 -0.5272
   53CHL1   H25 6394   6.520   2.209   8.723  0.6927  0.7904 -1.3778
   53CHL1   C26 6395   6.459   2.399   8.658  0.3764  0.3815  0.2547
   53CHL1  H26A 6396   6.444   2.503   8.696  1.8943 -0.1401  2.3698
   53CHL1  H26B 6397   6.535   2.411   8.578  0.8633 -1.9215  0.3609
   53CHL1  H26C 6398   6.358   2.366   8.626  0.3250  0.5681  0.2251
   53CHL1   C27 6399   6.663   2.350   8.794 -0.2579  1.1092 -0.5192
   53CHL1  H27A 6400   6.718   2.284   8.864 -0.9237  0.6917 -0.3885
   53CHL1  H27B 6401   6.726   2.361   8.703 -1.1805  0.0835 -1.2835
   53CHL1  H27C 6402   6.662   2.452   8.838  1.4648  1.1731 -0.5881
   54CHL1    C3 6403   6.208   3.937  10.098  0.2531 -0.1695 -0.2528
   54CHL1    H3 6404   6.098   3.937  10.083  0.4260  0.4428 -1.5207
   54CHL1    O3 6405   6.226   3.959  10.236 -0.6049 -0.2614  0.0283
   54CHL1   H3' 6406   6.319   3.961  10.261 -0.7787 -0.5906  0.7076
   54CHL1    C4 6407   6.258   3.798  10.064  0.6327 -0.2112 -0.1230
   54CHL1   H4A 6408   6.362   3.790  10.105 -0.6551  0.6140  3.5397
   54CHL1   H4B 6409   6.201   3.722  10.121 -0.3289  0.6006  0.0152
   54CHL1    C5 6410   6.254   3.763   9.915 -0.7896 -0.5746 -0.0861
   54CHL1    C6 6411   6.189   3.661   9.858  0.0090  0.2022 -0.2710
   54CHL1    H6 6412   6.138   3.595   9.930  2.6508 -0.8698  0.6760
   54CHL1    C7 6413   6.193   3.629   9.712  1.0823 -0.1613 -0.3854
   54CHL1   H7A 6414   6.200   3.518   9.712 -0.2654 -0.2701 -1.9573
   54CHL1   H7B 6415   6.092   3.650   9.670  1.0072  1.0007  0.3519
   54CHL1    C8 6416   6.308   3.697   9.635  0.4680  0.3267  0.2696
   54CHL1    H8 6417   6.408   3.657   9.664  0.8319  0.9337 -0.1397
   54CHL1   C14 6418   6.287   3.670   9.478  0.4479 -0.6097 -0.7752
   54CHL1   H14 6419   6.181   3.700   9.464  0.3613 -0.7558 -0.4285
   54CHL1   C15 6420   6.303   3.532   9.423  0.2655 -0.0503  0.3872
   54CHL1  H15A 6421   6.402   3.496   9.457 -0.3667 -0.4119  1.8500
   54CHL1  H15B 6422   6.228   3.457   9.453 -1.4608  1.5997  0.2790
   54CHL1   C16 6423   6.302   3.559   9.271 -0.0337  0.5612 -0.1261
   54CHL1  H16A 6424   6.389   3.499   9.236 -1.1701 -0.4818 -1.2051
   54CHL1  H16B 6425   6.208   3.517   9.230  0.3185  1.3503 -1.7986
   54CHL1   C17 6426   6.322   3.708   9.255  0.2605 -0.4468 -0.4139
   54CHL1   H17 6427   6.221   3.750   9.236  0.1048 -0.6955 -0.1220
   54CHL1   C13 6428   6.367   3.762   9.387  0.3802  0.4157  0.8099
   54CHL1   C18 6429   6.523   3.738   9.410 -0.3776 -0.2061  0.4583
   54CHL1  H18A 6430   6.549   3.734   9.518  1.4798 -0.1208  0.0344
   54CHL1  H18B 6431   6.558   3.651   9.351 -0.7723  0.2991 -0.5338
   54CHL1  H18C 6432   6.568   3.832   9.372 -0.1915 -0.1183  0.8939
   54CHL1   C12 6433   6.325   3.910   9.419  0.9227  0.1199 -0.0550
   54CHL1  H12A 6434   6.350   3.997   9.355 -0.3415 -0.6967 -1.6943
   54CHL1  H12B 6435   6.214   3.915   9.415  0.8229 -2.3067 -1.0131
   54CHL1   C11 6436   6.367   3.945   9.567  0.1056 -0.2423  0.5897
   54CHL1  H11A 6437   6.478   3.953   9.573  0.1084  0.3173 -0.0696
   54CHL1  H11B 6438   6.317   4.041   9.590  1.0359  0.6833 -1.1442
   54CHL1    C9 6439   6.302   3.845   9.672  0.0133 -0.4498  0.2244
   54CHL1    H9 6440   6.195   3.871   9.665 -0.6331 -3.3632 -1.2531
   54CHL1   C10 6441   6.329   3.866   9.826  0.8460 -0.4751  0.1427
   54CHL1   C19 6442   6.480   3.853   9.843 -0.6354  0.2341  0.8661
   54CHL1  H19A 6443   6.511   3.842   9.949 -1.7180 -0.5939  1.1028
   54CHL1  H19B 6444   6.511   3.774   9.772  0.2768 -1.2966  2.9351
   54CHL1  H19C 6445   6.528   3.947   9.808  1.0631 -0.0095  2.4672
   54CHL1    C1 6446   6.275   4.013   9.860  0.1706  0.0582 -0.1881
   54CHL1   H1A 6447   6.333   4.087   9.801 -1.3208  1.1500 -0.3238
   54CHL1   H1B 6448   6.172   4.043   9.832  0.4186 -1.7345 -3.2879
   54CHL1    C2 6449   6.283   4.045  10.009 -0.0019  0.1003  0.2018
   54CHL1   H2A 6450   6.243   4.148  10.020  1.1760  0.7799 -1.7277
   54CHL1   H2B 6451   6.388   4.049  10.046 -0.7225  0.5694  2.2683
   54CHL1   C20 6452   6.404   3.743   9.124  0.0494 -0.3710 -0.3468
   54CHL1   H20 6453   6.511   3.731   9.149 -0.6496 -0.2841  2.9095
   54CHL1   C21 6454   6.402   3.895   9.099 -0.4020 -0.2573  0.1497
   54CHL1  H21A 6455   6.465   3.940   9.178  0.0230 -1.1777  0.3290
   54CHL1  H21B 6456   6.303   3.942   9.076  0.8506  1.2921 -2.3438
   54CHL1  H21C 6457   6.461   3.909   9.006  0.2566 -0.4020  0.5471
   54CHL1   C22 6458   6.353   3.658   8.998 -0.7821  0.6362  0.6886
   54CHL1  H22A 6459   6.409   3.702   8.912 -0.2909 -0.6406  0.3422
   54CHL1  H22B 6460   6.394   3.556   9.014 -0.5521  0.7144  0.6090
   54CHL1   C23 6461   6.207   3.664   8.964 -0.1634  0.2706  0.8369
   54CHL1  H23A 6462   6.155   3.637   9.059 -2.7048 -2.3728 -1.2233
   54CHL1  H23B 6463   6.178   3.772   8.965  1.9024  0.9117 -2.6882
   54CHL1   C24 6464   6.153   3.585   8.848  0.8144 -0.1443  0.2948
   54CHL1  H24A 6465   6.178   3.480   8.872  1.1002 -0.5941 -1.9229
   54CHL1  H24B 6466   6.042   3.577   8.838  1.0447 -1.3676 -1.3759
   54CHL1   C25 6467   6.216   3.615   8.711  0.0507  0.7591 -0.4946
   54CHL1   H25 6468   6.325   3.635   8.724  0.2048 -0.8158  0.7837
   54CHL1   C26 6469   6.190   3.492   8.625 -0.2598 -0.0009  0.0628
   54CHL1  H26A 6470   6.222   3.399   8.675 -0.1787  0.6863  1.3134
   54CHL1  H26B 6471   6.080   3.484   8.607 -0.5921  1.9821  1.0226
   54CHL1  H26C 6472   6.250   3.512   8.534  3.1859 -0.6352  2.1300
   54CHL1   C27 6473   6.151   3.742   8.643 -0.6455  0.6800 -0.3405
   54CHL1  H27A 6474   6.181   3.758   8.537  2.6514 -0.2625  0.4195
   54CHL1  H27B 6475   6.041   3.724   8.643 -0.4791 -0.4993  2.2186
   54CHL1  H27C 6476   6.189   3.830   8.700 -1.8096  1.2771 -0.4660
   55CHL1    C3 6477   0.046   0.930  10.231 -0.0377  0.1282 -0.0188
   55CHL1    H3 6478  -0.031   0.855  10.202  0.0303 -0.6260  1.7150
   55CHL1    O3 6479   0.049   0.956  10.374 -0.1413  0.0997  0.0989
   55CHL1   H3' 6480  -0.022   1.016  10.396  1.2275  2.6106 -1.9743
   55CHL1    C4 6481   0.177   0.894  10.158  0.3433 -0.5239  0.2954
   55CHL1   H4A 6482   0.242   0.983  10.171  2.2196 -2.0808  1.7331
   55CHL1   H4B 6483   0.225   0.809  10.210  0.5177  1.1798  2.9997
   55CHL1    C5 6484   0.160   0.872  10.009  0.5318  0.6253  0.4480
   55CHL1    C6 6485   0.175   0.758   9.942  0.2370  0.9348  0.1937
   55CHL1    H6 6486   0.206   0.670  10.000 -0.1229  0.7907  0.1690
   55CHL1    C7 6487   0.176   0.742   9.791  0.0389 -0.3718 -0.0441
   55CHL1   H7A 6488   0.262   0.684   9.751  0.2393 -1.2250  1.5782
   55CHL1   H7B 6489   0.088   0.684   9.757  0.4848 -0.7757 -0.5240
   55CHL1    C8 6490   0.179   0.883   9.722  0.1807  0.4841  0.1680
   55CHL1    H8 6491   0.280   0.929   9.733  1.0460 -1.2240 -0.3032
   55CHL1   C14 6492   0.145   0.875   9.577  0.1510 -0.2249  0.0401
   55CHL1   H14 6493   0.047   0.823   9.577  0.7449 -1.3672  0.4178
   55CHL1   C15 6494   0.233   0.781   9.489 -0.7228 -0.3576 -0.0574
   55CHL1  H15A 6495   0.336   0.776   9.529 -0.6513  0.7571 -0.0913
   55CHL1  H15B 6496   0.200   0.675   9.496  1.6411 -1.1680 -0.6762
   55CHL1   C16 6497   0.234   0.839   9.341 -0.0794 -0.0194  0.6537
   55CHL1  H16A 6498   0.336   0.870   9.309 -0.2443  1.8841  1.9065
   55CHL1  H16B 6499   0.198   0.759   9.274 -3.2086 -2.0330  4.4779
   55CHL1   C17 6500   0.134   0.955   9.350 -0.1059 -0.6853  0.1031
   55CHL1   H17 6501   0.035   0.904   9.351 -1.2755  1.4483 -0.6213
   55CHL1   C13 6502   0.138   1.008   9.500 -0.0348  0.3196  0.0198
   55CHL1   C18 6503   0.269   1.096   9.514  0.8247 -0.1848  0.6980
   55CHL1  H18A 6504   0.359   1.033   9.494  0.5054 -0.9803  1.7274
   55CHL1  H18B 6505   0.255   1.185   9.449  1.5245  0.0333  0.8339
   55CHL1  H18C 6506   0.283   1.137   9.617  2.7383 -1.2369  0.8944
   55CHL1   C12 6507   0.020   1.082   9.552 -0.1919  0.1900 -0.0968
   55CHL1  H12A 6508   0.001   1.177   9.497  0.5023 -0.1672 -0.9733
   55CHL1  H12B 6509  -0.066   1.014   9.542 -1.5784  1.6571  1.5305
   55CHL1   C11 6510   0.036   1.108   9.697 -0.5848 -0.5660 -0.2186
   55CHL1  H11A 6511   0.105   1.194   9.709 -0.7899 -0.5615  1.0433
   55CHL1  H11B 6512  -0.058   1.146   9.741  0.1344 -0.0816  0.9475
   55CHL1    C9 6513   0.080   0.977   9.785  0.3139 -0.7470  0.2146
   55CHL1    H9 6514  -0.014   0.918   9.786  0.1381 -0.5161 -1.2373
   55CHL1   C10 6515   0.109   1.004   9.935  0.3935  0.2169  0.3889
   55CHL1   C19 6516   0.218   1.108   9.938 -0.2257  1.1692 -0.0546
   55CHL1  H19A 6517   0.297   1.070   9.869 -0.5581 -1.0670  0.7407
   55CHL1  H19B 6518   0.181   1.207   9.906  1.9322  0.9324 -3.5453
   55CHL1  H19C 6519   0.269   1.125  10.036  0.2689 -1.0311  0.0976
   55CHL1    C1 6520  -0.017   1.053  10.016  0.6069 -0.2044  0.6574
   55CHL1   H1A 6521  -0.051   1.153   9.980 -0.0057 -1.3890 -2.1720
   55CHL1   H1B 6522  -0.098   0.982   9.994  1.3469 -0.5917 -0.8516
   55CHL1    C2 6523   0.001   1.066  10.169  0.3424 -0.8369 -0.2372
   55CHL1   H2A 6524  -0.099   1.087  10.213 -0.4224 -2.5817 -1.0646
   55CHL1   H2B 6525   0.068   1.149  10.200  0.8766 -0.7927 -1.4779
   55CHL1   C20 6526   0.131   1.048   9.225  0.2047  1.0971  0.4805
   55CHL1   H20 6527   0.222   1.111   9.233  1.3231 -0.1825 -1.8681
   55CHL1   C21 6528   0.005   1.135   9.225  0.2346 -0.0900 -0.1625
   55CHL1  H21A 6529  -0.084   1.069   9.236  1.6423 -1.9817  0.2676
   55CHL1  H21B 6530   0.002   1.187   9.127 -1.9820 -1.2077 -0.7220
   55CHL1  H21C 6531   0.006   1.206   9.310 -2.8734  0.6753 -0.7018
   55CHL1   C22 6532   0.162   0.961   9.095 -0.3615  0.6048 -0.3012
   55CHL1  H22A 6533   0.250   0.895   9.108 -1.7694 -1.3982 -0.7131
   55CHL1  H22B 6534   0.081   0.886   9.081  1.6125 -1.5010 -0.6984
   55CHL1   C23 6535   0.181   1.048   8.972 -0.2141 -0.4211 -0.3474
   55CHL1  H23A 6536   0.088   1.108   8.959  1.2034  1.5405 -1.8150
   55CHL1  H23B 6537   0.260   1.125   8.985 -0.8993 -0.1204  2.1782
   55CHL1   C24 6538   0.212   0.964   8.851  0.8732  0.0377  0.7542
   55CHL1  H24A 6539   0.301   0.902   8.873  0.6513 -0.3431  0.5768
   55CHL1  H24B 6540   0.136   0.889   8.821  1.4663 -0.2423 -0.0494
   55CHL1   C25 6541   0.256   1.048   8.727 -0.4051  0.8049 -0.3992
   55CHL1   H25 6542   0.335   1.119   8.761  2.4144 -1.2121 -2.5429
   55CHL1   C26 6543   0.328   0.953   8.625  0.5113  0.3004  0.0918
   55CHL1  H26A 6544   0.414   0.906   8.677 -0.0838  1.6149  2.3848
   55CHL1  H26B 6545   0.251   0.879   8.596  0.7966  0.6515 -1.5782
   55CHL1  H26C 6546   0.353   1.009   8.533  0.7085  0.7465  0.4109
   55CHL1   C27 6547   0.138   1.110   8.650 -0.5420  0.1563 -0.1644
   55CHL1  H27A 6548   0.090   1.186   8.716 -1.0688  0.5538 -0.9991
   55CHL1  H27B 6549   0.177   1.159   8.558 -0.0834  0.6959  0.3051
   55CHL1  H27C 6550   0.064   1.032   8.624 -0.0174  0.2509 -1.9852
   56CHL1    C3 6551   4.652   6.620  10.081 -0.1578 -0.3053 -1.0194
   56CHL1    H3 6552   4.576   6.540  10.086  0.4052 -0.8327 -0.7934
   56CHL1    O3 6553   4.693   6.663  10.211  0.7145 -0.7366  0.2329
   56CHL1   H3' 6554   4.712   6.586  10.265  1.2794 -2.3784 -2.1956
   56CHL1    C4 6555   4.775   6.564  10.011 -0.0563 -0.2074  0.5882
   56CHL1   H4A 6556   4.843   6.652  10.012  0.4420 -0.5923  1.1556
   56CHL1   H4B 6557   4.827   6.487  10.071  1.8273 -0.2745 -1.0424
   56CHL1    C5 6558   4.749   6.513   9.871  0.0191 -0.3383  0.4198
   56CHL1    C6 6559   4.784   6.384   9.840 -0.6783 -0.3172  0.5190
   56CHL1    H6 6560   4.835   6.321   9.914 -2.4465 -2.6366 -0.1613
   56CHL1    C7 6561   4.770   6.322   9.703 -0.3449  0.0723 -0.1584
   56CHL1   H7A 6562   4.869   6.286   9.667  0.9039  2.5507  0.7150
   56CHL1   H7B 6563   4.690   6.245   9.697 -1.3880  0.9906  1.5940
   56CHL1    C8 6564   4.738   6.430   9.598 -0.2405  0.3425  0.4285
   56CHL1    H8 6565   4.837   6.476   9.577 -0.2858 -0.2287 -1.1616
   56CHL1   C14 6566   4.680   6.355   9.481  0.0313 -0.5879 -0.1283
   56CHL1   H14 6567   4.590   6.299   9.514  1.0152 -1.5277  1.0043
   56CHL1   C15 6568   4.759   6.256   9.399  0.2184 -0.6118 -0.3074
   56CHL1  H15A 6569   4.858   6.303   9.377  0.6220 -1.6534 -0.7910
   56CHL1  H15B 6570   4.771   6.160   9.455  0.6610 -0.6487 -0.4616
   56CHL1   C16 6571   4.678   6.239   9.264 -0.8341 -0.7397 -0.1931
   56CHL1  H16A 6572   4.746   6.258   9.178 -1.4612 -0.4790 -0.6320
   56CHL1  H16B 6573   4.635   6.140   9.240 -1.6882 -0.3932 -0.0935
   56CHL1   C17 6574   4.564   6.340   9.272  0.4347  0.5555 -0.8501
   56CHL1   H17 6575   4.477   6.291   9.319  0.0879  2.1461  0.2323
   56CHL1   C13 6576   4.615   6.445   9.376 -0.1282  0.0224  0.5749
   56CHL1   C18 6577   4.725   6.530   9.309 -0.2599  0.7404  0.1541
   56CHL1  H18A 6578   4.804   6.479   9.249 -1.7836  0.3380 -1.5491
   56CHL1  H18B 6579   4.684   6.601   9.234 -2.3947 -0.1620  0.4273
   56CHL1  H18C 6580   4.774   6.591   9.388  1.5195  1.4573 -1.4309
   56CHL1   C12 6581   4.506   6.536   9.437  0.0991 -0.3261  0.6351
   56CHL1  H12A 6582   4.446   6.602   9.371  0.1632  1.2014  2.0507
   56CHL1  H12B 6583   4.422   6.472   9.471  0.6413 -1.8455 -0.8259
   56CHL1   C11 6584   4.571   6.621   9.547  0.1588 -0.2320 -0.3202
   56CHL1  H11A 6585   4.647   6.692   9.507  1.6786 -1.4806  0.2800
   56CHL1  H11B 6586   4.485   6.678   9.589 -1.5034 -1.3644 -2.1336
   56CHL1    C9 6587   4.635   6.530   9.657 -0.4515  0.4085 -0.1456
   56CHL1    H9 6588   4.551   6.463   9.687 -0.3551  0.3897  0.0867
   56CHL1   C10 6589   4.678   6.611   9.782 -0.0767 -0.4249  0.2185
   56CHL1   C19 6590   4.773   6.722   9.736  0.2963  0.5593 -0.7967
   56CHL1  H19A 6591   4.714   6.797   9.680  2.0722  2.4281 -0.2397
   56CHL1  H19B 6592   4.821   6.772   9.823  0.4561 -0.5637 -0.2205
   56CHL1  H19C 6593   4.850   6.673   9.673 -1.0836 -0.0126 -2.0499
   56CHL1    C1 6594   4.562   6.679   9.857 -0.4078 -0.2958  0.3569
   56CHL1   H1A 6595   4.524   6.761   9.792 -0.9509 -1.7049 -1.1657
   56CHL1   H1B 6596   4.481   6.604   9.872 -0.3722 -0.7562 -1.5985
   56CHL1    C2 6597   4.598   6.737   9.992 -0.0960  0.5969 -0.1295
   56CHL1   H2A 6598   4.507   6.781  10.039  1.7171  1.2984  2.8595
   56CHL1   H2B 6599   4.675   6.815   9.972 -1.0725  1.8237  0.7670
   56CHL1   C20 6600   4.511   6.410   9.147  0.2041  0.2151 -0.5523
   56CHL1   H20 6601   4.481   6.514   9.170  1.8693  0.5031  0.4007
   56CHL1   C21 6602   4.384   6.344   9.103 -0.4812  0.2613 -0.4835
   56CHL1  H21A 6603   4.348   6.398   9.013 -2.2200  2.7641  1.6471
   56CHL1  H21B 6604   4.305   6.365   9.178 -0.2712 -0.7148  0.0060
   56CHL1  H21C 6605   4.405   6.236   9.093 -0.7405  0.2345 -0.7325
   56CHL1   C22 6606   4.607   6.412   9.025 -0.8094  0.6045 -0.2681
   56CHL1  H22A 6607   4.705   6.450   9.062  0.0150 -1.0120 -0.7461
   56CHL1  H22B 6608   4.618   6.308   8.989 -1.3661  0.4587 -0.0177
   56CHL1   C23 6609   4.560   6.517   8.917 -0.5393 -0.2438  0.3278
   56CHL1  H23A 6610   4.481   6.472   8.853  0.9901 -1.6808 -0.6012
   56CHL1  H23B 6611   4.509   6.601   8.969 -0.3012 -0.4433  0.8860
   56CHL1   C24 6612   4.676   6.568   8.840  0.0221 -0.0421  0.2173
   56CHL1  H24A 6613   4.642   6.631   8.755 -1.2947  0.0508  0.7942
   56CHL1  H24B 6614   4.733   6.630   8.912  0.1389  1.5307 -1.1849
   56CHL1   C25 6615   4.766   6.463   8.768  0.5952  0.1310 -0.7690
   56CHL1   H25 6616   4.808   6.385   8.834  1.3977  1.1263 -0.0970
   56CHL1   C26 6617   4.691   6.388   8.656 -0.0442 -0.2705  0.2905
   56CHL1  H26A 6618   4.759   6.306   8.623  0.3895  0.5519 -0.8868
   56CHL1  H26B 6619   4.596   6.343   8.694  1.4091 -2.3592  1.6086
   56CHL1  H26C 6620   4.662   6.457   8.574  1.0026 -2.3068 -1.8361
   56CHL1   C27 6621   4.888   6.541   8.710 -0.1990  0.2905 -0.3374
   56CHL1  H27A 6622   4.917   6.609   8.792 -1.6939 -1.4643  1.6963
   56CHL1  H27B 6623   4.976   6.477   8.687 -1.4067 -1.7836  0.6288
   56CHL1  H27C 6624   4.863   6.602   8.620  1.1358 -0.1594 -1.0257
   57CHL1    C3 6625   0.218   2.398  10.158 -0.6348  0.3278 -0.3652
   57CHL1    H3 6626   0.155   2.307  10.161 -1.4063  0.8314 -1.0104
   57CHL1    O3 6627   0.261   2.433  10.296  0.2343 -0.2435  0.6995
   57CHL1   H3' 6628   0.181   2.447  10.347  1.4053 -1.0080  2.7991
   57CHL1    C4 6629   0.341   2.370  10.079 -0.2649  0.5371  0.4637
   57CHL1   H4A 6630   0.415   2.450  10.101 -1.6868  2.6076 -1.9823
   57CHL1   H4B 6631   0.392   2.281  10.121 -1.4884 -0.5438 -0.2877
   57CHL1    C5 6632   0.298   2.347   9.931  0.5526 -0.3048 -0.3543
   57CHL1    C6 6633   0.305   2.225   9.883 -0.1992 -0.7059 -0.5279
   57CHL1    H6 6634   0.354   2.151   9.947 -0.7030 -0.2447  0.4009
   57CHL1    C7 6635   0.261   2.193   9.745  0.0048  0.0509 -0.2952
   57CHL1   H7A 6636   0.313   2.103   9.705 -0.1379  0.4174 -1.3256
   57CHL1   H7B 6637   0.162   2.142   9.742  0.0687 -0.3037  2.3495
   57CHL1    C8 6638   0.262   2.323   9.658 -0.5827 -0.5021 -0.2082
   57CHL1    H8 6639   0.366   2.362   9.644 -0.3614 -0.2985  1.8266
   57CHL1   C14 6640   0.201   2.287   9.521 -0.6356  0.5336  1.0088
   57CHL1   H14 6641   0.102   2.240   9.540 -1.7608  1.3802 -2.5591
   57CHL1   C15 6642   0.271   2.175   9.434 -0.4540  0.2424  0.4412
   57CHL1  H15A 6643   0.381   2.191   9.439  0.2167 -3.1980 -1.4739
   57CHL1  H15B 6644   0.238   2.078   9.477 -0.2504 -0.1024 -0.1648
   57CHL1   C16 6645   0.225   2.205   9.288  0.2311  0.6038  0.0651
   57CHL1  H16A 6646   0.309   2.234   9.221  0.7304  0.9861  0.8579
   57CHL1  H16B 6647   0.175   2.119   9.238 -0.1715  0.3338  0.9344
   57CHL1   C17 6648   0.135   2.331   9.300 -0.1867  0.3344 -0.0602
   57CHL1   H17 6649   0.035   2.289   9.325  0.3084 -1.0155 -0.2674
   57CHL1   C13 6650   0.181   2.399   9.427  0.0563 -0.4515  0.5789
   57CHL1   C18 6651   0.318   2.467   9.401  0.2839  0.0545 -0.0764
   57CHL1  H18A 6652   0.382   2.405   9.335  0.6824  1.4202 -0.9964
   57CHL1  H18B 6653   0.291   2.565   9.355 -0.0320  0.0514  0.1018
   57CHL1  H18C 6654   0.376   2.490   9.492  0.2799 -2.7914  0.6825
   57CHL1   C12 6655   0.082   2.503   9.496 -0.0398  0.2296 -0.0576
   57CHL1  H12A 6656   0.049   2.601   9.454 -0.3070  1.5578  3.1629
   57CHL1  H12B 6657  -0.008   2.441   9.514 -0.0227  0.0938 -0.4276
   57CHL1   C11 6658   0.137   2.549   9.632  0.0029  0.2932 -0.0830
   57CHL1  H11A 6659   0.223   2.614   9.603 -0.5884  1.0695 -0.1383
   57CHL1  H11B 6660   0.062   2.610   9.686 -0.0154 -0.9038  1.2796
   57CHL1    C9 6661   0.176   2.428   9.729 -0.2863 -0.5689 -0.3281
   57CHL1    H9 6662   0.072   2.390   9.733 -1.2758  2.1750  1.0322
   57CHL1   C10 6663   0.228   2.469   9.864 -0.4201 -0.2189  0.8026
   57CHL1   C19 6664   0.327   2.584   9.856 -0.8685  0.0832 -0.9923
   57CHL1  H19A 6665   0.291   2.669   9.795 -2.5043 -0.2954 -0.5826
   57CHL1  H19B 6666   0.357   2.631   9.953  1.0400  2.1246 -2.5210
   57CHL1  H19C 6667   0.420   2.561   9.801  0.7744  1.2232  1.2292
   57CHL1    C1 6668   0.110   2.510   9.953 -0.3158 -0.4130 -0.1085
   57CHL1   H1A 6669   0.057   2.604   9.926 -0.0201  0.0553  0.9210
   57CHL1   H1B 6670   0.025   2.440   9.938 -3.4456  2.9329  1.3278
   57CHL1    C2 6671   0.136   2.516  10.103  0.1597  0.0524 -0.6267
   57CHL1   H2A 6672   0.035   2.510  10.149  1.4492  1.8286  2.5808
   57CHL1   H2B 6673   0.177   2.616  10.127 -1.3185  1.0820 -2.2775
   57CHL1   C20 6674   0.099   2.431   9.182  0.6097 -0.5632  0.0492
   57CHL1   H20 6675   0.107   2.532   9.228 -1.9533 -0.0378 -0.5496
   57CHL1   C21 6676  -0.041   2.410   9.122 -0.1474  0.0438 -0.3541
   57CHL1  H21A 6677  -0.115   2.396   9.204  1.3168  1.1355  1.1805
   57CHL1  H21B 6678  -0.040   2.323   9.052 -1.6058  0.0830 -0.4551
   57CHL1  H21C 6679  -0.079   2.497   9.064 -2.1843 -0.6169 -0.0512
   57CHL1   C22 6680   0.202   2.427   9.067  0.5355 -0.0783 -0.2279
   57CHL1  H22A 6681   0.299   2.430   9.121 -0.5271 -0.2206  1.7646
   57CHL1  H22B 6682   0.184   2.330   9.016 -3.5271 -0.1721  1.1869
   57CHL1   C23 6683   0.187   2.535   8.962  0.5929 -0.6732 -0.1730
   57CHL1  H23A 6684   0.106   2.516   8.889 -0.3251  0.2918  0.5873
   57CHL1  H23B 6685   0.149   2.629   9.006  0.9324 -0.1365 -1.0025
   57CHL1   C24 6686   0.315   2.559   8.883  0.6400  0.7173 -0.9751
   57CHL1  H24A 6687   0.296   2.646   8.817  1.3620  0.0037 -2.1256
   57CHL1  H24B 6688   0.399   2.581   8.952 -0.2856 -1.0934  0.7746
   57CHL1   C25 6689   0.370   2.431   8.812  0.0201  0.0273  0.9096
   57CHL1   H25 6690   0.399   2.357   8.889 -1.6951 -0.8509  0.7384
   57CHL1   C26 6691   0.265   2.369   8.713 -0.1733 -0.3865  0.1029
   57CHL1  H26A 6692   0.221   2.434   8.634 -0.8326 -0.6842  0.2193
   57CHL1  H26B 6693   0.310   2.284   8.659  1.6048  1.7341 -1.8300
   57CHL1  H26C 6694   0.184   2.322   8.772 -1.5346 -0.5599 -1.8536
   57CHL1   C27 6695   0.500   2.476   8.736  0.0966  0.3247 -0.7261
   57CHL1  H27A 6696   0.492   2.557   8.660  1.0705 -0.7966 -2.0563
   57CHL1  H27B 6697   0.572   2.507   8.815 -1.3655 -0.7744  1.0554
   57CHL1  H27C 6698   0.547   2.392   8.681 -1.2855 -1.0401  0.1595
   58CHL1    C3 6699   3.394   0.699  10.066 -0.3897 -0.3231  0.5541
   58CHL1    H3 6700   3.499   0.699  10.031 -1.6166 -3.2530 -3.3951
   58CHL1    O3 6701   3.380   0.695  10.208 -0.7731 -0.2259 -0.4872
   58CHL1   H3' 6702   3.421   0.778  10.233  0.5249 -0.8596 -0.4725
   58CHL1    C4 6703   3.305   0.809  10.012  0.3352 -0.0018  0.1809
   58CHL1   H4A 6704   3.201   0.804  10.050 -0.2828 -0.3487 -1.5307
   58CHL1   H4B 6705   3.332   0.908  10.055 -1.1979  1.2248 -1.6426
   58CHL1    C5 6706   3.288   0.818   9.862  0.6975 -0.0734 -0.6111
   58CHL1    C6 6707   3.314   0.929   9.798 -0.2945 -0.0897 -0.5304
   58CHL1    H6 6708   3.353   1.018   9.851 -0.9741 -0.1576  0.0834
   58CHL1    C7 6709   3.305   0.939   9.650 -0.3739  0.4172 -0.0729
   58CHL1   H7A 6710   3.260   1.040   9.634  0.0560  0.6594  0.2369
   58CHL1   H7B 6711   3.407   0.945   9.606  1.0685 -0.2670  3.0330
   58CHL1    C8 6712   3.214   0.833   9.582 -0.1036 -0.3476  0.4235
   58CHL1    H8 6713   3.107   0.858   9.603  0.2463  0.9541  0.7226
   58CHL1   C14 6714   3.237   0.830   9.436 -0.7459  0.4129  0.0720
   58CHL1   H14 6715   3.343   0.803   9.419 -1.2553 -0.1576 -2.5180
   58CHL1   C15 6716   3.207   0.953   9.356 -0.1728 -0.2034 -0.2089
   58CHL1  H15A 6717   3.104   0.992   9.374 -0.3252 -0.9825  0.6600
   58CHL1  H15B 6718   3.271   1.038   9.385 -0.4700  0.7600 -2.2677
   58CHL1   C16 6719   3.205   0.910   9.213 -0.0265 -0.6967 -0.8441
   58CHL1  H16A 6720   3.128   0.966   9.156 -1.0475  0.5944  1.7418
   58CHL1  H16B 6721   3.307   0.925   9.170  0.4643 -2.5006 -0.3468
   58CHL1   C17 6722   3.189   0.760   9.217  0.3866  0.8626  0.8605
   58CHL1   H17 6723   3.290   0.718   9.198 -0.2999 -0.3265 -0.2854
   58CHL1   C13 6724   3.154   0.727   9.361 -0.4918 -0.3245 -0.4397
   58CHL1   C18 6725   3.001   0.734   9.387  0.6124  0.0007  0.6775
   58CHL1  H18A 6726   2.986   0.701   9.492 -1.1744  0.7209  0.6624
   58CHL1  H18B 6727   2.945   0.828   9.368 -1.1322 -0.7976  1.7796
   58CHL1  H18C 6728   2.953   0.663   9.317 -0.5573  1.6982 -0.2881
   58CHL1   C12 6729   3.199   0.585   9.404  0.0625 -0.0252  0.1163
   58CHL1  H12A 6730   3.143   0.497   9.368  3.7106 -1.8981 -1.2322
   58CHL1  H12B 6731   3.302   0.567   9.366 -0.1604 -0.8931 -0.0875
   58CHL1   C11 6732   3.204   0.579   9.558  0.6576 -0.0577 -0.4884
   58CHL1  H11A 6733   3.102   0.551   9.593  0.8659 -0.5886 -0.2990
   58CHL1  H11B 6734   3.259   0.488   9.590 -0.4776 -1.3810 -2.2252
   58CHL1    C9 6735   3.257   0.699   9.644 -0.1530 -0.2481 -1.0911
   58CHL1    H9 6736   3.367   0.697   9.629  0.4253 -1.0350  2.7779
   58CHL1   C10 6737   3.245   0.691   9.798 -0.0863  0.7430 -0.6001
   58CHL1   C19 6738   3.094   0.681   9.835 -0.7557  0.1809  0.1173
   58CHL1  H19A 6739   3.083   0.644   9.939  1.3955 -1.4661 -0.2056
   58CHL1  H19B 6740   3.039   0.777   9.834 -0.3974  0.3871  0.6630
   58CHL1  H19C 6741   3.036   0.611   9.771  4.2374 -1.9261 -2.4457
   58CHL1    C1 6742   3.333   0.577   9.855 -0.0917 -0.8481  0.4253
   58CHL1   H1A 6743   3.293   0.478   9.825 -1.5516  0.9101 -3.8483
   58CHL1   H1B 6744   3.441   0.574   9.831  0.3525  0.0940  2.2392
   58CHL1    C2 6745   3.337   0.567  10.013  0.2553  0.6111  0.0821
   58CHL1   H2A 6746   3.392   0.478  10.050  1.2482  0.7167 -1.1228
   58CHL1   H2B 6747   3.232   0.560  10.048 -0.2568 -2.1897 -1.8391
   58CHL1   C20 6748   3.085   0.718   9.101 -0.7393 -0.0310  0.2681
   58CHL1   H20 6749   2.989   0.768   9.128 -0.0732  0.6259  1.4847
   58CHL1   C21 6750   3.062   0.565   9.088 -0.0017  0.2870 -0.2674
   58CHL1  H21A 6751   3.152   0.500   9.081 -1.4096 -1.9936  2.1398
   58CHL1  H21B 6752   2.999   0.554   8.997 -0.8982 -0.1840  0.4112
   58CHL1  H21C 6753   2.997   0.537   9.173  1.5435  1.7213  1.4279
   58CHL1   C22 6754   3.104   0.778   8.953  0.6212 -0.2336  0.9266
   58CHL1  H22A 6755   3.198   0.837   8.963  1.8497 -1.9964  0.0355
   58CHL1  H22B 6756   3.134   0.710   8.870 -1.4125  3.1685 -2.7551
   58CHL1   C23 6757   2.986   0.872   8.904 -0.1301 -0.3986 -0.4326
   58CHL1  H23A 6758   2.953   0.948   8.979 -1.2909 -1.7020  0.4115
   58CHL1  H23B 6759   3.015   0.930   8.814 -0.0858 -0.6048 -0.5541
   58CHL1   C24 6760   2.857   0.785   8.868  0.5218 -0.0279  0.0686
   58CHL1  H24A 6761   2.894   0.711   8.794  1.1227  2.2523 -1.9984
   58CHL1  H24B 6762   2.823   0.739   8.963 -0.1395 -1.6730 -0.9557
   58CHL1   C25 6763   2.739   0.864   8.811  0.1440  0.1086 -0.1470
   58CHL1   H25 6764   2.719   0.946   8.882  1.4280 -0.1970  0.5894
   58CHL1   C26 6765   2.778   0.913   8.671 -0.0419 -0.6099  0.0936
   58CHL1  H26A 6766   2.787   0.836   8.592  0.7592 -1.0882  0.6421
   58CHL1  H26B 6767   2.701   0.985   8.635  1.2545  1.1833  0.8244
   58CHL1  H26C 6768   2.875   0.966   8.661 -1.1510  1.3972 -0.4698
   58CHL1   C27 6769   2.621   0.768   8.790  0.2887  0.3144  0.1084
   58CHL1  H27A 6770   2.535   0.814   8.738 -1.7446 -0.8934  2.3289
   58CHL1  H27B 6771   2.646   0.684   8.721 -0.1536 -0.2642  0.6449
   58CHL1  H27C 6772   2.578   0.729   8.885 -0.8532  1.6734  0.1609
   59CHL1    C3 6773   2.617   6.693  10.338  0.5268  0.2158 -0.1414
   59CHL1    H3 6774   2.646   6.592  10.302 -0.8618 -0.2412  0.0034
   59CHL1    O3 6775   2.650   6.695  10.475 -0.1891  0.2688  0.4027
   59CHL1   H3' 6776   2.610   6.773  10.515 -1.4521 -0.1479 -0.0577
   59CHL1    C4 6777   2.687   6.799  10.250 -0.3353  0.8327  0.6021
   59CHL1   H4A 6778   2.661   6.896  10.299  0.0740  1.8190 -1.0945
   59CHL1   H4B 6779   2.796   6.787  10.265 -0.4124 -0.5191  0.0737
   59CHL1    C5 6780   2.647   6.795  10.098  0.2198  0.0600  0.0922
   59CHL1    C6 6781   2.739   6.782  10.001 -0.4203 -0.6219  0.1223
   59CHL1    H6 6782   2.840   6.797  10.043 -0.0101  0.0387 -1.0838
   59CHL1    C7 6783   2.720   6.780   9.852  0.7861 -0.0801 -0.2754
   59CHL1   H7A 6784   2.788   6.852   9.801  0.6512  0.9120  0.9353
   59CHL1   H7B 6785   2.740   6.677   9.816  3.0457  0.1046  0.4117
   59CHL1    C8 6786   2.569   6.818   9.818 -0.3227 -0.1722  0.9034
   59CHL1    H8 6787   2.554   6.928   9.829 -2.5866 -0.2703 -0.8699
   59CHL1   C14 6788   2.542   6.779   9.673  0.2505 -0.2471 -0.1793
   59CHL1   H14 6789   2.547   6.669   9.676 -0.9492 -0.2962  0.1277
   59CHL1   C15 6790   2.642   6.835   9.571  0.6423 -0.7816 -0.6509
   59CHL1  H15A 6791   2.685   6.935   9.596 -1.4582  0.5957 -2.3450
   59CHL1  H15B 6792   2.724   6.760   9.563  0.3263 -1.4134  1.6676
   59CHL1   C16 6793   2.565   6.835   9.444 -0.5719  0.3076 -0.4687
   59CHL1  H16A 6794   2.555   6.939   9.405 -1.2813  1.2846  2.2483
   59CHL1  H16B 6795   2.613   6.773   9.365 -0.2204 -0.0006 -0.0179
   59CHL1   C17 6796   2.420   6.776   9.483  0.7551 -1.2528 -0.0957
   59CHL1   H17 6797   2.429   6.666   9.480  2.1113 -1.1097 -2.7160
   59CHL1   C13 6798   2.401   6.814   9.631  0.3169 -0.0817  0.4556
   59CHL1   C18 6799   2.381   6.969   9.641  0.1282 -0.7372  0.0947
   59CHL1  H18A 6800   2.283   7.000   9.599  0.2878  0.3500  0.5067
   59CHL1  H18B 6801   2.359   7.011   9.742 -0.6168 -0.3249 -0.2334
   59CHL1  H18C 6802   2.453   7.038   9.591 -0.1336 -2.0363 -2.1364
   59CHL1   C12 6803   2.312   6.731   9.728 -0.1816  0.1326 -0.5989
   59CHL1  H12A 6804   2.204   6.721   9.704 -0.6390  1.1939  0.9796
   59CHL1  H12B 6805   2.353   6.629   9.712  1.7072  0.7307  0.2345
   59CHL1   C11 6806   2.329   6.779   9.874 -0.4088  0.4391 -0.3337
   59CHL1  H11A 6807   2.298   6.884   9.888  0.6681  0.5197  1.7002
   59CHL1  H11B 6808   2.267   6.714   9.941 -0.8836  2.3690  1.1555
   59CHL1    C9 6809   2.477   6.755   9.921 -0.0336 -0.0821  0.4757
   59CHL1    H9 6810   2.490   6.645   9.929 -3.9738 -0.5001  2.8836
   59CHL1   C10 6811   2.501   6.800  10.066 -0.1071  0.1041  0.2422
   59CHL1   C19 6812   2.443   6.946  10.099 -0.3598 -0.1922 -0.2572
   59CHL1  H19A 6813   2.334   6.963  10.092 -0.0701  1.3124 -1.3001
   59CHL1  H19B 6814   2.471   6.970  10.203  0.4360 -0.1840 -0.4647
   59CHL1  H19C 6815   2.486   7.024  10.033 -0.5146 -0.0887 -0.2350
   59CHL1    C1 6816   2.420   6.704  10.164  0.2116  0.3386  0.2511
   59CHL1   H1A 6817   2.313   6.731  10.156 -0.5672 -3.2107 -2.1984
   59CHL1   H1B 6818   2.423   6.598  10.133  4.9025  0.3769  0.1527
   59CHL1    C2 6819   2.461   6.712  10.310 -0.4340  0.1588 -0.7231
   59CHL1   H2A 6820   2.401   6.631  10.357 -0.9393  1.2378  0.5359
   59CHL1   H2B 6821   2.429   6.813  10.343 -1.5007 -1.1015  2.2325
   59CHL1   C20 6822   2.305   6.833   9.391 -0.0365 -0.0141 -0.0937
   59CHL1   H20 6823   2.322   6.942   9.399  2.4417 -0.2564 -1.4005
   59CHL1   C21 6824   2.176   6.777   9.449 -0.5934  0.1138 -0.5924
   59CHL1  H21A 6825   2.109   6.759   9.363 -2.1883  0.2773  0.5981
   59CHL1  H21B 6826   2.130   6.844   9.524 -0.9424 -1.8854  1.0175
   59CHL1  H21C 6827   2.199   6.680   9.498  1.9137  0.4536 -1.0061
   59CHL1   C22 6828   2.330   6.779   9.246  0.4340 -0.2958  0.1359
   59CHL1  H22A 6829   2.436   6.797   9.220 -0.0435  0.5590 -1.3025
   59CHL1  H22B 6830   2.304   6.672   9.255 -0.2349 -0.2563 -1.1226
   59CHL1   C23 6831   2.246   6.856   9.140  0.2999 -0.2131  0.4324
   59CHL1  H23A 6832   2.139   6.869   9.166  0.1629 -1.8325  0.7529
   59CHL1  H23B 6833   2.293   6.955   9.123 -1.9074  0.9191  0.7653
   59CHL1   C24 6834   2.238   6.791   9.002  0.4475 -0.1118  0.2674
   59CHL1  H24A 6835   2.335   6.739   8.985 -0.1431 -1.4214  0.8008
   59CHL1  H24B 6836   2.156   6.716   9.001 -0.8923  1.3205 -2.5900
   59CHL1   C25 6837   2.203   6.888   8.885 -0.7159  1.0923  0.3871
   59CHL1   H25 6838   2.271   6.974   8.903 -0.2109  0.3699  1.9542
   59CHL1   C26 6839   2.225   6.824   8.750 -0.1842 -0.5339 -0.5616
   59CHL1  H26A 6840   2.333   6.807   8.731 -0.2496 -1.0146 -0.5176
   59CHL1  H26B 6841   2.175   6.725   8.751  1.0250 -1.1439  0.4902
   59CHL1  H26C 6842   2.184   6.895   8.675 -2.6677 -0.8633  0.4131
   59CHL1   C27 6843   2.057   6.940   8.894  0.4208  0.7754  0.5436
   59CHL1  H27A 6844   2.054   7.032   8.831  0.0354 -0.2026 -0.8779
   59CHL1  H27B 6845   1.982   6.869   8.852  0.8659  0.6469 -0.0418
   59CHL1  H27C 6846   2.036   6.961   9.001 -0.6701 -1.0084  0.6957
   60CHL1    C3 6847   1.688   6.354  10.186 -0.2044 -0.0777 -1.2084
   60CHL1    H3 6848   1.734   6.254  10.171  0.1196 -0.2718  0.8937
   60CHL1    O3 6849   1.666   6.378  10.325 -0.5396 -0.9013 -0.1859
   60CHL1   H3' 6850   1.665   6.474  10.328  1.9034 -0.9002  1.0841
   60CHL1    C4 6851   1.767   6.472  10.131 -0.5089  0.4203 -1.1603
   60CHL1   H4A 6852   1.716   6.563  10.168  2.3834  1.3327  0.7882
   60CHL1   H4B 6853   1.866   6.492  10.177  0.3578  2.8318 -3.9064
   60CHL1    C5 6854   1.775   6.483   9.980  0.4823  0.6091  0.0543
   60CHL1    C6 6855   1.888   6.501   9.908  0.8074  0.1697  0.4900
   60CHL1    H6 6856   1.986   6.507   9.959 -0.0559 -2.4194  2.6018
   60CHL1    C7 6857   1.889   6.519   9.758  0.2919  0.4155  0.1385
   60CHL1   H7A 6858   1.970   6.589   9.729  1.2694  0.1028  2.0750
   60CHL1   H7B 6859   1.920   6.416   9.730  0.7963 -0.2915  3.1627
   60CHL1    C8 6860   1.760   6.548   9.696 -0.3484 -0.5212 -0.8391
   60CHL1    H8 6861   1.730   6.654   9.706  1.1933 -0.2019  0.7179
   60CHL1   C14 6862   1.766   6.491   9.560 -0.6651  0.2574 -0.3254
   60CHL1   H14 6863   1.770   6.380   9.571 -2.2923  0.1663 -0.6103
   60CHL1   C15 6864   1.889   6.532   9.473  0.7696 -0.7896  0.4037
   60CHL1  H15A 6865   1.918   6.638   9.488 -2.2319  0.3992 -1.6177
   60CHL1  H15B 6866   1.977   6.472   9.504 -0.7588 -2.5465  1.5159
   60CHL1   C16 6867   1.832   6.517   9.332 -0.0553  0.2771 -0.2535
   60CHL1  H16A 6868   1.841   6.610   9.273  0.1494  1.2277  1.2646
   60CHL1  H16B 6869   1.885   6.448   9.262 -0.5382 -0.0452 -0.3024
   60CHL1   C17 6870   1.688   6.464   9.342 -0.3811 -0.8131  0.4696
   60CHL1   H17 6871   1.697   6.356   9.364  0.5241 -0.3752  2.2916
   60CHL1   C13 6872   1.637   6.521   9.477 -0.3839 -1.0203 -0.6089
   60CHL1   C18 6873   1.603   6.667   9.462 -0.2277  0.0574 -0.1671
   60CHL1  H18A 6874   1.694   6.715   9.420  0.9184 -1.0365  1.0130
   60CHL1  H18B 6875   1.514   6.691   9.400 -0.0478 -1.2197 -0.9396
   60CHL1  H18C 6876   1.581   6.699   9.566  2.1052  0.2070  0.3163
   60CHL1   C12 6877   1.514   6.443   9.535 -0.6352  0.2255  0.2866
   60CHL1  H12A 6878   1.419   6.473   9.486 -0.5394 -2.3250 -1.5886
   60CHL1  H12B 6879   1.533   6.336   9.515 -0.4402 -0.0507  1.8811
   60CHL1   C11 6880   1.504   6.473   9.688  0.0064  0.3476  0.0430
   60CHL1  H11A 6881   1.472   6.577   9.708  2.2683  0.8110  1.3517
   60CHL1  H11B 6882   1.428   6.404   9.732 -0.5175  1.1419  0.3890
   60CHL1    C9 6883   1.646   6.461   9.757  0.1117 -0.2541 -0.0473
   60CHL1    H9 6884   1.663   6.353   9.737  1.1118 -0.1662  0.2973
   60CHL1   C10 6885   1.634   6.474   9.908 -0.3296  0.1318  0.7912
   60CHL1   C19 6886   1.564   6.608   9.945 -0.3104 -0.3378 -0.1991
   60CHL1  H19A 6887   1.624   6.696   9.913 -1.2324  0.6030  0.6448
   60CHL1  H19B 6888   1.462   6.617   9.900  0.2509  3.4949 -0.8808
   60CHL1  H19C 6889   1.547   6.616  10.054 -1.3768 -1.3750 -0.2711
   60CHL1    C1 6890   1.549   6.355   9.965  0.3192  0.0104  0.2508
   60CHL1   H1A 6891   1.447   6.361   9.920  0.5664  0.9157 -0.2049
   60CHL1   H1B 6892   1.593   6.255   9.945  1.4390  0.6092 -0.2650
   60CHL1    C2 6893   1.549   6.355  10.120 -0.0122  0.2763  0.0532
   60CHL1   H2A 6894   1.491   6.263  10.142 -2.0355  0.6702 -3.1540
   60CHL1   H2B 6895   1.492   6.443  10.156 -1.5080 -0.5240 -0.3279
   60CHL1   C20 6896   1.586   6.483   9.227  0.1506 -0.3796 -0.5686
   60CHL1   H20 6897   1.488   6.485   9.278  0.3874 -2.7643  0.0177
   60CHL1   C21 6898   1.596   6.345   9.162 -0.2291 -0.0510  0.1714
   60CHL1  H21A 6899   1.548   6.262   9.218  1.8920 -1.2163  0.3323
   60CHL1  H21B 6900   1.705   6.321   9.157 -1.0301 -4.0176  0.7027
   60CHL1  H21C 6901   1.561   6.347   9.057  0.3042  0.6040 -0.0046
   60CHL1   C22 6902   1.620   6.598   9.122 -0.6176  0.6674  0.6042
   60CHL1  H22A 6903   1.635   6.688   9.185  1.1975 -0.1079  1.3319
   60CHL1  H22B 6904   1.716   6.581   9.067 -0.1044 -0.9616  1.9679
   60CHL1   C23 6905   1.520   6.620   9.008  0.3939 -0.5684  0.1004
   60CHL1  H23A 6906   1.561   6.706   8.950 -1.9190 -0.8330 -2.0327
   60CHL1  H23B 6907   1.497   6.540   8.934 -1.1982 -0.4340  0.4419
   60CHL1   C24 6908   1.378   6.667   9.056 -0.0388 -0.1412 -0.0856
   60CHL1  H24A 6909   1.342   6.587   9.124  1.0164 -0.6346 -0.0872
   60CHL1  H24B 6910   1.390   6.760   9.116 -0.2126  0.6919 -1.3259
   60CHL1   C25 6911   1.267   6.682   8.946 -0.6392 -0.0344  0.7504
   60CHL1   H25 6912   1.268   6.593   8.880 -1.3690  0.5829 -0.1083
   60CHL1   C26 6913   1.124   6.717   9.003  0.7863 -0.2452  0.1740
   60CHL1  H26A 6914   1.120   6.809   9.065 -2.1864 -0.0180 -0.2655
   60CHL1  H26B 6915   1.057   6.745   8.919 -3.0116  0.8748  3.4294
   60CHL1  H26C 6916   1.071   6.631   9.048 -0.0043  0.7083  1.0666
   60CHL1   C27 6917   1.316   6.802   8.857 -0.3668 -0.2171 -0.2329
   60CHL1  H27A 6918   1.407   6.779   8.799 -0.2566 -2.0585  0.6330
   60CHL1  H27B 6919   1.236   6.821   8.783  0.4823  1.1902 -0.8058
   60CHL1  H27C 6920   1.330   6.899   8.910  0.9846 -0.6237  0.1824
   61CHL1    C3 6921   6.006   5.213  10.346 -0.3111  0.5218 -0.6056
   61CHL1    H3 6922   6.108   5.225  10.302 -0.1689  3.6722  0.5166
   61CHL1    O3 6923   6.019   5.201  10.490  0.3020  0.0180 -0.3568
   61CHL1   H3' 6924   6.084   5.131  10.499  0.5065  0.2981  0.3147
   61CHL1    C4 6925   5.932   5.341  10.313  0.6467 -0.8865 -0.0843
   61CHL1   H4A 6926   5.836   5.338  10.368  0.6553 -2.0281 -0.1308
   61CHL1   H4B 6927   6.002   5.419  10.352  1.0618 -1.0046 -0.5878
   61CHL1    C5 6928   5.914   5.363  10.166 -0.4338 -0.3905 -0.1346
   61CHL1    C6 6929   5.957   5.481  10.115  0.2803  0.0811 -0.2898
   61CHL1    H6 6930   5.990   5.561  10.182 -0.7271 -0.2548  0.6300
   61CHL1    C7 6931   5.937   5.520   9.975  0.0635 -0.1943  1.2333
   61CHL1   H7A 6932   5.876   5.612   9.982  1.1433  0.6650 -0.2671
   61CHL1   H7B 6933   6.025   5.542   9.911 -0.6550 -3.2028 -0.8686
   61CHL1    C8 6934   5.861   5.422   9.887 -0.2343 -0.9922  0.1283
   61CHL1    H8 6935   5.753   5.427   9.912  0.1890 -0.5004  1.9093
   61CHL1   C14 6936   5.890   5.444   9.740  0.0522 -0.3379  0.5896
   61CHL1   H14 6937   5.999   5.427   9.730  0.0614 -1.6878  2.5919
   61CHL1   C15 6938   5.869   5.584   9.679  0.0746 -0.4915 -0.2090
   61CHL1  H15A 6939   5.782   5.637   9.724 -0.6258 -0.7939 -1.1871
   61CHL1  H15B 6940   5.958   5.645   9.705 -0.9366  0.4450  1.2179
   61CHL1   C16 6941   5.855   5.551   9.531  0.7713 -0.7915 -0.4285
   61CHL1  H16A 6942   5.758   5.595   9.501 -0.9434 -2.2645  2.7282
   61CHL1  H16B 6943   5.937   5.588   9.465  0.4289  1.2947  0.2608
   61CHL1   C17 6944   5.852   5.403   9.516  0.2330 -0.1630 -0.4320
   61CHL1   H17 6945   5.959   5.374   9.511  0.4098  0.5600 -0.8335
   61CHL1   C13 6946   5.815   5.346   9.650  0.3464  0.4016  0.4363
   61CHL1   C18 6947   5.662   5.350   9.672 -0.1974  0.4669 -0.0033
   61CHL1  H18A 6948   5.624   5.454   9.669 -1.0870  0.2299  2.3026
   61CHL1  H18B 6949   5.613   5.284   9.597 -2.9109  0.3640  1.7848
   61CHL1  H18C 6950   5.630   5.317   9.773 -1.6607 -0.5556 -0.7659
   61CHL1   C12 6951   5.868   5.205   9.680 -0.2325 -0.9866 -0.2075
   61CHL1  H12A 6952   5.816   5.134   9.611 -1.0019  1.5354 -2.2925
   61CHL1  H12B 6953   5.976   5.207   9.653  0.1987 -1.1606  1.4533
   61CHL1   C11 6954   5.851   5.169   9.827 -0.3665 -0.6955  0.4603
   61CHL1  H11A 6955   5.742   5.157   9.846 -0.1783  0.1874  2.2218
   61CHL1  H11B 6956   5.905   5.074   9.848  0.3333 -0.7519 -1.4549
   61CHL1    C9 6957   5.907   5.279   9.926 -0.7104 -0.1037  0.3276
   61CHL1    H9 6958   6.018   5.271   9.925 -0.8915 -3.0431  0.1505
   61CHL1   C10 6959   5.871   5.246  10.076 -0.3541 -0.0471 -0.2483
   61CHL1   C19 6960   5.715   5.239  10.104 -0.4808  0.0189 -0.0420
   61CHL1  H19A 6961   5.708   5.205  10.210  0.6842 -1.8928 -0.5510
   61CHL1  H19B 6962   5.662   5.337  10.097 -0.3963  0.0845  0.2230
   61CHL1  H19C 6963   5.659   5.167  10.040 -2.1293 -0.6266  2.0192
   61CHL1    C1 6964   5.949   5.122  10.117  0.5530  0.1835 -0.9612
   61CHL1   H1A 6965   5.911   5.033  10.062 -0.2814 -0.1174  0.0821
   61CHL1   H1B 6966   6.053   5.145  10.086  1.5253 -0.0171  2.0360
   61CHL1    C2 6967   5.943   5.099  10.273 -0.3871 -0.2716  0.3529
   61CHL1   H2A 6968   5.972   4.996  10.305  0.8059  0.4005  1.4480
   61CHL1   H2B 6969   5.841   5.096  10.317 -0.5564 -1.4468 -0.0913
   61CHL1   C20 6970   5.784   5.351   9.385  0.4370 -0.2881  0.5390
   61CHL1   H20 6971   5.677   5.374   9.404  1.0068  3.1619 -0.1339
   61CHL1   C21 6972   5.819   5.202   9.357  0.1168 -0.5686 -0.3447
   61CHL1  H21A 6973   5.929   5.186   9.347  0.2508 -1.1224  1.8441
   61CHL1  H21B 6974   5.766   5.173   9.263  1.9470 -1.8337 -1.0192
   61CHL1  H21C 6975   5.778   5.129   9.430  1.5624 -1.5454 -0.4819
   61CHL1   C22 6976   5.835   5.431   9.257 -0.0097  0.3140 -0.0115
   61CHL1  H22A 6977   5.846   5.539   9.284  1.2742  0.2464 -0.2041
   61CHL1  H22B 6978   5.933   5.386   9.232  0.3378  0.3149  1.2915
   61CHL1   C23 6979   5.743   5.411   9.128  0.9023 -0.2460 -0.0336
   61CHL1  H23A 6980   5.756   5.304   9.103  0.2588 -0.6900  1.5221
   61CHL1  H23B 6981   5.644   5.442   9.167  0.7338 -1.1047  0.2242
   61CHL1   C24 6982   5.781   5.516   9.017  0.2002  0.0948  0.2674
   61CHL1  H24A 6983   5.768   5.619   9.056  0.9400  0.1774  0.3047
   61CHL1  H24B 6984   5.885   5.490   8.988 -0.4499 -2.1016 -0.1966
   61CHL1   C25 6985   5.692   5.501   8.895 -0.7549  0.4163  0.5441
   61CHL1   H25 6986   5.688   5.390   8.889 -0.7169  0.5540 -2.6610
   61CHL1   C26 6987   5.551   5.557   8.920 -0.0158 -0.0185  0.0038
   61CHL1  H26A 6988   5.571   5.664   8.943 -1.1385  0.5757 -1.6516
   61CHL1  H26B 6989   5.499   5.563   8.821 -3.2285 -0.2425  1.6111
   61CHL1  H26C 6990   5.506   5.497   9.001  1.2697 -0.8150  0.1361
   61CHL1   C27 6991   5.775   5.557   8.779 -0.4189  0.3860 -0.1447
   61CHL1  H27A 6992   5.873   5.506   8.767 -0.6144  0.0979 -0.5282
   61CHL1  H27B 6993   5.725   5.545   8.680 -2.6347 -0.1005  0.9978
   61CHL1  H27C 6994   5.794   5.666   8.791 -1.0272  0.2862  2.0256
   62CHL1    C3 6995   6.616   2.188  10.281  0.5339  0.1441  0.3222
   62CHL1    H3 6996   6.505   2.199  10.285  0.4751 -0.8259  1.5743
   62CHL1    O3 6997   6.681   2.194  10.406 -0.1658  0.2238 -0.8100
   62CHL1   H3' 6998   6.620   2.156  10.470  1.9014  0.6925  1.5146
   62CHL1    C4 6999   6.627   2.041  10.230 -0.2685 -0.5152 -0.2171
   62CHL1   H4A 7000   6.735   2.017  10.239 -0.0339 -0.2816 -2.1056
   62CHL1   H4B 7001   6.579   1.972  10.302 -1.0484 -0.1305 -0.3674
   62CHL1    C5 7002   6.590   2.014  10.083  0.2205 -0.6552 -0.5899
   62CHL1    C6 7003   6.496   1.922  10.052 -0.0615  0.0412 -0.7445
   62CHL1    H6 7004   6.446   1.876  10.138 -1.2174  0.8000 -1.0054
   62CHL1    C7 7005   6.456   1.888   9.913  0.3903  0.2305  0.7187
   62CHL1   H7A 7006   6.443   1.779   9.894  2.3690  0.5010 -2.4504
   62CHL1   H7B 7007   6.358   1.937   9.893  1.5308  2.1549 -0.2258
   62CHL1    C8 7008   6.553   1.948   9.807 -0.6604 -0.4583  0.2677
   62CHL1    H8 7009   6.648   1.891   9.819 -0.0353  0.3539 -0.7247
   62CHL1   C14 7010   6.493   1.949   9.668 -0.1274 -0.4326 -0.0179
   62CHL1   H14 7011   6.404   2.014   9.680 -0.0983  0.0958 -2.3413
   62CHL1   C15 7012   6.442   1.813   9.612 -0.6089  0.4777  0.5253
   62CHL1  H15A 7013   6.515   1.730   9.619 -1.0115  0.0187 -0.6883
   62CHL1  H15B 7014   6.350   1.781   9.666 -0.8155  0.8535  0.3985
   62CHL1   C16 7015   6.415   1.839   9.465 -0.5488 -0.7271  0.3473
   62CHL1  H16A 7016   6.460   1.772   9.390 -1.5348 -1.7954  0.7040
   62CHL1  H16B 7017   6.307   1.850   9.439 -0.2250  2.5102  0.1739
   62CHL1   C17 7018   6.478   1.984   9.445  0.4666 -0.6133 -0.2165
   62CHL1   H17 7019   6.397   2.053   9.476  1.2526  1.5031 -2.6844
   62CHL1   C13 7020   6.571   2.014   9.561  0.1096 -0.0840 -0.2514
   62CHL1   C18 7021   6.714   1.952   9.559 -0.4415 -0.1367 -0.1883
   62CHL1  H18A 7022   6.703   1.849   9.520 -0.1493 -0.5866  0.9213
   62CHL1  H18B 7023   6.779   2.003   9.484 -0.1761  1.0228  0.8119
   62CHL1  H18C 7024   6.777   1.963   9.649 -1.5443  2.3332  0.3323
   62CHL1   C12 7025   6.596   2.162   9.597 -0.1211  0.4655  0.5930
   62CHL1  H12A 7026   6.664   2.198   9.517  2.8423 -2.0400  1.9002
   62CHL1  H12B 7027   6.504   2.225   9.594  0.3708  1.0951 -1.3401
   62CHL1   C11 7028   6.652   2.184   9.737 -0.2167 -1.0120 -0.4527
   62CHL1  H11A 7029   6.760   2.159   9.749  0.1367 -0.2670 -2.0333
   62CHL1  H11B 7030   6.651   2.293   9.759  0.6733 -0.8607 -1.1145
   62CHL1    C9 7031   6.582   2.094   9.845 -0.3681  0.2821  0.3731
   62CHL1    H9 7032   6.485   2.146   9.857  0.6974  3.3622 -3.2225
   62CHL1   C10 7033   6.651   2.108   9.982 -0.0586  0.3085  0.0599
   62CHL1   C19 7034   6.801   2.065   9.984 -0.4433  0.3920  0.4525
   62CHL1  H19A 7035   6.812   1.955   9.972  0.3407  0.8563 -3.8488
   62CHL1  H19B 7036   6.861   2.127   9.913 -0.1464  0.1381  0.4823
   62CHL1  H19C 7037   6.844   2.094  10.082  0.4465 -1.4017  0.6033
   62CHL1    C1 7038   6.632   2.258  10.029 -0.1352 -0.5001  0.2681
   62CHL1   H1A 7039   6.680   2.328   9.956  0.4092 -0.8215  0.3181
   62CHL1   H1B 7040   6.522   2.271  10.026  0.1179  2.3657  1.3152
   62CHL1    C2 7041   6.682   2.278  10.176 -0.8825 -0.4722 -0.0264
   62CHL1   H2A 7042   6.656   2.381  10.207  0.1845 -0.7342  1.8734
   62CHL1   H2B 7043   6.791   2.254  10.180 -0.7347  0.1595 -0.3148
   62CHL1   C20 7044   6.525   2.023   9.303  0.1349 -0.1318 -0.4503
   62CHL1   H20 7045   6.586   2.116   9.304  2.5087 -1.6612  0.2478
   62CHL1   C21 7046   6.398   2.054   9.218 -0.3128  0.4607 -0.4095
   62CHL1  H21A 7047   6.356   2.154   9.242 -0.0322  0.4541  0.0916
   62CHL1  H21B 7048   6.319   1.977   9.224 -0.3175  0.4528 -0.5622
   62CHL1  H21C 7049   6.425   2.072   9.111  0.0072  0.4778 -0.3231
   62CHL1   C22 7050   6.607   1.915   9.229 -0.2314  0.1829  0.0447
   62CHL1  H22A 7051   6.668   1.859   9.303 -1.6293 -0.8641  0.4071
   62CHL1  H22B 7052   6.541   1.842   9.177 -0.2320  1.0114 -1.1364
   62CHL1   C23 7053   6.708   1.981   9.137 -0.4499 -0.9901  0.1737
   62CHL1  H23A 7054   6.666   2.078   9.102  1.7235  0.4650  1.5067
   62CHL1  H23B 7055   6.804   2.002   9.187 -0.1249  1.0391 -1.2469
   62CHL1   C24 7056   6.735   1.903   9.002  0.6951 -0.0838 -0.1651
   62CHL1  H24A 7057   6.790   1.809   9.020  0.6884 -0.4709 -2.0240
   62CHL1  H24B 7058   6.637   1.865   8.966 -0.2271  1.1392  0.9902
   62CHL1   C25 7059   6.811   1.976   8.893 -0.4664 -0.4024 -0.3030
   62CHL1   H25 7060   6.765   2.072   8.865 -1.3198 -0.8329 -0.3826
   62CHL1   C26 7061   6.954   2.012   8.935 -0.2598 -0.9593  0.0770
   62CHL1  H26A 7062   6.947   2.074   9.026  2.2694  0.7043 -0.7854
   62CHL1  H26B 7063   7.019   1.921   8.933  1.9508  0.5834 -1.1675
   62CHL1  H26C 7064   6.997   2.074   8.853  0.2359 -0.4100  0.7465
   62CHL1   C27 7065   6.829   1.881   8.771  0.2714  0.0119 -0.6462
   62CHL1  H27A 7066   6.730   1.866   8.722 -0.8924  1.8433  1.0582
   62CHL1  H27B 7067   6.893   1.931   8.695  2.4908 -0.6811  0.7198
   62CHL1  H27C 7068   6.881   1.788   8.801  1.7324  0.4524 -1.7379
   63CHL1    C3 7069   2.034   2.833  10.203  0.1094  0.0478  0.3073
   63CHL1    H3 7070   1.969   2.750  10.167 -0.7821  0.3843  1.1079
   63CHL1    O3 7071   2.040   2.818  10.344  0.4051 -0.4347 -0.3401
   63CHL1   H3' 7072   1.973   2.871  10.387  0.9726 -0.0192  0.0449
   63CHL1    C4 7073   2.167   2.815  10.139 -0.8827 -0.3142 -0.0293
   63CHL1   H4A 7074   2.222   2.905  10.173  0.0065 -0.6370 -0.6027
   63CHL1   H4B 7075   2.222   2.727  10.177  3.6523  2.7771  0.9805
   63CHL1    C5 7076   2.143   2.828   9.990 -0.1867 -0.3047  0.6375
   63CHL1    C6 7077   2.184   2.726   9.918 -0.6136 -0.1355  0.5080
   63CHL1    H6 7078   2.246   2.646   9.962  2.2824  1.1312 -1.0985
   63CHL1    C7 7079   2.169   2.725   9.763 -0.4319  0.5148  0.2104
   63CHL1   H7A 7080   2.263   2.686   9.720  0.4928  0.2934  2.3676
   63CHL1   H7B 7081   2.096   2.647   9.734 -0.5531  1.0209 -0.8890
   63CHL1    C8 7082   2.130   2.855   9.691 -0.2816 -0.1200  0.0878
   63CHL1    H8 7083   2.219   2.921   9.682 -0.3027 -0.3220 -1.7643
   63CHL1   C14 7084   2.068   2.820   9.557  0.6759  0.1363  0.6691
   63CHL1   H14 7085   1.970   2.771   9.577  1.9405 -2.4739  0.6642
   63CHL1   C15 7086   2.149   2.735   9.454 -0.4748  0.3387  0.6065
   63CHL1  H15A 7087   2.255   2.765   9.465 -0.4642 -0.1061  1.8088
   63CHL1  H15B 7088   2.138   2.624   9.461 -1.1311  0.4482  1.4555
   63CHL1   C16 7089   2.080   2.770   9.313  0.4190  0.6336 -0.1487
   63CHL1  H16A 7090   2.162   2.803   9.246  0.7750 -0.0546 -0.0559
   63CHL1  H16B 7091   2.024   2.685   9.269  1.2790 -0.1642  0.2844
   63CHL1   C17 7092   1.976   2.882   9.343 -0.4928  0.3268 -0.7048
   63CHL1   H17 7093   1.883   2.825   9.365  0.8427 -1.2528  1.0229
   63CHL1   C13 7094   2.026   2.948   9.473 -0.7877 -0.7253  0.6905
   63CHL1   C18 7095   2.143   3.041   9.444 -0.6854  0.5027 -0.5111
   63CHL1  H18A 7096   2.118   3.116   9.366 -1.9155  2.0607  1.3579
   63CHL1  H18B 7097   2.177   3.099   9.532 -0.8509  1.5398 -1.1219
   63CHL1  H18C 7098   2.231   2.987   9.403 -0.9334 -0.7163  0.5546
   63CHL1   C12 7099   1.926   3.019   9.561 -0.3220 -0.7152 -0.4554
   63CHL1  H12A 7100   1.886   3.106   9.506 -1.1776  0.7206  2.3302
   63CHL1  H12B 7101   1.845   2.943   9.559 -1.7182  0.7759 -1.5240
   63CHL1   C11 7102   1.970   3.058   9.702 -0.4332 -0.7108 -0.1370
   63CHL1  H11A 7103   2.040   3.144   9.709 -0.7241 -0.4294 -0.6552
   63CHL1  H11B 7104   1.884   3.100   9.759  1.0141  1.4480  0.5540
   63CHL1    C9 7105   2.025   2.928   9.778  0.4778 -0.1508 -0.2479
   63CHL1    H9 7106   1.932   2.867   9.779  1.1864 -1.3605  4.4237
   63CHL1   C10 7107   2.060   2.944   9.936  0.5065 -0.0814 -0.2901
   63CHL1   C19 7108   2.149   3.073   9.945 -0.2543 -0.1978  0.2776
   63CHL1  H19A 7109   2.068   3.147   9.928 -0.3472 -0.6270 -1.2026
   63CHL1  H19B 7110   2.197   3.085  10.045 -2.0142 -1.0284  1.2378
   63CHL1  H19C 7111   2.219   3.103   9.864 -2.4317 -0.6436 -1.8001
   63CHL1    C1 7112   1.935   2.972  10.021 -0.7735  0.4534  0.2869
   63CHL1   H1A 7113   1.877   3.063   9.995  1.5825  1.7344 -0.6914
   63CHL1   H1B 7114   1.865   2.890   9.996 -2.5011  1.9385  0.1391
   63CHL1    C2 7115   1.954   2.963  10.170 -0.5527 -0.5009  0.3443
   63CHL1   H2A 7116   1.860   2.963  10.229  0.2599  0.5972  1.6846
   63CHL1   H2B 7117   2.001   3.059  10.200 -3.5220  0.8664  0.7870
   63CHL1   C20 7118   1.939   2.971   9.220  0.2948  0.3999 -0.0925
   63CHL1   H20 7119   2.033   3.027   9.199  0.2096  0.3019 -0.7290
   63CHL1   C21 7120   1.818   3.068   9.257  0.7112 -0.6801 -0.2190
   63CHL1  H21A 7121   1.869   3.150   9.311 -0.0588 -1.4814  1.8004
   63CHL1  H21B 7122   1.740   3.026   9.325  0.0440  0.9274  0.0392
   63CHL1  H21C 7123   1.775   3.116   9.167 -1.4094 -1.6162  0.2659
   63CHL1   C22 7124   1.891   2.884   9.105 -0.9062  0.0764 -0.9655
   63CHL1  H22A 7125   1.969   2.816   9.066 -2.8131 -2.5880 -0.2720
   63CHL1  H22B 7126   1.814   2.816   9.147 -0.8788  0.3568 -0.4596
   63CHL1   C23 7127   1.843   2.951   8.969 -0.1723 -0.1452 -0.0528
   63CHL1  H23A 7128   1.737   2.984   8.977  0.4220  2.3567 -1.9286
   63CHL1  H23B 7129   1.918   3.027   8.939 -0.8889  0.9672  0.9229
   63CHL1   C24 7130   1.836   2.839   8.857 -0.6316 -0.0017 -0.0740
   63CHL1  H24A 7131   1.936   2.796   8.833 -0.4233  0.7911 -0.6345
   63CHL1  H24B 7132   1.781   2.748   8.892  0.1218 -1.1555 -1.8188
   63CHL1   C25 7133   1.757   2.873   8.721  0.1149  0.4239  0.0407
   63CHL1   H25 7134   1.658   2.921   8.739 -0.4133  0.1160 -1.9333
   63CHL1   C26 7135   1.832   2.977   8.640 -0.1739 -0.2330 -0.4181
   63CHL1  H26A 7136   1.777   2.993   8.544 -1.3960 -3.1173 -0.2233
   63CHL1  H26B 7137   1.827   3.074   8.695  3.1140  0.1407 -0.6677
   63CHL1  H26C 7138   1.936   2.943   8.621 -0.2164 -0.9604  0.6284
   63CHL1   C27 7139   1.747   2.753   8.624 -0.4076  0.8059 -0.6652
   63CHL1  H27A 7140   1.841   2.717   8.577 -0.1277  1.7246 -0.8032
   63CHL1  H27B 7141   1.704   2.664   8.676 -0.3454  1.5325  0.6263
   63CHL1  H27C 7142   1.691   2.787   8.534  0.4573  1.6144 -0.9086
   64CHL1    C3 7143   0.539   2.901  10.077 -0.1358 -0.0317  0.2842
   64CHL1    H3 7144   0.464   2.821  10.064  0.7187 -1.0566  1.5717
   64CHL1    O3 7145   0.591   2.916  10.206 -0.1907  0.5089 -0.1505
   64CHL1   H3' 7146   0.521   2.892  10.267  0.7689  1.0055  1.1809
   64CHL1    C4 7147   0.656   2.862   9.981 -0.0344 -0.2521 -0.2400
   64CHL1   H4A 7148   0.746   2.925  10.001 -0.5164  0.5476 -0.5587
   64CHL1   H4B 7149   0.685   2.760  10.014 -2.6545 -0.7191  0.6939
   64CHL1    C5 7150   0.620   2.860   9.835 -0.0944  0.2097 -0.0109
   64CHL1    C6 7151   0.641   2.751   9.760  0.2257 -0.0655  0.3153
   64CHL1    H6 7152   0.690   2.665   9.808  1.0272  0.8979  1.2652
   64CHL1    C7 7153   0.612   2.736   9.618  0.6077  0.2092 -0.2571
   64CHL1   H7A 7154   0.698   2.689   9.567  0.2738 -0.0203 -0.6134
   64CHL1   H7B 7155   0.533   2.659   9.600  1.5436 -0.2674 -2.4365
   64CHL1    C8 7156   0.568   2.874   9.557 -0.6629 -0.1063 -0.1153
   64CHL1    H8 7157   0.665   2.926   9.544  0.2410 -2.0159 -1.3967
   64CHL1   C14 7158   0.493   2.845   9.427 -0.1717  0.1982 -0.0159
   64CHL1   H14 7159   0.398   2.792   9.451 -1.6294  0.9754 -3.7205
   64CHL1   C15 7160   0.555   2.753   9.317 -0.8778 -0.5500  0.5192
   64CHL1  H15A 7161   0.661   2.784   9.322 -1.3334  1.3545 -0.9180
   64CHL1  H15B 7162   0.550   2.644   9.335  3.2563 -1.1882 -1.5332
   64CHL1   C16 7163   0.479   2.787   9.194  0.0393  0.2798 -0.6459
   64CHL1  H16A 7164   0.554   2.808   9.114  1.3726 -1.6199  0.0582
   64CHL1  H16B 7165   0.401   2.712   9.169 -0.6931  0.8377 -0.0645
   64CHL1   C17 7166   0.398   2.922   9.228  0.2841  0.6331 -0.2264
   64CHL1   H17 7167   0.297   2.882   9.252  0.8028 -0.3827  0.3116
   64CHL1   C13 7168   0.449   2.973   9.364  0.2300 -0.5109 -0.6447
   64CHL1   C18 7169   0.569   3.068   9.320  0.5660  0.3237  0.0461
   64CHL1  H18A 7170   0.641   3.022   9.249  1.4271 -0.3064  1.2963
   64CHL1  H18B 7171   0.528   3.165   9.285  0.7880  0.3122 -0.2492
   64CHL1  H18C 7172   0.628   3.094   9.411  1.2244 -0.8702 -0.0262
   64CHL1   C12 7173   0.359   3.056   9.458 -0.1386 -0.8929  0.5669
   64CHL1  H12A 7174   0.352   3.159   9.416 -6.0263 -0.3537  2.3828
   64CHL1  H12B 7175   0.266   2.995   9.470  0.2718 -1.4086  1.1413
   64CHL1   C11 7176   0.420   3.090   9.585  0.2886 -0.0487  0.1523
   64CHL1  H11A 7177   0.505   3.161   9.579  1.0039 -0.2372  5.3458
   64CHL1  H11B 7178   0.352   3.131   9.662 -0.9990  0.1537 -1.0751
   64CHL1    C9 7179   0.481   2.963   9.652 -0.4944 -0.7652 -0.0291
   64CHL1    H9 7180   0.387   2.909   9.675 -0.3599 -1.1359 -0.3467
   64CHL1   C10 7181   0.543   2.988   9.790  0.0514  0.7653  0.5450
   64CHL1   C19 7182   0.639   3.109   9.777 -0.2540 -0.5311 -0.1736
   64CHL1  H19A 7183   0.691   3.141   9.870  0.5149 -0.2866 -0.6861
   64CHL1  H19B 7184   0.704   3.082   9.691 -0.7307  0.4481 -0.8388
   64CHL1  H19C 7185   0.583   3.201   9.751  1.8924  0.7433 -0.4297
   64CHL1    C1 7186   0.434   3.024   9.887  0.2373 -0.6901  0.1126
   64CHL1   H1A 7187   0.392   3.126   9.871  0.4017 -0.9099 -1.9197
   64CHL1   H1B 7188   0.351   2.951   9.879  0.4677 -0.8237 -1.2205
   64CHL1    C2 7189   0.466   3.030  10.035 -0.6543  0.9143 -0.1383
   64CHL1   H2A 7190   0.376   3.043  10.099  0.0097  1.2385  0.7324
   64CHL1   H2B 7191   0.532   3.117  10.055 -0.3583  0.7082 -0.2138
   64CHL1   C20 7192   0.384   3.022   9.110  0.5552 -0.4042  0.0004
   64CHL1   H20 7193   0.481   3.063   9.075  0.9874 -0.1195  1.5094
   64CHL1   C21 7194   0.285   3.140   9.145 -0.7111 -0.2729 -0.0782
   64CHL1  H21A 7195   0.236   3.165   9.049  1.4195  1.4020 -0.7717
   64CHL1  H21B 7196   0.327   3.235   9.186 -0.8648 -0.6466  0.9745
   64CHL1  H21C 7197   0.199   3.103   9.206  0.5055 -2.0827  0.5842
   64CHL1   C22 7198   0.337   2.937   8.984 -0.5680 -0.4618  0.5389
   64CHL1  H22A 7199   0.400   2.847   8.964 -0.8932 -0.6935  0.5460
   64CHL1  H22B 7200   0.230   2.904   8.988 -1.4481  1.7653 -2.5229
   64CHL1   C23 7201   0.356   3.014   8.852 -0.4103 -0.0802  0.0588
   64CHL1  H23A 7202   0.321   3.120   8.860  0.0775 -0.0451  1.8072
   64CHL1  H23B 7203   0.463   3.041   8.840  0.0734 -1.0445  2.0896
   64CHL1   C24 7204   0.289   2.949   8.727  0.6644  0.2409  0.5962
   64CHL1  H24A 7205   0.305   3.008   8.634 -1.2214  0.3524  0.3284
   64CHL1  H24B 7206   0.331   2.846   8.718 -0.5785 -0.0974 -1.8204
   64CHL1   C25 7207   0.134   2.932   8.722  0.0874 -0.4017  0.6345
   64CHL1   H25 7208   0.099   2.865   8.804 -0.6424 -1.4183 -0.4948
   64CHL1   C26 7209   0.064   3.069   8.724 -0.5061  0.3401  0.3313
   64CHL1  H26A 7210  -0.044   3.062   8.749 -0.1129 -0.2660  1.8917
   64CHL1  H26B 7211   0.115   3.132   8.800  3.3452  0.7818 -2.4374
   64CHL1  H26C 7212   0.085   3.124   8.629  2.2274 -0.7761  0.2357
   64CHL1   C27 7213   0.101   2.855   8.597  0.1588 -0.3195  0.2092
   64CHL1  H27A 7214   0.179   2.781   8.571  0.9356  0.2657  0.8323
   64CHL1  H27B 7215   0.000   2.807   8.598  0.3768 -0.7759  0.4148
   64CHL1  H27C 7216   0.102   2.920   8.507 -0.3874 -0.1113  0.3499
   65CHL1    C3 7217   3.342   6.798  10.240  0.4303 -0.0179 -0.0866
   65CHL1    H3 7218   3.276   6.710  10.255 -1.5836  1.3246 -0.7907
   65CHL1    O3 7219   3.401   6.816  10.364  0.0896  0.0841 -0.6245
   65CHL1   H3' 7220   3.415   6.910  10.361  0.9130 -0.0064  0.2966
   65CHL1    C4 7221   3.443   6.781  10.123  0.0322 -0.0443 -0.3736
   65CHL1   H4A 7222   3.524   6.856  10.136  1.4493 -1.7812  1.0845
   65CHL1   H4B 7223   3.496   6.684  10.133  0.1700 -0.3994 -3.8996
   65CHL1    C5 7224   3.372   6.785   9.993  0.0805  0.1707  0.1221
   65CHL1    C6 7225   3.379   6.679   9.908 -0.4309  0.3350 -0.8130
   65CHL1    H6 7226   3.444   6.592   9.929  0.1992  1.2889  1.3197
   65CHL1    C7 7227   3.311   6.668   9.776  0.1478 -0.7152 -0.5786
   65CHL1   H7A 7228   3.379   6.622   9.701 -0.0659 -0.6478 -0.8168
   65CHL1   H7B 7229   3.222   6.600   9.778 -0.0325 -0.4629  0.3843
   65CHL1    C8 7230   3.269   6.807   9.727  0.3783 -0.3415 -0.6204
   65CHL1    H8 7231   3.358   6.864   9.691 -0.2432  1.1198  0.0928
   65CHL1   C14 7232   3.188   6.796   9.597  0.0559  0.1536 -0.0066
   65CHL1   H14 7233   3.105   6.727   9.621  2.1531 -2.4723  0.0342
   65CHL1   C15 7234   3.252   6.721   9.474 -0.2986 -0.2293 -0.3936
   65CHL1  H15A 7235   3.358   6.754   9.465 -0.4034  0.0837 -0.5022
   65CHL1  H15B 7236   3.248   6.611   9.490  2.6560 -0.2898  0.2587
   65CHL1   C16 7237   3.161   6.762   9.359 -0.2035  0.6588 -0.0559
   65CHL1  H16A 7238   3.233   6.799   9.283  1.2176  0.6942  1.2679
   65CHL1  H16B 7239   3.105   6.673   9.325  0.3893  1.0168 -2.0814
   65CHL1   C17 7240   3.058   6.871   9.413 -0.1682  0.6416  0.2689
   65CHL1   H17 7241   2.974   6.804   9.444  2.5254 -2.6738  0.6137
   65CHL1   C13 7242   3.123   6.922   9.541  0.1040 -0.3525  0.7371
   65CHL1   C18 7243   3.236   7.027   9.487 -0.4535  0.1534 -0.3868
   65CHL1  H18A 7244   3.292   6.986   9.401 -0.5439 -0.7334 -0.0283
   65CHL1  H18B 7245   3.187   7.123   9.462  2.2281  2.4443  2.6597
   65CHL1  H18C 7246   3.304   7.052   9.572 -0.4969 -4.1203  1.0248
   65CHL1   C12 7247   3.031   6.989   9.649  0.0993 -0.0266 -0.2459
   65CHL1  H12A 7248   2.992   7.086   9.613 -0.2615 -0.5689 -1.3294
   65CHL1  H12B 7249   2.940   6.925   9.652 -0.9899  1.3624 -2.7293
   65CHL1   C11 7250   3.101   7.000   9.787  0.3711  0.3040 -0.1981
   65CHL1  H11A 7251   3.182   7.077   9.785  0.4039  0.2559 -0.6455
   65CHL1  H11B 7252   3.031   7.033   9.867 -0.8130  0.6465 -1.3793
   65CHL1    C9 7253   3.188   6.877   9.837 -0.2127 -0.5649 -0.4810
   65CHL1    H9 7254   3.110   6.801   9.860 -0.4721 -0.7988 -2.0408
   65CHL1   C10 7255   3.271   6.904   9.965  0.7234  0.3800 -0.4524
   65CHL1   C19 7256   3.373   7.019   9.949  0.1113  0.1730  0.6524
   65CHL1  H19A 7257   3.442   7.022   9.862  2.7034  0.2205  2.6742
   65CHL1  H19B 7258   3.321   7.117   9.937  0.5170  0.1400 -1.7240
   65CHL1  H19C 7259   3.440   7.021  10.038 -0.8861 -2.0596  1.4759
   65CHL1    C1 7260   3.177   6.919  10.088  0.3389  0.1182  0.2304
   65CHL1   H1A 7261   3.135   7.021  10.075 -0.2867 -0.1669 -0.0136
   65CHL1   H1B 7262   3.088   6.853  10.077  0.0629  0.5726 -0.3343
   65CHL1    C2 7263   3.250   6.920  10.222 -0.0207 -1.3077 -0.6930
   65CHL1   H2A 7264   3.182   6.939  10.308 -0.1720 -2.1208 -0.6294
   65CHL1   H2B 7265   3.318   7.008  10.222 -1.0723 -0.3152  4.4218
   65CHL1   C20 7266   3.002   6.970   9.305 -0.1623  0.6027 -0.3403
   65CHL1   H20 7267   3.090   7.017   9.255 -0.2721  2.3098  1.0085
   65CHL1   C21 7268   2.914   7.076   9.362  0.0012  0.3416 -0.6681
   65CHL1  H21A 7269   2.975   7.148   9.422 -0.6361  1.6567 -1.5640
   65CHL1  H21B 7270   2.845   7.026   9.433 -0.4680  1.8895 -0.0030
   65CHL1  H21C 7271   2.858   7.121   9.277 -1.6949 -1.5129 -0.5567
   65CHL1   C22 7272   2.939   6.891   9.187 -0.2671 -0.2897  0.1321
   65CHL1  H22A 7273   2.996   6.798   9.167 -1.0883 -0.6506 -0.5390
   65CHL1  H22B 7274   2.831   6.869   9.199 -0.3002 -0.0241  0.3183
   65CHL1   C23 7275   2.953   6.974   9.057  0.4843 -0.3066  0.0780
   65CHL1  H23A 7276   2.898   7.071   9.069 -2.8975 -1.9319 -1.3508
   65CHL1  H23B 7277   3.059   6.998   9.034 -0.2303  0.7061 -2.3663
   65CHL1   C24 7278   2.923   6.902   8.917  0.2379 -0.1074 -0.5691
   65CHL1  H24A 7279   2.993   6.815   8.914 -0.4066 -0.7448  2.0029
   65CHL1  H24B 7280   2.818   6.865   8.918  0.0395  0.4445  1.3443
   65CHL1   C25 7281   2.944   6.992   8.796 -0.3904 -0.0501 -0.8577
   65CHL1   H25 7282   2.892   7.086   8.825  1.7160  0.8168  0.2136
   65CHL1   C26 7283   3.086   7.015   8.764 -0.0495  0.3920  0.2998
   65CHL1  H26A 7284   3.139   7.083   8.834  1.3389  0.2355 -0.5663
   65CHL1  H26B 7285   3.145   6.920   8.765  0.4283  0.6848  0.0687
   65CHL1  H26C 7286   3.095   7.060   8.663  0.3751  0.5602  0.4140
   65CHL1   C27 7287   2.865   6.934   8.680  0.7236  0.2513  0.1887
   65CHL1  H27A 7288   2.869   7.004   8.594 -1.3569  1.8274  1.3441
   65CHL1  H27B 7289   2.911   6.845   8.633 -2.3980 -0.7112 -1.1651
   65CHL1  H27C 7290   2.759   6.920   8.708  0.6117  0.8405  0.0612
   66CHL1    C3 7291   0.969   4.796  10.635  1.0659 -0.3788  0.0792
   66CHL1    H3 7292   0.914   4.709  10.677  2.9206 -1.9422 -0.6411
   66CHL1    O3 7293   1.010   4.868  10.751  0.1292  0.4684  0.2275
   66CHL1   H3' 7294   0.940   4.864  10.816  0.0797  1.1800  0.2201
   66CHL1    C4 7295   1.086   4.729  10.565  0.1530  0.3606  0.6586
   66CHL1   H4A 7296   1.156   4.810  10.535 -0.3865  0.6876  0.2759
   66CHL1   H4B 7297   1.138   4.653  10.627  0.6917 -0.7407 -1.0923
   66CHL1    C5 7298   1.047   4.665  10.436  0.1383  0.5857  0.0010
   66CHL1    C6 7299   1.081   4.537  10.408 -0.0408 -0.1733 -0.1646
   66CHL1    H6 7300   1.134   4.476  10.482 -0.0007  0.0881  0.0230
   66CHL1    C7 7301   1.062   4.474  10.275  0.5395 -0.1615  0.2967
   66CHL1   H7A 7302   1.149   4.412  10.245  2.2237  1.4493  1.7705
   66CHL1   H7B 7303   0.975   4.406  10.286  2.2286 -2.0288  2.3835
   66CHL1    C8 7304   1.020   4.576  10.161  0.0964 -0.2970 -0.3121
   66CHL1    H8 7305   1.108   4.640  10.138  0.8553 -0.5278  1.9295
   66CHL1   C14 7306   0.975   4.504  10.039  1.5679 -0.1879 -0.1746
   66CHL1   H14 7307   0.891   4.438  10.069  1.4208 -0.6479 -1.5259
   66CHL1   C15 7308   1.081   4.407   9.982 -0.4403 -0.1242 -0.1102
   66CHL1  H15A 7309   1.177   4.463   9.982 -0.2506 -0.4490 -0.5455
   66CHL1  H15B 7310   1.088   4.317  10.047  2.4952  0.5086  0.5082
   66CHL1   C16 7311   1.024   4.381   9.841  0.2183 -0.4078 -0.1197
   66CHL1  H16A 7312   1.106   4.413   9.773 -0.8114  0.4913 -0.9557
   66CHL1  H16B 7313   0.991   4.278   9.815  0.3106 -0.3671 -0.4045
   66CHL1   C17 7314   0.898   4.480   9.816 -0.6109  0.2900  0.4358
   66CHL1   H17 7315   0.807   4.426   9.848 -1.4451  1.8654  0.7959
   66CHL1   C13 7316   0.921   4.589   9.920  0.0601  0.4996  0.3459
   66CHL1   C18 7317   1.037   4.683   9.878  0.2382 -0.2371  0.5956
   66CHL1  H18A 7318   1.064   4.755   9.958 -2.4195  0.0948  1.2347
   66CHL1  H18B 7319   1.129   4.628   9.848  0.5056 -1.5737  3.6503
   66CHL1  H18C 7320   1.001   4.736   9.787  1.6572 -2.1615 -1.1439
   66CHL1   C12 7321   0.796   4.662   9.974  0.2691 -0.0982 -0.3937
   66CHL1  H12A 7322   0.753   4.722   9.891 -0.5775 -1.6277 -1.0697
   66CHL1  H12B 7323   0.714   4.592   9.999  0.2226  0.2517  0.4556
   66CHL1   C11 7324   0.840   4.749  10.101  0.4309 -0.0404 -1.3542
   66CHL1  H11A 7325   0.899   4.833  10.059 -0.0290  2.0444  2.0570
   66CHL1  H11B 7326   0.748   4.773  10.157  1.4125  0.0190  0.2447
   66CHL1    C9 7327   0.911   4.668  10.215 -0.3204  0.7429  0.1650
   66CHL1    H9 7328   0.829   4.611  10.264 -0.1654  0.4998  0.1371
   66CHL1   C10 7329   0.968   4.750  10.334  0.7154  0.2110  0.4032
   66CHL1   C19 7330   1.069   4.851  10.277 -0.6151 -0.3879  1.2882
   66CHL1  H19A 7331   1.025   4.933  10.216  0.9045 -1.1498 -0.8940
   66CHL1  H19B 7332   1.126   4.905  10.356  0.2195  1.3788 -0.4777
   66CHL1  H19C 7333   1.152   4.806  10.219 -1.9560  1.8796 -2.5906
   66CHL1    C1 7334   0.852   4.825  10.416 -0.0919  0.2867 -0.2238
   66CHL1   H1A 7335   0.798   4.889  10.343  0.5131 -1.0556 -1.8679
   66CHL1   H1B 7336   0.775   4.749  10.441 -0.4058  0.3802 -0.9013
   66CHL1    C2 7337   0.899   4.892  10.541  0.5865 -0.1119 -0.4367
   66CHL1   H2A 7338   0.810   4.926  10.597  1.4312 -0.2489  1.0150
   66CHL1   H2B 7339   0.956   4.986  10.525  1.4247 -0.1925  1.8569
   66CHL1   C20 7340   0.881   4.522   9.666 -0.2516  0.4514 -0.4585
   66CHL1   H20 7341   0.973   4.568   9.624  1.3023 -1.8048  0.3680
   66CHL1   C21 7342   0.762   4.619   9.647 -0.3073 -0.1864 -0.4462
   66CHL1  H21A 7343   0.778   4.717   9.697  0.0693 -0.8719  0.7830
   66CHL1  H21B 7344   0.667   4.583   9.691 -0.2251 -1.4530 -1.2783
   66CHL1  H21C 7345   0.744   4.636   9.538 -3.7283  0.0765  0.1213
   66CHL1   C22 7346   0.868   4.404   9.568 -0.1927 -0.0898  0.2159
   66CHL1  H22A 7347   0.935   4.321   9.600 -1.7293 -0.4061  2.7109
   66CHL1  H22B 7348   0.763   4.372   9.585 -0.6174  0.8157 -0.6422
   66CHL1   C23 7349   0.890   4.436   9.422 -0.1576 -0.9143 -0.6915
   66CHL1  H23A 7350   0.815   4.514   9.398  1.7877  0.9132 -1.0368
   66CHL1  H23B 7351   0.990   4.479   9.397 -0.1232 -0.0275  0.9015
   66CHL1   C24 7352   0.884   4.313   9.330  0.1153  0.9551 -0.3912
   66CHL1  H24A 7353   0.967   4.249   9.368 -1.0620 -0.2212  0.2752
   66CHL1  H24B 7354   0.784   4.267   9.346  1.4671 -1.4628  1.4301
   66CHL1   C25 7355   0.910   4.339   9.179 -0.2441  0.7586  0.1182
   66CHL1   H25 7356   1.009   4.388   9.169  0.4029 -0.4536  0.5446
   66CHL1   C26 7357   0.914   4.207   9.106  0.5351 -0.8826 -0.4427
   66CHL1  H26A 7358   0.830   4.139   9.135  0.7825 -0.9278  0.1683
   66CHL1  H26B 7359   0.895   4.231   8.999 -2.4736  0.0642  0.2366
   66CHL1  H26C 7360   1.011   4.159   9.130  0.8176  0.5401  1.3701
   66CHL1   C27 7361   0.798   4.436   9.114  0.5007  0.2292 -0.1973
   66CHL1  H27A 7362   0.803   4.538   9.158  0.0630 -0.0313  0.4687
   66CHL1  H27B 7363   0.835   4.457   9.011  0.2918  1.0920 -0.1034
   66CHL1  H27C 7364   0.694   4.397   9.108  0.2493  0.7142  0.8959
   67CHL1    C3 7365   5.188   6.058  10.160  0.4107  0.1009  0.3037
   67CHL1    H3 7366   5.078   6.040  10.151 -0.1982  3.7973 -0.2068
   67CHL1    O3 7367   5.230   5.998  10.286 -0.0832 -0.1954  0.0893
   67CHL1   H3' 7368   5.191   5.911  10.299 -0.4157 -0.0792 -0.1180
   67CHL1    C4 7369   5.268   6.001  10.045 -0.5720  0.2419  0.2683
   67CHL1   H4A 7370   5.375   6.007  10.074  0.1400 -1.4320 -1.8904
   67CHL1   H4B 7371   5.245   5.892  10.042  0.3536  0.0297  0.7050
   67CHL1    C5 7372   5.240   6.074   9.913 -0.2568 -0.6146 -0.2221
   67CHL1    C6 7373   5.194   6.009   9.803 -0.0663  1.2527  0.1165
   67CHL1    H6 7374   5.178   5.901   9.813  2.2259  1.1010  2.7480
   67CHL1    C7 7375   5.175   6.076   9.673  0.0517 -0.5809  0.6268
   67CHL1   H7A 7376   5.226   6.019   9.592  0.4118  1.7779 -0.8592
   67CHL1   H7B 7377   5.066   6.074   9.650 -0.1534 -1.3026  1.6115
   67CHL1    C8 7378   5.228   6.225   9.668 -0.5613  0.4055  0.0547
   67CHL1    H8 7379   5.337   6.208   9.649  0.0310  3.4724  0.3472
   67CHL1   C14 7380   5.177   6.290   9.547 -0.0155  0.1172 -0.1078
   67CHL1   H14 7381   5.067   6.286   9.565  0.2376  2.0224  2.0485
   67CHL1   C15 7382   5.177   6.221   9.407  0.6678  0.3571  0.2456
   67CHL1  H15A 7383   5.268   6.165   9.376 -0.6822 -1.5163 -0.4438
   67CHL1  H15B 7384   5.090   6.153   9.399 -0.8119  1.8565  2.8436
   67CHL1   C16 7385   5.179   6.347   9.314 -0.4073  1.1052 -0.2785
   67CHL1  H16A 7386   5.283   6.347   9.276 -1.4312 -1.8300 -3.2649
   67CHL1  H16B 7387   5.115   6.336   9.224 -1.7692  0.7848  0.7043
   67CHL1   C17 7388   5.151   6.475   9.403  0.5412  0.3560  1.0506
   67CHL1   H17 7389   5.042   6.476   9.423  0.3470  0.1755  0.0604
   67CHL1   C13 7390   5.214   6.439   9.536 -0.2243 -0.7552  0.3492
   67CHL1   C18 7391   5.369   6.463   9.531  0.3061 -0.5508  0.7805
   67CHL1  H18A 7392   5.412   6.418   9.439  0.5790  3.5017 -1.1809
   67CHL1  H18B 7393   5.393   6.571   9.528  1.5823 -0.8475 -0.1866
   67CHL1  H18C 7394   5.420   6.416   9.618  0.8792 -1.0537  0.1837
   67CHL1   C12 7395   5.156   6.513   9.666 -0.8112  0.2187 -0.5046
   67CHL1  H12A 7396   5.186   6.620   9.669  0.5400 -0.1738  2.2164
   67CHL1  H12B 7397   5.046   6.510   9.654 -1.1272  3.5050  0.9957
   67CHL1   C11 7398   5.210   6.446   9.791 -0.1367  0.0535 -0.3007
   67CHL1  H11A 7399   5.309   6.491   9.815  0.4387 -1.7879  0.8452
   67CHL1  H11B 7400   5.150   6.484   9.877 -1.2842 -3.4413  0.4957
   67CHL1    C9 7401   5.195   6.292   9.801  0.6755 -0.0526  0.2011
   67CHL1    H9 7402   5.085   6.284   9.814  0.7757 -0.5202  0.7462
   67CHL1   C10 7403   5.259   6.230   9.924  0.0122 -1.1985 -0.6700
   67CHL1   C19 7404   5.414   6.272   9.931 -0.4494  0.2939  0.0893
   67CHL1  H19A 7405   5.475   6.241   9.843  1.8694 -1.0377  2.1144
   67CHL1  H19B 7406   5.417   6.383   9.936 -1.6619  0.2608  1.8550
   67CHL1  H19C 7407   5.454   6.229  10.025 -0.4784  0.6598  0.2717
   67CHL1    C1 7408   5.182   6.290  10.048 -0.4854  0.5168 -0.1111
   67CHL1   H1A 7409   5.210   6.395  10.069  1.6858  0.3497 -1.9713
   67CHL1   H1B 7410   5.073   6.282  10.024 -0.4067  0.7338 -0.5485
   67CHL1    C2 7411   5.206   6.209  10.178 -0.1263 -1.4167  0.0872
   67CHL1   H2A 7412   5.134   6.249  10.252 -0.2306 -1.0853 -0.1938
   67CHL1   H2B 7413   5.311   6.232  10.209  0.1355  1.4939 -2.7756
   67CHL1   C20 7414   5.187   6.607   9.337 -0.2216 -0.2443  0.5859
   67CHL1   H20 7415   5.216   6.674   9.421  0.5155 -0.1669  0.2675
   67CHL1   C21 7416   5.069   6.681   9.269 -0.9717 -0.1921 -0.1496
   67CHL1  H21A 7417   4.971   6.683   9.321 -0.2964  1.8532  1.0741
   67CHL1  H21B 7418   5.044   6.614   9.184 -0.8843 -1.3344  0.7097
   67CHL1  H21C 7419   5.093   6.785   9.239  1.1189 -0.9874 -1.3313
   67CHL1   C22 7420   5.309   6.598   9.243  0.8162  0.3078 -0.6770
   67CHL1  H22A 7421   5.397   6.538   9.272 -0.5333 -2.4230 -2.0475
   67CHL1  H22B 7422   5.273   6.547   9.151 -2.1559  0.1047  0.5313
   67CHL1   C23 7423   5.361   6.735   9.185  0.9157  0.1094 -0.5726
   67CHL1  H23A 7424   5.282   6.782   9.123  0.7644  0.3927 -0.1681
   67CHL1  H23B 7425   5.373   6.814   9.262 -0.3742 -1.6811  1.5021
   67CHL1   C24 7426   5.497   6.722   9.108 -0.0268 -0.2373 -0.4330
   67CHL1  H24A 7427   5.546   6.639   9.163 -2.4098 -1.0948  0.4815
   67CHL1  H24B 7428   5.474   6.680   9.008  0.3493  0.6679 -0.9000
   67CHL1   C25 7429   5.575   6.855   9.094  1.2340  0.1649 -0.2354
   67CHL1   H25 7430   5.654   6.831   9.019  0.6635 -2.3828 -0.0596
   67CHL1   C26 7431   5.481   6.966   9.045 -0.4870 -0.1863 -0.9363
   67CHL1  H26A 7432   5.418   6.928   8.962 -0.8788  1.3715 -1.3731
   67CHL1  H26B 7433   5.412   6.996   9.126 -0.3203 -0.5171 -0.6723
   67CHL1  H26C 7434   5.546   7.053   9.020 -1.0457  0.8589  1.1282
   67CHL1   C27 7435   5.629   6.899   9.232  0.6457 -0.3241  0.0118
   67CHL1  H27A 7436   5.538   6.910   9.294 -0.3083  1.3800 -1.6390
   67CHL1  H27B 7437   5.697   6.823   9.275  0.8168  0.1737  0.6225
   67CHL1  H27C 7438   5.680   6.996   9.218  1.2661 -0.8616 -1.6755
   68CHL1    C3 7439   2.946   6.424  10.309 -0.8578 -0.1687  0.1675
   68CHL1    H3 7440   2.840   6.454  10.317 -1.0009 -0.6082 -0.0499
   68CHL1    O3 7441   3.004   6.423  10.444 -0.1482  0.1699  0.0095
   68CHL1   H3' 7442   3.004   6.513  10.478  1.4998  0.7293 -1.3192
   68CHL1    C4 7443   2.960   6.291  10.247  0.5560  0.2596  0.1717
   68CHL1   H4A 7444   3.066   6.258  10.259  0.7675  1.1091  0.7245
   68CHL1   H4B 7445   2.909   6.218  10.314  2.3428 -0.9219  0.3074
   68CHL1    C5 7446   2.919   6.287  10.101  0.7970  0.6214 -0.1000
   68CHL1    C6 7447   2.819   6.207  10.061  0.5363 -0.3890 -0.0506
   68CHL1    H6 7448   2.768   6.156  10.143 -3.1291  3.5140  0.2529
   68CHL1    C7 7449   2.749   6.209   9.926 -0.7088 -0.4739 -0.2105
   68CHL1   H7A 7450   2.723   6.106   9.896 -0.7445 -0.6763  0.5161
   68CHL1   H7B 7451   2.653   6.262   9.949  1.1241  2.4856  1.0231
   68CHL1    C8 7452   2.839   6.279   9.821  0.2825 -0.4108 -0.3328
   68CHL1    H8 7453   2.922   6.207   9.803 -2.1250 -3.2456 -0.4345
   68CHL1   C14 7454   2.762   6.313   9.694  0.3370  0.6333  0.6714
   68CHL1   H14 7455   2.676   6.378   9.722  0.1850  0.4544  0.6242
   68CHL1   C15 7456   2.697   6.195   9.617 -0.0192 -0.4686  0.4332
   68CHL1  H15A 7457   2.759   6.102   9.612  1.2005  0.3083  0.7919
   68CHL1  H15B 7458   2.602   6.162   9.664  0.2203 -0.8928  0.6251
   68CHL1   C16 7459   2.668   6.245   9.477  0.1541 -0.3241 -0.0788
   68CHL1  H16A 7460   2.709   6.167   9.410 -0.8984 -0.5779 -0.4336
   68CHL1  H16B 7461   2.558   6.251   9.460  0.2168 -0.3525 -0.4959
   68CHL1   C17 7462   2.742   6.377   9.458  0.3289  0.0248 -0.5696
   68CHL1   H17 7463   2.665   6.450   9.491  0.1666  0.1562 -1.2308
   68CHL1   C13 7464   2.838   6.377   9.581 -0.7099  0.3195  0.2392
   68CHL1   C18 7465   2.967   6.284   9.545  0.1018  0.7015  0.7203
   68CHL1  H18A 7466   2.935   6.184   9.509  1.2587  0.8852 -0.9279
   68CHL1  H18B 7467   3.029   6.343   9.473  0.5472  0.7747  1.1656
   68CHL1  H18C 7468   3.034   6.252   9.628  0.0704 -0.7122  0.2165
   68CHL1   C12 7469   2.886   6.511   9.643  0.9403  0.1350 -0.2551
   68CHL1  H12A 7470   2.946   6.573   9.574 -0.5026  2.1042  0.2180
   68CHL1  H12B 7471   2.792   6.565   9.667  0.3028 -0.8284 -0.5459
   68CHL1   C11 7472   2.968   6.492   9.774  0.0814 -0.2714 -0.7412
   68CHL1  H11A 7473   3.066   6.451   9.743  1.1779  1.1550  0.7428
   68CHL1  H11B 7474   2.990   6.586   9.830 -0.8329  0.3619 -1.4130
   68CHL1    C9 7475   2.895   6.407   9.879  0.0533 -0.4524 -0.0867
   68CHL1    H9 7476   2.812   6.476   9.903  1.7317  1.5130  0.2643
   68CHL1   C10 7477   2.981   6.394  10.009  0.1321  0.6192  0.0440
   68CHL1   C19 7478   3.119   6.333   9.973 -0.1784 -0.0629  0.4086
   68CHL1  H19A 7479   3.171   6.408   9.910 -1.7145  0.6013 -0.0884
   68CHL1  H19B 7480   3.187   6.327  10.060  1.2311 -1.7435 -0.7586
   68CHL1  H19C 7481   3.119   6.237   9.915 -1.9048 -0.5586  1.2126
   68CHL1    C1 7482   3.002   6.530  10.077 -0.2615  0.0230  0.0009
   68CHL1   H1A 7483   3.072   6.597  10.024 -0.7005 -0.6610 -1.4964
   68CHL1   H1B 7484   2.899   6.573  10.074 -0.6291 -0.8600 -0.4255
   68CHL1    C2 7485   3.036   6.526  10.232 -0.1482 -0.1745 -0.0039
   68CHL1   H2A 7486   3.033   6.624  10.284  2.6942  0.5575 -1.1211
   68CHL1   H2B 7487   3.145   6.501  10.233  0.5042  2.4980 -0.3719
   68CHL1   C20 7488   2.774   6.405   9.316  0.3225  0.2870  0.3813
   68CHL1   H20 7489   2.825   6.315   9.275 -0.6831 -1.0825  2.0670
   68CHL1   C21 7490   2.879   6.528   9.313 -0.4255 -0.3061 -0.5333
   68CHL1  H21A 7491   2.978   6.497   9.352  0.7363  2.4815 -1.1338
   68CHL1  H21B 7492   2.839   6.617   9.366  0.3768 -1.3052  1.8620
   68CHL1  H21C 7493   2.900   6.561   9.209  1.1802  0.4890  0.0147
   68CHL1   C22 7494   2.654   6.455   9.238  0.2409 -0.1594 -0.0326
   68CHL1  H22A 7495   2.582   6.371   9.251 -1.5340  1.1630 -1.0287
   68CHL1  H22B 7496   2.620   6.554   9.274  2.3878  0.5429  0.0871
   68CHL1   C23 7497   2.680   6.470   9.088  0.3928  0.3755  0.0351
   68CHL1  H23A 7498   2.728   6.567   9.066  3.3289 -0.4830  2.3178
   68CHL1  H23B 7499   2.743   6.383   9.061  1.4374  1.0441  0.3223
   68CHL1   C24 7500   2.551   6.474   9.007 -0.0883 -0.6160 -0.2553
   68CHL1  H24A 7501   2.502   6.375   9.025 -0.3326 -1.0081 -2.7802
   68CHL1  H24B 7502   2.479   6.550   9.045  1.0818 -0.4832  1.7506
   68CHL1   C25 7503   2.574   6.485   8.853  0.0356 -0.4098  0.0993
   68CHL1   H25 7504   2.671   6.436   8.833 -0.1056 -0.4690 -0.4643
   68CHL1   C26 7505   2.460   6.426   8.770  0.4690  0.1222 -0.2179
   68CHL1  H26A 7506   2.452   6.322   8.808 -0.0932  0.0735 -0.4581
   68CHL1  H26B 7507   2.367   6.477   8.805  1.5901  3.1727 -1.5316
   68CHL1  H26C 7508   2.474   6.436   8.660 -1.7792 -0.3511 -0.5679
   68CHL1   C27 7509   2.593   6.634   8.818  0.0759  0.6509  0.6837
   68CHL1  H27A 7510   2.619   6.648   8.711 -0.0019  1.2329  0.7405
   68CHL1  H27B 7511   2.510   6.707   8.832 -0.4854  0.5146 -1.6198
   68CHL1  H27C 7512   2.683   6.674   8.868 -0.5253  3.1340 -0.1243
   69CHL1    C3 7513   2.015   4.056   6.812 -0.4893 -0.2033  0.2631
   69CHL1    H3 7514   2.094   3.994   6.858  0.2237  2.4197  2.7473
   69CHL1    O3 7515   2.053   4.079   6.671 -0.1160 -0.3833 -0.2800
   69CHL1   H3' 7516   1.974   4.113   6.628  0.1914  1.0617  0.2578
   69CHL1    C4 7517   1.882   3.992   6.813  0.4055 -0.3020 -0.4915
   69CHL1   H4A 7518   1.812   4.063   6.763 -1.2752  0.1202  2.3435
   69CHL1   H4B 7519   1.886   3.905   6.744  1.3912  0.6150 -1.6286
   69CHL1    C5 7520   1.828   3.957   6.955 -0.9022  0.6870  0.5982
   69CHL1    C6 7521   1.787   3.834   6.986  0.6014  0.4752  0.0301
   69CHL1    H6 7522   1.791   3.753   6.911 -1.8759  0.5517 -0.2246
   69CHL1    C7 7523   1.734   3.804   7.123 -0.2087 -0.3726  0.0462
   69CHL1   H7A 7524   1.640   3.745   7.116 -1.1296  1.1802 -0.9764
   69CHL1   H7B 7525   1.806   3.737   7.174  2.0284  1.1559 -1.0134
   69CHL1    C8 7526   1.709   3.928   7.217 -0.0021 -0.1172 -0.2622
   69CHL1    H8 7527   1.616   3.975   7.179  1.3633  1.5279 -1.6734
   69CHL1   C14 7528   1.708   3.878   7.360  0.2389 -0.6531 -0.3206
   69CHL1   H14 7529   1.812   3.847   7.387 -0.1608 -1.9858 -0.2604
   69CHL1   C15 7530   1.616   3.760   7.397 -0.4869  0.5554 -0.1695
   69CHL1  H15A 7531   1.517   3.769   7.348 -0.5546 -0.4991 -0.2366
   69CHL1  H15B 7532   1.680   3.676   7.363 -1.1386  0.2162 -0.5575
   69CHL1   C16 7533   1.608   3.763   7.549 -0.4219  0.3303 -0.5588
   69CHL1  H16A 7534   1.505   3.795   7.576 -0.7014 -0.2828 -0.8821
   69CHL1  H16B 7535   1.643   3.673   7.605 -2.3702 -0.2318 -0.2228
   69CHL1   C17 7536   1.687   3.891   7.594 -0.7309 -0.8022 -0.3288
   69CHL1   H17 7537   1.794   3.866   7.610 -0.5063  0.3595 -0.0216
   69CHL1   C13 7538   1.691   3.984   7.468 -0.2500  0.2545  0.2269
   69CHL1   C18 7539   1.553   4.053   7.447 -0.7146 -0.1689  0.1500
   69CHL1  H18A 7540   1.533   4.123   7.531 -1.2048  0.6261 -0.6238
   69CHL1  H18B 7541   1.546   4.105   7.349  0.3235  0.7021  0.5331
   69CHL1  H18C 7542   1.468   3.982   7.456 -1.3621  0.6122  0.2230
   69CHL1   C12 7543   1.807   4.088   7.450  0.1735  0.1864  0.0340
   69CHL1  H12A 7544   1.793   4.176   7.516  3.0913 -0.5080  1.6551
   69CHL1  H12B 7545   1.899   4.035   7.481 -0.2702 -0.8766 -0.4353
   69CHL1   C11 7546   1.823   4.137   7.306 -0.2826  0.0922  0.5058
   69CHL1  H11A 7547   1.737   4.205   7.288 -0.1194  0.5160  1.2841
   69CHL1  H11B 7548   1.920   4.190   7.300 -1.1225  1.3704 -2.3186
   69CHL1    C9 7549   1.825   4.024   7.194  0.2490  0.4876 -0.3731
   69CHL1    H9 7550   1.911   3.955   7.210 -2.1352 -2.4234  0.3921
   69CHL1   C10 7551   1.836   4.081   7.048 -0.2809 -0.1746 -0.4440
   69CHL1   C19 7552   1.720   4.184   7.016  0.4970 -0.1441  0.3309
   69CHL1  H19A 7553   1.624   4.151   7.059 -0.3156  0.5524 -0.9247
   69CHL1  H19B 7554   1.743   4.279   7.069  0.6965  0.6170 -1.0771
   69CHL1  H19C 7555   1.709   4.201   6.906 -0.0249 -1.5028  0.1646
   69CHL1    C1 7556   1.968   4.156   7.035  0.0556  0.1151  0.1653
   69CHL1   H1A 7557   1.958   4.256   7.084  0.1835 -0.8607  2.2396
   69CHL1   H1B 7558   2.044   4.096   7.090  0.2548  0.0813 -0.1472
   69CHL1    C2 7559   2.007   4.186   6.889 -0.1906 -0.0650 -0.2976
   69CHL1   H2A 7560   2.103   4.240   6.904 -0.3709 -0.0971  1.1359
   69CHL1   H2B 7561   1.929   4.252   6.845 -0.1652  0.6641  0.7201
   69CHL1   C20 7562   1.640   3.937   7.731  0.0839 -0.6035  0.0418
   69CHL1   H20 7563   1.530   3.953   7.725  0.6360  3.5587 -0.2321
   69CHL1   C21 7564   1.721   4.062   7.771  0.6372  0.6313 -0.2057
   69CHL1  H21A 7565   1.682   4.162   7.741 -1.1800 -0.5236 -1.7563
   69CHL1  H21B 7566   1.832   4.062   7.758  0.7173  2.6693  0.2975
   69CHL1  H21C 7567   1.723   4.070   7.881  0.4646 -1.4552 -0.0273
   69CHL1   C22 7568   1.662   3.826   7.840 -0.3641  0.6748  0.6299
   69CHL1  H22A 7569   1.622   3.730   7.800  0.7591 -0.0420  1.1849
   69CHL1  H22B 7570   1.773   3.823   7.848 -0.5000 -0.2520  2.5899
   69CHL1   C23 7571   1.583   3.847   7.968  0.5876  0.2350  0.3840
   69CHL1  H23A 7572   1.593   3.949   8.013 -0.6851  0.0289  1.1347
   69CHL1  H23B 7573   1.478   3.824   7.942  1.1283  0.5320 -2.2002
   69CHL1   C24 7574   1.625   3.755   8.080 -0.7029  0.0688 -0.4017
   69CHL1  H24A 7575   1.608   3.649   8.052 -1.0937  0.1774 -0.5696
   69CHL1  H24B 7576   1.735   3.773   8.082 -0.4332 -1.5591  0.4069
   69CHL1   C25 7577   1.579   3.801   8.218  0.7783 -0.4392  0.8572
   69CHL1   H25 7578   1.469   3.813   8.227  0.7428 -0.1814  0.0901
   69CHL1   C26 7579   1.631   3.691   8.308 -0.4108 -0.6800  0.3408
   69CHL1  H26A 7580   1.742   3.686   8.305 -0.3053  1.6846 -2.2510
   69CHL1  H26B 7581   1.622   3.715   8.416 -0.6438 -0.9812  0.3877
   69CHL1  H26C 7582   1.578   3.594   8.300  0.2020 -1.1430  1.7065
   69CHL1   C27 7583   1.650   3.934   8.261 -0.5275  0.0770  0.0444
   69CHL1  H27A 7584   1.598   4.012   8.202 -0.4205 -0.8128 -1.2326
   69CHL1  H27B 7585   1.642   3.953   8.371  2.5628  1.3897  0.0991
   69CHL1  H27C 7586   1.756   3.937   8.228 -0.4933 -0.8083  0.0726
   70CHL1    C3 7587   1.331   0.915   7.090  0.0623 -0.5606  0.3297
   70CHL1    H3 7588   1.247   0.851   7.124  1.5482 -1.4550  2.4432
   70CHL1    O3 7589   1.330   0.930   6.950 -0.5023 -0.3598  0.2241
   70CHL1   H3' 7590   1.404   0.989   6.933  0.0043 -1.1500 -0.3324
   70CHL1    C4 7591   1.311   1.055   7.151  0.1930  0.5518 -0.2821
   70CHL1   H4A 7592   1.385   1.121   7.102 -1.6706  3.9393  1.2838
   70CHL1   H4B 7593   1.211   1.092   7.122 -1.0294  0.1377  3.1189
   70CHL1    C5 7594   1.332   1.053   7.304 -0.3121  0.3396  0.1471
   70CHL1    C6 7595   1.250   1.117   7.385  0.3808  0.4778 -0.9126
   70CHL1    H6 7596   1.169   1.172   7.333  1.1011  1.0383 -1.4496
   70CHL1    C7 7597   1.258   1.127   7.537  0.6577  0.0442 -0.7302
   70CHL1   H7A 7598   1.254   1.232   7.572 -2.1333 -0.6622  1.1862
   70CHL1   H7B 7599   1.169   1.075   7.579  1.2526  0.4731  1.0859
   70CHL1    C8 7600   1.388   1.063   7.592 -0.4324  0.8498 -0.7614
   70CHL1    H8 7601   1.462   1.145   7.590  1.8298 -0.9789  2.9677
   70CHL1   C14 7602   1.371   1.020   7.740  0.1716  0.3541 -0.0212
   70CHL1   H14 7603   1.298   0.936   7.742 -1.2721  1.5981 -0.2901
   70CHL1   C15 7604   1.312   1.122   7.840  0.6348 -0.5508 -0.2556
   70CHL1  H15A 7605   1.361   1.222   7.833  0.9624 -0.3122  4.0916
   70CHL1  H15B 7606   1.202   1.139   7.844  0.5655 -1.2174  0.5997
   70CHL1   C16 7607   1.346   1.066   7.977 -0.7134 -0.5636 -0.1428
   70CHL1  H16A 7608   1.404   1.140   8.036 -0.2791 -0.1197 -1.1197
   70CHL1  H16B 7609   1.254   1.035   8.030 -0.4385 -2.3419 -0.6682
   70CHL1   C17 7610   1.433   0.938   7.949 -0.5221  0.4982  0.2231
   70CHL1   H17 7611   1.369   0.849   7.934  0.9915 -0.5755 -0.0086
   70CHL1   C13 7612   1.493   0.964   7.807 -0.4347 -0.0858  0.1025
   70CHL1   C18 7613   1.609   1.061   7.814 -0.5690 -0.6317  0.2002
   70CHL1  H18A 7614   1.636   1.091   7.710  0.3840  1.5522  1.0334
   70CHL1  H18B 7615   1.591   1.155   7.870  1.9476  0.1985 -0.2991
   70CHL1  H18C 7616   1.694   1.000   7.852 -0.5992 -0.7236  0.1201
   70CHL1   C12 7617   1.535   0.836   7.729 -0.1323 -0.5536  0.2118
   70CHL1  H12A 7618   1.619   0.782   7.778  0.3453 -1.3000 -1.4007
   70CHL1  H12B 7619   1.449   0.766   7.720 -0.9029  0.2789  1.0031
   70CHL1   C11 7620   1.560   0.876   7.581 -0.6327 -0.3807  0.2175
   70CHL1  H11A 7621   1.650   0.938   7.563 -1.3804  0.6852  0.1035
   70CHL1  H11B 7622   1.578   0.781   7.526  2.2442  0.7716 -0.9383
   70CHL1    C9 7623   1.435   0.942   7.508 -1.1414  0.2229 -0.8380
   70CHL1    H9 7624   1.354   0.867   7.520 -0.0122 -0.8767 -0.0019
   70CHL1   C10 7625   1.446   0.965   7.360 -0.5567  0.2667  0.1871
   70CHL1   C19 7626   1.571   1.057   7.337 -0.2264  0.2200  0.0036
   70CHL1  H19A 7627   1.573   1.146   7.404 -1.7971 -0.7272  1.3392
   70CHL1  H19B 7628   1.665   0.997   7.339  0.0792  0.6906 -0.0582
   70CHL1  H19C 7629   1.576   1.100   7.235  0.7941 -1.2151 -0.5727
   70CHL1    C1 7630   1.451   0.824   7.284 -0.8751  0.7190  0.1317
   70CHL1   H1A 7631   1.538   0.766   7.321 -1.9941 -1.1318 -0.1186
   70CHL1   H1B 7632   1.366   0.761   7.316 -0.1683 -0.3160 -0.0138
   70CHL1    C2 7633   1.453   0.833   7.132  0.7842  0.3740 -0.1900
   70CHL1   H2A 7634   1.459   0.733   7.083 -0.2746 -0.1662  0.7619
   70CHL1   H2B 7635   1.546   0.889   7.109 -0.9291  3.4333  0.1059
   70CHL1   C20 7636   1.525   0.887   8.062  0.6700  0.1192 -0.9205
   70CHL1   H20 7637   1.610   0.829   8.020  0.5641  0.2340 -1.2937
   70CHL1   C21 7638   1.432   0.797   8.136  0.2273 -0.6627  0.0928
   70CHL1  H21A 7639   1.399   0.709   8.076 -0.6977  0.8002 -1.5944
   70CHL1  H21B 7640   1.335   0.847   8.157 -1.2807 -2.5018 -2.1670
   70CHL1  H21C 7641   1.466   0.757   8.233  0.9406 -0.3121 -0.0114
   70CHL1   C22 7642   1.591   0.989   8.156 -0.7358 -0.3839  0.2125
   70CHL1  H22A 7643   1.643   1.073   8.104  1.3558 -0.5223  2.0425
   70CHL1  H22B 7644   1.517   1.041   8.220 -0.8736 -0.6215  0.2450
   70CHL1   C23 7645   1.708   0.919   8.230 -0.3303  0.5137  0.4036
   70CHL1  H23A 7646   1.668   0.826   8.274  1.9123 -1.9056 -2.4542
   70CHL1  H23B 7647   1.777   0.874   8.156  1.3220  2.8645  0.4607
   70CHL1   C24 7648   1.781   1.022   8.316 -0.2550 -0.5738  0.5124
   70CHL1  H24A 7649   1.804   1.110   8.253 -1.6188 -0.6496 -0.1212
   70CHL1  H24B 7650   1.697   1.053   8.381 -0.7349  1.7300 -1.1751
   70CHL1   C25 7651   1.898   0.968   8.403  0.0287  0.2996  0.2441
   70CHL1   H25 7652   1.865   0.864   8.422  2.2129 -0.5988 -0.6489
   70CHL1   C26 7653   2.032   0.958   8.329 -0.3788 -0.0686 -0.9398
   70CHL1  H26A 7654   2.070   1.063   8.324  0.2483 -0.1541  1.4148
   70CHL1  H26B 7655   2.101   0.893   8.386  0.4241  0.6355 -1.0845
   70CHL1  H26C 7656   2.012   0.916   8.228  2.7592 -0.4146 -1.4600
   70CHL1   C27 7657   1.915   1.050   8.534 -0.6228  0.5529  0.4687
   70CHL1  H27A 7658   1.821   1.059   8.592  0.0793  1.0545  1.5416
   70CHL1  H27B 7659   1.992   1.004   8.600 -0.6436  0.8809  0.7268
   70CHL1  H27C 7660   1.944   1.155   8.510 -0.9179  0.4042 -0.5479
   71CHL1    C3 7661   0.625   3.179   6.883 -0.4915  0.2248  0.5657
   71CHL1    H3 7662   0.591   3.275   6.926  0.3416  1.9064 -2.4456
   71CHL1    O3 7663   0.594   3.183   6.747  0.8005  0.3029 -0.1460
   71CHL1   H3' 7664   0.621   3.265   6.706 -2.9432  1.8534  0.3277
   71CHL1    C4 7665   0.769   3.143   6.889 -0.8092  0.3264  0.2799
   71CHL1   H4A 7666   0.795   3.047   6.838 -3.3634 -1.3527  2.0063
   71CHL1   H4B 7667   0.825   3.218   6.829 -0.9078  0.3248  0.1861
   71CHL1    C5 7668   0.819   3.126   7.035 -0.2949 -0.2915  0.1519
   71CHL1    C6 7669   0.915   3.203   7.082  0.1898  0.0962  0.0009
   71CHL1    H6 7670   0.975   3.268   7.017  2.0959 -2.0284 -0.4164
   71CHL1    C7 7671   0.961   3.185   7.224 -0.2334 -0.2225 -0.4497
   71CHL1   H7A 7672   1.071   3.175   7.211 -0.0659  1.1647 -0.0812
   71CHL1   H7B 7673   0.938   3.274   7.286 -1.5774 -0.1346 -1.0578
   71CHL1    C8 7674   0.897   3.060   7.300 -0.1547 -0.8141 -0.4780
   71CHL1    H8 7675   0.956   2.974   7.261  2.8010  1.0278 -0.2018
   71CHL1   C14 7676   0.910   3.069   7.450 -0.1448  0.1610 -0.8930
   71CHL1   H14 7677   0.835   3.147   7.475  0.9581  1.4753 -1.6108
   71CHL1   C15 7678   1.038   3.121   7.516 -0.3120  0.5965 -0.6478
   71CHL1  H15A 7679   1.131   3.083   7.468  0.3576  1.0162  0.2993
   71CHL1  H15B 7680   1.046   3.232   7.519  0.6323  0.5643 -1.5535
   71CHL1   C16 7681   1.028   3.061   7.655 -0.4164  0.0981 -0.3434
   71CHL1  H16A 7682   1.113   2.991   7.674 -0.4581  0.4188  1.0865
   71CHL1  H16B 7683   1.031   3.142   7.731  2.9330  1.3343 -1.7134
   71CHL1   C17 7684   0.886   2.991   7.672 -0.3743 -0.4849  0.0982
   71CHL1   H17 7685   0.815   3.075   7.687 -0.1816 -0.1790 -0.6877
   71CHL1   C13 7686   0.864   2.942   7.526  0.4428 -0.9453 -0.5380
   71CHL1   C18 7687   0.943   2.817   7.503 -0.6178  0.5410 -0.3593
   71CHL1  H18A 7688   0.935   2.783   7.397  0.7074 -0.5517 -0.1172
   71CHL1  H18B 7689   1.054   2.824   7.504 -0.6124  0.7384 -1.3200
   71CHL1  H18C 7690   0.910   2.736   7.572 -0.4946  1.1296  0.3962
   71CHL1   C12 7691   0.718   2.926   7.494  0.6559  0.4523  0.2722
   71CHL1  H12A 7692   0.682   2.839   7.553 -2.0362  1.0910 -0.3345
   71CHL1  H12B 7693   0.665   3.016   7.533  0.6849  0.4924  0.2190
   71CHL1   C11 7694   0.696   2.913   7.342 -0.1567  0.6403 -0.8281
   71CHL1  H11A 7695   0.745   2.818   7.310 -0.2143 -0.0784  1.1380
   71CHL1  H11B 7696   0.589   2.889   7.324  0.7668 -2.7392 -2.2147
   71CHL1    C9 7697   0.749   3.033   7.261  0.0392 -0.3671 -0.4679
   71CHL1    H9 7698   0.695   3.124   7.292  0.9749  0.1509 -0.3566
   71CHL1   C10 7699   0.731   3.027   7.111 -0.4700 -0.8837  0.0679
   71CHL1   C19 7700   0.788   2.889   7.065 -1.1232  0.4452 -0.4358
   71CHL1  H19A 7701   0.736   2.810   7.123 -0.0292  0.1554  0.1563
   71CHL1  H19B 7702   0.784   2.879   6.954 -2.0638  1.7160 -0.5272
   71CHL1  H19C 7703   0.894   2.889   7.098 -1.1948  2.4244 -0.1431
   71CHL1    C1 7704   0.575   3.052   7.085 -0.3860 -0.0787  0.1634
   71CHL1   H1A 7705   0.519   2.963   7.121 -0.9044 -1.0357 -2.8215
   71CHL1   H1B 7706   0.535   3.140   7.138 -1.3085  2.5014 -4.5967
   71CHL1    C2 7707   0.545   3.067   6.939 -0.1374  0.2703 -0.1104
   71CHL1   H2A 7708   0.438   3.085   6.914  0.4186  3.8862 -0.0383
   71CHL1   H2B 7709   0.576   2.975   6.883  0.5823  0.2621  0.2941
   71CHL1   C20 7710   0.879   2.895   7.798  0.1473 -0.2561 -0.2252
   71CHL1   H20 7711   0.910   2.795   7.759 -0.3335 -0.4896 -0.0160
   71CHL1   C21 7712   0.732   2.879   7.836  0.2726  0.0209  0.1091
   71CHL1  H21A 7713   0.667   2.852   7.750  0.5197 -0.3733  0.0481
   71CHL1  H21B 7714   0.698   2.974   7.883 -0.1441 -0.4206  0.6969
   71CHL1  H21C 7715   0.710   2.793   7.903 -0.4335 -1.2933 -1.7761
   71CHL1   C22 7716   0.964   2.953   7.916  0.2984 -0.2140  0.2869
   71CHL1  H22A 7717   1.060   2.994   7.878  1.3695 -1.2361  1.8302
   71CHL1  H22B 7718   0.921   3.049   7.953  0.5989 -1.3516  3.7897
   71CHL1   C23 7719   0.980   2.856   8.032  0.2638  0.2319 -0.0208
   71CHL1  H23A 7720   0.881   2.806   8.035  0.7731 -0.7469  0.9524
   71CHL1  H23B 7721   1.059   2.783   8.006 -0.4152 -0.3856 -0.3852
   71CHL1   C24 7722   1.019   2.935   8.159 -0.1185 -0.0032 -0.2813
   71CHL1  H24A 7723   1.129   2.947   8.147 -0.1260 -1.6563 -2.0947
   71CHL1  H24B 7724   0.962   3.031   8.157 -2.9898 -1.6508  0.0963
   71CHL1   C25 7725   0.983   2.854   8.288 -0.9212 -0.3758  0.0928
   71CHL1   H25 7726   0.872   2.855   8.301 -0.7252  2.2574  2.1962
   71CHL1   C26 7727   1.038   2.709   8.294 -0.6001 -0.4350 -0.3470
   71CHL1  H26A 7728   1.019   2.656   8.389  3.2837 -0.1078  0.6884
   71CHL1  H26B 7729   0.981   2.651   8.219 -0.9519  1.0930 -1.2867
   71CHL1  H26C 7730   1.149   2.713   8.286 -0.5845  3.6781  0.5564
   71CHL1   C27 7731   1.046   2.932   8.411  0.6504  0.3890 -0.1643
   71CHL1  H27A 7732   1.152   2.937   8.377  0.7403  0.1834  0.0785
   71CHL1  H27B 7733   1.005   3.035   8.404  1.0722  0.5353 -0.5280
   71CHL1  H27C 7734   1.025   2.877   8.505  0.2751  1.2538  0.2680
   72CHL1    C3 7735   1.325   1.566   6.984  0.1359  0.0007 -0.7835
   72CHL1    H3 7736   1.238   1.627   7.016 -0.2341 -0.4857 -0.8568
   72CHL1    O3 7737   1.313   1.542   6.848  1.0443 -0.2349  0.1481
   72CHL1   H3' 7738   1.399   1.518   6.813  0.5279 -0.6649 -0.8469
   72CHL1    C4 7739   1.456   1.636   7.009  0.0795  0.4661 -0.3319
   72CHL1   H4A 7740   1.550   1.600   6.962  0.8163  0.6806  0.9279
   72CHL1   H4B 7741   1.432   1.734   6.962 -2.6648 -0.0232  0.0204
   72CHL1    C5 7742   1.498   1.652   7.155 -0.3770  0.9128 -0.2749
   72CHL1    C6 7743   1.512   1.773   7.209 -1.2208 -0.5708 -0.5569
   72CHL1    H6 7744   1.496   1.861   7.144 -0.7416 -1.2837 -1.6534
   72CHL1    C7 7745   1.552   1.798   7.351  0.3764  0.9006 -0.3036
   72CHL1   H7A 7746   1.627   1.880   7.352  0.3893  0.9575 -2.9815
   72CHL1   H7B 7747   1.471   1.845   7.411  0.5398  2.4118 -1.2451
   72CHL1    C8 7748   1.599   1.676   7.436  0.4242 -0.2871  0.5145
   72CHL1    H8 7749   1.704   1.660   7.403  1.4686  2.6230  2.2586
   72CHL1   C14 7750   1.596   1.698   7.586  0.1354  0.2975 -0.0597
   72CHL1   H14 7751   1.488   1.702   7.608  0.0353  4.5923 -0.8752
   72CHL1   C15 7752   1.671   1.814   7.644  0.7353  0.6193 -0.6269
   72CHL1  H15A 7753   1.771   1.813   7.596  1.7473  1.0956  1.3993
   72CHL1  H15B 7754   1.623   1.913   7.629  1.5465  0.9384 -1.1316
   72CHL1   C16 7755   1.699   1.780   7.796 -0.3891  0.0554 -0.8683
   72CHL1  H16A 7756   1.808   1.790   7.815 -0.5234 -0.1946  0.0310
   72CHL1  H16B 7757   1.633   1.834   7.866 -0.9814 -1.3712 -0.3009
   72CHL1   C17 7758   1.654   1.630   7.817  0.3097 -0.0168  0.2675
   72CHL1   H17 7759   1.548   1.625   7.848  0.0050  1.9248 -0.4033
   72CHL1   C13 7760   1.655   1.576   7.668  0.4930 -0.0402  0.4177
   72CHL1   C18 7761   1.796   1.537   7.632 -0.0296  0.0666  0.1937
   72CHL1  H18A 7762   1.864   1.617   7.669 -0.1685  0.9306 -1.3734
   72CHL1  H18B 7763   1.818   1.434   7.667 -0.6580  0.3794  1.5184
   72CHL1  H18C 7764   1.812   1.538   7.522 -1.9390 -0.1471 -0.1125
   72CHL1   C12 7765   1.551   1.469   7.631 -1.0730 -0.0418 -0.6564
   72CHL1  H12A 7766   1.585   1.379   7.686  0.6337  0.2487 -1.2048
   72CHL1  H12B 7767   1.456   1.503   7.678 -0.2041  0.0951  1.0364
   72CHL1   C11 7768   1.544   1.435   7.486  0.0352 -0.2868 -0.6871
   72CHL1  H11A 7769   1.642   1.391   7.456  0.0024 -0.9030  0.1115
   72CHL1  H11B 7770   1.469   1.354   7.476  0.4442 -0.6940 -0.4842
   72CHL1    C9 7771   1.517   1.555   7.398  0.5455  0.3398 -0.2370
   72CHL1    H9 7772   1.419   1.593   7.431  1.8100  2.1826  1.5087
   72CHL1   C10 7773   1.506   1.525   7.245  0.1599 -0.2383  0.3579
   72CHL1   C19 7774   1.633   1.447   7.208 -0.3462 -0.6821 -0.2170
   72CHL1  H19A 7775   1.622   1.348   7.256  1.2385 -0.3410  0.8583
   72CHL1  H19B 7776   1.647   1.429   7.099  1.7040  0.3735 -0.1533
   72CHL1  H19C 7777   1.718   1.500   7.255  0.3004 -1.4291 -0.5288
   72CHL1    C1 7778   1.376   1.442   7.215 -0.0531  0.3576 -0.0308
   72CHL1   H1A 7779   1.391   1.335   7.244  3.1904  1.0381  0.9612
   72CHL1   H1B 7780   1.291   1.493   7.265 -1.3794 -2.7516  1.0599
   72CHL1    C2 7781   1.348   1.434   7.064  0.5934 -0.7130 -0.0856
   72CHL1   H2A 7782   1.254   1.376   7.057 -0.6500  1.4556 -1.8977
   72CHL1   H2B 7783   1.426   1.367   7.020  2.0425  1.7305 -1.3383
   72CHL1   C20 7784   1.734   1.562   7.920  0.9226 -0.0209  0.3158
   72CHL1   H20 7785   1.839   1.562   7.886  0.2006  0.3051 -1.9766
   72CHL1   C21 7786   1.685   1.418   7.933  0.3178 -0.9847  0.0277
   72CHL1  H21A 7787   1.576   1.409   7.950  0.2716  0.0129  0.2906
   72CHL1  H21B 7788   1.734   1.367   8.018  0.2609 -0.4467  0.3871
   72CHL1  H21C 7789   1.714   1.359   7.843  2.9545  1.8762 -1.0783
   72CHL1   C22 7790   1.728   1.626   8.062  0.5006  0.3723 -0.4809
   72CHL1  H22A 7791   1.782   1.563   8.136  0.4418  0.7079 -0.1502
   72CHL1  H22B 7792   1.782   1.721   8.041  0.3979  0.0914 -2.0503
   72CHL1   C23 7793   1.591   1.657   8.121  0.3914  0.2005 -0.0294
   72CHL1  H23A 7794   1.537   1.704   8.035 -1.9350 -1.2149  0.6098
   72CHL1  H23B 7795   1.538   1.562   8.146  2.5303 -1.9386 -3.2676
   72CHL1   C24 7796   1.602   1.757   8.241 -0.1692  0.3926 -1.2872
   72CHL1  H24A 7797   1.642   1.689   8.319 -1.4509 -0.2214 -1.1381
   72CHL1  H24B 7798   1.671   1.843   8.230 -0.2288  0.5380 -0.5293
   72CHL1   C25 7799   1.466   1.809   8.295  0.0237 -0.5614 -0.4304
   72CHL1   H25 7800   1.395   1.838   8.215 -1.1859 -0.9778  0.4718
   72CHL1   C26 7801   1.388   1.698   8.379  0.3603  0.4071  0.2804
   72CHL1  H26A 7802   1.387   1.597   8.333 -1.5946 -0.8398  2.9718
   72CHL1  H26B 7803   1.425   1.691   8.483 -1.4069  0.7518  0.9632
   72CHL1  H26C 7804   1.283   1.734   8.388  0.1371  0.2520 -1.3980
   72CHL1   C27 7805   1.486   1.926   8.387  0.2270  0.1699 -0.6633
   72CHL1  H27A 7806   1.379   1.956   8.399  0.4274  0.4533  0.4996
   72CHL1  H27B 7807   1.521   1.884   8.483 -1.2321 -1.6916 -0.9121
   72CHL1  H27C 7808   1.557   2.007   8.359  1.0952  0.3422  1.8954
   73CHL1    C3 7809   0.936   4.439   6.766  0.1198  0.1910  0.3470
   73CHL1    H3 7810   0.894   4.337   6.760  2.4237 -0.6853 -1.5315
   73CHL1    O3 7811   0.973   4.472   6.634  0.1530 -0.1026 -0.4174
   73CHL1   H3' 7812   1.006   4.562   6.635 -1.7250  0.6052  1.8538
   73CHL1    C4 7813   0.831   4.534   6.813  0.4336 -0.6146  0.1537
   73CHL1   H4A 7814   0.857   4.642   6.813  1.4703 -0.8530 -1.1929
   73CHL1   H4B 7815   0.749   4.515   6.740  1.1378  0.3542 -0.9113
   73CHL1    C5 7816   0.788   4.485   6.956 -0.1501  0.2095 -0.1879
   73CHL1    C6 7817   0.662   4.443   6.984  0.0174  0.9509  0.0246
   73CHL1    H6 7818   0.593   4.438   6.899 -0.9843  0.6166  0.8515
   73CHL1    C7 7819   0.620   4.397   7.122 -0.8331 -0.2007 -0.6512
   73CHL1   H7A 7820   0.518   4.436   7.139 -0.2420  1.3493 -0.6158
   73CHL1   H7B 7821   0.602   4.287   7.130 -0.9821 -0.2695 -1.7803
   73CHL1    C8 7822   0.714   4.445   7.238 -0.1915  0.4155 -0.3541
   73CHL1    H8 7823   0.693   4.553   7.251 -2.4666  0.0314 -0.5724
   73CHL1   C14 7824   0.691   4.366   7.371  0.1418 -0.2549  0.7293
   73CHL1   H14 7825   0.711   4.260   7.345 -1.1091 -0.3604  0.1702
   73CHL1   C15 7826   0.548   4.348   7.434  0.1462  0.9854  0.7835
   73CHL1  H15A 7827   0.489   4.440   7.416 -0.0599  0.8765  0.9037
   73CHL1  H15B 7828   0.480   4.271   7.392  1.8204 -0.5937  0.9237
   73CHL1   C16 7829   0.569   4.326   7.580  0.3311 -0.0861 -0.0602
   73CHL1  H16A 7830   0.521   4.410   7.634 -0.1570  0.2311 -0.9770
   73CHL1  H16B 7831   0.524   4.227   7.606  1.1872 -1.0473 -2.1503
   73CHL1   C17 7832   0.722   4.314   7.596 -1.5011 -0.3585 -0.6130
   73CHL1   H17 7833   0.750   4.213   7.559  0.9008  0.1222 -0.1912
   73CHL1   C13 7834   0.784   4.404   7.486 -0.4649  0.4128 -0.2154
   73CHL1   C18 7835   0.776   4.562   7.515  0.4251  1.1130 -0.4902
   73CHL1  H18A 7836   0.806   4.622   7.427  0.4308  0.4106 -0.9735
   73CHL1  H18B 7837   0.676   4.600   7.547  0.3750 -1.0895  2.1648
   73CHL1  H18C 7838   0.846   4.588   7.597  1.3521 -1.3831 -0.4612
   73CHL1   C12 7839   0.920   4.366   7.440  0.6291 -0.0895  0.4862
   73CHL1  H12A 7840   0.995   4.384   7.520 -0.0933  0.4045  1.0581
   73CHL1  H12B 7841   0.930   4.258   7.419 -2.3534 -0.2233 -0.4383
   73CHL1   C11 7842   0.963   4.453   7.315 -0.3919 -1.1678  0.8168
   73CHL1  H11A 7843   0.975   4.559   7.348 -1.2745 -1.5538  2.4374
   73CHL1  H11B 7844   1.069   4.429   7.291 -0.0333  1.9910 -1.0447
   73CHL1    C9 7845   0.858   4.425   7.200 -0.7902 -0.3395 -0.6904
   73CHL1    H9 7846   0.867   4.315   7.184  0.1096 -0.2564 -0.8124
   73CHL1   C10 7847   0.902   4.490   7.060 -0.7589  0.0739  0.5468
   73CHL1   C19 7848   0.936   4.638   7.082  0.0109  0.0338  0.2665
   73CHL1  H19A 7849   1.007   4.654   7.166 -0.8188 -1.0459  1.1938
   73CHL1  H19B 7850   0.971   4.683   6.987  0.6955  0.3505  0.6691
   73CHL1  H19C 7851   0.847   4.696   7.113  2.5986  2.8092  2.8177
   73CHL1    C1 7852   1.027   4.406   7.003 -0.4075  0.3126 -0.7443
   73CHL1   H1A 7853   1.113   4.427   7.070  0.0703 -0.4590 -1.0975
   73CHL1   H1B 7854   1.012   4.296   7.006 -2.3113  0.5966  1.4115
   73CHL1    C2 7855   1.058   4.448   6.854  0.6233 -0.0840 -0.3797
   73CHL1   H2A 7856   1.131   4.374   6.815 -1.0055 -3.0384  2.0300
   73CHL1   H2B 7857   1.090   4.555   6.849 -0.7374  0.2888 -1.4054
   73CHL1   C20 7858   0.777   4.339   7.737  0.8708  0.0931 -0.0506
   73CHL1   H20 7859   0.887   4.355   7.728  0.6979  1.0411 -0.5855
   73CHL1   C21 7860   0.758   4.211   7.814  0.0748 -0.4248 -0.4775
   73CHL1  H21A 7861   0.651   4.195   7.835  0.4261  0.6225  2.3281
   73CHL1  H21B 7862   0.804   4.217   7.915 -1.8038 -3.0775  0.5730
   73CHL1  H21C 7863   0.814   4.130   7.762  0.9524  0.0589 -0.2966
   73CHL1   C22 7864   0.726   4.458   7.824  0.3190 -0.4660  0.3537
   73CHL1  H22A 7865   0.714   4.552   7.766  1.7703 -0.0187  0.7653
   73CHL1  H22B 7866   0.626   4.430   7.864 -1.2524  1.9882 -1.6892
   73CHL1   C23 7867   0.818   4.481   7.949  0.1191  0.3095 -0.0002
   73CHL1  H23A 7868   0.804   4.398   8.021 -0.7060 -0.7513 -1.3694
   73CHL1  H23B 7869   0.918   4.482   7.900  0.4620  1.5334  0.7127
   73CHL1   C24 7870   0.753   4.603   8.019  0.4789  0.0558  0.4814
   73CHL1  H24A 7871   0.786   4.683   7.949  0.8772  0.5110  1.1812
   73CHL1  H24B 7872   0.642   4.593   8.017  0.6939 -2.5497 -2.4051
   73CHL1   C25 7873   0.813   4.639   8.166 -0.0756 -0.2744  0.3659
   73CHL1   H25 7874   0.754   4.581   8.240 -0.6275 -1.4303 -0.9526
   73CHL1   C26 7875   0.960   4.593   8.172  0.0016  0.4537  0.6647
   73CHL1  H26A 7876   1.017   4.619   8.080  1.7938 -0.1785  1.5829
   73CHL1  H26B 7877   1.010   4.624   8.266 -1.6516 -0.0778  1.7283
   73CHL1  H26C 7878   0.966   4.482   8.175  0.3645  0.5280  3.2287
   73CHL1   C27 7879   0.801   4.789   8.197 -0.4032 -0.3850 -0.1156
   73CHL1  H27A 7880   0.820   4.817   8.303  0.5064  1.2480 -0.6938
   73CHL1  H27B 7881   0.864   4.852   8.131 -1.0601  1.9509  1.4166
   73CHL1  H27C 7882   0.697   4.817   8.168 -0.3567 -0.5987 -0.4993
   74CHL1    C3 7883   0.003   3.289   6.988  0.7230  0.1855  1.3678
   74CHL1    H3 7884  -0.050   3.361   7.054 -3.1478  0.0763 -1.4446
   74CHL1    O3 7885  -0.027   3.331   6.856  0.1534  0.5111  0.2393
   74CHL1   H3' 7886   0.045   3.378   6.813  0.3603 -0.3982 -0.4097
   74CHL1    C4 7887   0.150   3.295   7.022 -0.7050 -0.3707 -0.0874
   74CHL1   H4A 7888   0.212   3.234   6.953 -1.2093  1.9361 -2.6818
   74CHL1   H4B 7889   0.188   3.398   7.008 -1.3026  0.1033  1.6518
   74CHL1    C5 7890   0.184   3.237   7.156 -0.4276  0.9304 -0.8022
   74CHL1    C6 7891   0.256   3.314   7.238 -0.3423 -0.1276  0.8081
   74CHL1    H6 7892   0.305   3.407   7.205  0.3339 -0.4237  0.9685
   74CHL1    C7 7893   0.285   3.289   7.384  0.4574  0.6884  0.3100
   74CHL1   H7A 7894   0.390   3.301   7.418  1.0427 -3.5088  0.2535
   74CHL1   H7B 7895   0.217   3.355   7.442 -1.6123 -0.1446 -1.1078
   74CHL1    C8 7896   0.257   3.140   7.415 -0.2604  0.5639 -1.1584
   74CHL1    H8 7897   0.339   3.077   7.377  1.9330  1.6888  1.5226
   74CHL1   C14 7898   0.253   3.120   7.566 -0.2868 -0.2826 -0.1546
   74CHL1   H14 7899   0.158   3.172   7.592  1.5325  1.4592  3.4272
   74CHL1   C15 7900   0.365   3.179   7.649  0.5939  1.0205 -0.9880
   74CHL1  H15A 7901   0.466   3.151   7.611  0.2134 -1.7283 -0.0870
   74CHL1  H15B 7902   0.360   3.287   7.674  0.1385  0.6171  0.7553
   74CHL1   C16 7903   0.346   3.107   7.786 -0.1003  0.6758  0.0678
   74CHL1  H16A 7904   0.438   3.055   7.819  0.7929  1.6484 -0.8083
   74CHL1  H16B 7905   0.313   3.177   7.866 -0.5494  2.8237 -1.9322
   74CHL1   C17 7906   0.244   2.989   7.763  0.7421 -0.3845  0.0684
   74CHL1   H17 7907   0.147   3.033   7.794  0.3994 -0.2137 -1.2546
   74CHL1   C13 7908   0.236   2.975   7.610 -0.6520 -0.6123 -0.2768
   74CHL1   C18 7909   0.356   2.888   7.571 -0.0296 -0.5807  0.1812
   74CHL1  H18A 7910   0.444   2.922   7.631 -1.4334 -0.0995  2.0419
   74CHL1  H18B 7911   0.347   2.784   7.608  0.0626 -0.7998 -0.4200
   74CHL1  H18C 7912   0.384   2.899   7.464  0.5188  0.3886  0.4125
   74CHL1   C12 7913   0.105   2.918   7.553 -0.5622 -0.5326  0.2789
   74CHL1  H12A 7914   0.088   2.810   7.569  1.2573 -1.0597 -1.1970
   74CHL1  H12B 7915   0.016   2.974   7.589 -0.1722  0.0466  0.3532
   74CHL1   C11 7916   0.110   2.934   7.396  0.0590 -0.2236  0.3619
   74CHL1  H11A 7917   0.183   2.857   7.365  1.4814  1.8431 -1.5775
   74CHL1  H11B 7918   0.015   2.903   7.347  0.8334  0.2188 -1.4508
   74CHL1    C9 7919   0.131   3.081   7.347  0.5166 -0.0811  0.3493
   74CHL1    H9 7920   0.049   3.135   7.398  1.8336  0.9829  1.3897
   74CHL1   C10 7921   0.118   3.106   7.194 -0.1171  0.4485  0.6542
   74CHL1   C19 7922   0.195   2.990   7.118  0.1690  0.4264 -0.1486
   74CHL1  H19A 7923   0.189   2.998   7.008 -0.5669 -0.8170 -0.2051
   74CHL1  H19B 7924   0.305   2.991   7.136  0.4871 -2.0931 -1.7559
   74CHL1  H19C 7925   0.150   2.891   7.140 -2.6572  0.8906 -3.4484
   74CHL1    C1 7926  -0.037   3.104   7.152 -0.4190 -0.2474 -0.1784
   74CHL1   H1A 7927  -0.066   2.997   7.151  0.7756 -0.6609  2.7826
   74CHL1   H1B 7928  -0.102   3.161   7.222 -0.0728  0.7107 -0.6289
   74CHL1    C2 7929  -0.061   3.159   7.012 -0.0234 -0.0581 -0.1742
   74CHL1   H2A 7930  -0.171   3.163   6.998 -0.0493 -0.1302  0.0096
   74CHL1   H2B 7931  -0.025   3.076   6.948  0.8118 -0.4475  0.7805
   74CHL1   C20 7932   0.279   2.864   7.857  0.2331 -0.5118 -0.1763
   74CHL1   H20 7933   0.369   2.817   7.811 -0.8988 -0.9552 -2.0030
   74CHL1   C21 7934   0.161   2.773   7.848  0.1209 -0.1931 -0.4808
   74CHL1  H21A 7935   0.142   2.754   7.740  1.5522  2.0427 -1.1730
   74CHL1  H21B 7936   0.071   2.827   7.884  0.6430  1.2995 -1.3444
   74CHL1  H21C 7937   0.177   2.675   7.896  0.9387  0.3366  0.3498
   74CHL1   C22 7938   0.305   2.907   8.006  0.0600 -0.3320  0.1988
   74CHL1  H22A 7939   0.410   2.941   8.007 -0.1176  0.2239  0.1820
   74CHL1  H22B 7940   0.241   2.991   8.040 -0.2990 -0.3595 -0.4100
   74CHL1   C23 7941   0.289   2.799   8.110  0.6479  0.3186 -0.0505
   74CHL1  H23A 7942   0.185   2.764   8.125  0.8740 -0.5157 -0.4049
   74CHL1  H23B 7943   0.349   2.711   8.077  2.4755  1.9931 -1.2818
   74CHL1   C24 7944   0.351   2.835   8.252  0.3706  0.4636  0.4179
   74CHL1  H24A 7945   0.402   2.933   8.244  1.1107  0.0677  0.3047
   74CHL1  H24B 7946   0.265   2.843   8.322 -0.1981  0.5027 -0.2788
   74CHL1   C25 7947   0.446   2.729   8.303  0.5963  0.2284 -0.2169
   74CHL1   H25 7948   0.397   2.629   8.299  0.9414 -0.0022  1.1507
   74CHL1   C26 7949   0.581   2.738   8.223 -0.5955  0.5719  0.3091
   74CHL1  H26A 7950   0.614   2.840   8.249  2.4298 -0.8872  2.5053
   74CHL1  H26B 7951   0.654   2.674   8.278  0.3219  2.5156  1.3852
   74CHL1  H26C 7952   0.589   2.724   8.113  0.3059  0.9203  0.3272
   74CHL1   C27 7953   0.477   2.760   8.450  0.1376  0.1432 -0.5334
   74CHL1  H27A 7954   0.554   2.685   8.476  0.3945 -0.1477 -2.1009
   74CHL1  H27B 7955   0.516   2.864   8.450 -1.1441  0.6560  0.8969
   74CHL1  H27C 7956   0.388   2.744   8.515  0.4117  0.3496 -0.0991
   75CHL1    C3 7957   3.500   5.036   6.745  0.3122  0.3814  0.3007
   75CHL1    H3 7958   3.560   5.130   6.746  0.6054  0.2102 -0.8230
   75CHL1    O3 7959   3.475   5.006   6.611 -0.4538  0.0032  0.2712
   75CHL1   H3' 7960   3.485   5.091   6.568 -0.1379 -0.5939 -0.8534
   75CHL1    C4 7961   3.571   4.915   6.805  0.9052 -0.1801 -0.2981
   75CHL1   H4A 7962   3.503   4.828   6.807 -0.8049  1.1136 -0.4607
   75CHL1   H4B 7963   3.654   4.892   6.735  0.2525  1.6482 -1.7163
   75CHL1    C5 7964   3.609   4.957   6.942 -0.2691  0.2922 -0.2400
   75CHL1    C6 7965   3.738   4.970   6.977 -0.4668  0.0308  0.0219
   75CHL1    H6 7966   3.817   4.951   6.903 -0.5666 -0.3575  0.0117
   75CHL1    C7 7967   3.789   4.999   7.119  0.3824 -0.2927  0.1618
   75CHL1   H7A 7968   3.871   4.935   7.157  1.0095  0.3096 -0.1700
   75CHL1   H7B 7969   3.830   5.100   7.139 -1.3288  0.1396  1.6696
   75CHL1    C8 7970   3.680   4.978   7.230 -0.2168 -0.2770  0.4093
   75CHL1    H8 7971   3.654   4.870   7.231  0.4555 -0.4468  0.4166
   75CHL1   C14 7972   3.723   5.018   7.365 -0.5129 -0.4258 -0.1835
   75CHL1   H14 7973   3.742   5.126   7.349 -0.1085 -0.5291 -0.4010
   75CHL1   C15 7974   3.855   4.967   7.435  0.2568  0.3844 -0.2641
   75CHL1  H15A 7975   3.882   4.859   7.431  3.5918  1.1703 -0.7043
   75CHL1  H15B 7976   3.940   5.019   7.385 -0.6358  1.0892 -1.0653
   75CHL1   C16 7977   3.839   4.992   7.580 -0.0322 -0.4446  0.0670
   75CHL1  H16A 7978   3.868   4.899   7.634  0.8585  0.3050  0.9181
   75CHL1  H16B 7979   3.905   5.072   7.621 -2.9149  0.7010  2.6388
   75CHL1   C17 7980   3.691   5.049   7.604 -0.3286  0.2403  0.7092
   75CHL1   H17 7981   3.690   5.160   7.610  1.5526  0.5653 -3.4319
   75CHL1   C13 7982   3.613   5.006   7.475 -0.1612  0.1244  0.0620
   75CHL1   C18 7983   3.585   4.857   7.483  0.0864 -0.0721  0.0149
   75CHL1  H18A 7984   3.513   4.825   7.562  1.3774  1.0895  1.7116
   75CHL1  H18B 7985   3.551   4.815   7.386 -0.5610  1.4759 -0.4474
   75CHL1  H18C 7986   3.681   4.808   7.508 -0.1651  0.4128  2.0849
   75CHL1   C12 7987   3.497   5.089   7.424  0.0713  0.3876 -0.7010
   75CHL1  H12A 7988   3.422   5.085   7.506  2.4210  1.0549  1.5820
   75CHL1  H12B 7989   3.541   5.191   7.415  1.5625 -0.1840 -0.0522
   75CHL1   C11 7990   3.437   5.038   7.289 -0.4542  0.4001  0.1462
   75CHL1  H11A 7991   3.398   4.935   7.300  0.2225  0.0665 -0.5209
   75CHL1  H11B 7992   3.360   5.107   7.250  0.6185  0.8492 -1.2339
   75CHL1    C9 7993   3.551   5.042   7.178 -0.2437  0.4389 -0.1566
   75CHL1    H9 7994   3.569   5.149   7.155 -0.8216  0.1041 -2.3746
   75CHL1   C10 7995   3.496   4.993   7.043 -0.0335  0.6005 -0.4037
   75CHL1   C19 7996   3.415   4.861   7.065 -0.2868  0.2962  0.0932
   75CHL1  H19A 7997   3.370   4.828   6.969 -0.3294  0.6149 -0.0001
   75CHL1  H19B 7998   3.475   4.784   7.118  0.6080 -0.2860 -1.7514
   75CHL1  H19C 7999   3.323   4.884   7.123  0.7153 -2.2137  2.7887
   75CHL1    C1 8000   3.411   5.099   6.971 -0.4816 -0.2770  0.3594
   75CHL1   H1A 8001   3.317   5.128   7.022  0.2929  0.4757  1.3722
   75CHL1   H1B 8002   3.472   5.192   6.971 -0.0618 -0.5490  1.4551
   75CHL1    C2 8003   3.369   5.074   6.825  0.3231 -0.3194 -0.2834
   75CHL1   H2A 8004   3.334   5.163   6.768 -0.1527 -0.3749 -0.0761
   75CHL1   H2B 8005   3.295   4.992   6.825  1.0786 -1.0423  1.7869
   75CHL1   C20 8006   3.639   5.025   7.747 -0.2264 -0.0275 -0.0115
   75CHL1   H20 8007   3.597   4.922   7.742 -1.8747  0.7354 -3.7936
   75CHL1   C21 8008   3.529   5.120   7.770  0.1912  0.0180 -0.6358
   75CHL1  H21A 8009   3.464   5.086   7.853  0.3788  0.9000 -0.1186
   75CHL1  H21B 8010   3.461   5.126   7.682 -0.9050  3.1546  0.3777
   75CHL1  H21C 8011   3.567   5.222   7.795  1.0861 -0.2214 -0.9688
   75CHL1   C22 8012   3.754   5.007   7.849 -0.0068  0.4004  0.6640
   75CHL1  H22A 8013   3.830   4.930   7.824 -1.6132 -1.3011  0.8716
   75CHL1  H22B 8014   3.814   5.100   7.850 -0.3174  0.6168 -0.0498
   75CHL1   C23 8015   3.686   4.959   7.976 -0.4806 -0.1833  0.2690
   75CHL1  H23A 8016   3.615   5.039   8.007 -0.6273 -0.6639  1.2084
   75CHL1  H23B 8017   3.640   4.862   7.947  1.3320 -1.6990  2.2642
   75CHL1   C24 8018   3.773   4.940   8.099 -0.3959 -0.3369  0.3896
   75CHL1  H24A 8019   3.843   4.862   8.064 -2.5733 -2.0692 -0.2263
   75CHL1  H24B 8020   3.833   5.028   8.130 -0.1777  0.0614 -1.1280
   75CHL1   C25 8021   3.700   4.879   8.222 -0.0931 -0.5550  0.1347
   75CHL1   H25 8022   3.661   4.777   8.203  0.7039 -0.7326 -0.5659
   75CHL1   C26 8023   3.793   4.870   8.346 -0.6632  0.0665 -0.4102
   75CHL1  H26A 8024   3.879   4.802   8.327  0.3134  1.3620 -0.6386
   75CHL1  H26B 8025   3.835   4.969   8.372 -1.2916 -0.6117  3.5105
   75CHL1  H26C 8026   3.737   4.833   8.434  0.8696 -1.9794 -0.2640
   75CHL1   C27 8027   3.582   4.971   8.260 -0.7760 -0.4710 -0.0576
   75CHL1  H27A 8028   3.560   4.937   8.364  1.0007 -0.3947  0.3591
   75CHL1  H27B 8029   3.612   5.077   8.269  2.1697 -1.3578  1.3852
   75CHL1  H27C 8030   3.486   4.957   8.206 -0.0732 -0.5778 -1.2899
   76CHL1    C3 8031   0.477   0.365   7.405 -0.3248  0.2276  0.5504
   76CHL1    H3 8032   0.529   0.267   7.406 -0.5734  0.0956  0.6625
   76CHL1    O3 8033   0.442   0.407   7.276  0.6770  0.0967  0.6990
   76CHL1   H3' 8034   0.377   0.341   7.250 -0.0791  0.1317  2.4074
   76CHL1    C4 8035   0.353   0.345   7.489 -0.1735 -0.4934  0.2098
   76CHL1   H4A 8036   0.287   0.434   7.484  0.9085  0.3012 -0.2132
   76CHL1   H4B 8037   0.296   0.260   7.448 -0.2983 -0.1842 -0.2525
   76CHL1    C5 8038   0.390   0.306   7.628  0.0767 -0.5588 -0.1617
   76CHL1    C6 8039   0.328   0.198   7.688 -0.2350 -0.0141 -0.0255
   76CHL1    H6 8040   0.243   0.154   7.634 -0.8320  1.7257 -0.5474
   76CHL1    C7 8041   0.363   0.157   7.835 -0.3971 -0.2860  0.3937
   76CHL1   H7A 8042   0.263   0.143   7.881 -0.0900 -1.4971  0.7044
   76CHL1   H7B 8043   0.408   0.056   7.825 -1.4714 -0.7150 -0.3169
   76CHL1    C8 8044   0.447   0.255   7.918  0.3139 -0.7397  0.9810
   76CHL1    H8 8045   0.373   0.331   7.951 -0.2644 -0.7991 -0.1371
   76CHL1   C14 8046   0.518   0.188   8.031 -0.3141  0.2841  0.0399
   76CHL1   H14 8047   0.591   0.123   7.978 -2.0801 -0.1476 -1.9323
   76CHL1   C15 8048   0.428   0.099   8.119  0.8307  0.3354  0.0358
   76CHL1  H15A 8049   0.350   0.172   8.149  0.2887  0.0893 -0.7645
   76CHL1  H15B 8050   0.396   0.020   8.047 -0.8858  2.1898 -1.2896
   76CHL1   C16 8051   0.524   0.072   8.232  0.1186  0.5045 -0.2808
   76CHL1  H16A 8052   0.472   0.102   8.325  0.2144  0.7080 -0.2924
   76CHL1  H16B 8053   0.557  -0.033   8.246  2.5612  1.1042 -1.1346
   76CHL1   C17 8054   0.651   0.161   8.218 -0.7493 -0.7016  0.5990
   76CHL1   H17 8055   0.728   0.107   8.159 -2.2320  0.0379 -2.1198
   76CHL1   C13 8056   0.599   0.278   8.128  0.8269 -0.0033  0.3783
   76CHL1   C18 8057   0.504   0.381   8.208 -0.2474  0.2922  0.2382
   76CHL1  H18A 8058   0.566   0.442   8.277 -0.0036  1.7238 -1.2289
   76CHL1  H18B 8059   0.447   0.435   8.130 -1.6146  0.4013  1.2778
   76CHL1  H18C 8060   0.428   0.328   8.270  1.0846 -1.2996  0.5546
   76CHL1   C12 8061   0.702   0.353   8.048 -0.1990 -0.0008 -0.5848
   76CHL1  H12A 8062   0.739   0.435   8.113  1.5770 -1.5010  0.3586
   76CHL1  H12B 8063   0.782   0.282   8.018 -0.1219  0.3921 -1.3143
   76CHL1   C11 8064   0.638   0.422   7.922 -0.3577 -0.6772 -0.2408
   76CHL1  H11A 8065   0.582   0.506   7.967 -1.1363 -2.2176  1.7552
   76CHL1  H11B 8066   0.725   0.450   7.858 -0.8129 -0.0841 -0.6035
   76CHL1    C9 8067   0.550   0.326   7.833  0.0283  0.0787  0.2348
   76CHL1    H9 8068   0.625   0.249   7.803  0.4921  0.3410  0.6975
   76CHL1   C10 8069   0.494   0.393   7.706  0.0044 -1.0263  0.1470
   76CHL1   C19 8070   0.413   0.519   7.751 -0.0801  0.2031 -0.0796
   76CHL1  H19A 8071   0.484   0.586   7.803 -1.0177  1.8909 -0.9116
   76CHL1  H19B 8072   0.365   0.574   7.667 -0.8980 -0.1968  0.1214
   76CHL1  H19C 8073   0.331   0.491   7.821  0.9066 -3.5267 -0.3153
   76CHL1    C1 8074   0.613   0.437   7.609 -0.2852  0.4092  0.6484
   76CHL1   H1A 8075   0.658   0.526   7.656  0.2768 -0.2780  1.4195
   76CHL1   H1B 8076   0.688   0.355   7.614  0.0030  0.7941  2.9407
   76CHL1    C2 8077   0.564   0.476   7.470 -0.2732  0.7411 -0.2755
   76CHL1   H2A 8078   0.648   0.500   7.402 -0.1208 -1.6028 -0.9904
   76CHL1   H2B 8079   0.505   0.567   7.491 -2.4887 -0.4846 -0.9363
   76CHL1   C20 8080   0.691   0.194   8.362 -0.5994  0.1358  0.3985
   76CHL1   H20 8081   0.606   0.247   8.411  1.7685  2.8149  1.7726
   76CHL1   C21 8082   0.808   0.289   8.358  0.0711 -0.0572 -0.2179
   76CHL1  H21A 8083   0.836   0.323   8.460 -0.6468 -0.8451  0.2475
   76CHL1  H21B 8084   0.778   0.380   8.302 -2.8860 -1.0164 -0.2907
   76CHL1  H21C 8085   0.898   0.244   8.311  1.8240  1.5908  1.4671
   76CHL1   C22 8086   0.725   0.072   8.453  0.3277  0.8580  0.3002
   76CHL1  H22A 8087   0.751   0.110   8.554  0.3598 -1.2182  1.0986
   76CHL1  H22B 8088   0.634   0.012   8.470  0.3689  0.4656 -0.8364
   76CHL1   C23 8089   0.846  -0.020   8.409  0.6578 -0.2366  0.0823
   76CHL1  H23A 8090   0.832  -0.051   8.304  0.5981 -2.5558  0.7366
   76CHL1  H23B 8091   0.939   0.040   8.412  1.2794 -1.1578 -0.7927
   76CHL1   C24 8092   0.870  -0.139   8.501 -0.3732  0.3693  0.3614
   76CHL1  H24A 8093   0.837  -0.097   8.598 -1.8090 -0.8166  0.4082
   76CHL1  H24B 8094   0.798  -0.221   8.480  1.8602 -1.4981 -0.2088
   76CHL1   C25 8095   1.010  -0.208   8.496  0.0006 -0.1007 -0.0010
   76CHL1   H25 8096   1.030  -0.218   8.387 -0.5903  2.2087 -0.3560
   76CHL1   C26 8097   1.121  -0.128   8.561 -0.3649  1.0102  0.1517
   76CHL1  H26A 8098   1.115  -0.111   8.671  1.8264  2.3966  0.0831
   76CHL1  H26B 8099   1.221  -0.175   8.548 -0.4951  0.1190  2.2088
   76CHL1  H26C 8100   1.126  -0.030   8.510 -0.8330  1.2161  0.4910
   76CHL1   C27 8101   0.992  -0.344   8.558  0.3256 -0.0390 -0.0156
   76CHL1  H27A 8102   0.933  -0.405   8.487 -0.3795  0.5430  0.0687
   76CHL1  H27B 8103   1.089  -0.398   8.562  0.9046  0.8853 -1.2069
   76CHL1  H27C 8104   0.941  -0.323   8.654  1.0967  1.2633  0.1205
   77CHL1    C3 8105   0.639   4.940   6.934  0.3465 -0.2091 -0.9748
   77CHL1    H3 8106   0.720   4.866   6.954 -0.1516 -1.0919 -2.1295
   77CHL1    O3 8107   0.627   4.977   6.799  0.2223  0.3092  0.4456
   77CHL1   H3' 8108   0.636   4.899   6.743  0.8519  0.8267 -0.1887
   77CHL1    C4 8109   0.496   4.888   6.976 -0.0747 -0.1978  0.4485
   77CHL1   H4A 8110   0.409   4.939   6.930  0.1873 -1.5407 -1.5952
   77CHL1   H4B 8111   0.477   4.787   6.933  0.3855 -0.8822  1.8155
   77CHL1    C5 8112   0.476   4.880   7.135 -0.1412 -0.2122  0.1203
   77CHL1    C6 8113   0.437   4.769   7.193 -0.1872  0.5379  0.2585
   77CHL1    H6 8114   0.425   4.688   7.120  0.8460  2.0237 -1.6062
   77CHL1    C7 8115   0.406   4.746   7.338  0.2298 -0.8451 -0.4897
   77CHL1   H7A 8116   0.306   4.699   7.349 -1.1027  1.6226 -1.5210
   77CHL1   H7B 8117   0.480   4.683   7.391 -0.9303 -0.5890  1.4875
   77CHL1    C8 8118   0.406   4.885   7.411  0.0041 -0.2509  0.0699
   77CHL1    H8 8119   0.305   4.925   7.387 -0.3876 -0.0193  1.9944
   77CHL1   C14 8120   0.439   4.853   7.555  0.1705  0.2512  0.2382
   77CHL1   H14 8121   0.544   4.816   7.556  0.1975  0.3074 -0.5521
   77CHL1   C15 8122   0.355   4.739   7.619 -0.3220 -0.0407 -0.1066
   77CHL1  H15A 8123   0.251   4.743   7.580 -0.8200  0.1520  1.2233
   77CHL1  H15B 8124   0.412   4.647   7.596  1.0023  0.6816  0.2555
   77CHL1   C16 8125   0.365   4.769   7.770  0.0169  0.1284  0.3557
   77CHL1  H16A 8126   0.262   4.788   7.808  0.2982 -0.3560  1.3724
   77CHL1  H16B 8127   0.410   4.681   7.822 -1.6461  0.0415  1.7012
   77CHL1   C17 8128   0.457   4.898   7.782 -0.4173  1.0467 -0.2678
   77CHL1   H17 8129   0.563   4.866   7.795 -0.9022 -0.0104  1.1748
   77CHL1   C13 8130   0.441   4.976   7.645 -0.3040 -0.2240 -0.7088
   77CHL1   C18 8131   0.312   5.052   7.647  0.8931 -0.4338 -0.4726
   77CHL1  H18A 8132   0.322   5.131   7.724  1.0753 -0.7084 -0.2071
   77CHL1  H18B 8133   0.294   5.089   7.544 -2.5735  0.0126  0.2112
   77CHL1  H18C 8134   0.227   4.986   7.677  0.1186  1.1582  0.9464
   77CHL1   C12 8135   0.557   5.065   7.602  0.4199  0.1141  0.1860
   77CHL1  H12A 8136   0.547   5.166   7.647 -1.1217 -0.1539  0.4838
   77CHL1  H12B 8137   0.654   5.019   7.633  1.5795  2.5411  0.3038
   77CHL1   C11 8138   0.546   5.100   7.451 -0.7880  0.6972 -0.3466
   77CHL1  H11A 8139   0.475   5.182   7.428 -1.0208  0.4851 -0.3849
   77CHL1  H11B 8140   0.643   5.146   7.422 -0.0693 -1.3059 -1.1977
   77CHL1    C9 8141   0.522   4.972   7.360 -0.3763 -0.4619  0.2364
   77CHL1    H9 8142   0.611   4.907   7.371  0.8044  1.1597  0.4866
   77CHL1   C10 8143   0.513   5.011   7.207  0.6469 -0.2302 -0.0175
   77CHL1   C19 8144   0.403   5.114   7.176  0.1103  0.0173  0.5083
   77CHL1  H19A 8145   0.304   5.065   7.185 -0.5685  1.4893  1.1578
   77CHL1  H19B 8146   0.412   5.209   7.233 -1.7420  1.9323 -2.2505
   77CHL1  H19C 8147   0.413   5.151   7.071  0.9752 -0.9775  0.2229
   77CHL1    C1 8148   0.656   5.057   7.164  0.3685  0.4885 -0.3019
   77CHL1   H1A 8149   0.695   5.146   7.217  0.3364 -0.8331  2.0097
   77CHL1   H1B 8150   0.728   4.980   7.199  0.6576  0.6133 -0.6128
   77CHL1    C2 8151   0.672   5.078   7.011  0.3272  0.3260 -0.0885
   77CHL1   H2A 8152   0.774   5.112   6.984 -0.0180  0.3135 -1.4613
   77CHL1   H2B 8153   0.598   5.153   6.976 -0.2160 -0.6693 -1.1069
   77CHL1   C20 8154   0.428   4.973   7.909 -0.2507  0.3411 -0.3868
   77CHL1   H20 8155   0.322   5.007   7.901 -0.1488  0.5414 -0.9183
   77CHL1   C21 8156   0.531   5.087   7.934  0.0349 -0.0870 -0.5481
   77CHL1  H21A 8157   0.526   5.164   7.854  0.0757 -1.6995 -2.1274
   77CHL1  H21B 8158   0.631   5.039   7.940  0.1179  0.2722  1.0390
   77CHL1  H21C 8159   0.490   5.153   8.013  1.1350 -0.3249  0.2283
   77CHL1   C22 8160   0.442   4.882   8.035  0.0970 -0.5461 -0.1353
   77CHL1  H22A 8161   0.388   4.785   8.035  0.0823 -0.5717 -3.0989
   77CHL1  H22B 8162   0.551   4.868   8.048 -0.2061 -4.0099 -0.9153
   77CHL1   C23 8163   0.390   4.955   8.161 -0.1834 -0.6526  0.8995
   77CHL1  H23A 8164   0.443   5.051   8.175  0.5524 -0.7198 -1.2273
   77CHL1  H23B 8165   0.283   4.970   8.137  0.1445 -1.4901 -1.2666
   77CHL1   C24 8166   0.400   4.877   8.287  0.2186 -0.0172 -0.1727
   77CHL1  H24A 8167   0.501   4.840   8.315  0.7403  1.8483  0.5064
   77CHL1  H24B 8168   0.372   4.948   8.367 -1.3183  2.1349 -2.5519
   77CHL1   C25 8169   0.317   4.744   8.294  0.2871 -0.2327  0.6165
   77CHL1   H25 8170   0.356   4.674   8.216  2.6369 -1.9920  3.2669
   77CHL1   C26 8171   0.337   4.688   8.434 -0.2978  0.5133  0.7352
   77CHL1  H26A 8172   0.274   4.597   8.448 -2.6190  1.8641 -0.6799
   77CHL1  H26B 8173   0.442   4.653   8.448  0.1342  2.0631  1.5197
   77CHL1  H26C 8174   0.313   4.765   8.510  0.2770  1.0607  0.3626
   77CHL1   C27 8175   0.166   4.772   8.279  0.1204 -0.6159  0.4283
   77CHL1  H27A 8176   0.143   4.823   8.182  0.6919 -0.2703  0.4754
   77CHL1  H27B 8177   0.102   4.681   8.275 -0.6318 -0.0630 -0.4486
   77CHL1  H27C 8178   0.126   4.839   8.358 -1.5748 -2.7560  1.4171
   78CHL1    C3 8179   2.958   6.367   6.633  0.0768 -0.0949  0.0133
   78CHL1    H3 8180   3.000   6.267   6.609  0.4987 -0.0889  0.7193
   78CHL1    O3 8181   2.945   6.456   6.521  0.2187  0.4795  0.5023
   78CHL1   H3' 8182   2.854   6.450   6.490  0.9987 -0.3203 -1.7606
   78CHL1    C4 8183   2.825   6.334   6.697  0.6634  0.3835 -0.1401
   78CHL1   H4A 8184   2.766   6.428   6.703  1.1316  0.6812 -0.1574
   78CHL1   H4B 8185   2.760   6.280   6.625 -0.6197  3.7161 -1.5885
   78CHL1    C5 8186   2.833   6.283   6.839  0.2027 -0.1387 -0.5331
   78CHL1    C6 8187   2.758   6.172   6.869  0.3443  0.6947 -0.7208
   78CHL1    H6 8188   2.690   6.141   6.789  0.4022  0.5355 -0.7071
   78CHL1    C7 8189   2.741   6.127   7.012  0.2523 -0.3881  0.2986
   78CHL1   H7A 8190   2.634   6.111   7.035  0.0325 -1.3848 -1.3448
   78CHL1   H7B 8191   2.795   6.031   7.028  2.1399  0.6529  0.3241
   78CHL1    C8 8192   2.804   6.229   7.111  0.2060 -0.5705 -0.0390
   78CHL1    H8 8193   2.733   6.313   7.103  0.1824 -0.5614  0.2509
   78CHL1   C14 8194   2.813   6.164   7.248 -1.0778  0.5978  0.4540
   78CHL1   H14 8195   2.880   6.076   7.233 -1.7142  0.3470 -0.9248
   78CHL1   C15 8196   2.689   6.089   7.307 -0.0398 -0.5345 -0.6476
   78CHL1  H15A 8197   2.602   6.158   7.307  1.3076  1.2627  1.5528
   78CHL1  H15B 8198   2.668   5.993   7.255  0.4408 -1.7779  1.4027
   78CHL1   C16 8199   2.738   6.073   7.460  0.9042 -0.3218 -0.2233
   78CHL1  H16A 8200   2.656   6.124   7.514  0.7051  0.6594 -1.4203
   78CHL1  H16B 8201   2.738   5.965   7.486 -0.3166 -0.8303 -2.2059
   78CHL1   C17 8202   2.873   6.149   7.478  0.7857  0.0503 -0.2402
   78CHL1   H17 8203   2.959   6.079   7.468  0.7287 -0.1228  0.4531
   78CHL1   C13 8204   2.881   6.249   7.353 -0.6881  0.4731 -0.0164
   78CHL1   C18 8205   2.795   6.371   7.379  0.1896  0.1187  0.6381
   78CHL1  H18A 8206   2.795   6.438   7.291 -0.6697  0.7872  1.1379
   78CHL1  H18B 8207   2.693   6.342   7.412  0.6753 -0.5156  1.6188
   78CHL1  H18C 8208   2.827   6.422   7.473 -2.0880 -0.1258  1.5798
   78CHL1   C12 8209   3.020   6.282   7.309  0.7764 -0.0373 -0.3902
   78CHL1  H12A 8210   3.073   6.337   7.389  0.1966 -0.1135  0.0425
   78CHL1  H12B 8211   3.079   6.188   7.302 -0.8149 -1.0077 -0.9247
   78CHL1   C11 8212   3.028   6.352   7.172  0.0546  0.5065 -0.7785
   78CHL1  H11A 8213   2.988   6.454   7.187  2.7432  1.3773  0.7892
   78CHL1  H11B 8214   3.132   6.370   7.138  0.0847  1.0616 -0.3938
   78CHL1    C9 8215   2.943   6.279   7.067 -0.3034  0.4375  0.2855
   78CHL1    H9 8216   3.000   6.189   7.036 -1.6810 -0.0838 -0.7528
   78CHL1   C10 8217   2.920   6.357   6.933 -0.1850 -0.5785  0.5327
   78CHL1   C19 8218   2.879   6.502   6.961  0.3895 -0.8244  0.9046
   78CHL1  H19A 8219   2.862   6.561   6.868 -0.8128 -1.2959  0.8180
   78CHL1  H19B 8220   2.780   6.506   7.010 -0.5782 -1.4269 -0.9556
   78CHL1  H19C 8221   2.948   6.566   7.020  1.4046  1.9201 -2.9890
   78CHL1    C1 8222   3.060   6.362   6.861  0.1592 -0.6453 -0.4623
   78CHL1   H1A 8223   3.128   6.415   6.931 -1.9239  2.3836 -0.6119
   78CHL1   H1B 8224   3.087   6.255   6.847  2.1593 -0.0185 -1.6425
   78CHL1    C2 8225   3.053   6.440   6.730  0.4547  0.1066  0.4534
   78CHL1   H2A 8226   3.151   6.421   6.681 -0.7255 -0.7166 -1.6359
   78CHL1   H2B 8227   3.037   6.550   6.741  1.0773  0.4664 -1.9537
   78CHL1   C20 8228   2.883   6.210   7.627  0.5878  0.5569  0.1087
   78CHL1   H20 8229   2.786   6.262   7.639  0.2636  0.5369 -2.1381
   78CHL1   C21 8230   3.002   6.309   7.634  0.4676 -0.7951 -0.0320
   78CHL1  H21A 8231   3.094   6.249   7.617 -0.5111 -2.7531  1.3172
   78CHL1  H21B 8232   3.015   6.343   7.739 -0.4195 -0.9890  0.1496
   78CHL1  H21C 8233   3.001   6.399   7.570 -1.4401 -0.4361  0.4757
   78CHL1   C22 8234   2.910   6.093   7.720  0.1453 -0.9326 -0.4035
   78CHL1  H22A 8235   2.855   6.000   7.693 -1.1904 -0.3215  0.1721
   78CHL1  H22B 8236   3.016   6.059   7.713  0.5065 -0.1761  1.0816
   78CHL1   C23 8237   2.872   6.127   7.869 -0.2534  0.0227  0.0719
   78CHL1  H23A 8238   2.900   6.231   7.895  2.6700 -0.6453 -0.2653
   78CHL1  H23B 8239   2.761   6.133   7.867 -0.2661  0.1550  1.0106
   78CHL1   C24 8240   2.927   6.021   7.966  0.3780  0.4078  0.3396
   78CHL1  H24A 8241   2.903   5.915   7.946 -2.5699  0.7390  1.8022
   78CHL1  H24B 8242   3.038   6.022   7.961  0.3904  0.8221  0.6233
   78CHL1   C25 8243   2.860   6.049   8.102 -0.6984 -0.0922  0.0465
   78CHL1   H25 8244   2.860   6.158   8.126  1.2076  0.1133 -0.7683
   78CHL1   C26 8245   2.710   6.022   8.102 -0.6545 -0.5628 -0.1178
   78CHL1  H26A 8246   2.695   5.912   8.103  0.8522 -0.7948  3.4782
   78CHL1  H26B 8247   2.678   6.049   8.205 -0.1444 -2.3594  0.5352
   78CHL1  H26C 8248   2.656   6.082   8.025  0.4437  2.6076  1.5125
   78CHL1   C27 8249   2.919   5.969   8.214 -0.1461 -0.0361 -0.3902
   78CHL1  H27A 8250   2.948   5.866   8.186  1.1869 -0.3003  1.8412
   78CHL1  H27B 8251   3.010   6.024   8.245 -1.0758  1.8427 -0.9124
   78CHL1  H27C 8252   2.847   5.973   8.298  1.0174 -2.1625  0.7583
   79CHL1    C3 8253   1.248   6.485   7.260  0.0937  0.1189  0.0755
   79CHL1    H3 8254   1.288   6.578   7.306  1.1045 -1.0360  1.5960
   79CHL1    O3 8255   1.206   6.483   7.125  0.4526  0.8081 -0.1955
   79CHL1   H3' 8256   1.141   6.415   7.109 -0.4228  2.1182 -2.4528
   79CHL1    C4 8257   1.356   6.383   7.280  0.0934 -0.4413  0.0534
   79CHL1   H4A 8258   1.316   6.286   7.242  1.8531 -1.4918  0.8401
   79CHL1   H4B 8259   1.439   6.413   7.212  0.9766  0.1297  1.3619
   79CHL1    C5 8260   1.393   6.349   7.421 -0.1388 -0.5953  0.6901
   79CHL1    C6 8261   1.508   6.378   7.471 -0.0662 -0.1581 -0.5627
   79CHL1    H6 8262   1.584   6.420   7.404 -0.4177  2.3341  0.5768
   79CHL1    C7 8263   1.548   6.337   7.609  0.5833  0.7130  0.5914
   79CHL1   H7A 8264   1.650   6.294   7.596  0.0864 -0.3797  0.2558
   79CHL1   H7B 8265   1.540   6.428   7.672  3.0570  1.2628  0.1779
   79CHL1    C8 8266   1.455   6.237   7.680 -0.3470  0.1192  0.1247
   79CHL1    H8 8267   1.473   6.136   7.635 -0.5282 -0.2231  0.8103
   79CHL1   C14 8268   1.492   6.225   7.827 -0.2088  0.4583  0.0760
   79CHL1   H14 8269   1.471   6.323   7.875 -2.2877  0.3539 -0.5507
   79CHL1   C15 8270   1.637   6.191   7.864 -0.4062  0.9087 -0.3262
   79CHL1  H15A 8271   1.686   6.129   7.786 -1.4821  1.4156 -1.4325
   79CHL1  H15B 8272   1.681   6.293   7.863 -0.8695  1.1705  2.2598
   79CHL1   C16 8273   1.630   6.128   7.999 -0.0960 -0.0526 -0.2444
   79CHL1  H16A 8274   1.682   6.030   8.007  0.8970  0.6533  2.9214
   79CHL1  H16B 8275   1.685   6.199   8.066  1.5171 -0.5932 -0.9746
   79CHL1   C17 8276   1.482   6.125   8.040  0.1723 -0.1226 -0.6748
   79CHL1   H17 8277   1.469   6.226   8.083 -1.4918 -0.1285 -1.1258
   79CHL1   C13 8278   1.403   6.127   7.904  0.0632  0.1405 -0.4764
   79CHL1   C18 8279   1.421   5.980   7.853  0.8676 -0.0285  0.4924
   79CHL1  H18A 8280   1.528   5.956   7.838  1.0033  1.4534 -1.0628
   79CHL1  H18B 8281   1.368   5.907   7.918 -4.4271 -0.1418 -3.6265
   79CHL1  H18C 8282   1.386   5.970   7.748  1.8363  2.3092 -0.0789
   79CHL1   C12 8283   1.258   6.180   7.896 -0.6778 -0.3168 -0.5056
   79CHL1  H12A 8284   1.190   6.108   7.948 -0.5612  0.9771  1.5307
   79CHL1  H12B 8285   1.248   6.278   7.948 -0.2126  0.5414 -2.0353
   79CHL1   C11 8286   1.213   6.192   7.747  0.0726 -0.1711  0.0138
   79CHL1  H11A 8287   1.204   6.087   7.712 -2.2350 -0.6034  1.7318
   79CHL1  H11B 8288   1.110   6.233   7.750 -0.2275 -0.9280  0.3550
   79CHL1    C9 8289   1.309   6.274   7.658 -0.7698  0.7209  0.6386
   79CHL1    H9 8290   1.297   6.378   7.697 -2.3596  1.1330 -0.8889
   79CHL1   C10 8291   1.273   6.290   7.500 -0.6279 -0.1341 -0.5423
   79CHL1   C19 8292   1.243   6.150   7.449 -0.2134 -0.6392  0.6834
   79CHL1  H19A 8293   1.209   6.147   7.343 -1.3557 -0.4342  1.0327
   79CHL1  H19B 8294   1.332   6.084   7.451 -0.0810 -0.5151 -0.7097
   79CHL1  H19C 8295   1.152   6.108   7.497 -0.4884 -2.1287 -1.1161
   79CHL1    C1 8296   1.162   6.401   7.493 -0.1451  1.1022 -0.3765
   79CHL1   H1A 8297   1.082   6.341   7.541  2.3449 -0.7070  1.6336
   79CHL1   H1B 8298   1.168   6.493   7.555  0.4685  1.3284 -0.7637
   79CHL1    C2 8299   1.127   6.433   7.342  0.5664  0.1208 -0.8252
   79CHL1   H2A 8300   1.051   6.513   7.352 -0.6291 -1.5007  5.6138
   79CHL1   H2B 8301   1.091   6.340   7.293  2.5152 -0.0225 -2.0511
   79CHL1   C20 8302   1.459   6.012   8.150  0.3417  0.1448 -0.1717
   79CHL1   H20 8303   1.506   5.921   8.107 -0.8724 -0.3720 -0.4365
   79CHL1   C21 8304   1.317   5.978   8.177  0.1483 -0.6574  0.0029
   79CHL1  H21A 8305   1.330   5.875   8.218 -0.7249 -0.4851  0.7259
   79CHL1  H21B 8306   1.265   5.968   8.079  2.2532  0.1693 -1.2096
   79CHL1  H21C 8307   1.268   6.044   8.252 -1.2133  0.7343 -2.0492
   79CHL1   C22 8308   1.544   6.039   8.279 -0.1755  0.4622 -0.2351
   79CHL1  H22A 8309   1.513   5.953   8.342  0.9823 -1.4066 -2.1450
   79CHL1  H22B 8310   1.651   6.026   8.253 -0.0553  1.2869 -0.1868
   79CHL1   C23 8311   1.510   6.171   8.354 -0.0592 -0.5271 -0.4029
   79CHL1  H23A 8312   1.549   6.267   8.313 -1.7516  1.1744  1.8373
   79CHL1  H23B 8313   1.399   6.179   8.357 -0.1333 -1.4649 -0.5549
   79CHL1   C24 8314   1.574   6.173   8.498 -0.2212 -0.4898 -0.5639
   79CHL1  H24A 8315   1.528   6.086   8.551 -0.0964  0.3647  0.9831
   79CHL1  H24B 8316   1.684   6.167   8.489 -0.1818 -0.0561 -0.3923
   79CHL1   C25 8317   1.536   6.291   8.591  0.2817  0.3872  0.2744
   79CHL1   H25 8318   1.560   6.386   8.540  0.3116  0.9231  1.2666
   79CHL1   C26 8319   1.387   6.297   8.625 -0.1915  0.2250 -0.2586
   79CHL1  H26A 8320   1.365   6.375   8.702  1.1761  1.0530 -0.6791
   79CHL1  H26B 8321   1.327   6.306   8.533  0.2341 -1.4897 -0.7146
   79CHL1  H26C 8322   1.359   6.201   8.673  0.8093 -0.5985 -1.2998
   79CHL1   C27 8323   1.610   6.277   8.723  0.0134  0.0609 -0.0803
   79CHL1  H27A 8324   1.583   6.371   8.777 -0.8631 -0.0007 -0.3968
   79CHL1  H27B 8325   1.584   6.178   8.767  1.4376 -0.4827 -0.4563
   79CHL1  H27C 8326   1.720   6.274   8.711 -0.2038 -3.9282 -1.9053
   80CHL1    C3 8327   6.708   3.781   6.972 -0.3203 -0.0262 -0.8368
   80CHL1    H3 8328   6.635   3.735   7.042  0.2665  2.0732  1.1917
   80CHL1    O3 8329   6.657   3.796   6.842 -0.3054 -0.8910  0.0448
   80CHL1   H3' 8330   6.648   3.706   6.810 -0.9941 -0.9995  0.5443
   80CHL1    C4 8331   6.744   3.918   7.030  0.2912 -0.3049 -0.4863
   80CHL1   H4A 8332   6.832   3.951   6.971  0.4627 -1.2045 -0.7471
   80CHL1   H4B 8333   6.671   3.999   7.008  0.4399 -0.1278 -0.3266
   80CHL1    C5 8334   6.791   3.901   7.168 -0.1331  0.2504 -0.4741
   80CHL1    C6 8335   6.727   3.970   7.263 -0.3420 -0.6061  0.3901
   80CHL1    H6 8336   6.646   4.039   7.236  0.7232 -0.1530 -1.7524
   80CHL1    C7 8337   6.745   3.955   7.408  0.7335  0.2054 -0.7574
   80CHL1   H7A 8338   6.772   4.048   7.462 -0.6122  0.8523 -1.1762
   80CHL1   H7B 8339   6.656   3.903   7.450  0.0565 -0.0743 -2.5179
   80CHL1    C8 8340   6.877   3.874   7.436  0.7998 -0.0163 -0.1138
   80CHL1    H8 8341   6.966   3.937   7.414  1.2376 -0.5773  0.0483
   80CHL1   C14 8342   6.878   3.830   7.584 -0.2677  0.3662  0.1773
   80CHL1   H14 8343   6.795   3.757   7.601  0.8748 -0.6271  1.6192
   80CHL1   C15 8344   6.845   3.941   7.695  0.6107  0.5684  0.1598
   80CHL1  H15A 8345   6.902   4.033   7.669  0.6887 -0.3932 -3.2279
   80CHL1  H15B 8346   6.736   3.961   7.702  0.4348 -0.9021  1.9940
   80CHL1   C16 8347   6.899   3.878   7.826  0.4867 -0.4607  0.3779
   80CHL1  H16A 8348   6.978   3.949   7.858 -0.7173  2.6253 -3.0527
   80CHL1  H16B 8349   6.823   3.867   7.906 -1.4566  0.8299 -1.2601
   80CHL1   C17 8350   6.975   3.753   7.782 -0.3071  0.4852 -0.1066
   80CHL1   H17 8351   6.908   3.665   7.785  0.6168 -0.1984  0.9925
   80CHL1   C13 8352   7.008   3.765   7.632  0.1946 -0.4349 -0.1908
   80CHL1   C18 8353   7.134   3.861   7.618  0.9007  0.8641 -0.4398
   80CHL1  H18A 8354   7.223   3.831   7.677  0.1541  1.2372  0.9097
   80CHL1  H18B 8355   7.173   3.865   7.514  0.6665 -1.0756 -0.6098
   80CHL1  H18C 8356   7.106   3.965   7.646 -0.0377  1.1501 -2.3763
   80CHL1   C12 8357   7.019   3.637   7.550 -0.4741 -0.1841 -0.0620
   80CHL1  H12A 8358   7.116   3.587   7.571  0.0514  0.6034 -0.5830
   80CHL1  H12B 8359   6.935   3.570   7.578  0.5159 -0.6813  1.8142
   80CHL1   C11 8360   7.019   3.676   7.393 -0.0006  0.0120  0.9148
   80CHL1  H11A 8361   7.116   3.725   7.368  0.0470  0.7620  2.4733
   80CHL1  H11B 8362   7.014   3.577   7.342  0.7180 -0.0247  0.9012
   80CHL1    C9 8363   6.889   3.752   7.352  0.7233  0.1653  0.2067
   80CHL1    H9 8364   6.799   3.690   7.373  0.3418  1.1038  1.4277
   80CHL1   C10 8365   6.893   3.785   7.200  0.8357  0.3130 -0.6247
   80CHL1   C19 8366   7.034   3.832   7.149 -0.0618  0.2748 -0.1410
   80CHL1  H19A 8367   7.106   3.748   7.138 -0.0013  0.3564 -0.3617
   80CHL1  H19B 8368   7.015   3.899   7.063 -1.6290 -0.0915 -0.0909
   80CHL1  H19C 8369   7.084   3.891   7.230  0.6976 -1.3168  0.5779
   80CHL1    C1 8370   6.848   3.659   7.124 -0.5338  0.1502 -0.8323
   80CHL1   H1A 8371   6.933   3.587   7.129 -1.4830 -0.8602  1.7694
   80CHL1   H1B 8372   6.755   3.612   7.162  0.2704 -0.4514  0.4508
   80CHL1    C2 8373   6.823   3.677   6.969  0.1152 -0.3446  0.3721
   80CHL1   H2A 8374   6.788   3.581   6.926 -1.2301  0.2789  0.0625
   80CHL1   H2B 8375   6.914   3.713   6.916  0.0357  0.8211  1.0137
   80CHL1   C20 8376   7.087   3.719   7.881  0.5346 -0.7149  0.2693
   80CHL1   H20 8377   7.169   3.792   7.866  0.5311 -0.8642 -0.4999
   80CHL1   C21 8378   7.147   3.576   7.856  0.1259  0.5315  0.3922
   80CHL1  H21A 8379   7.073   3.502   7.891 -0.1395  1.1861  1.2265
   80CHL1  H21B 8380   7.249   3.568   7.899  1.9560 -0.1716 -3.7516
   80CHL1  H21C 8381   7.164   3.564   7.747 -1.6379 -0.5416  0.2191
   80CHL1   C22 8382   7.041   3.738   8.026 -0.6394 -0.3869  0.0093
   80CHL1  H22A 8383   7.022   3.846   8.039 -1.3385 -0.5606  0.4598
   80CHL1  H22B 8384   6.947   3.681   8.043 -0.5465 -0.2769  0.9070
   80CHL1   C23 8385   7.144   3.690   8.129  0.0249  0.7476 -0.7846
   80CHL1  H23A 8386   7.170   3.585   8.104 -0.8311  0.0611  1.1375
   80CHL1  H23B 8387   7.226   3.765   8.131  1.1970 -0.5204  0.3678
   80CHL1   C24 8388   7.102   3.703   8.276  0.2343 -1.2486 -0.9553
   80CHL1  H24A 8389   7.075   3.808   8.302 -0.6621 -1.1536 -2.2270
   80CHL1  H24B 8390   7.009   3.645   8.293 -0.2528 -0.0193  0.7545
   80CHL1   C25 8391   7.197   3.642   8.385 -0.0232  0.0290 -0.1566
   80CHL1   H25 8392   7.299   3.679   8.360 -0.9700  1.7466 -1.5588
   80CHL1   C26 8393   7.177   3.695   8.528  0.7309  0.3740  0.3806
   80CHL1  H26A 8394   7.081   3.656   8.568  1.0672  0.2049  1.0318
   80CHL1  H26B 8395   7.255   3.664   8.601  2.2638  2.6418 -0.2354
   80CHL1  H26C 8396   7.171   3.806   8.521 -3.3515  0.3002  1.3612
   80CHL1   C27 8397   7.194   3.493   8.395  0.0145 -0.1703 -0.0721
   80CHL1  H27A 8398   7.284   3.458   8.449  0.7375  0.6963 -0.6908
   80CHL1  H27B 8399   7.097   3.459   8.436 -1.2471  2.4814 -0.7180
   80CHL1  H27C 8400   7.207   3.456   8.291  0.3358  1.2842 -0.5630
   81CHL1    C3 8401   4.560   3.924   6.706  0.4248  1.0442  0.3365
   81CHL1    H3 8402   4.543   4.028   6.741 -0.0849  0.3077  2.3647
   81CHL1    O3 8403   4.597   3.935   6.566 -0.0179  0.5591  0.6663
   81CHL1   H3' 8404   4.636   3.848   6.554  0.5781  0.6839  1.6119
   81CHL1    C4 8405   4.673   3.855   6.778  0.0567 -0.1056 -0.9030
   81CHL1   H4A 8406   4.691   3.759   6.725 -2.0517  0.2874 -2.4142
   81CHL1   H4B 8407   4.770   3.905   6.757 -0.1080 -0.5221 -2.8146
   81CHL1    C5 8408   4.645   3.840   6.921  0.3452 -0.3057 -0.1095
   81CHL1    C6 8409   4.726   3.886   7.015  0.4005  0.0820  0.1771
   81CHL1    H6 8410   4.813   3.948   6.989  1.4512 -0.9865  1.0845
   81CHL1    C7 8411   4.692   3.862   7.157 -0.2082 -0.6010 -0.3642
   81CHL1   H7A 8412   4.782   3.846   7.221 -0.0635  1.0670 -0.1436
   81CHL1   H7B 8413   4.658   3.960   7.196 -1.1667 -1.0151 -0.1617
   81CHL1    C8 8414   4.586   3.756   7.184  0.0391  0.6799 -0.1144
   81CHL1    H8 8415   4.630   3.654   7.175 -0.8166 -0.0198  2.7579
   81CHL1   C14 8416   4.546   3.771   7.336 -0.1797  0.1458  0.0271
   81CHL1   H14 8417   4.495   3.870   7.339 -0.8973 -0.2464  1.0201
   81CHL1   C15 8418   4.659   3.776   7.439  0.2908 -0.7542 -0.4621
   81CHL1  H15A 8419   4.732   3.699   7.405 -0.7570 -3.0982  2.3207
   81CHL1  H15B 8420   4.721   3.868   7.439  0.6906 -1.0226 -0.5959
   81CHL1   C16 8421   4.591   3.726   7.567  0.0584 -0.1525 -0.0727
   81CHL1  H16A 8422   4.646   3.641   7.614  0.4836 -0.0663 -0.4056
   81CHL1  H16B 8423   4.589   3.806   7.644  0.1000  1.7102 -1.9514
   81CHL1   C17 8424   4.446   3.697   7.527  0.5818  0.4816 -0.0446
   81CHL1   H17 8425   4.385   3.790   7.538  0.8267  0.6147  0.1988
   81CHL1   C13 8426   4.440   3.661   7.374 -0.1152  0.0721  0.0191
   81CHL1   C18 8427   4.497   3.519   7.344  0.0361 -0.4000 -0.0238
   81CHL1  H18A 8428   4.589   3.500   7.404  0.0286 -2.5027 -0.6360
   81CHL1  H18B 8429   4.424   3.438   7.367  1.4927 -1.8645 -0.4231
   81CHL1  H18C 8430   4.514   3.499   7.236 -1.9019 -1.1252 -0.2181
   81CHL1   C12 8431   4.317   3.699   7.286  0.5097  0.0979  0.2086
   81CHL1  H12A 8432   4.241   3.619   7.300  0.3745  0.0016 -1.0034
   81CHL1  H12B 8433   4.280   3.799   7.317  0.3750  0.9235 -2.4628
   81CHL1   C11 8434   4.344   3.697   7.136 -0.4269  0.1973  0.2420
   81CHL1  H11A 8435   4.366   3.591   7.108  0.0874  0.4663 -0.3888
   81CHL1  H11B 8436   4.255   3.722   7.075 -0.6770 -1.0214  0.0783
   81CHL1    C9 8437   4.471   3.770   7.090 -0.7431 -0.1467 -0.3653
   81CHL1    H9 8438   4.445   3.877   7.106  2.3177  0.7440 -0.9320
   81CHL1   C10 8439   4.515   3.757   6.945  0.7044  0.7399 -0.5792
   81CHL1   C19 8440   4.540   3.611   6.901 -0.2614  0.0562  0.3614
   81CHL1  H19A 8441   4.573   3.600   6.796  2.7500  0.6996  1.1867
   81CHL1  H19B 8442   4.598   3.554   6.978 -1.0654 -0.7316  0.3893
   81CHL1  H19C 8443   4.439   3.565   6.903 -0.4843  0.5856  1.8568
   81CHL1    C1 8444   4.395   3.814   6.864 -0.3554 -0.3456  0.1385
   81CHL1   H1A 8445   4.303   3.754   6.877 -0.6490  0.4897  1.9584
   81CHL1   H1B 8446   4.377   3.912   6.911 -0.7963  0.1673 -1.0824
   81CHL1    C2 8447   4.434   3.837   6.716 -0.7204  0.4902 -0.0871
   81CHL1   H2A 8448   4.340   3.882   6.675 -0.7718 -0.8383 -1.4494
   81CHL1   H2B 8449   4.454   3.746   6.656  1.9700  1.4090 -0.6354
   81CHL1   C20 8450   4.377   3.601   7.618 -0.2827 -0.0116  0.1001
   81CHL1   H20 8451   4.427   3.502   7.615  0.3451  0.3432 -1.8528
   81CHL1   C21 8452   4.236   3.585   7.571 -0.2135 -0.5200  0.0172
   81CHL1  H21A 8453   4.179   3.678   7.551 -0.2632 -0.6141 -0.2725
   81CHL1  H21B 8454   4.185   3.542   7.660  0.4583  0.7471  1.0365
   81CHL1  H21C 8455   4.226   3.509   7.491 -0.2463 -1.3981  0.8362
   81CHL1   C22 8456   4.371   3.649   7.766 -0.1540  0.2411 -0.4957
   81CHL1  H22A 8457   4.462   3.705   7.797 -0.3326  0.2108  0.0752
   81CHL1  H22B 8458   4.279   3.710   7.774 -2.2174 -2.6877 -1.2682
   81CHL1   C23 8459   4.358   3.531   7.866  0.0304  0.0872 -0.5029
   81CHL1  H23A 8460   4.261   3.479   7.858 -0.4958  1.0648 -0.5859
   81CHL1  H23B 8461   4.434   3.454   7.841 -1.1813 -1.8276  1.6059
   81CHL1   C24 8462   4.372   3.560   8.012  1.5635  0.7749  0.2455
   81CHL1  H24A 8463   4.467   3.614   8.033  1.0822  1.4474  0.6753
   81CHL1  H24B 8464   4.292   3.623   8.056  1.6497  1.2922 -0.3453
   81CHL1   C25 8465   4.358   3.431   8.093  0.1678 -0.1698  0.4114
   81CHL1   H25 8466   4.284   3.366   8.042 -0.0346  0.2888  0.1211
   81CHL1   C26 8467   4.490   3.352   8.100  0.0566 -0.1202 -0.1874
   81CHL1  H26A 8468   4.535   3.322   8.003  0.2488  1.1381 -0.4841
   81CHL1  H26B 8469   4.570   3.400   8.161  0.1842 -0.2812 -0.2260
   81CHL1  H26C 8470   4.463   3.252   8.141  1.6685 -0.9741 -1.1820
   81CHL1   C27 8471   4.296   3.463   8.233  0.1032  0.2959 -0.1739
   81CHL1  H27A 8472   4.196   3.511   8.221  0.3247  0.6506 -0.6181
   81CHL1  H27B 8473   4.279   3.369   8.290 -0.6366  0.9465  0.6825
   81CHL1  H27C 8474   4.360   3.537   8.286  0.6979 -0.0048 -0.4720
   82CHL1    C3 8475   5.299   4.729   6.930 -0.5618 -0.5732 -0.6984
   82CHL1    H3 8476   5.387   4.663   6.948 -0.3656 -0.3855 -0.9674
   82CHL1    O3 8477   5.259   4.704   6.795 -0.2615 -0.1897 -0.5297
   82CHL1   H3' 8478   5.235   4.612   6.788  3.2710 -1.1235 -1.2388
   82CHL1    C4 8479   5.187   4.696   7.036  0.3044 -0.4175  0.1319
   82CHL1   H4A 8480   5.102   4.756   6.997  1.0647 -0.8657 -2.3271
   82CHL1   H4B 8481   5.172   4.586   7.027  2.4111 -0.6447 -0.8780
   82CHL1    C5 8482   5.222   4.741   7.173  0.6034  0.2878 -0.3288
   82CHL1    C6 8483   5.204   4.652   7.270  0.2486  0.5886  0.3477
   82CHL1    H6 8484   5.178   4.548   7.246  1.4513  0.2635  0.4357
   82CHL1    C7 8485   5.231   4.667   7.414  0.7848 -0.2642  0.0444
   82CHL1   H7A 8486   5.146   4.617   7.465 -2.1073  2.9351 -1.3819
   82CHL1   H7B 8487   5.330   4.626   7.444  1.6811  0.4452 -1.8483
   82CHL1    C8 8488   5.236   4.819   7.448 -0.8681 -0.0767 -0.4868
   82CHL1    H8 8489   5.132   4.858   7.445 -1.5306 -1.7827 -0.0364
   82CHL1   C14 8490   5.294   4.836   7.587  0.0076 -0.3221 -0.6066
   82CHL1   H14 8491   5.390   4.780   7.589 -0.6528 -1.4288  1.5905
   82CHL1   C15 8492   5.198   4.776   7.694 -0.3490 -0.4032 -0.0433
   82CHL1  H15A 8493   5.090   4.800   7.682 -0.5882 -0.2497  2.2674
   82CHL1  H15B 8494   5.214   4.667   7.693 -0.4143 -0.4297  1.7514
   82CHL1   C16 8495   5.256   4.840   7.823  0.2889 -0.7310 -0.3736
   82CHL1  H16A 8496   5.178   4.858   7.900  1.1445 -1.4549  0.6744
   82CHL1  H16B 8497   5.323   4.769   7.876  2.4759  1.3865 -0.2581
   82CHL1   C17 8498   5.346   4.962   7.784  0.3468  0.1418 -0.7724
   82CHL1   H17 8499   5.451   4.925   7.785 -0.1991 -1.4613  0.7907
   82CHL1   C13 8500   5.316   4.976   7.628 -1.0006 -0.1409  0.1091
   82CHL1   C18 8501   5.182   5.061   7.605 -0.1534  0.2322  0.3026
   82CHL1  H18A 8502   5.210   5.166   7.629  0.6604  0.2364 -0.6125
   82CHL1  H18B 8503   5.150   5.048   7.499  1.0473  1.8816 -0.2938
   82CHL1  H18C 8504   5.106   5.019   7.674 -1.2208 -1.4475 -1.8436
   82CHL1   C12 8505   5.416   5.040   7.531 -0.0469 -0.0044 -0.8643
   82CHL1  H12A 8506   5.435   5.147   7.552 -1.5261  0.7640 -3.1975
   82CHL1  H12B 8507   5.511   4.984   7.542 -0.3779 -0.0914  1.9109
   82CHL1   C11 8508   5.368   5.029   7.385  0.1684  0.2095 -0.0605
   82CHL1  H11A 8509   5.288   5.103   7.364  0.2079  0.4790  0.7220
   82CHL1  H11B 8510   5.448   5.069   7.318 -1.3958  1.1527 -1.3844
   82CHL1    C9 8511   5.323   4.890   7.340  0.6396 -0.0742 -0.3449
   82CHL1    H9 8512   5.414   4.827   7.337  0.6999 -0.1077  1.4666
   82CHL1   C10 8513   5.266   4.883   7.201  0.0910  0.5100 -0.0069
   82CHL1   C19 8514   5.155   4.992   7.183  0.1877  0.5042  0.1169
   82CHL1  H19A 8515   5.202   5.090   7.161 -0.3123  0.6869 -0.1407
   82CHL1  H19B 8516   5.079   4.961   7.107 -1.7081 -0.4475  2.3306
   82CHL1  H19C 8517   5.102   5.010   7.279 -1.3969  1.3393 -0.9015
   82CHL1    C1 8518   5.378   4.900   7.092 -1.0181  0.1957  0.1649
   82CHL1   H1A 8519   5.422   5.001   7.105 -0.4942  0.0115 -0.1649
   82CHL1   H1B 8520   5.461   4.829   7.113 -1.4078 -1.5283 -3.6549
   82CHL1    C2 8521   5.334   4.878   6.948 -0.2572  0.5704  0.5967
   82CHL1   H2A 8522   5.427   4.891   6.889 -1.1261  1.6914 -0.5626
   82CHL1   H2B 8523   5.261   4.954   6.914  2.1697  1.6889 -2.4074
   82CHL1   C20 8524   5.332   5.086   7.878 -0.4502  0.4421  0.0558
   82CHL1   H20 8525   5.226   5.121   7.877 -0.7968 -0.4685  2.1965
   82CHL1   C21 8526   5.413   5.206   7.828 -0.0965 -0.1175 -0.0976
   82CHL1  H21A 8527   5.520   5.179   7.827 -0.5377 -1.9319 -0.4753
   82CHL1  H21B 8528   5.393   5.293   7.895 -1.0546 -1.5746  1.5453
   82CHL1  H21C 8529   5.388   5.232   7.723 -0.0521 -0.3206 -0.1584
   82CHL1   C22 8530   5.373   5.040   8.023 -0.5429 -0.1311  1.1747
   82CHL1  H22A 8531   5.321   4.945   8.047 -2.0353 -0.1564 -1.9667
   82CHL1  H22B 8532   5.480   5.010   8.031 -1.4992 -3.7065  1.3044
   82CHL1   C23 8533   5.365   5.141   8.135  0.0139 -0.3189 -0.0055
   82CHL1  H23A 8534   5.464   5.192   8.128  1.7468 -3.4561  0.9916
   82CHL1  H23B 8535   5.277   5.207   8.122 -0.3377 -0.2570  2.5199
   82CHL1   C24 8536   5.348   5.076   8.275  0.4423 -0.5773 -0.5543
   82CHL1  H24A 8537   5.247   5.030   8.275 -0.0211  0.4247 -1.2470
   82CHL1  H24B 8538   5.420   4.993   8.293  0.1233 -0.7077  0.1587
   82CHL1   C25 8539   5.379   5.169   8.390 -0.1279 -0.0453  0.0016
   82CHL1   H25 8540   5.328   5.265   8.367  0.8539  0.8311  1.3956
   82CHL1   C26 8541   5.309   5.125   8.516 -0.7401 -0.2483  0.4053
   82CHL1  H26A 8542   5.360   5.032   8.550 -0.0201  0.4445  1.2373
   82CHL1  H26B 8543   5.326   5.201   8.595  2.2474  1.0211 -1.3441
   82CHL1  H26C 8544   5.206   5.087   8.501 -0.6529 -0.5438  0.5468
   82CHL1   C27 8545   5.532   5.198   8.405 -0.0939  0.3029  0.2949
   82CHL1  H27A 8546   5.583   5.119   8.465  1.1951 -0.1284 -1.3422
   82CHL1  H27B 8547   5.577   5.196   8.304 -1.1568  3.2058 -0.2635
   82CHL1  H27C 8548   5.541   5.302   8.443 -1.1682 -0.3883  2.5982
   83CHL1    C3 8549   1.397   5.630   6.956 -0.5936 -0.4387  0.0058
   83CHL1    H3 8550   1.497   5.592   6.928 -0.5250 -0.5971  0.4628
   83CHL1    O3 8551   1.321   5.670   6.842  0.2717  0.0812 -0.4102
   83CHL1   H3' 8552   1.246   5.719   6.876  1.4836  3.3458 -2.1663
   83CHL1    C4 8553   1.310   5.517   7.017 -0.2723  0.2549  0.1394
   83CHL1   H4A 8554   1.202   5.536   7.003 -1.0136 -4.0923 -0.9069
   83CHL1   H4B 8555   1.310   5.424   6.955 -2.0706  0.2450  0.1287
   83CHL1    C5 8556   1.336   5.476   7.164  0.5326  0.1661  0.0182
   83CHL1    C6 8557   1.342   5.345   7.197 -0.1735  0.3840  0.5969
   83CHL1    H6 8558   1.340   5.276   7.112  2.0335 -0.6277  1.3252
   83CHL1    C7 8559   1.361   5.302   7.344  0.2713 -0.3152 -0.0985
   83CHL1   H7A 8560   1.307   5.210   7.375  0.5512 -0.2832  0.4942
   83CHL1   H7B 8561   1.468   5.288   7.369  0.0307  1.0047  1.7905
   83CHL1    C8 8562   1.321   5.421   7.441  0.2979 -0.2816  1.3494
   83CHL1    H8 8563   1.211   5.429   7.444  0.3088  0.6768 -0.1543
   83CHL1   C14 8564   1.374   5.389   7.581  0.5718  0.0816 -0.4984
   83CHL1   H14 8565   1.485   5.385   7.583  0.5852  0.3266 -0.7586
   83CHL1   C15 8566   1.314   5.265   7.653  0.4291 -0.3063  0.7470
   83CHL1  H15A 8567   1.206   5.246   7.638  0.4948 -1.1919  1.3692
   83CHL1  H15B 8568   1.358   5.172   7.610 -1.1111 -1.2107  1.1324
   83CHL1   C16 8569   1.350   5.286   7.798  0.0384  0.0475  1.5167
   83CHL1  H16A 8570   1.257   5.257   7.852 -0.4685 -2.2602 -0.4740
   83CHL1  H16B 8571   1.418   5.202   7.829 -0.6094 -0.9473  0.2747
   83CHL1   C17 8572   1.406   5.430   7.816 -0.1012  0.6983 -0.2090
   83CHL1   H17 8573   1.517   5.427   7.811  0.0577 -1.8376  3.3166
   83CHL1   C13 8574   1.348   5.493   7.692 -0.2745 -0.6217 -0.8095
   83CHL1   C18 8575   1.198   5.520   7.704 -1.0824  0.6405 -0.2779
   83CHL1  H18A 8576   1.142   5.439   7.754 -1.6228 -0.5620 -2.7262
   83CHL1  H18B 8577   1.186   5.615   7.760  0.4390 -0.1910  1.4810
   83CHL1  H18C 8578   1.159   5.533   7.600  0.2583  1.7991 -0.6495
   83CHL1   C12 8579   1.422   5.622   7.650 -0.5182 -0.6525  0.1930
   83CHL1  H12A 8580   1.394   5.705   7.719 -2.4450 -1.4813  0.4351
   83CHL1  H12B 8581   1.532   5.606   7.644 -0.5602 -0.5424 -0.9786
   83CHL1   C11 8582   1.378   5.666   7.509 -0.8625 -0.1645 -0.0649
   83CHL1  H11A 8583   1.273   5.701   7.513 -1.2492 -1.2334 -0.5897
   83CHL1  H11B 8584   1.452   5.738   7.469  2.2406 -2.3488  1.5405
   83CHL1    C9 8585   1.384   5.555   7.395 -0.8808 -0.4540  0.0827
   83CHL1    H9 8586   1.493   5.534   7.398 -0.8307 -0.7148 -2.4778
   83CHL1   C10 8587   1.344   5.605   7.252  0.2114  0.3626  0.3651
   83CHL1   C19 8588   1.195   5.661   7.264 -0.3248  0.1936 -0.3928
   83CHL1  H19A 8589   1.142   5.675   7.167 -0.1785 -0.4133 -0.5597
   83CHL1  H19B 8590   1.134   5.594   7.328 -1.6011  1.0609 -0.6760
   83CHL1  H19C 8591   1.205   5.764   7.307  0.2063 -0.7206  1.7329
   83CHL1    C1 8592   1.437   5.718   7.191 -0.1841 -0.8683 -0.8186
   83CHL1   H1A 8593   1.435   5.810   7.254  1.6607 -1.7070  0.5222
   83CHL1   H1B 8594   1.540   5.677   7.190  1.3248  2.6793  0.9955
   83CHL1    C2 8595   1.404   5.754   7.044 -0.5010 -0.4596 -0.0147
   83CHL1   H2A 8596   1.482   5.824   7.008 -3.8057  2.9245 -0.9450
   83CHL1   H2B 8597   1.305   5.806   7.042  0.7147  1.9828  0.6630
   83CHL1   C20 8598   1.384   5.494   7.957 -0.0382 -0.4902  0.0318
   83CHL1   H20 8599   1.291   5.553   7.951  0.7612  0.9339  1.2579
   83CHL1   C21 8600   1.491   5.607   7.978 -0.4928  0.5311 -0.4054
   83CHL1  H21A 8601   1.464   5.667   8.068 -0.3420  1.1765 -0.7812
   83CHL1  H21B 8602   1.489   5.685   7.899 -0.9687 -0.6579 -1.5672
   83CHL1  H21C 8603   1.594   5.570   7.997 -0.6757  0.1710 -0.1032
   83CHL1   C22 8604   1.375   5.389   8.074  0.5173 -0.5449  0.1311
   83CHL1  H22A 8605   1.316   5.298   8.048  0.3993  0.0559 -1.7641
   83CHL1  H22B 8606   1.473   5.354   8.113 -0.0485 -3.3842 -0.8266
   83CHL1   C23 8607   1.293   5.452   8.196 -0.4060 -0.1542 -0.2252
   83CHL1  H23A 8608   1.358   5.537   8.226  0.4407 -1.1233  0.7405
   83CHL1  H23B 8609   1.187   5.476   8.175 -0.2076  0.2401 -0.7880
   83CHL1   C24 8610   1.279   5.371   8.322 -0.2657  0.8400  0.2916
   83CHL1  H24A 8611   1.209   5.285   8.316  1.2989 -0.3831 -0.5715
   83CHL1  H24B 8612   1.377   5.327   8.348  0.5477  0.7198 -2.8147
   83CHL1   C25 8613   1.235   5.442   8.455  0.4282 -0.4999 -0.2068
   83CHL1   H25 8614   1.144   5.501   8.432  0.2298 -0.9945 -0.7090
   83CHL1   C26 8615   1.200   5.341   8.566  0.9716 -0.1323 -0.1330
   83CHL1  H26A 8616   1.162   5.389   8.658 -2.4542 -0.3836 -1.3302
   83CHL1  H26B 8617   1.123   5.268   8.534  1.3076 -0.3406 -0.4721
   83CHL1  H26C 8618   1.285   5.276   8.596  0.6196  0.1635  1.5545
   83CHL1   C27 8619   1.336   5.549   8.497  0.1181  0.3140 -0.0500
   83CHL1  H27A 8620   1.352   5.631   8.424 -0.1733 -0.6064 -1.1701
   83CHL1  H27B 8621   1.298   5.599   8.589 -0.1197  1.1904 -0.6131
   83CHL1  H27C 8622   1.434   5.503   8.522 -1.0836 -1.4663  1.5552
   84CHL1    C3 8623   3.289   1.617   7.168 -0.0398  0.7061 -0.2209
   84CHL1    H3 8624   3.181   1.646   7.169 -0.6286 -1.3858  0.5309
   84CHL1    O3 8625   3.342   1.650   7.048  0.0698  0.0345  0.4640
   84CHL1   H3' 8626   3.308   1.580   6.991  2.0125  0.0725 -0.7899
   84CHL1    C4 8627   3.360   1.705   7.269 -0.6920  0.3724  0.4349
   84CHL1   H4A 8628   3.470   1.689   7.262 -0.5647  2.0955 -2.1473
   84CHL1   H4B 8629   3.345   1.809   7.233  0.8178  0.6992  0.7022
   84CHL1    C5 8630   3.314   1.676   7.405  1.4149  0.0402 -0.3993
   84CHL1    C6 8631   3.248   1.771   7.477  0.6424 -0.0460 -0.1567
   84CHL1    H6 8632   3.247   1.871   7.430 -0.6529  0.4343  0.8847
   84CHL1    C7 8633   3.203   1.761   7.616  0.2827  0.1152  0.2384
   84CHL1   H7A 8634   3.234   1.849   7.676 -0.0934  1.8207 -2.0092
   84CHL1   H7B 8635   3.092   1.756   7.626  0.4135 -0.0097  1.7527
   84CHL1    C8 8636   3.258   1.629   7.670 -0.4101  1.1075 -0.3740
   84CHL1    H8 8637   3.367   1.643   7.681  0.1677 -1.6633 -1.9771
   84CHL1   C14 8638   3.209   1.596   7.806 -0.2978  0.9564  0.1803
   84CHL1   H14 8639   3.098   1.586   7.797  0.1525 -3.3398 -1.8517
   84CHL1   C15 8640   3.229   1.706   7.913  0.2333  0.5518 -0.3847
   84CHL1  H15A 8641   3.334   1.741   7.907  0.5111 -0.5029 -2.0481
   84CHL1  H15B 8642   3.158   1.791   7.901 -0.7483  0.2801  3.1375
   84CHL1   C16 8643   3.214   1.640   8.043  0.7734  0.0334  0.3302
   84CHL1  H16A 8644   3.293   1.651   8.120 -0.6568 -0.5737  1.9479
   84CHL1  H16B 8645   3.119   1.671   8.093  0.3520 -2.4137  1.0909
   84CHL1   C17 8646   3.192   1.489   8.019 -0.6421  0.0617 -0.4091
   84CHL1   H17 8647   3.081   1.476   8.015 -0.9019  2.1208 -0.5930
   84CHL1   C13 8648   3.248   1.462   7.874  0.2412  0.4006 -0.5301
   84CHL1   C18 8649   3.405   1.461   7.885 -0.0063 -0.6681 -0.8591
   84CHL1  H18A 8650   3.445   1.539   7.953 -2.0006 -1.7825  1.7018
   84CHL1  H18B 8651   3.444   1.365   7.926 -0.8489 -0.3583  0.7344
   84CHL1  H18C 8652   3.450   1.492   7.788 -3.0602  0.6422 -1.9048
   84CHL1   C12 8653   3.201   1.355   7.783 -0.9578  0.6777  0.2973
   84CHL1  H12A 8654   3.211   1.253   7.825  0.4272  0.4496 -0.5722
   84CHL1  H12B 8655   3.091   1.364   7.769 -0.9778  2.3735  1.3382
   84CHL1   C11 8656   3.254   1.365   7.640  0.2718  0.4443  0.1388
   84CHL1  H11A 8657   3.358   1.336   7.665  0.3050  2.8545  3.1166
   84CHL1  H11B 8658   3.208   1.274   7.596  2.6231 -1.7982  2.1313
   84CHL1    C9 8659   3.230   1.509   7.583 -0.0958 -0.5052  0.1041
   84CHL1    H9 8660   3.124   1.516   7.550  0.4999 -0.8063 -1.9473
   84CHL1   C10 8661   3.316   1.525   7.450 -0.4502  0.1862 -0.0369
   84CHL1   C19 8662   3.461   1.479   7.460  0.2168 -0.0693 -0.0774
   84CHL1  H19A 8663   3.527   1.545   7.521  1.1184  0.0309 -1.1403
   84CHL1  H19B 8664   3.467   1.376   7.502  1.5822 -0.0447 -0.1918
   84CHL1  H19C 8665   3.519   1.474   7.365  0.2120 -0.2870 -0.0702
   84CHL1    C1 8666   3.247   1.438   7.339  0.1804 -0.0378 -0.4664
   84CHL1   H1A 8667   3.262   1.330   7.364 -1.6886 -0.8664 -2.6743
   84CHL1   H1B 8668   3.137   1.453   7.343  0.2832  0.5162  0.5455
   84CHL1    C2 8669   3.303   1.468   7.200  0.0708  0.9016  0.4923
   84CHL1   H2A 8670   3.248   1.411   7.122 -0.2078  2.4772 -0.4876
   84CHL1   H2B 8671   3.408   1.432   7.193  0.2298  1.4716 -0.1891
   84CHL1   C20 8672   3.227   1.391   8.141  0.4240 -0.7175  0.2601
   84CHL1   H20 8673   3.333   1.409   8.172  0.1928  0.1339  0.5742
   84CHL1   C21 8674   3.204   1.250   8.094 -0.6045 -1.3788 -0.8193
   84CHL1  H21A 8675   3.213   1.178   8.178  0.3364  0.8434  1.0490
   84CHL1  H21B 8676   3.284   1.219   8.024  0.3522 -0.3993 -0.1818
   84CHL1  H21C 8677   3.099   1.239   8.060 -1.4866 -0.4729  1.4584
   84CHL1   C22 8678   3.133   1.415   8.256  0.0206 -0.6181 -0.2327
   84CHL1  H22A 8679   3.104   1.522   8.253  1.2640 -0.2380  0.6883
   84CHL1  H22B 8680   3.042   1.354   8.240 -0.0339 -0.4743 -0.4768
   84CHL1   C23 8681   3.199   1.391   8.392 -0.3810  0.6075 -0.2319
   84CHL1  H23A 8682   3.236   1.286   8.398  1.4131  1.3305  2.6046
   84CHL1  H23B 8683   3.292   1.452   8.394  0.0335 -0.0234 -0.0763
   84CHL1   C24 8684   3.119   1.441   8.514  0.4915 -0.8161  0.0597
   84CHL1  H24A 8685   3.023   1.386   8.529  0.1462  0.0657  1.1911
   84CHL1  H24B 8686   3.186   1.420   8.600  0.5953 -2.8170 -0.4733
   84CHL1   C25 8687   3.079   1.595   8.516  0.0122  0.2060  0.6361
   84CHL1   H25 8688   3.019   1.626   8.427 -2.8209 -1.6001  1.8430
   84CHL1   C26 8689   2.989   1.619   8.639  0.7665  1.0735 -0.0688
   84CHL1  H26A 8690   3.037   1.581   8.731 -0.7546  0.1415  0.3638
   84CHL1  H26B 8691   2.977   1.729   8.651  0.0820  0.8126  1.7860
   84CHL1  H26C 8692   2.889   1.574   8.620  0.8325  0.6748  0.5198
   84CHL1   C27 8693   3.202   1.680   8.512 -0.0755 -0.3626 -0.5342
   84CHL1  H27A 8694   3.247   1.671   8.411 -0.7282 -1.1933 -0.7563
   84CHL1  H27B 8695   3.193   1.789   8.528  1.1513 -0.2566 -0.4833
   84CHL1  H27C 8696   3.275   1.630   8.580 -0.2749  1.5786  1.1553
   85CHL1    C3 8697   3.378   6.114   6.822  0.8665  1.1956  0.0627
   85CHL1    H3 8698   3.339   6.218   6.828  0.5892  1.1244 -0.4087
   85CHL1    O3 8699   3.362   6.083   6.681  0.0704  0.3520  0.0186
   85CHL1   H3' 8700   3.390   5.992   6.676 -2.3604 -0.4200 -0.5590
   85CHL1    C4 8701   3.521   6.117   6.856  0.7244 -0.1428 -0.2731
   85CHL1   H4A 8702   3.573   6.022   6.830 -2.7671 -2.3503  0.5260
   85CHL1   H4B 8703   3.584   6.196   6.810  1.2501 -0.4524 -0.0973
   85CHL1    C5 8704   3.532   6.145   7.007 -0.5131  1.2176  0.4939
   85CHL1    C6 8705   3.614   6.242   7.049 -0.6841 -0.7068 -0.0568
   85CHL1    H6 8706   3.670   6.307   6.980 -2.4114  0.3815 -0.4499
   85CHL1    C7 8707   3.626   6.278   7.191 -0.1506  0.5643 -0.0973
   85CHL1   H7A 8708   3.731   6.275   7.226 -0.0614 -2.1459 -0.4979
   85CHL1   H7B 8709   3.584   6.378   7.216 -1.2101  0.4842 -1.5189
   85CHL1    C8 8710   3.554   6.183   7.293  0.3896  0.6509 -0.2580
   85CHL1    H8 8711   3.604   6.085   7.304  2.7032  1.4256 -3.2884
   85CHL1   C14 8712   3.517   6.257   7.427  1.1380 -0.8053  0.1126
   85CHL1   H14 8713   3.441   6.334   7.399  2.5195  0.0538 -1.4000
   85CHL1   C15 8714   3.631   6.324   7.504  0.9697  0.0774 -0.0021
   85CHL1  H15A 8715   3.714   6.251   7.511  0.5629 -0.2667  1.4376
   85CHL1  H15B 8716   3.664   6.417   7.452  0.6770  0.6004  0.7457
   85CHL1   C16 8717   3.562   6.354   7.643  0.4874  0.6144  0.6715
   85CHL1  H16A 8718   3.638   6.341   7.722 -0.1404  0.2660  1.2142
   85CHL1  H16B 8719   3.539   6.462   7.655  0.4182  0.5258  1.3150
   85CHL1   C17 8720   3.437   6.270   7.655  0.8759  0.7808  0.6348
   85CHL1   H17 8721   3.349   6.331   7.624 -0.0963 -0.9905 -0.1855
   85CHL1   C13 8722   3.443   6.173   7.531 -0.0860  0.3118  0.5401
   85CHL1   C18 8723   3.531   6.055   7.566  0.1106 -0.6071 -0.3839
   85CHL1  H18A 8724   3.484   5.996   7.648  1.7327  0.0751  1.0802
   85CHL1  H18B 8725   3.555   5.987   7.481 -2.9543 -3.5573  1.0068
   85CHL1  H18C 8726   3.632   6.088   7.599  0.4309 -1.4161 -0.5476
   85CHL1   C12 8727   3.310   6.133   7.475  1.0723  0.0910  0.1349
   85CHL1  H12A 8728   3.258   6.074   7.553  0.4948  1.0281  0.4610
   85CHL1  H12B 8729   3.257   6.228   7.455  1.4586  0.5477  1.2244
   85CHL1   C11 8730   3.330   6.050   7.345  0.7254  0.3657 -0.6717
   85CHL1  H11A 8731   3.369   5.950   7.376  1.2559 -0.2479 -3.2405
   85CHL1  H11B 8732   3.232   6.045   7.294  0.0996 -0.4446  0.5957
   85CHL1    C9 8733   3.422   6.129   7.242  0.4344 -0.2853 -0.1867
   85CHL1    H9 8734   3.352   6.213   7.222 -0.1253 -0.5128  0.7621
   85CHL1   C10 8735   3.442   6.059   7.107  1.5312 -0.0981  0.4302
   85CHL1   C19 8736   3.495   5.914   7.115 -0.3742  0.0387 -0.1598
   85CHL1  H19A 8737   3.444   5.848   7.189  1.4044 -2.0122 -0.7108
   85CHL1  H19B 8738   3.504   5.864   7.017 -2.2682 -0.5759 -0.0371
   85CHL1  H19C 8739   3.597   5.924   7.158 -0.5324 -2.2292  0.8104
   85CHL1    C1 8740   3.299   6.035   7.054 -0.0603 -0.8824  0.4900
   85CHL1   H1A 8741   3.256   5.941   7.092 -0.6238 -1.5308 -1.6948
   85CHL1   H1B 8742   3.242   6.129   7.072  0.6847 -1.0228  3.7019
   85CHL1    C2 8743   3.294   6.011   6.901 -0.3082 -0.5342 -0.3950
   85CHL1   H2A 8744   3.187   6.018   6.870 -0.6598 -1.2303  0.6321
   85CHL1   H2B 8745   3.326   5.909   6.872 -0.0420  0.6411 -4.5366
   85CHL1   C20 8746   3.400   6.220   7.793 -0.5193  1.5661 -0.4461
   85CHL1   H20 8747   3.319   6.144   7.788  0.7980 -0.0365  1.5623
   85CHL1   C21 8748   3.338   6.335   7.867 -0.4962 -0.7076 -0.4587
   85CHL1  H21A 8749   3.315   6.311   7.973 -2.0706 -0.1853 -0.6716
   85CHL1  H21B 8750   3.243   6.354   7.813  0.1852  2.0573 -0.7340
   85CHL1  H21C 8751   3.385   6.436   7.866  0.1252 -0.9692  1.0751
   85CHL1   C22 8752   3.521   6.160   7.873 -0.1277  0.3523 -0.4122
   85CHL1  H22A 8753   3.619   6.159   7.821 -1.9699  0.2164 -4.0154
   85CHL1  H22B 8754   3.533   6.232   7.957  2.9120 -1.4351  0.7998
   85CHL1   C23 8755   3.495   6.018   7.932  0.1658 -0.3315  0.0462
   85CHL1  H23A 8756   3.392   6.010   7.973  0.3686 -2.3425  0.2102
   85CHL1  H23B 8757   3.501   5.939   7.854 -0.5317 -1.3941  1.0585
   85CHL1   C24 8758   3.588   5.967   8.044  0.2071 -1.2931 -0.1355
   85CHL1  H24A 8759   3.568   5.859   8.063  1.8666 -1.4760  0.6410
   85CHL1  H24B 8760   3.688   5.970   7.995  0.5029  1.3810  0.5673
   85CHL1   C25 8761   3.599   6.059   8.170  0.8271  0.5479 -0.4566
   85CHL1   H25 8762   3.624   6.164   8.142  1.2607  0.0758 -1.9092
   85CHL1   C26 8763   3.474   6.056   8.259 -0.6825  0.0550 -0.0432
   85CHL1  H26A 8764   3.493   6.098   8.360  0.0537 -0.6580  0.1209
   85CHL1  H26B 8765   3.393   6.115   8.211 -0.6162  0.4739  0.3558
   85CHL1  H26C 8766   3.440   5.950   8.260  1.9460 -0.8664 -2.5134
   85CHL1   C27 8767   3.715   6.014   8.258 -0.3937  0.5433 -0.4858
   85CHL1  H27A 8768   3.712   5.910   8.295  0.2822  1.4024  2.1221
   85CHL1  H27B 8769   3.813   6.033   8.211  0.1450 -1.4498 -0.2072
   85CHL1  H27C 8770   3.728   6.073   8.352  2.1955  0.5671 -0.8414
   86CHL1    C3 8771   5.753   3.882   6.892 -0.5596 -0.0186 -0.5743
   86CHL1    H3 8772   5.809   3.976   6.915  0.0040 -0.8018  1.3372
   86CHL1    O3 8773   5.775   3.833   6.756  0.3693 -0.2278  0.2764
   86CHL1   H3' 8774   5.771   3.737   6.761  0.8753 -0.2900 -0.5268
   86CHL1    C4 8775   5.810   3.772   6.986  0.7668  0.0195 -0.1039
   86CHL1   H4A 8776   5.755   3.678   6.964 -1.1683  0.4080  2.7401
   86CHL1   H4B 8777   5.916   3.754   6.958  1.7227  2.0521  2.0000
   86CHL1    C5 8778   5.782   3.803   7.132 -0.2143  0.3029  0.4699
   86CHL1    C6 8779   5.886   3.793   7.220  0.1029 -0.1720  0.1144
   86CHL1    H6 8780   5.981   3.769   7.170 -0.2933  2.2889 -1.8796
   86CHL1    C7 8781   5.865   3.799   7.369  0.0223 -0.0750  0.5762
   86CHL1   H7A 8782   5.923   3.720   7.421 -1.4976 -2.1120 -0.7208
   86CHL1   H7B 8783   5.905   3.893   7.411  0.2373  0.6478 -1.1797
   86CHL1    C8 8784   5.718   3.804   7.416  0.5043 -0.2107  0.2957
   86CHL1    H8 8785   5.684   3.698   7.419  0.9219 -0.3198  2.1591
   86CHL1   C14 8786   5.708   3.861   7.559  0.4684  0.4886 -0.6110
   86CHL1   H14 8787   5.742   3.966   7.575  1.1669  0.3745 -1.3183
   86CHL1   C15 8788   5.784   3.794   7.670 -0.1463 -0.4334  0.2207
   86CHL1  H15A 8789   5.778   3.683   7.673 -0.3906 -0.4496 -0.7268
   86CHL1  H15B 8790   5.889   3.830   7.662 -0.2395 -0.6620 -2.2228
   86CHL1   C16 8791   5.721   3.838   7.801  0.6009 -0.1976 -0.3382
   86CHL1  H16A 8792   5.697   3.745   7.857  1.2931 -0.4710 -0.4802
   86CHL1  H16B 8793   5.774   3.911   7.865  3.2693 -1.7790 -0.6615
   86CHL1   C17 8794   5.585   3.902   7.757 -0.0760 -0.1274 -0.8094
   86CHL1   H17 8795   5.603   4.011   7.754  0.9727 -0.2887 -0.7496
   86CHL1   C13 8796   5.564   3.859   7.607  0.8122  0.3541  0.0816
   86CHL1   C18 8797   5.496   3.712   7.604 -0.2173 -0.7849 -0.3249
   86CHL1  H18A 8798   5.391   3.717   7.640  0.7887 -2.2731  3.0452
   86CHL1  H18B 8799   5.485   3.661   7.506 -1.3096 -0.5556 -0.3307
   86CHL1  H18C 8800   5.555   3.643   7.667  1.2184 -0.4097 -1.2390
   86CHL1   C12 8801   5.490   3.960   7.515  0.0548  0.5799  1.1455
   86CHL1  H12A 8802   5.382   3.958   7.541  0.1830  3.0384  1.9617
   86CHL1  H12B 8803   5.536   4.060   7.528  2.5691 -0.2813 -0.6586
   86CHL1   C11 8804   5.491   3.920   7.372  0.2826  0.9298 -0.1412
   86CHL1  H11A 8805   5.429   3.830   7.354 -0.0901  1.4880 -1.7648
   86CHL1  H11B 8806   5.441   4.006   7.322  1.3432  0.8967 -1.2722
   86CHL1    C9 8807   5.635   3.896   7.318 -0.0159 -1.1310 -0.4006
   86CHL1    H9 8808   5.687   3.995   7.323 -1.4326 -0.4436  1.4022
   86CHL1   C10 8809   5.632   3.837   7.176 -0.0305 -0.2889  0.1877
   86CHL1   C19 8810   5.552   3.701   7.162  0.1133  0.0906  0.3982
   86CHL1  H19A 8811   5.581   3.657   7.064  0.2708 -1.4637  1.1230
   86CHL1  H19B 8812   5.574   3.623   7.239 -0.7908  1.3614  1.9597
   86CHL1  H19C 8813   5.444   3.726   7.165 -0.1454 -0.6019 -1.7501
   86CHL1    C1 8814   5.582   3.940   7.074  0.4065  0.3129  0.0558
   86CHL1   H1A 8815   5.473   3.954   7.091  0.7092  0.0189  2.4136
   86CHL1   H1B 8816   5.632   4.036   7.100 -0.8081  0.0650  3.4873
   86CHL1    C2 8817   5.609   3.907   6.926  0.0402 -0.1463 -0.3762
   86CHL1   H2A 8818   5.576   3.995   6.867  0.8627 -1.1390 -2.3708
   86CHL1   H2B 8819   5.552   3.818   6.889  2.5827 -2.5147  1.2304
   86CHL1   C20 8820   5.479   3.876   7.860 -0.4535 -0.0149 -0.9505
   86CHL1   H20 8821   5.468   3.765   7.860  3.5007 -0.4563 -1.1963
   86CHL1   C21 8822   5.352   3.952   7.816  0.7621  0.3025 -0.4162
   86CHL1  H21A 8823   5.373   4.058   7.791  1.4712  0.0090 -1.0556
   86CHL1  H21B 8824   5.282   3.950   7.903 -1.3635 -3.1746 -2.0961
   86CHL1  H21C 8825   5.280   3.913   7.741  0.9676 -1.3995  0.2355
   86CHL1   C22 8826   5.508   3.916   8.001  0.3052  0.0725 -0.2441
   86CHL1  H22A 8827   5.426   3.873   8.061  0.6072  0.6323  0.5750
   86CHL1  H22B 8828   5.595   3.853   8.028 -1.1238 -1.8743 -0.1302
   86CHL1   C23 8829   5.535   4.065   8.029  0.4475  0.3992  0.3618
   86CHL1  H23A 8830   5.577   4.123   7.944  0.2406 -1.2289 -0.8664
   86CHL1  H23B 8831   5.439   4.108   8.063  0.6640  1.7689 -0.7256
   86CHL1   C24 8832   5.625   4.089   8.156 -0.0861  0.6368  0.7477
   86CHL1  H24A 8833   5.581   4.036   8.243 -2.2072  0.6785 -0.2748
   86CHL1  H24B 8834   5.724   4.046   8.131 -0.5970  0.4309 -0.9889
   86CHL1   C25 8835   5.640   4.237   8.194  0.0572 -0.2870 -0.6390
   86CHL1   H25 8836   5.542   4.288   8.175 -0.2846  0.3888  2.6250
   86CHL1   C26 8837   5.652   4.247   8.347 -0.7221  0.3610 -0.0956
   86CHL1  H26A 8838   5.732   4.182   8.388 -2.6962 -1.6810  0.5992
   86CHL1  H26B 8839   5.679   4.353   8.366 -1.0187  0.7977 -1.9532
   86CHL1  H26C 8840   5.561   4.217   8.402  1.9829 -0.5619  4.1468
   86CHL1   C27 8841   5.747   4.312   8.106  0.1696 -0.3544 -0.1864
   86CHL1  H27A 8842   5.780   4.411   8.145 -2.5126  1.6429 -2.8004
   86CHL1  H27B 8843   5.836   4.249   8.085  0.7443  0.8686 -1.4604
   86CHL1  H27C 8844   5.703   4.319   8.004  1.2685 -0.7350 -0.6884
   87CHL1    C3 8845   5.494   1.979   6.858  0.2736 -0.6168  0.0545
   87CHL1    H3 8846   5.385   1.956   6.857 -0.0237  0.7584 -0.4268
   87CHL1    O3 8847   5.532   2.017   6.724 -0.2391 -0.8659  0.2093
   87CHL1   H3' 8848   5.626   2.035   6.725 -0.5006  0.5628  0.7818
   87CHL1    C4 8849   5.509   2.103   6.947  0.1961  0.4276  0.3016
   87CHL1   H4A 8850   5.608   2.152   6.932  0.6548 -1.3241 -2.6659
   87CHL1   H4B 8851   5.439   2.178   6.905 -1.8095 -1.9053 -0.5985
   87CHL1    C5 8852   5.484   2.060   7.094 -0.1725  0.4199  0.1536
   87CHL1    C6 8853   5.393   2.118   7.170  0.9851  0.2187 -0.2560
   87CHL1    H6 8854   5.342   2.207   7.132 -2.2346 -0.8368  1.4202
   87CHL1    C7 8855   5.352   2.074   7.312  0.6582  0.6703 -0.3670
   87CHL1   H7A 8856   5.341   2.163   7.378 -0.7975  0.6942 -0.6304
   87CHL1   H7B 8857   5.247   2.041   7.300  0.3741 -1.0866  5.5749
   87CHL1    C8 8858   5.442   1.966   7.376  0.1977  0.5498  0.4862
   87CHL1    H8 8859   5.536   2.015   7.409  0.1361  0.9721  0.0375
   87CHL1   C14 8860   5.367   1.891   7.487 -0.6914  0.1599  1.1554
   87CHL1   H14 8861   5.279   1.835   7.448 -0.6283  1.9260 -1.7330
   87CHL1   C15 8862   5.316   1.975   7.598  0.2131  0.6991  0.1739
   87CHL1  H15A 8863   5.394   2.050   7.626  1.1326  0.1614 -0.8850
   87CHL1  H15B 8864   5.223   2.024   7.561 -1.0762 -0.5420  1.7242
   87CHL1   C16 8865   5.286   1.878   7.710  0.2637  0.2350  0.8328
   87CHL1  H16A 8866   5.319   1.944   7.793  1.2719 -0.3876  0.9381
   87CHL1  H16B 8867   5.176   1.863   7.706  0.0390  2.0301 -0.9839
   87CHL1   C17 8868   5.371   1.754   7.685  0.4061  1.1821 -0.2283
   87CHL1   H17 8869   5.308   1.670   7.650  1.5467  1.1060 -2.1677
   87CHL1   C13 8870   5.457   1.790   7.561  0.1261 -0.5645 -0.2834
   87CHL1   C18 8871   5.589   1.847   7.615 -0.5718 -0.2339 -0.4194
   87CHL1  H18A 8872   5.649   1.869   7.524 -0.6090 -0.8432 -0.5948
   87CHL1  H18B 8873   5.571   1.937   7.677 -1.2138  0.0351 -0.9901
   87CHL1  H18C 8874   5.650   1.775   7.673 -0.8368 -1.7350 -1.9648
   87CHL1   C12 8875   5.481   1.679   7.458  0.1165 -0.0447  0.5239
   87CHL1  H12A 8876   5.572   1.628   7.499  1.8893  1.1351 -1.8495
   87CHL1  H12B 8877   5.396   1.609   7.448  0.8640 -1.0688  1.1042
   87CHL1   C11 8878   5.536   1.735   7.324 -0.8555 -0.2065  0.9179
   87CHL1  H11A 8879   5.644   1.758   7.335 -0.5719 -0.4562 -1.1413
   87CHL1  H11B 8880   5.527   1.647   7.257 -2.5653  0.9072 -0.3549
   87CHL1    C9 8881   5.479   1.864   7.269 -0.7091  0.4122  0.1185
   87CHL1    H9 8882   5.383   1.828   7.226 -0.3781 -1.2829  0.7583
   87CHL1   C10 8883   5.547   1.925   7.141  0.4900  0.3087 -0.2257
   87CHL1   C19 8884   5.695   1.970   7.170  0.1431  0.0152  0.2335
   87CHL1  H19A 8885   5.756   1.888   7.214 -1.5379 -0.5767  1.5097
   87CHL1  H19B 8886   5.741   2.002   7.074  2.0803  0.1769  1.1886
   87CHL1  H19C 8887   5.699   2.051   7.247  0.7907  2.5244 -2.3656
   87CHL1    C1 8888   5.555   1.808   7.038  0.3589  0.1831  0.9992
   87CHL1   H1A 8889   5.633   1.736   7.072  0.4280 -0.1830  0.1018
   87CHL1   H1B 8890   5.449   1.775   7.043  0.1036  1.3472  3.9440
   87CHL1    C2 8891   5.579   1.854   6.890  0.9693 -0.0011 -0.0427
   87CHL1   H2A 8892   5.557   1.778   6.812 -0.0362  0.9913 -0.7405
   87CHL1   H2B 8893   5.686   1.884   6.880  0.9626  0.1776  0.4236
   87CHL1   C20 8894   5.438   1.685   7.813 -0.5022 -0.0104  0.3341
   87CHL1   H20 8895   5.520   1.752   7.848 -0.0496 -1.4654  2.1189
   87CHL1   C21 8896   5.516   1.551   7.774  0.4601 -0.5254 -0.7435
   87CHL1  H21A 8897   5.602   1.563   7.705  1.3689  0.4196  0.5560
   87CHL1  H21B 8898   5.444   1.490   7.715 -1.6464  0.8835  0.3075
   87CHL1  H21C 8899   5.550   1.495   7.863  0.3254  0.9730  0.2709
   87CHL1   C22 8900   5.344   1.656   7.936 -0.3486  0.1188  0.3881
   87CHL1  H22A 8901   5.256   1.723   7.932  0.2080  0.7862 -2.2473
   87CHL1  H22B 8902   5.306   1.553   7.924 -1.1485  0.1876  2.2121
   87CHL1   C23 8903   5.410   1.670   8.074  0.6463 -0.2449  0.2348
   87CHL1  H23A 8904   5.520   1.658   8.067  0.4576 -2.5500  0.9601
   87CHL1  H23B 8905   5.396   1.773   8.113 -1.9929 -0.6481  0.4263
   87CHL1   C24 8906   5.357   1.570   8.174  0.2632 -0.1740  1.0557
   87CHL1  H24A 8907   5.252   1.594   8.202  0.3141  0.7335  0.4658
   87CHL1  H24B 8908   5.358   1.467   8.132  0.8733  0.5650 -0.7682
   87CHL1   C25 8909   5.430   1.573   8.309 -0.5390 -1.1108  0.3162
   87CHL1   H25 8910   5.471   1.675   8.325 -0.1833 -1.2928  0.5642
   87CHL1   C26 8911   5.345   1.530   8.420  0.2552 -0.2696  0.2550
   87CHL1  H26A 8912   5.253   1.592   8.424  0.7699  0.4661  0.8384
   87CHL1  H26B 8913   5.309   1.428   8.394  1.0711 -0.8401  1.3369
   87CHL1  H26C 8914   5.392   1.531   8.521 -1.3139 -0.0937  1.0072
   87CHL1   C27 8915   5.558   1.484   8.299 -0.1794 -0.4733 -0.3385
   87CHL1  H27A 8916   5.623   1.514   8.214  0.4511 -2.0299 -0.4013
   87CHL1  H27B 8917   5.615   1.500   8.392  0.0897 -2.3867 -0.1745
   87CHL1  H27C 8918   5.521   1.380   8.305  1.1270 -0.8579  1.0659
   88CHL1    C3 8919   2.671   0.134   7.015 -0.0002 -0.3567 -0.4985
   88CHL1    H3 8920   2.569   0.092   7.006 -0.0960 -0.2278 -0.0187
   88CHL1    O3 8921   2.738   0.127   6.886 -0.3102 -0.0985  0.2272
   88CHL1   H3' 8922   2.735   0.032   6.873  0.2247  0.1678 -1.9444
   88CHL1    C4 8923   2.650   0.280   7.064  0.8570 -0.5508 -0.2570
   88CHL1   H4A 8924   2.737   0.350   7.062  0.7770 -0.5048 -2.4974
   88CHL1   H4B 8925   2.573   0.331   7.004  0.6166 -1.6790 -0.9104
   88CHL1    C5 8926   2.605   0.294   7.211 -1.0043 -0.7636  0.7794
   88CHL1    C6 8927   2.500   0.369   7.244  0.5808  0.0931 -0.0174
   88CHL1    H6 8928   2.459   0.437   7.168  1.3714 -0.2878 -0.7982
   88CHL1    C7 8929   2.466   0.410   7.384  0.8557  0.2923  0.3955
   88CHL1   H7A 8930   2.460   0.520   7.394  0.8060  0.2654  0.6572
   88CHL1   H7B 8931   2.367   0.368   7.414  1.6975 -1.0038  1.4129
   88CHL1    C8 8932   2.566   0.347   7.492  0.2527  0.4650 -0.1561
   88CHL1    H8 8933   2.660   0.406   7.486 -0.2226  1.4365  1.7764
   88CHL1   C14 8934   2.513   0.351   7.637 -0.1165 -0.3128 -0.2767
   88CHL1   H14 8935   2.415   0.300   7.634  0.5289 -1.7641  2.1487
   88CHL1   C15 8936   2.476   0.490   7.699 -0.2167  0.4729 -0.0298
   88CHL1  H15A 8937   2.563   0.557   7.682 -2.5155  3.5093 -0.2857
   88CHL1  H15B 8938   2.382   0.538   7.664 -1.0291 -0.4724  0.8275
   88CHL1   C16 8939   2.471   0.471   7.854  0.9104  0.3257 -0.6652
   88CHL1  H16A 8940   2.536   0.551   7.895  0.0211  1.0845 -0.7149
   88CHL1  H16B 8941   2.374   0.495   7.903  0.7199 -0.5177 -0.6208
   88CHL1   C17 8942   2.514   0.324   7.867 -0.5033 -0.4494 -0.0456
   88CHL1   H17 8943   2.425   0.257   7.858 -0.7897 -0.0545 -0.1675
   88CHL1   C13 8944   2.601   0.283   7.743 -0.7295 -0.5217 -0.4734
   88CHL1   C18 8945   2.743   0.349   7.752  0.3837 -0.1697  0.0949
   88CHL1  H18A 8946   2.793   0.361   7.654 -2.2293  1.6541 -1.0796
   88CHL1  H18B 8947   2.751   0.448   7.802 -0.9411 -0.5374  1.0597
   88CHL1  H18C 8948   2.800   0.276   7.815  4.4539  0.9394 -2.1378
   88CHL1   C12 8949   2.610   0.134   7.705 -0.2279 -0.5990  0.3896
   88CHL1  H12A 8950   2.675   0.089   7.784  1.8949  1.3495 -0.1883
   88CHL1  H12B 8951   2.509   0.088   7.698 -0.4105 -0.1862  0.3072
   88CHL1   C11 8952   2.672   0.119   7.564 -0.8117 -0.2555 -0.3292
   88CHL1  H11A 8953   2.779   0.145   7.580 -0.7383 -0.6381 -0.2003
   88CHL1  H11B 8954   2.673   0.011   7.541 -0.0310 -0.0530 -1.2714
   88CHL1    C9 8955   2.609   0.206   7.448 -0.0854  0.7787 -0.8984
   88CHL1    H9 8956   2.510   0.160   7.426 -0.9528  1.5499  1.1546
   88CHL1   C10 8957   2.686   0.209   7.314  0.1700 -0.9213 -0.3374
   88CHL1   C19 8958   2.821   0.286   7.334 -0.2815  0.5335 -0.0275
   88CHL1  H19A 8959   2.794   0.389   7.366 -2.0969  0.3123 -0.7503
   88CHL1  H19B 8960   2.862   0.231   7.420 -4.1147  0.9408  2.1884
   88CHL1  H19C 8961   2.871   0.288   7.235 -1.4190  1.4659 -0.6038
   88CHL1    C1 8962   2.704   0.067   7.262 -0.3828 -0.6569  0.0500
   88CHL1   H1A 8963   2.790   0.023   7.319  1.0315  0.9501 -0.7833
   88CHL1   H1B 8964   2.618  -0.001   7.271  0.4943 -1.6245  1.3843
   88CHL1    C2 8965   2.756   0.054   7.112  0.1847  0.2688 -0.5859
   88CHL1   H2A 8966   2.753  -0.055   7.092 -1.2216  0.4017 -1.1906
   88CHL1   H2B 8967   2.863   0.081   7.106 -0.0660  1.6396  0.5572
   88CHL1   C20 8968   2.567   0.284   8.003  0.1399 -0.3282  0.3134
   88CHL1   H20 8969   2.632   0.195   7.995  0.1552 -0.2672 -0.3364
   88CHL1   C21 8970   2.448   0.249   8.095  0.3760 -0.0444 -0.0103
   88CHL1  H21A 8971   2.373   0.331   8.090  1.0160  0.5337 -0.0676
   88CHL1  H21B 8972   2.482   0.225   8.198 -3.2953  2.7436  1.9714
   88CHL1  H21C 8973   2.398   0.157   8.058 -1.6091  0.7943  0.5047
   88CHL1   C22 8974   2.654   0.390   8.071 -0.2900  1.1690 -0.0373
   88CHL1  H22A 8975   2.738   0.430   8.011  0.8356 -0.0056  0.7396
   88CHL1  H22B 8976   2.593   0.475   8.109 -1.3031 -0.1853  1.4378
   88CHL1   C23 8977   2.726   0.329   8.196  0.2455  0.1756  0.1071
   88CHL1  H23A 8978   2.662   0.328   8.286  0.3258 -1.8635  0.1714
   88CHL1  H23B 8979   2.736   0.222   8.168 -0.6442  0.0367  0.2797
   88CHL1   C24 8980   2.863   0.400   8.233  0.0219  0.1226  0.0196
   88CHL1  H24A 8981   2.911   0.404   8.133 -1.0534 -1.9862 -0.6112
   88CHL1  H24B 8982   2.829   0.497   8.273  0.3714  0.6277 -0.8983
   88CHL1   C25 8983   2.946   0.335   8.343  0.0776  0.1142 -0.0412
   88CHL1   H25 8984   2.889   0.313   8.436  1.3808  0.4246  0.8263
   88CHL1   C26 8985   3.013   0.202   8.292  0.5992  0.1139  0.0862
   88CHL1  H26A 8986   2.946   0.114   8.303  0.8412  0.0002  0.6461
   88CHL1  H26B 8987   3.036   0.207   8.183  1.3508  0.2337  0.2526
   88CHL1  H26C 8988   3.101   0.173   8.352 -0.2402 -3.1158 -0.1383
   88CHL1   C27 8989   3.054   0.439   8.384  0.2439 -0.8179  0.4094
   88CHL1  H27A 8990   3.133   0.452   8.306 -0.1051 -1.2662 -0.0161
   88CHL1  H27B 8991   3.008   0.537   8.410  0.3288  0.8757 -5.0895
   88CHL1  H27C 8992   3.102   0.393   8.473  1.5763 -1.5151 -0.6402
   89CHL1    C3 8993   6.127   3.565   6.938  0.6084  0.0726  0.5839
   89CHL1    H3 8994   6.145   3.668   6.975 -2.8693  0.1648  2.1851
   89CHL1    O3 8995   6.062   3.576   6.812 -0.1088  0.6593 -0.2977
   89CHL1   H3' 8996   6.055   3.484   6.784 -0.8007 -0.6398  3.8532
   89CHL1    C4 8997   6.260   3.489   6.919  0.8710  0.3204  0.2846
   89CHL1   H4A 8998   6.231   3.389   6.879 -0.3653  0.8052 -0.0716
   89CHL1   H4B 8999   6.328   3.550   6.855  0.6933  1.5054  1.2113
   89CHL1    C5 9000   6.318   3.471   7.064 -0.3259 -0.3451 -0.2607
   89CHL1    C6 9001   6.444   3.505   7.087  0.4261  0.0303  0.0921
   89CHL1    H6 9002   6.505   3.545   7.004 -0.0519  2.2635  0.7962
   89CHL1    C7 9003   6.518   3.484   7.213  0.2466 -0.4786  0.1358
   89CHL1   H7A 9004   6.615   3.434   7.188  0.4754  0.1172 -0.1896
   89CHL1   H7B 9005   6.533   3.583   7.262  0.5267  0.5652 -1.9800
   89CHL1    C8 9006   6.446   3.386   7.304 -0.0038  0.2309  0.0873
   89CHL1    H8 9007   6.456   3.281   7.271  0.4086  0.1514  0.4609
   89CHL1   C14 9008   6.517   3.382   7.443 -0.0890 -0.8756 -0.9900
   89CHL1   H14 9009   6.511   3.485   7.484 -0.5647 -1.3643  0.1879
   89CHL1   C15 9010   6.670   3.361   7.450  1.0572  0.0760 -0.0136
   89CHL1  H15A 9011   6.707   3.306   7.361 -1.9217  0.7665 -1.7680
   89CHL1  H15B 9012   6.719   3.460   7.449 -0.2973  0.8041  1.6295
   89CHL1   C16 9013   6.692   3.286   7.585  0.2150 -1.3139  0.0904
   89CHL1  H16A 9014   6.722   3.183   7.556  0.6703 -0.9979 -0.5978
   89CHL1  H16B 9015   6.787   3.321   7.631 -1.1633 -0.3276  2.2641
   89CHL1   C17 9016   6.557   3.293   7.659  0.3906  0.1351 -0.2001
   89CHL1   H17 9017   6.545   3.394   7.704  2.5077 -0.0595  0.8443
   89CHL1   C13 9018   6.450   3.285   7.537 -0.1646 -0.5751 -0.6560
   89CHL1   C18 9019   6.446   3.139   7.483 -0.4493  0.6944 -0.4397
   89CHL1  H18A 9020   6.386   3.072   7.548 -0.5344  0.6329 -0.5818
   89CHL1  H18B 9021   6.409   3.131   7.378  2.6196  1.0678 -1.5896
   89CHL1  H18C 9022   6.545   3.089   7.483 -1.3651 -1.1762  0.6827
   89CHL1   C12 9023   6.302   3.341   7.561  0.6914  0.1818 -0.0625
   89CHL1  H12A 9024   6.248   3.276   7.633  0.8118 -2.6806 -2.4528
   89CHL1  H12B 9025   6.319   3.440   7.608  0.5074  0.8424 -1.3767
   89CHL1   C11 9026   6.217   3.337   7.431  0.1241  0.3163 -0.4527
   89CHL1  H11A 9027   6.198   3.234   7.396 -0.6814  0.6354 -0.9488
   89CHL1  H11B 9028   6.120   3.384   7.454 -0.1744  0.4924 -2.0327
   89CHL1    C9 9029   6.292   3.420   7.317 -0.1286  0.1798  0.6363
   89CHL1    H9 9030   6.289   3.525   7.353 -0.4810  0.2671  0.3496
   89CHL1   C10 9031   6.224   3.411   7.177 -0.4244 -0.4642 -0.4206
   89CHL1   C19 9032   6.213   3.257   7.134  0.0343 -0.0841  0.4322
   89CHL1  H19A 9033   6.311   3.215   7.104  0.4307  0.7629  0.5351
   89CHL1  H19B 9034   6.174   3.188   7.211 -0.1362 -0.5412 -0.0609
   89CHL1  H19C 9035   6.146   3.247   7.046 -1.0236  0.7785  1.1245
   89CHL1    C1 9036   6.089   3.491   7.177  0.0012 -0.2818  0.4523
   89CHL1   H1A 9037   6.020   3.433   7.242 -0.4829 -1.4377 -1.0670
   89CHL1   H1B 9038   6.089   3.595   7.215  5.1566 -0.2267  0.6190
   89CHL1    C2 9039   6.035   3.497   7.039 -0.3118 -0.0146  0.1217
   89CHL1   H2A 9040   5.939   3.553   7.045 -0.7644 -0.7194 -0.4966
   89CHL1   H2B 9041   6.010   3.393   7.010 -0.7304 -0.0288  0.5100
   89CHL1   C20 9042   6.546   3.191   7.778 -0.6275 -0.3922  0.4432
   89CHL1   H20 9043   6.531   3.088   7.741  1.4867  0.2963 -2.4881
   89CHL1   C21 9044   6.423   3.227   7.857  0.3211  0.2672  0.2712
   89CHL1  H21A 9045   6.409   3.158   7.943  2.8402 -2.0751 -1.1017
   89CHL1  H21B 9046   6.334   3.203   7.795  2.0461 -1.1109 -1.7423
   89CHL1  H21C 9047   6.410   3.332   7.891  1.0861 -0.2803  2.3372
   89CHL1   C22 9048   6.679   3.194   7.850  0.0176  0.0433  0.8322
   89CHL1  H22A 9049   6.749   3.121   7.804 -2.1114  0.3269 -3.0380
   89CHL1  H22B 9050   6.721   3.296   7.859  0.9890 -0.2548 -0.2412
   89CHL1   C23 9051   6.658   3.147   7.997  0.1834 -0.1405  0.3714
   89CHL1  H23A 9052   6.600   3.220   8.059 -0.1055 -0.9841  1.1046
   89CHL1  H23B 9053   6.603   3.051   7.994 -0.3955  0.2103 -0.2798
   89CHL1   C24 9054   6.790   3.120   8.071 -0.5558 -0.3524 -1.1653
   89CHL1  H24A 9055   6.827   3.024   8.029  0.0172 -0.3483 -0.6791
   89CHL1  H24B 9056   6.858   3.206   8.049 -0.0141 -0.2468  0.7810
   89CHL1   C25 9057   6.779   3.116   8.226 -0.6002 -1.0136 -0.4072
   89CHL1   H25 9058   6.731   3.211   8.256 -1.7215 -2.3347  2.1287
   89CHL1   C26 9059   6.715   2.994   8.289  0.2391 -0.0579 -0.1570
   89CHL1  H26A 9060   6.715   3.003   8.400 -0.3269  1.7581 -0.2914
   89CHL1  H26B 9061   6.608   2.994   8.261  0.2381  1.0335 -0.1819
   89CHL1  H26C 9062   6.763   2.901   8.252  1.9406  0.2074  1.3012
   89CHL1   C27 9063   6.922   3.133   8.298 -0.1860 -0.1860  0.3145
   89CHL1  H27A 9064   6.953   3.235   8.268 -0.2835  0.1946  1.4668
   89CHL1  H27B 9065   6.915   3.116   8.408 -3.1477 -0.4157  0.1503
   89CHL1  H27C 9066   6.987   3.051   8.260  0.7474  0.0501  1.3608
   90CHL1    C3 9067   5.974   5.382   7.024  0.0781  0.1690 -0.2717
   90CHL1    H3 9068   5.971   5.285   7.079  0.6601  0.8042  0.8849
   90CHL1    O3 9069   6.038   5.366   6.903 -0.1420 -0.7613 -0.4638
   90CHL1   H3' 9070   6.050   5.450   6.858 -0.2328 -0.1673  0.6050
   90CHL1    C4 9071   5.827   5.414   7.004  0.0256 -0.9724  0.0216
   90CHL1   H4A 9072   5.817   5.515   6.959 -3.8276 -0.4825  1.7864
   90CHL1   H4B 9073   5.787   5.339   6.933  2.4782 -1.5677 -0.7839
   90CHL1    C5 9074   5.752   5.432   7.133 -0.3644 -0.6731 -0.0943
   90CHL1    C6 9075   5.647   5.360   7.171 -0.3448  0.5295 -0.0567
   90CHL1    H6 9076   5.611   5.290   7.093  0.3209 -0.5884  0.6264
   90CHL1    C7 9077   5.566   5.383   7.299  0.2411 -0.0230 -0.5318
   90CHL1   H7A 9078   5.458   5.392   7.275 -0.1426 -0.7051  0.8743
   90CHL1   H7B 9079   5.597   5.302   7.369  2.3956  1.1841 -0.0279
   90CHL1    C8 9080   5.606   5.506   7.374  0.3312 -0.4821  0.7870
   90CHL1    H8 9081   5.569   5.594   7.317 -1.2128 -1.8368 -0.3136
   90CHL1   C14 9082   5.547   5.509   7.517  0.9852  0.3161 -0.2651
   90CHL1   H14 9083   5.589   5.421   7.570  1.1850  1.2689  1.1790
   90CHL1   C15 9084   5.392   5.496   7.541  0.7081 -0.1023 -0.1826
   90CHL1  H15A 9085   5.337   5.567   7.476  0.5627  0.1196  0.1850
   90CHL1  H15B 9086   5.362   5.389   7.538  0.3590 -0.0077 -0.0549
   90CHL1   C16 9087   5.381   5.534   7.689  0.8774 -0.9082 -0.8551
   90CHL1  H16A 9088   5.302   5.613   7.687  0.7913 -1.0068 -1.3291
   90CHL1  H16B 9089   5.332   5.459   7.754 -0.3313  0.5583 -0.0466
   90CHL1   C17 9090   5.517   5.592   7.740  0.4648 -0.1392  0.0283
   90CHL1   H17 9091   5.564   5.505   7.792  0.6289 -0.5700 -0.8315
   90CHL1   C13 9092   5.594   5.626   7.610 -1.1124 -0.6962 -0.1094
   90CHL1   C18 9093   5.545   5.766   7.555 -0.2151 -0.0123 -0.3727
   90CHL1  H18A 9094   5.587   5.768   7.452  2.7809  0.1959  0.7988
   90CHL1  H18B 9095   5.435   5.767   7.566 -0.0893 -2.5409  1.4884
   90CHL1  H18C 9096   5.583   5.854   7.613 -0.1960  1.2090 -2.1957
   90CHL1   C12 9097   5.748   5.613   7.625 -0.2896 -1.0446 -0.6319
   90CHL1  H12A 9098   5.800   5.694   7.680  0.4470 -2.2665  0.4979
   90CHL1  H12B 9099   5.769   5.521   7.683  0.7731  0.0356  0.7130
   90CHL1   C11 9100   5.807   5.627   7.476  1.0199 -0.4225  0.3041
   90CHL1  H11A 9101   5.785   5.732   7.450  1.5761 -0.1216  1.0294
   90CHL1  H11B 9102   5.916   5.610   7.480  0.8532 -2.3256 -2.3453
   90CHL1    C9 9103   5.753   5.512   7.373  0.6139  0.0147  0.2108
   90CHL1    H9 9104   5.784   5.412   7.411 -0.9868 -0.1755  1.0667
   90CHL1   C10 9105   5.812   5.534   7.228 -0.1107 -0.2223  0.2237
   90CHL1   C19 9106   5.787   5.685   7.188  0.0563  0.8250 -0.4427
   90CHL1  H19A 9107   5.829   5.761   7.258  1.1151  0.5018 -0.7158
   90CHL1  H19B 9108   5.827   5.690   7.084 -0.5225 -1.9270 -0.8368
   90CHL1  H19C 9109   5.678   5.704   7.180 -0.5946 -2.6939 -0.6893
   90CHL1    C1 9110   5.960   5.514   7.245  0.1115  0.2481  0.1788
   90CHL1   H1A 9111   6.015   5.597   7.295 -0.3224  0.8431 -0.3211
   90CHL1   H1B 9112   5.978   5.427   7.312 -0.9822 -0.4908 -0.4692
   90CHL1    C2 9113   6.035   5.501   7.108 -1.0605  0.6760 -0.3668
   90CHL1   H2A 9114   6.145   5.489   7.122 -1.2466 -0.4500  0.1307
   90CHL1   H2B 9115   6.019   5.599   7.057  0.9563  1.3705  0.2688
   90CHL1   C20 9116   5.502   5.706   7.850  1.0957  0.7996 -0.8183
   90CHL1   H20 9117   5.436   5.783   7.804 -1.0971 -0.0895  0.7368
   90CHL1   C21 9118   5.634   5.763   7.887  0.5902 -0.3271  0.7794
   90CHL1  H21A 9119   5.613   5.837   7.968 -3.8514 -0.2040 -0.3920
   90CHL1  H21B 9120   5.679   5.818   7.802 -0.1689 -0.6186  0.1865
   90CHL1  H21C 9121   5.712   5.690   7.918  0.0322 -0.0161  3.0353
   90CHL1   C22 9122   5.424   5.650   7.978  0.3237  0.2915  0.0376
   90CHL1  H22A 9123   5.406   5.740   8.041  0.1327 -1.2887  2.2687
   90CHL1  H22B 9124   5.326   5.613   7.941  1.6137 -2.2410 -0.9404
   90CHL1   C23 9125   5.504   5.545   8.059 -0.1619  0.1971 -1.1347
   90CHL1  H23A 9126   5.520   5.443   8.018  0.9290 -0.2454  0.3397
   90CHL1  H23B 9127   5.608   5.578   8.081  0.7525 -0.5674 -4.1309
   90CHL1   C24 9128   5.434   5.518   8.189  0.3445 -0.4797 -0.6042
   90CHL1  H24A 9129   5.326   5.511   8.164  0.2945 -1.2990 -0.1640
   90CHL1  H24B 9130   5.459   5.414   8.219  0.1532 -0.7848 -1.5068
   90CHL1   C25 9131   5.461   5.622   8.300 -1.2073 -0.1909  0.0504
   90CHL1   H25 9132   5.445   5.722   8.255  0.6423  0.8513  1.6377
   90CHL1   C26 9133   5.370   5.589   8.413  0.3020 -0.1643  0.9223
   90CHL1  H26A 9134   5.263   5.593   8.384  0.1092  1.9734  1.9044
   90CHL1  H26B 9135   5.394   5.483   8.436 -0.1371 -0.8783 -1.7077
   90CHL1  H26C 9136   5.399   5.640   8.507 -1.4683 -0.7643  1.8316
   90CHL1   C27 9137   5.605   5.619   8.358 -0.6492 -0.5154 -0.5337
   90CHL1  H27A 9138   5.670   5.631   8.269 -1.0326 -1.1432 -0.8981
   90CHL1  H27B 9139   5.620   5.701   8.431  0.1566 -0.0430 -1.2201
   90CHL1  H27C 9140   5.631   5.520   8.402  1.6385  2.3742  5.1353
   91CHL1    C3 9141   0.508   6.683   7.323 -0.3558  0.7190 -0.1310
   91CHL1    H3 9142   0.410   6.686   7.375 -1.1879 -0.3009 -1.6252
   91CHL1    O3 9143   0.473   6.725   7.195 -0.3255 -0.2345 -0.5716
   91CHL1   H3' 9144   0.515   6.662   7.136  1.7434  0.8253 -0.2761
   91CHL1    C4 9145   0.627   6.753   7.388  0.0810  0.2895 -0.3221
   91CHL1   H4A 9146   0.718   6.742   7.326  0.6451  1.0853  0.3565
   91CHL1   H4B 9147   0.601   6.861   7.394  0.0763  0.2039  1.6572
   91CHL1    C5 9148   0.643   6.700   7.531  0.4303  0.1937 -0.0359
   91CHL1    C6 9149   0.629   6.774   7.639  0.1622 -0.9830  0.0047
   91CHL1    H6 9150   0.604   6.881   7.640  1.0455 -0.7839  1.0137
   91CHL1    C7 9151   0.662   6.724   7.779  0.0239  0.4085 -0.2807
   91CHL1   H7A 9152   0.723   6.790   7.844  0.8516 -1.6681  1.1249
   91CHL1   H7B 9153   0.569   6.712   7.839  0.3794 -0.2023  0.1589
   91CHL1    C8 9154   0.713   6.577   7.782 -0.4377 -0.1530  0.4962
   91CHL1    H8 9155   0.821   6.589   7.760 -1.0753  2.7798 -1.2641
   91CHL1   C14 9156   0.690   6.504   7.914 -0.2833 -0.6959 -0.8139
   91CHL1   H14 9157   0.581   6.482   7.920 -0.8671  2.3744  0.4735
   91CHL1   C15 9158   0.715   6.579   8.051 -0.0790  0.0272  0.8176
   91CHL1  H15A 9159   0.808   6.639   8.051 -0.5364  0.7368  0.7524
   91CHL1  H15B 9160   0.636   6.655   8.069  0.4833  0.5627  1.0426
   91CHL1   C16 9161   0.723   6.467   8.156  0.1900 -0.4597  0.3807
   91CHL1  H16A 9162   0.823   6.465   8.205  1.3634 -1.6642 -1.9933
   91CHL1  H16B 9163   0.637   6.476   8.226 -0.8075  0.1788 -0.9127
   91CHL1   C17 9164   0.710   6.331   8.079 -0.3842  0.1010  0.2060
   91CHL1   H17 9165   0.600   6.311   8.078 -0.7199  1.6958  2.1604
   91CHL1   C13 9166   0.754   6.357   7.935 -0.7563  0.2490  0.2007
   91CHL1   C18 9167   0.910   6.383   7.927 -0.3400  0.2282 -0.4712
   91CHL1  H18A 9168   0.952   6.281   7.914  1.1895  0.9755 -1.5741
   91CHL1  H18B 9169   0.945   6.436   7.836 -0.8159 -0.1563 -0.8802
   91CHL1  H18C 9170   0.949   6.430   8.020 -0.1843 -1.6326  0.4235
   91CHL1   C12 9171   0.707   6.278   7.815  0.2663 -0.4004 -0.3272
   91CHL1  H12A 9172   0.753   6.178   7.799 -0.7508 -0.6093 -2.0569
   91CHL1  H12B 9173   0.598   6.257   7.819  0.0059  0.5266 -2.1880
   91CHL1   C11 9174   0.724   6.346   7.682  0.4842  0.3987  0.0665
   91CHL1  H11A 9175   0.833   6.353   7.661  0.4179 -0.5683 -0.6541
   91CHL1  H11B 9176   0.704   6.289   7.588  0.9262 -1.4613  1.0750
   91CHL1    C9 9177   0.654   6.490   7.676 -0.5319 -0.4451  1.1751
   91CHL1    H9 9178   0.548   6.474   7.705 -0.7197 -0.0653  0.7041
   91CHL1   C10 9179   0.666   6.536   7.528  0.4217 -0.6035 -0.4393
   91CHL1   C19 9180   0.805   6.515   7.466 -0.0019  0.1920 -0.6172
   91CHL1  H19A 9181   0.826   6.406   7.462 -2.0327 -0.3238  1.5627
   91CHL1  H19B 9182   0.838   6.557   7.369  3.2217  1.3677  0.9143
   91CHL1  H19C 9183   0.873   6.550   7.548 -2.5911 -1.4364  2.3513
   91CHL1    C1 9184   0.559   6.468   7.444 -0.6087 -0.3166  0.0651
   91CHL1   H1A 9185   0.569   6.358   7.435  0.2664 -0.4859  2.5900
   91CHL1   H1B 9186   0.461   6.487   7.492 -1.3324 -1.1686 -1.0528
   91CHL1    C2 9187   0.537   6.533   7.304  0.0705 -0.2486  0.0297
   91CHL1   H2A 9188   0.461   6.481   7.243 -0.9185  2.4001 -1.0885
   91CHL1   H2B 9189   0.630   6.538   7.242 -0.2653  1.0387 -0.3933
   91CHL1   C20 9190   0.767   6.211   8.160  0.2696  0.8488  0.2987
   91CHL1   H20 9191   0.876   6.232   8.168  0.3863  0.3469  0.0522
   91CHL1   C21 9192   0.746   6.080   8.074 -0.2540 -0.2056  0.0839
   91CHL1  H21A 9193   0.638   6.074   8.048 -0.4369 -2.8066  1.2485
   91CHL1  H21B 9194   0.767   5.992   8.138  2.0365  0.6984  0.5982
   91CHL1  H21C 9195   0.813   6.075   7.985 -0.3369  1.4691 -0.0813
   91CHL1   C22 9196   0.698   6.184   8.300 -1.0787 -0.0666 -0.2182
   91CHL1  H22A 9197   0.688   6.276   8.362 -1.7315 -1.1712  1.3538
   91CHL1  H22B 9198   0.605   6.134   8.266 -2.4991  2.6338 -0.4000
   91CHL1   C23 9199   0.790   6.096   8.385  0.4452 -0.2251  0.0292
   91CHL1  H23A 9200   0.783   5.988   8.360  0.1323 -0.6973  2.0507
   91CHL1  H23B 9201   0.897   6.123   8.376  0.4703  0.4766  2.2584
   91CHL1   C24 9202   0.756   6.102   8.543 -0.0718  0.3342 -0.1671
   91CHL1  H24A 9203   0.827   6.040   8.600 -0.2403  0.1429 -0.1648
   91CHL1  H24B 9204   0.774   6.208   8.570  2.1327 -0.8463  3.2621
   91CHL1   C25 9205   0.614   6.059   8.584  0.5307  0.3606  0.6056
   91CHL1   H25 9206   0.537   6.129   8.544  0.9649 -0.5798 -1.9249
   91CHL1   C26 9207   0.572   5.911   8.545  0.2363 -0.3586  0.3175
   91CHL1  H26A 9208   0.554   5.914   8.436 -1.7103 -0.8118  0.6041
   91CHL1  H26B 9209   0.650   5.839   8.578 -1.2291 -1.5238  1.3469
   91CHL1  H26C 9210   0.478   5.897   8.603 -0.2322 -0.7617 -0.5243
   91CHL1   C27 9211   0.601   6.073   8.740 -0.1914  0.8759 -0.5464
   91CHL1  H27A 9212   0.623   6.173   8.783 -1.9651  0.5854  1.0750
   91CHL1  H27B 9213   0.496   6.047   8.763  0.6430 -2.5432 -0.1897
   91CHL1  H27C 9214   0.669   6.002   8.792 -3.0509 -1.8409 -0.3549
   92CHL1    C3 9215   3.595   0.992   6.729 -0.4867  0.2848  0.6141
   92CHL1    H3 9216   3.685   0.928   6.736  0.5036  1.3295 -1.7817
   92CHL1    O3 9217   3.589   1.009   6.588  0.1877 -0.6297 -0.3197
   92CHL1   H3' 9218   3.602   0.919   6.558 -1.5302 -1.2404  0.7135
   92CHL1    C4 9219   3.465   0.933   6.777  0.3424  0.0523  0.5333
   92CHL1   H4A 9220   3.386   1.006   6.753 -0.1458 -0.8877 -0.7819
   92CHL1   H4B 9221   3.434   0.845   6.717  0.0753 -0.2424  1.1022
   92CHL1    C5 9222   3.455   0.909   6.924  0.9977  0.2613  0.0671
   92CHL1    C6 9223   3.424   0.787   6.976 -0.1725 -0.7542  0.1708
   92CHL1    H6 9224   3.410   0.701   6.908 -3.2289  1.0645 -1.6319
   92CHL1    C7 9225   3.407   0.755   7.124 -0.6443  0.0137 -0.9753
   92CHL1   H7A 9226   3.325   0.680   7.133  0.6073 -1.4557 -1.6924
   92CHL1   H7B 9227   3.497   0.699   7.157 -0.0012  1.1412 -0.8052
   92CHL1    C8 9228   3.412   0.887   7.208 -0.2261 -0.2785  1.0125
   92CHL1    H8 9229   3.308   0.922   7.190 -0.5093 -1.3973  0.4587
   92CHL1   C14 9230   3.435   0.861   7.350 -0.4527  0.5741  0.1317
   92CHL1   H14 9231   3.526   0.798   7.351 -1.8549 -1.5125 -0.9874
   92CHL1   C15 9232   3.335   0.752   7.405  0.0791  0.1404 -0.3558
   92CHL1  H15A 9233   3.229   0.750   7.370  0.4962  0.9664 -1.6842
   92CHL1  H15B 9234   3.371   0.650   7.383 -0.6201  0.1146 -1.4593
   92CHL1   C16 9235   3.335   0.773   7.553 -0.2286 -0.2183 -0.5543
   92CHL1  H16A 9236   3.241   0.807   7.600  0.7272  2.5870 -0.5824
   92CHL1  H16B 9237   3.363   0.674   7.595  3.0869 -0.0433 -2.1634
   92CHL1   C17 9238   3.437   0.889   7.572 -0.0101  0.3098 -0.7183
   92CHL1   H17 9239   3.537   0.841   7.585  1.2799  3.7104  2.8326
   92CHL1   C13 9240   3.438   0.975   7.444  0.1144 -0.3191  0.2733
   92CHL1   C18 9241   3.311   1.064   7.437  0.3632  0.7673  0.0034
   92CHL1  H18A 9242   3.219   1.007   7.464  0.2205  0.9429 -0.1122
   92CHL1  H18B 9243   3.324   1.155   7.498  0.4700  0.4918  0.3971
   92CHL1  H18C 9244   3.272   1.083   7.335  1.6094 -1.9377 -1.0351
   92CHL1   C12 9245   3.568   1.052   7.404 -0.1956 -0.7191 -0.0220
   92CHL1  H12A 9246   3.572   1.148   7.459 -2.7719 -1.3409  1.3328
   92CHL1  H12B 9247   3.662   0.995   7.422  0.8884  0.6715 -1.2047
   92CHL1   C11 9248   3.554   1.093   7.256  0.2233 -0.5892  0.3202
   92CHL1  H11A 9249   3.462   1.156   7.250 -1.1670 -2.4875  1.0674
   92CHL1  H11B 9250   3.640   1.154   7.222  0.5233 -0.8155  0.6654
   92CHL1    C9 9251   3.527   0.978   7.158  1.0385 -0.4792 -0.5235
   92CHL1    H9 9252   3.621   0.919   7.152  0.7197 -1.0456 -0.0987
   92CHL1   C10 9253   3.493   1.025   7.015  0.5992 -0.4699 -0.6771
   92CHL1   C19 9254   3.383   1.130   7.011 -0.3504  0.1090  0.6689
   92CHL1  H19A 9255   3.411   1.230   7.049  1.9527 -0.6101  1.0041
   92CHL1  H19B 9256   3.355   1.140   6.904  3.0889 -3.4278 -0.7244
   92CHL1  H19C 9257   3.294   1.103   7.072 -0.1874  0.9838  1.3020
   92CHL1    C1 9258   3.619   1.093   6.953 -0.3144 -0.1594 -0.4102
   92CHL1   H1A 9259   3.635   1.189   7.007  1.0987 -0.4637 -0.2645
   92CHL1   H1B 9260   3.709   1.033   6.978  0.5094  0.0980 -2.6247
   92CHL1    C2 9261   3.607   1.124   6.801  0.4405  0.3567 -0.0837
   92CHL1   H2A 9262   3.691   1.186   6.763 -0.6690  1.0808 -1.4415
   92CHL1   H2B 9263   3.520   1.193   6.787  0.5004  0.2423 -1.0345
   92CHL1   C20 9264   3.403   0.951   7.711 -0.0590 -0.6020 -0.6059
   92CHL1   H20 9265   3.299   0.989   7.709  1.5634  4.1497 -0.2782
   92CHL1   C21 9266   3.481   1.081   7.731  0.2366  0.0070  0.0098
   92CHL1  H21A 9267   3.435   1.137   7.816 -2.1697  0.0454 -1.2637
   92CHL1  H21B 9268   3.495   1.150   7.645  0.0238 -0.8405 -0.7074
   92CHL1  H21C 9269   3.582   1.054   7.766 -0.1266 -2.1036 -0.5553
   92CHL1   C22 9270   3.420   0.867   7.839  0.3495  0.5532  0.1706
   92CHL1  H22A 9271   3.392   0.762   7.817  1.1097  0.2921  0.4568
   92CHL1  H22B 9272   3.523   0.873   7.879  0.0364  1.9364  0.8120
   92CHL1   C23 9273   3.316   0.912   7.948 -0.2631  0.4842 -0.1276
   92CHL1  H23A 9274   3.323   1.019   7.974  0.6054  0.3976 -0.0019
   92CHL1  H23B 9275   3.219   0.894   7.897 -0.8938 -0.8938  1.4623
   92CHL1   C24 9276   3.316   0.820   8.073  0.3222 -0.4493 -0.0906
   92CHL1  H24A 9277   3.312   0.711   8.056 -1.3032 -0.3679 -0.2585
   92CHL1  H24B 9278   3.417   0.818   8.120  0.3217 -0.0085 -0.0695
   92CHL1   C25 9279   3.214   0.870   8.177 -0.3827  0.1570 -0.2962
   92CHL1   H25 9280   3.235   0.979   8.189 -1.8802  0.2134  1.9335
   92CHL1   C26 9281   3.068   0.849   8.141 -0.8694  0.2266  0.7005
   92CHL1  H26A 9282   3.032   0.932   8.076 -0.6796 -0.2553 -0.0291
   92CHL1  H26B 9283   3.053   0.749   8.094 -2.5924  0.7637  0.0674
   92CHL1  H26C 9284   3.011   0.859   8.236  0.4124  0.9460  1.3984
   92CHL1   C27 9285   3.238   0.795   8.321  0.3850 -0.2810 -0.1315
   92CHL1  H27A 9286   3.345   0.797   8.350  0.8563 -1.1381 -1.8003
   92CHL1  H27B 9287   3.175   0.851   8.394  1.0976  1.1878 -0.6341
   92CHL1  H27C 9288   3.191   0.695   8.315 -1.2270  0.3918  0.9416
   93CHL1    C3 9289   1.801   5.592   7.015 -1.0226  0.2730 -0.2091
   93CHL1    H3 9290   1.754   5.682   7.061  0.2648  2.7305 -3.5158
   93CHL1    O3 9291   1.798   5.617   6.875 -0.1591 -0.0266  0.3597
   93CHL1   H3' 9292   1.795   5.534   6.827 -2.2699  0.5136 -0.5437
   93CHL1    C4 9293   1.939   5.575   7.055  0.1761  0.9091 -0.2020
   93CHL1   H4A 9294   1.993   5.489   7.009  0.4405  0.5646  0.7409
   93CHL1   H4B 9295   2.009   5.655   7.022 -0.3711  0.3565 -2.8148
   93CHL1    C5 9296   1.955   5.556   7.204  0.3156 -0.6794 -0.9628
   93CHL1    C6 9297   2.034   5.637   7.279  0.1987  0.0607 -0.7305
   93CHL1    H6 9298   2.066   5.729   7.229 -1.0303  1.2838  0.6731
   93CHL1    C7 9299   2.058   5.627   7.428 -0.6135 -0.8622  0.1449
   93CHL1   H7A 9300   2.165   5.640   7.455 -0.3745 -0.4062 -0.9828
   93CHL1   H7B 9301   1.991   5.703   7.474  1.5561  0.2451  1.5577
   93CHL1    C8 9302   2.009   5.484   7.482  0.4676  0.0689 -0.0995
   93CHL1    H8 9303   2.082   5.407   7.450 -1.7315 -2.0248 -0.3030
   93CHL1   C14 9304   2.003   5.494   7.634  0.0526  0.8105 -0.2655
   93CHL1   H14 9305   1.926   5.569   7.662  1.4551  1.9731  0.5829
   93CHL1   C15 9306   2.127   5.543   7.706 -0.1438 -0.4968  0.2385
   93CHL1  H15A 9307   2.225   5.527   7.655  0.6550  1.7136  1.0049
   93CHL1  H15B 9308   2.114   5.653   7.715 -1.0104 -0.5777  0.0223
   93CHL1   C16 9309   2.114   5.484   7.845  0.2647 -0.3067 -0.3629
   93CHL1  H16A 9310   2.197   5.410   7.855  1.0602  1.0208  3.8932
   93CHL1  H16B 9311   2.140   5.560   7.921 -1.1671 -0.8937  0.7267
   93CHL1   C17 9312   1.977   5.411   7.857  0.3803 -0.5389 -0.0196
   93CHL1   H17 9313   1.901   5.488   7.884  1.3869  0.7289 -0.7405
   93CHL1   C13 9314   1.951   5.367   7.709 -0.2397  0.9023  0.5285
   93CHL1   C18 9315   2.052   5.250   7.680  0.0060  0.0010 -0.5875
   93CHL1  H18A 9316   2.086   5.239   7.574  3.7324  1.2573  0.3722
   93CHL1  H18B 9317   2.148   5.259   7.736 -0.5217  0.1779  0.2775
   93CHL1  H18C 9318   1.998   5.160   7.713 -1.2444  0.9990  0.1229
   93CHL1   C12 9319   1.811   5.340   7.655  0.3155  0.0783  0.4238
   93CHL1  H12A 9320   1.760   5.249   7.692  0.5978 -0.4963 -0.5718
   93CHL1  H12B 9321   1.732   5.412   7.684 -0.7648 -0.7940 -0.3452
   93CHL1   C11 9322   1.810   5.324   7.502 -0.2291 -0.5591 -0.4032
   93CHL1  H11A 9323   1.872   5.236   7.476 -0.7878 -1.0599 -0.0614
   93CHL1  H11B 9324   1.707   5.297   7.472 -1.7015  0.1948  3.5859
   93CHL1    C9 9325   1.874   5.444   7.419 -0.3963 -0.1292  0.6446
   93CHL1    H9 9326   1.801   5.523   7.447  0.1729  0.6547 -0.0406
   93CHL1   C10 9327   1.870   5.441   7.261 -0.6821  0.2407  0.8814
   93CHL1   C19 9328   1.942   5.310   7.216 -0.5630 -0.3407 -0.3688
   93CHL1  H19A 9329   1.889   5.222   7.261 -1.5516  0.6501  0.4382
   93CHL1  H19B 9330   1.956   5.305   7.106 -1.0128  0.5471 -0.4666
   93CHL1  H19C 9331   2.037   5.292   7.270  0.9941  1.7255 -2.3535
   93CHL1    C1 9332   1.726   5.444   7.202  0.2415  0.1979  0.8163
   93CHL1   H1A 9333   1.671   5.351   7.229  0.2113  0.1804  0.7015
   93CHL1   H1B 9334   1.667   5.525   7.249 -1.8804 -1.2902  0.8269
   93CHL1    C2 9335   1.724   5.460   7.049 -0.5414 -0.1610 -0.1651
   93CHL1   H2A 9336   1.618   5.466   7.017  0.0337 -0.4538 -2.2099
   93CHL1   H2B 9337   1.778   5.379   6.995  0.8789  1.5679 -1.3998
   93CHL1   C20 9338   1.968   5.301   7.962  0.0560 -0.0653 -0.0695
   93CHL1   H20 9339   2.004   5.204   7.923 -0.8523 -0.7109  0.6993
   93CHL1   C21 9340   1.821   5.298   7.995  0.2753 -0.6236 -0.7312
   93CHL1  H21A 9341   1.785   5.211   8.054  0.0683 -0.2142 -0.2482
   93CHL1  H21B 9342   1.756   5.297   7.905 -0.1451 -1.4009 -0.4247
   93CHL1  H21C 9343   1.785   5.387   8.051  0.8766  0.7897 -2.5712
   93CHL1   C22 9344   2.045   5.323   8.092 -0.1216 -0.0891  0.3029
   93CHL1  H22A 9345   2.154   5.311   8.077 -0.1253  1.1425 -0.8121
   93CHL1  H22B 9346   2.029   5.428   8.123  0.0702 -0.4660  1.7349
   93CHL1   C23 9347   2.007   5.235   8.213  0.5266  0.2989  0.3323
   93CHL1  H23A 9348   1.901   5.254   8.240  1.4437  1.8904  3.0680
   93CHL1  H23B 9349   2.015   5.127   8.191 -1.4669  0.0768  0.6252
   93CHL1   C24 9350   2.093   5.283   8.332 -0.1282 -0.1818  0.0699
   93CHL1  H24A 9351   2.198   5.260   8.303  0.4484  3.2328 -0.7317
   93CHL1  H24B 9352   2.074   5.392   8.344  1.8670  0.4018 -1.8343
   93CHL1   C25 9353   2.078   5.213   8.469 -0.5016 -0.1352 -0.3589
   93CHL1   H25 9354   1.981   5.240   8.515 -0.7629 -1.8143  0.1311
   93CHL1   C26 9355   2.086   5.062   8.446 -0.0981  0.3143  0.3454
   93CHL1  H26A 9356   1.999   5.019   8.392 -0.4737 -0.3070  1.4130
   93CHL1  H26B 9357   2.178   5.038   8.389 -1.1212 -1.4331 -0.6367
   93CHL1  H26C 9358   2.095   5.005   8.541 -3.9781 -2.3721 -0.7368
   93CHL1   C27 9359   2.189   5.249   8.570 -0.3253 -0.9350  0.2982
   93CHL1  H27A 9360   2.289   5.247   8.522 -0.7805  0.4660 -0.7268
   93CHL1  H27B 9361   2.186   5.349   8.617 -1.1229 -1.3050  1.0389
   93CHL1  H27C 9362   2.188   5.181   8.658  1.8249 -1.2080  0.1315
   94CHL1    C3 9363   4.149   1.874   6.940 -0.1611  0.2313  0.5379
   94CHL1    H3 9364   4.135   1.763   6.945  4.0488 -0.3357  1.4119
   94CHL1    O3 9365   4.192   1.907   6.812 -0.1439  0.2196 -0.4260
   94CHL1   H3' 9366   4.185   2.002   6.815 -3.6683  0.0482 -0.4857
   94CHL1    C4 9367   4.019   1.946   6.966 -0.2278 -0.5021  0.2700
   94CHL1   H4A 9368   4.023   2.055   6.948  1.2692 -0.6238 -0.1786
   94CHL1   H4B 9369   3.946   1.907   6.892  0.8264  0.6796 -1.4080
   94CHL1    C5 9370   3.958   1.926   7.102 -0.8366  0.0012  0.2704
   94CHL1    C6 9371   3.840   1.871   7.126 -0.2427 -0.0753 -0.0014
   94CHL1    H6 9372   3.773   1.850   7.042 -0.9892  0.2399  0.5168
   94CHL1    C7 9373   3.785   1.845   7.258  0.7550  0.6377  0.3943
   94CHL1   H7A 9374   3.683   1.889   7.263 -0.6541 -2.3287 -0.7156
   94CHL1   H7B 9375   3.765   1.735   7.260  0.2460  0.6123 -2.8862
   94CHL1    C8 9376   3.854   1.916   7.375 -0.1508  0.0508  0.0835
   94CHL1    H8 9377   3.844   2.026   7.370 -0.0884  0.1031  0.9951
   94CHL1   C14 9378   3.807   1.858   7.509 -0.3013  0.0828 -0.0645
   94CHL1   H14 9379   3.817   1.747   7.500  0.1507  0.1171  0.0127
   94CHL1   C15 9380   3.661   1.875   7.548  0.0175  0.5108 -0.8203
   94CHL1  H15A 9381   3.621   1.978   7.532  1.1804  0.8813 -1.3654
   94CHL1  H15B 9382   3.595   1.807   7.490 -0.2711 -0.0250  0.1280
   94CHL1   C16 9383   3.661   1.824   7.694 -0.0145  0.4746 -0.9732
   94CHL1  H16A 9384   3.583   1.866   7.761 -0.0764 -0.0102 -0.7398
   94CHL1  H16B 9385   3.639   1.716   7.683  2.0916 -0.0934  0.1038
   94CHL1   C17 9386   3.817   1.828   7.750  0.1208 -0.2053 -0.0981
   94CHL1   H17 9387   3.853   1.724   7.764 -0.3378 -0.4780 -0.8909
   94CHL1   C13 9388   3.892   1.891   7.630 -0.2412 -0.0569 -0.4782
   94CHL1   C18 9389   3.880   2.050   7.637 -0.1416 -0.2543  0.9866
   94CHL1  H18A 9390   3.777   2.089   7.631  0.7694  2.0124 -0.7382
   94CHL1  H18B 9391   3.912   2.096   7.733 -1.8195  1.5145  0.7224
   94CHL1  H18C 9392   3.926   2.099   7.549  0.4572 -0.0911  1.3864
   94CHL1   C12 9393   4.040   1.857   7.613  0.1386  0.2986 -0.2638
   94CHL1  H12A 9394   4.105   1.891   7.696  2.8624 -2.0606 -1.3388
   94CHL1  H12B 9395   4.051   1.747   7.601 -0.7350  0.2549 -0.6609
   94CHL1   C11 9396   4.092   1.916   7.484 -0.0250 -0.6143 -0.6974
   94CHL1  H11A 9397   4.117   2.024   7.492 -1.7056 -0.0196 -3.1039
   94CHL1  H11B 9398   4.195   1.874   7.477  1.7818  3.4305 -0.1219
   94CHL1    C9 9399   4.002   1.893   7.359  0.2227 -0.4569 -0.5025
   94CHL1    H9 9400   4.014   1.783   7.345  0.9119 -0.3066 -1.0817
   94CHL1   C10 9401   4.055   1.955   7.219 -0.4027 -0.2309 -0.1742
   94CHL1   C19 9402   4.080   2.110   7.218  0.0523  0.2009 -0.0503
   94CHL1  H19A 9403   3.988   2.162   7.252  1.0972  0.4428  2.5053
   94CHL1  H19B 9404   4.160   2.120   7.294  0.4479 -1.4637 -0.2176
   94CHL1  H19C 9405   4.104   2.153   7.118 -0.9123  1.0609  0.0820
   94CHL1    C1 9406   4.195   1.891   7.193 -0.5036 -0.1574  0.3452
   94CHL1   H1A 9407   4.269   1.932   7.265  0.0218 -0.3801 -0.0645
   94CHL1   H1B 9408   4.196   1.785   7.224  0.2575 -0.3984 -0.4604
   94CHL1    C2 9409   4.257   1.898   7.048 -0.1104 -0.0913 -0.4827
   94CHL1   H2A 9410   4.347   1.832   7.054  0.3800  0.7005  1.2187
   94CHL1   H2B 9411   4.292   2.000   7.025  0.3248  0.1762  1.2888
   94CHL1   C20 9412   3.833   1.891   7.891 -0.2900  0.4718  0.8364
   94CHL1   H20 9413   3.785   1.991   7.895 -0.4508  0.4198  0.3407
   94CHL1   C21 9414   3.972   1.918   7.943 -0.5055  0.1579  0.1716
   94CHL1  H21A 9415   4.026   1.986   7.873  1.3310 -1.9137 -0.4942
   94CHL1  H21B 9416   4.037   1.828   7.950 -0.5143  0.1540  0.2003
   94CHL1  H21C 9417   3.971   1.969   8.042 -1.3581  1.9486 -0.7267
   94CHL1   C22 9418   3.745   1.816   7.993  0.0786  0.0471 -0.0950
   94CHL1  H22A 9419   3.641   1.803   7.956 -0.6237 -2.1032  2.4968
   94CHL1  H22B 9420   3.795   1.716   7.997 -0.9079 -0.5226 -1.6486
   94CHL1   C23 9421   3.733   1.881   8.133 -0.3295 -0.9183  0.8734
   94CHL1  H23A 9422   3.832   1.914   8.170 -1.1096  2.7423 -0.1124
   94CHL1  H23B 9423   3.688   1.982   8.119  0.8612 -0.4502  0.4142
   94CHL1   C24 9424   3.658   1.808   8.244  0.0056 -0.2662  0.4326
   94CHL1  H24A 9425   3.561   1.772   8.203  0.1749  0.0037 -0.2111
   94CHL1  H24B 9426   3.711   1.715   8.275  1.9630  1.0530  1.1505
   94CHL1   C25 9427   3.636   1.898   8.370 -0.1314  0.0519 -0.5120
   94CHL1   H25 9428   3.565   1.981   8.350 -0.7449 -0.2455  0.3878
   94CHL1   C26 9429   3.573   1.819   8.484  0.5809  0.2928 -0.4705
   94CHL1  H26A 9430   3.464   1.828   8.463  0.5234  0.6278 -0.0407
   94CHL1  H26B 9431   3.613   1.715   8.495 -0.9890 -0.1268  1.5566
   94CHL1  H26C 9432   3.583   1.868   8.583 -2.1807  0.7819 -0.3867
   94CHL1   C27 9433   3.766   1.952   8.428  0.4624  0.0476 -0.6218
   94CHL1  H27A 9434   3.828   2.017   8.364  0.6605 -0.6499 -1.1453
   94CHL1  H27B 9435   3.735   2.017   8.513 -0.2826  0.4282 -1.1828
   94CHL1  H27C 9436   3.832   1.869   8.461 -1.5393 -1.1984  0.3707
   95CHL1    C3 9437   3.981   0.908   6.624 -0.2862  0.1868 -0.1785
   95CHL1    H3 9438   3.884   0.956   6.648 -0.6957 -0.3684 -0.7077
   95CHL1    O3 9439   4.007   0.957   6.493  1.0631 -0.1018 -0.4915
   95CHL1   H3' 9440   4.068   0.895   6.452 -2.0997 -2.1982 -2.3148
   95CHL1    C4 9441   4.072   0.977   6.732  0.5831  0.2875 -0.1383
   95CHL1   H4A 9442   4.174   0.944   6.703  0.5730  0.1638 -0.0358
   95CHL1   H4B 9443   4.072   1.087   6.720  1.5054  0.4876  1.5670
   95CHL1    C5 9444   4.037   0.937   6.873  0.3208  0.6087 -0.6297
   95CHL1    C6 9445   4.019   1.032   6.966 -0.3777  0.0997 -1.0592
   95CHL1    H6 9446   4.023   1.138   6.938 -0.4069  0.0367 -1.3005
   95CHL1    C7 9447   4.009   0.996   7.109 -0.2416  0.3997  0.0666
   95CHL1   H7A 9448   4.074   1.059   7.174 -1.2479  1.7399 -0.2092
   95CHL1   H7B 9449   3.909   1.036   7.139 -0.2669  0.5617 -0.2322
   95CHL1    C8 9450   4.019   0.844   7.137  0.6365  0.7431  0.0813
   95CHL1    H8 9451   4.127   0.824   7.153 -0.1251 -2.7981  1.2341
   95CHL1   C14 9452   3.947   0.822   7.273  0.8836  0.0564  0.4456
   95CHL1   H14 9453   3.842   0.853   7.254  1.2019  0.9574  0.1273
   95CHL1   C15 9454   3.977   0.913   7.396 -0.2011 -0.0726 -0.7685
   95CHL1  H15A 9455   4.086   0.934   7.403 -0.3211  0.7418 -1.2789
   95CHL1  H15B 9456   3.911   1.002   7.393 -2.1024 -1.3997  0.4031
   95CHL1   C16 9457   3.924   0.835   7.515  0.4887 -0.9082  0.2619
   95CHL1  H16A 9458   4.007   0.799   7.579  0.8797 -2.9799 -1.3538
   95CHL1  H16B 9459   3.845   0.891   7.569 -1.6765 -3.1558 -0.4916
   95CHL1   C17 9460   3.864   0.706   7.456  0.2482 -0.2907 -0.0705
   95CHL1   H17 9461   3.765   0.732   7.413  1.2973  0.7494 -1.9265
   95CHL1   C13 9462   3.946   0.683   7.323  0.7672 -0.1682 -0.2510
   95CHL1   C18 9463   4.088   0.627   7.366  0.1411  0.3206  0.1426
   95CHL1  H18A 9464   4.083   0.520   7.397  1.3265 -0.0588 -0.9253
   95CHL1  H18B 9465   4.151   0.616   7.275 -2.9486  0.5162 -2.0855
   95CHL1  H18C 9466   4.133   0.689   7.446 -1.6116  0.5509  0.9710
   95CHL1   C12 9467   3.878   0.596   7.213 -0.0570  0.2177 -0.0012
   95CHL1  H12A 9468   3.891   0.491   7.247 -1.2562 -0.5479 -1.8251
   95CHL1  H12B 9469   3.772   0.623   7.196 -0.6471 -1.6331  0.6422
   95CHL1   C11 9470   3.949   0.606   7.081 -0.3937  0.2933  0.2262
   95CHL1  H11A 9471   4.048   0.556   7.088  0.8215  2.4563 -0.8901
   95CHL1  H11B 9472   3.893   0.544   7.008  2.2750 -2.1577  0.1641
   95CHL1    C9 9473   3.957   0.752   7.031 -0.1527  0.1441 -0.5519
   95CHL1    H9 9474   3.853   0.780   7.006  0.0702 -0.1542 -1.8549
   95CHL1   C10 9475   4.018   0.784   6.893 -0.0539  0.6140 -0.0835
   95CHL1   C19 9476   4.156   0.714   6.901 -0.1543  0.2345 -0.6243
   95CHL1  H19A 9477   4.223   0.725   6.813 -1.1779  0.2500 -1.4128
   95CHL1  H19B 9478   4.216   0.750   6.988 -4.3259  1.8885  1.7229
   95CHL1  H19C 9479   4.160   0.604   6.919 -2.7947  0.1874 -0.1641
   95CHL1    C1 9480   3.923   0.721   6.779  0.2485 -0.3604  0.6297
   95CHL1   H1A 9481   3.932   0.610   6.785  2.2991 -0.1716  1.8253
   95CHL1   H1B 9482   3.815   0.745   6.786  0.1486 -0.6143 -0.0241
   95CHL1    C2 9483   3.972   0.760   6.639 -0.1278 -0.3993 -0.4326
   95CHL1   H2A 9484   3.895   0.718   6.571 -0.6216 -2.2437  1.2107
   95CHL1   H2B 9485   4.070   0.714   6.616  0.2247 -0.4582  1.1497
   95CHL1   C20 9486   3.850   0.598   7.562 -0.1864 -0.0138  0.0809
   95CHL1   H20 9487   3.944   0.541   7.575 -0.6293 -1.1265 -1.3184
   95CHL1   C21 9488   3.736   0.497   7.513  0.0780  0.1706 -0.3252
   95CHL1  H21A 9489   3.715   0.415   7.584  0.5222 -0.2579 -0.6845
   95CHL1  H21B 9490   3.765   0.442   7.421 -0.2131  0.1699 -0.4158
   95CHL1  H21C 9491   3.638   0.547   7.504 -0.5800 -0.9635  0.4225
   95CHL1   C22 9492   3.798   0.649   7.692 -0.3003 -0.2249 -0.8463
   95CHL1  H22A 9493   3.742   0.746   7.696  0.6122  0.2387  1.9511
   95CHL1  H22B 9494   3.726   0.579   7.739 -0.2840 -0.0338 -0.5291
   95CHL1   C23 9495   3.919   0.658   7.792 -0.6259 -0.1865 -0.6856
   95CHL1  H23A 9496   3.967   0.558   7.789  1.4613  0.8055 -1.3056
   95CHL1  H23B 9497   3.999   0.731   7.764  1.4639 -2.2756 -0.3140
   95CHL1   C24 9498   3.871   0.684   7.940  0.5780  0.2437 -0.6354
   95CHL1  H24A 9499   3.793   0.608   7.965  0.0677  0.3161 -1.9831
   95CHL1  H24B 9500   3.957   0.669   8.009  1.4801  1.3455 -1.5037
   95CHL1   C25 9501   3.835   0.839   7.954 -0.5470  0.1682  0.0311
   95CHL1   H25 9502   3.780   0.880   7.867  1.0528  1.1854 -0.5116
   95CHL1   C26 9503   3.747   0.852   8.078 -0.6932  0.1755  0.0100
   95CHL1  H26A 9504   3.803   0.814   8.166  0.8796  0.0837 -1.0289
   95CHL1  H26B 9505   3.725   0.959   8.100 -2.1963  0.1217 -1.1554
   95CHL1  H26C 9506   3.656   0.788   8.083 -0.5557 -0.0894 -0.8819
   95CHL1   C27 9507   3.961   0.923   7.971  0.5208 -0.2046  0.2146
   95CHL1  H27A 9508   4.032   0.909   7.887  0.0651  0.3577 -0.2705
   95CHL1  H27B 9509   3.942   1.032   7.976  2.3524  0.1795 -0.6926
   95CHL1  H27C 9510   4.011   0.889   8.064 -1.4185  1.4619  1.9068
   96CHL1    C3 9511   5.006   0.353   6.761 -0.4913  1.0994 -0.2305
   96CHL1    H3 9512   5.079   0.270   6.762 -1.2834  0.4042  0.4945
   96CHL1    O3 9513   4.987   0.404   6.632  0.0407  0.1609  0.7044
   96CHL1   H3' 9514   4.959   0.334   6.573 -0.2356  2.2573 -1.7111
   96CHL1    C4 9515   4.864   0.291   6.813  0.8805 -0.7847  0.2583
   96CHL1   H4A 9516   4.775   0.357   6.799  0.9987  0.0740  3.1154
   96CHL1   H4B 9517   4.832   0.210   6.744  1.7256 -1.3428  0.5157
   96CHL1    C5 9518   4.860   0.255   6.958  0.3746 -0.2786 -0.2433
   96CHL1    C6 9519   4.826   0.131   7.003  0.3454  0.0337 -0.0047
   96CHL1    H6 9520   4.796   0.054   6.930  1.7964  0.9205 -1.5617
   96CHL1    C7 9521   4.809   0.095   7.148 -0.6847 -0.0461 -0.3718
   96CHL1   H7A 9522   4.715   0.038   7.168 -0.1619 -0.2495  1.6179
   96CHL1   H7B 9523   4.896   0.029   7.166 -0.4012  0.7583  1.2524
   96CHL1    C8 9524   4.817   0.219   7.242 -0.0160  0.3734  0.0722
   96CHL1    H8 9525   4.719   0.271   7.239 -0.1344  0.2091  1.0481
   96CHL1   C14 9526   4.856   0.161   7.388 -0.1185 -0.2582  0.0508
   96CHL1   H14 9527   4.953   0.108   7.376  0.0900 -0.1408  1.1887
   96CHL1   C15 9528   4.760   0.063   7.454  0.9383  0.6033 -0.3985
   96CHL1  H15A 9529   4.652   0.088   7.449  0.4117 -0.5032  3.6340
   96CHL1  H15B 9530   4.769  -0.033   7.400  0.6395  0.6239 -0.4820
   96CHL1   C16 9531   4.805   0.061   7.603  0.5843 -0.6081  0.3107
   96CHL1  H16A 9532   4.714   0.091   7.660  0.2554  0.1874 -0.6228
   96CHL1  H16B 9533   4.841  -0.040   7.634  1.4603 -0.3401  0.1899
   96CHL1   C17 9534   4.907   0.177   7.619 -0.0351  0.2723  0.2736
   96CHL1   H17 9535   5.008   0.132   7.619  0.5634  1.5470  1.6200
   96CHL1   C13 9536   4.888   0.265   7.495  0.1389  0.5031 -0.0925
   96CHL1   C18 9537   4.779   0.369   7.522  0.2804 -0.3061  0.1452
   96CHL1  H18A 9538   4.810   0.449   7.592  1.0680  0.7052 -1.3301
   96CHL1  H18B 9539   4.737   0.415   7.429  1.2264  0.0115 -0.1295
   96CHL1  H18C 9540   4.693   0.316   7.569 -0.0320  0.8895  0.9476
   96CHL1   C12 9541   5.011   0.342   7.439 -0.7486  0.0344  0.2511
   96CHL1  H12A 9542   5.046   0.417   7.513  0.2952  0.3999 -0.6089
   96CHL1  H12B 9543   5.096   0.271   7.430 -0.2889  0.5260  0.7122
   96CHL1   C11 9544   4.981   0.406   7.303  0.0082 -0.5173  0.2185
   96CHL1  H11A 9545   4.906   0.488   7.307 -0.9143 -1.3454 -0.1136
   96CHL1  H11B 9546   5.078   0.443   7.262 -1.4612  1.4365 -1.5912
   96CHL1    C9 9547   4.928   0.308   7.195 -0.9388  0.2349  0.2521
   96CHL1    H9 9548   5.021   0.247   7.200 -1.8518 -1.1229  0.8848
   96CHL1   C10 9549   4.911   0.368   7.049 -0.1801 -0.0105  0.2432
   96CHL1   C19 9550   4.797   0.474   7.037  0.0294 -0.5481  0.1680
   96CHL1  H19A 9551   4.705   0.425   7.074 -0.9079 -1.2482 -2.9460
   96CHL1  H19B 9552   4.820   0.565   7.096  1.7729 -0.1999 -1.0137
   96CHL1  H19C 9553   4.779   0.519   6.937 -2.5408  1.4869  1.5018
   96CHL1    C1 9554   5.038   0.429   6.999  0.0757 -0.2774 -0.0343
   96CHL1   H1A 9555   5.064   0.526   7.048 -1.2464  0.7962 -1.3831
   96CHL1   H1B 9556   5.119   0.355   7.012  0.0634 -0.2517  0.1939
   96CHL1    C2 9557   5.049   0.468   6.849  0.0232  0.1284 -0.6303
   96CHL1   H2A 9558   5.151   0.491   6.811 -0.8711  2.4440 -1.7573
   96CHL1   H2B 9559   4.984   0.558   6.839  0.5062  0.3878 -1.5265
   96CHL1   C20 9560   4.909   0.240   7.761  0.0952  0.2931 -0.9853
   96CHL1   H20 9561   4.851   0.334   7.767 -1.2683 -0.6580  1.7786
   96CHL1   C21 9562   5.052   0.286   7.795  0.8880 -0.2190 -0.3468
   96CHL1  H21A 9563   5.106   0.189   7.807  1.8002  0.2547 -0.5544
   96CHL1  H21B 9564   5.056   0.346   7.889  1.4673 -1.4113  0.3969
   96CHL1  H21C 9565   5.101   0.345   7.715  1.8004  1.2711  1.2664
   96CHL1   C22 9566   4.855   0.150   7.881  0.1032 -0.1014  0.3083
   96CHL1  H22A 9567   4.746   0.142   7.858  0.3529  2.2619 -1.9006
   96CHL1  H22B 9568   4.896   0.048   7.897 -0.4393 -0.2462  0.8147
   96CHL1   C23 9569   4.861   0.220   8.017  0.2609  0.3952 -0.0615
   96CHL1  H23A 9570   4.963   0.254   8.044 -0.1653  2.0243 -0.4694
   96CHL1  H23B 9571   4.795   0.309   8.020 -1.3345 -0.7849  0.6125
   96CHL1   C24 9572   4.817   0.124   8.128  0.0900  0.0950  0.1345
   96CHL1  H24A 9573   4.726   0.072   8.094 -1.0486  1.5819  0.8362
   96CHL1  H24B 9574   4.902   0.053   8.129  1.5768  1.8290  0.1018
   96CHL1   C25 9575   4.803   0.187   8.274 -0.7268  0.0496  0.9474
   96CHL1   H25 9576   4.731   0.270   8.258  1.0783  1.5825  0.5728
   96CHL1   C26 9577   4.744   0.086   8.373 -0.2552  0.3009  0.4079
   96CHL1  H26A 9578   4.658   0.031   8.329 -0.0799 -0.0373  0.4828
   96CHL1  H26B 9579   4.822   0.012   8.400 -0.4538  0.0449  0.2914
   96CHL1  H26C 9580   4.715   0.132   8.469 -0.9546  1.1401 -0.1984
   96CHL1   C27 9581   4.929   0.249   8.326 -0.2923 -0.0821 -0.2675
   96CHL1  H27A 9582   5.012   0.176   8.313  0.1668  0.0096  1.9698
   96CHL1  H27B 9583   4.952   0.346   8.275  1.0768  0.2918  1.0299
   96CHL1  H27C 9584   4.918   0.271   8.434 -0.4710 -1.0556 -0.0857
   97OSM      N 9585   2.536   2.389  10.897  0.3146 -0.1647  0.6220
   97OSM    C15 9586   2.494   2.415  10.755  0.2955  0.4001  0.1353
   97OSM   H15A 9587   2.581   2.428  10.691  1.0632  0.5133  1.1815
   97OSM   H15B 9588   2.439   2.507  10.740  0.4848  0.0265 -3.2274
   97OSM   H15C 9589   2.426   2.336  10.728  2.8197 -1.7991  0.0014
   97OSM    C14 9590   2.637   2.490  10.932 -0.0036  0.4544 -0.2950
   97OSM   H14A 9591   2.725   2.482  10.871 -0.7351 -1.4911 -1.1300
   97OSM   H14B 9592   2.686   2.465  11.025  1.6032  0.4827 -1.1269
   97OSM   H14C 9593   2.610   2.594  10.922  3.4047  1.2271 -2.0109
   97OSM    C13 9594   2.421   2.400  10.988  0.5537 -0.7308  0.5111
   97OSM   H13A 9595   2.357   2.482  10.960 -1.4597 -1.4980  2.6765
   97OSM   H13B 9596   2.459   2.430  11.085  0.6635  0.9880 -0.0407
   97OSM   H13C 9597   2.353   2.316  10.987  0.4831 -0.6971  1.6786
   97OSM    C12 9598   2.594   2.248  10.918 -0.1017 -0.3354  0.6131
   97OSM   H12A 9599   2.608   2.229  11.023  3.8915  1.2920  0.4619
   97OSM   H12B 9600   2.696   2.251  10.882 -0.0756  0.6590  0.7757
   97OSM    C11 9601   2.527   2.121  10.854 -0.3964  0.4192  0.7699
   97OSM   H11A 9602   2.589   2.032  10.881 -2.9122 -1.5065  0.4172
   97OSM   H11B 9603   2.546   2.142  10.746  0.2152 -1.9406  0.3702
   97OSM      P 9604   2.341   2.030  11.022 -0.2732 -0.2536 -0.3222
   97OSM    O13 9605   2.437   2.042  11.129 -0.3069 -0.1991 -0.2030
   97OSM    O14 9606   2.206   2.084  11.056  0.1723  0.6804  0.6427
   97OSM    O11 9607   2.324   1.879  10.969  0.8459  0.3024 -0.1486
   97OSM    O12 9608   2.390   2.104  10.888  0.0707  0.2749  0.1021
   97OSM    C1S 9609   2.272   1.859  10.836 -0.2273 -0.0939 -0.1019
   97OSM    H1S 9610   2.255   1.954  10.781  0.1653 -0.5227 -0.9862
   97OSM    H1T 9611   2.174   1.809  10.823 -0.2031 -0.1057 -0.2404
   97OSM     NF 9612   2.313   1.756  10.616  0.2258  0.0258 -0.4474
   97OSM    HNF 9613   2.262   1.671  10.606  0.5781 -0.3253  0.6560
   97OSM    C2S 9614   2.369   1.769  10.753  0.8484  0.3522 -0.0211
   97OSM    H2S 9615   2.457   1.838  10.753  0.2568  1.1175  0.3090
   97OSM    C3S 9616   2.396   1.639  10.826  0.5241 -0.6560 -0.4347
   97OSM    H3S 9617   2.296   1.594  10.843  0.0103  0.5254 -0.2458
   97OSM     O3 9618   2.466   1.658  10.948 -0.2365 -0.3512  0.2285
   97OSM    HO3 9619   2.439   1.746  10.975 -0.0435 -0.4584  0.7719
   97OSM    C4S 9620   2.476   1.549  10.752 -0.4890 -0.2507  0.8298
   97OSM    H4S 9621   2.559   1.597  10.698 -0.3054 -0.6266  0.7790
   97OSM    C5S 9622   2.464   1.418  10.730 -0.5652  0.3095 -0.3984
   97OSM    H5S 9623   2.373   1.362  10.755 -0.3734 -0.5997 -1.6717
   97OSM    C6S 9624   2.559   1.335  10.648  0.9232 -0.6589  0.4270
   97OSM    H6S 9625   2.545   1.235  10.693  2.6720  0.1217  2.8099
   97OSM    H6T 9626   2.668   1.359  10.648  0.8394 -0.2740  1.7558
   97OSM    C7S 9627   2.530   1.317  10.500 -0.4471 -0.0989 -0.1532
   97OSM    H7S 9628   2.422   1.294  10.493 -0.5895  0.3350  0.5934
   97OSM    H7T 9629   2.595   1.235  10.463 -0.5938  0.1115 -0.8899
   97OSM    C8S 9630   2.556   1.430  10.403  0.6519 -0.1354  0.4807
   97OSM    H8S 9631   2.663   1.446  10.377  1.2507 -2.1775  1.5809
   97OSM    H8T 9632   2.523   1.528  10.445 -1.8909 -0.5145 -0.5538
   97OSM    C9S 9633   2.477   1.410  10.271 -0.3360  0.4921 -0.3363
   97OSM    H9S 9634   2.370   1.391  10.293  0.1357 -2.6016 -0.4390
   97OSM    H9T 9635   2.513   1.316  10.223 -2.9728 -0.6536 -0.1237
   97OSM   C10S 9636   2.507   1.517  10.174  0.1387 -0.1673 -0.3410
   97OSM   H10S 9637   2.615   1.542  10.171 -0.2365  1.4797 -0.9758
   97OSM   H10T 9638   2.448   1.606  10.204 -0.6167  0.1925 -2.8060
   97OSM   C11S 9639   2.450   1.492  10.034  0.4786  0.3565 -0.0349
   97OSM   H11S 9640   2.345   1.529  10.028 -0.2153 -1.5509 -0.2885
   97OSM   H11T 9641   2.443   1.382  10.016 -2.1557  0.2105  1.5824
   97OSM   C12S 9642   2.529   1.559   9.922 -0.1978  0.6942  0.0674
   97OSM   H12S 9643   2.633   1.531   9.949  0.3857  2.0322 -0.7390
   97OSM   H12T 9644   2.526   1.669   9.936  0.9947  0.7634 -0.1407
   97OSM   C13S 9645   2.491   1.521   9.778  0.1576  0.6194  0.6418
   97OSM   H13S 9646   2.558   1.572   9.706  3.3239 -2.6477  1.1127
   97OSM   H13T 9647   2.387   1.557   9.765  0.0316  0.1589  0.3352
   97OSM   C14S 9648   2.488   1.373   9.744  0.3660  0.2990  0.4364
   97OSM   H14S 9649   2.410   1.318   9.801  1.1619 -2.1526 -0.7840
   97OSM   H14T 9650   2.583   1.324   9.773 -0.5528 -1.0413  1.2554
   97OSM   C15S 9651   2.467   1.344   9.591 -0.3572  0.0332 -0.4172
   97OSM   H15S 9652   2.483   1.236   9.571  0.4963 -0.0960  0.9640
   97OSM   H15T 9653   2.549   1.407   9.551 -0.5046  0.5960  0.1656
   97OSM   C16S 9654   2.333   1.392   9.547  0.0897  0.3479  0.4097
   97OSM   H16S 9655   2.306   1.490   9.591 -2.5533  0.4588 -1.3446
   97OSM   H16T 9656   2.257   1.316   9.576 -0.4068 -0.0468 -1.7948
   97OSM   C17S 9657   2.329   1.392   9.390 -0.0308  0.1298  0.4499
   97OSM   H17S 9658   2.228   1.392   9.345  1.7811 -0.2752 -3.8925
   97OSM   H17T 9659   2.382   1.300   9.359 -2.2542 -0.8696 -0.4332
   97OSM   C18S 9660   2.396   1.521   9.333 -0.0514  0.0812  0.4752
   97OSM   H18S 9661   2.506   1.506   9.339  0.0115 -0.2913 -1.5445
   97OSM   H18T 9662   2.365   1.602   9.403  0.1999  0.8451 -0.2912
   97OSM   H18U 9663   2.358   1.548   9.233  1.2932 -1.5415 -0.5066
   97OSM    C1F 9664   2.309   1.854  10.528  0.5095 -0.5460 -0.1014
   97OSM     OF 9665   2.373   1.953  10.545 -0.6060 -0.7018 -0.1684
   97OSM    C2F 9666   2.227   1.835  10.402 -0.2822  0.3257 -0.0034
   97OSM    H2F 9667   2.128   1.805  10.444 -0.5493  0.1490 -0.7566
   97OSM    H2G 9668   2.275   1.759  10.337  0.7856  0.3841  0.7160
   97OSM    C3F 9669   2.215   1.958  10.307 -0.1074  0.7873 -0.1944
   97OSM    H3F 9670   2.312   1.998  10.271 -0.4051  2.1311  0.4718
   97OSM    H3G 9671   2.181   2.044  10.369 -0.3327 -1.3058  2.6766
   97OSM    C4F 9672   2.128   1.940  10.185  0.0023 -0.0823 -0.9217
   97OSM    H4F 9673   2.102   2.044  10.157 -1.4480  0.4249  2.1669
   97OSM    H4G 9674   2.030   1.897  10.215  0.5586 -0.2358  0.7295
   97OSM    C5F 9675   2.209   1.873  10.075  0.6077 -0.1331 -0.0091
   97OSM    H5F 9676   2.216   1.765  10.096 -2.4419 -0.5024 -0.6200
   97OSM    H5G 9677   2.317   1.901  10.072  0.8642 -0.7039  2.7736
   97OSM    C6F 9678   2.155   1.891   9.932  0.1326  0.4372 -0.6886
   97OSM    H6F 9679   2.172   1.997   9.903  3.8043  0.1328  0.1212
   97OSM    H6G 9680   2.045   1.877   9.935  0.3827 -1.7476 -0.7179
   97OSM    C7F 9681   2.225   1.809   9.819  0.3402 -0.3795  0.2029
   97OSM    H7F 9682   2.239   1.701   9.844 -0.8714 -0.6029 -0.0514
   97OSM    H7G 9683   2.324   1.856   9.805 -1.1813  3.0718  0.6098
   97OSM    C8F 9684   2.156   1.798   9.683 -0.2404 -0.4062  0.5676
   97OSM    H8F 9685   2.062   1.745   9.707 -0.1851 -0.1704  1.3404
   97OSM    H8G 9686   2.220   1.735   9.618 -0.9494 -1.6673  1.0822
   97OSM    C9F 9687   2.118   1.931   9.622 -0.6234  0.5655  0.0603
   97OSM    H9F 9688   2.174   2.019   9.657  0.4274 -1.0872  2.6862
   97OSM   C10F 9689   2.020   1.952   9.530  0.0833  0.3409  0.2765
   97OSM   H10F 9690   1.995   2.054   9.498 -1.8033  0.7303  2.7613
   97OSM   C11F 9691   1.928   1.850   9.461 -0.4969  0.0067  0.1072
   97OSM   H11F 9692   1.825   1.892   9.460 -0.8596 -0.8841 -0.2904
   97OSM   H11G 9693   1.933   1.751   9.511  0.7348  0.0515  0.0743
   97OSM   C12F 9694   1.979   1.822   9.321 -0.4563  0.4573  0.0659
   97OSM   H12F 9695   1.907   1.750   9.277  0.3461  0.0204 -0.5469
   97OSM   H12G 9696   2.080   1.777   9.313 -0.7904 -0.7889  2.4053
   97OSM   C13F 9697   1.973   1.942   9.230  0.1406 -0.0028 -0.2398
   97OSM   H13F 9698   2.031   2.023   9.280 -0.3819 -1.4220  2.7890
   97OSM   H13G 9699   1.868   1.976   9.219  0.1279 -0.1232 -0.4880
   97OSM   C14F 9700   2.038   1.907   9.087  0.6646  0.3252 -0.8758
   97OSM   H14F 9701   2.145   1.877   9.097  0.2021 -1.0491  0.2214
   97OSM   H14G 9702   2.055   2.005   9.038  0.4881  0.2334 -1.1252
   97OSM   C15F 9703   1.942   1.808   9.014 -0.4073  0.2561 -0.3110
   97OSM   H15F 9704   1.834   1.830   9.027 -0.2682  0.3755  0.6707
   97OSM   H15G 9705   1.948   1.710   9.064 -0.1019  0.4102 -0.0445
   97OSM   C16F 9706   1.965   1.791   8.865  0.6056  0.4010  0.8072
   97OSM   H16F 9707   2.039   1.710   8.846 -0.0922 -0.7282  2.7497
   97OSM   H16G 9708   2.012   1.885   8.831 -0.4634  0.7599  0.2903
   97OSM   C17F 9709   1.824   1.766   8.800  0.6692  0.6887 -0.0578
   97OSM   H17F 9710   1.765   1.857   8.824  1.8352  0.6392  3.2030
   97OSM   H17G 9711   1.763   1.687   8.847  0.0667  1.0806 -0.1759
   97OSM   C18F 9712   1.821   1.739   8.649  0.0579  0.3292 -0.8316
   97OSM   H18F 9713   1.899   1.803   8.602  0.5321 -0.7378 -1.5115
   97OSM   H18G 9714   1.721   1.754   8.604  0.5993  2.4772 -1.3936
   97OSM   H18H 9715   1.856   1.635   8.635  2.1076  1.0955 -1.6415
   98OSM      N 9716   1.540   1.387  11.344 -0.4825  0.2512  0.6095
   98OSM    C15 9717   1.565   1.491  11.449 -0.6441  0.1115  0.0938
   98OSM   H15A 9718   1.571   1.446  11.547 -0.4908  0.1983  0.1248
   98OSM   H15B 9719   1.495   1.572  11.438 -1.7959 -0.8030  0.5593
   98OSM   H15C 9720   1.665   1.530  11.431 -0.3197 -0.1552  1.3128
   98OSM    C14 9721   1.646   1.284  11.358 -0.2331 -0.6871 -0.2629
   98OSM   H14A 9722   1.631   1.239  11.455  0.8061 -2.6411 -0.9801
   98OSM   H14B 9723   1.747   1.323  11.363 -1.0370  1.2936  1.1477
   98OSM   H14C 9724   1.637   1.213  11.277  0.8896 -1.3262  0.1475
   98OSM    C13 9725   1.401   1.332  11.345 -0.2242  0.2820 -0.1762
   98OSM   H13A 9726   1.363   1.339  11.446 -3.3941 -0.9339 -1.2328
   98OSM   H13B 9727   1.393   1.228  11.316  0.6829 -0.5392  2.3521
   98OSM   H13C 9728   1.332   1.379  11.277  1.1868  0.0982 -1.7667
   98OSM    C12 9729   1.560   1.444  11.202  0.3739  0.0395 -0.3272
   98OSM   H12A 9730   1.664   1.470  11.200  0.7048 -1.2090  0.0766
   98OSM   H12B 9731   1.508   1.538  11.189  0.5174  0.1777  0.0899
   98OSM    C11 9732   1.532   1.359  11.070  0.0522 -0.7742  0.3601
   98OSM   H11A 9733   1.560   1.419  10.981  1.7600  0.4136  1.6790
   98OSM   H11B 9734   1.423   1.340  11.064  0.1050 -0.9045 -0.2878
   98OSM      P 9735   1.752   1.230  11.011  0.0079  0.0098  0.0311
   98OSM    O13 9736   1.822   1.358  11.048  0.0341 -0.1468 -0.1548
   98OSM    O14 9737   1.818   1.106  11.063  0.6903  0.3037 -0.6781
   98OSM    O11 9738   1.718   1.227  10.857  0.5227  0.1342 -0.5184
   98OSM    O12 9739   1.606   1.238  11.074  0.1228 -0.0246  0.2478
   98OSM    C1S 9740   1.621   1.165  10.781 -0.7564  0.1698  0.0475
   98OSM    H1S 9741   1.548   1.247  10.770 -0.3779  0.2450 -2.4048
   98OSM    H1T 9742   1.574   1.078  10.831 -0.1966 -0.5494 -0.6594
   98OSM     NF 9743   1.576   1.128  10.547 -0.0805  0.2249  0.0191
   98OSM    HNF 9744   1.549   1.036  10.521 -0.7790  0.2853  0.5216
   98OSM    C2S 9745   1.684   1.130  10.644  0.4973 -0.2378  0.1677
   98OSM    H2S 9746   1.753   1.215  10.625  1.3325 -0.9449 -0.0001
   98OSM    C3S 9747   1.769   0.999  10.652  0.3491 -0.1219 -0.1189
   98OSM    H3S 9748   1.706   0.911  10.677 -0.0639  0.8022  2.2929
   98OSM     O3 9749   1.872   1.012  10.752  0.3494 -0.3591  0.4043
   98OSM    HO3 9750   1.867   1.104  10.778 -1.3136 -0.9288  2.2039
   98OSM    C4S 9751   1.830   0.994  10.512  0.3672 -0.5580  0.5540
   98OSM    H4S 9752   1.754   1.013  10.435  3.8602  0.9774 -2.7089
   98OSM    C5S 9753   1.960   0.998  10.471  0.0744 -0.3575  0.2769
   98OSM    H5S 9754   2.037   1.009  10.549  1.5424 -2.0492 -0.8797
   98OSM    C6S 9755   2.002   1.008  10.326 -0.6373  0.6697  0.6261
   98OSM    H6S 9756   2.082   0.934  10.300  0.3548  1.0740  2.4360
   98OSM    H6T 9757   2.048   1.107  10.308  1.1190  0.1639  2.1314
   98OSM    C7S 9758   1.887   0.986  10.224 -1.3446 -0.7214  0.3133
   98OSM    H7S 9759   1.818   1.071  10.236  2.0070  2.1696 -0.2022
   98OSM    H7T 9760   1.824   0.899  10.254 -0.8774 -0.6359  1.5992
   98OSM    C8S 9761   1.952   0.986  10.087  0.1302 -0.6925  0.3514
   98OSM    H8S 9762   2.029   0.905  10.088  0.2475 -0.5905  3.9316
   98OSM    H8T 9763   2.004   1.082  10.065 -0.2372 -0.7511 -0.8276
   98OSM    C9S 9764   1.870   0.967   9.961 -0.2439  0.2890 -0.3388
   98OSM    H9S 9765   1.781   1.033   9.972  0.7583  1.7468 -0.8848
   98OSM    H9T 9766   1.838   0.860   9.962  0.2327  0.0405 -4.0336
   98OSM   C10S 9767   1.952   0.985   9.835  0.0209  0.0353  0.0545
   98OSM   H10S 9768   2.040   0.920   9.853 -1.3081 -1.7466  0.3097
   98OSM   H10T 9769   1.995   1.087   9.825  3.3732 -1.4765 -1.6877
   98OSM   C11S 9770   1.882   0.946   9.711  0.2981 -0.2124 -0.2468
   98OSM   H11S 9771   1.785   0.995   9.692  1.0222  1.5065  0.3501
   98OSM   H11T 9772   1.851   0.840   9.726 -0.2717 -0.0520 -0.3023
   98OSM   C12S 9773   1.966   0.955   9.581 -0.5210 -0.4630 -0.4292
   98OSM   H12S 9774   2.056   0.890   9.578 -2.0663 -2.6243 -0.5942
   98OSM   H12T 9775   1.995   1.062   9.566 -0.3689 -0.0768  2.3798
   98OSM   C13S 9776   1.883   0.897   9.456  0.2167 -0.6054 -0.3318
   98OSM   H13S 9777   1.794   0.963   9.454  3.1336  3.5670  0.4356
   98OSM   H13T 9778   1.856   0.794   9.489  1.8361 -0.9784 -0.0774
   98OSM   C14S 9779   1.956   0.911   9.325  0.2364  0.2149  0.3111
   98OSM   H14S 9780   2.051   0.853   9.328 -0.2945 -0.7487 -0.8805
   98OSM   H14T 9781   1.983   1.017   9.307  1.7974 -0.3263 -0.6460
   98OSM   C15S 9782   1.879   0.879   9.202  0.1077 -0.1127  0.0451
   98OSM   H15S 9783   1.794   0.948   9.184  1.5815  1.8360  0.4310
   98OSM   H15T 9784   1.847   0.773   9.214 -0.0376 -0.2215 -1.2626
   98OSM   C16S 9785   1.968   0.885   9.076  0.3158  0.3105 -0.7905
   98OSM   H16S 9786   2.044   0.805   9.089  0.5621  0.7850  0.7405
   98OSM   H16T 9787   2.028   0.978   9.080  0.6778  0.0249  0.8499
   98OSM   C17S 9788   1.915   0.881   8.926 -0.0321 -0.0416 -0.5956
   98OSM   H17S 9789   2.001   0.872   8.856  1.9864  0.2947  1.7471
   98OSM   H17T 9790   1.863   0.977   8.907 -2.0489 -1.0646 -0.3606
   98OSM   C18S 9791   1.817   0.769   8.895 -0.2351 -0.2598 -0.1692
   98OSM   H18S 9792   1.845   0.682   8.958  0.5324 -1.3541 -1.9762
   98OSM   H18T 9793   1.819   0.738   8.788  1.2844 -0.0179 -0.2256
   98OSM   H18U 9794   1.715   0.802   8.921  0.7642  2.1428  0.8524
   98OSM    C1F 9795   1.518   1.236  10.499  0.7928 -0.0568  0.4935
   98OSM     OF 9796   1.547   1.346  10.545 -0.4451  0.5355 -0.3397
   98OSM    C2F 9797   1.441   1.211  10.370  0.0729  0.5660  0.0432
   98OSM    H2F 9798   1.381   1.301  10.346  0.8592  1.1151  0.1163
   98OSM    H2G 9799   1.368   1.132  10.399 -0.5670  1.6868  1.5485
   98OSM    C3F 9800   1.525   1.167  10.244 -0.2753  0.1318  0.0060
   98OSM    H3F 9801   1.562   1.063  10.255  0.4383  0.3123 -0.6133
   98OSM    H3G 9802   1.622   1.221  10.245 -0.2386  0.0577  0.3854
   98OSM    C4F 9803   1.450   1.182  10.114  0.0457  0.2263  0.3935
   98OSM    H4F 9804   1.454   1.290  10.088  4.4136  0.0016 -0.1779
   98OSM    H4G 9805   1.341   1.159  10.111  0.3382 -1.0715 -1.4162
   98OSM    C5F 9806   1.522   1.106   9.998  0.2753 -0.0908 -0.0767
   98OSM    H5F 9807   1.542   0.997  10.011  0.7167 -0.1273 -0.9922
   98OSM    H5G 9808   1.623   1.151   9.986  1.2559 -1.8933  1.1042
   98OSM    C6F 9809   1.454   1.139   9.860  0.4491 -0.1571  0.5392
   98OSM    H6F 9810   1.427   1.246   9.863  0.0948 -0.2211 -0.2531
   98OSM    H6G 9811   1.366   1.070   9.867  2.6943 -3.0711  1.1942
   98OSM    C7F 9812   1.527   1.106   9.729 -0.0989 -0.4858  0.2831
   98OSM    H7F 9813   1.552   0.998   9.734  1.5715 -0.2035 -1.5405
   98OSM    H7G 9814   1.625   1.157   9.728 -0.3058 -0.0896  0.3539
   98OSM    C8F 9815   1.455   1.137   9.600 -0.2130  0.6537 -0.5454
   98OSM    H8F 9816   1.402   1.234   9.593  2.0188  2.0179  0.6720
   98OSM    H8G 9817   1.368   1.068   9.599  1.1534 -1.1194  0.7402
   98OSM    C9F 9818   1.535   1.099   9.479  0.3928 -0.5651  0.1631
   98OSM    H9F 9819   1.568   0.994   9.484 -0.9297 -0.9148  2.1176
   98OSM   C10F 9820   1.573   1.169   9.367  0.3837 -0.7614  0.1836
   98OSM   H10F 9821   1.628   1.114   9.289  1.0597 -1.0566  0.8527
   98OSM   C11F 9822   1.546   1.318   9.341 -0.3074  0.5904  0.5577
   98OSM   H11F 9823   1.640   1.375   9.356 -0.2702  0.6798 -0.0138
   98OSM   H11G 9824   1.479   1.350   9.423 -1.8483 -0.1507 -0.3894
   98OSM   C12F 9825   1.490   1.357   9.204  0.1304  0.0564 -0.2920
   98OSM   H12F 9826   1.471   1.466   9.203 -0.2664  0.0088  0.8529
   98OSM   H12G 9827   1.396   1.299   9.191  1.0758 -1.7835  0.7328
   98OSM   C13F 9828   1.582   1.328   9.083  0.0115 -0.0349 -0.0906
   98OSM   H13F 9829   1.609   1.220   9.079  0.1115 -0.0852  1.5359
   98OSM   H13G 9830   1.685   1.362   9.109  0.0234 -0.8767  1.0368
   98OSM   C14F 9831   1.537   1.375   8.941 -0.2926  0.9358  0.0533
   98OSM   H14F 9832   1.527   1.486   8.948  0.7775  1.1532 -1.5442
   98OSM   H14G 9833   1.443   1.318   8.926  1.1672 -1.4320 -0.2923
   98OSM   C15F 9834   1.642   1.359   8.829  0.2800  0.0634 -0.1671
   98OSM   H15F 9835   1.652   1.249   8.816  0.0512  0.2706 -2.2259
   98OSM   H15G 9836   1.732   1.411   8.867  0.5640  0.3893 -1.2616
   98OSM   C16F 9837   1.589   1.408   8.697  0.0808  0.1396  0.3353
   98OSM   H16F 9838   1.605   1.518   8.701 -2.6707  0.6592 -1.6792
   98OSM   H16G 9839   1.481   1.385   8.693  0.2266 -0.5485  0.3744
   98OSM   C17F 9840   1.672   1.345   8.576 -0.3035  0.3827  0.4587
   98OSM   H17F 9841   1.656   1.237   8.597  0.1969  0.1117 -0.5285
   98OSM   H17G 9842   1.779   1.370   8.591 -0.2336 -0.3923  1.3120
   98OSM   C18F 9843   1.640   1.384   8.431 -0.4824 -0.2156 -0.6120
   98OSM   H18F 9844   1.541   1.348   8.395  0.1672 -1.9043 -0.7717
   98OSM   H18G 9845   1.710   1.334   8.361  0.0700  2.2687 -1.8842
   98OSM   H18H 9846   1.646   1.494   8.419  1.7230 -0.3162 -0.6318
   99OSM      N 9847   4.433   2.501  11.014 -0.4785 -0.1562 -0.1390
   99OSM    C15 9848   4.554   2.429  11.052  0.1802 -0.5370 -0.4609
   99OSM   H15A 9849   4.626   2.491  11.105  0.1155 -1.5604  0.8543
   99OSM   H15B 9850   4.599   2.402  10.958  0.1143 -0.5846 -0.4788
   99OSM   H15C 9851   4.516   2.344  11.107  0.7104 -0.9098 -0.6719
   99OSM    C14 9852   4.376   2.563  11.136  0.8747 -0.0594  0.2003
   99OSM   H14A 9853   4.443   2.637  11.178  0.9868  0.2287 -0.4841
   99OSM   H14B 9854   4.345   2.489  11.209  0.4410 -2.1515 -2.0569
   99OSM   H14C 9855   4.289   2.623  11.115  2.1953  0.9652 -2.4756
   99OSM    C13 9856   4.464   2.605  10.905  0.1897  0.0903 -0.1373
   99OSM   H13A 9857   4.511   2.573  10.813  1.4640  0.8726  0.2275
   99OSM   H13B 9858   4.521   2.687  10.947 -0.5626  0.8919 -0.6612
   99OSM   H13C 9859   4.372   2.656  10.882 -0.2479 -0.3689  0.5921
   99OSM    C12 9860   4.330   2.406  10.957 -0.3378  0.1863 -0.1337
   99OSM   H12A 9861   4.370   2.377  10.861  1.5677 -1.3080  1.0638
   99OSM   H12B 9862   4.233   2.444  10.931 -1.0470 -1.2013  0.4360
   99OSM    C11 9863   4.302   2.274  11.039 -0.0243 -0.0878 -0.1777
   99OSM   H11A 9864   4.294   2.298  11.147 -0.7754  4.5214 -1.1873
   99OSM   H11B 9865   4.392   2.210  11.028  0.4218  0.5949 -0.5049
   99OSM      P 9866   4.050   2.273  11.035  0.1381  0.3248 -0.2159
   99OSM    O13 9867   4.020   2.218  11.165 -0.0554  0.2327  0.0782
   99OSM    O14 9868   4.053   2.419  11.017  0.2556 -0.2776 -0.1051
   99OSM    O11 9869   3.943   2.217  10.943 -0.0963 -0.3261  0.0544
   99OSM    O12 9870   4.183   2.208  10.985  0.4238  0.3761  0.0698
   99OSM    C1S 9871   3.889   2.279  10.826  0.4009 -0.1470  0.3659
   99OSM    H1S 9872   3.938   2.378  10.816  1.3156 -0.7232 -0.9940
   99OSM    H1T 9873   3.781   2.302  10.835  0.5291  0.0764  1.4863
   99OSM     NF 9874   3.860   2.269  10.575  0.5656  0.2502  0.3646
   99OSM    HNF 9875   3.782   2.224  10.532 -0.4711 -0.0797  2.4860
   99OSM    C2S 9876   3.916   2.201  10.692  1.2283 -0.2176 -0.0691
   99OSM    H2S 9877   4.026   2.187  10.683  1.4069  1.4902 -0.8362
   99OSM    C3S 9878   3.852   2.057  10.695 -0.3724 -0.3510 -0.1874
   99OSM    H3S 9879   3.741   2.058  10.692 -0.4291  1.1475  1.4345
   99OSM     O3 9880   3.889   1.981  10.811 -0.4076  0.4794 -0.0775
   99OSM    HO3 9881   3.928   2.047  10.869 -1.1797  1.0751 -0.2301
   99OSM    C4S 9882   3.890   1.975  10.571  0.5761  0.0970  0.1237
   99OSM    H4S 9883   3.994   1.976  10.535  0.2100 -0.6836 -0.9851
   99OSM    C5S 9884   3.805   1.890  10.505  0.0839 -0.0888 -0.0966
   99OSM    H5S 9885   3.698   1.890  10.528 -0.2248 -0.7768 -1.4895
   99OSM    C6S 9886   3.843   1.802  10.381  0.3572 -0.3165  0.0726
   99OSM    H6S 9887   3.790   1.840  10.291  1.4528 -2.1510 -1.3627
   99OSM    H6T 9888   3.805   1.700  10.401 -2.2149  0.2544 -1.6332
   99OSM    C7S 9889   3.992   1.776  10.351  0.2754  0.3507 -0.1814
   99OSM    H7S 9890   4.029   1.723  10.441 -1.9052  1.1131  1.2200
   99OSM    H7T 9891   4.046   1.871  10.334 -0.0595  0.2030 -2.2131
   99OSM    C8S 9892   4.008   1.690  10.218  0.2384 -0.0177 -0.0777
   99OSM    H8S 9893   4.116   1.679  10.193  1.0741  1.0394  2.8577
   99OSM    H8T 9894   3.965   1.739  10.128  2.6525  0.1017 -1.1996
   99OSM    C9S 9895   3.949   1.547  10.244 -0.5515  0.3868  0.2236
   99OSM    H9S 9896   3.848   1.535  10.199  1.0961 -0.7515 -3.4256
   99OSM    H9T 9897   3.943   1.528  10.353  2.2743 -0.5679  0.2548
   99OSM   C10S 9898   4.030   1.441  10.178  0.5324 -0.1058 -0.3250
   99OSM   H10S 9899   3.995   1.337  10.201 -0.1993  0.5210  1.5100
   99OSM   H10T 9900   4.130   1.457  10.224  0.6813  1.2092 -1.1112
   99OSM   C11S 9901   4.060   1.454  10.027  0.5690 -0.1204  0.2268
   99OSM   H11S 9902   4.063   1.562  10.000  0.7503 -0.2258 -0.1814
   99OSM   H11T 9903   3.966   1.427   9.974 -0.7654  0.8757  2.0166
   99OSM   C12S 9904   4.191   1.389   9.974  0.5595 -0.0098  0.4163
   99OSM   H12S 9905   4.267   1.447  10.031 -0.5505  0.7334  1.1704
   99OSM   H12T 9906   4.179   1.285  10.013  0.5891 -0.7354 -1.4662
   99OSM   C13S 9907   4.212   1.385   9.822  0.4187 -0.4036  0.2697
   99OSM   H13S 9908   4.144   1.312   9.775  1.2797  1.2069 -3.7175
   99OSM   H13T 9909   4.309   1.337   9.796  1.9050  0.3380  4.1333
   99OSM   C14S 9910   4.175   1.513   9.741  0.2027 -1.0328 -1.0998
   99OSM   H14S 9911   4.245   1.595   9.767 -0.3920 -1.7086  3.0704
   99OSM   H14T 9912   4.075   1.542   9.781  0.9233 -2.7761  2.1260
   99OSM   C15S 9913   4.174   1.504   9.591  0.0954 -0.7926 -0.0985
   99OSM   H15S 9914   4.127   1.406   9.567  0.1291 -0.2660 -2.3700
   99OSM   H15T 9915   4.279   1.492   9.556  1.1269 -2.0327  3.1754
   99OSM   C16S 9916   4.098   1.610   9.524  0.5345  0.4069  0.2858
   99OSM   H16S 9917   4.169   1.695   9.528  0.4821  0.5734 -1.5917
   99OSM   H16T 9918   3.998   1.634   9.567 -0.4445 -1.2913 -0.9578
   99OSM   C17S 9919   4.073   1.585   9.376  0.6144  0.8043 -0.6508
   99OSM   H17S 9920   4.002   1.664   9.344 -2.2515  0.6683  4.8760
   99OSM   H17T 9921   4.029   1.484   9.366  0.8249  0.3901  2.2236
   99OSM   C18S 9922   4.200   1.581   9.293  0.8318 -0.2851 -0.2180
   99OSM   H18S 9923   4.182   1.590   9.184  0.3467  0.0931 -0.1093
   99OSM   H18T 9924   4.266   1.494   9.313  0.4163 -0.5801 -0.1098
   99OSM   H18U 9925   4.265   1.667   9.323 -0.6733  0.9416 -0.4113
   99OSM    C1F 9926   3.916   2.380  10.531  0.0960  0.4292 -0.1187
   99OSM     OF 9927   4.000   2.436  10.601  0.5070  0.0797  0.3214
   99OSM    C2F 9928   3.889   2.424  10.388 -0.5819  0.2971 -0.2488
   99OSM    H2F 9929   3.801   2.367  10.351 -0.0435 -0.0543 -1.0101
   99OSM    H2G 9930   3.980   2.404  10.328 -1.3096 -0.0766 -1.2483
   99OSM    C3F 9931   3.866   2.575  10.358 -0.3570  0.3261  0.5146
   99OSM    H3F 9932   3.796   2.626  10.427  0.9861  1.7670  0.8480
   99OSM    H3G 9933   3.968   2.618  10.371 -0.4651  1.1256 -1.0629
   99OSM    C4F 9934   3.833   2.592  10.204  0.1176  0.5000  0.0557
   99OSM    H4F 9935   3.732   2.555  10.176  1.2885 -1.5249 -1.7120
   99OSM    H4G 9936   3.905   2.528  10.148  1.2844  1.4467  0.4480
   99OSM    C5F 9937   3.861   2.733  10.165  0.2839  0.0804  0.6039
   99OSM    H5F 9938   3.966   2.765  10.183  0.1042  0.5592  0.8076
   99OSM    H5G 9939   3.796   2.810  10.211  0.8990  2.7587 -2.7413
   99OSM    C6F 9940   3.836   2.743  10.010  0.2384  0.1624 -0.1878
   99OSM    H6F 9941   3.733   2.714   9.981  0.3799  0.0867 -0.6169
   99OSM    H6G 9942   3.906   2.676   9.955  1.2930  2.0209 -1.1396
   99OSM    C7F 9943   3.838   2.888   9.966 -0.5385 -0.1703  0.1070
   99OSM    H7F 9944   3.944   2.922   9.968 -0.7455  0.5057 -0.1723
   99OSM    H7G 9945   3.787   2.950  10.043 -0.5198  0.8980 -0.7190
   99OSM    C8F 9946   3.777   2.912   9.820  0.5275  0.1093  0.4347
   99OSM    H8F 9947   3.803   3.014   9.784 -2.4398  0.7800  0.0630
   99OSM    H8G 9948   3.667   2.915   9.831  0.6033  1.6423  0.9117
   99OSM    C9F 9949   3.816   2.800   9.724 -0.4651 -0.2564  0.7063
   99OSM    H9F 9950   3.918   2.763   9.738 -0.1804 -0.3380 -1.4849
   99OSM   C10F 9951   3.740   2.758   9.620 -0.6763 -0.0230 -0.3236
   99OSM   H10F 9952   3.775   2.668   9.568 -0.0140 -1.2264  2.1213
   99OSM   C11F 9953   3.599   2.805   9.590  0.1823 -0.5331  0.5948
   99OSM   H11F 9954   3.586   2.901   9.646  1.3392 -1.4076  2.3980
   99OSM   H11G 9955   3.525   2.734   9.633 -0.2525 -0.8425 -0.6444
   99OSM   C12F 9956   3.570   2.814   9.440 -0.7121  0.3373 -0.1234
   99OSM   H12F 9957   3.566   2.713   9.395 -0.4490 -0.5542  1.8242
   99OSM   H12G 9958   3.652   2.858   9.379 -2.6168  0.7771 -2.4315
   99OSM   C13F 9959   3.449   2.903   9.417  0.1389  0.2447  0.1558
   99OSM   H13F 9960   3.432   2.979   9.496  4.1215  1.6829 -0.2532
   99OSM   H13G 9961   3.354   2.846   9.426  0.3860 -0.2789 -0.5106
   99OSM   C14F 9962   3.473   2.981   9.289  0.0588  0.1511 -0.8179
   99OSM   H14F 9963   3.562   3.046   9.286 -1.0304  1.8039  1.1620
   99OSM   H14G 9964   3.393   3.056   9.269 -0.2245  0.4763  1.3988
   99OSM   C15F 9965   3.460   2.888   9.169 -0.0883  0.2075  0.2421
   99OSM   H15F 9966   3.359   2.841   9.169 -0.1662  0.3742 -0.8447
   99OSM   H15G 9967   3.531   2.803   9.161 -1.3747 -0.7272 -1.5106
   99OSM   C16F 9968   3.483   2.969   9.041 -0.5221  0.5091  0.0443
   99OSM   H16F 9969   3.570   3.037   9.055 -1.4812  1.3274  2.1548
   99OSM   H16G 9970   3.402   3.044   9.026  0.2420  1.3315 -0.0125
   99OSM   C17F 9971   3.496   2.883   8.915 -0.7723 -0.4235  0.5028
   99OSM   H17F 9972   3.529   2.953   8.835 -1.2868 -0.0571  0.6049
   99OSM   H17G 9973   3.396   2.843   8.887 -1.8406  2.0347  0.6973
   99OSM   C18F 9974   3.598   2.770   8.927  0.0142  0.0694 -0.8904
   99OSM   H18F 9975   3.691   2.800   8.981 -1.8726  3.0656  0.8258
   99OSM   H18G 9976   3.611   2.717   8.830  4.0149 -0.9422  0.0917
   99OSM   H18H 9977   3.559   2.692   8.995 -1.9120  0.0717 -1.9523
  100OSM      N 9978   5.958   2.248  11.006 -0.6172  0.5766 -0.5962
  100OSM    C15 9979   6.013   2.276  10.873  0.4269 -0.9470  0.5379
  100OSM   H15A 9980   6.118   2.303  10.881  0.1355  0.5155 -0.2968
  100OSM   H15B 9981   5.964   2.355  10.818  0.6756 -0.5333  0.9114
  100OSM   H15C 9982   6.010   2.184  10.816 -0.6349 -0.1228 -0.7612
  100OSM    C14 9983   6.013   2.121  11.052  0.3820  0.2816 -0.7548
  100OSM   H14A 9984   6.119   2.119  11.076 -0.0931  0.5293  1.5116
  100OSM   H14B 9985   6.004   2.040  10.981 -2.3979 -0.6721  0.6323
  100OSM   H14C 9986   5.962   2.086  11.141 -0.8101  1.3988 -0.9874
  100OSM    C13 9987   5.991   2.358  11.100 -0.1611  1.1880 -0.2206
  100OSM   H13A 9988   5.947   2.451  11.067 -0.9283  1.1761  0.7479
  100OSM   H13B 9989   6.098   2.373  11.099  0.3111 -1.3733  3.1064
  100OSM   H13C 9990   5.957   2.337  11.200 -0.9406  0.3360 -0.6557
  100OSM    C12 9991   5.804   2.247  11.001 -0.2449 -0.1740 -0.4365
  100OSM   H12A 9992   5.767   2.344  10.975  1.1691 -0.0156 -1.9310
  100OSM   H12B 9993   5.777   2.230  11.104  2.2227  3.4933  0.9153
  100OSM    C11 9994   5.742   2.138  10.910 -0.5918  0.9732 -0.0138
  100OSM   H11A 9995   5.640   2.130  10.952  0.2411 -1.4414  1.6000
  100OSM   H11B 9996   5.792   2.039  10.920 -1.7297 -0.1824 -4.4072
  100OSM      P 9997   5.644   2.276  10.712 -0.1599 -0.1427  0.1883
  100OSM    O13 9998   5.533   2.192  10.662 -0.1973 -0.2619 -0.0478
  100OSM    O14 9999   5.600   2.383  10.803  0.6842  0.0664 -0.4765
  100OSM    O1110000   5.717   2.354  10.591  0.4431  0.3707 -0.6484
  100OSM    O1210001   5.755   2.180  10.773 -0.1088 -0.1267  0.4972
  100OSM    C1S10002   5.806   2.267  10.523 -0.0408 -0.5366 -0.2180
  100OSM    H1S10003   5.771   2.162  10.514 -2.7287  0.2546  0.3385
  100OSM    H1T10004   5.907   2.285  10.564 -1.0295  3.2298  0.8205
  100OSM     NF10005   5.908   2.213  10.286 -0.5040  0.0919  0.1337
  100OSM    HNF10006   6.001   2.241  10.263 -1.3313  2.3933 -0.4877
  100OSM    C2S10007   5.830   2.311  10.371 -0.0816 -0.5060 -0.5584
  100OSM    H2S10008   5.729   2.327  10.326 -0.0615 -0.3029 -0.5300
  100OSM    C3S10009   5.897   2.448  10.370 -0.3301  0.3370 -0.0208
  100OSM    H3S10010   5.993   2.435  10.423 -0.1965  2.4690  0.3046
  100OSM     O310011   5.824   2.542  10.448 -0.1875  0.2560 -0.2811
  100OSM    HO310012   5.782   2.494  10.521 -0.1169 -2.9977 -2.2853
  100OSM    C4S10013   5.924   2.507  10.235  0.1155  0.2960  0.6561
  100OSM    H4S10014   6.020   2.478  10.189 -0.5882 -1.2877  0.1582
  100OSM    C5S10015   5.833   2.578  10.158 -0.3916  0.8606  0.2992
  100OSM    H5S10016   5.731   2.596  10.197 -1.8229  0.2997 -2.9708
  100OSM    C6S10017   5.868   2.634  10.024  0.0663  0.5223  0.4747
  100OSM    H6S10018   5.976   2.616  10.006  0.1045 -1.6632  2.5667
  100OSM    H6T10019   5.848   2.743  10.033  0.8186  0.8698 -1.8046
  100OSM    C7S10020   5.789   2.573   9.909 -0.5880 -0.4252  0.1233
  100OSM    H7S10021   5.681   2.589   9.930 -0.3228  0.9607  0.4660
  100OSM    H7T10022   5.805   2.463   9.897 -0.0268 -0.3565  0.2151
  100OSM    C8S10023   5.823   2.629   9.773  0.0236 -0.1235  0.0369
  100OSM    H8S10024   5.933   2.622   9.759  0.0090 -0.2844  0.0049
  100OSM    H8T10025   5.799   2.738   9.770  0.2826 -0.1039 -2.2067
  100OSM    C9S10026   5.751   2.561   9.665  0.7539 -0.0394  0.5317
  100OSM    H9S10027   5.772   2.613   9.569 -2.2051 -0.8455 -0.6341
  100OSM    H9T10028   5.640   2.565   9.665  0.7796  0.9336  2.9061
  100OSM   C10S10029   5.780   2.415   9.644  0.9780 -0.1306 -0.6427
  100OSM   H10S10030   5.720   2.358   9.718 -0.5613  2.4012  0.0942
  100OSM   H10T10031   5.887   2.405   9.670  1.1396  2.1845 -0.3203
  100OSM   C11S10032   5.747   2.354   9.501  0.0813  0.3390 -0.1666
  100OSM   H11S10033   5.772   2.247   9.489 -0.7958  0.0875  0.2224
  100OSM   H11T10034   5.809   2.412   9.429  0.6681  1.1539  0.9839
  100OSM   C12S10035   5.604   2.370   9.477 -0.2825 -0.0804  0.5869
  100OSM   H12S10036   5.581   2.478   9.464  1.0216  0.4116  2.1368
  100OSM   H12T10037   5.545   2.338   9.565  0.0889  0.1684  0.9328
  100OSM   C13S10038   5.540   2.302   9.347 -0.5218  0.3819  1.1189
  100OSM   H13S10039   5.584   2.200   9.338 -1.7180  0.1526 -2.9088
  100OSM   H13T10040   5.582   2.363   9.264  3.5455 -1.8700  1.3850
  100OSM   C14S10041   5.388   2.304   9.354 -0.2461 -0.9646  0.1834
  100OSM   H14S10042   5.365   2.404   9.397  2.9009 -1.0652  2.2561
  100OSM   H14T10043   5.356   2.217   9.414  1.8737 -1.6024  0.4299
  100OSM   C15S10044   5.328   2.316   9.213  0.4716  0.5557  0.3594
  100OSM   H15S10045   5.342   2.417   9.169 -2.4853  0.1798 -1.5881
  100OSM   H15T10046   5.217   2.314   9.221  0.4783  1.3785  0.7160
  100OSM   C16S10047   5.366   2.210   9.116  0.6014 -0.4333  0.0961
  100OSM   H16S10048   5.360   2.110   9.164 -1.2718  0.3046  1.4660
  100OSM   H16T10049   5.472   2.226   9.088  0.4008 -1.2019 -1.1525
  100OSM   C17S10050   5.289   2.216   8.984  0.2007 -0.1433 -0.3118
  100OSM   H17S10051   5.197   2.159   9.006 -0.2185  0.8198  0.4685
  100OSM   H17T10052   5.348   2.159   8.908  1.8010  0.2722  0.5905
  100OSM   C18S10053   5.263   2.352   8.918 -0.6999  0.0691 -0.2994
  100OSM   H18S10054   5.351   2.416   8.894  0.2167 -0.6755  0.9894
  100OSM   H18T10055   5.191   2.408   8.981 -0.7423  1.3809 -1.5026
  100OSM   H18U10056   5.209   2.334   8.823 -0.7834 -0.2957 -0.1830
  100OSM    C1F10057   5.866   2.091  10.266  0.1379  0.2164  0.0372
  100OSM     OF10058   5.748   2.067  10.285 -0.1656 -0.0052  0.3255
  100OSM    C2F10059   5.950   1.980  10.212 -0.3536 -0.2270  0.1589
  100OSM    H2F10060   5.893   1.885  10.219  0.6112 -0.9266 -1.3366
  100OSM    H2G10061   6.028   1.957  10.288  1.3683 -1.6947 -1.9881
  100OSM    C3F10062   6.028   1.994  10.082 -0.5707 -0.2937  0.0524
  100OSM    H3F10063   6.091   1.903  10.076  0.7426  0.5758  0.4675
  100OSM    H3G10064   6.105   2.074  10.078 -0.2050 -0.4624  2.8955
  100OSM    C4F10065   5.943   1.985   9.952  0.2930  0.3225 -0.8569
  100OSM    H4F10066   5.860   2.059   9.946  0.1930  0.1911 -1.1030
  100OSM    H4G10067   5.906   1.882   9.936  3.2140 -0.7157 -1.1951
  100OSM    C5F10068   6.047   2.015   9.842  0.0742  0.8671 -0.0403
  100OSM    H5F10069   6.126   1.937   9.837 -0.4206  0.4212 -0.9615
  100OSM    H5G10070   6.107   2.105   9.867 -0.2240  0.8188  0.8436
  100OSM    C6F10071   5.989   2.036   9.703 -0.0236 -0.5273 -0.0743
  100OSM    H6F10072   6.062   2.092   9.641  0.0725 -1.4008 -0.7626
  100OSM    H6G10073   5.895   2.095   9.704  1.1728  1.4505 -1.8040
  100OSM    C7F10074   5.956   1.905   9.634  0.5990  0.2788 -0.0417
  100OSM    H7F10075   5.883   1.845   9.692  1.9793 -0.9474  0.4761
  100OSM    H7G10076   6.053   1.851   9.632  0.0043 -0.7840 -0.3657
  100OSM    C8F10077   5.902   1.930   9.492  0.3955 -0.0860  0.4752
  100OSM    H8F10078   5.821   2.006   9.500  0.7568  0.2851  0.5804
  100OSM    H8G10079   5.847   1.844   9.447  1.3155 -0.2978 -0.2699
  100OSM    C9F10080   6.018   1.966   9.402 -0.4599 -0.1533  0.7825
  100OSM    H9F10081   6.105   1.899   9.392 -0.5317  0.1593 -2.3421
  100OSM   C10F10082   6.013   2.061   9.303  0.0280 -0.0460 -0.3779
  100OSM   H10F10083   6.103   2.082   9.243 -0.5037  2.1229 -0.4594
  100OSM   C11F10084   5.890   2.143   9.255 -0.6249  0.0234  0.2923
  100OSM   H11F10085   5.910   2.249   9.282  1.2289  0.2405 -1.8196
  100OSM   H11G10086   5.797   2.114   9.309 -0.6158 -0.4239  0.0727
  100OSM   C12F10087   5.869   2.134   9.102  0.3495 -0.1946 -0.1671
  100OSM   H12F10088   5.969   2.141   9.054  1.0631 -0.1821  1.3247
  100OSM   H12G10089   5.794   2.202   9.055  0.2450 -0.6004 -0.5999
  100OSM   C13F10090   5.819   1.991   9.066  0.4609 -0.0431 -0.2635
  100OSM   H13F10091   5.723   1.990   9.121  1.5367 -2.1193  1.6515
  100OSM   H13G10092   5.884   1.909   9.103 -0.3091 -0.7040 -0.3817
  100OSM   C14F10093   5.803   1.964   8.916  0.1788  0.5894 -0.1709
  100OSM   H14F10094   5.781   1.857   8.894 -3.2225  1.8019 -3.0356
  100OSM   H14G10095   5.907   1.967   8.876 -0.4917 -0.3415 -2.0728
  100OSM   C15F10096   5.699   2.050   8.849  0.3888 -0.1321  0.1696
  100OSM   H15F10097   5.715   2.159   8.865  0.9749 -0.5395  2.7017
  100OSM   H15G10098   5.599   2.032   8.895 -0.0974  1.2114 -0.3411
  100OSM   C16F10099   5.688   2.041   8.696  0.1642 -0.6606  0.5356
  100OSM   H16F10100   5.639   1.944   8.675 -1.5383  0.2520  0.1879
  100OSM   H16G10101   5.793   2.035   8.660  0.3689 -2.3669  1.3982
  100OSM   C17F10102   5.613   2.148   8.621 -0.5174 -0.7064 -0.0565
  100OSM   H17F10103   5.671   2.242   8.635  0.2971 -1.4482  1.7843
  100OSM   H17G10104   5.514   2.159   8.670 -0.3048 -2.7913  0.8936
  100OSM   C18F10105   5.600   2.126   8.473 -0.0316 -0.2073 -0.3289
  100OSM   H18F10106   5.536   2.036   8.461 -2.6682  1.3939  1.1479
  100OSM   H18G10107   5.688   2.113   8.407  0.2732  1.0900 -0.1779
  100OSM   H18H10108   5.535   2.206   8.430  1.3091  0.9556 -0.2293
  101OSM      N10109   1.630   2.710  10.937  0.2785 -0.1640  0.7745
  101OSM    C1510110   1.576   2.639  11.059  0.1696  0.5575 -0.5731
  101OSM   H15A10111   1.475   2.668  11.082  0.8792  1.2495  1.8002
  101OSM   H15B10112   1.634   2.657  11.149  1.9937 -1.3292 -1.3352
  101OSM   H15C10113   1.553   2.537  11.031 -1.3334  1.0459 -1.1799
  101OSM    C1410114   1.544   2.676  10.821  0.2671  0.3668  0.5833
  101OSM   H14A10115   1.567   2.732  10.732 -0.2723 -1.1358 -0.5300
  101OSM   H14B10116   1.441   2.693  10.848 -0.4020 -2.1863 -0.1784
  101OSM   H14C10117   1.556   2.573  10.790 -1.9905  0.7059 -1.5882
  101OSM    C1310118   1.609   2.857  10.964  0.5665 -0.4036 -0.0950
  101OSM   H13A10119   1.657   2.884  11.057  1.6939 -0.1814 -0.7356
  101OSM   H13B10120   1.502   2.868  10.968  0.2417 -3.0769 -0.6491
  101OSM   H13C10121   1.649   2.912  10.880  0.0276 -0.9002 -0.6775
  101OSM    C1210122   1.781   2.682  10.915  0.1312 -0.1415 -0.1578
  101OSM   H12A10123   1.826   2.763  10.859 -3.0645  1.1887 -0.8703
  101OSM   H12B10124   1.790   2.598  10.848  0.9175 -1.1536  1.1801
  101OSM    C1110125   1.864   2.657  11.044 -0.1118  0.2206 -0.0378
  101OSM   H11A10126   1.817   2.578  11.107  0.3057 -0.9706 -1.1879
  101OSM   H11B10127   1.861   2.750  11.105  0.7932 -1.5038  2.7605
  101OSM      P10128   2.048   2.480  10.993  0.2120 -0.1908 -0.1740
  101OSM    O1310129   2.141   2.455  11.106 -0.2744  0.0690 -0.2045
  101OSM    O1410130   1.946   2.380  10.965  0.4811  0.2203 -0.1812
  101OSM    O1110131   2.128   2.499  10.854 -0.2372 -0.1729  0.0609
  101OSM    O1210132   1.997   2.625  11.006 -0.1177 -0.8792  0.1899
  101OSM    C1S10133   2.150   2.608  10.767  0.1566  0.0741 -0.0250
  101OSM    H1S10134   2.241   2.662  10.800  0.7990  0.7685 -2.7600
  101OSM    H1T10135   2.064   2.678  10.769 -0.9976 -1.3251 -0.1032
  101OSM     NF10136   2.230   2.664  10.535  0.6722  0.0603 -0.1337
  101OSM    HNF10137   2.181   2.690  10.452  2.1987  3.1287 -0.1289
  101OSM    C2S10138   2.179   2.556  10.619  0.2265 -0.0475  0.3781
  101OSM    H2S10139   2.259   2.479  10.625  0.5784  0.3233  0.4237
  101OSM    C3S10140   2.050   2.493  10.569  0.1032 -0.7019  0.8532
  101OSM    H3S10141   1.966   2.566  10.566  0.1782 -0.6638 -1.0599
  101OSM     O310142   1.983   2.398  10.654  0.0964  0.2911 -0.1990
  101OSM    HO310143   2.019   2.418  10.741 -1.4184 -0.5486  0.6432
  101OSM    C4S10144   2.067   2.415  10.444  0.1581 -0.9393 -0.0396
  101OSM    H4S10145   2.115   2.315  10.449 -0.2741 -1.2166 -1.2320
  101OSM    C5S10146   2.011   2.459  10.329  0.1162  0.6280  0.4574
  101OSM    H5S10147   1.962   2.557  10.341  4.6612  3.0213  1.0111
  101OSM    C6S10148   2.016   2.411  10.186 -0.6468  0.0242  0.3010
  101OSM    H6S10149   2.002   2.496  10.116  2.0200 -1.0217 -1.6071
  101OSM    H6T10150   1.938   2.332  10.179  0.3590 -1.2819  3.1809
  101OSM    C7S10151   2.151   2.350  10.145  0.5055  0.3975  0.2440
  101OSM    H7S10152   2.196   2.276  10.216 -0.5716  0.4449  0.9943
  101OSM    H7T10153   2.231   2.426  10.156  0.4998  0.1630  2.1892
  101OSM    C8S10154   2.161   2.286  10.005 -0.3952  0.7585 -0.0474
  101OSM    H8S10155   2.081   2.211   9.988 -1.3166  1.7142  0.0230
  101OSM    H8T10156   2.248   2.217  10.017 -0.6734  0.2274 -1.0785
  101OSM    C9S10157   2.173   2.382   9.886  0.5340 -0.7134  0.1700
  101OSM    H9S10158   2.256   2.452   9.908 -0.9609  0.4210  2.4432
  101OSM    H9T10159   2.080   2.437   9.859  0.6682 -0.6157 -0.0895
  101OSM   C10S10160   2.204   2.298   9.759  0.2506  0.1377  0.0251
  101OSM   H10S10161   2.113   2.237   9.742 -1.5024  2.2587  1.4164
  101OSM   H10T10162   2.277   2.223   9.794  0.6992  2.1671  3.6572
  101OSM   C11S10163   2.240   2.391   9.638 -0.0772 -0.2031  0.4066
  101OSM   H11S10164   2.342   2.429   9.660  0.1907 -1.3500  1.1502
  101OSM   H11T10165   2.178   2.483   9.633  0.4984  0.1278 -1.1797
  101OSM   C12S10166   2.227   2.312   9.504  0.6227 -0.5892  0.3353
  101OSM   H12S10167   2.127   2.264   9.503  0.7977 -0.9654 -1.1888
  101OSM   H12T10168   2.307   2.237   9.519  0.7214 -0.1710  1.9210
  101OSM   C13S10169   2.252   2.392   9.376 -0.0216 -0.4288 -0.3015
  101OSM   H13S10170   2.306   2.484   9.408 -1.2051  0.3607 -0.5243
  101OSM   H13T10171   2.156   2.434   9.338 -0.4484 -1.0072  0.1393
  101OSM   C14S10172   2.319   2.325   9.259  0.6846 -0.4956  0.2153
  101OSM   H14S10173   2.257   2.241   9.220  1.1885 -0.7802  0.0224
  101OSM   H14T10174   2.415   2.285   9.297  0.7116  0.4924  1.2270
  101OSM   C15S10175   2.342   2.427   9.143  0.1087  0.4166  0.2747
  101OSM   H15S10176   2.420   2.381   9.078  0.2449 -0.2061  0.8678
  101OSM   H15T10177   2.377   2.522   9.190  0.3434  0.4326  0.0693
  101OSM   C16S10178   2.216   2.458   9.056  0.4671 -0.5996 -0.3396
  101OSM   H16S10179   2.136   2.503   9.118 -1.2143 -4.1581  0.2229
  101OSM   H16T10180   2.165   2.370   9.011  1.1315 -0.9995 -0.3184
  101OSM   C17S10181   2.257   2.555   8.943  0.5094 -0.7732 -0.2884
  101OSM   H17S10182   2.309   2.489   8.870  0.0079 -1.9526  0.3910
  101OSM   H17T10183   2.331   2.630   8.978 -1.9224  1.4082  0.3095
  101OSM   C18S10184   2.141   2.636   8.886  0.9212  0.1123  0.3332
  101OSM   H18S10185   2.181   2.683   8.793  0.0217  1.9697  0.8696
  101OSM   H18T10186   2.102   2.718   8.951 -3.3274 -1.1430 -0.4878
  101OSM   H18U10187   2.055   2.572   8.859  0.9383 -0.0611  0.6818
  101OSM    C1F10188   2.351   2.711  10.550  0.1719 -0.0967 -0.0741
  101OSM     OF10189   2.427   2.679  10.641 -0.5055  0.4902  0.5964
  101OSM    C2F10190   2.406   2.793  10.448  0.4159  0.2504  0.2027
  101OSM    H2F10191   2.479   2.865  10.492 -1.6838  3.1630 -0.9236
  101OSM    H2G10192   2.327   2.843  10.388  0.1298 -1.8796 -1.2562
  101OSM    C3F10193   2.489   2.701  10.349  1.0831 -0.5058 -0.4938
  101OSM    H3F10194   2.423   2.628  10.297 -0.3964  0.8275 -0.5340
  101OSM    H3G10195   2.568   2.639  10.397 -0.2794 -1.3115  0.7909
  101OSM    C4F10196   2.557   2.790  10.240  0.4797  0.3311 -1.3013
  101OSM    H4F10197   2.609   2.876  10.287  1.5243 -0.4946 -0.9246
  101OSM    H4G10198   2.478   2.847  10.186 -0.7274 -0.0457  0.0274
  101OSM    C5F10199   2.641   2.712  10.140  0.0597 -0.1480 -0.3520
  101OSM    H5F10200   2.692   2.626  10.187 -1.2932 -0.7171  0.0683
  101OSM    H5G10201   2.702   2.786  10.084 -1.5556 -0.1217 -2.1143
  101OSM    C6F10202   2.552   2.661  10.033  0.9287  0.4513 -0.9229
  101OSM    H6F10203   2.475   2.596  10.079  0.3208 -0.3507 -3.0111
  101OSM    H6G10204   2.506   2.749   9.984 -0.9868 -0.0674 -0.0778
  101OSM    C7F10205   2.628   2.599   9.916 -0.0392  0.1040 -0.8012
  101OSM    H7F10206   2.665   2.498   9.943  0.8644  0.2026 -1.6461
  101OSM    H7G10207   2.715   2.664   9.895  0.1140  0.3132  0.4449
  101OSM    C8F10208   2.542   2.577   9.794  0.1453 -0.4257 -0.2056
  101OSM    H8F10209   2.501   2.673   9.757 -2.4528 -0.9783  1.1246
  101OSM    H8G10210   2.457   2.521   9.839 -0.1872  0.6993  0.5770
  101OSM    C9F10211   2.609   2.500   9.678  0.0137 -0.3580  0.0638
  101OSM    H9F10212   2.627   2.392   9.690 -1.1041 -0.7321 -1.5332
  101OSM   C10F10213   2.630   2.544   9.554  0.1986  1.0050  0.7419
  101OSM   H10F10214   2.670   2.481   9.473  0.9980  2.2494  0.1504
  101OSM   C11F10215   2.604   2.677   9.507 -0.6345 -0.2864  0.5405
  101OSM   H11F10216   2.697   2.738   9.508 -0.0860 -1.1186  1.7100
  101OSM   H11G10217   2.530   2.731   9.570  1.7314  0.6464  2.6044
  101OSM   C12F10218   2.540   2.684   9.368 -0.0561  0.4383  0.4995
  101OSM   H12F10219   2.444   2.629   9.365  0.3361 -0.2892  0.9394
  101OSM   H12G10220   2.598   2.633   9.288  0.8904  0.1991  1.3236
  101OSM   C13F10221   2.518   2.827   9.317 -0.4236  0.0412 -0.0425
  101OSM   H13F10222   2.623   2.864   9.315  0.3217 -1.7416  3.0847
  101OSM   H13G10223   2.445   2.874   9.386  0.1178 -1.8919  1.8803
  101OSM   C14F10224   2.459   2.821   9.177  0.3718  0.9273  0.5216
  101OSM   H14F10225   2.352   2.792   9.169  0.9023 -0.8783 -0.2270
  101OSM   H14G10226   2.522   2.750   9.119  0.6759  0.8249  0.9740
  101OSM   C15F10227   2.455   2.961   9.115  0.2875  0.0991  0.1680
  101OSM   H15F10228   2.558   2.995   9.092 -0.0514  0.6136 -0.5773
  101OSM   H15G10229   2.411   3.030   9.190 -0.7420  0.2236 -0.5405
  101OSM   C16F10230   2.385   2.956   8.981 -0.5158 -0.2918  0.3633
  101OSM   H16F10231   2.365   2.852   8.945 -2.0494  0.8953 -2.4120
  101OSM   H16G10232   2.445   3.004   8.901  1.2445  0.3652  2.0734
  101OSM   C17F10233   2.243   3.013   8.976 -0.5763 -0.7482 -0.4659
  101OSM   H17F10234   2.247   3.116   9.016 -0.1406 -0.7359 -0.5351
  101OSM   H17G10235   2.162   2.956   9.026 -0.9301  0.2374  0.0875
  101OSM   C18F10236   2.209   3.021   8.826  0.0374  0.1178 -0.7443
  101OSM   H18F10237   2.258   3.099   8.765 -0.3415 -0.1006 -1.3274
  101OSM   H18G10238   2.099   3.019   8.811 -0.2431  0.6520  1.0894
  101OSM   H18H10239   2.226   2.919   8.784 -0.3471 -0.9051  1.4548
  102OSM      N10240   4.323   4.444  11.068  0.8434 -0.3270 -0.0456
  102OSM    C1510241   4.240   4.340  11.131  0.4885 -0.3238  0.1336
  102OSM   H15A10242   4.214   4.259  11.064  0.9548  0.5808 -1.1384
  102OSM   H15B10243   4.154   4.387  11.178  1.4131  1.6940 -0.1506
  102OSM   H15C10244   4.300   4.289  11.205  0.1346  0.1644  0.7701
  102OSM    C1410245   4.345   4.564  11.162 -0.5288 -0.1914 -0.5911
  102OSM   H14A10246   4.376   4.522  11.256 -0.4977  2.1525  0.4809
  102OSM   H14B10247   4.251   4.617  11.169 -0.2679  0.2858 -0.6213
  102OSM   H14C10248   4.423   4.627  11.120  0.4181 -1.8558 -1.3840
  102OSM    C1310249   4.454   4.392  11.033  0.0554  0.6892  0.6556
  102OSM   H13A10250   4.502   4.354  11.122  0.1706 -3.5281 -1.0891
  102OSM   H13B10251   4.526   4.445  10.971  0.8091 -2.5939 -1.4199
  102OSM   H13C10252   4.433   4.298  10.983 -2.2887  0.1216  2.6421
  102OSM    C1210253   4.251   4.499  10.934  0.7912  0.0013  0.1059
  102OSM   H12A10254   4.255   4.419  10.861  1.9566  0.6851 -0.5932
  102OSM   H12B10255   4.311   4.577  10.889 -1.8257  1.0690 -1.6970
  102OSM    C1110256   4.109   4.568  10.953  0.1742 -0.5072 -0.3439
  102OSM   H11A10257   4.046   4.513  11.025  1.0780 -0.2333  0.6685
  102OSM   H11B10258   4.054   4.575  10.856  1.4458  0.8911 -0.9942
  102OSM      P10259   4.191   4.810  10.906  0.2998 -0.0128  0.0261
  102OSM    O1310260   4.154   4.939  10.948 -0.5463 -0.1135  0.2623
  102OSM    O1410261   4.339   4.775  10.892 -0.3750 -0.3685 -0.7202
  102OSM    O1110262   4.114   4.780  10.772  0.2434 -0.4840  0.0328
  102OSM    O1210263   4.119   4.702  11.000  0.2487 -0.4982  0.2133
  102OSM    C1S10264   4.142   4.854  10.653  0.4190 -0.2755 -0.8701
  102OSM    H1S10265   4.250   4.872  10.636  0.5005 -0.1614 -0.2258
  102OSM    H1T10266   4.083   4.948  10.646  0.7054 -0.1396 -1.4668
  102OSM     NF10267   4.137   4.820  10.407 -0.1319 -0.0719  0.3498
  102OSM    HNF10268   4.072   4.870  10.351 -0.4725  0.0126  0.8200
  102OSM    C2S10269   4.087   4.771  10.534  0.4664 -0.4941 -0.0162
  102OSM    H2S10270   4.110   4.663  10.546  1.7605 -0.0866  1.1972
  102OSM    C3S10271   3.929   4.782  10.538 -0.2573 -0.5782  0.0468
  102OSM    H3S10272   3.908   4.888  10.511  2.1374 -0.3435 -1.1161
  102OSM     O310273   3.870   4.747  10.667  0.0268  0.0670  0.3522
  102OSM    HO310274   3.948   4.749  10.722  0.1695  0.3682  0.1395
  102OSM    C4S10275   3.869   4.697  10.432 -0.0493  0.0667  0.1298
  102OSM    H4S10276   3.891   4.590  10.447  0.6103  0.2757  0.6628
  102OSM    C5S10277   3.781   4.732  10.334 -0.4589  0.6672  0.3455
  102OSM    H5S10278   3.733   4.831  10.335 -0.1825  0.8357  3.6277
  102OSM    C6S10279   3.724   4.622  10.243  0.2466 -0.0103 -0.0083
  102OSM    H6S10280   3.614   4.633  10.239  0.3593  0.5858 -1.5576
  102OSM    H6T10281   3.740   4.518  10.279  1.5450 -0.6479 -2.3485
  102OSM    C7S10282   3.789   4.619  10.096 -0.3345 -0.4217  0.1108
  102OSM    H7S10283   3.778   4.715  10.042 -0.0178  0.9437  2.4029
  102OSM    H7T10284   3.731   4.547  10.034 -1.2972 -0.9080  1.5330
  102OSM    C8S10285   3.941   4.585  10.089  0.2445  0.3058 -0.7760
  102OSM    H8S10286   3.967   4.487  10.135  0.1331  0.0760 -1.2022
  102OSM    H8T10287   3.985   4.673  10.139  2.1959  0.1161 -2.1232
  102OSM    C9S10288   3.987   4.596   9.941  0.4379 -0.2153 -0.0546
  102OSM    H9S10289   3.931   4.679   9.893  0.1996  0.5891  1.5778
  102OSM    H9T10290   3.954   4.506   9.884 -0.8744  0.8039 -0.9218
  102OSM   C10S10291   4.135   4.625   9.908  0.0345 -0.4043 -0.2593
  102OSM   H10S10292   4.191   4.530   9.927 -2.6085 -1.9978 -0.2411
  102OSM   H10T10293   4.172   4.697   9.984  1.6524 -1.2441 -0.2298
  102OSM   C11S10294   4.171   4.679   9.773 -0.5763 -0.9157 -0.0398
  102OSM   H11S10295   4.276   4.715   9.773 -0.5832 -0.8313 -1.6705
  102OSM   H11T10296   4.107   4.765   9.746  2.5115  1.2803 -0.6222
  102OSM   C12S10297   4.167   4.584   9.658 -0.6062  0.3085 -0.0724
  102OSM   H12S10298   4.061   4.562   9.634 -0.4921  1.7513 -2.0428
  102OSM   H12T10299   4.210   4.483   9.678 -0.5085  0.5255  0.8351
  102OSM   C13S10300   4.232   4.647   9.531  0.1532  0.6290 -0.8042
  102OSM   H13S10301   4.343   4.634   9.532  0.2021  1.0395 -0.2385
  102OSM   H13T10302   4.211   4.756   9.524 -0.6488  0.3154 -3.8064
  102OSM   C14S10303   4.171   4.589   9.401 -0.5732 -0.0929  0.2895
  102OSM   H14S10304   4.061   4.595   9.406 -0.4367  2.3399  1.1882
  102OSM   H14T10305   4.196   4.481   9.393 -0.6325 -0.0805 -0.1132
  102OSM   C15S10306   4.211   4.658   9.268 -0.0315 -0.3337 -1.2304
  102OSM   H15S10307   4.311   4.706   9.281 -0.0602 -0.0690 -1.9669
  102OSM   H15T10308   4.137   4.740   9.258 -0.7814 -0.8726 -0.1605
  102OSM   C16S10309   4.212   4.558   9.154  0.2606 -0.1824  0.1238
  102OSM   H16S10310   4.115   4.504   9.144  0.3431 -0.1810 -0.6768
  102OSM   H16T10311   4.289   4.478   9.168 -0.4047 -1.5078 -3.3181
  102OSM   C17S10312   4.233   4.616   9.016  0.2339 -0.7252  0.3821
  102OSM   H17S10313   4.330   4.669   9.012  0.6495 -1.4910  0.3378
  102OSM   H17T10314   4.155   4.691   8.989  1.1347 -0.7610 -2.5167
  102OSM   C18S10315   4.230   4.505   8.916 -0.1018 -0.6623 -0.2220
  102OSM   H18S10316   4.315   4.434   8.931 -0.2358 -0.0611  4.0975
  102OSM   H18T10317   4.239   4.539   8.811 -1.2871 -0.6248 -0.3182
  102OSM   H18U10318   4.142   4.440   8.931 -0.3965 -0.6151 -1.7112
  102OSM    C1F10319   4.265   4.812  10.368  0.0809  0.2634 -0.1506
  102OSM     OF10320   4.359   4.794  10.441  0.1019 -0.4489 -0.2606
  102OSM    C2F10321   4.280   4.807  10.217  0.0337 -0.6293  0.3430
  102OSM    H2F10322   4.183   4.800  10.164 -1.3959  1.9421  2.5254
  102OSM    H2G10323   4.348   4.723  10.192  0.9128 -0.1098  0.9339
  102OSM    C3F10324   4.343   4.947  10.171  0.8397 -0.2575  0.0006
  102OSM    H3F10325   4.445   4.962  10.213  0.9638 -1.9540  0.3537
  102OSM    H3G10326   4.271   5.023  10.207  0.1950  0.0409 -1.8602
  102OSM    C4F10327   4.369   4.951  10.019  0.2757  0.2909  0.7834
  102OSM    H4F10328   4.409   4.855   9.979 -0.0567  0.8127 -0.8482
  102OSM    H4G10329   4.450   5.021   9.988  0.5911 -2.1298 -4.4401
  102OSM    C5F10330   4.247   4.991   9.941  0.0423 -0.7838 -0.7900
  102OSM    H5F10331   4.160   5.016  10.006 -0.1124 -1.7103 -0.6387
  102OSM    H5G10332   4.209   4.899   9.893 -1.4063  0.6504 -2.4511
  102OSM    C6F10333   4.276   5.100   9.837  0.3776  0.4410  0.8537
  102OSM    H6F10334   4.353   5.063   9.767 -0.6249 -0.0180 -0.0182
  102OSM    H6G10335   4.302   5.196   9.887 -0.1575  0.6544  0.7251
  102OSM    C7F10336   4.141   5.139   9.769 -0.2736 -0.4503 -0.0010
  102OSM    H7F10337   4.174   5.226   9.709  0.8224 -0.7520  0.1671
  102OSM    H7G10338   4.056   5.170   9.834  0.3276  0.9781  0.1082
  102OSM    C8F10339   4.094   5.041   9.658 -0.8619  0.5044 -0.7411
  102OSM    H8F10340   4.044   4.955   9.707 -0.8843  0.3928 -0.9631
  102OSM    H8G10341   4.180   4.995   9.605  0.5295  0.7348  1.2433
  102OSM    C9F10342   3.998   5.120   9.565 -0.3584 -0.1768 -0.5707
  102OSM    H9F10343   3.892   5.106   9.588  0.8314 -5.9070  2.1295
  102OSM   C10F10344   4.034   5.181   9.454 -0.2186 -0.0332 -0.0807
  102OSM   H10F10345   3.961   5.239   9.396 -2.1243 -1.0818  1.2096
  102OSM   C11F10346   4.172   5.191   9.407  0.8487  1.2974 -0.0954
  102OSM   H11F10347   4.246   5.134   9.468  0.5649  0.7916 -0.2229
  102OSM   H11G10348   4.197   5.300   9.407  0.5285  1.4005  2.0586
  102OSM   C12F10349   4.188   5.133   9.265  0.0724 -0.2062 -0.1324
  102OSM   H12F10350   4.155   5.027   9.271  2.6665 -0.8762  3.3264
  102OSM   H12G10351   4.294   5.142   9.234  0.0456  0.7746  0.0395
  102OSM   C13F10352   4.112   5.213   9.156 -0.3206 -0.4170  0.3194
  102OSM   H13F10353   4.172   5.307   9.148  3.0156 -2.5658 -0.9673
  102OSM   H13G10354   4.010   5.238   9.193 -0.6647  1.3634 -1.7647
  102OSM   C14F10355   4.087   5.142   9.028 -0.2726  0.8266  0.4821
  102OSM   H14F10356   4.040   5.043   9.041 -0.2605  0.4244 -2.1626
  102OSM   H14G10357   4.189   5.115   8.991 -0.5011 -0.7808  0.9916
  102OSM   C15F10358   4.005   5.220   8.926  0.4410  0.3034  0.6561
  102OSM   H15F10359   3.923   5.270   8.982 -1.3386  0.5319 -2.0570
  102OSM   H15G10360   3.969   5.164   8.837 -0.1662  0.1290  1.0048
  102OSM   C16F10361   4.091   5.332   8.869  0.0645  0.8439 -0.6809
  102OSM   H16F10362   4.189   5.290   8.837  0.7806 -0.6075  3.1319
  102OSM   H16G10363   4.125   5.406   8.945  1.7714 -1.1745  0.6212
  102OSM   C17F10364   4.023   5.424   8.769  0.1230  0.5120  0.2504
  102OSM   H17F10365   3.928   5.449   8.822 -0.9739  0.7699 -1.7706
  102OSM   H17G10366   3.994   5.364   8.680  1.8847 -0.8786  0.5897
  102OSM   C18F10367   4.101   5.547   8.722  0.3583  0.1746 -0.6607
  102OSM   H18F10368   4.104   5.630   8.796 -1.6956 -0.3026 -0.0029
  102OSM   H18G10369   4.063   5.577   8.622 -3.4828 -0.5086  0.5320
  102OSM   H18H10370   4.210   5.525   8.714  0.5382 -0.3386  2.5108
  103OSM      N10371   3.767   0.520  10.776 -0.1941 -0.2267 -0.0151
  103OSM    C1510372   3.661   0.414  10.737 -0.2401  0.0879 -1.0839
  103OSM   H15A10373   3.692   0.352  10.654  0.1457 -0.3095 -0.6404
  103OSM   H15B10374   3.563   0.460  10.726  0.0387  0.9043 -0.1365
  103OSM   H15C10375   3.635   0.357  10.825 -1.3774  1.9094 -0.2052
  103OSM    C1410376   3.724   0.574  10.908  0.0256  0.5457  0.5861
  103OSM   H14A10377   3.687   0.484  10.953 -1.2560  0.1207 -1.2550
  103OSM   H14B10378   3.632   0.629  10.896 -0.3196  0.1115  1.2278
  103OSM   H14C10379   3.797   0.638  10.956  0.0450 -0.0662  1.3801
  103OSM    C1310380   3.895   0.440  10.792 -0.1863  0.4408 -0.6256
  103OSM   H13A10381   3.947   0.409  10.703  2.0450  3.6289 -0.5187
  103OSM   H13B10382   3.892   0.362  10.867 -1.7078  2.3128  1.3434
  103OSM   H13C10383   3.962   0.514  10.833 -1.0746  2.0499 -2.0321
  103OSM    C1210384   3.777   0.630  10.672 -0.0487 -0.0623 -0.1113
  103OSM   H12A10385   3.838   0.603  10.587 -0.5428  1.0402 -0.8269
  103OSM   H12B10386   3.834   0.704  10.728  0.7279  1.5011 -2.8826
  103OSM    C1110387   3.650   0.702  10.625 -0.3744 -0.7483  0.6781
  103OSM   H11A10388   3.573   0.632  10.587 -0.8650  1.0408 -1.7125
  103OSM   H11B10389   3.683   0.763  10.539  0.0500 -3.9796 -1.5382
  103OSM      P10390   3.437   0.769  10.765  0.1579 -0.4000  0.5097
  103OSM    O1310391   3.414   0.631  10.801  0.0623  0.6482  0.4802
  103OSM    O1410392   3.399   0.874  10.861  0.0215 -0.5847  0.2991
  103OSM    O1110393   3.378   0.801  10.617  0.2637 -0.2016 -0.4301
  103OSM    O1210394   3.589   0.786  10.726  0.6510  0.3323 -0.0630
  103OSM    C1S10395   3.375   0.937  10.581 -0.5729  0.5244  0.3107
  103OSM    H1S10396   3.481   0.966  10.567 -1.1564  2.2551 -0.6298
  103OSM    H1T10397   3.324   1.002  10.656 -2.0428 -1.4746  1.1068
  103OSM     NF10398   3.323   1.069  10.381 -0.3250 -0.5982 -0.0634
  103OSM    HNF10399   3.270   1.151  10.402  0.1137 -0.5944  1.0368
  103OSM    C2S10400   3.289   0.952  10.450 -0.2797 -0.3016 -0.0968
  103OSM    H2S10401   3.298   0.860  10.389 -0.6242 -0.1207 -0.4285
  103OSM    C3S10402   3.138   0.952  10.498  0.2488 -0.7734  0.0729
  103OSM    H3S10403   3.125   1.033  10.573  0.6053  0.1949 -0.8977
  103OSM     O310404   3.086   0.830  10.550  0.2152  0.3274 -0.0677
  103OSM    HO310405   3.166   0.779  10.563 -0.4718 -0.1239  2.8197
  103OSM    C4S10406   3.054   0.990  10.379 -0.1478 -0.6953 -0.5316
  103OSM    H4S10407   3.027   1.096  10.392  0.2005 -0.6629 -0.0711
  103OSM    C5S10408   3.013   0.929  10.273  0.9608  0.4250  0.0875
  103OSM    H5S10409   3.039   0.824  10.250  2.3002  0.8057 -0.1440
  103OSM    C6S10410   2.917   0.988  10.173 -0.4050  0.0500 -0.7858
  103OSM    H6S10411   2.906   1.098  10.189 -0.2365  0.3724 -2.6588
  103OSM    H6T10412   2.818   0.945  10.197  0.2335  0.2845  2.4018
  103OSM    C7S10413   2.941   0.955  10.028  0.3809  0.1345 -0.0880
  103OSM    H7S10414   2.963   0.848  10.006  1.2830  0.1425  0.7512
  103OSM    H7T10415   3.037   1.003   9.997 -1.0933  0.6385 -4.1671
  103OSM    C8S10416   2.837   1.010   9.927  0.0528 -0.1552 -0.5207
  103OSM    H8S10417   2.828   1.120   9.938 -0.5060 -0.2265 -0.2547
  103OSM    H8T10418   2.740   0.964   9.955  1.2176 -0.8126  2.7166
  103OSM    C9S10419   2.881   0.982   9.780 -0.9233  0.6402  0.0407
  103OSM    H9S10420   2.839   0.888   9.740 -0.3262  0.1590  0.5296
  103OSM    H9T10421   2.991   0.986   9.764 -0.8265 -2.0643 -0.1683
  103OSM   C10S10422   2.818   1.101   9.697 -0.1980  0.2907  0.0287
  103OSM   H10S10423   2.872   1.188   9.739 -1.3238  0.5689  0.9245
  103OSM   H10T10424   2.709   1.114   9.709 -0.3140 -1.4302  0.9696
  103OSM   C11S10425   2.849   1.107   9.547 -0.1289  0.3064 -0.4506
  103OSM   H11S10426   2.955   1.079   9.531 -0.5544 -1.6848  0.1030
  103OSM   H11T10427   2.841   1.216   9.527  2.2084  1.1557  2.7704
  103OSM   C12S10428   2.759   1.035   9.455  0.4020  0.2831 -0.8818
  103OSM   H12S10429   2.654   1.064   9.477 -0.0514 -0.6571 -1.7652
  103OSM   H12T10430   2.765   0.931   9.494  3.2497  0.8498  0.2636
  103OSM   C13S10431   2.787   1.056   9.305  0.1151 -0.0908 -0.0037
  103OSM   H13S10432   2.719   0.997   9.239 -0.5948  0.3425  0.3284
  103OSM   H13T10433   2.894   1.039   9.280  0.6864  1.6512  1.1936
  103OSM   C14S10434   2.750   1.203   9.259 -0.2891 -0.0966 -0.2819
  103OSM   H14S10435   2.838   1.260   9.297  0.3525 -1.6801  0.6712
  103OSM   H14T10436   2.663   1.237   9.318 -0.0941  2.5789 -1.4791
  103OSM   C15S10437   2.728   1.221   9.108  0.7669 -0.5362 -0.0643
  103OSM   H15S10438   2.661   1.138   9.076  1.3856 -1.0303 -0.0877
  103OSM   H15T10439   2.823   1.214   9.051  0.5352  3.4479 -1.1220
  103OSM   C16S10440   2.647   1.348   9.063  0.3435 -0.2746  0.1577
  103OSM   H16S10441   2.720   1.431   9.074  0.1198 -0.1762  0.9694
  103OSM   H16T10442   2.570   1.366   9.141  0.0455  1.7918 -0.5861
  103OSM   C17S10443   2.585   1.332   8.924  0.3707  0.2753 -0.0108
  103OSM   H17S10444   2.520   1.421   8.909 -0.3951 -0.4406 -0.9627
  103OSM   H17T10445   2.524   1.239   8.919 -2.3886  2.1395 -1.7407
  103OSM   C18S10446   2.691   1.328   8.809  0.3581 -0.7396 -0.2294
  103OSM   H18S10447   2.735   1.428   8.790  0.3712 -0.6005  0.5138
  103OSM   H18T10448   2.652   1.296   8.710 -0.9859 -1.1294  0.4059
  103OSM   H18U10449   2.780   1.269   8.837  0.1015 -0.6404  0.8317
  103OSM    C1F10450   3.438   1.077  10.311  1.1906 -0.2014  0.2842
  103OSM     OF10451   3.495   0.969  10.278 -0.1000 -0.3621 -0.8649
  103OSM    C2F10452   3.487   1.209  10.270 -0.2595  0.3791 -0.2049
  103OSM    H2F10453   3.570   1.246  10.334  0.1113 -0.6507 -0.0806
  103OSM    H2G10454   3.405   1.284  10.269 -2.2022 -1.6935 -0.0589
  103OSM    C3F10455   3.528   1.204  10.118 -0.3215 -0.2192  0.0730
  103OSM    H3F10456   3.449   1.161  10.052  0.0809  2.3600 -2.1708
  103OSM    H3G10457   3.606   1.125  10.114  1.1140  1.1690  0.4533
  103OSM    C4F10458   3.586   1.338  10.068  0.6137 -0.1115 -0.1070
  103OSM    H4F10459   3.661   1.359  10.148 -0.3088  2.5394  0.0973
  103OSM    H4G10460   3.509   1.418  10.065 -0.5928 -1.2621 -0.1233
  103OSM    C5F10461   3.649   1.331   9.928  0.1200 -0.4630 -0.8349
  103OSM    H5F10462   3.564   1.303   9.861  0.5322 -0.8341 -1.2003
  103OSM    H5G10463   3.739   1.266   9.929  1.8106  1.7727 -2.4491
  103OSM    C6F10464   3.697   1.470   9.873  0.0895 -0.2805  0.0400
  103OSM    H6F10465   3.755   1.532   9.944  1.9858  2.1660 -3.4858
  103OSM    H6G10466   3.612   1.537   9.848  0.3834  0.2084  0.3576
  103OSM    C7F10467   3.787   1.455   9.751  0.1137 -0.2651  0.9518
  103OSM    H7F10468   3.867   1.383   9.778  0.7874  0.5208  1.0602
  103OSM    H7G10469   3.825   1.556   9.722  1.5532 -0.6980  1.3081
  103OSM    C8F10470   3.705   1.393   9.637  0.6133  0.1741  0.0832
  103OSM    H8F10471   3.617   1.458   9.617 -0.0660 -0.5368  0.6734
  103OSM    H8G10472   3.676   1.294   9.678  2.6867 -0.2669  0.5583
  103OSM    C9F10473   3.780   1.386   9.506 -0.2750 -0.2910  0.4653
  103OSM    H9F10474   3.881   1.344   9.521 -0.0020  1.1315  2.8825
  103OSM   C10F10475   3.742   1.412   9.379 -0.2603 -0.2496  0.2905
  103OSM   H10F10476   3.817   1.387   9.303  2.1837  1.4580  2.0282
  103OSM   C11F10477   3.612   1.466   9.330 -0.4352  0.0729 -0.0851
  103OSM   H11F10478   3.532   1.475   9.405 -0.6340  1.8726 -0.5017
  103OSM   H11G10479   3.586   1.409   9.238  3.3235  3.2075 -3.2885
  103OSM   C12F10480   3.641   1.611   9.280  0.1988  0.2065 -0.4087
  103OSM   H12F10481   3.732   1.610   9.217  0.2604  0.2403 -0.3196
  103OSM   H12G10482   3.643   1.684   9.363 -0.1732 -0.3319  0.0855
  103OSM   C13F10483   3.530   1.661   9.187  0.3126 -0.7387 -0.2828
  103OSM   H13F10484   3.494   1.750   9.244  2.8116  0.2950 -0.2859
  103OSM   H13G10485   3.427   1.618   9.183 -1.0598  2.3134  0.4685
  103OSM   C14F10486   3.578   1.708   9.054  0.4579 -0.2380  0.2830
  103OSM   H14F10487   3.679   1.752   9.057  0.9208 -1.2328 -0.4140
  103OSM   H14G10488   3.511   1.788   9.016 -1.8548 -1.2823  1.9965
  103OSM   C15F10489   3.583   1.587   8.956 -0.0862 -0.3466 -0.0929
  103OSM   H15F10490   3.494   1.522   8.975  1.8195 -2.6484  1.1667
  103OSM   H15G10491   3.670   1.520   8.968 -0.3257 -0.5477  0.5578
  103OSM   C16F10492   3.574   1.628   8.805  0.8650  0.2228 -0.1764
  103OSM   H16F10493   3.669   1.673   8.770  0.9629 -0.5782 -0.9533
  103OSM   H16G10494   3.492   1.702   8.791  2.7649  2.2406 -1.0072
  103OSM   C17F10495   3.560   1.507   8.705  0.2196  0.4211 -0.1865
  103OSM   H17F10496   3.536   1.537   8.601 -3.5859  0.8693  0.7332
  103OSM   H17G10497   3.476   1.445   8.747  0.0846  1.7090  1.5040
  103OSM   C18F10498   3.678   1.411   8.697 -0.0006 -0.8548  0.3849
  103OSM   H18F10499   3.666   1.334   8.617  0.5935 -0.1839 -0.3574
  103OSM   H18G10500   3.709   1.368   8.794 -0.0401  1.1844  1.3207
  103OSM   H18H10501   3.760   1.468   8.647  0.3641 -0.8833  0.9528
  104OSM      N10502   4.435   0.109  10.977  0.5495  0.7766  0.4221
  104OSM    C1510503   4.309   0.173  11.018 -0.0322 -0.9383 -0.7869
  104OSM   H15A10504   4.321   0.280  11.030 -1.5118 -0.8684  0.2630
  104OSM   H15B10505   4.262   0.124  11.101  0.6046  0.7954  0.6404
  104OSM   H15C10506   4.231   0.166  10.944  0.6967  1.5641 -1.8670
  104OSM    C1410507   4.497   0.045  11.092  0.7077  0.4263 -0.1932
  104OSM   H14A10508   4.521   0.115  11.170 -0.6159  1.4817 -0.7186
  104OSM   H14B10509   4.579  -0.018  11.061  1.2568  1.6567 -1.2754
  104OSM   H14C10510   4.429  -0.025  11.139  0.7689 -0.0545 -0.8150
  104OSM    C1310511   4.401  -0.001  10.886  0.0653 -0.3900  0.4316
  104OSM   H13A10512   4.345  -0.084  10.926  0.3898 -0.7811  0.0663
  104OSM   H13B10513   4.493  -0.047  10.852 -1.8347 -1.2908 -3.7845
  104OSM   H13C10514   4.347   0.039  10.801 -0.7347  0.0650  1.1472
  104OSM    C1210515   4.525   0.202  10.910  0.0280 -0.0452  0.0344
  104OSM   H12A10516   4.474   0.238  10.822 -2.8082 -0.0913  1.5890
  104OSM   H12B10517   4.604   0.137  10.876 -1.7810 -0.6767 -3.1340
  104OSM    C1110518   4.573   0.329  10.988  0.7669  0.3548  0.5954
  104OSM   H11A10519   4.672   0.373  10.964  1.6415 -1.1524  1.3700
  104OSM   H11B10520   4.585   0.281  11.088 -1.1124 -0.0919  0.6283
  104OSM      P10521   4.418   0.500  10.869 -0.1090  0.1263  0.1358
  104OSM    O1310522   4.359   0.404  10.778 -0.4353 -0.1245 -0.2565
  104OSM    O1410523   4.321   0.598  10.920  0.0799  0.5054  0.4230
  104OSM    O1110524   4.546   0.570  10.798 -0.1511 -0.1516 -0.4742
  104OSM    O1210525   4.474   0.430  11.001  0.1184  0.1221 -0.1534
  104OSM    C1S10526   4.531   0.602  10.658 -0.1015 -0.6912 -0.8445
  104OSM    H1S10527   4.458   0.685  10.644 -0.2521 -0.3177  1.9014
  104OSM    H1T10528   4.490   0.513  10.604 -0.5182  0.2673 -2.1148
  104OSM     NF10529   4.649   0.675  10.454 -0.3327  0.6196 -0.1368
  104OSM    HNF10530   4.656   0.606  10.382 -0.4493 -0.7293  1.1397
  104OSM    C2S10531   4.669   0.618  10.593  0.2942 -0.4812 -0.0311
  104OSM    H2S10532   4.725   0.698  10.645  0.8262 -1.3177  0.6970
  104OSM    C3S10533   4.755   0.484  10.602 -0.3266  0.0581  0.1715
  104OSM    H3S10534   4.714   0.396  10.549  2.6240 -0.1615 -1.8895
  104OSM     O310535   4.773   0.451  10.743 -0.0596  0.3774 -0.0949
  104OSM    HO310536   4.700   0.492  10.789 -2.1044 -2.5782 -0.5724
  104OSM    C4S10537   4.891   0.510  10.552 -0.6555  0.3624 -0.1754
  104OSM    H4S10538   4.956   0.575  10.613 -1.1275  0.2076  0.5002
  104OSM    C5S10539   4.947   0.464  10.436  0.3967  0.0947  0.4750
  104OSM    H5S10540   4.885   0.408  10.365  0.0666  0.2158  0.6649
  104OSM    C6S10541   5.083   0.480  10.384  1.7483 -0.8288 -0.4888
  104OSM    H6S10542   5.115   0.382  10.342  3.8910 -0.4324  0.1416
  104OSM    H6T10543   5.151   0.500  10.470  1.2733 -2.3314  0.2633
  104OSM    C7S10544   5.112   0.597  10.289  0.4282 -0.4648 -0.3623
  104OSM    H7S10545   5.121   0.693  10.343 -2.0217 -0.8023  0.6863
  104OSM    H7T10546   5.021   0.605  10.225 -0.6830 -1.1321  1.1170
  104OSM    C8S10547   5.239   0.575  10.210 -0.2316 -0.4083  0.3042
  104OSM    H8S10548   5.258   0.466  10.194 -2.9168 -0.6013 -2.0167
  104OSM    H8T10549   5.330   0.606  10.266  0.0435 -1.5777  0.5173
  104OSM    C9S10550   5.241   0.649  10.075 -0.1670  0.2816 -0.2219
  104OSM    H9S10551   5.343   0.638  10.032 -0.2481 -1.1782 -0.0608
  104OSM    H9T10552   5.206   0.753  10.093 -0.9278 -0.0547  0.2205
  104OSM   C10S10553   5.155   0.595   9.960  0.0821  0.3053  0.2774
  104OSM   H10S10554   5.054   0.591  10.007  1.1384 -1.5098  2.5364
  104OSM   H10T10555   5.200   0.496   9.938 -1.2883 -0.4650  0.8305
  104OSM   C11S10556   5.176   0.671   9.827 -0.7395 -0.2638 -0.3618
  104OSM   H11S10557   5.283   0.666   9.795 -0.9021 -1.0537 -0.7914
  104OSM   H11T10558   5.131   0.771   9.844 -1.3801 -0.9536  2.1143
  104OSM   C12S10559   5.097   0.609   9.708 -0.6955 -0.7843 -1.2270
  104OSM   H12S10560   4.999   0.584   9.753  0.3258 -0.2182  1.3772
  104OSM   H12T10561   5.154   0.515   9.694  0.3689 -0.4648  0.8263
  104OSM   C13S10562   5.098   0.695   9.583 -0.2028 -0.3777 -0.3541
  104OSM   H13S10563   5.201   0.728   9.560 -1.1779  2.5504 -0.6646
  104OSM   H13T10564   5.026   0.778   9.598  2.2052  1.4808  1.3022
  104OSM   C14S10565   5.041   0.622   9.461  0.1425  0.0071  0.1951
  104OSM   H14S10566   5.010   0.692   9.382 -2.3278 -1.4650 -0.1842
  104OSM   H14T10567   4.948   0.571   9.494  1.2413 -1.7490  0.7059
  104OSM   C15S10568   5.131   0.512   9.397 -0.2302  0.6037 -0.5573
  104OSM   H15S10569   5.132   0.436   9.478  0.8021  1.2482  0.0553
  104OSM   H15T10570   5.228   0.564   9.383  0.6979 -0.8999  0.2169
  104OSM   C16S10571   5.062   0.463   9.272 -0.4809  0.4649 -0.0848
  104OSM   H16S10572   5.083   0.541   9.197  1.8334 -0.9215 -0.9287
  104OSM   H16T10573   4.951   0.466   9.266 -0.4173 -0.3467 -2.0138
  104OSM   C17S10574   5.108   0.322   9.225  0.9951 -0.1594 -0.2952
  104OSM   H17S10575   5.042   0.246   9.271 -0.7030  1.7667  0.5006
  104OSM   H17T10576   5.214   0.314   9.259  0.7830 -0.5761  0.2758
  104OSM   C18S10577   5.120   0.306   9.073 -0.3393 -0.7417  0.5767
  104OSM   H18S10578   5.017   0.294   9.033  0.0921  0.2338 -0.8710
  104OSM   H18T10579   5.182   0.216   9.050 -0.0336 -0.0935 -1.1832
  104OSM   H18U10580   5.167   0.391   9.020  0.6956 -0.7495  1.4699
  104OSM    C1F10581   4.581   0.784  10.435 -0.6232  0.4744 -0.4499
  104OSM     OF10582   4.572   0.871  10.522 -0.4528 -0.0440 -0.2499
  104OSM    C2F10583   4.501   0.790  10.306 -0.4087 -0.3848  0.5825
  104OSM    H2F10584   4.440   0.697  10.301 -1.5651  0.4259 -0.4344
  104OSM    H2G10585   4.576   0.793  10.224  0.2490 -1.0305  1.1501
  104OSM    C3F10586   4.422   0.922  10.307  0.0265  0.1653  0.1218
  104OSM    H3F10587   4.497   1.003  10.321  1.0635 -0.0610 -3.5424
  104OSM    H3G10588   4.356   0.929  10.396  1.0048  0.7596  0.8250
  104OSM    C4F10589   4.345   0.944  10.177  0.3767 -0.0321  0.0264
  104OSM    H4F10590   4.312   1.050  10.178  1.7057  0.4219 -1.7370
  104OSM    H4G10591   4.260   0.876  10.157  0.8028 -1.3556  2.5607
  104OSM    C5F10592   4.432   0.956  10.049 -0.1607  0.7061 -0.9107
  104OSM    H5F10593   4.474   0.857  10.021  2.1487  0.8333  1.8354
  104OSM    H5G10594   4.523   1.016  10.073  0.3487 -0.6980  0.7679
  104OSM    C6F10595   4.366   1.024   9.931 -0.0313 -0.5805  0.7998
  104OSM    H6F10596   4.445   1.077   9.873 -0.5710 -1.0861 -0.4120
  104OSM    H6G10597   4.298   1.105   9.965  1.8518  1.0965  0.6642
  104OSM    C7F10598   4.289   0.925   9.839  0.0493  0.1548  0.2055
  104OSM    H7F10599   4.208   0.867   9.889  0.0713  1.2583  1.5231
  104OSM    H7G10600   4.355   0.846   9.795 -0.8340  0.4863 -1.7780
  104OSM    C8F10601   4.220   0.989   9.715 -0.1485  0.0881  0.2625
  104OSM    H8F10602   4.150   1.068   9.749 -0.2422 -0.3056  0.9977
  104OSM    H8G10603   4.152   0.913   9.672  1.4501 -1.7510  0.8941
  104OSM    C9F10604   4.318   1.051   9.622 -0.4607 -0.5932  0.0899
  104OSM    H9F10605   4.414   1.088   9.662 -0.7803 -1.6127  1.8622
  104OSM   C10F10606   4.293   1.077   9.493  0.1402  0.5070 -0.4520
  104OSM   H10F10607   4.367   1.122   9.425  0.3215 -0.6665 -1.0499
  104OSM   C11F10608   4.164   1.044   9.424 -0.6091  0.2506  0.1224
  104OSM   H11F10609   4.107   1.134   9.393  1.2229  0.1251 -3.7821
  104OSM   H11G10610   4.094   0.988   9.490 -0.5568 -0.2265 -0.2292
  104OSM   C12F10611   4.187   0.962   9.292  0.1098 -0.2148 -0.6068
  104OSM   H12F10612   4.086   0.935   9.254 -0.2793 -2.6343  2.0044
  104OSM   H12G10613   4.237   0.863   9.304 -3.6766 -2.0501  0.9778
  104OSM   C13F10614   4.242   1.050   9.175 -0.0055 -0.4127 -1.2778
  104OSM   H13F10615   4.322   1.120   9.208 -2.1804  0.1188  3.2496
  104OSM   H13G10616   4.155   1.115   9.151  0.5033  0.5398 -0.5670
  104OSM   C14F10617   4.266   0.964   9.049  0.4608 -0.1198  0.3879
  104OSM   H14F10618   4.295   1.022   8.959 -1.8547  0.2859 -0.1243
  104OSM   H14G10619   4.172   0.916   9.016  0.2304  1.1680 -0.8730
  104OSM   C15F10620   4.363   0.850   9.055  0.1512  0.1101  0.2337
  104OSM   H15F10621   4.305   0.772   9.109  0.2890 -0.8370 -0.9652
  104OSM   H15G10622   4.445   0.892   9.117  0.0328  2.1040 -0.8944
  104OSM   C16F10623   4.404   0.795   8.920 -0.0831  0.0199 -0.5366
  104OSM   H16F10624   4.492   0.730   8.938  1.6293  1.8221 -2.0969
  104OSM   H16G10625   4.448   0.887   8.876  0.3893  1.0634  2.0496
  104OSM   C17F10626   4.294   0.721   8.844 -0.8700 -0.2235 -0.0724
  104OSM   H17F10627   4.222   0.799   8.813  0.9252  1.6373  0.2927
  104OSM   H17G10628   4.257   0.647   8.918  1.6763 -1.2807  0.2144
  104OSM   C18F10629   4.347   0.630   8.737 -0.8512  0.0333 -0.5076
  104OSM   H18F10630   4.262   0.566   8.705 -1.7228  0.1216  1.5624
  104OSM   H18G10631   4.430   0.572   8.783 -0.6973 -0.7481 -1.7564
  104OSM   H18H10632   4.391   0.670   8.643 -0.7223  0.2734 -0.3459
  105OSM      N10633   1.387   3.239  11.039  0.1426  0.0138 -0.7374
  105OSM    C1510634   1.334   3.377  11.054 -0.8034  0.3429 -0.1649
  105OSM   H15A10635   1.317   3.422  10.958  0.1975  1.3097  0.0899
  105OSM   H15B10636   1.406   3.444  11.100 -1.1376  1.5578 -1.3632
  105OSM   H15C10637   1.244   3.376  11.114 -0.8117 -0.2510 -0.1832
  105OSM    C1410638   1.503   3.243  10.948  0.5268 -0.4232  0.0050
  105OSM   H14A10639   1.464   3.275  10.852 -0.8167  0.2721  0.7776
  105OSM   H14B10640   1.547   3.145  10.939  1.0787 -0.2447  0.6772
  105OSM   H14C10641   1.577   3.318  10.974 -0.9074  0.2166  2.3915
  105OSM    C1310642   1.429   3.189  11.172 -0.4531  0.3015  0.3878
  105OSM   H13A10643   1.475   3.093  11.154  0.4036  1.0379 -1.4200
  105OSM   H13B10644   1.345   3.166  11.236  0.1733 -4.4598 -0.3216
  105OSM   H13C10645   1.511   3.232  11.227 -0.3446  0.8895 -0.2256
  105OSM    C1210646   1.268   3.151  10.989  0.0595  0.0669 -1.0973
  105OSM   H12A10647   1.186   3.188  11.049  0.9724 -1.6527  1.2674
  105OSM   H12B10648   1.303   3.051  11.007  0.6494  0.6026  0.7892
  105OSM    C1110649   1.229   3.165  10.844  0.1151 -0.5266 -0.7814
  105OSM   H11A10650   1.235   3.270  10.809 -0.4380 -0.0776  0.4394
  105OSM   H11B10651   1.125   3.129  10.824 -0.1607 -0.9805  1.3227
  105OSM      P10652   1.296   2.942  10.728 -0.0025 -0.2957  0.1931
  105OSM    O1310653   1.405   2.902  10.629 -0.7756  0.1113  0.1245
  105OSM    O1410654   1.288   2.877  10.857 -0.1602 -0.1585  0.1000
  105OSM    O1110655   1.152   2.940  10.662 -0.4129  0.7439  0.1194
  105OSM    O1210656   1.318   3.092  10.765 -0.3645 -0.1088  0.7671
  105OSM    C1S10657   1.113   3.017  10.546  0.3320  0.3442 -0.1776
  105OSM    H1S10658   1.161   3.117  10.553 -0.3553  0.7794 -1.3890
  105OSM    H1T10659   1.004   3.038  10.554  0.3669  0.1174  0.9144
  105OSM     NF10660   1.133   3.040  10.299  0.8012 -0.1187  0.1226
  105OSM    HNF10661   1.053   3.027  10.240  0.6488  0.9071  0.0928
  105OSM    C2S10662   1.149   2.947  10.413  1.2726 -0.1860 -0.8757
  105OSM    H2S10663   1.255   2.913  10.413  1.8255  1.4820  1.0820
  105OSM    C3S10664   1.066   2.817  10.397 -0.0010  0.2182 -0.3684
  105OSM    H3S10665   0.956   2.832  10.403  0.0338  0.4387 -0.2829
  105OSM     O310666   1.106   2.718  10.490  0.1339 -0.3113  0.7292
  105OSM    HO310667   1.164   2.773  10.544 -0.9264  2.2854 -0.6938
  105OSM    C4S10668   1.090   2.750  10.262  0.3648  0.4134  0.9711
  105OSM    H4S10669   1.186   2.698  10.255  0.8893  1.5499 -0.4866
  105OSM    C5S10670   1.007   2.748  10.155  0.2481  0.7736 -0.2388
  105OSM    H5S10671   0.911   2.801  10.158 -1.4281 -2.0960 -1.3983
  105OSM    C6S10672   1.031   2.675  10.029 -0.0268 -0.3664  0.4352
  105OSM    H6S10673   0.941   2.628   9.984 -0.3577 -0.4866  1.2158
  105OSM    H6T10674   1.099   2.590  10.051  0.8188 -0.1486 -1.1879
  105OSM    C7S10675   1.093   2.762   9.919  0.0172  0.2791 -0.4009
  105OSM    H7S10676   1.184   2.812   9.957 -0.4288 -1.1381  2.7838
  105OSM    H7T10677   1.018   2.836   9.884 -1.1507 -0.8071 -0.2557
  105OSM    C8S10678   1.131   2.681   9.797 -0.7099 -1.5266  0.0231
  105OSM    H8S10679   1.050   2.607   9.781 -1.6884 -0.1233 -1.7371
  105OSM    H8T10680   1.225   2.631   9.828 -1.3487 -1.6519  1.8200
  105OSM    C9S10681   1.147   2.760   9.667  0.1253  0.4266 -0.5552
  105OSM    H9S10682   1.240   2.817   9.684  0.9371 -1.4790  1.6738
  105OSM    H9T10683   1.060   2.825   9.643  0.1708  0.1571 -1.4605
  105OSM   C10S10684   1.167   2.660   9.560  0.2141  0.0529  0.0474
  105OSM   H10S10685   1.086   2.584   9.561  1.0616 -0.9211 -2.1046
  105OSM   H10T10686   1.249   2.594   9.593  0.0086  0.0241  0.5089
  105OSM   C11S10687   1.220   2.725   9.434 -0.3180 -0.5615  0.6227
  105OSM   H11S10688   1.317   2.779   9.441  0.4701 -1.7925 -0.5493
  105OSM   H11T10689   1.152   2.809   9.407  1.2712  0.5493 -0.0027
  105OSM   C12S10690   1.226   2.619   9.321 -0.3969  0.6390  1.0144
  105OSM   H12S10691   1.121   2.586   9.305 -0.5326  1.1167  0.8955
  105OSM   H12T10692   1.285   2.530   9.351  1.0824  1.8349  1.7570
  105OSM   C13S10693   1.270   2.687   9.187 -0.7754 -0.5841  0.6544
  105OSM   H13S10694   1.244   2.795   9.188 -1.0608 -0.6451 -0.0237
  105OSM   H13T10695   1.209   2.641   9.107 -3.1452  0.9972  1.5159
  105OSM   C14S10696   1.416   2.652   9.152 -0.0502  0.3429  0.2332
  105OSM   H14S10697   1.429   2.542   9.157 -3.4986 -0.0409  1.7464
  105OSM   H14T10698   1.484   2.698   9.227  0.7764 -0.5088  0.0290
  105OSM   C15S10699   1.456   2.700   9.008 -0.0971 -0.0538  0.3425
  105OSM   H15S10700   1.519   2.627   8.953 -1.2710 -0.5923 -0.2961
  105OSM   H15T10701   1.513   2.794   9.022  4.3095 -2.5585  0.0571
  105OSM   C16S10702   1.343   2.729   8.898 -0.1456 -0.3228  0.0935
  105OSM   H16S10703   1.276   2.810   8.935  0.0768  0.2087 -0.6547
  105OSM   H16T10704   1.286   2.635   8.879  0.7300 -1.0815  1.1865
  105OSM   C17S10705   1.408   2.768   8.763  0.3909 -0.1723 -0.1241
  105OSM   H17S10706   1.483   2.691   8.735  0.6983  0.5253 -1.2286
  105OSM   H17T10707   1.468   2.860   8.777 -1.7526  0.9849  1.6956
  105OSM   C18S10708   1.306   2.794   8.650  0.0824  0.5948 -0.4758
  105OSM   H18S10709   1.354   2.854   8.570  0.3206 -0.0069 -0.7858
  105OSM   H18T10710   1.228   2.867   8.683 -0.0475 -0.0222  0.5899
  105OSM   H18U10711   1.260   2.696   8.626  2.5043 -0.4859 -0.7426
  105OSM    C1F10712   1.226   3.133  10.272 -0.2951  0.1889 -0.0319
  105OSM     OF10713   1.322   3.148  10.341  0.5008  1.2294 -0.4345
  105OSM    C2F10714   1.206   3.214  10.149  0.6470 -0.1510  0.1194
  105OSM    H2F10715   1.306   3.238  10.109  0.4405 -0.1388 -0.4003
  105OSM    H2G10716   1.153   3.311  10.164 -1.2521 -1.3962  1.7255
  105OSM    C3F10717   1.134   3.131  10.035 -0.1846  0.5246 -0.2376
  105OSM    H3F10718   1.032   3.107  10.070  0.1627  0.9554  1.1118
  105OSM    H3G10719   1.177   3.030  10.020 -0.2046  0.5851 -0.7436
  105OSM    C4F10720   1.124   3.205   9.899 -0.6489  0.2654 -0.4932
  105OSM    H4F10721   1.229   3.233   9.876 -1.3682  3.2011 -0.4371
  105OSM    H4G10722   1.060   3.296   9.910 -1.0620 -0.1451  0.5574
  105OSM    C5F10723   1.081   3.114   9.780  0.0419  0.1313  0.0663
  105OSM    H5F10724   0.985   3.064   9.806  0.2835 -1.1771 -1.4607
  105OSM    H5G10725   1.151   3.027   9.774 -0.5997 -0.4341  0.6754
  105OSM    C6F10726   1.080   3.192   9.649  0.1282 -0.0087 -0.2131
  105OSM    H6F10727   1.175   3.239   9.616  0.7205 -1.9077 -1.3076
  105OSM    H6G10728   1.001   3.269   9.643 -1.4448 -1.4966  0.7861
  105OSM    C7F10729   1.045   3.102   9.523  0.1974 -0.1336 -0.4669
  105OSM    H7F10730   0.952   3.045   9.545 -0.9031  0.8640 -2.4342
  105OSM    H7G10731   1.121   3.022   9.509 -0.3478 -0.5564 -1.0454
  105OSM    C8F10732   1.042   3.190   9.395  0.3425 -0.6164  0.5223
  105OSM    H8F10733   1.148   3.200   9.364 -0.2163  0.7114 -1.0084
  105OSM    H8G10734   0.997   3.288   9.423 -2.1144 -1.7689  0.7531
  105OSM    C9F10735   0.975   3.118   9.279 -0.0811 -0.0973  0.3003
  105OSM    H9F10736   0.950   3.013   9.300 -2.4847  0.3442 -0.1799
  105OSM   C10F10737   0.941   3.175   9.167  0.1456  0.1024 -0.2012
  105OSM   H10F10738   0.912   3.110   9.083  0.3469  1.8213 -1.6516
  105OSM   C11F10739   0.964   3.320   9.115 -0.3741 -0.3473  0.0365
  105OSM   H11F10740   1.048   3.379   9.155 -0.1151 -0.3154 -0.5475
  105OSM   H11G10741   0.871   3.376   9.141 -0.5536  0.1625 -1.6400
  105OSM   C12F10742   0.986   3.320   8.963  0.7510 -0.1460 -0.1429
  105OSM   H12F10743   0.988   3.426   8.931  1.3785 -0.2355 -0.4093
  105OSM   H12G10744   0.903   3.269   8.910 -1.1458  1.3282  1.3527
  105OSM   C13F10745   1.128   3.257   8.921  0.2834  0.8127  0.0616
  105OSM   H13F10746   1.138   3.162   8.976 -0.3731  1.6276  1.6216
  105OSM   H13G10747   1.200   3.325   8.970 -1.1901  2.3671  0.1376
  105OSM   C14F10748   1.154   3.260   8.773 -0.0746  0.4963 -0.7140
  105OSM   H14F10749   1.132   3.363   8.736 -1.2216  0.3566 -0.4585
  105OSM   H14G10750   1.080   3.198   8.718 -1.1617  1.1650 -0.0289
  105OSM   C15F10751   1.301   3.213   8.728 -0.8029  0.4681  0.6144
  105OSM   H15F10752   1.300   3.210   8.617 -0.7512  1.1709  0.5972
  105OSM   H15G10753   1.297   3.108   8.764 -2.3339  0.9058  1.7545
  105OSM   C16F10754   1.420   3.298   8.773  0.1692 -0.2564  0.0089
  105OSM   H16F10755   1.415   3.317   8.883  0.2217 -0.4942  0.0531
  105OSM   H16G10756   1.428   3.399   8.728 -0.3534  0.4419  1.4537
  105OSM   C17F10757   1.550   3.224   8.748 -0.4674  0.3646  0.5826
  105OSM   H17F10758   1.579   3.203   8.643  0.4840  1.2705  0.6466
  105OSM   H17G10759   1.547   3.125   8.799 -0.7320  0.7051  1.2382
  105OSM   C18F10760   1.669   3.303   8.806  0.6301  0.1599  0.2641
  105OSM   H18F10761   1.678   3.395   8.745  0.7966 -0.3602 -0.4991
  105OSM   H18G10762   1.755   3.233   8.813 -0.1562 -0.7489  1.0136
  105OSM   H18H10763   1.655   3.345   8.908 -0.2353  0.5120  0.0011
  106OSM      N10764   6.265   2.977  10.779 -0.4647  0.1104 -0.3769
  106OSM    C1510765   6.329   2.952  10.912 -0.8243 -0.2708 -0.1392
  106OSM   H15A10766   6.262   2.976  10.994  0.2047 -1.9048  1.2190
  106OSM   H15B10767   6.418   3.013  10.909  0.0088 -1.5465 -2.4892
  106OSM   H15C10768   6.356   2.848  10.926 -0.1604 -0.1156 -0.2837
  106OSM    C1410769   6.135   2.902  10.769 -0.2975 -0.7464  0.0134
  106OSM   H14A10770   6.080   2.915  10.678 -0.5977 -0.8719  0.1783
  106OSM   H14B10771   6.070   2.927  10.852 -2.1685 -0.5105 -1.5128
  106OSM   H14C10772   6.154   2.797  10.786 -1.6958 -1.5651 -3.2601
  106OSM    C1310773   6.224   3.123  10.766  0.5398  0.3969 -0.7809
  106OSM   H13A10774   6.179   3.145  10.862 -0.2048 -0.8790 -0.8325
  106OSM   H13B10775   6.156   3.146  10.685 -1.6786 -0.7108  0.7260
  106OSM   H13C10776   6.313   3.183  10.751 -0.8430  2.4413 -0.8997
  106OSM    C1210777   6.359   2.938  10.665 -0.3274  0.4612  0.0415
  106OSM   H12A10778   6.299   2.952  10.576 -2.5996  0.0120  1.4604
  106OSM   H12B10779   6.370   2.831  10.661  1.0742  0.5181  1.7056
  106OSM    C1110780   6.494   3.004  10.659 -0.3123 -0.2246 -0.2572
  106OSM   H11A10781   6.487   3.106  10.701  1.8624  0.4055 -1.3122
  106OSM   H11B10782   6.523   3.011  10.552  0.3055 -0.2819 -0.0996
  106OSM      P10783   6.734   2.953  10.756  0.6200 -0.2762  0.1957
  106OSM    O1310784   6.763   3.011  10.891 -0.1268 -0.3174  0.0142
  106OSM    O1410785   6.786   2.816  10.731 -0.3069  0.1080  0.2145
  106OSM    O1110786   6.782   3.052  10.643 -0.0047  0.4328 -0.6118
  106OSM    O1210787   6.585   2.934  10.741 -0.5269  0.0079 -0.3458
  106OSM    C1S10788   6.827   2.986  10.524 -0.6902  0.1706 -0.0661
  106OSM    H1S10789   6.747   2.923  10.479 -1.0422  1.4233 -1.2120
  106OSM    H1T10790   6.910   2.913  10.537  0.6954  1.3848 -1.8672
  106OSM     NF10791   6.906   3.025  10.289 -1.1181 -0.1385  0.2955
  106OSM    HNF10792   7.002   3.000  10.282 -1.0453  0.3642 -0.5356
  106OSM    C2S10793   6.864   3.089  10.413 -0.8616  0.5608  0.0883
  106OSM    H2S10794   6.773   3.151  10.397 -0.6820  0.8319  0.1023
  106OSM    C3S10795   6.970   3.193  10.471 -0.0662  0.1147  1.1308
  106OSM    H3S10796   7.047   3.125  10.513 -0.9602 -3.7104 -3.1453
  106OSM     O310797   6.934   3.276  10.585 -0.9985 -0.0539  0.6312
  106OSM    HO310798   6.852   3.233  10.611 -0.6324 -0.8112  0.5575
  106OSM    C4S10799   7.013   3.275  10.363 -0.0239  0.1524  0.1936
  106OSM    H4S10800   6.932   3.334  10.317  1.1253  2.0321  0.5083
  106OSM    C5S10801   7.137   3.292  10.311  0.0616  0.1822 -0.0026
  106OSM    H5S10802   7.225   3.241  10.353  0.5167 -0.1272 -1.3217
  106OSM    C6S10803   7.172   3.385  10.195  0.1078  0.1272  0.7163
  106OSM    H6S10804   7.250   3.337  10.132 -1.7153  1.4009 -2.6160
  106OSM    H6T10805   7.203   3.482  10.240 -0.0088  0.7724 -0.5848
  106OSM    C7S10806   7.050   3.399  10.097 -0.1811 -0.5749 -0.5868
  106OSM    H7S10807   6.973   3.469  10.135  0.7977  0.3547 -0.3007
  106OSM    H7T10808   7.014   3.297  10.073 -0.6195 -0.5643  0.0286
  106OSM    C8S10809   7.102   3.444   9.955  0.1281  0.1837 -0.4957
  106OSM    H8S10810   7.186   3.381   9.918  0.9042  0.0644  1.3988
  106OSM    H8T10811   7.142   3.547   9.959 -2.3726  1.1626  0.3486
  106OSM    C9S10812   6.993   3.430   9.857 -0.4529  0.2898  0.2404
  106OSM    H9S10813   6.904   3.480   9.903 -0.1816 -1.7225  3.0637
  106OSM    H9T10814   6.975   3.324   9.832 -1.8439  0.7003 -0.5876
  106OSM   C10S10815   7.027   3.514   9.719 -0.2650  0.1412 -0.8690
  106OSM   H10S10816   7.130   3.478   9.696 -0.3568 -1.7631  1.4942
  106OSM   H10T10817   7.035   3.621   9.748  1.2936 -1.0316  3.4033
  106OSM   C11S10818   6.938   3.481   9.594 -0.0246 -0.3948 -0.1963
  106OSM   H11S10819   6.835   3.517   9.615  0.0176 -0.1747 -0.3621
  106OSM   H11T10820   6.934   3.370   9.590 -1.9821 -0.3044 -1.4138
  106OSM   C12S10821   6.985   3.532   9.458  0.0784 -0.3577 -0.3145
  106OSM   H12S10822   7.070   3.471   9.421  0.3442 -0.8993  1.1470
  106OSM   H12T10823   7.022   3.635   9.475 -3.5524  0.9570  0.0364
  106OSM   C13S10824   6.869   3.549   9.359 -0.0647  0.1730  0.6328
  106OSM   H13S10825   6.923   3.581   9.267 -0.4204  0.0100  0.3677
  106OSM   H13T10826   6.797   3.631   9.382 -0.7074 -0.5723  1.3113
  106OSM   C14S10827   6.789   3.425   9.320 -0.1995  0.6607  0.1139
  106OSM   H14S10828   6.711   3.396   9.393  0.4571 -2.3956 -0.2899
  106OSM   H14T10829   6.863   3.342   9.319 -1.8131 -0.7995 -0.4756
  106OSM   C15S10830   6.728   3.432   9.172 -0.0663 -0.0408  0.1641
  106OSM   H15S10831   6.819   3.463   9.117  0.0134 -0.9045 -0.1991
  106OSM   H15T10832   6.664   3.522   9.159  0.1915 -0.0484 -1.2049
  106OSM   C16S10833   6.661   3.304   9.120 -0.3292 -0.0509 -0.1796
  106OSM   H16S10834   6.588   3.266   9.194 -0.4447 -1.1347 -0.8506
  106OSM   H16T10835   6.745   3.232   9.114  0.8056  1.3386 -1.5391
  106OSM   C17S10836   6.588   3.323   8.984 -0.5370 -0.3746  0.4007
  106OSM   H17S10837   6.482   3.347   9.008 -1.1318 -0.9874 -1.5519
  106OSM   H17T10838   6.587   3.227   8.929  3.1424 -0.1831 -0.1009
  106OSM   C18S10839   6.652   3.424   8.892 -0.3532  0.3340 -0.2426
  106OSM   H18S10840   6.753   3.380   8.883 -0.9944 -1.0804 -0.6335
  106OSM   H18T10841   6.665   3.524   8.940 -1.5737  1.7506 -2.7706
  106OSM   H18U10842   6.611   3.434   8.790 -0.6023 -0.5333 -0.2332
  106OSM    C1F10843   6.823   2.976  10.204 -0.9230 -0.2464 -0.5934
  106OSM     OF10844   6.705   2.966  10.233  0.1478 -0.1733  0.0545
  106OSM    C2F10845   6.880   2.939  10.069  0.7093 -0.0399 -0.1362
  106OSM    H2F10846   6.859   2.830  10.062  1.6786 -0.1624 -1.3228
  106OSM    H2G10847   6.990   2.934  10.080  0.7738  0.7225 -0.4395
  106OSM    C3F10848   6.831   3.015   9.944  0.4429  0.4660 -0.2803
  106OSM    H3F10849   6.859   3.122   9.942 -0.2958  0.6465 -1.4619
  106OSM    H3G10850   6.721   3.008   9.938  0.4417  0.3452 -0.1124
  106OSM    C4F10851   6.878   2.939   9.819  0.0737 -0.0370 -0.8132
  106OSM    H4F10852   6.831   2.838   9.825 -0.2771  0.2479  1.4479
  106OSM    H4G10853   6.988   2.924   9.809  0.2724  1.2091 -0.5775
  106OSM    C5F10854   6.816   3.005   9.695 -0.0191  0.3024  0.3948
  106OSM    H5F10855   6.883   3.089   9.666 -2.2271  1.8855 -0.2929
  106OSM    H5G10856   6.722   3.061   9.712  0.6309  0.8572  2.2291
  106OSM    C6F10857   6.804   2.912   9.576  0.2543 -0.5320  0.5326
  106OSM    H6F10858   6.723   2.837   9.593 -1.3212  1.0919  0.3887
  106OSM    H6G10859   6.903   2.862   9.569  1.7626  2.5240 -0.7822
  106OSM    C7F10860   6.784   2.989   9.442  0.1075 -0.3118  0.4926
  106OSM    H7F10861   6.844   3.082   9.444  0.1521 -0.2739 -1.4472
  106OSM    H7G10862   6.677   3.019   9.438  0.2389 -0.1089 -1.9362
  106OSM    C8F10863   6.809   2.912   9.306  0.2589 -0.9571 -0.5811
  106OSM    H8F10864   6.916   2.886   9.294  0.4358 -1.1888  1.3296
  106OSM    H8G10865   6.774   2.979   9.225 -1.8595 -1.0380  0.2329
  106OSM    C9F10866   6.730   2.782   9.301 -0.5657  0.3335 -0.1164
  106OSM    H9F10867   6.701   2.742   9.399  3.2804 -1.2237  0.4591
  106OSM   C10F10868   6.676   2.731   9.188  0.5696  0.2648  0.0605
  106OSM   H10F10869   6.638   2.628   9.193  0.1515  0.4712  1.3038
  106OSM   C11F10870   6.688   2.785   9.044  0.5766 -0.7838  0.0623
  106OSM   H11F10871   6.713   2.698   8.980  1.4720 -0.9854  0.6698
  106OSM   H11G10872   6.786   2.838   9.040 -0.7026  1.6986  0.1662
  106OSM   C12F10873   6.576   2.876   8.996  0.1708 -0.5816 -0.6472
  106OSM   H12F10874   6.585   2.980   9.035  1.8752  0.0115 -2.5454
  106OSM   H12G10875   6.475   2.838   9.023  1.9310 -3.2812  2.4163
  106OSM   C13F10876   6.575   2.883   8.844 -0.0849  1.1442 -0.1780
  106OSM   H13F10877   6.680   2.894   8.809  0.3316 -1.8650 -0.0176
  106OSM   H13G10878   6.510   2.970   8.819 -0.4425  0.9391  0.0348
  106OSM   C14F10879   6.521   2.757   8.774 -0.3181 -0.3920 -0.5900
  106OSM   H14F10880   6.425   2.721   8.815  1.5964 -2.8713  1.9525
  106OSM   H14G10881   6.594   2.680   8.809 -0.2213  0.8302  1.9819
  106OSM   C15F10882   6.525   2.772   8.626  0.0410  0.4443  0.1648
  106OSM   H15F10883   6.520   2.675   8.571 -0.6294  1.6658 -2.0064
  106OSM   H15G10884   6.623   2.811   8.592  0.1037 -1.1154 -1.5084
  106OSM   C16F10885   6.409   2.858   8.569 -0.0626  0.2997 -0.7096
  106OSM   H16F10886   6.421   2.853   8.459  0.3842  1.6819 -0.7251
  106OSM   H16G10887   6.423   2.965   8.594  1.1064  0.2770 -1.2387
  106OSM   C17F10888   6.263   2.811   8.594  0.0544 -0.3769 -0.2720
  106OSM   H17F10889   6.212   2.892   8.537 -0.5381 -0.3756  0.2543
  106OSM   H17G10890   6.231   2.811   8.700  0.6056  2.6430 -0.0771
  106OSM   C18F10891   6.235   2.675   8.536  0.1567 -0.2772  0.1680
  106OSM   H18F10892   6.302   2.597   8.578  2.1004  1.3053  0.0281
  106OSM   H18G10893   6.254   2.675   8.427 -1.0404  0.4958 -0.0492
  106OSM   H18H10894   6.127   2.648   8.549  0.1655 -0.8419 -0.8747
  107OSM      N10895   3.017   0.561  10.946 -0.3943  0.0391  0.2565
  107OSM    C1510896   3.004   0.697  10.894 -0.0203 -0.0172  0.2840
  107OSM   H15A10897   3.074   0.764  10.941  4.1028 -1.9066 -2.8056
  107OSM   H15B10898   2.902   0.720  10.921  0.2356 -1.0524  2.2735
  107OSM   H15C10899   3.014   0.689  10.787  0.5999  1.6534  0.2096
  107OSM    C1410900   2.989   0.558  11.098  0.1190 -0.0437 -0.0655
  107OSM   H14A10901   2.889   0.594  11.120 -0.3090 -1.4318  0.3040
  107OSM   H14B10902   3.064   0.614  11.151 -1.3381  0.3809  1.5691
  107OSM   H14C10903   2.996   0.459  11.139 -1.1220 -0.5973 -1.1363
  107OSM    C1310904   2.919   0.480  10.881 -0.4092  0.4484 -0.2613
  107OSM   H13A10905   2.819   0.503  10.916 -0.5086 -0.9495  0.4126
  107OSM   H13B10906   2.942   0.377  10.905 -0.8263  0.4568  0.1841
  107OSM   H13C10907   2.925   0.484  10.773  0.4040  0.7932 -0.2039
  107OSM    C1210908   3.155   0.509  10.909 -0.9770  0.2428 -0.1688
  107OSM   H12A10909   3.228   0.587  10.925 -0.2404 -0.4485 -0.1556
  107OSM   H12B10910   3.167   0.475  10.807 -2.5229  1.3116 -0.7133
  107OSM    C1110911   3.210   0.393  10.999  0.0215  0.4300 -0.4550
  107OSM   H11A10912   3.131   0.317  11.017  0.6560  0.1424  1.2072
  107OSM   H11B10913   3.234   0.439  11.097 -1.7287 -0.3367  0.3704
  107OSM      P10914   3.333   0.222  10.846  0.1361 -0.0917 -0.0686
  107OSM    O1310915   3.475   0.184  10.834 -0.0813 -0.1572  0.3356
  107OSM    O1410916   3.240   0.120  10.899 -0.1271  0.3878  0.4621
  107OSM    O1110917   3.272   0.284  10.714 -0.0697  0.0498  0.7478
  107OSM    O1210918   3.329   0.344  10.941 -0.4903  0.1840 -0.2233
  107OSM    C1S10919   3.351   0.359  10.622 -0.7518 -0.0368 -0.1974
  107OSM    H1S10920   3.444   0.301  10.603  0.6749  1.6976  1.3384
  107OSM    H1T10921   3.370   0.463  10.654 -3.3392  1.1514 -2.3987
  107OSM     NF10922   3.388   0.448  10.396 -0.1357  0.2706 -0.5352
  107OSM    HNF10923   3.378   0.538  10.354  0.7689  1.1537  1.1044
  107OSM    C2S10924   3.285   0.399  10.482 -0.1078  0.3342 -0.5025
  107OSM    H2S10925   3.259   0.299  10.439 -0.7131 -0.5445  1.8467
  107OSM    C3S10926   3.168   0.493  10.494  0.5391 -0.6595  0.9169
  107OSM    H3S10927   3.197   0.592  10.536 -0.4303 -0.2215  0.5694
  107OSM     O310928   3.062   0.449  10.577  0.2600  0.4319 -0.7777
  107OSM    HO310929   3.103   0.374  10.621  2.1549  1.5734 -0.5544
  107OSM    C4S10930   3.102   0.518  10.357  0.2809 -0.0589  0.1515
  107OSM    H4S10931   3.142   0.613  10.317  1.3564 -0.0309  1.2552
  107OSM    C5S10932   3.016   0.436  10.298 -0.1817 -0.2630 -0.0819
  107OSM    H5S10933   2.997   0.335  10.338 -1.4863 -0.6748 -1.6762
  107OSM    C6S10934   2.952   0.465  10.166 -1.2131  0.8605  0.4377
  107OSM    H6S10935   3.029   0.438  10.090 -1.3718 -1.4497  1.0389
  107OSM    H6T10936   2.924   0.571  10.153  0.5339  1.1371 -1.3129
  107OSM    C7S10937   2.840   0.361  10.150  0.3730 -0.2931 -0.3968
  107OSM    H7S10938   2.772   0.382  10.236  2.4260  1.6490  0.8284
  107OSM    H7T10939   2.873   0.255  10.157 -0.4513 -0.4040  2.8372
  107OSM    C8S10940   2.766   0.381  10.015  0.4817 -0.7254 -0.2504
  107OSM    H8S10941   2.661   0.347  10.026 -0.3755  1.7643 -0.3169
  107OSM    H8T10942   2.813   0.315   9.940  0.3605  0.3998 -1.3411
  107OSM    C9S10943   2.767   0.525   9.958 -0.3897 -0.1478 -0.4446
  107OSM    H9S10944   2.871   0.537   9.921 -0.6283 -0.6947 -1.3245
  107OSM    H9T10945   2.770   0.600  10.039  1.6661 -0.0671 -0.5683
  107OSM   C10S10946   2.648   0.546   9.868 -0.2059  0.1546  0.3517
  107OSM   H10S10947   2.666   0.648   9.828  0.4008 -0.4798 -1.0434
  107OSM   H10T10948   2.552   0.534   9.922  1.2442  0.1636  3.0451
  107OSM   C11S10949   2.632   0.457   9.744  0.3169 -0.0987 -0.0638
  107OSM   H11S10950   2.592   0.363   9.787  1.7462 -0.9095 -0.4692
  107OSM   H11T10951   2.737   0.442   9.710 -0.6387 -0.1327 -3.0981
  107OSM   C12S10952   2.558   0.512   9.626  0.9282  0.2040  0.4725
  107OSM   H12S10953   2.557   0.623   9.631 -1.6134  0.3268 -1.4046
  107OSM   H12T10954   2.455   0.470   9.627  1.3514 -1.0283 -1.8347
  107OSM   C13S10955   2.634   0.466   9.497 -0.4095  0.5167  0.1634
  107OSM   H13S10956   2.604   0.360   9.481 -1.0746  0.6317  0.5955
  107OSM   H13T10957   2.742   0.489   9.503 -0.2541 -0.4960  1.4898
  107OSM   C14S10958   2.587   0.548   9.379  0.2413 -0.0313  0.5720
  107OSM   H14S10959   2.609   0.652   9.410 -0.6618 -0.5912  3.1816
  107OSM   H14T10960   2.476   0.542   9.369  0.2834 -0.5254  0.4017
  107OSM   C15S10961   2.649   0.521   9.241 -0.2741  0.5379 -0.1393
  107OSM   H15S10962   2.759   0.509   9.247 -0.3052  0.0973 -0.3609
  107OSM   H15T10963   2.633   0.604   9.169 -0.0218  1.2123  0.5831
  107OSM   C16S10964   2.615   0.380   9.175  0.5609 -0.5292 -0.0201
  107OSM   H16S10965   2.506   0.355   9.178  0.0208  1.7118 -0.3389
  107OSM   H16T10966   2.663   0.294   9.227  2.8586  1.4973  1.3249
  107OSM   C17S10967   2.648   0.379   9.026  0.3371  0.4537 -0.1068
  107OSM   H17S10968   2.756   0.405   9.014  0.5753 -0.7092 -0.5495
  107OSM   H17T10969   2.590   0.458   8.973 -3.9817 -2.1217  0.5811
  107OSM   C18S10970   2.617   0.246   8.953  0.2999 -0.1603 -0.7363
  107OSM   H18S10971   2.665   0.166   9.014  1.2663 -0.0124 -1.2999
  107OSM   H18T10972   2.669   0.235   8.855  1.3851  0.9036 -0.2948
  107OSM   H18U10973   2.510   0.217   8.949 -0.0401  0.8850  0.4758
  107OSM    C1F10974   3.488   0.375  10.361  0.2340  0.3340  0.1627
  107OSM     OF10975   3.480   0.255  10.363 -0.4191  0.0050  0.0435
  107OSM    C2F10976   3.615   0.449  10.322  0.4338  0.0743  0.2259
  107OSM    H2F10977   3.671   0.460  10.417 -0.2803  1.6825  0.4735
  107OSM    H2G10978   3.588   0.553  10.295  0.2490 -0.0573 -0.0921
  107OSM    C3F10979   3.682   0.375  10.204 -0.3089 -0.1919  0.3886
  107OSM    H3F10980   3.607   0.310  10.154 -0.5593 -1.7602  2.7241
  107OSM    H3G10981   3.757   0.301  10.240 -0.3574  1.5052  4.1841
  107OSM    C4F10982   3.764   0.474  10.117  0.3438 -0.2849 -0.6193
  107OSM    H4F10983   3.842   0.525  10.178  0.9496 -1.1054 -0.7015
  107OSM    H4G10984   3.692   0.550  10.080 -0.3614 -0.3219  0.6345
  107OSM    C5F10985   3.830   0.416   9.993  0.4447  0.1360  1.2946
  107OSM    H5F10986   3.893   0.324  10.000 -1.8208 -1.4871  0.8644
  107OSM    H5G10987   3.902   0.482   9.939  0.6604 -0.9005  0.2836
  107OSM    C6F10988   3.727   0.374   9.890 -0.3840  0.7536  0.6006
  107OSM    H6F10989   3.653   0.457   9.888 -0.8546  0.3358  0.5496
  107OSM    H6G10990   3.678   0.281   9.925 -3.0300  1.4952 -0.9422
  107OSM    C7F10991   3.794   0.352   9.754  1.0552 -0.0592  1.0698
  107OSM    H7F10992   3.883   0.288   9.773  0.6192 -0.5305  1.5332
  107OSM    H7G10993   3.841   0.443   9.710  1.2854 -1.0281 -0.7374
  107OSM    C8F10994   3.697   0.278   9.647  0.4928 -0.5862  0.7816
  107OSM    H8F10995   3.670   0.182   9.696  0.0233 -1.5345 -1.2802
  107OSM    H8G10996   3.769   0.271   9.563 -0.9533  1.0426 -0.6361
  107OSM    C9F10997   3.576   0.366   9.616 -0.7837  0.5087 -0.2379
  107OSM    H9F10998   3.502   0.387   9.694 -0.1179  0.2394  0.4670
  107OSM   C10F10999   3.540   0.410   9.497 -0.8551  0.1853  0.0714
  107OSM   H10F11000   3.457   0.481   9.502  0.0885  1.2088  1.8219
  107OSM   C11F11001   3.620   0.398   9.370 -0.8776 -0.1821 -0.4801
  107OSM   H11F11002   3.722   0.362   9.394 -0.1978  1.5375 -0.6889
  107OSM   H11G11003   3.641   0.498   9.325 -1.4522  0.1356 -0.0587
  107OSM   C12F11004   3.559   0.292   9.267  0.2131 -0.3871 -0.0666
  107OSM   H12F11005   3.517   0.211   9.331 -2.0652  2.3966  2.1414
  107OSM   H12G11006   3.636   0.261   9.193  0.1929 -0.8828  0.1199
  107OSM   C13F11007   3.435   0.346   9.188  0.0061  0.6016 -0.0125
  107OSM   H13F11008   3.375   0.401   9.263  0.8830  0.1975  0.9948
  107OSM   H13G11009   3.375   0.263   9.144 -0.5081  0.4023  1.0442
  107OSM   C14F11010   3.459   0.465   9.098 -0.2006  0.1601 -0.2424
  107OSM   H14F11011   3.520   0.541   9.152 -1.2634  1.3197 -0.6506
  107OSM   H14G11012   3.364   0.521   9.089 -0.9826 -0.9637  1.0065
  107OSM   C15F11013   3.528   0.438   8.969 -0.0706  0.6683 -0.0973
  107OSM   H15F11014   3.476   0.356   8.916 -0.2456  0.1668  0.8448
  107OSM   H15G11015   3.632   0.403   8.986 -0.4364  0.4163  1.6219
  107OSM   C16F11016   3.543   0.563   8.876  0.3284 -0.3717  0.2624
  107OSM   H16F11017   3.441   0.595   8.846  1.0301  0.5592 -1.2094
  107OSM   H16G11018   3.593   0.531   8.782 -2.6103 -1.7535 -0.9108
  107OSM   C17F11019   3.624   0.686   8.922  0.2144  0.4715 -0.6365
  107OSM   H17F11020   3.620   0.710   9.031 -0.2946  1.7846 -0.9358
  107OSM   H17G11021   3.581   0.764   8.855  1.9476  2.1784  0.1746
  107OSM   C18F11022   3.774   0.664   8.905  0.1989  0.3673  0.0492
  107OSM   H18F11023   3.828   0.757   8.932  0.0142 -0.1016  2.1722
  107OSM   H18G11024   3.801   0.642   8.800  0.8694 -1.8174  0.6596
  107OSM   H18H11025   3.812   0.578   8.965 -0.4105 -0.4291 -0.6885
  108OSM      N11026   6.449   1.685  10.913  0.2426 -0.3720 -0.0213
  108OSM    C1511027   6.364   1.591  10.832 -0.3693 -0.2188 -0.0074
  108OSM   H15A11028   6.305   1.652  10.764  0.4645 -0.0174 -0.5521
  108OSM   H15B11029   6.305   1.535  10.902  0.9564 -2.0274 -0.3245
  108OSM   H15C11030   6.419   1.516  10.778  0.5137 -0.3249  1.0454
  108OSM    C1411031   6.493   1.611  11.034 -0.1100  0.5638  0.3942
  108OSM   H14A11032   6.419   1.605  11.113 -0.3684  1.0764  0.1963
  108OSM   H14B11033   6.585   1.647  11.076  0.6070  0.0995 -0.7720
  108OSM   H14C11034   6.520   1.510  11.008  2.1677  1.6148 -1.3835
  108OSM    C1311035   6.563   1.712  10.827  0.6906  0.0248 -0.2445
  108OSM   H13A11036   6.633   1.783  10.869 -0.5940 -0.0339  2.0402
  108OSM   H13B11037   6.535   1.760  10.734 -2.3289  0.3381  0.7653
  108OSM   H13C11038   6.614   1.620  10.803  0.4161 -0.5481  1.3399
  108OSM    C1211039   6.377   1.820  10.951 -0.0321 -0.5008 -0.1649
  108OSM   H12A11040   6.441   1.883  11.011  2.0666 -1.9256 -0.8638
  108OSM   H12B11041   6.293   1.796  11.016  0.4647 -1.3431  0.1803
  108OSM    C1111042   6.325   1.921  10.839 -0.0568  0.2147  0.5123
  108OSM   H11A11043   6.263   1.996  10.894 -0.4349 -0.6412  1.2549
  108OSM   H11B11044   6.254   1.857  10.782  1.1778 -2.4459  1.9173
  108OSM      P11045   6.448   1.994  10.619 -0.0242 -0.3579 -0.3450
  108OSM    O1311046   6.315   2.037  10.563  0.1569  0.4395 -0.3751
  108OSM    O1411047   6.559   2.079  10.585  0.4211 -0.2978  0.3057
  108OSM    O1111048   6.481   1.842  10.578 -0.2892 -0.5404  0.2090
  108OSM    O1211049   6.435   1.979  10.771  0.0619  0.1507  0.1624
  108OSM    C1S11050   6.379   1.765  10.518 -0.1035 -0.8384  0.3254
  108OSM    H1S11051   6.286   1.822  10.500  0.7919  0.5478 -0.0003
  108OSM    H1T11052   6.349   1.683  10.586 -1.1177 -0.8885 -0.1682
  108OSM     NF11053   6.325   1.616  10.340 -0.4455 -0.2327 -0.1661
  108OSM    HNF11054   6.313   1.530  10.389 -1.9212  0.0153 -0.0691
  108OSM    C2S11055   6.429   1.701  10.390 -0.0024 -0.5495  0.0003
  108OSM    H2S11056   6.447   1.783  10.317  1.3416 -0.1673  0.7513
  108OSM    C3S11057   6.570   1.637  10.399  0.1436 -0.1084  0.3072
  108OSM    H3S11058   6.574   1.562  10.482 -0.5535 -1.0855 -0.5217
  108OSM     O311059   6.674   1.733  10.400 -0.0706  0.0925  0.0081
  108OSM    HO311060   6.639   1.804  10.454 -2.7378 -0.5622 -0.7736
  108OSM    C4S11061   6.592   1.559  10.267  0.6042  0.1449 -0.1959
  108OSM    H4S11062   6.569   1.624  10.181  2.6606  1.6355  0.3496
  108OSM    C5S11063   6.648   1.437  10.248 -1.2905  0.5571  0.4227
  108OSM    H5S11064   6.697   1.376  10.325  2.1150  0.6060 -1.6044
  108OSM    C6S11065   6.672   1.384  10.113 -0.2138  0.1863 -0.3491
  108OSM    H6S11066   6.627   1.282  10.105  3.3120 -1.5794  1.1925
  108OSM    H6T11067   6.780   1.366  10.096 -0.8710 -2.9775 -1.5697
  108OSM    C7S11068   6.608   1.460   9.990 -0.3816 -0.0352 -0.1624
  108OSM    H7S11069   6.648   1.562   9.974 -1.0792  0.2299 -0.2283
  108OSM    H7T11070   6.498   1.464  10.006 -0.4468 -0.7997 -0.3630
  108OSM    C8S11071   6.636   1.374   9.862  0.1844 -0.2596  0.1134
  108OSM    H8S11072   6.604   1.270   9.884  0.2621 -1.1153 -3.5111
  108OSM    H8T11073   6.746   1.378   9.845  0.3581 -0.5364  1.1617
  108OSM    C9S11074   6.552   1.421   9.739  0.1463 -0.0620  0.0108
  108OSM    H9S11075   6.557   1.532   9.742  1.5879 -0.1427  0.9259
  108OSM    H9T11076   6.457   1.370   9.765  1.6270 -1.6434  2.4680
  108OSM   C10S11077   6.615   1.358   9.615  0.3722 -0.0248 -0.3366
  108OSM   H10S11078   6.606   1.249   9.631 -0.2417  0.1436  0.5246
  108OSM   H10T11079   6.723   1.387   9.612  1.5319 -3.8944  1.1043
  108OSM   C11S11080   6.554   1.420   9.487  0.2466  0.5896  0.5704
  108OSM   H11S11081   6.548   1.528   9.513  3.6783  1.2208 -1.0529
  108OSM   H11T11082   6.452   1.375   9.483  0.0462  1.1479 -1.0277
  108OSM   C12S11083   6.630   1.394   9.360  0.0086 -0.0357 -0.7901
  108OSM   H12S11084   6.639   1.284   9.344  0.7817 -0.0113 -0.5780
  108OSM   H12T11085   6.732   1.438   9.371 -0.9580  1.9162  0.4751
  108OSM   C13S11086   6.555   1.462   9.246 -0.0776 -0.7728  0.2710
  108OSM   H13S11087   6.534   1.569   9.268  1.8065  0.1450 -2.2318
  108OSM   H13T11088   6.460   1.405   9.253 -1.4209  1.6042  2.4537
  108OSM   C14S11089   6.621   1.439   9.112  0.3019 -0.4147  0.2719
  108OSM   H14S11090   6.628   1.331   9.090 -1.2136 -0.3449 -0.5932
  108OSM   H14T11091   6.727   1.461   9.136  0.2791 -1.0042  0.9002
  108OSM   C15S11092   6.559   1.520   9.002 -0.4792 -0.2497 -0.7333
  108OSM   H15S11093   6.559   1.627   9.033 -0.8936  0.5989 -3.5371
  108OSM   H15T11094   6.453   1.489   8.996 -0.1335 -1.5163 -0.4825
  108OSM   C16S11095   6.642   1.506   8.864  0.2386  0.4180 -0.6928
  108OSM   H16S11096   6.641   1.398   8.838  1.3934  0.1805  0.2520
  108OSM   H16T11097   6.748   1.535   8.881  1.0231 -0.4882 -3.6904
  108OSM   C17S11098   6.596   1.591   8.743  0.1091 -0.0954 -0.9607
  108OSM   H17S11099   6.654   1.557   8.655 -0.9390 -0.8734 -1.3528
  108OSM   H17T11100   6.627   1.696   8.764  0.1201 -0.6915  2.1966
  108OSM   C18S11101   6.449   1.589   8.716  0.6356 -0.3068 -0.6924
  108OSM   H18S11102   6.424   1.484   8.692 -0.2819 -0.2425 -0.0576
  108OSM   H18T11103   6.406   1.661   8.644  0.4977 -1.2705 -1.5788
  108OSM   H18U11104   6.401   1.601   8.816  3.3128  1.0532  0.4925
  108OSM    C1F11105   6.216   1.669  10.283  0.0111  0.9542  0.2940
  108OSM     OF11106   6.218   1.786  10.252  0.2294 -0.2516  0.4867
  108OSM    C2F11107   6.095   1.586  10.258 -0.5303  0.8828 -1.2455
  108OSM    H2F11108   6.003   1.642  10.285 -1.3347 -1.5546  1.3075
  108OSM    H2G11109   6.099   1.496  10.323 -0.9478  0.5609 -1.6617
  108OSM    C3F11110   6.088   1.544  10.109  0.3712 -0.0640  0.0332
  108OSM    H3F11111   6.077   1.638  10.053  2.2121  0.8134  1.0779
  108OSM    H3G11112   5.996   1.487  10.084  3.0547 -3.7267 -2.1278
  108OSM    C4F11113   6.204   1.465  10.053 -0.0520 -0.1781  0.6304
  108OSM    H4F11114   6.239   1.378  10.112 -0.6948 -1.4586 -0.8375
  108OSM    H4G11115   6.289   1.536  10.042  2.0930 -2.8553 -0.8063
  108OSM    C5F11116   6.180   1.405   9.913  0.0010  0.1025 -0.8771
  108OSM    H5F11117   6.081   1.357   9.903 -0.1679  0.3858 -0.5619
  108OSM    H5G11118   6.257   1.332   9.879 -2.7496 -2.2999 -2.0657
  108OSM    C6F11119   6.192   1.511   9.796  0.3146  0.4887 -0.0593
  108OSM    H6F11120   6.296   1.548   9.796  0.7517 -0.6965  1.5603
  108OSM    H6G11121   6.118   1.594   9.808 -0.1066 -0.0239  0.9644
  108OSM    C7F11122   6.177   1.452   9.654 -0.0095  0.4241  0.6137
  108OSM    H7F11123   6.076   1.407   9.661  0.3357 -0.0707  3.2092
  108OSM    H7G11124   6.256   1.374   9.649 -0.8411 -0.5649  2.3706
  108OSM    C8F11125   6.165   1.556   9.538 -0.2852 -0.0724  0.5606
  108OSM    H8F11126   6.269   1.593   9.521 -0.5228 -0.3616 -1.5897
  108OSM    H8G11127   6.094   1.639   9.558 -1.1185 -0.4486 -0.8102
  108OSM    C9F11128   6.126   1.484   9.416 -0.2697 -0.5667 -0.7402
  108OSM    H9F11129   6.062   1.398   9.440 -0.9346  0.5079  1.4584
  108OSM   C10F11130   6.147   1.503   9.293  0.1783  0.1303  0.3521
  108OSM   H10F11131   6.120   1.419   9.227 -0.0222  0.3595  0.1397
  108OSM   C11F11132   6.210   1.627   9.234 -0.1021 -0.2280 -0.3381
  108OSM   H11F11133   6.320   1.617   9.217 -0.0711  0.8047 -0.7503
  108OSM   H11G11134   6.202   1.712   9.305 -2.6512 -1.2064  0.5877
  108OSM   C12F11135   6.146   1.673   9.102 -0.3075 -0.2994  0.4563
  108OSM   H12F11136   6.035   1.678   9.105 -0.3652 -1.0558 -0.3303
  108OSM   H12G11137   6.176   1.604   9.020  0.7711  0.0994  0.5006
  108OSM   C13F11138   6.211   1.801   9.042 -0.2015 -0.3971  0.6227
  108OSM   H13F11139   6.321   1.793   9.039 -0.0689  1.6317 -0.8522
  108OSM   H13G11140   6.190   1.899   9.090  0.0784 -0.3515  0.6535
  108OSM   C14F11141   6.174   1.817   8.891  0.3682 -0.7788  0.0929
  108OSM   H14F11142   6.065   1.832   8.883  0.3729 -1.2607 -0.9762
  108OSM   H14G11143   6.188   1.714   8.853 -0.4406 -1.3470  1.3295
  108OSM   C15F11144   6.257   1.913   8.807 -0.0129 -0.5123  0.7134
  108OSM   H15F11145   6.366   1.891   8.815 -0.2469 -1.7605  0.6014
  108OSM   H15G11146   6.245   2.016   8.845  1.4038 -0.2854  0.5777
  108OSM   C16F11147   6.209   1.915   8.659 -0.3006  0.6804 -0.7311
  108OSM   H16F11148   6.098   1.914   8.655 -0.3035  2.6141 -1.4698
  108OSM   H16G11149   6.226   1.812   8.621  1.6759  0.2889  1.0776
  108OSM   C17F11150   6.275   2.022   8.574  0.3588  0.1612  0.2648
  108OSM   H17F11151   6.267   2.121   8.625  0.9317  0.8739 -1.0180
  108OSM   H17G11152   6.217   2.022   8.479  0.0715 -1.7677  0.4293
  108OSM   C18F11153   6.427   1.999   8.547  0.1427  0.3845  0.4750
  108OSM   H18F11154   6.453   1.915   8.478 -0.9670 -1.4220  2.2025
  108OSM   H18G11155   6.471   1.966   8.644 -0.2881 -2.8208 -0.3686
  108OSM   H18H11156   6.486   2.090   8.521  1.9980 -0.5095  1.4046
  109OSM      N11157   5.774   6.584  10.751  0.3728  0.4850  0.9738
  109OSM    C1511158   5.654   6.490  10.743  0.2905  0.0406 -0.3542
  109OSM   H15A11159   5.577   6.538  10.802  2.5681  1.1729  1.7634
  109OSM   H15B11160   5.674   6.392  10.783 -0.4589  0.0002 -0.0667
  109OSM   H15C11161   5.619   6.485  10.641 -0.8895 -2.2409  0.1361
  109OSM    C1411162   5.894   6.503  10.700 -0.5747  0.0151  1.2085
  109OSM   H14A11163   5.934   6.418  10.754  1.7770  0.1027 -0.2990
  109OSM   H14B11164   5.980   6.568  10.699 -0.0671 -0.6432 -1.4674
  109OSM   H14C11165   5.867   6.486  10.597  0.5229  3.3214  0.3072
  109OSM    C1311166   5.740   6.700  10.667  0.3024  0.5169  0.2146
  109OSM   H13A11167   5.816   6.773  10.689  1.4332 -0.2555 -1.0351
  109OSM   H13B11168   5.645   6.741  10.698  1.2251  1.6538  1.6089
  109OSM   H13C11169   5.742   6.683  10.560 -0.5048 -2.7786  0.6425
  109OSM    C1211170   5.797   6.637  10.894  0.1263  1.2777  0.6485
  109OSM   H12A11171   5.895   6.682  10.894  0.7125  0.0665 -0.8573
  109OSM   H12B11172   5.804   6.552  10.960  0.6826 -0.6548 -1.8269
  109OSM    C1111173   5.696   6.739  10.947 -0.4086 -0.1841 -0.1688
  109OSM   H11A11174   5.697   6.829  10.883 -0.2959  1.3946  2.0128
  109OSM   H11B11175   5.721   6.781  11.046 -1.0700 -1.3935  0.5326
  109OSM      P11176   5.429   6.744  10.910 -0.2186  0.1314  0.5799
  109OSM    O1311177   5.342   6.628  10.928  0.3890 -0.0555 -0.1374
  109OSM    O1411178   5.392   6.869  10.982  0.3173 -0.6107  0.1665
  109OSM    O1111179   5.456   6.778  10.752 -0.8102 -0.1143 -0.3289
  109OSM    O1211180   5.565   6.689  10.960  0.0486 -0.5931 -0.6431
  109OSM    C1S11181   5.464   6.904  10.683 -0.7993  0.7243 -0.1052
  109OSM    H1S11182   5.567   6.930  10.653 -0.2677 -0.0383  1.0221
  109OSM    H1T11183   5.432   6.982  10.756  0.2884 -0.9226  2.2083
  109OSM     NF11184   5.416   7.022  10.481  0.0526  0.2048  0.0466
  109OSM    HNF11185   5.378   7.113  10.498 -1.5289 -0.0117 -2.1651
  109OSM    C2S11186   5.371   6.904  10.556 -0.1968 -0.9097 -0.3092
  109OSM    H2S11187   5.395   6.816  10.493 -0.5606 -1.2026 -0.0407
  109OSM    C3S11188   5.224   6.900  10.604  0.3040 -0.2160 -0.6810
  109OSM    H3S11189   5.217   6.987  10.674  1.2459 -1.5087  1.0710
  109OSM     O311190   5.191   6.781  10.685 -0.1077 -0.6559 -0.4801
  109OSM    HO311191   5.279   6.752  10.710 -0.1799 -0.4646 -0.0002
  109OSM    C4S11192   5.117   6.926  10.493 -1.1862 -0.0482 -0.5628
  109OSM    H4S11193   5.081   7.030  10.494 -0.7694  0.1180  1.8506
  109OSM    C5S11194   5.068   6.838  10.402  0.1820  0.2120  0.1442
  109OSM    H5S11195   5.116   6.739  10.403  1.2379  0.7189  0.9329
  109OSM    C6S11196   4.963   6.862  10.291  0.4916  0.1731 -1.2220
  109OSM    H6S11197   4.896   6.950  10.307 -2.8297 -2.0560 -2.3162
  109OSM    H6T11198   4.891   6.778  10.287  0.7214 -0.1010  0.0302
  109OSM    C7S11199   5.020   6.906  10.153  0.1452  0.1662 -0.5903
  109OSM    H7S11200   5.058   7.009  10.166 -0.5548  0.2896  0.5721
  109OSM    H7T11201   4.940   6.896  10.077  1.2036  0.2543 -1.7341
  109OSM    C8S11202   5.138   6.832  10.101 -0.3387  0.3835  0.5058
  109OSM    H8S11203   5.110   6.725  10.114  0.8814 -0.1915 -1.4717
  109OSM    H8T11204   5.230   6.844  10.162 -0.1916 -0.8543  0.5567
  109OSM    C9S11205   5.177   6.857   9.955  0.7620  0.2454  0.3185
  109OSM    H9S11206   5.098   6.814   9.890  0.8303 -0.1507  0.4956
  109OSM    H9T11207   5.266   6.795   9.930  1.7632  0.5775  2.8518
  109OSM   C10S11208   5.205   7.007   9.934  0.3513  0.1005 -0.9899
  109OSM   H10S11209   5.284   7.049  10.000 -0.0757 -0.0439 -0.3821
  109OSM   H10T11210   5.114   7.066   9.955  2.1458  3.3257 -1.9930
  109OSM   C11S11211   5.243   7.041   9.798 -0.2137 -0.0764 -0.0888
  109OSM   H11S11212   5.251   7.150   9.779  0.2205  0.0329  0.6938
  109OSM   H11T11213   5.172   7.010   9.717 -0.9013 -0.6910  0.7433
  109OSM   C12S11214   5.383   6.983   9.750  0.0768 -0.1850 -0.5319
  109OSM   H12S11215   5.380   6.872   9.754 -1.8910 -0.1162  0.4787
  109OSM   H12T11216   5.456   7.016   9.827 -1.6370 -0.8939  1.4251
  109OSM   C13S11217   5.418   7.047   9.610  0.2555 -0.5236 -0.3254
  109OSM   H13S11218   5.431   7.157   9.623  2.7360 -0.8046 -0.2550
  109OSM   H13T11219   5.330   7.030   9.545  0.2607 -1.1728 -0.1704
  109OSM   C14S11220   5.554   7.000   9.553 -0.0729 -0.3846  0.3472
  109OSM   H14S11221   5.575   7.060   9.462 -0.3770 -0.4479  0.2346
  109OSM   H14T11222   5.551   6.890   9.544 -1.1442 -0.3435  0.0771
  109OSM   C15S11223   5.679   7.033   9.643 -0.2620  0.3298  0.5503
  109OSM   H15S11224   5.656   6.984   9.741 -0.1334  1.6656  1.2537
  109OSM   H15T11225   5.680   7.142   9.663 -0.7993  0.2013  1.3121
  109OSM   C16S11226   5.805   6.963   9.587  0.4981  0.2754 -0.2781
  109OSM   H16S11227   5.818   7.036   9.505  2.1620 -0.3126 -0.5697
  109OSM   H16T11228   5.786   6.862   9.546 -0.2704  0.0620  0.5817
  109OSM   C17S11229   5.922   6.970   9.691  0.1717 -0.3322  0.4819
  109OSM   H17S11230   6.011   6.945   9.629  0.1008  0.2052  0.1519
  109OSM   H17T11231   5.915   6.896   9.773  0.6219 -1.6614 -0.6441
  109OSM   C18S11232   5.939   7.118   9.738 -0.7325  0.5341  0.3471
  109OSM   H18S11233   6.035   7.152   9.785  0.5740 -0.2696 -1.6970
  109OSM   H18T11234   5.859   7.149   9.809 -0.1261  3.5741 -0.2301
  109OSM   H18U11235   5.930   7.189   9.653 -1.8661 -0.5653 -0.4610
  109OSM    C1F11236   5.528   7.021  10.411  0.1440 -0.4400 -0.4913
  109OSM     OF11237   5.601   6.925  10.404 -0.2865 -0.5387  0.2826
  109OSM    C2F11238   5.545   7.143  10.328 -0.0919 -0.6034  0.0835
  109OSM    H2F11239   5.532   7.232  10.393 -1.9028 -1.0490  0.3528
  109OSM    H2G11240   5.473   7.154  10.244  1.6591  0.3419 -1.3252
  109OSM    C3F11241   5.692   7.144  10.274  0.8863  0.1260  1.0921
  109OSM    H3F11242   5.713   7.066  10.198 -1.3551  1.2973 -0.7825
  109OSM    H3G11243   5.760   7.126  10.360  0.0359  0.7947  1.9078
  109OSM    C4F11244   5.720   7.271  10.195  0.6011  0.4561 -0.3218
  109OSM    H4F11245   5.828   7.268  10.172  0.7229 -0.1335  0.3046
  109OSM    H4G11246   5.706   7.362  10.257 -0.5690 -0.5227  0.8781
  109OSM    C5F11247   5.646   7.272  10.063 -0.2364  0.3696 -0.8845
  109OSM    H5F11248   5.541   7.291  10.094 -0.4811 -2.2381 -0.0039
  109OSM    H5G11249   5.641   7.171  10.018  1.2558  0.1869 -0.6983
  109OSM    C6F11250   5.701   7.388   9.966  0.2317  0.2636 -0.5131
  109OSM    H6F11251   5.786   7.336   9.916  1.2390 -0.0679  1.4885
  109OSM    H6G11252   5.750   7.471  10.022  0.1129  1.8521 -2.7091
  109OSM    C7F11253   5.601   7.431   9.857  0.3260 -0.3238 -0.6593
  109OSM    H7F11254   5.527   7.505   9.895  0.7514  0.1780 -0.8029
  109OSM    H7G11255   5.553   7.333   9.835 -3.2768  0.5652  2.5426
  109OSM    C8F11256   5.653   7.492   9.729  0.4805 -0.6611 -0.1936
  109OSM    H8F11257   5.748   7.439   9.708  2.1418  2.6432 -1.2960
  109OSM    H8G11258   5.677   7.597   9.754 -2.4357 -0.0101  0.0656
  109OSM    C9F11259   5.555   7.479   9.617 -0.1116  0.4769  0.0136
  109OSM    H9F11260   5.449   7.500   9.639 -1.0616 -2.9312 -1.1066
  109OSM   C10F11261   5.591   7.437   9.494  0.5703  0.5538 -0.2694
  109OSM   H10F11262   5.509   7.420   9.423  1.8501 -1.2988 -1.3611
  109OSM   C11F11263   5.733   7.407   9.450  0.2241  0.4720  0.3412
  109OSM   H11F11264   5.777   7.340   9.528  1.3442  0.6806 -0.0998
  109OSM   H11G11265   5.801   7.494   9.445 -1.3121  1.7677  1.5232
  109OSM   C12F11266   5.736   7.330   9.317  0.1065 -0.5145  1.1464
  109OSM   H12F11267   5.672   7.384   9.243 -0.1675 -1.4627  0.6842
  109OSM   H12G11268   5.692   7.229   9.332 -0.2297 -0.4504  0.6260
  109OSM   C13F11269   5.867   7.321   9.251 -0.3075  0.3255 -0.0863
  109OSM   H13F11270   5.941   7.290   9.328  0.2045  0.8509 -0.3707
  109OSM   H13G11271   5.897   7.419   9.211 -1.0140 -0.2322 -2.0346
  109OSM   C14F11272   5.866   7.235   9.133  0.2881  0.0182 -1.0117
  109OSM   H14F11273   5.795   7.275   9.057  0.5244  0.3022 -1.0838
  109OSM   H14G11274   5.826   7.133   9.156  1.2141  0.2187  1.5360
  109OSM   C15F11275   5.999   7.222   9.058  0.0575 -0.5369 -0.5070
  109OSM   H15F11276   6.061   7.158   9.124  1.3116  2.2117  1.0685
  109OSM   H15G11277   6.036   7.326   9.050 -0.1657 -0.1664  2.5648
  109OSM   C16F11278   5.996   7.162   8.918 -0.2925 -0.3271  0.2110
  109OSM   H16F11279   5.934   7.222   8.848 -2.0314 -3.7380 -1.2676
  109OSM   H16G11280   5.953   7.060   8.929 -2.8390  0.7916  0.8850
  109OSM   C17F11281   6.135   7.148   8.852  0.8384  0.6321  0.2251
  109OSM   H17F11282   6.196   7.085   8.921  1.0304 -0.4746 -0.9380
  109OSM   H17G11283   6.178   7.250   8.846  0.6205  0.7321  0.3418
  109OSM   C18F11284   6.131   7.085   8.711  0.6868 -0.2177 -0.7918
  109OSM   H18F11285   6.097   6.980   8.720  1.4502 -0.4767 -0.9294
  109OSM   H18G11286   6.232   7.074   8.666  1.7516  0.5284  1.3141
  109OSM   H18H11287   6.054   7.134   8.648 -0.8947 -3.3085 -1.3673
  110OSM      N11288   6.172   5.530  11.029 -0.4477 -0.2117 -0.4300
  110OSM    C1511289   6.173   5.619  10.909 -0.1570  0.6801  0.6021
  110OSM   H15A11290   6.139   5.719  10.934 -0.4119  1.4317 -2.5956
  110OSM   H15B11291   6.117   5.570  10.831 -1.3767  0.8358  1.3640
  110OSM   H15C11292   6.273   5.639  10.873 -0.5210  0.8032 -0.3590
  110OSM    C1411293   6.230   5.607  11.144 -0.1260 -0.2230 -0.5482
  110OSM   H14A11294   6.334   5.632  11.134  0.4884 -1.4245  2.2700
  110OSM   H14B11295   6.214   5.570  11.244 -1.3062  2.0773  0.1574
  110OSM   H14C11296   6.179   5.702  11.146  0.9341  0.3493  1.7475
  110OSM    C1311297   6.030   5.488  11.062  0.6047  0.0735  0.2391
  110OSM   H13A11298   6.031   5.442  11.160 -0.6775  0.4791  0.4513
  110OSM   H13B11299   5.994   5.419  10.987  0.4003  0.7584 -0.3016
  110OSM   H13C11300   5.968   5.576  11.070  0.7215  0.4515 -2.6038
  110OSM    C1211301   6.267   5.412  11.004 -0.4995 -0.0360  0.3877
  110OSM   H12A11302   6.369   5.447  11.002  0.5183 -2.8168  0.8857
  110OSM   H12B11303   6.248   5.371  10.906 -1.7222 -2.1385  1.4604
  110OSM    C1111304   6.265   5.302  11.118 -0.4373  0.3217  0.5524
  110OSM   H11A11305   6.285   5.359  11.211  1.1856  0.1679  0.3052
  110OSM   H11B11306   6.358   5.242  11.111 -1.6580 -1.4043 -1.1177
  110OSM      P11307   6.118   5.113  11.017  0.0327  0.0970  0.0346
  110OSM    O1311308   6.107   4.977  11.083 -0.2556 -0.2057 -0.1641
  110OSM    O1411309   6.005   5.163  10.941  0.4858  0.6179  0.1129
  110OSM    O1111310   6.241   5.110  10.916  0.1252  0.0573  0.6107
  110OSM    O1211311   6.147   5.218  11.131  0.2828 -0.3077 -0.1647
  110OSM    C1S11312   6.257   5.010  10.816  0.0717  0.2671 -0.4728
  110OSM    H1S11313   6.181   5.033  10.738  0.3435  1.9674 -0.2603
  110OSM    H1T11314   6.237   4.907  10.852 -0.5189  0.6102  0.1805
  110OSM     NF11315   6.395   4.934  10.630  0.0351  0.3687 -0.0923
  110OSM    HNF11316   6.448   4.851  10.641 -2.7109 -1.1854  1.7887
  110OSM    C2S11317   6.387   5.030  10.743 -0.3701  0.4055  0.4857
  110OSM    H2S11318   6.394   5.130  10.696  1.8135  0.5890  1.1521
  110OSM    C3S11319   6.512   5.024  10.838  0.4218 -0.0933 -0.5454
  110OSM    H3S11320   6.504   4.932  10.900  1.1283  0.5816  0.5719
  110OSM     O311321   6.517   5.143  10.921  0.3463 -0.1788 -0.3042
  110OSM    HO311322   6.425   5.167  10.909 -0.0885 -2.4472 -1.7581
  110OSM    C4S11323   6.634   5.006  10.752  0.4735  0.5170  0.8024
  110OSM    H4S11324   6.661   4.901  10.737  1.8273  1.2287 -2.0609
  110OSM    C5S11325   6.714   5.100  10.698 -0.4999  0.1306 -0.2708
  110OSM    H5S11326   6.692   5.207  10.711  0.7903  0.8089 -3.1955
  110OSM    C6S11327   6.828   5.063  10.599  0.2184  0.0009 -0.6732
  110OSM    H6S11328   6.859   4.957  10.617 -0.6833  0.1678  2.0187
  110OSM    H6T11329   6.913   5.135  10.600  0.8370 -0.7188  1.3340
  110OSM    C7S11330   6.769   5.071  10.463 -0.1274 -1.3002  0.2188
  110OSM    H7S11331   6.739   5.176  10.444  1.3453 -0.9005  0.0295
  110OSM    H7T11332   6.680   5.006  10.444 -0.8889 -0.4274  0.7805
  110OSM    C8S11333   6.873   5.033  10.351  0.4980 -0.5146  0.2854
  110OSM    H8S11334   6.903   4.929  10.373  2.1506 -0.0937  0.0717
  110OSM    H8T11335   6.959   5.103  10.355 -0.5202  0.7835 -0.0022
  110OSM    C9S11336   6.798   5.044  10.216 -0.5925  0.3716 -0.3964
  110OSM    H9S11337   6.737   5.136  10.203 -2.1805 -0.4291  1.0681
  110OSM    H9T11338   6.725   4.960  10.211 -0.0281 -0.1069 -0.6450
  110OSM   C10S11339   6.884   5.062  10.094  0.0468 -0.8361 -0.3066
  110OSM   H10S11340   6.952   4.974  10.085  0.1030 -0.5576 -3.1997
  110OSM   H10T11341   6.952   5.150  10.102  0.8028 -1.6563  3.2940
  110OSM   C11S11342   6.808   5.082   9.966  0.2547 -0.5187 -0.8048
  110OSM   H11S11343   6.738   5.165   9.988  0.9004  0.2602 -1.7047
  110OSM   H11T11344   6.754   4.989   9.937  0.7470 -1.8565  2.3551
  110OSM   C12S11345   6.884   5.132   9.839 -1.0130  0.3618 -0.4249
  110OSM   H12S11346   6.935   5.042   9.798  1.4338  0.6543  1.8480
  110OSM   H12T11347   6.955   5.211   9.870 -2.1958  1.4426 -0.4208
  110OSM   C13S11348   6.787   5.172   9.730 -0.1321 -0.4882  0.2418
  110OSM   H13S11349   6.728   5.260   9.765 -3.2279 -1.5806 -2.0073
  110OSM   H13T11350   6.711   5.091   9.724 -1.7194  0.9404  0.4517
  110OSM   C14S11351   6.840   5.203   9.590 -0.0910  0.3875  0.3325
  110OSM   H14S11352   6.898   5.114   9.557 -0.2893  0.5257 -0.3866
  110OSM   H14T11353   6.913   5.286   9.577  0.3208 -0.2176 -1.2988
  110OSM   C15S11354   6.730   5.211   9.484  0.3288 -0.2456  0.1995
  110OSM   H15S11355   6.655   5.291   9.506  0.6281 -0.5724  2.5286
  110OSM   H15T11356   6.678   5.113   9.494 -0.9584  0.3320 -0.6824
  110OSM   C16S11357   6.773   5.212   9.335 -0.1783  0.1281 -0.3227
  110OSM   H16S11358   6.701   5.159   9.269  1.5837 -0.6955 -1.6293
  110OSM   H16T11359   6.876   5.175   9.322 -0.6878 -1.5356  0.2888
  110OSM   C17S11360   6.783   5.356   9.278  0.2656 -0.6323 -0.4088
  110OSM   H17S11361   6.885   5.376   9.318 -0.0003 -0.5168  0.2255
  110OSM   H17T11362   6.704   5.419   9.324 -1.1635 -4.0611  2.0836
  110OSM   C18S11363   6.796   5.365   9.125 -0.0467 -0.0437  0.2586
  110OSM   H18S11364   6.772   5.471   9.098  0.5449  0.7138  2.6341
  110OSM   H18T11365   6.726   5.300   9.069 -1.5949  0.7133  1.2719
  110OSM   H18U11366   6.900   5.349   9.089 -0.0051 -1.1860  0.8886
  110OSM    C1F11367   6.327   4.944  10.517 -0.0597  0.4533 -0.0093
  110OSM     OF11368   6.230   5.015  10.505 -0.6918  0.2519  0.5128
  110OSM    C2F11369   6.370   4.852  10.406 -0.6030  0.6408 -0.2662
  110OSM    H2F11370   6.363   4.754  10.456  0.6264  0.0093 -1.3083
  110OSM    H2G11371   6.476   4.871  10.375  0.0372 -0.7473  1.0265
  110OSM    C3F11372   6.273   4.854  10.285  0.2723  0.4336 -0.1649
  110OSM    H3F11373   6.282   4.952  10.235  0.3952 -0.0086 -1.0266
  110OSM    H3G11374   6.172   4.834  10.327  0.5926  1.1317  0.9477
  110OSM    C4F11375   6.311   4.760  10.172 -0.1300  0.2241  0.8014
  110OSM    H4F11376   6.222   4.729  10.114  1.5004  0.2130 -1.7477
  110OSM    H4G11377   6.357   4.671  10.220 -1.9763 -1.8658 -1.2328
  110OSM    C5F11378   6.413   4.824  10.085 -0.4941  0.5196  0.5149
  110OSM    H5F11379   6.457   4.752  10.013 -1.4207  0.4443  0.0213
  110OSM    H5G11380   6.495   4.868  10.145 -1.0203  0.2767  1.4231
  110OSM    C6F11381   6.351   4.933   9.989 -0.3553  0.0175  0.2028
  110OSM    H6F11382   6.337   5.023  10.053  0.5912  1.2307 -1.2699
  110OSM    H6G11383   6.249   4.909   9.952  0.0970  0.5970 -1.4793
  110OSM    C7F11384   6.440   4.961   9.871  0.0808  0.1001  0.2076
  110OSM    H7F11385   6.474   4.870   9.817 -0.4270 -0.2601  0.4832
  110OSM    H7G11386   6.532   5.014   9.902  0.3982 -1.2220  1.6180
  110OSM    C8F11387   6.375   5.062   9.777  0.3106 -0.5077  0.1659
  110OSM    H8F11388   6.436   5.107   9.696  0.1744  2.1186  1.4701
  110OSM    H8G11389   6.347   5.148   9.840 -1.1560 -1.3081  0.6171
  110OSM    C9F11390   6.256   4.988   9.716 -0.5717  0.6488  0.2346
  110OSM    H9F11391   6.160   4.995   9.769 -0.2286  2.2737  0.6575
  110OSM   C10F11392   6.255   4.926   9.595  0.1833  0.5782 -0.0732
  110OSM   H10F11393   6.160   4.885   9.560 -0.2202  0.6527  0.9283
  110OSM   C11F11394   6.371   4.924   9.494  0.0236  0.4935  0.0520
  110OSM   H11F11395   6.454   4.858   9.525 -0.9221 -0.4761  0.5671
  110OSM   H11G11396   6.415   5.024   9.476 -1.8537  1.0615 -1.5646
  110OSM   C12F11397   6.319   4.882   9.355  0.1233  0.0854  0.2675
  110OSM   H12F11398   6.274   4.781   9.361  2.1655 -0.8047  0.8669
  110OSM   H12G11399   6.409   4.859   9.295 -0.8414  0.7557 -1.4983
  110OSM   C13F11400   6.230   4.980   9.291 -0.8314  0.6674  0.0258
  110OSM   H13F11401   6.288   5.071   9.265 -1.6480  2.0025  2.6303
  110OSM   H13G11402   6.143   5.008   9.355 -0.2857 -1.7850  1.9287
  110OSM   C14F11403   6.167   4.924   9.165 -0.1366 -0.1029 -0.2732
  110OSM   H14F11404   6.115   4.828   9.186 -0.9363  0.3213 -0.3101
  110OSM   H14G11405   6.245   4.906   9.089  0.2990  2.6749 -0.5353
  110OSM   C15F11406   6.065   5.007   9.098 -0.1836 -0.5760  1.3268
  110OSM   H15F11407   6.107   5.108   9.081 -1.7589 -0.3388 -1.4835
  110OSM   H15G11408   5.980   4.995   9.169 -2.2059  1.3013 -0.6902
  110OSM   C16F11409   6.018   4.965   8.954 -0.2472 -0.3972 -0.0550
  110OSM   H16F11410   5.986   4.859   8.956 -1.2597 -0.0897  1.5677
  110OSM   H16G11411   6.105   4.983   8.888 -0.2151  0.4637  0.2089
  110OSM   C17F11412   5.908   5.062   8.896  0.3243  0.1060  0.5159
  110OSM   H17F11413   5.840   5.085   8.981 -2.0143  0.7024 -1.4615
  110OSM   H17G11414   5.853   4.999   8.823  2.4923  2.1171 -2.9842
  110OSM   C18F11415   5.962   5.194   8.836  0.0925 -0.9104 -0.7200
  110OSM   H18F11416   6.012   5.249   8.919 -0.6855  1.3317 -1.6820
  110OSM   H18G11417   5.877   5.257   8.801 -0.6996 -1.4002  0.2942
  110OSM   H18H11418   6.039   5.187   8.756  1.0985 -0.4712  0.1972
  111OSM      N11419   0.152   3.318  10.994 -0.0022  0.4078  0.1553
  111OSM    C1511420   0.155   3.226  10.876 -0.4487  0.2965  0.2418
  111OSM   H15A11421   0.192   3.131  10.913 -3.7008 -0.9528  0.4484
  111OSM   H15B11422   0.203   3.267  10.789  0.6866 -0.7699  0.3503
  111OSM   H15C11423   0.057   3.200  10.841  0.4916 -0.3060 -1.9801
  111OSM    C1411424   0.090   3.444  10.945 -1.2256 -0.5537 -0.2198
  111OSM   H14A11425   0.094   3.443  10.837 -2.0464 -1.0530 -0.2425
  111OSM   H14B11426   0.144   3.526  10.991 -2.8558  1.1514 -1.3096
  111OSM   H14C11427  -0.008   3.454  10.988 -0.8921  0.0640  0.4095
  111OSM    C1311428   0.067   3.261  11.104 -0.0965 -0.0032  0.3345
  111OSM   H13A11429  -0.021   3.215  11.062  0.2542 -0.2321 -0.1514
  111OSM   H13B11430   0.039   3.346  11.164  1.3729  1.3904 -0.9093
  111OSM   H13C11431   0.119   3.186  11.162 -2.1860 -1.5750  0.2198
  111OSM    C1211432   0.293   3.339  11.056  0.5903 -0.5273 -0.5372
  111OSM   H12A11433   0.314   3.245  11.105  0.4326  0.1193  0.7890
  111OSM   H12B11434   0.286   3.400  11.145  2.7222 -2.7203  1.2339
  111OSM    C1111435   0.418   3.388  10.965 -0.8429 -0.6912  0.4153
  111OSM   H11A11436   0.515   3.383  11.018  1.2878 -1.0280 -3.3029
  111OSM   H11B11437   0.413   3.497  10.940  1.6496 -0.5539  0.4254
  111OSM      P11438   0.522   3.182  10.843  0.1388 -0.2667 -0.2379
  111OSM    O1311439   0.598   3.170  10.970 -0.2640  0.1970 -0.3833
  111OSM    O1411440   0.447   3.063  10.791  0.0128  0.4264 -0.2928
  111OSM    O1111441   0.629   3.234  10.736  0.0443  0.1368 -0.3462
  111OSM    O1211442   0.424   3.299  10.848  1.0140 -0.6751 -0.3069
  111OSM    C1S11443   0.667   3.372  10.729  0.5733 -0.1503 -0.3170
  111OSM    H1S11444   0.698   3.408  10.830  0.3930  2.8735 -1.3111
  111OSM    H1T11445   0.577   3.426  10.693  1.4657  0.1740 -2.0877
  111OSM     NF11446   0.781   3.546  10.599  0.1101 -0.2743  0.0830
  111OSM    HNF11447   0.726   3.588  10.527  3.2273  1.3421 -1.4607
  111OSM    C2S11448   0.776   3.396  10.614 -1.0811 -0.4775  0.4421
  111OSM    H2S11449   0.879   3.365  10.639  0.7244  2.6213 -2.6856
  111OSM    C3S11450   0.731   3.314  10.485 -0.0501 -0.0569  0.7099
  111OSM    H3S11451   0.624   3.335  10.467 -0.3907 -0.6120  2.0617
  111OSM     O311452   0.741   3.168  10.499  0.2846  0.3857 -0.5792
  111OSM    HO311453   0.777   3.161  10.587 -0.0230  0.2624 -0.4650
  111OSM    C4S11454   0.813   3.360  10.362  0.1874 -0.0311  0.2339
  111OSM    H4S11455   0.911   3.310  10.361 -0.1234 -0.6468  0.0884
  111OSM    C5S11456   0.777   3.454  10.277 -0.0865  0.4043 -0.0873
  111OSM    H5S11457   0.685   3.514  10.281 -0.4441 -0.1257 -0.3559
  111OSM    C6S11458   0.872   3.495  10.163  0.1406 -0.0686  0.9284
  111OSM    H6S11459   0.965   3.435  10.174  2.7443  3.0888 -2.5949
  111OSM    H6T11460   0.899   3.602  10.171  0.9607 -0.0683 -1.3628
  111OSM    C7S11461   0.817   3.454  10.027 -0.2538  0.6228 -0.1209
  111OSM    H7S11462   0.795   3.345  10.027  0.5132  0.4537  0.8796
  111OSM    H7T11463   0.911   3.470   9.969 -0.1294 -0.8480 -0.3471
  111OSM    C8S11464   0.709   3.548   9.972  0.2581  0.6398  0.3125
  111OSM    H8S11465   0.740   3.654   9.971 -1.0172  1.0135  0.2439
  111OSM    H8T11466   0.622   3.557  10.040 -0.3509 -0.4201 -0.3168
  111OSM    C9S11467   0.645   3.499   9.839  0.2035 -0.3334  0.2253
  111OSM    H9S11468   0.551   3.557   9.834  0.6866  0.3612 -1.1421
  111OSM    H9T11469   0.626   3.390   9.851 -0.9326 -0.0099  1.4318
  111OSM   C10S11470   0.738   3.524   9.725 -0.1258 -0.1634  0.6735
  111OSM   H10S11471   0.839   3.479   9.738 -0.4128 -1.4750 -1.4698
  111OSM   H10T11472   0.752   3.631   9.702 -2.0946  0.1398  0.7590
  111OSM   C11S11473   0.691   3.462   9.591 -0.5609 -0.1358  0.3274
  111OSM   H11S11474   0.651   3.359   9.607 -0.6758 -0.3371 -1.1708
  111OSM   H11T11475   0.772   3.440   9.518  0.1067 -0.8840  1.2768
  111OSM   C12S11476   0.588   3.544   9.509  0.8283  0.3199 -0.2512
  111OSM   H12S11477   0.641   3.642   9.502  2.0645 -0.2791  0.4614
  111OSM   H12T11478   0.498   3.553   9.573  0.8522 -2.3319  0.1878
  111OSM   C13S11479   0.556   3.494   9.367  0.2098 -0.3965 -0.0175
  111OSM   H13S11480   0.505   3.396   9.378  1.0601 -0.7933  0.4253
  111OSM   H13T11481   0.653   3.477   9.315 -0.0723 -1.4219 -0.2358
  111OSM   C14S11482   0.476   3.593   9.289 -0.9482  0.1222 -1.1426
  111OSM   H14S11483   0.547   3.668   9.249  0.7717 -1.7312 -1.6197
  111OSM   H14T11484   0.404   3.642   9.359  0.2044 -0.1915  0.2827
  111OSM   C15S11485   0.393   3.534   9.174  0.2305  0.2225  0.0095
  111OSM   H15S11486   0.329   3.611   9.127  1.6741  0.4898 -1.5740
  111OSM   H15T11487   0.323   3.454   9.207  0.9628 -0.4251  0.0061
  111OSM   C16S11488   0.481   3.481   9.054  0.7276 -0.1660 -0.0030
  111OSM   H16S11489   0.537   3.394   9.094  1.5128  0.7481  0.9132
  111OSM   H16T11490   0.557   3.558   9.029  0.4305  0.2030  0.2314
  111OSM   C17S11491   0.403   3.445   8.928  0.2766 -0.1919 -0.6283
  111OSM   H17S11492   0.330   3.525   8.904 -1.3048 -1.5533 -0.5340
  111OSM   H17T11493   0.341   3.353   8.943  0.8775 -0.1804  2.2443
  111OSM   C18S11494   0.510   3.421   8.818 -0.6465  0.1905 -0.0235
  111OSM   H18S11495   0.462   3.381   8.726  0.9670  2.8430 -2.1100
  111OSM   H18T11496   0.597   3.365   8.859  1.7100  3.5665 -0.1853
  111OSM   H18U11497   0.554   3.515   8.779 -1.6111  1.5070  2.0043
  111OSM    C1F11498   0.824   3.625  10.693 -0.2729 -0.5226  1.2757
  111OSM     OF11499   0.879   3.576  10.792 -0.0838 -0.0571  0.7221
  111OSM    C2F11500   0.806   3.774  10.679  0.4960 -0.1128 -0.4926
  111OSM    H2F11501   0.900   3.833  10.682 -0.6120  1.6240  1.1390
  111OSM    H2G11502   0.748   3.801  10.770 -0.3883  0.5385 -1.2381
  111OSM    C3F11503   0.739   3.835  10.549  0.3682 -0.4340 -0.7551
  111OSM    H3F11504   0.727   3.944  10.561  0.4039 -0.6605  1.6457
  111OSM    H3G11505   0.639   3.787  10.544  0.1008  0.3447 -4.3714
  111OSM    C4F11506   0.828   3.832  10.424  0.3135  0.7597 -0.2896
  111OSM    H4F11507   0.892   3.741  10.435 -0.6549  0.0860 -0.1318
  111OSM    H4G11508   0.891   3.923  10.434  0.3554  0.4108  3.5659
  111OSM    C5F11509   0.767   3.827  10.287 -0.4100  0.0770 -0.1108
  111OSM    H5F11510   0.706   3.736  10.266 -3.1038  2.0632 -1.1054
  111OSM    H5G11511   0.847   3.826  10.210  0.0501 -3.1950  0.3120
  111OSM    C6F11512   0.691   3.955  10.249 -0.5484 -0.1181  0.1358
  111OSM    H6F11513   0.746   4.044  10.285 -1.6485  0.8438 -0.5441
  111OSM    H6G11514   0.585   3.954  10.284 -0.0419  0.6990  1.7525
  111OSM    C7F11515   0.679   3.978  10.102 -0.5857  0.7746  0.8751
  111OSM    H7F11516   0.601   4.056  10.091 -1.7670 -0.4127  0.6672
  111OSM    H7G11517   0.625   3.891  10.059 -1.7909  1.7977  0.2779
  111OSM    C8F11518   0.804   4.020  10.022 -0.0864  0.4607 -0.2789
  111OSM    H8F11519   0.871   3.931  10.021 -0.0396  0.4948 -0.1305
  111OSM    H8G11520   0.858   4.099  10.078  0.7807 -0.2320 -0.1230
  111OSM    C9F11521   0.770   4.077   9.887  1.0204 -0.5295 -0.4917
  111OSM    H9F11522   0.705   4.165   9.893  2.5914  0.8197 -2.7591
  111OSM   C10F11523   0.791   4.025   9.769 -0.2380  0.1496  0.5673
  111OSM   H10F11524   0.757   4.082   9.681 -3.6583 -0.4798  1.4119
  111OSM   C11F11525   0.856   3.897   9.744  0.0762  0.3675  0.2227
  111OSM   H11F11526   0.780   3.816   9.738 -0.7030  0.9014  2.1667
  111OSM   H11G11527   0.922   3.871   9.830 -0.6077 -3.6570 -0.3723
  111OSM   C12F11528   0.934   3.895   9.608 -0.5934 -0.4655 -0.2613
  111OSM   H12F11529   0.982   3.797   9.585 -2.1751 -1.5302  0.8523
  111OSM   H12G11530   1.017   3.969   9.616 -1.3012  0.3959 -0.7849
  111OSM   C13F11531   0.851   3.939   9.487 -0.3119  0.3068  0.6873
  111OSM   H13F11532   0.825   4.046   9.500 -1.5600  0.2483 -1.2521
  111OSM   H13G11533   0.751   3.890   9.481 -0.0225 -0.0841 -1.1570
  111OSM   C14F11534   0.936   3.934   9.361  0.7099 -0.4227 -0.2293
  111OSM   H14F11535   1.035   3.981   9.383 -0.8569  2.6003  0.7121
  111OSM   H14G11536   0.882   4.001   9.290  1.5365  1.0157  0.4722
  111OSM   C15F11537   0.962   3.808   9.281  0.2704  0.5634 -0.2887
  111OSM   H15F11538   1.021   3.739   9.346 -0.6151  2.4995  2.6809
  111OSM   H15G11539   1.047   3.844   9.218  0.5493  1.1333  0.4076
  111OSM   C16F11540   0.855   3.723   9.227  0.3366  0.7650 -0.1653
  111OSM   H16F11541   0.769   3.712   9.297  2.0497 -0.6802  1.8076
  111OSM   H16G11542   0.886   3.616   9.220 -2.1789  0.1727 -3.5500
  111OSM   C17F11543   0.804   3.764   9.093  0.3881 -0.4794 -0.6131
  111OSM   H17F11544   0.766   3.868   9.090 -0.2639 -0.6772  0.5672
  111OSM   H17G11545   0.714   3.704   9.069  0.8550 -1.7563  0.7771
  111OSM   C18F11546   0.901   3.741   8.973  0.5512  0.2890  0.1043
  111OSM   H18F11547   0.888   3.638   8.934 -1.5742  1.1342 -1.6089
  111OSM   H18G11548   1.004   3.762   9.007  0.5809  0.0853  0.1409
  111OSM   H18H11549   0.866   3.810   8.892 -0.7213 -1.2295 -0.6646
  112OSM      N11550   0.220   1.671  10.701 -0.4431 -0.1314 -0.0267
  112OSM    C1511551   0.357   1.700  10.748  0.2119 -0.3878  0.3686
  112OSM   H15A11552   0.372   1.806  10.765 -0.5218 -0.2203  0.0030
  112OSM   H15B11553   0.416   1.666  10.664  0.5029  0.1276  0.3649
  112OSM   H15C11554   0.386   1.653  10.841  5.1682 -0.9537 -1.3207
  112OSM    C1411555   0.135   1.702  10.824 -0.9559 -0.3540 -0.4864
  112OSM   H14A11556   0.171   1.652  10.912 -1.2822  0.7372  0.2693
  112OSM   H14B11557   0.033   1.670  10.804 -0.9204 -0.3499 -0.6797
  112OSM   H14C11558   0.125   1.808  10.843  0.5533 -0.1670 -0.7395
  112OSM    C1311559   0.169   1.766  10.592 -0.4860  0.3374 -0.2608
  112OSM   H13A11560   0.166   1.869  10.622  0.3640 -0.3102  2.1414
  112OSM   H13B11561   0.079   1.731  10.543  0.5628 -0.7981 -1.4350
  112OSM   H13C11562   0.246   1.756  10.517  1.0732 -2.6818  1.6522
  112OSM    C1211563   0.189   1.522  10.661 -0.0841  0.1328 -0.6182
  112OSM   H12A11564   0.219   1.451  10.737 -1.2327  0.5675  0.2652
  112OSM   H12B11565   0.251   1.502  10.575  0.5901  1.5109 -0.4644
  112OSM    C1111566   0.042   1.490  10.611 -0.3431 -0.0636  0.3343
  112OSM   H11A11567   0.052   1.397  10.552  1.0071  0.9661 -1.0884
  112OSM   H11B11568   0.011   1.562  10.532  0.4357 -0.3025 -0.1973
  112OSM      P11569  -0.090   1.361  10.789 -0.3367  0.0453  0.0917
  112OSM    O1311570   0.034   1.297  10.834 -0.5795 -0.5498  0.1909
  112OSM    O1411571  -0.187   1.399  10.890  0.3825  0.0896  0.3706
  112OSM    O1111572  -0.161   1.272  10.674  0.1317  0.2370 -0.0599
  112OSM    O1211573  -0.052   1.495  10.715 -0.5597  0.1707  0.4318
  112OSM    C1S11574  -0.303   1.249  10.684 -0.1537  0.1285 -0.4154
  112OSM    H1S11575  -0.362   1.331  10.731 -1.3256 -1.1367  0.3506
  112OSM    H1T11576  -0.320   1.155  10.741  1.9695  0.6142  1.0708
  112OSM     NF11577  -0.504   1.215  10.554 -0.4561  0.1630 -0.4536
  112OSM    HNF11578  -0.533   1.120  10.564 -1.5055  0.4981 -0.3205
  112OSM    C2S11579  -0.359   1.232  10.539  0.0382  0.0095 -0.3697
  112OSM    H2S11580  -0.341   1.324  10.479  0.2050 -0.1528 -0.5662
  112OSM    C3S11581  -0.275   1.119  10.469 -0.2100 -0.3837 -0.6640
  112OSM    H3S11582  -0.275   1.025  10.529 -0.7996  1.1671  1.8456
  112OSM     O311583  -0.131   1.141  10.461 -0.0843  0.5276  0.1860
  112OSM    HO311584  -0.117   1.214  10.521 -1.5276  2.5589 -1.8473
  112OSM    C4S11585  -0.338   1.079  10.332 -0.8896  0.0349 -0.5638
  112OSM    H4S11586  -0.379   1.167  10.280 -0.2440 -0.5355 -2.0567
  112OSM    C5S11587  -0.370   0.955  10.284  0.1273 -0.0145  1.0046
  112OSM    H5S11588  -0.343   0.872  10.350  1.5314  0.2725  0.8190
  112OSM    C6S11589  -0.424   0.935  10.147  0.5082  0.3637 -0.5699
  112OSM    H6S11590  -0.527   0.895  10.152  0.4234  0.6785  0.3008
  112OSM    H6T11591  -0.374   0.847  10.102 -0.1173  0.4834 -1.4931
  112OSM    C7S11592  -0.423   1.052  10.038 -0.3626 -0.5529  0.6112
  112OSM    H7S11593  -0.333   1.115  10.024 -0.7503 -0.5211 -2.0589
  112OSM    H7T11594  -0.503   1.125  10.062 -0.2048 -1.0152  2.5557
  112OSM    C8S11595  -0.455   0.985   9.910 -0.2823 -0.6024  0.4114
  112OSM    H8S11596  -0.544   0.920   9.921 -1.4218  0.7113 -0.8881
  112OSM    H8T11597  -0.369   0.917   9.888  0.7182  0.2464  1.6601
  112OSM    C9S11598  -0.460   1.064   9.780  0.8280  0.4298  0.4013
  112OSM    H9S11599  -0.390   1.151   9.780  1.5203 -0.0885 -1.8490
  112OSM    H9T11600  -0.563   1.105   9.778  0.2703 -0.8866  1.5574
  112OSM   C10S11601  -0.437   0.982   9.655 -0.4598 -0.3936 -0.6129
  112OSM   H10S11602  -0.504   0.893   9.645 -1.5914  0.4992 -1.1546
  112OSM   H10T11603  -0.335   0.940   9.644 -0.0002  1.0200 -1.8108
  112OSM   C11S11604  -0.474   1.065   9.526 -0.1670 -0.1313  0.1414
  112OSM   H11S11605  -0.396   1.143   9.516  0.1486 -0.5995 -1.1503
  112OSM   H11T11606  -0.572   1.108   9.555  0.2381  0.8679  0.0424
  112OSM   C12S11607  -0.482   0.984   9.392  0.0692 -0.4430  1.1035
  112OSM   H12S11608  -0.567   0.913   9.399  1.4148 -2.4623 -2.2804
  112OSM   H12T11609  -0.396   0.916   9.383  0.8154  0.5402  0.6890
  112OSM   C13S11610  -0.501   1.073   9.272 -0.8840  0.7923  0.0141
  112OSM   H13S11611  -0.433   1.159   9.289 -1.7534  1.7012 -0.9963
  112OSM   H13T11612  -0.600   1.123   9.274 -1.4489 -0.1857 -1.9229
  112OSM   C14S11613  -0.477   1.009   9.131 -0.7168  0.1526 -0.2113
  112OSM   H14S11614  -0.559   0.942   9.099 -0.8805  0.4869 -0.4961
  112OSM   H14T11615  -0.383   0.949   9.137  0.7860  2.4091 -0.5428
  112OSM   C15S11616  -0.472   1.120   9.021 -0.2881 -0.1017 -0.1531
  112OSM   H15S11617  -0.417   1.207   9.063 -0.5572 -0.4827  1.0110
  112OSM   H15T11618  -0.577   1.153   9.004 -0.7282 -2.0200 -1.3908
  112OSM   C16S11619  -0.394   1.084   8.898  0.1395 -0.3466 -0.6795
  112OSM   H16S11620  -0.398   1.170   8.827 -0.1599  1.5071  1.5266
  112OSM   H16T11621  -0.428   0.993   8.843  0.6192 -1.0467  0.1623
  112OSM   C17S11622  -0.250   1.041   8.918 -0.5606  0.2287 -0.1656
  112OSM   H17S11623  -0.245   0.947   8.977 -2.2344  1.3464  1.8414
  112OSM   H17T11624  -0.193   1.115   8.979 -0.0441 -0.1986 -0.1315
  112OSM   C18S11625  -0.173   1.026   8.786  0.2764 -0.9118 -0.0432
  112OSM   H18S11626  -0.223   0.955   8.716 -1.1339 -0.8017  0.8285
  112OSM   H18T11627  -0.078   0.982   8.820 -1.6161 -2.1797  3.8504
  112OSM   H18U11628  -0.154   1.122   8.733  1.1053 -0.3559  1.2566
  112OSM    C1F11629  -0.591   1.310  10.587 -0.0768 -0.3953  0.0080
  112OSM     OF11630  -0.559   1.426  10.591  0.0011 -0.1047 -0.7551
  112OSM    C2F11631  -0.739   1.263  10.609  0.0123  0.1593 -0.1955
  112OSM    H2F11632  -0.809   1.348  10.598 -1.2978 -0.9026 -0.2375
  112OSM    H2G11633  -0.727   1.214  10.708 -0.1432 -1.1798 -0.8198
  112OSM    C3F11634  -0.781   1.151  10.509  0.7714  0.2612  0.2757
  112OSM    H3F11635  -0.876   1.103  10.542  0.1145  2.2902  1.3846
  112OSM    H3G11636  -0.708   1.067  10.503 -0.1432 -0.5178 -0.1821
  112OSM    C4F11637  -0.802   1.210  10.376  0.6678 -0.4054 -0.3651
  112OSM    H4F11638  -0.704   1.247  10.339  0.6365 -0.9217 -0.9656
  112OSM    H4G11639  -0.868   1.300  10.386  0.2520 -0.6519 -0.8759
  112OSM    C5F11640  -0.847   1.112  10.268 -0.0664 -0.5809 -0.6243
  112OSM    H5F11641  -0.951   1.075  10.282 -0.5590  1.0190  0.1091
  112OSM    H5G11642  -0.777   1.027  10.285 -0.9313 -0.7367  2.5816
  112OSM    C6F11643  -0.843   1.172  10.121  0.3058  0.0380 -0.3995
  112OSM    H6F11644  -0.746   1.218  10.092 -0.1770  0.7187 -0.9467
  112OSM    H6G11645  -0.913   1.259  10.123 -2.0962 -1.8720  0.9970
  112OSM    C7F11646  -0.898   1.068  10.014 -0.2550 -0.2895  0.1020
  112OSM    H7F11647  -1.004   1.044  10.038  0.4686 -0.4170  3.4302
  112OSM    H7G11648  -0.842   0.975  10.036  0.8044  0.6994  1.6309
  112OSM    C8F11649  -0.885   1.116   9.872 -0.5655  0.4518 -0.3042
  112OSM    H8F11650  -0.776   1.133   9.858  0.0255 -1.5067  1.7761
  112OSM    H8G11651  -0.948   1.207   9.860  0.8967  1.2631 -2.1257
  112OSM    C9F11652  -0.932   1.000   9.786 -0.0509  0.5448  0.0009
  112OSM    H9F11653  -0.989   0.932   9.852 -1.0597  2.1053  0.7703
  112OSM   C10F11654  -0.920   0.975   9.656 -0.0577  1.3158 -0.6424
  112OSM   H10F11655  -0.952   0.876   9.618 -0.9399  1.2917  0.1250
  112OSM   C11F11656  -0.847   1.045   9.544 -0.3531 -0.2660 -0.6091
  112OSM   H11F11657  -0.766   0.983   9.501 -0.1613 -0.0852 -0.5079
  112OSM   H11G11658  -0.793   1.136   9.578  2.1533 -1.3562 -1.5753
  112OSM   C12F11659  -0.941   1.095   9.434 -0.4574  0.6756  0.3114
  112OSM   H12F11660  -0.880   1.161   9.369 -1.0205  1.9289  1.0285
  112OSM   H12G11661  -1.024   1.158   9.471 -1.0709 -0.4598  0.8937
  112OSM   C13F11662  -0.999   0.979   9.352 -0.1973 -0.5899 -0.2713
  112OSM   H13F11663  -1.039   0.898   9.415  0.3858 -0.8661 -0.2524
  112OSM   H13G11664  -0.913   0.933   9.299 -2.1061 -3.3876 -1.0496
  112OSM   C14F11665  -1.100   1.040   9.254 -0.4091  0.2288  0.4866
  112OSM   H14F11666  -1.053   1.125   9.200  0.6255 -0.4082  0.3566
  112OSM   H14G11667  -1.189   1.082   9.305  0.1733  0.2184  1.5252
  112OSM   C15F11668  -1.148   0.930   9.153 -1.0877  0.1607 -0.3187
  112OSM   H15F11669  -1.225   0.989   9.099 -1.0374 -0.4140 -1.0385
  112OSM   H15G11670  -1.202   0.852   9.210  1.8687 -1.7787 -0.0647
  112OSM   C16F11671  -1.037   0.869   9.062  0.0755 -0.0815 -0.2244
  112OSM   H16F11672  -1.077   0.816   8.972  1.0671 -0.0213 -0.7088
  112OSM   H16G11673  -0.990   0.794   9.129  2.1182  0.6805 -0.7630
  112OSM   C17F11674  -0.921   0.961   9.014 -0.2118  0.5290 -0.3136
  112OSM   H17F11675  -0.849   0.893   8.963 -0.1919  0.5113 -0.2616
  112OSM   H17G11676  -0.876   1.010   9.103  0.0902 -1.4675  0.6523
  112OSM   C18F11677  -0.976   1.055   8.908  0.2978  0.1277  0.6027
  112OSM   H18F11678  -0.903   1.128   8.867 -0.6211  0.0691 -1.1711
  112OSM   H18G11679  -1.059   1.112   8.953 -0.1775 -0.1273  0.0549
  112OSM   H18H11680  -1.023   0.994   8.828  1.3048  0.7388 -0.4687
  113OSM      N11681   0.108   0.512  11.004  0.2062 -0.1387  0.6748
  113OSM    C1511682   0.002   0.613  11.045 -0.3821 -0.7218  0.2288
  113OSM   H15A11683  -0.010   0.699  10.981 -1.4159 -0.7938  0.3202
  113OSM   H15B11684   0.019   0.638  11.149  1.6160 -1.0704 -0.0013
  113OSM   H15C11685  -0.092   0.559  11.044 -1.5187  1.1839 -3.1512
  113OSM    C1411686   0.239   0.566  11.004  0.6421  0.0303  0.0862
  113OSM   H14A11687   0.253   0.620  11.097  0.7347  0.8415 -0.3895
  113OSM   H14B11688   0.246   0.651  10.938 -3.6127  0.1394 -0.3623
  113OSM   H14C11689   0.318   0.494  10.991 -1.5734 -2.5784  0.4703
  113OSM    C1311690   0.103   0.401  11.111 -0.6086  0.5098 -0.5400
  113OSM   H13A11691   0.003   0.365  11.125 -0.2579  0.5156  2.1234
  113OSM   H13B11692   0.146   0.437  11.203 -0.6460 -1.6564  0.3526
  113OSM   H13C11693   0.162   0.319  11.073  2.8655  3.7818 -2.6555
  113OSM    C1211694   0.061   0.450  10.869  0.3317 -0.6688 -0.4234
  113OSM   H12A11695   0.060   0.532  10.798 -0.4106 -0.4447 -0.1584
  113OSM   H12B11696  -0.041   0.418  10.885 -0.0506  0.3077 -0.8669
  113OSM    C1111697   0.142   0.334  10.803  0.0540 -0.1042  0.3209
  113OSM   H11A11698   0.250   0.356  10.785  0.3576 -1.2661  0.6263
  113OSM   H11B11699   0.099   0.325  10.701 -0.1012 -2.9980  0.6058
  113OSM      P11700   0.234   0.102  10.901  0.0978 -0.3999 -0.3683
  113OSM    O1311701   0.338   0.154  10.994  0.0099  1.0028 -0.0309
  113OSM    O1411702   0.164  -0.024  10.935 -0.3612  0.1385  0.0351
  113OSM    O1111703   0.303   0.078  10.765  0.8694  0.0049  0.1637
  113OSM    O1211704   0.123   0.214  10.873 -0.2174 -0.2225 -0.2032
  113OSM    C1S11705   0.241   0.017  10.657 -0.6684  0.9565  0.2515
  113OSM    H1S11706   0.135   0.045  10.641 -0.2081  1.7660 -1.5363
  113OSM    H1T11707   0.236  -0.091  10.682  0.9802  0.5357 -1.0945
  113OSM     NF11708   0.243  -0.028  10.415 -0.7328 -0.0180 -0.0006
  113OSM    HNF11709   0.284  -0.102  10.361  2.2695  2.1229 -0.7371
  113OSM    C2S11710   0.317   0.044  10.523 -0.1459 -0.2711 -0.2135
  113OSM    H2S11711   0.305   0.154  10.513  2.6551  0.0242 -0.7549
  113OSM    C3S11712   0.468   0.007  10.530  0.0776  0.5297 -0.2436
  113OSM    H3S11713   0.481  -0.102  10.546  0.8710  0.4739 -1.2238
  113OSM     O311714   0.540   0.074  10.634 -0.3649  0.2354 -0.4754
  113OSM    HO311715   0.476   0.114  10.692 -2.0902 -1.2819 -1.2949
  113OSM    C4S11716   0.528   0.019  10.390  0.0449  0.7643  0.0717
  113OSM    H4S11717   0.526  -0.077  10.336 -1.8403  0.1093  1.3034
  113OSM    C5S11718   0.595   0.127  10.337  0.0625  0.3950  0.0640
  113OSM    H5S11719   0.615   0.210  10.406  1.0188 -1.1844  1.7649
  113OSM    C6S11720   0.660   0.139  10.200 -1.2025 -0.0911 -0.3821
  113OSM    H6S11721   0.766   0.166  10.219 -1.3932 -1.5863  3.0151
  113OSM    H6T11722   0.609   0.216  10.138 -0.9674  1.4987  1.3706
  113OSM    C7S11723   0.668   0.001  10.134  0.4162 -0.1527  0.3119
  113OSM    H7S11724   0.566  -0.031  10.102  0.3090  1.1696 -0.7165
  113OSM    H7T11725   0.716  -0.069  10.205  2.8350  1.1717  0.0023
  113OSM    C8S11726   0.745  -0.009   9.996 -1.0168 -0.3424 -0.3953
  113OSM    H8S11727   0.753  -0.115   9.962  1.8844 -1.2055  2.7216
  113OSM    H8T11728   0.844   0.033  10.023  0.3047 -3.3131 -0.3591
  113OSM    C9S11729   0.677   0.080   9.899 -0.3881  0.2891  0.5509
  113OSM    H9S11730   0.700   0.187   9.918 -1.2916  0.4336  0.8587
  113OSM    H9T11731   0.567   0.064   9.902 -0.4627  0.4053 -0.9663
  113OSM   C10S11732   0.721   0.052   9.748 -0.4713 -0.6790 -0.0870
  113OSM   H10S11733   0.706  -0.058   9.738 -3.4952 -0.1000 -3.4297
  113OSM   H10T11734   0.830   0.067   9.732 -0.4797 -1.0420 -0.5017
  113OSM   C11S11735   0.634   0.115   9.644  0.0136 -0.2568 -0.0522
  113OSM   H11S11736   0.633   0.226   9.649  2.1382 -0.0819 -2.2526
  113OSM   H11T11737   0.536   0.064   9.649 -1.5407  2.6783  0.2618
  113OSM   C12S11738   0.701   0.106   9.495  0.0220 -0.3506 -0.7173
  113OSM   H12S11739   0.676   0.002   9.465 -1.2146 -0.0907 -0.6055
  113OSM   H12T11740   0.812   0.117   9.499 -0.1641  3.0202 -2.7992
  113OSM   C13S11741   0.651   0.216   9.400  0.1186 -0.3192 -0.2439
  113OSM   H13S11742   0.717   0.305   9.393  0.9353 -0.7954  1.0867
  113OSM   H13T11743   0.550   0.248   9.434  0.9674 -1.1677  3.2684
  113OSM   C14S11744   0.646   0.174   9.252  0.1773 -0.4687 -0.6870
  113OSM   H14S11745   0.624   0.267   9.196 -1.6842  0.1536  1.0024
  113OSM   H14T11746   0.580   0.089   9.228 -0.6665  0.4059 -1.5127
  113OSM   C15S11747   0.782   0.127   9.199 -0.3286  0.4854 -0.0921
  113OSM   H15S11748   0.806   0.040   9.262 -0.3218  1.2992  1.0365
  113OSM   H15T11749   0.854   0.211   9.206 -0.8052  0.9016 -0.1251
  113OSM   C16S11750   0.781   0.078   9.048  0.0032 -1.0844 -0.1982
  113OSM   H16S11751   0.714  -0.009   9.029 -0.3998 -0.0952 -3.7621
  113OSM   H16T11752   0.886   0.055   9.020  0.3163  0.7059 -0.5276
  113OSM   C17S11753   0.725   0.187   8.950 -0.2713 -0.1606  0.3756
  113OSM   H17S11754   0.769   0.286   8.976 -3.6619  0.9923  2.0482
  113OSM   H17T11755   0.621   0.212   8.981  0.8560  2.6224  2.1137
  113OSM   C18S11756   0.738   0.164   8.795  0.3962  0.0963  0.2550
  113OSM   H18S11757   0.696   0.250   8.740  0.8770  0.6158  0.6999
  113OSM   H18T11758   0.667   0.081   8.773  1.6268 -0.9272  0.0236
  113OSM   H18U11759   0.840   0.135   8.761  0.1829 -1.5283  0.9234
  113OSM    C1F11760   0.117  -0.003  10.377 -0.3287 -0.9824 -0.4301
  113OSM     OF11761   0.051   0.081  10.432  0.2950 -0.2576  0.0249
  113OSM    C2F11762   0.062  -0.091  10.276 -0.6039  0.2888  0.2067
  113OSM    H2F11763  -0.006  -0.168  10.319  0.5075 -1.9048 -1.9024
  113OSM    H2G11764   0.141  -0.154  10.231 -1.0250 -1.4756  1.8853
  113OSM    C3F11765  -0.005  -0.015  10.162  0.1757 -0.6152  0.4201
  113OSM    H3F11766   0.058   0.065  10.118  0.0380 -0.5811  0.2863
  113OSM    H3G11767  -0.090   0.043  10.203  0.2972 -0.1813  0.0594
  113OSM    C4F11768  -0.047  -0.110  10.047  0.0140 -0.1464 -0.3358
  113OSM    H4F11769  -0.118  -0.185  10.089  0.2502  0.1226  0.5538
  113OSM    H4G11770   0.044  -0.166  10.015  1.4395  1.9165 -0.0412
  113OSM    C5F11771  -0.114  -0.038   9.932 -0.7108 -0.2101 -0.4510
  113OSM    H5F11772  -0.030   0.014   9.879 -1.8912  1.7943 -0.3897
  113OSM    H5G11773  -0.189   0.032   9.974 -2.1103 -3.1348  2.1027
  113OSM    C6F11774  -0.191  -0.132   9.836 -0.4791  0.4204 -0.2315
  113OSM    H6F11775  -0.258  -0.072   9.770 -1.8696  0.5159  1.2415
  113OSM    H6G11776  -0.260  -0.190   9.901 -0.8563 -1.3490 -2.1617
  113OSM    C7F11777  -0.094  -0.215   9.749  0.0650  0.4974 -0.2033
  113OSM    H7F11778  -0.020  -0.278   9.803 -1.7508  0.9203  2.9041
  113OSM    H7G11779  -0.033  -0.146   9.688 -2.0122  0.1017 -2.8420
  113OSM    C8F11780  -0.170  -0.314   9.650 -0.2020  0.1621  0.4041
  113OSM    H8F11781  -0.222  -0.251   9.575 -1.1039 -2.4032 -1.1865
  113OSM    H8G11782  -0.245  -0.379   9.700 -0.9962  0.7363 -0.0298
  113OSM    C9F11783  -0.070  -0.391   9.574  0.2591 -0.0627  0.4723
  113OSM    H9F11784   0.011  -0.331   9.530  1.3368 -1.0878  1.0575
  113OSM   C10F11785  -0.067  -0.525   9.558 -0.8588 -0.0706  0.3296
  113OSM   H10F11786   0.021  -0.571   9.512 -2.1194 -2.5576  0.3580
  113OSM   C11F11787  -0.167  -0.629   9.615 -0.3562 -0.4386 -0.0721
  113OSM   H11F11788  -0.169  -0.713   9.541  1.2777 -0.1408 -0.4668
  113OSM   H11G11789  -0.266  -0.580   9.626  0.0505  0.9924 -2.3858
  113OSM   C12F11790  -0.119  -0.700   9.747  0.5226  0.0129  0.8609
  113OSM   H12F11791  -0.014  -0.730   9.729  0.7275  1.3936 -0.3553
  113OSM   H12G11792  -0.177  -0.794   9.753  1.4394 -0.8325 -2.5562
  113OSM   C13F11793  -0.127  -0.604   9.874 -0.9534 -0.4347  0.8640
  113OSM   H13F11794  -0.221  -0.546   9.867 -1.6712 -0.7638  6.3559
  113OSM   H13G11795  -0.035  -0.542   9.862 -1.8279  0.5438 -1.0790
  113OSM   C14F11796  -0.118  -0.687  10.007 -0.1488  0.1117  0.1243
  113OSM   H14F11797  -0.013  -0.715  10.030  0.0577  0.5216 -0.2865
  113OSM   H14G11798  -0.180  -0.777   9.989 -0.2383  0.1531  0.2288
  113OSM   C15F11799  -0.167  -0.605  10.123  0.3999 -0.6947  0.3733
  113OSM   H15F11800  -0.191  -0.666  10.214  1.9625 -0.6199  0.8453
  113OSM   H15G11801  -0.268  -0.568  10.093  1.0996  1.1752  0.2873
  113OSM   C16F11802  -0.082  -0.481  10.163  0.5549  0.5021  0.6373
  113OSM   H16F11803  -0.141  -0.437  10.246 -0.8243 -0.7302  0.3356
  113OSM   H16G11804  -0.078  -0.415  10.073  0.8095 -1.0403 -0.5064
  113OSM   C17F11805   0.050  -0.515  10.231  0.2619 -0.0518  0.5688
  113OSM   H17F11806   0.093  -0.425  10.279 -1.9887  2.5566 -2.0778
  113OSM   H17G11807   0.134  -0.542  10.163 -0.6562  1.2458 -1.1461
  113OSM   C18F11808   0.046  -0.624  10.342  0.1022 -0.1844  0.3662
  113OSM   H18F11809   0.125  -0.611  10.420  1.4205 -0.5002 -0.8853
  113OSM   H18G11810   0.060  -0.726  10.302  0.0379  0.1099 -0.4197
  113OSM   H18H11811  -0.054  -0.611  10.388  1.3924 -3.2671  4.3415
  114OSM      N11812   1.482   6.115  11.746 -0.1502 -0.5638 -0.0870
  114OSM    C1511813   1.471   6.132  11.894 -0.3130  0.1406 -0.4567
  114OSM   H15A11814   1.369   6.151  11.923 -0.4008  1.1750 -1.3709
  114OSM   H15B11815   1.523   6.222  11.925 -1.3016  0.2304  0.9721
  114OSM   H15C11816   1.506   6.045  11.947  2.2236 -0.3969 -2.8415
  114OSM    C1411817   1.406   6.231  11.684 -0.4231  0.5586 -0.4323
  114OSM   H14A11818   1.447   6.325  11.718 -0.2531  0.4763 -0.4092
  114OSM   H14B11819   1.301   6.231  11.710 -0.5732 -1.3925 -0.9612
  114OSM   H14C11820   1.414   6.228  11.577 -0.6521 -0.7856 -0.4234
  114OSM    C1311821   1.631   6.127  11.709 -0.1775  0.1097 -0.1919
  114OSM   H13A11822   1.642   6.129  11.602  0.2966  0.6568 -0.1386
  114OSM   H13B11823   1.690   6.042  11.738  0.0125 -0.3786 -1.9686
  114OSM   H13C11824   1.676   6.219  11.743 -1.0998  0.2694  0.6235
  114OSM    C1211825   1.424   5.979  11.705  0.0488  0.1869  0.2342
  114OSM   H12A11826   1.316   5.978  11.717 -0.0271  0.7859 -0.3574
  114OSM   H12B11827   1.467   5.899  11.763  1.4658  0.3920 -0.5298
  114OSM    C1111828   1.445   5.945  11.551 -0.3997  0.3486 -0.3590
  114OSM   H11A11829   1.404   5.842  11.541 -0.2515  0.2893 -0.3611
  114OSM   H11B11830   1.548   5.924  11.514 -0.2090 -0.2972  0.5094
  114OSM      P11831   1.220   6.034  11.430 -0.0082  0.2871  0.0818
  114OSM    O1311832   1.161   5.901  11.450  0.4396 -0.4545 -0.2569
  114OSM    O1411833   1.159   6.145  11.505  0.1051 -0.1181 -0.8577
  114OSM    O1111834   1.216   6.076  11.275  0.2359 -0.0433 -0.0528
  114OSM    O1211835   1.374   6.024  11.451  0.3663  0.3693  0.4730
  114OSM    C1S11836   1.305   6.056  11.169  1.3497  0.0496  0.4645
  114OSM    H1S11837   1.407   6.048  11.211  0.4845  0.2928  2.6657
  114OSM    H1T11838   1.313   6.142  11.100 -0.4775  0.0447  0.2103
  114OSM     NF11839   1.353   5.938  10.958 -0.1054  0.0164  0.7650
  114OSM    HNF11840   1.303   5.976  10.881  1.6066  0.5068 -0.1413
  114OSM    C2S11841   1.275   5.936  11.078  1.3263  0.4873 -0.6849
  114OSM    H2S11842   1.300   5.846  11.139 -0.9284  0.9683  0.9938
  114OSM    C3S11843   1.120   5.931  11.048  0.4869  0.0605 -0.0692
  114OSM    H3S11844   1.088   6.034  11.021 -0.5016 -0.2290  0.0026
  114OSM     O311845   1.048   5.879  11.156  0.1842 -0.7427 -0.7647
  114OSM    HO311846   1.105   5.905  11.229 -2.0461 -1.0974  1.1744
  114OSM    C4S11847   1.085   5.838  10.936  0.5841 -0.1531  0.8091
  114OSM    H4S11848   1.114   5.734  10.957 -0.1247  0.0224  2.6925
  114OSM    C5S11849   1.024   5.870  10.817 -0.0558  0.2867 -0.4407
  114OSM    H5S11850   0.984   5.971  10.801 -2.7349 -0.3527  1.7430
  114OSM    C6S11851   0.988   5.761  10.720 -0.0301 -0.1778 -0.0923
  114OSM    H6S11852   0.892   5.772  10.665 -0.6729  3.4931  1.6304
  114OSM    H6T11853   0.963   5.662  10.763  0.2496 -0.5681 -0.8182
  114OSM    C7S11854   1.100   5.752  10.614 -0.2302 -0.2940 -0.5731
  114OSM    H7S11855   1.190   5.720  10.671 -2.3940 -3.3608  1.3029
  114OSM    H7T11856   1.112   5.848  10.560  3.1629  0.5909  1.6015
  114OSM    C8S11857   1.073   5.642  10.512 -0.3755  0.3894 -0.1435
  114OSM    H8S11858   0.975   5.666  10.466 -0.4957 -1.6302 -0.9781
  114OSM    H8T11859   1.070   5.540  10.555  3.0739  0.5856  0.7150
  114OSM    C9S11860   1.172   5.646  10.396  0.5611 -0.4539 -0.6787
  114OSM    H9S11861   1.264   5.593  10.431  0.5520  1.0405  1.7196
  114OSM    H9T11862   1.198   5.748  10.361 -1.8399  1.1289  1.9308
  114OSM   C10S11863   1.115   5.558  10.281 -0.3888 -1.5442  0.0385
  114OSM   H10S11864   1.013   5.586  10.246  1.4353  1.2702 -3.3692
  114OSM   H10T11865   1.094   5.456  10.319  1.6498 -1.5187  1.3086
  114OSM   C11S11866   1.209   5.532  10.162  0.0451 -0.6885  0.1554
  114OSM   H11S11867   1.178   5.437  10.113 -0.2366  0.3116 -1.6165
  114OSM   H11T11868   1.310   5.513  10.205  0.2930 -1.5974 -0.8006
  114OSM   C12S11869   1.213   5.645  10.059 -0.0945 -0.2524  0.1565
  114OSM   H12S11870   1.316   5.659  10.020 -0.5752  1.2433 -0.5841
  114OSM   H12T11871   1.199   5.739  10.116  0.6425 -0.9512  1.5379
  114OSM   C13S11872   1.112   5.625   9.948  0.5301  0.2631  0.1413
  114OSM   H13S11873   1.014   5.595   9.991 -0.0815  0.4665 -1.1131
  114OSM   H13T11874   1.139   5.538   9.884 -0.9515  0.1605 -0.3404
  114OSM   C14S11875   1.095   5.747   9.857 -0.3984 -0.5752 -0.4006
  114OSM   H14S11876   1.190   5.757   9.800 -0.0493 -1.0421  0.0870
  114OSM   H14T11877   1.070   5.839   9.913  2.4400 -0.2797  0.5016
  114OSM   C15S11878   0.981   5.725   9.765  0.1160 -0.5235  0.6157
  114OSM   H15S11879   0.896   5.723   9.835  0.8807 -0.3020  1.5609
  114OSM   H15T11880   0.987   5.627   9.714  0.2563 -0.8158  1.1944
  114OSM   C16S11881   0.953   5.822   9.651  0.6630  0.3129  0.3955
  114OSM   H16S11882   1.036   5.810   9.578  0.2597 -1.0969  0.1658
  114OSM   H16T11883   0.967   5.926   9.689  0.0940  1.2484 -1.8768
  114OSM   C17S11884   0.812   5.820   9.582 -0.0282 -0.0546 -0.2708
  114OSM   H17S11885   0.815   5.892   9.497  1.3232 -0.7447 -0.8320
  114OSM   H17T11886   0.744   5.867   9.656  0.2471  1.2580 -0.8426
  114OSM   C18S11887   0.744   5.684   9.558  0.6061  0.2332 -0.5015
  114OSM   H18S11888   0.773   5.624   9.646 -1.5621  0.9109  0.7222
  114OSM   H18T11889   0.782   5.631   9.468 -1.0664 -0.8555 -0.5905
  114OSM   H18U11890   0.634   5.701   9.554  0.2577 -2.2149 -3.6917
  114OSM    C1F11891   1.490   5.909  10.953 -0.3211 -0.0318 -0.4454
  114OSM     OF11892   1.561   5.883  11.050 -0.0766  0.9413 -0.2654
  114OSM    C2F11893   1.560   5.933  10.820  0.1047 -0.1376  0.0886
  114OSM    H2F11894   1.651   5.995  10.837  1.4663 -2.1915  0.5031
  114OSM    H2G11895   1.487   5.984  10.753 -1.1673  1.2260  2.4426
  114OSM    C3F11896   1.606   5.803  10.745  0.0347 -0.0514 -0.0659
  114OSM    H3F11897   1.672   5.752  10.819 -0.2513 -0.4622 -0.0919
  114OSM    H3G11898   1.669   5.825  10.657 -0.8835 -0.4244 -0.8260
  114OSM    C4F11899   1.497   5.705  10.715 -0.8194 -0.6111 -0.6998
  114OSM    H4F11900   1.424   5.747  10.643 -0.9571 -1.9455 -1.3456
  114OSM    H4G11901   1.442   5.681  10.809 -0.6797  0.2028 -0.4002
  114OSM    C5F11902   1.543   5.569  10.652 -0.2211  0.2433  0.0550
  114OSM    H5F11903   1.451   5.517  10.619 -0.5959  1.3257 -0.6272
  114OSM    H5G11904   1.592   5.490  10.713  2.5791  1.5554 -0.4338
  114OSM    C6F11905   1.617   5.590  10.515  0.4182  0.5267  0.8173
  114OSM    H6F11906   1.725   5.566  10.525  1.0871  2.4148 -1.4754
  114OSM    H6G11907   1.594   5.688  10.469 -2.7873 -0.6329 -0.2193
  114OSM    C7F11908   1.564   5.482  10.415 -0.5420  0.3784  0.2099
  114OSM    H7F11909   1.466   5.514  10.373 -0.3204 -0.4114 -0.9330
  114OSM    H7G11910   1.552   5.399  10.488  0.9333 -1.1667 -1.2725
  114OSM    C8F11911   1.654   5.438  10.291  0.0805  0.0504 -0.6455
  114OSM    H8F11912   1.594   5.371  10.226  1.0963 -0.5341 -0.9750
  114OSM    H8G11913   1.724   5.371  10.345 -1.3803 -1.5990 -0.7586
  114OSM    C9F11914   1.722   5.559  10.226  0.1721 -0.1322  0.4494
  114OSM    H9F11915   1.776   5.631  10.289  2.2797 -1.0770 -0.2441
  114OSM   C10F11916   1.702   5.594  10.099 -0.3393 -0.2992 -0.3538
  114OSM   H10F11917   1.768   5.674  10.062 -1.5884  1.6279  1.4731
  114OSM   C11F11918   1.615   5.515  10.006  0.1282  0.3707  0.1133
  114OSM   H11F11919   1.518   5.499  10.057 -0.2701  0.3216 -0.6574
  114OSM   H11G11920   1.658   5.417   9.976 -2.4367  0.4433 -4.2832
  114OSM   C12F11921   1.589   5.591   9.876  0.3938 -0.4558 -0.5505
  114OSM   H12F11922   1.565   5.696   9.900 -1.8095 -1.1618  0.4338
  114OSM   H12G11923   1.500   5.547   9.826  0.8363 -1.1165 -0.7756
  114OSM   C13F11924   1.710   5.586   9.770  0.3051 -0.1737 -0.0362
  114OSM   H13F11925   1.746   5.481   9.760  2.9474  0.6012  0.9911
  114OSM   H13G11926   1.802   5.633   9.810  1.4769 -1.8872 -0.6213
  114OSM   C14F11927   1.665   5.645   9.638  0.3324  0.6334 -0.1980
  114OSM   H14F11928   1.738   5.660   9.555  1.7212  1.1798  1.0834
  114OSM   H14G11929   1.624   5.747   9.647 -0.0839  0.2836  2.3129
  114OSM   C15F11930   1.555   5.560   9.561  0.5020 -0.8289 -0.0768
  114OSM   H15F11931   1.460   5.571   9.617  0.9816  3.2061  0.0989
  114OSM   H15G11932   1.598   5.458   9.562  2.1054 -0.1639  0.1227
  114OSM   C16F11933   1.517   5.623   9.429  0.0459 -0.4190  0.0953
  114OSM   H16F11934   1.607   5.611   9.365  0.8123  1.4398  0.7871
  114OSM   H16G11935   1.517   5.731   9.455  0.6562 -0.3492 -0.1726
  114OSM   C17F11936   1.400   5.558   9.353  0.0756 -0.4428 -0.1966
  114OSM   H17F11937   1.418   5.449   9.338  0.6799 -0.2998 -0.5031
  114OSM   H17G11938   1.389   5.617   9.260 -2.7914 -1.2586 -0.4276
  114OSM   C18F11939   1.263   5.581   9.426 -0.1373 -0.2308  0.3885
  114OSM   H18F11940   1.237   5.689   9.424  0.2106 -0.1767 -3.5351
  114OSM   H18G11941   1.261   5.553   9.534  1.2592  2.6437  1.2114
  114OSM   H18H11942   1.184   5.523   9.373  1.6788 -1.3370 -1.1696
  115OSM      N11943   2.541   2.905   6.114 -0.6257 -0.6599  0.0769
  115OSM    C1511944   2.489   3.008   6.019 -0.0533 -0.6898  0.5519
  115OSM   H15A11945   2.452   3.094   6.074 -2.6753 -2.0999  1.0537
  115OSM   H15B11946   2.401   2.974   5.968 -0.6395  0.3031  0.8901
  115OSM   H15C11947   2.559   3.038   5.942 -1.0813 -0.2132 -0.2099
  115OSM    C1411948   2.570   2.793   6.020  0.1511 -0.5495  0.8351
  115OSM   H14A11949   2.617   2.824   5.928  1.0307  2.8367  2.3655
  115OSM   H14B11950   2.476   2.750   5.990 -1.1023  2.7008 -0.1150
  115OSM   H14C11951   2.628   2.716   6.069  0.7954  0.3960  1.5783
  115OSM    C1311952   2.673   2.940   6.170 -0.0976 -0.2169  0.5293
  115OSM   H13A11953   2.666   3.026   6.235 -0.4682 -0.8948  1.4009
  115OSM   H13B11954   2.746   2.957   6.092 -0.0512  1.0897  0.8454
  115OSM   H13C11955   2.708   2.857   6.230  0.1887 -0.3346  0.2026
  115OSM    C1211956   2.452   2.864   6.231 -0.5431 -0.1288  0.4700
  115OSM   H12A11957   2.359   2.829   6.188 -0.0848  1.1424 -1.6269
  115OSM   H12B11958   2.431   2.949   6.293 -1.4113  0.4711 -0.6303
  115OSM    C1111959   2.496   2.756   6.335  0.1770  0.2701  0.3945
  115OSM   H11A11960   2.422   2.754   6.418 -0.6137 -3.5240 -0.3147
  115OSM   H11B11961   2.587   2.781   6.392  0.3616  0.9519 -0.1804
  115OSM      P11962   2.382   2.544   6.253 -0.1341  0.2561 -0.4794
  115OSM    O1311963   2.275   2.635   6.214  0.1720  0.4724 -0.5532
  115OSM    O1411964   2.413   2.426   6.169 -0.7785 -0.1522  0.0750
  115OSM    O1111965   2.352   2.485   6.390  0.2068  0.1941 -0.3410
  115OSM    O1211966   2.505   2.628   6.276  0.1590 -0.5786 -0.5138
  115OSM    C1S11967   2.442   2.407   6.465 -0.1625  0.0741  0.3701
  115OSM    H1S11968   2.544   2.447   6.451 -0.3452  0.8307  1.0967
  115OSM    H1T11969   2.442   2.306   6.420  2.6243 -0.6874  1.9594
  115OSM     NF11970   2.496   2.308   6.680  0.1251 -0.0144 -0.5077
  115OSM    HNF11971   2.451   2.224   6.706  0.8344  0.0825  1.0804
  115OSM    C2S11972   2.411   2.405   6.612  0.4312  0.1938  0.4585
  115OSM    H2S11973   2.437   2.508   6.645 -0.0889  0.5982 -0.3852
  115OSM    C3S11974   2.257   2.368   6.627 -0.0923 -0.4088  0.4962
  115OSM    H3S11975   2.236   2.272   6.575 -0.7806 -1.3658  2.4860
  115OSM     O311976   2.171   2.456   6.565 -0.0312 -0.1461 -0.1484
  115OSM    HO311977   2.229   2.504   6.505 -1.0307  2.3471  0.8418
  115OSM    C4S11978   2.230   2.353   6.770 -0.1716 -0.1741  0.5591
  115OSM    H4S11979   2.234   2.446   6.829 -0.7582 -0.2101  0.6524
  115OSM    C5S11980   2.204   2.229   6.821  0.2086  0.7675 -0.1933
  115OSM    H5S11981   2.199   2.141   6.755  0.4286  0.4210  0.2547
  115OSM    C6S11982   2.168   2.219   6.968 -0.1754  0.6148  0.0122
  115OSM    H6S11983   2.254   2.165   7.011  1.1967  1.6463 -1.3846
  115OSM    H6T11984   2.073   2.162   6.977 -0.1035  0.5510  0.3473
  115OSM    C7S11985   2.139   2.351   7.048  0.1354  0.0332 -0.2925
  115OSM    H7S11986   2.047   2.395   7.004  0.5670  0.1591 -1.0826
  115OSM    H7T11987   2.225   2.422   7.038 -0.9015  1.0491 -2.2743
  115OSM    C8S11988   2.115   2.325   7.194  0.3797 -0.1882  0.2847
  115OSM    H8S11989   2.204   2.279   7.243  0.5736 -0.6705 -0.4963
  115OSM    H8T11990   2.033   2.253   7.215 -2.3207  2.7416  0.0249
  115OSM    C9S11991   2.072   2.453   7.266  0.0688 -0.5920 -0.4172
  115OSM    H9S11992   1.974   2.483   7.224 -0.5358  1.5580  2.4258
  115OSM    H9T11993   2.141   2.539   7.257 -0.9088  0.5013  2.1699
  115OSM   C10S11994   2.054   2.434   7.417  0.3359 -0.5583 -0.3168
  115OSM   H10S11995   2.149   2.406   7.465 -1.1571 -3.0891  1.2610
  115OSM   H10T11996   1.981   2.351   7.427 -1.1448  0.6202 -0.9892
  115OSM   C11S11997   1.989   2.562   7.480 -0.2914 -0.1944  0.1901
  115OSM   H11S11998   1.987   2.524   7.584  0.8756  0.0107  0.2989
  115OSM   H11T11999   1.886   2.583   7.445 -1.7767 -1.0551  3.8675
  115OSM   C12S12000   2.070   2.691   7.463  0.6408  0.4401 -0.3249
  115OSM   H12S12001   2.021   2.779   7.509 -2.4271 -0.9974 -0.7780
  115OSM   H12T12002   2.080   2.709   7.354  0.5288 -1.8915 -0.7625
  115OSM   C13S12003   2.216   2.684   7.522  0.3099 -1.1907  0.5422
  115OSM   H13S12004   2.279   2.611   7.467  2.0855 -0.0291  1.0078
  115OSM   H13T12005   2.205   2.627   7.617  1.5985 -0.9742  0.8256
  115OSM   C14S12006   2.281   2.821   7.556  0.2110 -0.5394  0.3615
  115OSM   H14S12007   2.380   2.809   7.605  0.6495 -0.9876 -0.6286
  115OSM   H14T12008   2.214   2.853   7.638  0.3808  0.6857  0.0409
  115OSM   C15S12009   2.277   2.924   7.441 -0.1482 -0.2504  0.0360
  115OSM   H15S12010   2.179   2.942   7.391 -0.3881  0.1694  0.6546
  115OSM   H15T12011   2.344   2.878   7.365 -1.0449 -0.2470 -0.7755
  115OSM   C16S12012   2.317   3.066   7.490 -0.1634  0.9144 -0.0474
  115OSM   H16S12013   2.292   3.085   7.597 -0.0921 -1.1873  0.3752
  115OSM   H16T12014   2.269   3.139   7.422 -0.4904  2.6698  2.0300
  115OSM   C17S12015   2.470   3.089   7.477 -0.8387 -0.5255 -0.0040
  115OSM   H17S12016   2.506   3.017   7.553  0.5935 -0.0458 -0.2197
  115OSM   H17T12017   2.489   3.193   7.508  1.0825 -1.4881  2.1857
  115OSM   C18S12018   2.526   3.062   7.333 -0.4663  0.3603 -0.0892
  115OSM   H18S12019   2.634   3.088   7.325 -0.2923 -0.4678 -0.4050
  115OSM   H18T12020   2.486   3.139   7.264  2.4503  1.5636 -0.5136
  115OSM   H18U12021   2.498   2.965   7.288 -0.9134 -0.2503  1.4996
  115OSM    C1F12022   2.624   2.320   6.702 -0.1058  0.2840 -0.2451
  115OSM     OF12023   2.678   2.425   6.665  0.5104 -0.0051 -0.0436
  115OSM    C2F12024   2.702   2.216   6.779  0.4287  0.8324 -0.2743
  115OSM    H2F12025   2.786   2.185   6.714 -0.2403 -1.8382  0.0927
  115OSM    H2G12026   2.638   2.130   6.805 -0.0095  1.2953  0.1996
  115OSM    C3F12027   2.779   2.265   6.909  0.0405 -0.3654  0.0137
  115OSM    H3F12028   2.843   2.350   6.879 -0.4592  0.3126  0.8327
  115OSM    H3G12029   2.851   2.187   6.940  0.1644  0.3131  1.4803
  115OSM    C4F12030   2.692   2.307   7.030 -0.5662  0.0408 -0.3059
  115OSM    H4F12031   2.691   2.225   7.106  0.4442 -0.2102 -0.5660
  115OSM    H4G12032   2.595   2.344   6.991  0.4249  2.0624 -0.8644
  115OSM    C5F12033   2.764   2.432   7.095 -0.1448  1.0344  0.8528
  115OSM    H5F12034   2.775   2.518   7.025 -2.8274  2.4772  2.0803
  115OSM    H5G12035   2.864   2.396   7.126 -1.4343 -1.2695  2.5230
  115OSM    C6F12036   2.690   2.485   7.215 -0.5437  0.1490  0.3527
  115OSM    H6F12037   2.684   2.409   7.296 -1.2205 -0.4305 -0.2372
  115OSM    H6G12038   2.586   2.517   7.190 -0.8425  0.3442  1.7520
  115OSM    C7F12039   2.760   2.608   7.286  0.0093  0.2552 -0.4908
  115OSM    H7F12040   2.800   2.681   7.211  0.6243  0.4630  0.0377
  115OSM    H7G12041   2.842   2.565   7.346 -0.2662  1.1282  0.5126
  115OSM    C8F12042   2.656   2.676   7.367  0.0062 -0.1956  0.2106
  115OSM    H8F12043   2.573   2.715   7.304 -0.1848 -0.0073  0.5834
  115OSM    H8G12044   2.699   2.771   7.405 -1.3262 -0.6675  3.0006
  115OSM    C9F12045   2.608   2.608   7.489  0.1080  0.5762 -0.5731
  115OSM    H9F12046   2.550   2.519   7.463 -0.4942 -0.2868  3.3444
  115OSM   C10F12047   2.635   2.632   7.619 -0.2436  0.6237 -0.5444
  115OSM   H10F12048   2.580   2.568   7.689 -0.2666  0.5797 -0.6022
  115OSM   C11F12049   2.706   2.747   7.686 -0.5629 -0.1865  0.1660
  115OSM   H11F12050   2.696   2.831   7.613 -2.2064  0.5054  1.1521
  115OSM   H11G12051   2.813   2.717   7.690 -1.5119 -3.6611  0.3844
  115OSM   C12F12052   2.646   2.788   7.825 -0.6550  0.1880 -0.4174
  115OSM   H12F12053   2.633   2.696   7.886 -1.0298 -0.5516 -1.6041
  115OSM   H12G12054   2.549   2.839   7.814 -1.4499 -0.6791  2.1248
  115OSM   C13F12055   2.744   2.874   7.903 -0.4963  0.5615  0.1790
  115OSM   H13F12056   2.811   2.943   7.847  0.8371  0.4156  1.5506
  115OSM   H13G12057   2.818   2.801   7.942 -0.1193 -0.1516 -1.7902
  115OSM   C14F12058   2.675   2.956   8.010  0.3341  0.4504  0.4107
  115OSM   H14F12059   2.610   2.885   8.065 -0.9860  1.1087 -0.2581
  115OSM   H14G12060   2.617   3.035   7.956  1.4937  3.0308  2.8305
  115OSM   C15F12061   2.778   3.020   8.107 -0.0802  0.4705  0.4818
  115OSM   H15F12062   2.728   3.088   8.179  1.7223  0.6562  1.6121
  115OSM   H15G12063   2.852   3.075   8.045  2.2370 -1.3102  1.5866
  115OSM   C16F12064   2.841   2.924   8.197  0.6065 -0.0488  0.3541
  115OSM   H16F12065   2.879   2.835   8.143  0.1598 -0.8084  1.2989
  115OSM   H16G12066   2.777   2.873   8.272  0.2043 -0.5740 -0.3489
  115OSM   C17F12067   2.961   2.980   8.271 -0.4125 -0.3243  0.0521
  115OSM   H17F12068   3.034   2.899   8.292 -1.1266 -0.6221  1.4881
  115OSM   H17G12069   2.924   3.033   8.362 -1.8655 -0.0587 -0.6813
  115OSM   C18F12070   3.048   3.082   8.196 -0.4004 -0.2334  0.2167
  115OSM   H18F12071   3.067   3.045   8.093  1.5669 -1.0831  0.8602
  115OSM   H18G12072   3.148   3.081   8.244  0.4518  1.0779 -1.4741
  115OSM   H18H12073   3.007   3.186   8.191  1.3637  0.5145  0.9397
  116OSM      N12074   1.108   6.692   6.035  0.4447  0.0957  0.1209
  116OSM    C1512075   1.070   6.649   5.890  0.3915 -0.5622  0.3106
  116OSM   H15A12076   1.045   6.735   5.829 -0.1224 -1.7041 -1.1051
  116OSM   H15B12077   0.976   6.596   5.887 -0.7861  1.4099  0.6766
  116OSM   H15C12078   1.159   6.604   5.848  1.2426  1.6607 -0.3529
  116OSM    C1412079   1.121   6.565   6.114  0.1741 -0.0787  0.3086
  116OSM   H14A12080   1.037   6.538   6.175 -0.7691 -0.5305 -1.1786
  116OSM   H14B12081   1.203   6.578   6.183  0.1699 -0.3108  0.3568
  116OSM   H14C12082   1.154   6.483   6.051  0.7844  1.3544 -1.2986
  116OSM    C1312083   1.244   6.761   6.036  0.9436 -0.3642  0.5407
  116OSM   H13A12084   1.322   6.690   6.017  0.8039 -0.5775  0.7623
  116OSM   H13B12085   1.276   6.799   6.132  0.8902  0.0962  0.3783
  116OSM   H13C12086   1.255   6.840   5.963 -0.5599  1.2917  2.0580
  116OSM    C1212087   1.003   6.783   6.103  0.5793 -0.0871  1.3524
  116OSM   H12A12088   0.908   6.732   6.102 -0.4863  1.8438 -0.3431
  116OSM   H12B12089   1.001   6.868   6.036  1.3920 -0.5702  0.6944
  116OSM    C1112090   1.034   6.813   6.259 -0.2111  0.5608  0.0506
  116OSM   H11A12091   1.022   6.722   6.321 -0.3564  0.3317 -0.3163
  116OSM   H11B12092   0.953   6.878   6.298 -0.7158  1.5891 -2.5736
  116OSM      P12093   1.207   7.010   6.283  0.1168 -0.3842  0.1566
  116OSM    O1312094   1.344   7.027   6.232  0.0121  0.4336 -0.4356
  116OSM    O1412095   1.106   7.079   6.196  0.2363  0.1057 -0.5864
  116OSM    O1112096   1.205   7.065   6.427 -0.0168  0.4281 -0.5600
  116OSM    O1212097   1.163   6.862   6.286 -0.3995  0.4149 -0.3597
  116OSM    C1S12098   1.198   6.989   6.548 -0.0414 -0.6176  1.2732
  116OSM    H1S12099   1.289   6.926   6.552 -0.2337 -1.4792 -3.9357
  116OSM    H1T12100   1.106   6.927   6.548  1.3008 -2.6346  1.7464
  116OSM     NF12101   1.209   6.992   6.796  0.3491  0.1667 -0.5125
  116OSM    HNF12102   1.127   6.961   6.844 -0.0040  0.0639 -1.1754
  116OSM    C2S12103   1.181   7.081   6.678  0.5042 -0.3428  0.4980
  116OSM    H2S12104   1.258   7.160   6.671 -0.5252  0.6693  0.4354
  116OSM    C3S12105   1.040   7.141   6.676  0.3073 -0.0946 -0.4300
  116OSM    H3S12106   0.968   7.069   6.633 -0.5711  1.6190 -1.9009
  116OSM     O312107   1.026   7.247   6.574 -0.4654 -0.3860 -0.0464
  116OSM    HO312108   1.095   7.216   6.515  0.3347  0.1669  0.5869
  116OSM    C4S12109   1.003   7.206   6.804  0.2913 -0.5396 -0.5420
  116OSM    H4S12110   1.068   7.287   6.840 -2.6310  2.3755 -1.5516
  116OSM    C5S12111   0.884   7.183   6.866 -0.3353  0.4171 -0.2791
  116OSM    H5S12112   0.809   7.112   6.828  1.1967 -2.5152  1.9438
  116OSM    C6S12113   0.839   7.251   6.991  0.6218 -0.4363 -0.2323
  116OSM    H6S12114   0.768   7.189   7.049  1.4917 -0.5265  0.7715
  116OSM    H6T12115   0.783   7.343   6.966 -1.3077 -0.8049  2.5862
  116OSM    C7S12116   0.951   7.297   7.092  0.9781 -0.2846 -0.3735
  116OSM    H7S12117   1.011   7.378   7.045 -0.1723  0.1110 -1.1946
  116OSM    H7T12118   1.014   7.209   7.117 -0.3606 -0.9485  0.7618
  116OSM    C8S12119   0.888   7.349   7.228  0.2022  0.5705  0.1034
  116OSM    H8S12120   0.824   7.266   7.266 -1.3719  1.5378 -0.4119
  116OSM    H8T12121   0.828   7.438   7.200  0.0555 -0.1463 -1.9697
  116OSM    C9S12122   0.990   7.379   7.333 -0.1509 -0.0171  0.7958
  116OSM    H9S12123   1.028   7.482   7.321  0.7397 -0.5047 -0.7775
  116OSM    H9T12124   1.074   7.307   7.322 -0.1428  0.3098 -1.5468
  116OSM   C10S12125   0.922   7.363   7.474  0.6429 -0.3429 -0.1878
  116OSM   H10S12126   0.891   7.257   7.476  0.3191 -0.2229  2.0209
  116OSM   H10T12127   0.827   7.421   7.478  0.4702 -0.4972 -1.8557
  116OSM   C11S12128   1.026   7.392   7.589  0.1272  0.1647 -0.1949
  116OSM   H11S12129   1.053   7.500   7.594  0.3800  0.0395  1.3583
  116OSM   H11T12130   1.116   7.329   7.570 -0.1071 -0.3411  0.3699
  116OSM   C12S12131   0.967   7.383   7.728  0.7213  0.1545  0.1427
  116OSM   H12S12132   0.891   7.305   7.753  0.7536  0.2347  0.5009
  116OSM   H12T12133   0.922   7.484   7.738 -2.6471 -1.2881  0.4601
  116OSM   C13S12134   1.062   7.390   7.849  1.1752 -0.1536 -0.1549
  116OSM   H13S12135   1.107   7.491   7.848  1.7009 -0.3181  3.0993
  116OSM   H13T12136   1.127   7.302   7.830 -1.7334 -2.2771 -0.7236
  116OSM   C14S12137   0.991   7.383   7.986  0.2909 -0.4964 -0.0750
  116OSM   H14S12138   0.935   7.288   7.992 -0.2599 -0.1237  0.8698
  116OSM   H14T12139   0.934   7.478   7.987 -0.0454 -0.6455 -2.5408
  116OSM   C15S12140   1.081   7.394   8.106  0.2238  0.7780 -0.2400
  116OSM   H15S12141   1.119   7.498   8.111 -0.5790  1.0956 -0.6613
  116OSM   H15T12142   1.172   7.335   8.082  0.7862  1.0894  1.0679
  116OSM   C16S12143   1.016   7.365   8.242 -0.7422 -0.3917  0.5680
  116OSM   H16S12144   1.062   7.266   8.264  0.5355 -0.1728 -1.0168
  116OSM   H16T12145   0.906   7.360   8.229 -0.7172  1.0465 -0.3257
  116OSM   C17S12146   1.057   7.464   8.349 -0.5007  0.7844  0.8132
  116OSM   H17S12147   1.015   7.565   8.332  2.0228  2.0782  1.9089
  116OSM   H17T12148   1.168   7.469   8.358 -0.4937 -2.0302  2.9919
  116OSM   C18S12149   1.003   7.421   8.485 -0.0845  0.3791  0.3365
  116OSM   H18S12150   0.904   7.371   8.484 -0.5266  1.2563 -0.6103
  116OSM   H18T12151   0.992   7.510   8.550 -2.2972  0.4337 -0.0960
  116OSM   H18U12152   1.073   7.347   8.529 -0.3908  0.1091  0.3699
  116OSM    C1F12153   1.336   6.952   6.824 -0.1993  0.6818  0.2808
  116OSM     OF12154   1.432   6.978   6.756  0.2716  0.4760 -0.0485
  116OSM    C2F12155   1.355   6.861   6.941  0.1228  0.2427  0.1840
  116OSM    H2F12156   1.294   6.769   6.932 -0.7579  0.9892 -1.6948
  116OSM    H2G12157   1.333   6.925   7.030  1.0357  1.7406 -0.6369
  116OSM    C3F12158   1.499   6.817   6.967  0.6233  0.6772 -0.2968
  116OSM    H3F12159   1.578   6.889   6.995  2.0920 -0.9722 -0.0877
  116OSM    H3G12160   1.536   6.776   6.871  0.1077  0.6358 -0.4800
  116OSM    C4F12161   1.509   6.704   7.066  0.1947  0.6669 -0.5378
  116OSM    H4F12162   1.607   6.654   7.057 -0.4983 -0.7451 -0.3400
  116OSM    H4G12163   1.422   6.640   7.041 -0.4764  1.6410 -0.7488
  116OSM    C5F12164   1.493   6.743   7.213 -0.3120  0.2853 -0.7590
  116OSM    H5F12165   1.469   6.644   7.258  1.5067 -0.1870 -0.8156
  116OSM    H5G12166   1.417   6.822   7.229  0.5082  0.7539  0.9168
  116OSM    C6F12167   1.626   6.774   7.281  0.5524  0.3979 -0.4832
  116OSM    H6F12168   1.677   6.842   7.210  0.7914  0.4946 -0.2156
  116OSM    H6G12169   1.680   6.677   7.280 -2.1747 -1.1698 -0.0596
  116OSM    C7F12170   1.606   6.837   7.418  0.7238  0.1664  0.4953
  116OSM    H7F12171   1.523   6.908   7.399 -2.0919 -2.3916  2.6753
  116OSM    H7G12172   1.693   6.896   7.453  1.4699  0.0357 -1.0972
  116OSM    C8F12173   1.572   6.735   7.524  0.8062  0.0974  0.2657
  116OSM    H8F12174   1.669   6.682   7.535  0.7275 -0.2073 -0.4708
  116OSM    H8G12175   1.502   6.658   7.487  1.4278  1.0382 -3.0777
  116OSM    C9F12176   1.523   6.791   7.658 -0.4954  0.0788  0.1151
  116OSM    H9F12177   1.430   6.847   7.638 -0.3160  1.2484  2.4017
  116OSM   C10F12178   1.591   6.801   7.775  0.1739  0.1064  1.2031
  116OSM   H10F12179   1.539   6.836   7.866 -1.2311  1.2446  0.0063
  116OSM   C11F12180   1.732   6.747   7.792  0.5521  0.5957 -0.2509
  116OSM   H11F12181   1.809   6.825   7.779  0.1373  1.5375  2.6731
  116OSM   H11G12182   1.765   6.660   7.731 -1.3283  0.0401 -0.5026
  116OSM   C12F12183   1.753   6.707   7.941 -0.0750  0.3952 -0.6172
  116OSM   H12F12184   1.741   6.792   8.011  0.0640  3.0369 -3.6538
  116OSM   H12G12185   1.861   6.688   7.953  0.1064  0.3572 -2.2068
  116OSM   C13F12186   1.652   6.597   7.988 -0.2100 -0.6567  0.5230
  116OSM   H13F12187   1.629   6.527   7.905 -1.8617  0.2133  0.2282
  116OSM   H13G12188   1.555   6.648   8.002  1.1382  1.6911  1.5123
  116OSM   C14F12189   1.707   6.508   8.107 -0.4638 -0.1186  0.2621
  116OSM   H14F12190   1.794   6.450   8.068 -1.1179 -0.4911 -0.6736
  116OSM   H14G12191   1.630   6.431   8.132 -0.6863 -0.0457 -0.1956
  116OSM   C15F12192   1.728   6.597   8.230  0.1503  0.1262  0.0979
  116OSM   H15F12193   1.629   6.638   8.261  0.6295  0.4627  1.1971
  116OSM   H15G12194   1.807   6.674   8.222  0.7423 -0.6548 -1.9016
  116OSM   C16F12195   1.778   6.511   8.346 -1.0895 -0.1247 -0.1082
  116OSM   H16F12196   1.732   6.411   8.332 -3.6892  1.1113 -0.6191
  116OSM   H16G12197   1.740   6.542   8.445  1.7865 -0.3818  1.1429
  116OSM   C17F12198   1.931   6.496   8.349 -0.5981  0.0434  0.0017
  116OSM   H17F12199   1.973   6.598   8.367  0.0504  0.5044 -3.5992
  116OSM   H17G12200   1.971   6.475   8.247 -0.8056  3.5120 -0.8887
  116OSM   C18F12201   1.986   6.397   8.457 -0.1971 -0.0195  0.0884
  116OSM   H18F12202   1.919   6.312   8.479  3.5420 -2.6512  1.9329
  116OSM   H18G12203   1.967   6.455   8.550  0.6738  0.2393  0.1104
  116OSM   H18H12204   2.096   6.377   8.450 -0.1180 -0.0700  1.3765
  117OSM      N12205   0.319   2.154   6.052  0.2492  0.3561 -1.0511
  117OSM    C1512206   0.466   2.171   6.022 -0.1462  0.8786  0.2817
  117OSM   H15A12207   0.495   2.274   6.038  0.3624  1.0243 -1.4855
  117OSM   H15B12208   0.485   2.154   5.917  0.8976  1.2122  0.4138
  117OSM   H15C12209   0.533   2.112   6.083 -2.9263 -3.1185 -0.3160
  117OSM    C1412210   0.245   2.267   5.984 -0.1793 -0.0093  0.3790
  117OSM   H14A12211   0.144   2.271   6.021 -0.0942 -0.3855  0.6559
  117OSM   H14B12212   0.244   2.258   5.876  0.2717  2.4574  0.1486
  117OSM   H14C12213   0.289   2.363   6.006  0.5454 -0.0356 -0.8795
  117OSM    C1312214   0.280   2.023   5.989 -0.3577 -0.1040  0.2535
  117OSM   H13A12215   0.339   1.937   6.016  0.4497  1.1439  2.5477
  117OSM   H13B12216   0.297   2.037   5.883 -0.8682  2.5015  0.4712
  117OSM   H13C12217   0.173   2.005   5.993 -0.2811 -0.9137 -0.8933
  117OSM    C1212218   0.304   2.140   6.201 -0.6763 -0.5733 -0.0792
  117OSM   H12A12219   0.342   2.228   6.252  1.6128 -0.2874 -2.1732
  117OSM   H12B12220   0.370   2.063   6.238  1.1486  1.4429  1.0886
  117OSM    C1112221   0.156   2.114   6.260 -0.1920  0.7329  0.3459
  117OSM   H11A12222   0.160   2.094   6.369 -2.6132 -1.4270  0.0907
  117OSM   H11B12223   0.120   2.020   6.212 -1.0544  0.8049  0.8366
  117OSM      P12224   0.089   2.363   6.328 -0.2665  0.2274 -0.0010
  117OSM    O1312225   0.228   2.375   6.385 -0.5127 -0.5197 -0.0170
  117OSM    O1412226   0.039   2.469   6.242  0.3679 -0.5099 -0.0210
  117OSM    O1112227  -0.017   2.340   6.438 -0.5042 -0.0143  0.3985
  117OSM    O1212228   0.082   2.236   6.235 -0.3487  0.5629 -0.2677
  117OSM    C1S12229  -0.008   2.232   6.532  0.4096 -0.0622 -0.1713
  117OSM    H1S12230   0.093   2.225   6.577  1.6749  2.1568 -2.5383
  117OSM    H1T12231  -0.046   2.138   6.485  0.2620  0.8125 -1.8379
  117OSM     NF12232  -0.080   2.186   6.764  0.2835 -0.3343 -0.3934
  117OSM    HNF12233  -0.146   2.116   6.789  0.2184 -0.2581 -0.3557
  117OSM    C2S12234  -0.106   2.267   6.645  0.4978 -0.8290  0.8890
  117OSM    H2S12235  -0.086   2.370   6.683 -0.7684 -1.2758  2.8647
  117OSM    C3S12236  -0.254   2.277   6.597 -0.4025  0.4879  0.4282
  117OSM    H3S12237  -0.291   2.183   6.550  1.5398  0.7153 -1.6121
  117OSM     O312238  -0.276   2.362   6.485  0.0291 -0.3002  0.0533
  117OSM    HO312239  -0.187   2.387   6.460 -0.0475 -1.0183 -0.9697
  117OSM    C4S12240  -0.338   2.319   6.720  0.5229 -0.5773 -0.2220
  117OSM    H4S12241  -0.371   2.226   6.769 -0.7113  0.7169  1.4323
  117OSM    C5S12242  -0.385   2.434   6.760 -0.0940  0.2055  0.3126
  117OSM    H5S12243  -0.354   2.526   6.710 -2.6404  0.5382 -0.7183
  117OSM    C6S12244  -0.467   2.442   6.889  0.6937 -0.1880  0.2672
  117OSM    H6S12245  -0.571   2.419   6.859  0.3932  0.6103  0.6641
  117OSM    H6T12246  -0.463   2.543   6.935 -0.5557  0.1250 -0.2796
  117OSM    C7S12247  -0.425   2.349   7.003  0.7837  0.0976 -0.7713
  117OSM    H7S12248  -0.315   2.352   7.015  1.0347 -1.4952 -2.4529
  117OSM    H7T12249  -0.454   2.246   6.973  0.2314  0.1632 -0.4676
  117OSM    C8S12250  -0.488   2.378   7.142  0.2671 -0.9365  0.1248
  117OSM    H8S12251  -0.537   2.477   7.139  1.6027 -0.3183 -1.9375
  117OSM    H8T12252  -0.407   2.400   7.215  0.4721  0.2708 -0.4610
  117OSM    C9S12253  -0.580   2.273   7.205 -0.7307 -0.1195 -0.2981
  117OSM    H9S12254  -0.518   2.181   7.214 -1.1579 -0.2138  2.0357
  117OSM    H9T12255  -0.660   2.253   7.131  0.0985 -0.2553 -1.1713
  117OSM   C10S12256  -0.633   2.312   7.345 -0.4267 -0.8016 -0.8081
  117OSM   H10S12257  -0.720   2.251   7.380  0.2579 -0.9286  0.7151
  117OSM   H10T12258  -0.658   2.421   7.339  1.2202 -0.4179 -0.7817
  117OSM   C11S12259  -0.531   2.319   7.453  0.8049 -0.2030  0.1195
  117OSM   H11S12260  -0.455   2.397   7.434 -1.6379  1.4384 -3.4578
  117OSM   H11T12261  -0.474   2.224   7.449  1.7827  0.3170  1.3851
  117OSM   C12S12262  -0.587   2.320   7.595 -0.0448  1.1971 -0.1683
  117OSM   H12S12263  -0.499   2.327   7.663 -0.8359 -0.6157  1.1074
  117OSM   H12T12264  -0.633   2.219   7.605  0.3674  0.9762 -0.4636
  117OSM   C13S12265  -0.685   2.427   7.641  0.3970 -0.4727 -0.8118
  117OSM   H13S12266  -0.787   2.401   7.606 -0.8438  1.6061  1.1677
  117OSM   H13T12267  -0.653   2.515   7.581  2.5010 -1.0263 -0.5555
  117OSM   C14S12268  -0.682   2.460   7.791  0.3656 -0.1469  0.6730
  117OSM   H14S12269  -0.725   2.560   7.811  0.7957 -0.5404  3.8587
  117OSM   H14T12270  -0.572   2.467   7.805  0.3633 -0.7007  1.0152
  117OSM   C15S12271  -0.732   2.356   7.896  0.3187 -0.6567 -0.0151
  117OSM   H15S12272  -0.686   2.256   7.878  2.1807  0.2175 -0.2433
  117OSM   H15T12273  -0.842   2.349   7.879  0.6947 -0.1269 -2.8123
  117OSM   C16S12274  -0.703   2.399   8.044 -0.2159  0.5006  0.3197
  117OSM   H16S12275  -0.797   2.392   8.104 -0.5301  3.2529  0.1808
  117OSM   H16T12276  -0.649   2.495   8.049  0.5817  0.0566  0.3409
  117OSM   C17S12277  -0.612   2.284   8.109 -0.1098  0.3968  0.5356
  117OSM   H17S12278  -0.531   2.263   8.036  0.2295  1.5727  0.5615
  117OSM   H17T12279  -0.684   2.200   8.094 -1.2336  1.2634  0.9953
  117OSM   C18S12280  -0.563   2.300   8.256  0.2710 -0.2649 -0.0173
  117OSM   H18S12281  -0.488   2.224   8.284 -0.2895 -0.6815  0.3511
  117OSM   H18T12282  -0.642   2.308   8.333 -0.5376 -1.0619 -0.7658
  117OSM   H18U12283  -0.510   2.398   8.262  1.2717 -0.9292  2.3738
  117OSM    C1F12284   0.033   2.190   6.837  0.0525 -0.5010  0.3538
  117OSM     OF12285   0.126   2.267   6.815 -0.2600 -0.3472 -0.2790
  117OSM    C2F12286   0.041   2.098   6.953  0.5530 -0.5142 -0.3483
  117OSM    H2F12287   0.117   2.020   6.933 -0.5491 -1.9116  0.8293
  117OSM    H2G12288  -0.058   2.050   6.966  0.6691 -0.5194  0.5430
  117OSM    C3F12289   0.090   2.172   7.078  0.0509 -0.2993  0.3180
  117OSM    H3F12290   0.036   2.268   7.090  1.6153  0.8603 -1.6583
  117OSM    H3G12291   0.195   2.208   7.076  0.5826 -1.6210  2.5035
  117OSM    C4F12292   0.057   2.078   7.194 -1.1144  0.1433 -0.3944
  117OSM    H4F12293   0.095   1.974   7.188 -1.2769  0.1046 -0.7784
  117OSM    H4G12294  -0.054   2.082   7.199 -1.1500 -0.3017 -0.7720
  117OSM    C5F12295   0.102   2.144   7.327 -0.5583 -0.5112 -0.1948
  117OSM    H5F12296   0.034   2.232   7.324 -1.3061 -1.0170  1.3486
  117OSM    H5G12297   0.202   2.190   7.317 -0.5965 -0.5965 -1.0598
  117OSM    C6F12298   0.079   2.070   7.456  0.6705 -0.2904 -0.1993
  117OSM    H6F12299  -0.024   2.029   7.441  1.6504 -2.2717 -1.7920
  117OSM    H6G12300   0.088   2.140   7.542 -0.1273  1.3400 -1.3899
  117OSM    C7F12301   0.182   1.966   7.500  0.1863 -0.3508 -0.5188
  117OSM    H7F12302   0.267   2.034   7.523 -0.5400 -0.1379  1.6478
  117OSM    H7G12303   0.200   1.891   7.419 -1.0458 -1.8200  0.5478
  117OSM    C8F12304   0.143   1.881   7.622 -0.4061 -0.1729 -0.1289
  117OSM    H8F12305   0.223   1.804   7.624  0.4918  0.7643  1.2655
  117OSM    H8G12306   0.046   1.839   7.588  0.3049  0.1933 -2.6714
  117OSM    C9F12307   0.130   1.958   7.759 -0.6644  0.5679 -0.2950
  117OSM    H9F12308   0.052   2.035   7.761 -0.7185  0.4848  1.0044
  117OSM   C10F12309   0.204   1.940   7.869 -0.4664  0.7089 -0.2598
  117OSM   H10F12310   0.184   2.006   7.954 -0.0632  2.2298 -1.3371
  117OSM   C11F12311   0.311   1.845   7.894  0.2807  0.3665 -0.0601
  117OSM   H11F12312   0.378   1.851   7.806 -1.1504 -1.5727 -1.3006
  117OSM   H11G12313   0.263   1.745   7.895 -1.3717  1.1412  0.3141
  117OSM   C12F12314   0.387   1.870   8.028 -0.1237  0.6401  0.2340
  117OSM   H12F12315   0.334   1.825   8.114  1.4546 -1.0270  0.3616
  117OSM   H12G12316   0.402   1.975   8.059  1.5849 -0.3818  3.0045
  117OSM   C13F12317   0.526   1.799   8.027 -0.0753  0.0728 -0.2885
  117OSM   H13F12318   0.589   1.860   7.960 -1.9320  0.8031 -1.4164
  117OSM   H13G12319   0.522   1.694   7.992 -1.0193  0.3777 -1.1046
  117OSM   C14F12320   0.601   1.808   8.164 -0.4244  0.1181  0.6181
  117OSM   H14F12321   0.538   1.771   8.248 -3.2627  0.8022 -1.1180
  117OSM   H14G12322   0.624   1.916   8.179 -0.9688  0.3870 -0.4466
  117OSM   C15F12323   0.736   1.735   8.172  0.4425  0.3093  0.2088
  117OSM   H15F12324   0.795   1.753   8.080 -0.6993 -0.7855 -0.7413
  117OSM   H15G12325   0.721   1.625   8.171 -0.7567  0.3547  3.6124
  117OSM   C16F12326   0.821   1.786   8.291 -0.3558 -0.6101 -0.2650
  117OSM   H16F12327   0.788   1.740   8.387  1.1488  0.6641  0.9002
  117OSM   H16G12328   0.797   1.893   8.307  2.3523 -0.0353  0.2289
  117OSM   C17F12329   0.972   1.774   8.265 -0.2544 -0.2167 -0.1853
  117OSM   H17F12330   1.015   1.710   8.345  1.4357 -0.0248 -0.9256
  117OSM   H17G12331   0.995   1.720   8.171 -0.3374 -1.1904  0.3469
  117OSM   C18F12332   1.036   1.917   8.258 -0.0462 -0.2931  0.0371
  117OSM   H18F12333   0.998   1.982   8.340 -0.4242  0.2441 -0.5672
  117OSM   H18G12334   1.014   1.956   8.157  0.2158 -0.6028 -0.1395
  117OSM   H18H12335   1.147   1.921   8.253  0.0832 -3.2663 -0.4884
  118OSM      N12336   2.866   4.563   6.122  0.4831  0.5264  0.3690
  118OSM    C1512337   2.972   4.490   6.204  0.6522 -0.1593 -0.5435
  118OSM   H15A12338   2.926   4.431   6.282  1.9076 -1.3260 -0.6763
  118OSM   H15B12339   3.038   4.564   6.245  0.7930  0.7336 -2.3094
  118OSM   H15C12340   3.039   4.430   6.144  1.6737  2.0669 -1.6800
  118OSM    C1412341   2.940   4.656   6.027 -0.1601 -0.5951  0.2859
  118OSM   H14A12342   2.878   4.706   5.954 -0.0782  1.2037  1.4377
  118OSM   H14B12343   3.021   4.600   5.983 -0.7117 -2.1213  1.1827
  118OSM   H14C12344   2.978   4.744   6.076  0.9130 -0.3998 -0.8694
  118OSM    C1312345   2.790   4.469   6.039  0.0590 -0.1573  0.2485
  118OSM   H13A12346   2.848   4.425   5.959 -1.3331  0.2615 -1.0109
  118OSM   H13B12347   2.709   4.519   5.989  0.4012 -1.4021 -1.6315
  118OSM   H13C12348   2.741   4.396   6.102  0.7821 -0.3447  0.5927
  118OSM    C1212349   2.778   4.640   6.217 -0.1586 -0.2147  0.2413
  118OSM   H12A12350   2.691   4.680   6.165  0.3348  0.0587 -0.3743
  118OSM   H12B12351   2.837   4.727   6.239  0.1376 -0.9016  2.2459
  118OSM    C1112352   2.714   4.567   6.332  0.3100  0.3337 -0.1410
  118OSM   H11A12353   2.647   4.639   6.383 -0.1340 -0.9709  1.1640
  118OSM   H11B12354   2.794   4.541   6.404  0.1845  0.0188 -0.1114
  118OSM      P12355   2.485   4.450   6.273 -0.1900  0.2809 -0.0155
  118OSM    O1312356   2.428   4.568   6.213 -0.1586 -0.0289 -0.4839
  118OSM    O1412357   2.439   4.325   6.211  0.0174  0.6188 -0.0804
  118OSM    O1112358   2.454   4.446   6.428 -0.1281 -0.2284  0.0289
  118OSM    O1212359   2.649   4.446   6.268 -0.1584  0.5482 -0.0847
  118OSM    C1S12360   2.484   4.336   6.509  0.2115 -0.5072  0.0357
  118OSM    H1S12361   2.566   4.280   6.459  0.3623  1.3953 -1.8676
  118OSM    H1T12362   2.390   4.278   6.518 -0.4218  0.4655 -0.2931
  118OSM     NF12363   2.588   4.263   6.719  0.4400 -0.4282  0.4229
  118OSM    HNF12364   2.525   4.187   6.733 -1.0181  0.6922  0.0752
  118OSM    C2S12365   2.529   4.375   6.652 -0.0461 -0.1387 -0.2737
  118OSM    H2S12366   2.604   4.457   6.646  0.8848 -0.8225  1.7705
  118OSM    C3S12367   2.396   4.431   6.726 -0.0997 -0.8264 -0.0289
  118OSM    H3S12368   2.322   4.349   6.718  1.9330 -2.5844 -1.5125
  118OSM     O312369   2.347   4.546   6.656 -0.0403  0.0842  0.8241
  118OSM    HO312370   2.374   4.524   6.566 -1.8890  1.5138 -0.1055
  118OSM    C4S12371   2.417   4.470   6.869 -0.6183 -0.2738  0.1296
  118OSM    H4S12372   2.457   4.572   6.880 -2.1453  0.3078  0.3917
  118OSM    C5S12373   2.377   4.405   6.973 -0.1392  0.8760 -0.3343
  118OSM    H5S12374   2.337   4.304   6.959 -1.0491  1.3548 -1.2626
  118OSM    C6S12375   2.407   4.443   7.111 -0.7998 -0.1232 -0.9241
  118OSM    H6S12376   2.314   4.429   7.170  1.4663 -0.4814  2.7157
  118OSM    H6T12377   2.444   4.545   7.137 -1.6577 -0.2270  0.7495
  118OSM    C7S12378   2.510   4.353   7.185 -0.9715  0.3227 -0.7138
  118OSM    H7S12379   2.610   4.367   7.138 -1.4077 -0.4886 -1.9023
  118OSM    H7T12380   2.480   4.246   7.184  0.0733 -0.0057  1.1650
  118OSM    C8S12381   2.535   4.390   7.329  0.5612  0.6247 -0.3906
  118OSM    H8S12382   2.585   4.489   7.335 -1.1158  1.4720 -0.2601
  118OSM    H8T12383   2.604   4.320   7.380  2.0567  3.8456  2.1670
  118OSM    C9S12384   2.420   4.392   7.430  0.6435 -0.8200  0.7328
  118OSM    H9S12385   2.365   4.297   7.416 -0.5038 -0.1977  0.9409
  118OSM    H9T12386   2.348   4.476   7.415 -0.0457 -1.3663  0.9785
  118OSM   C10S12387   2.467   4.404   7.573  0.5916  0.1818  1.0914
  118OSM   H10S12388   2.483   4.513   7.593 -1.1400  0.8764 -1.0524
  118OSM   H10T12389   2.558   4.344   7.594  0.0712 -0.9846  0.0797
  118OSM   C11S12390   2.342   4.376   7.663  0.0052  0.4470 -0.2677
  118OSM   H11S12391   2.319   4.268   7.660 -1.7542  0.7748  0.9302
  118OSM   H11T12392   2.253   4.427   7.620 -1.4619 -1.3545  0.5838
  118OSM   C12S12393   2.363   4.413   7.814  0.3772 -0.3275  0.7533
  118OSM   H12S12394   2.261   4.396   7.854 -0.3355  0.3318 -0.7490
  118OSM   H12T12395   2.378   4.521   7.834 -1.6556 -0.0883  1.1213
  118OSM   C13S12396   2.463   4.324   7.895 -0.0403  0.1576 -0.2568
  118OSM   H13S12397   2.564   4.340   7.851  1.0373 -1.0933  1.6711
  118OSM   H13T12398   2.438   4.217   7.877 -2.0408  0.7185 -0.9437
  118OSM   C14S12399   2.469   4.375   8.043  0.4220  0.2074 -0.1525
  118OSM   H14S12400   2.361   4.388   8.069  0.4339  0.9420 -0.4642
  118OSM   H14T12401   2.513   4.477   8.046  0.5316  0.2297 -2.2437
  118OSM   C15S12402   2.526   4.277   8.141 -0.0934  0.2892 -0.1415
  118OSM   H15S12403   2.635   4.268   8.118 -0.1740 -2.6114  0.4471
  118OSM   H15T12404   2.487   4.175   8.119  3.0823 -0.7561 -1.3033
  118OSM   C16S12405   2.488   4.306   8.292 -0.5456  0.4766 -0.1833
  118OSM   H16S12406   2.378   4.296   8.300 -0.3188 -1.8252  0.4657
  118OSM   H16T12407   2.510   4.414   8.308 -0.6285  0.1318  2.5619
  118OSM   C17S12408   2.572   4.239   8.400 -0.0268 -0.3317  0.6439
  118OSM   H17S12409   2.680   4.253   8.378 -0.4307  2.0558  0.0474
  118OSM   H17T12410   2.545   4.132   8.390  1.0819 -0.5446 -0.1059
  118OSM   C18S12411   2.536   4.289   8.541 -0.7889 -0.3565 -0.4408
  118OSM   H18S12412   2.549   4.399   8.536  1.9877 -0.7113 -1.5562
  118OSM   H18T12413   2.601   4.244   8.618 -0.5314  1.4465  0.4344
  118OSM   H18U12414   2.428   4.267   8.556 -0.3597 -1.2904  1.4448
  118OSM    C1F12415   2.714   4.229   6.706 -0.3026  0.1080  0.2841
  118OSM     OF12416   2.783   4.299   6.631 -0.1474  0.4098  0.5348
  118OSM    C2F12417   2.766   4.112   6.792 -0.0800 -0.3184 -0.1444
  118OSM    H2F12418   2.802   4.030   6.727 -0.2968  0.3753 -1.1493
  118OSM    H2G12419   2.687   4.074   6.860 -0.4822 -1.5340 -1.2700
  118OSM    C3F12420   2.883   4.163   6.877  0.2954  0.7863 -0.3076
  118OSM    H3F12421   2.831   4.216   6.959 -1.5146 -0.1715 -0.8002
  118OSM    H3G12422   2.951   4.235   6.826 -1.0640  1.4998 -1.1357
  118OSM    C4F12423   2.960   4.051   6.952 -0.1926 -0.5303  0.2716
  118OSM    H4F12424   3.047   4.019   6.892  1.1174  0.4059  1.6314
  118OSM    H4G12425   2.891   3.966   6.972 -0.1694 -0.0090  2.7026
  118OSM    C5F12426   3.008   4.099   7.087 -0.0244 -0.4724 -0.2947
  118OSM    H5F12427   2.924   4.154   7.133 -0.4003 -0.9705 -0.3827
  118OSM    H5G12428   3.089   4.166   7.050 -0.5834  1.7854  2.4473
  118OSM    C6F12429   3.047   3.988   7.183  0.0453  0.0561 -0.2280
  118OSM    H6F12430   3.145   3.952   7.143 -0.4985 -0.7279 -0.8704
  118OSM    H6G12431   2.974   3.904   7.177  0.4602 -0.2454 -1.2978
  118OSM    C7F12432   3.061   4.039   7.324  0.1293 -0.1656  0.1031
  118OSM    H7F12433   2.964   4.086   7.352  1.1140  1.1211  1.3872
  118OSM    H7G12434   3.145   4.109   7.344 -0.1559 -0.6309  3.1489
  118OSM    C8F12435   3.086   3.932   7.438 -0.7251 -0.3871  0.3865
  118OSM    H8F12436   3.021   3.844   7.421  0.7189 -1.3722 -0.1185
  118OSM    H8G12437   3.073   3.984   7.535  0.8290  1.8689 -0.5665
  118OSM    C9F12438   3.237   3.891   7.435 -0.4086 -0.0973 -0.4774
  118OSM    H9F12439   3.278   3.876   7.334  0.7896 -0.0583 -0.0109
  118OSM   C10F12440   3.308   3.853   7.544 -0.0128  0.3847  0.1866
  118OSM   H10F12441   3.412   3.828   7.517 -0.5154 -0.9207 -0.6086
  118OSM   C11F12442   3.251   3.855   7.686  0.1319  0.1657 -0.1508
  118OSM   H11F12443   3.141   3.844   7.680  0.2692 -1.6753  0.3947
  118OSM   H11G12444   3.285   3.955   7.720 -1.7638  1.3097 -1.5377
  118OSM   C12F12445   3.299   3.745   7.781  0.3324 -0.3130 -0.2057
  118OSM   H12F12446   3.410   3.755   7.778  0.2154  1.2878  0.3632
  118OSM   H12G12447   3.270   3.644   7.747 -0.5026 -0.7994  1.8670
  118OSM   C13F12448   3.250   3.775   7.919  0.1840  0.4498 -0.0872
  118OSM   H13F12449   3.140   3.793   7.917  0.3073  1.1621 -1.0165
  118OSM   H13G12450   3.295   3.867   7.963  0.4284  1.0441 -1.5395
  118OSM   C14F12451   3.276   3.657   8.013 -0.4469  0.3041  0.7014
  118OSM   H14F12452   3.387   3.653   8.024 -0.1359  1.1850 -1.7803
  118OSM   H14G12453   3.249   3.558   7.971  0.6292 -0.1058  0.9666
  118OSM   C15F12454   3.211   3.678   8.149  0.2480  0.3888  0.2185
  118OSM   H15F12455   3.104   3.704   8.134  0.2394  0.3513  0.2172
  118OSM   H15G12456   3.260   3.764   8.199  2.2031 -1.8487  2.2369
  118OSM   C16F12457   3.231   3.558   8.248  0.2316  0.2936 -0.4070
  118OSM   H16F12458   3.337   3.535   8.270  0.8665  2.4503 -1.1783
  118OSM   H16G12459   3.182   3.469   8.202 -2.4959 -0.0468  2.9412
  118OSM   C17F12460   3.164   3.590   8.386 -0.5087  0.8145 -0.0741
  118OSM   H17F12461   3.054   3.578   8.380 -0.4917 -0.6929  1.9018
  118OSM   H17G12462   3.174   3.699   8.405 -0.0152  0.8380 -0.4594
  118OSM   C18F12463   3.195   3.501   8.507  0.2371 -0.2695 -0.1934
  118OSM   H18F12464   3.302   3.505   8.540 -0.1905 -1.6651  1.4332
  118OSM   H18G12465   3.171   3.395   8.487 -3.2260  0.6938 -1.5174
  118OSM   H18H12466   3.140   3.531   8.599  0.5571  4.0308 -1.2850
  119OSM      N12467   3.352   5.021   6.076 -0.2527 -0.0928 -0.0482
  119OSM    C1512468   3.309   5.115   5.968  0.1222  0.2385 -0.5469
  119OSM   H15A12469   3.265   5.199   6.020 -2.8713 -1.5917 -0.0175
  119OSM   H15B12470   3.236   5.064   5.907  2.5088 -0.6299 -2.7570
  119OSM   H15C12471   3.387   5.140   5.899  1.5235 -0.0743  0.8848
  119OSM    C1412472   3.487   5.070   6.125  0.5172 -0.4467  0.7019
  119OSM   H14A12473   3.483   5.177   6.111  1.4482 -0.6385 -1.2841
  119OSM   H14B12474   3.572   5.027   6.074  0.9774 -1.3032  2.1408
  119OSM   H14C12475   3.504   5.043   6.228 -0.1982 -2.3929  0.3399
  119OSM    C1312476   3.254   5.023   6.196  0.3398 -0.5818 -0.3993
  119OSM   H13A12477   3.156   5.001   6.157  0.0681  1.1701 -0.7341
  119OSM   H13B12478   3.251   5.124   6.233  0.0196  0.0218 -2.0495
  119OSM   H13C12479   3.280   4.956   6.277 -0.5548  1.5023  1.6700
  119OSM    C1212480   3.377   4.884   6.017  0.5105  1.0478 -0.5260
  119OSM   H12A12481   3.287   4.839   5.978  0.9895  0.9266 -1.4928
  119OSM   H12B12482   3.417   4.817   6.092 -2.2556 -0.4331 -0.3054
  119OSM    C1112483   3.467   4.860   5.894  0.9444  0.4521 -0.2477
  119OSM   H11A12484   3.439   4.923   5.807  0.9496  1.3615  0.4025
  119OSM   H11B12485   3.454   4.753   5.867 -1.7633  0.1512  2.0185
  119OSM      P12486   3.708   4.777   5.969 -0.1671  0.0916  0.1136
  119OSM    O1312487   3.755   4.716   5.844  0.1501  0.3422 -0.7345
  119OSM    O1412488   3.811   4.841   6.053 -0.0587  0.3331 -0.0003
  119OSM    O1112489   3.619   4.672   6.047 -0.3320 -0.2294 -0.2986
  119OSM    O1212490   3.603   4.887   5.925 -0.2857  0.4705 -0.0068
  119OSM    C1S12491   3.653   4.533   6.070 -0.9581  0.3481 -0.4172
  119OSM    H1S12492   3.717   4.485   5.994  0.8971 -1.3301  2.1475
  119OSM    H1T12493   3.561   4.470   6.069 -1.2573  0.7231  1.3694
  119OSM     NF12494   3.740   4.365   6.247 -0.2878  0.0278 -0.4869
  119OSM    HNF12495   3.673   4.306   6.289 -1.6518  1.2884 -0.8503
  119OSM    C2S12496   3.702   4.507   6.221 -0.7087  0.2048 -0.5012
  119OSM    H2S12497   3.797   4.564   6.232  1.0251 -2.8110  0.8819
  119OSM    C3S12498   3.597   4.570   6.320  0.1935  0.5735  0.0226
  119OSM    H3S12499   3.500   4.515   6.315 -0.2019  1.0136  2.2985
  119OSM     O312500   3.564   4.702   6.302  0.6060 -0.4766 -0.4401
  119OSM    HO312501   3.566   4.714   6.207 -1.3299  1.6316 -0.2736
  119OSM    C4S12502   3.650   4.557   6.464  0.8850  0.7142 -0.4713
  119OSM    H4S12503   3.738   4.618   6.489  1.2380  0.8668 -2.0105
  119OSM    C5S12504   3.610   4.475   6.565  0.4507  0.1059  0.1630
  119OSM    H5S12505   3.522   4.410   6.554  0.0682  0.5481  0.6306
  119OSM    C6S12506   3.677   4.464   6.703 -0.3622  0.2425  0.3961
  119OSM    H6S12507   3.775   4.515   6.699 -0.5710  0.5438 -0.9877
  119OSM    H6T12508   3.695   4.359   6.733  1.3218  0.1485 -0.8922
  119OSM    C7S12509   3.584   4.536   6.799  0.3306 -0.1084 -0.3706
  119OSM    H7S12510   3.483   4.493   6.815  0.2170  0.6143  0.9003
  119OSM    H7T12511   3.567   4.634   6.750  1.8296  0.7918  0.8504
  119OSM    C8S12512   3.650   4.545   6.938 -0.0971 -0.2687 -0.1094
  119OSM    H8S12513   3.612   4.625   7.004 -1.4136  0.1333 -1.3355
  119OSM    H8T12514   3.761   4.550   6.944 -0.1138 -0.9616  1.0000
  119OSM    C9S12515   3.615   4.415   7.016  0.5173 -0.0403 -0.4021
  119OSM    H9S12516   3.678   4.327   6.992 -0.8652 -1.0394 -0.4036
  119OSM    H9T12517   3.509   4.400   6.988 -0.0499  2.4338  0.2757
  119OSM   C10S12518   3.623   4.440   7.165 -0.1484  0.6065  0.4220
  119OSM   H10S12519   3.590   4.347   7.217  3.2588  1.3500  4.2047
  119OSM   H10T12520   3.557   4.527   7.185 -0.3398  0.5304  0.1240
  119OSM   C11S12521   3.766   4.471   7.214 -0.0371  0.1510 -0.4926
  119OSM   H11S12522   3.800   4.571   7.180  0.8435 -0.1070 -0.3927
  119OSM   H11T12523   3.834   4.392   7.176  3.0582  0.4898  3.9522
  119OSM   C12S12524   3.781   4.465   7.364  0.2182  0.1883  0.1848
  119OSM   H12S12525   3.755   4.363   7.399 -0.8231  0.8813  1.4699
  119OSM   H12T12526   3.698   4.528   7.403 -1.1927 -0.6846 -1.3952
  119OSM   C13S12527   3.915   4.514   7.423 -0.3397 -1.1339 -0.3923
  119OSM   H13S12528   3.926   4.619   7.389  0.0436 -0.9435  0.3184
  119OSM   H13T12529   3.988   4.468   7.353 -0.4453 -3.1556  0.7954
  119OSM   C14S12530   3.949   4.479   7.571  0.1422  0.5479  0.1308
  119OSM   H14S12531   4.051   4.518   7.592 -0.0693  2.0087 -1.4723
  119OSM   H14T12532   3.957   4.368   7.570 -1.9657  0.3842 -0.6804
  119OSM   C15S12533   3.848   4.528   7.674  0.2765 -0.4351 -0.1853
  119OSM   H15S12534   3.749   4.493   7.639 -1.1082  2.7330  0.3275
  119OSM   H15T12535   3.859   4.638   7.658  1.0631 -0.6924 -1.4983
  119OSM   C16S12536   3.874   4.503   7.824  0.3821 -0.0850  0.4282
  119OSM   H16S12537   3.956   4.576   7.843 -0.3352  1.6017 -2.6481
  119OSM   H16T12538   3.894   4.402   7.865 -1.5934 -1.3739 -1.6786
  119OSM   C17S12539   3.757   4.563   7.902  0.0521  0.3596 -0.3770
  119OSM   H17S12540   3.667   4.503   7.877  0.9313 -0.8795 -0.6191
  119OSM   H17T12541   3.728   4.665   7.872 -0.2363  0.1230 -0.9099
  119OSM   C18S12542   3.769   4.552   8.057 -0.4587  0.0252  0.0480
  119OSM   H18S12543   3.796   4.447   8.085 -0.8610 -0.1596 -0.2522
  119OSM   H18T12544   3.678   4.579   8.114 -1.1316 -1.0479 -0.4961
  119OSM   H18U12545   3.852   4.611   8.100 -0.4098  1.2456 -1.6958
  119OSM    C1F12546   3.855   4.305   6.209  0.5354  0.1705 -0.0473
  119OSM     OF12547   3.928   4.359   6.132  0.2330  0.7115 -0.0056
  119OSM    C2F12548   3.877   4.165   6.257  0.0398 -0.3000 -0.5708
  119OSM    H2F12549   3.902   4.094   6.176  2.2195  0.5358 -0.6818
  119OSM    H2G12550   3.789   4.130   6.314 -0.8644  1.4033 -0.8967
  119OSM    C3F12551   3.999   4.172   6.365 -0.0703 -0.7229 -0.2818
  119OSM    H3F12552   3.978   4.239   6.451 -1.1680 -1.2328 -0.1371
  119OSM    H3G12553   4.086   4.206   6.305 -0.9645 -1.0955 -1.8237
  119OSM    C4F12554   4.054   4.038   6.418  0.6021  0.4867  0.0147
  119OSM    H4F12555   4.153   4.070   6.456  0.8994 -2.0713  1.5362
  119OSM    H4G12556   4.073   3.969   6.333  1.6471  2.5790 -1.4838
  119OSM    C5F12557   3.972   3.964   6.527 -0.2210 -0.0429  0.1631
  119OSM    H5F12558   3.989   3.857   6.499 -4.2895 -0.4677 -0.9934
  119OSM    H5G12559   3.869   3.993   6.498 -0.3591 -1.0939 -0.4479
  119OSM    C6F12560   4.018   3.998   6.669 -0.5012 -0.2790 -0.2394
  119OSM    H6F12561   3.996   4.102   6.701  0.5813 -0.0416 -0.2530
  119OSM    H6G12562   4.126   3.974   6.677  0.0590  1.5246 -1.9840
  119OSM    C7F12563   3.946   3.906   6.775 -0.4629  0.0870 -0.1722
  119OSM    H7F12564   3.967   3.803   6.738  2.0054  0.0951  1.1379
  119OSM    H7G12565   3.836   3.922   6.775 -0.5272 -0.1313  2.3685
  119OSM    C8F12566   4.001   3.924   6.918  0.0910  0.3082 -0.1695
  119OSM    H8F12567   4.111   3.907   6.928 -0.4735 -2.2737  2.2720
  119OSM    H8G12568   3.961   3.845   6.986 -1.3096  1.2574  0.1115
  119OSM    C9F12569   3.966   4.048   6.979 -0.2845  0.0192  0.3135
  119OSM    H9F12570   3.861   4.075   6.962 -0.4003 -0.5733  0.0998
  119OSM   C10F12571   4.042   4.135   7.047 -0.0189 -0.5638 -0.4299
  119OSM   H10F12572   3.994   4.226   7.085 -1.6224 -1.2163 -0.8375
  119OSM   C11F12573   4.193   4.133   7.083  0.4363  0.6133  0.3007
  119OSM   H11F12574   4.242   4.232   7.079  1.5971  0.0409 -0.0056
  119OSM   H11G12575   4.248   4.076   7.005  0.1879 -1.1402  1.3768
  119OSM   C12F12576   4.223   4.063   7.219  0.1076  0.9571 -0.3462
  119OSM   H12F12577   4.329   4.029   7.217 -0.3026 -0.3433 -0.3488
  119OSM   H12G12578   4.156   3.978   7.241  0.5770  0.1648 -1.8626
  119OSM   C13F12579   4.204   4.161   7.337 -0.0053  0.6390  0.2536
  119OSM   H13F12580   4.096   4.172   7.360  0.1083 -0.3107  1.3244
  119OSM   H13G12581   4.226   4.264   7.304  2.1008  0.1834  0.1879
  119OSM   C14F12582   4.283   4.113   7.459  0.2638 -0.2432  0.5699
  119OSM   H14F12583   4.392   4.110   7.436  0.1327  2.3710 -0.5249
  119OSM   H14G12584   4.265   4.007   7.487 -1.7970  0.8027  3.4085
  119OSM   C15F12585   4.256   4.205   7.583  0.5314  0.7377  0.1225
  119OSM   H15F12586   4.148   4.234   7.589  0.8675  2.4214 -1.6411
  119OSM   H15G12587   4.315   4.298   7.567 -0.4744  1.0719 -1.7987
  119OSM   C16F12588   4.299   4.130   7.715 -0.3689 -0.4913  0.2688
  119OSM   H16F12589   4.322   4.207   7.792 -0.1125  0.4733 -0.7642
  119OSM   H16G12590   4.390   4.073   7.687 -0.8616 -1.0341 -0.2761
  119OSM   C17F12591   4.194   4.035   7.772  0.5363 -0.1755 -0.1442
  119OSM   H17F12592   4.237   3.976   7.855  1.1129 -0.0801 -0.3717
  119OSM   H17G12593   4.156   3.966   7.694  1.6435 -0.7242 -0.2103
  119OSM   C18F12594   4.077   4.117   7.834 -0.6055 -0.0684 -0.4215
  119OSM   H18F12595   4.107   4.163   7.931  0.6572 -0.5231 -0.5865
  119OSM   H18G12596   3.981   4.065   7.857  0.1309 -0.5342  1.6780
  119OSM   H18H12597   4.036   4.189   7.760  1.0003  0.2676 -0.9936
  120OSM      N12598   1.244   1.211   6.573  0.4365 -0.2940 -0.1783
  120OSM    C1512599   1.247   1.226   6.726  0.2509 -0.8646 -0.3774
  120OSM   H15A12600   1.317   1.158   6.774  2.1261  2.3946  1.6965
  120OSM   H15B12601   1.148   1.212   6.767  0.3737 -1.5619 -0.3109
  120OSM   H15C12602   1.272   1.326   6.758  0.7174 -1.4563  1.1490
  120OSM    C1412603   1.161   1.312   6.509  0.0631  0.3401  0.1756
  120OSM   H14A12604   1.200   1.411   6.524  0.1507  0.6063 -1.6372
  120OSM   H14B12605   1.059   1.304   6.543 -0.5364 -0.1380 -1.6662
  120OSM   H14C12606   1.162   1.314   6.401  1.1357 -1.7632  0.1078
  120OSM    C1312607   1.380   1.224   6.517  0.0685  0.0799 -0.6227
  120OSM   H13A12608   1.435   1.298   6.572  1.2327 -1.6942  0.6342
  120OSM   H13B12609   1.378   1.246   6.411  1.4848 -2.0559 -1.1447
  120OSM   H13C12610   1.424   1.126   6.530 -1.5524 -0.6936 -0.7135
  120OSM    C1212611   1.184   1.084   6.524  0.5914 -0.4562  0.0135
  120OSM   H12A12612   1.194   1.074   6.417  0.5137  0.9455 -0.1376
  120OSM   H12B12613   1.078   1.080   6.544  0.7251  2.7052  1.5920
  120OSM    C1112614   1.244   0.952   6.580 -0.5987  0.3033  0.3896
  120OSM   H11A12615   1.174   0.868   6.563  1.4504 -1.2670 -0.4392
  120OSM   H11B12616   1.247   0.963   6.690  2.3217  3.6551  0.0824
  120OSM      P12617   1.409   0.834   6.410  0.3028 -0.1980 -0.0270
  120OSM    O1312618   1.287   0.771   6.353 -0.5992  0.1961 -0.2263
  120OSM    O1412619   1.491   0.905   6.310  0.0911  0.0628 -0.0004
  120OSM    O1112620   1.499   0.715   6.461  0.2717 -0.0464 -0.2303
  120OSM    O1212621   1.374   0.927   6.534  0.0687  0.6599 -0.0447
  120OSM    C1S12622   1.612   0.728   6.544  0.8329 -0.2138 -0.1646
  120OSM    H1S12623   1.673   0.816   6.516  1.5807 -0.0170  1.9718
  120OSM    H1T12624   1.672   0.636   6.527  2.7178  0.4705  2.5161
  120OSM     NF12625   1.671   0.728   6.785  0.4918  0.2591  0.7712
  120OSM    HNF12626   1.683   0.648   6.845 -0.2874  0.9987  1.9368
  120OSM    C2S12627   1.566   0.715   6.691 -0.0254 -0.8096  0.1154
  120OSM    H2S12628   1.503   0.804   6.713  1.4392  1.1844 -3.2252
  120OSM    C3S12629   1.480   0.587   6.714  0.4679  0.2224  0.2128
  120OSM    H3S12630   1.556   0.506   6.705  0.5998  0.1849  1.4857
  120OSM     O312631   1.380   0.560   6.621  0.2147 -0.0317  0.0863
  120OSM    HO312632   1.411   0.609   6.545 -1.3653  0.9717  0.0659
  120OSM    C4S12633   1.417   0.576   6.847 -0.1204 -0.8702  0.0891
  120OSM    H4S12634   1.364   0.659   6.897  2.2872  1.1772 -0.5971
  120OSM    C5S12635   1.438   0.460   6.919 -0.0183  0.6056  0.1031
  120OSM    H5S12636   1.498   0.380   6.874 -1.0555 -0.2804  0.2712
  120OSM    C6S12637   1.388   0.441   7.066  0.0347  0.2810 -0.0072
  120OSM    H6S12638   1.311   0.361   7.067  1.1903 -0.8513  0.1067
  120OSM    H6T12639   1.344   0.531   7.116 -3.6488 -2.4629  1.9918
  120OSM    C7S12640   1.505   0.403   7.166 -0.3419 -0.1946 -0.0309
  120OSM    H7S12641   1.590   0.470   7.141 -1.5618  1.1807 -0.5473
  120OSM    H7T12642   1.535   0.299   7.139 -1.2943 -0.3653 -0.4325
  120OSM    C8S12643   1.457   0.427   7.313 -0.5928  0.1087 -0.2618
  120OSM    H8S12644   1.372   0.360   7.336  0.2797 -0.4385  1.4460
  120OSM    H8T12645   1.423   0.532   7.322  1.3661  1.0367 -2.9596
  120OSM    C9S12646   1.579   0.411   7.411  0.2136  0.3775 -0.5301
  120OSM    H9S12647   1.638   0.506   7.410 -0.2347  0.6814  0.7489
  120OSM    H9T12648   1.654   0.338   7.372  1.1188  1.1200 -0.2093
  120OSM   C10S12649   1.539   0.379   7.558  0.3778  0.1934  0.4851
  120OSM   H10S12650   1.635   0.373   7.613  0.4108 -0.1895  0.3881
  120OSM   H10T12651   1.478   0.286   7.563 -0.9601  1.0899  1.1145
  120OSM   C11S12652   1.454   0.498   7.620 -0.0780 -0.4352  0.1406
  120OSM   H11S12653   1.344   0.505   7.606 -0.0281 -0.8909 -0.5088
  120OSM   H11T12654   1.501   0.595   7.593 -1.3110  0.1513  0.0824
  120OSM   C12S12655   1.466   0.490   7.784  0.0310 -0.4747  0.3308
  120OSM   H12S12656   1.400   0.571   7.823 -1.0485  0.1960 -2.7441
  120OSM   H12T12657   1.570   0.523   7.806  0.0874 -0.0729 -0.5090
  120OSM   C13S12658   1.435   0.358   7.842  0.6126  0.7379 -0.5390
  120OSM   H13S12659   1.518   0.288   7.820 -0.1616 -0.2044 -0.4931
  120OSM   H13T12660   1.336   0.321   7.807  0.1391  0.4499  1.0578
  120OSM   C14S12661   1.443   0.368   7.998 -0.3334  0.8392  0.3403
  120OSM   H14S12662   1.361   0.432   8.036  0.3590  1.1514  1.3350
  120OSM   H14T12663   1.535   0.424   8.028  1.0821 -0.3699 -1.6201
  120OSM   C15S12664   1.438   0.234   8.064  0.2699  0.6798 -0.2440
  120OSM   H15S12665   1.491   0.165   7.995 -1.7099 -0.4518 -0.6820
  120OSM   H15T12666   1.333   0.198   8.074  0.0681  0.2404 -3.5696
  120OSM   C16S12667   1.503   0.229   8.202 -0.2165  0.1322  0.2103
  120OSM   H16S12668   1.458   0.304   8.271 -3.3707 -0.9083 -0.6283
  120OSM   H16T12669   1.610   0.257   8.195 -0.0462 -0.7040 -0.5523
  120OSM   C17S12670   1.485   0.091   8.267 -0.4050  0.1078 -1.0361
  120OSM   H17S12671   1.567   0.020   8.241  0.2316 -0.3146  1.9145
  120OSM   H17T12672   1.390   0.050   8.227 -0.6697  0.6421 -0.9465
  120OSM   C18S12673   1.464   0.096   8.418 -0.2712 -0.5806 -0.5710
  120OSM   H18S12674   1.562   0.123   8.464 -0.0635  1.5236 -2.1863
  120OSM   H18T12675   1.422  -0.001   8.454 -0.1786 -1.5243 -2.8844
  120OSM   H18U12676   1.395   0.175   8.452  1.0369  1.0664 -1.6709
  120OSM    C1F12677   1.744   0.838   6.794 -0.4658  0.2766  0.0065
  120OSM     OF12678   1.713   0.942   6.744 -0.5431  0.1673 -0.1257
  120OSM    C2F12679   1.880   0.821   6.871 -0.4621 -1.2265 -0.5710
  120OSM    H2F12680   1.960   0.867   6.810  2.5934 -0.9753  3.4326
  120OSM    H2G12681   1.912   0.716   6.879  1.0374 -0.8691 -1.6298
  120OSM    C3F12682   1.879   0.898   7.002 -0.4323 -0.1307  0.1171
  120OSM    H3F12683   1.965   0.860   7.062 -0.1890  0.7197  0.3060
  120OSM    H3G12684   1.786   0.876   7.060 -1.0295  0.8351 -0.4726
  120OSM    C4F12685   1.884   1.050   6.995 -0.1077 -0.5872 -0.4320
  120OSM    H4F12686   1.802   1.080   6.926 -0.6433 -1.5648 -0.2388
  120OSM    H4G12687   1.974   1.084   6.941  0.8588 -1.6888  0.4438
  120OSM    C5F12688   1.866   1.130   7.121 -0.6582  0.3442 -0.0571
  120OSM    H5F12689   1.760   1.124   7.154 -0.8252 -0.7412 -0.7410
  120OSM    H5G12690   1.878   1.238   7.098 -0.4554  0.3491  0.0601
  120OSM    C6F12691   1.952   1.077   7.242  0.4891 -0.8157  0.4698
  120OSM    H6F12692   2.047   1.041   7.196  0.7621  2.6814 -1.9514
  120OSM    H6G12693   1.896   0.992   7.286  0.3408  0.1617  2.1840
  120OSM    C7F12694   1.975   1.182   7.349  0.5491 -0.2833 -0.2345
  120OSM    H7F12695   1.880   1.227   7.383 -2.3579 -1.2398 -6.3259
  120OSM    H7G12696   2.027   1.267   7.299  0.9830  0.9905  2.2817
  120OSM    C8F12697   2.061   1.124   7.462  0.3792 -0.0509  0.7567
  120OSM    H8F12698   2.097   1.222   7.500  0.8288  0.8749 -1.9053
  120OSM    H8G12699   2.151   1.087   7.410 -0.7479 -0.1157 -1.2115
  120OSM    C9F12700   1.987   1.031   7.566 -0.2341 -0.2716  0.2871
  120OSM    H9F12701   1.953   0.936   7.522 -0.9720  1.2513 -2.6014
  120OSM   C10F12702   1.959   1.057   7.693 -0.2524  0.6255 -0.8855
  120OSM   H10F12703   1.911   0.976   7.750  1.6913 -0.9532 -1.4429
  120OSM   C11F12704   1.996   1.181   7.773  0.4092  0.1597 -0.1660
  120OSM   H11F12705   1.918   1.260   7.764 -1.5099 -1.2029  3.3819
  120OSM   H11G12706   2.085   1.224   7.724 -0.6777  0.3104 -2.0811
  120OSM   C12F12707   2.016   1.159   7.913  0.6415 -0.3543  0.1592
  120OSM   H12F12708   2.085   1.074   7.934 -0.0430 -1.0359 -0.3032
  120OSM   H12G12709   1.925   1.122   7.964 -0.0510 -0.2028 -0.9578
  120OSM   C13F12710   2.057   1.290   7.984  0.0347 -0.1164  0.3670
  120OSM   H13F12711   1.983   1.373   7.983  1.8076  1.4970 -0.1829
  120OSM   H13G12712   2.148   1.315   7.926 -0.4977  1.1667  0.0722
  120OSM   C14F12713   2.120   1.272   8.128  0.0231  0.5741  0.0544
  120OSM   H14F12714   2.185   1.182   8.125  0.2188  0.6684  1.2534
  120OSM   H14G12715   2.043   1.233   8.198  0.6462 -3.5217 -1.3783
  120OSM   C15F12716   2.189   1.408   8.174  0.6471  0.4262 -0.3623
  120OSM   H15F12717   2.119   1.493   8.155  0.2562  0.7815  2.3927
  120OSM   H15G12718   2.279   1.421   8.110 -0.4464  0.7425 -1.8783
  120OSM   C16F12719   2.218   1.412   8.325  0.3716 -0.5207 -0.0131
  120OSM   H16F12720   2.264   1.317   8.359 -1.0695 -0.4537  2.2525
  120OSM   H16G12721   2.124   1.424   8.383  1.0809  0.3242  0.9783
  120OSM   C17F12722   2.320   1.524   8.373 -0.5068 -0.4902 -0.9358
  120OSM   H17F12723   2.306   1.546   8.480 -1.1777 -1.5739 -0.7938
  120OSM   H17G12724   2.297   1.621   8.323 -0.4320  2.2526  4.0575
  120OSM   C18F12725   2.467   1.492   8.335 -0.2821 -0.0664  0.1349
  120OSM   H18F12726   2.502   1.397   8.381 -2.6454 -1.0913 -0.1297
  120OSM   H18G12727   2.525   1.583   8.361  0.3780 -1.0531  2.2458
  120OSM   H18H12728   2.469   1.478   8.225 -1.6823 -4.2522  0.5651
  121OSM      N12729   3.464   3.306   5.931  0.1385  0.0767  0.9499
  121OSM    C1512730   3.449   3.382   6.060 -0.4474  0.2485 -0.1689
  121OSM   H15A12731   3.352   3.426   6.077 -0.7394 -0.2744 -0.4428
  121OSM   H15B12732   3.517   3.465   6.068 -0.7543  0.1175  5.0855
  121OSM   H15C12733   3.474   3.320   6.145 -1.3315  1.0371  0.6769
  121OSM    C1412734   3.338   3.227   5.918 -0.0235  0.5916  0.0993
  121OSM   H14A12735   3.253   3.294   5.910 -3.5356 -3.5837  0.4549
  121OSM   H14B12736   3.324   3.151   5.994  2.6521 -1.2387 -1.1711
  121OSM   H14C12737   3.331   3.168   5.827 -0.6946 -2.9426  2.3385
  121OSM    C1312738   3.471   3.403   5.816  0.1706 -0.0545  0.7933
  121OSM   H13A12739   3.462   3.361   5.717 -0.0739  0.7894  0.4584
  121OSM   H13B12740   3.569   3.449   5.807 -1.4767  3.3360 -0.4412
  121OSM   H13C12741   3.400   3.483   5.825 -0.5296 -0.2875 -2.2041
  121OSM    C1212742   3.588   3.223   5.940 -0.1274  0.1314  0.4574
  121OSM   H12A12743   3.668   3.295   5.942 -1.0058  1.1235  1.0696
  121OSM   H12B12744   3.595   3.161   5.852  1.7786  1.0254 -0.0331
  121OSM    C1112745   3.612   3.125   6.054 -0.4575 -0.3741  0.3330
  121OSM   H11A12746   3.592   3.197   6.136 -0.6225  0.1669 -0.1827
  121OSM   H11B12747   3.716   3.086   6.062  0.4078  1.6236 -0.6963
  121OSM      P12748   3.464   2.965   6.197  0.1951 -0.1268  0.3179
  121OSM    O1312749   3.358   2.866   6.168 -0.4778  0.5404 -0.5026
  121OSM    O1412750   3.579   2.919   6.279 -0.3759 -0.1316  0.1589
  121OSM    O1112751   3.407   3.099   6.255 -0.1058 -0.0566 -0.0167
  121OSM    O1212752   3.521   3.021   6.058 -0.1189  0.2959 -0.3114
  121OSM    C1S12753   3.452   3.148   6.380  0.1395 -0.0177 -0.1466
  121OSM    H1S12754   3.535   3.222   6.380  1.8205 -1.8203 -3.2798
  121OSM    H1T12755   3.492   3.069   6.446  0.6323  0.3747  0.0276
  121OSM     NF12756   3.403   3.277   6.593 -0.3227 -0.4748  0.3495
  121OSM    HNF12757   3.377   3.226   6.674  0.0815 -1.5982 -0.2180
  121OSM    C2S12758   3.344   3.233   6.463  0.4795  0.1780  1.0734
  121OSM    H2S12759   3.308   3.317   6.400 -1.0844 -0.9766  0.3825
  121OSM    C3S12760   3.232   3.134   6.493 -0.0457  0.5045 -0.1172
  121OSM    H3S12761   3.265   3.038   6.538 -2.4705 -0.8668 -1.1584
  121OSM     O312762   3.156   3.099   6.380 -0.0079 -0.4701 -0.0638
  121OSM    HO312763   3.211   3.112   6.303 -1.7797  1.1753 -1.1125
  121OSM    C4S12764   3.137   3.199   6.585 -0.3959 -0.6080 -0.0522
  121OSM    H4S12765   3.080   3.288   6.557  1.0937  0.6621  0.8999
  121OSM    C5S12766   3.131   3.163   6.718  0.4209 -0.6487 -0.2758
  121OSM    H5S12767   3.195   3.085   6.762  1.8186  1.5314  1.7258
  121OSM    C6S12768   3.047   3.222   6.825 -0.6969  0.3695  0.0128
  121OSM    H6S12769   3.016   3.327   6.807 -1.6262 -0.1245 -1.3599
  121OSM    H6T12770   3.104   3.237   6.919  0.8879 -2.1741 -0.4624
  121OSM    C7S12771   2.939   3.124   6.887  1.0787 -0.1672  0.4812
  121OSM    H7S12772   2.872   3.099   6.803 -0.1682 -3.4205  2.3872
  121OSM    H7T12773   2.871   3.176   6.958  0.0639 -0.2491 -0.4236
  121OSM    C8S12774   2.990   2.995   6.954  0.8656  0.3131 -0.7761
  121OSM    H8S12775   3.086   3.018   7.006  0.5940 -0.6198  0.1484
  121OSM    H8T12776   3.022   2.930   6.870 -0.0518  0.1871 -1.0284
  121OSM    C9S12777   2.891   2.922   7.037 -0.1547  0.5968 -0.4938
  121OSM    H9S12778   2.945   2.841   7.090 -1.2681  0.1271 -0.0497
  121OSM    H9T12779   2.806   2.880   6.979  1.9141 -1.4845 -2.0808
  121OSM   C10S12780   2.847   3.001   7.159 -0.1561  0.0292 -0.6195
  121OSM   H10S12781   2.763   2.950   7.210  1.4205 -2.5227 -0.4894
  121OSM   H10T12782   2.806   3.104   7.149 -1.5993 -0.6389 -1.6623
  121OSM   C11S12783   2.958   3.003   7.264  0.2627 -0.9542 -0.0847
  121OSM   H11S12784   3.045   3.060   7.224 -1.1970  0.0458 -1.9189
  121OSM   H11T12785   3.006   2.906   7.289 -1.1265 -1.7505 -0.4366
  121OSM   C12S12786   2.926   3.060   7.397  0.1091  0.2331  0.4661
  121OSM   H12S12787   2.864   2.984   7.450  1.9749 -0.0233  2.3339
  121OSM   H12T12788   2.865   3.149   7.373 -1.1297 -0.8214 -0.4039
  121OSM   C13S12789   3.034   3.088   7.498 -0.1879 -0.0012 -0.1887
  121OSM   H13S12790   3.090   3.180   7.473  1.9036 -1.6156 -1.7133
  121OSM   H13T12791   3.108   3.006   7.491 -0.8319 -0.5413 -0.8085
  121OSM   C14S12792   2.980   3.108   7.642  0.0061  0.3327 -0.2543
  121OSM   H14S12793   2.934   3.022   7.696 -0.7907  0.8406 -0.1079
  121OSM   H14T12794   2.907   3.192   7.639 -3.4516 -2.3124  3.6911
  121OSM   C15S12795   3.097   3.150   7.733  0.9041  1.3391 -0.6004
  121OSM   H15S12796   3.053   3.180   7.831 -0.8254  0.0115 -0.9369
  121OSM   H15T12797   3.130   3.243   7.682  0.1523  1.9715  0.0670
  121OSM   C16S12798   3.223   3.058   7.749  0.0511 -0.4849 -0.1717
  121OSM   H16S12799   3.254   3.032   7.646  0.2453 -0.4201 -0.1297
  121OSM   H16T12800   3.189   2.966   7.801 -2.6641  0.7908  0.4304
  121OSM   C17S12801   3.330   3.130   7.837 -0.0852  0.0913 -0.3593
  121OSM   H17S12802   3.422   3.068   7.832  0.1418  0.2789  1.1635
  121OSM   H17T12803   3.296   3.132   7.943  0.8967  4.5399 -0.0266
  121OSM   C18S12804   3.365   3.280   7.813  0.0641 -0.4983 -0.4039
  121OSM   H18S12805   3.279   3.349   7.823 -0.3649 -0.8727 -1.4289
  121OSM   H18T12806   3.402   3.284   7.708 -2.7223 -0.3852 -1.4176
  121OSM   H18U12807   3.440   3.324   7.883  1.3906  1.6168 -3.0412
  121OSM    C1F12808   3.479   3.383   6.597  0.3199  0.4734 -0.1740
  121OSM     OF12809   3.501   3.441   6.487 -0.0100  0.1429 -0.4857
  121OSM    C2F12810   3.532   3.434   6.733 -0.9191 -0.1876 -0.0442
  121OSM    H2F12811   3.634   3.394   6.749 -0.5305  0.7859 -0.0950
  121OSM    H2G12812   3.457   3.390   6.802 -1.0198  0.1897  0.0864
  121OSM    C3F12813   3.524   3.587   6.762 -0.0985 -0.4686 -0.6100
  121OSM    H3F12814   3.420   3.625   6.758 -0.7866 -2.4563 -2.0911
  121OSM    H3G12815   3.558   3.643   6.672  0.5046 -0.8010 -0.5941
  121OSM    C4F12816   3.577   3.636   6.896  0.4047 -0.1198 -0.3485
  121OSM    H4F12817   3.552   3.743   6.886 -3.4541 -0.7404  1.5214
  121OSM    H4G12818   3.686   3.625   6.912  0.6998  1.0970 -1.4586
  121OSM    C5F12819   3.512   3.582   7.021 -0.5091 -0.0810  0.2058
  121OSM    H5F12820   3.509   3.471   7.017 -3.1116 -0.0486  0.2516
  121OSM    H5G12821   3.410   3.625   7.013 -1.1938 -1.3950  1.4681
  121OSM    C6F12822   3.570   3.621   7.159  0.4000 -0.1971  0.2274
  121OSM    H6F12823   3.575   3.732   7.166  1.8459 -0.3233  1.5699
  121OSM    H6G12824   3.676   3.588   7.169  0.0757 -1.6506 -0.9692
  121OSM    C7F12825   3.490   3.555   7.275 -0.1887  0.4899  0.2390
  121OSM    H7F12826   3.385   3.543   7.243 -0.7303 -0.4639  2.2971
  121OSM    H7G12827   3.497   3.613   7.370  0.5199 -1.2846  1.3015
  121OSM    C8F12828   3.541   3.413   7.315  0.6472 -0.3592  0.4589
  121OSM    H8F12829   3.649   3.426   7.339  1.3815 -0.0061 -2.7508
  121OSM    H8G12830   3.538   3.339   7.232 -1.8935 -0.3154  0.4857
  121OSM    C9F12831   3.472   3.367   7.437  0.5971 -0.0736 -0.5309
  121OSM    H9F12832   3.480   3.432   7.526 -0.9604  0.1154 -0.5229
  121OSM   C10F12833   3.383   3.271   7.444  0.8409  0.5015  0.4574
  121OSM   H10F12834   3.326   3.245   7.534  0.7720  0.3310  0.3647
  121OSM   C11F12835   3.340   3.182   7.326 -0.7824 -0.4238  0.2012
  121OSM   H11F12836   3.359   3.240   7.233 -0.5783  2.3722  1.9217
  121OSM   H11G12837   3.229   3.190   7.332 -0.9393 -1.2308 -1.4513
  121OSM   C12F12838   3.382   3.036   7.318  0.3819 -0.0457  0.8169
  121OSM   H12F12839   3.336   3.000   7.224 -0.1623  0.3799  0.9184
  121OSM   H12G12840   3.336   2.977   7.401 -1.9912  1.6055  0.7279
  121OSM   C13F12841   3.539   3.009   7.300  0.6496  0.8908 -0.0935
  121OSM   H13F12842   3.563   2.903   7.325 -0.6108  0.4815 -0.5710
  121OSM   H13G12843   3.591   3.068   7.377 -0.2132  0.8363  0.5329
  121OSM   C14F12844   3.591   3.028   7.163  0.3374 -0.0822 -0.0755
  121OSM   H14F12845   3.536   3.110   7.114 -1.0890  0.3010  2.0905
  121OSM   H14G12846   3.571   2.934   7.107 -0.6296 -0.7411  1.3245
  121OSM   C15F12847   3.739   3.054   7.162 -0.3112 -0.1704  0.0312
  121OSM   H15F12848   3.790   2.971   7.216 -2.8992 -2.7224 -1.3232
  121OSM   H15G12849   3.751   3.148   7.221  1.0994  0.4031 -1.1362
  121OSM   C16F12850   3.805   3.100   7.030  0.1367 -0.0317 -0.1225
  121OSM   H16F12851   3.910   3.128   7.053 -0.6507  1.3721  1.8525
  121OSM   H16G12852   3.762   3.195   6.992 -0.6416  0.5644  2.1686
  121OSM   C17F12853   3.810   2.990   6.925  0.0026 -0.8469 -0.5969
  121OSM   H17F12854   3.708   2.949   6.908 -1.0996  1.9137 -0.8253
  121OSM   H17G12855   3.874   2.904   6.954 -0.8411 -1.0362  0.7856
  121OSM   C18F12856   3.857   3.026   6.782 -0.3537 -0.7812  0.2809
  121OSM   H18F12857   3.966   3.045   6.782  0.0753 -2.7721  4.7700
  121OSM   H18G12858   3.790   3.104   6.739 -0.2958 -1.1279 -0.4581
  121OSM   H18H12859   3.840   2.933   6.723 -0.7149 -0.0833 -0.7229
  122OSM      N12860   2.077   4.418   5.771  0.3752 -0.2667  0.6115
  122OSM    C1512861   2.056   4.565   5.759 -0.2372 -0.8370 -0.1545
  122OSM   H15A12862   2.088   4.601   5.662 -0.7126 -1.9394 -0.7337
  122OSM   H15B12863   2.115   4.608   5.838 -0.0707 -2.0347  0.3840
  122OSM   H15C12864   1.953   4.594   5.777  0.6047  2.4154 -0.1546
  122OSM    C1412865   2.006   4.350   5.661  0.2304  0.2289 -0.0557
  122OSM   H14A12866   1.899   4.341   5.671  0.2253 -0.4428 -0.6582
  122OSM   H14B12867   2.040   4.250   5.639 -0.6092 -0.0060 -0.2723
  122OSM   H14C12868   2.016   4.413   5.574 -1.0214  3.2338  1.9008
  122OSM    C1312869   2.221   4.373   5.766  0.4510 -0.5383 -0.5069
  122OSM   H13A12870   2.226   4.277   5.816  0.6985 -0.2649  0.0005
  122OSM   H13B12871   2.277   4.453   5.813  1.4354 -0.9849 -0.9201
  122OSM   H13C12872   2.251   4.353   5.664 -0.0190 -2.7447 -0.2417
  122OSM    C1212873   2.014   4.374   5.902 -0.4778 -0.2662 -1.0824
  122OSM   H12A12874   2.021   4.266   5.898 -1.8125 -0.3711 -0.7880
  122OSM   H12B12875   1.908   4.394   5.905 -0.3990  0.2439 -1.6201
  122OSM    C1112876   2.072   4.412   6.042  0.4289  0.0097 -0.6194
  122OSM   H11A12877   2.177   4.377   6.051  0.4161  0.5327  2.0527
  122OSM   H11B12878   2.029   4.357   6.128  3.8685 -1.1823  0.3818
  122OSM      P12879   1.958   4.635   6.118 -1.3317  0.2549  0.3656
  122OSM    O1312880   1.981   4.779   6.094  0.3986  0.6877  0.1045
  122OSM    O1412881   1.835   4.574   6.063 -0.2537 -0.2563 -0.1443
  122OSM    O1112882   1.961   4.593   6.272 -0.6475  0.9483  0.2460
  122OSM    O1212883   2.073   4.551   6.052 -0.1419  0.0121  0.1443
  122OSM    C1S12884   2.082   4.626   6.343 -0.5899 -0.4094  0.2059
  122OSM    H1S12885   2.145   4.702   6.292  0.9827  1.1894  4.3558
  122OSM    H1T12886   2.148   4.537   6.348  0.4801  0.1949 -2.3261
  122OSM     NF12887   2.167   4.717   6.548  0.2297 -0.5594  0.0095
  122OSM    HNF12888   2.210   4.654   6.612 -0.7545 -1.2238  0.0339
  122OSM    C2S12889   2.051   4.666   6.484 -0.0803 -0.0949 -0.8963
  122OSM    H2S12890   1.969   4.740   6.488  0.8850  0.9151  0.9433
  122OSM    C3S12891   1.985   4.540   6.561  0.4521  0.4760 -0.4912
  122OSM    H3S12892   2.058   4.457   6.569  0.3232  0.2815 -1.2958
  122OSM     O312893   1.873   4.488   6.487 -0.4550  0.6925 -0.6985
  122OSM    HO312894   1.872   4.538   6.405  0.0269  0.1968 -1.0113
  122OSM    C4S12895   1.957   4.577   6.699 -0.0407 -0.1407  0.1080
  122OSM    H4S12896   1.885   4.659   6.706  0.4387  0.4651 -1.7632
  122OSM    C5S12897   2.000   4.522   6.820  0.6537  0.2899  0.2964
  122OSM    H5S12898   2.058   4.429   6.817 -0.2942 -0.3120  0.2288
  122OSM    C6S12899   1.954   4.568   6.957  0.0444 -0.3616  1.0189
  122OSM    H6S12900   1.910   4.481   7.010 -0.7523  0.3587  1.5471
  122OSM    H6T12901   1.880   4.648   6.935  1.5195  1.0419  1.0587
  122OSM    C7S12902   2.070   4.613   7.047 -0.4041 -0.0368 -0.4695
  122OSM    H7S12903   2.145   4.666   6.984  2.2832  0.2157  2.8247
  122OSM    H7T12904   2.122   4.521   7.081  0.4184  0.2949 -0.8136
  122OSM    C8S12905   2.021   4.687   7.170  0.2575 -0.1536  0.3824
  122OSM    H8S12906   1.947   4.616   7.213 -1.0566 -0.2388 -1.9696
  122OSM    H8T12907   1.968   4.780   7.142 -0.2725  0.0781  2.0590
  122OSM    C9S12908   2.141   4.699   7.276  0.3114 -0.0068 -0.3384
  122OSM    H9S12909   2.233   4.719   7.218  0.8838  0.2319  0.6396
  122OSM    H9T12910   2.164   4.600   7.321 -1.9104 -0.9504 -1.2033
  122OSM   C10S12911   2.116   4.805   7.379  0.1713  0.0086 -0.1610
  122OSM   H10S12912   2.024   4.774   7.433 -1.4219  0.1886 -2.6933
  122OSM   H10T12913   2.099   4.901   7.326  1.6153  0.8317  0.8405
  122OSM   C11S12914   2.235   4.829   7.472 -0.2495  0.4833  0.6418
  122OSM   H11S12915   2.288   4.916   7.428  0.5990  0.1932  1.0934
  122OSM   H11T12916   2.301   4.741   7.456  1.4052  1.3752  2.4010
  122OSM   C12S12917   2.207   4.840   7.622  0.2231 -0.2016 -0.2503
  122OSM   H12S12918   2.135   4.758   7.644  1.0688 -1.3831 -1.7660
  122OSM   H12T12919   2.157   4.938   7.637  0.9747  1.0412 -5.1335
  122OSM   C13S12920   2.329   4.828   7.712 -0.1733  0.0348 -0.1443
  122OSM   H13S12921   2.382   4.925   7.700  1.1831 -0.6889 -0.1681
  122OSM   H13T12922   2.403   4.756   7.671  0.1363  0.3148 -0.0825
  122OSM   C14S12923   2.305   4.811   7.861  0.1441  0.2992 -0.0690
  122OSM   H14S12924   2.402   4.830   7.911 -0.0905 -3.7378  2.1353
  122OSM   H14T12925   2.256   4.716   7.892 -0.0648  0.2827 -0.4340
  122OSM   C15S12926   2.217   4.928   7.914  0.7268  0.3442  0.1332
  122OSM   H15S12927   2.111   4.894   7.918  1.0194 -0.6567 -0.5229
  122OSM   H15T12928   2.221   5.016   7.846  1.3833 -1.8264 -2.7316
  122OSM   C16S12929   2.261   4.976   8.055 -0.1725 -0.1191 -0.6571
  122OSM   H16S12930   2.181   5.040   8.097 -0.8700 -0.9839 -0.6449
  122OSM   H16T12931   2.351   5.041   8.064 -0.6112  0.4854 -0.6244
  122OSM   C17S12932   2.282   4.866   8.155 -0.0381  0.6763 -0.3716
  122OSM   H17S12933   2.297   4.904   8.259 -0.4898 -1.7904  0.6389
  122OSM   H17T12934   2.376   4.809   8.140  0.6518  1.8789 -0.6592
  122OSM   C18S12935   2.167   4.774   8.175 -0.0649 -0.3089  0.0425
  122OSM   H18S12936   2.110   4.743   8.085 -1.9645  1.1381  0.7160
  122OSM   H18T12937   2.095   4.827   8.241  1.7198  2.5666 -0.2365
  122OSM   H18U12938   2.193   4.679   8.225  2.1396  0.2286 -0.0387
  122OSM    C1F12939   2.240   4.827   6.518  0.4510  0.0861 -0.0668
  122OSM     OF12940   2.220   4.899   6.424 -0.2562  0.0395 -0.0594
  122OSM    C2F12941   2.359   4.855   6.613  0.0026  0.1065 -0.3892
  122OSM    H2F12942   2.416   4.762   6.633  0.6077  0.4773 -0.3632
  122OSM    H2G12943   2.319   4.879   6.714 -1.6006  0.8466 -1.1957
  122OSM    C3F12944   2.445   4.978   6.582  0.0723  0.2319  0.6576
  122OSM    H3F12945   2.381   5.063   6.550  0.2387  0.5107  1.0623
  122OSM    H3G12946   2.506   4.939   6.497  2.0760 -0.0153  2.1638
  122OSM    C4F12947   2.542   5.031   6.696  0.0780 -0.0227 -0.8483
  122OSM    H4F12948   2.485   5.078   6.779  0.7092  1.2337 -1.1232
  122OSM    H4G12949   2.601   5.117   6.659  1.0884  1.0571  3.0522
  122OSM    C5F12950   2.635   4.922   6.750 -0.0349 -0.5791  0.4965
  122OSM    H5F12951   2.697   4.880   6.668 -0.3675  1.0798 -0.6408
  122OSM    H5G12952   2.576   4.841   6.797 -2.4537  1.3225  0.8525
  122OSM    C6F12953   2.743   4.974   6.843 -0.7465  0.1179  0.0787
  122OSM    H6F12954   2.694   5.045   6.914  0.0036 -2.0690  2.8960
  122OSM    H6G12955   2.814   5.034   6.783 -0.7117 -0.2966 -0.2948
  122OSM    C7F12956   2.816   4.868   6.925  0.2455  0.0224  0.4217
  122OSM    H7F12957   2.903   4.912   6.977  2.4627 -0.9750 -2.3107
  122OSM    H7G12958   2.857   4.793   6.854  1.7312 -0.8262  2.1402
  122OSM    C8F12959   2.728   4.794   7.034  0.5190  0.8374  0.0412
  122OSM    H8F12960   2.633   4.758   6.990  0.6097  0.7605 -0.0907
  122OSM    H8G12961   2.691   4.877   7.098 -1.3415 -1.2402  1.7278
  122OSM    C9F12962   2.790   4.684   7.115  0.0293 -0.3166 -0.0026
  122OSM    H9F12963   2.834   4.599   7.061 -0.3092  0.2999 -1.2569
  122OSM   C10F12964   2.828   4.684   7.245  0.7940 -0.1694 -0.3767
  122OSM   H10F12965   2.899   4.612   7.288  2.7334  1.0151 -1.5539
  122OSM   C11F12966   2.801   4.797   7.341 -0.4427  0.1574  0.0457
  122OSM   H11F12967   2.737   4.880   7.305 -0.9289  0.5706  1.7894
  122OSM   H11G12968   2.903   4.836   7.363  0.3080 -1.5490 -0.3311
  122OSM   C12F12969   2.736   4.759   7.480  0.0136  1.1938 -0.6449
  122OSM   H12F12970   2.634   4.718   7.464 -0.3939  1.7734  0.4040
  122OSM   H12G12971   2.717   4.854   7.534  1.7338  2.5173 -2.2840
  122OSM   C13F12972   2.825   4.652   7.557 -0.0135  0.0494 -0.0598
  122OSM   H13F12973   2.933   4.678   7.556 -0.6235  2.7004 -1.5335
  122OSM   H13G12974   2.812   4.563   7.491  1.3591  0.2842 -0.6726
  122OSM   C14F12975   2.766   4.634   7.698 -1.1043 -0.2020  0.8156
  122OSM   H14F12976   2.662   4.595   7.693 -2.0710  2.3011  0.4014
  122OSM   H14G12977   2.767   4.736   7.743  1.4965 -0.1823  0.7868
  122OSM   C15F12978   2.845   4.533   7.785  0.8811  0.1334 -0.0118
  122OSM   H15F12979   2.768   4.492   7.854 -1.2154  1.1468 -1.6674
  122OSM   H15G12980   2.921   4.592   7.840 -1.0975  0.0487  2.9550
  122OSM   C16F12981   2.907   4.417   7.707  0.7331  0.3429  0.1469
  122OSM   H16F12982   2.999   4.461   7.663  0.0251  1.3735 -0.3144
  122OSM   H16G12983   2.837   4.383   7.628 -0.4748  0.0448  1.3301
  122OSM   C17F12984   2.960   4.297   7.796  0.5334 -0.2752 -0.5969
  122OSM   H17F12985   2.892   4.261   7.876  2.3409 -1.1510  0.5765
  122OSM   H17G12986   3.036   4.348   7.859  0.9007 -0.5825 -0.7845
  122OSM   C18F12987   3.029   4.185   7.726  0.5713 -0.4119 -0.1245
  122OSM   H18F12988   3.100   4.131   7.793  0.1885 -2.0520 -1.0153
  122OSM   H18G12989   3.077   4.224   7.633  0.5577 -0.0868  0.0032
  122OSM   H18H12990   2.949   4.115   7.696  1.9206 -2.2864  0.5906
  123OSM      N12991   0.743   0.384   6.289  0.6812  0.0777  0.3481
  123OSM    C1512992   0.646   0.486   6.234  0.1305  0.3480  0.5895
  123OSM   H15A12993   0.688   0.545   6.154 -2.2848 -0.8084 -1.6188
  123OSM   H15B12994   0.618   0.550   6.315 -0.0440 -2.7139  3.0517
  123OSM   H15C12995   0.556   0.441   6.195 -1.4257  2.8116  1.2806
  123OSM    C1412996   0.751   0.267   6.192 -0.3753  0.3388  0.3138
  123OSM   H14A12997   0.814   0.190   6.233 -0.0157 -1.0330 -2.6364
  123OSM   H14B12998   0.798   0.305   6.103  1.3740  3.1419  2.3824
  123OSM   H14C12999   0.654   0.225   6.167  0.3881 -0.5429 -1.2209
  123OSM    C1313000   0.874   0.450   6.293 -0.0849  0.8265 -0.6126
  123OSM   H13A13001   0.955   0.381   6.312  0.3090  1.4953  0.2028
  123OSM   H13B13002   0.885   0.510   6.383 -0.9965 -2.4323  1.7646
  123OSM   H13C13003   0.891   0.512   6.206 -0.9766  1.5333 -0.2888
  123OSM    C1213004   0.704   0.320   6.422 -1.0968 -0.7192 -0.7437
  123OSM   H12A13005   0.768   0.235   6.441 -0.0374 -0.6703 -3.8780
  123OSM   H12B13006   0.606   0.277   6.405 -1.2231 -0.2053 -1.3089
  123OSM    C1113007   0.687   0.409   6.542 -0.4376  0.3640 -0.4986
  123OSM   H11A13008   0.785   0.453   6.570  0.0764 -1.3525  0.4572
  123OSM   H11B13009   0.670   0.354   6.637 -0.8165 -0.3730 -0.9854
  123OSM      P13010   0.431   0.468   6.549  0.3982  0.1209  0.1996
  123OSM    O1313011   0.354   0.590   6.557 -0.0894  0.2606  0.3817
  123OSM    O1413012   0.377   0.372   6.448 -0.0242  0.5134 -0.0855
  123OSM    O1113013   0.436   0.392   6.692  0.1515  0.5174 -0.1428
  123OSM    O1213014   0.584   0.508   6.529  0.2382  0.1213 -0.6926
  123OSM    C1S13015   0.491   0.465   6.807  0.1707 -0.3988 -0.0730
  123OSM    H1S13016   0.568   0.537   6.775 -1.7436  1.4178 -0.6888
  123OSM    H1T13017   0.536   0.395   6.881  1.0992 -0.7442 -0.9560
  123OSM     NF13018   0.424   0.618   6.997  0.4460  0.0193 -0.3952
  123OSM    HNF13019   0.427   0.571   7.085 -0.9178 -1.7030 -1.2568
  123OSM    C2S13020   0.372   0.537   6.888 -0.0907  0.4538  0.0518
  123OSM    H2S13021   0.317   0.610   6.824 -1.2848 -0.2423  0.2718
  123OSM    C3S13022   0.260   0.436   6.923  0.7131 -0.2283  0.5148
  123OSM    H3S13023   0.301   0.349   6.979  2.7445  0.1226 -0.3938
  123OSM     O313024   0.186   0.373   6.814 -0.2861 -0.4274 -0.1199
  123OSM    HO313025   0.244   0.393   6.740  0.2684  0.4314  0.5430
  123OSM    C4S13026   0.157   0.500   7.001  0.4668 -0.6831 -0.2990
  123OSM    H4S13027   0.118   0.589   6.950  0.1937 -0.4862  0.2463
  123OSM    C5S13028   0.099   0.468   7.116 -0.4841 -0.8532  0.3696
  123OSM    H5S13029   0.123   0.376   7.171  1.0833 -1.4880 -1.3223
  123OSM    C6S13030   0.001   0.546   7.192  0.4519  0.1476  0.3406
  123OSM    H6S13031  -0.092   0.488   7.210  0.1176  0.9603  1.2285
  123OSM    H6T13032  -0.026   0.634   7.129  0.4313  0.7238  1.1548
  123OSM    C7S13033   0.051   0.597   7.330  0.0990 -0.4543 -0.3703
  123OSM    H7S13034   0.137   0.667   7.324 -0.0884 -0.1456  0.4797
  123OSM    H7T13035   0.084   0.506   7.383  2.2924  1.2418  1.2715
  123OSM    C8S13036  -0.060   0.660   7.410  0.2906  0.3649 -0.1667
  123OSM    H8S13037  -0.146   0.592   7.427  1.9627 -1.7127  0.0770
  123OSM    H8T13038  -0.092   0.742   7.342  0.4144 -0.6003 -1.3902
  123OSM    C9S13039  -0.012   0.729   7.538  0.2713  0.3367  0.3579
  123OSM    H9S13040   0.062   0.810   7.527 -1.3389  1.9834  1.4055
  123OSM    H9T13041   0.042   0.652   7.597 -1.0747 -1.3948 -0.6154
  123OSM   C10S13042  -0.130   0.783   7.624 -0.0645  0.0409 -0.1679
  123OSM   H10S13043  -0.196   0.696   7.644  1.5759 -0.7755  1.8254
  123OSM   H10T13044  -0.183   0.859   7.562  3.0562  1.6504 -0.9791
  123OSM   C11S13045  -0.080   0.850   7.753 -0.1120  0.1917 -0.2432
  123OSM   H11S13046  -0.019   0.932   7.709  2.0437 -0.6350  1.1605
  123OSM   H11T13047  -0.016   0.795   7.825 -0.0147  0.0789 -0.4143
  123OSM   C12S13048  -0.190   0.907   7.849 -0.8242  0.8182  0.6501
  123OSM   H12S13049  -0.266   0.826   7.857  0.4737 -0.5699 -0.8787
  123OSM   H12T13050  -0.246   0.992   7.805  0.8191  0.7142 -1.7239
  123OSM   C13S13051  -0.141   0.947   7.986  0.1875 -0.0396 -0.0725
  123OSM   H13S13052  -0.110   0.857   8.044  0.5238  0.0519 -0.1099
  123OSM   H13T13053  -0.231   0.973   8.044  0.6634 -0.2288  0.7527
  123OSM   C14S13054  -0.017   1.034   8.003  0.4173  0.5867 -0.1243
  123OSM   H14S13055  -0.037   1.127   7.946 -2.4899  2.7996  4.2160
  123OSM   H14T13056   0.059   0.972   7.951  0.4692 -0.6183  1.3391
  123OSM   C15S13057   0.013   1.075   8.149 -0.3238 -0.3884  0.2678
  123OSM   H15S13058   0.115   1.119   8.158  0.5558 -2.0117 -1.4541
  123OSM   H15T13059  -0.003   0.981   8.208  1.0193 -0.4393  0.5767
  123OSM   C16S13060  -0.092   1.168   8.218 -0.4424 -0.0918 -0.0570
  123OSM   H16S13061  -0.159   1.097   8.271 -0.8313 -0.9902 -1.7356
  123OSM   H16T13062  -0.147   1.225   8.140 -0.7208 -0.4965 -0.1551
  123OSM   C17S13063  -0.034   1.266   8.319  0.5216  0.9205 -0.8626
  123OSM   H17S13064   0.006   1.351   8.259 -1.5641  0.9986 -2.2017
  123OSM   H17T13065   0.051   1.222   8.375  0.5815  1.0999 -0.8128
  123OSM   C18S13066  -0.130   1.324   8.428 -0.0895 -0.4394 -0.3627
  123OSM   H18S13067  -0.225   1.364   8.387  0.1676  0.2639 -0.2702
  123OSM   H18T13068  -0.078   1.410   8.475  0.3951 -0.6370 -0.5379
  123OSM   H18U13069  -0.164   1.244   8.497  0.2993 -0.0728  0.2533
  123OSM    C1F13070   0.500   0.720   6.986  0.2962  0.2007  0.6320
  123OSM     OF13071   0.550   0.757   6.882 -0.5023  0.1762  0.3536
  123OSM    C2F13072   0.534   0.784   7.120  1.1865  0.1452  0.3078
  123OSM    H2F13073   0.528   0.894   7.104 -2.1397  0.1363  1.1144
  123OSM    H2G13074   0.638   0.766   7.154  1.5747  2.1181  0.2715
  123OSM    C3F13075   0.432   0.765   7.232 -0.0054 -0.5024 -0.2788
  123OSM    H3F13076   0.396   0.661   7.247 -2.0759  0.0461 -1.1583
  123OSM    H3G13077   0.342   0.826   7.207 -0.1028 -0.4996  0.0761
  123OSM    C4F13078   0.478   0.825   7.368  0.0632 -0.2399  0.0744
  123OSM    H4F13079   0.504   0.932   7.356 -0.4758 -0.4815 -3.8202
  123OSM    H4G13080   0.568   0.761   7.386  2.2180  2.2430 -1.4856
  123OSM    C5F13081   0.365   0.812   7.473  0.0210  0.7593 -0.3262
  123OSM    H5F13082   0.301   0.721   7.480  2.2405 -0.7993  0.3483
  123OSM    H5G13083   0.291   0.892   7.452 -0.9295  1.4537  5.0171
  123OSM    C6F13084   0.430   0.847   7.606  0.2082  1.1622 -0.1632
  123OSM    H6F13085   0.498   0.935   7.603  0.8175  0.6905 -0.3019
  123OSM    H6G13086   0.483   0.753   7.632  0.1446  1.1552 -0.0571
  123OSM    C7F13087   0.319   0.886   7.694  0.2512 -0.5909  0.5062
  123OSM    H7F13088   0.245   0.804   7.703 -2.2163  1.6399  1.3210
  123OSM    H7G13089   0.276   0.974   7.641  2.3303  0.8494  1.1172
  123OSM    C8F13090   0.363   0.947   7.828 -0.2861 -0.7484 -0.2515
  123OSM    H8F13091   0.271   0.972   7.886 -0.9033  0.3560 -1.6783
  123OSM    H8G13092   0.423   1.041   7.821  0.2081 -1.0270  0.1334
  123OSM    C9F13093   0.444   0.845   7.906  0.2397 -0.8409  0.7419
  123OSM    H9F13094   0.542   0.833   7.858 -0.5979 -0.6174 -1.0557
  123OSM   C10F13095   0.395   0.762   8.006  0.6200 -0.1111  0.1436
  123OSM   H10F13096   0.463   0.684   8.046  1.4138  0.9579  0.9010
  123OSM   C11F13097   0.257   0.779   8.065 -0.0408 -0.5036  0.5165
  123OSM   H11F13098   0.194   0.730   7.988  1.5572 -1.6013 -0.1145
  123OSM   H11G13099   0.226   0.885   8.079  2.6822  0.5197 -0.8253
  123OSM   C12F13100   0.237   0.689   8.187 -0.3060  0.4188 -0.1717
  123OSM   H12F13101   0.325   0.687   8.255 -1.2151 -1.3717  0.9845
  123OSM   H12G13102   0.222   0.586   8.148 -2.6505  0.4852  0.4973
  123OSM   C13F13103   0.130   0.753   8.282  0.6194  0.0826 -0.4703
  123OSM   H13F13104   0.039   0.757   8.218  0.5912 -1.1330 -0.5184
  123OSM   H13G13105   0.166   0.854   8.309  2.2310  0.0327 -2.3478
  123OSM   C14F13106   0.113   0.672   8.410  0.1634  0.6607  0.4948
  123OSM   H14F13107   0.206   0.674   8.470 -0.1779 -0.4159  1.0667
  123OSM   H14G13108   0.095   0.565   8.388  1.2625  0.4037  0.8237
  123OSM   C15F13109   0.001   0.741   8.494 -0.0951 -0.0735  0.1288
  123OSM   H15F13110  -0.099   0.746   8.445  0.4039  1.8409 -0.7208
  123OSM   H15G13111   0.041   0.844   8.497 -0.5289  0.0883  0.4181
  123OSM   C16F13112  -0.009   0.690   8.641  0.6005 -0.6513  0.5231
  123OSM   H16F13113  -0.082   0.753   8.696 -0.0272 -0.2270 -0.7814
  123OSM   H16G13114   0.090   0.718   8.685  0.6272 -0.4844  0.3540
  123OSM   C17F13115  -0.032   0.541   8.654 -0.8743 -0.2090 -0.3647
  123OSM   H17F13116   0.054   0.481   8.617 -0.9922 -1.1600  0.8809
  123OSM   H17G13117  -0.113   0.497   8.591 -0.9071 -0.0295 -0.4480
  123OSM   C18F13118  -0.062   0.500   8.802  0.2839 -0.3534 -0.2526
  123OSM   H18F13119  -0.062   0.389   8.805  1.9333 -0.3266  1.3479
  123OSM   H18G13120  -0.164   0.543   8.813  0.5619  0.6721 -1.5201
  123OSM   H18H13121   0.013   0.547   8.868  2.6645  0.7981 -3.6247
  124OSM      N13122   0.350   2.923   6.249  0.0505  0.3289 -0.2903
  124OSM    C1513123   0.245   2.811   6.263 -0.1634  0.1758  0.2774
  124OSM   H15A13124   0.231   2.791   6.368 -0.5998 -0.1621  0.1586
  124OSM   H15B13125   0.279   2.723   6.209 -1.3268  0.1182 -0.3845
  124OSM   H15C13126   0.148   2.847   6.231  0.0214 -1.9091 -2.9051
  124OSM    C1413127   0.403   2.919   6.112 -0.0957  0.2969 -0.1843
  124OSM   H14A13128   0.467   3.006   6.104  0.0432  0.0753 -1.6243
  124OSM   H14B13129   0.327   2.914   6.036 -1.1921  1.6881  0.7734
  124OSM   H14C13130   0.456   2.827   6.094  0.7791 -0.0651  3.7228
  124OSM    C1313131   0.283   3.051   6.289  0.3295 -0.1377 -0.0899
  124OSM   H13A13132   0.196   3.075   6.230  0.6891  1.2111 -0.0783
  124OSM   H13B13133   0.347   3.137   6.282 -0.8960  1.0020  2.0319
  124OSM   H13C13134   0.263   3.058   6.395 -0.7407  1.0599 -0.3641
  124OSM    C1213135   0.463   2.888   6.350  0.4424 -0.1857 -0.6638
  124OSM   H12A13136   0.527   2.818   6.298  2.4862  2.8948 -2.3945
  124OSM   H12B13137   0.414   2.834   6.430  3.1713  0.3702  1.4609
  124OSM    C1113138   0.563   2.999   6.396  0.4134 -0.2662 -0.5973
  124OSM   H11A13139   0.637   2.960   6.469 -0.4014  0.2668  0.5299
  124OSM   H11B13140   0.501   3.075   6.448  1.4225  1.0649 -1.3057
  124OSM      P13141   0.767   3.000   6.239  0.1703 -0.3145  0.2162
  124OSM    O1313142   0.763   2.851   6.233  0.0739  0.1270 -0.7102
  124OSM    O1413143   0.811   3.069   6.120  0.1739 -0.6531  0.4271
  124OSM    O1113144   0.854   3.047   6.358 -0.0808 -0.1543 -0.2068
  124OSM    O1213145   0.629   3.053   6.284 -0.2240 -0.0311  0.1613
  124OSM    C1S13146   0.860   3.188   6.385 -0.3070 -0.0668 -0.3016
  124OSM    H1S13147   0.754   3.214   6.406 -0.4415  0.6426 -1.7952
  124OSM    H1T13148   0.894   3.244   6.295 -1.8852 -1.8195 -2.0288
  124OSM     NF13149   0.942   3.362   6.542  0.0829 -0.0770 -1.2707
  124OSM    HNF13150   1.033   3.402   6.535 -0.2576  0.6713 -1.5187
  124OSM    C2S13151   0.949   3.220   6.509  0.4406 -0.8233 -0.4611
  124OSM    H2S13152   0.913   3.159   6.594 -0.6481  1.3401  0.6710
  124OSM    C3S13153   1.102   3.166   6.495  0.2379  0.1410  0.0303
  124OSM    H3S13154   1.152   3.213   6.408  3.3826  0.3676  1.8815
  124OSM     O313155   1.099   3.034   6.441  0.1881  0.2517  0.6273
  124OSM    HO313156   1.017   3.026   6.392  0.6444 -1.0776  0.0527
  124OSM    C4S13157   1.183   3.165   6.622 -0.7160  0.0132 -0.1707
  124OSM    H4S13158   1.147   3.090   6.695  1.4309 -0.2414  0.6571
  124OSM    C5S13159   1.282   3.258   6.654 -0.1923 -0.0463 -0.5070
  124OSM    H5S13160   1.305   3.340   6.585 -0.6453  0.9944  0.5534
  124OSM    C6S13161   1.368   3.249   6.782  0.3484  0.3480  0.6070
  124OSM    H6S13162   1.451   3.323   6.772 -1.2849  2.3037  1.1149
  124OSM    H6T13163   1.394   3.142   6.793 -0.8379 -0.0715 -0.5917
  124OSM    C7S13164   1.307   3.284   6.918  0.6907  0.4569 -0.0329
  124OSM    H7S13165   1.222   3.217   6.943  0.2260  0.1974 -2.2161
  124OSM    H7T13166   1.268   3.388   6.910  0.0237 -0.0134 -3.7740
  124OSM    C8S13167   1.412   3.298   7.026  0.0525 -0.4581  0.0291
  124OSM    H8S13168   1.462   3.394   7.001  0.1430 -0.1626  1.2894
  124OSM    H8T13169   1.493   3.229   6.996  1.4688  1.0067  0.3905
  124OSM    C9S13170   1.355   3.270   7.166  0.1957  0.3005 -0.1063
  124OSM    H9S13171   1.300   3.174   7.152 -2.3996  1.4437  1.9506
  124OSM    H9T13172   1.290   3.350   7.206  2.3206  1.3938  1.2559
  124OSM   C10S13173   1.476   3.262   7.261 -0.2170 -0.1802  0.0667
  124OSM   H10S13174   1.527   3.360   7.263  0.2700 -0.4544  1.5865
  124OSM   H10T13175   1.555   3.201   7.213 -0.7679  0.6706 -1.9479
  124OSM   C11S13176   1.446   3.224   7.409 -0.1177  0.1771 -0.5988
  124OSM   H11S13177   1.441   3.115   7.431 -1.3353  0.3875  0.2489
  124OSM   H11T13178   1.353   3.271   7.449  0.6603  0.3903  0.9685
  124OSM   C12S13179   1.568   3.280   7.497 -0.2650  0.2760  0.0382
  124OSM   H12S13180   1.606   3.375   7.454  0.6454  0.4259  1.1558
  124OSM   H12T13181   1.654   3.209   7.496 -2.2199 -2.1938  0.9453
  124OSM   C13S13182   1.510   3.313   7.636  0.1156  0.0780 -0.4492
  124OSM   H13S13183   1.409   3.358   7.630  0.4636  0.7557 -1.4202
  124OSM   H13T13184   1.584   3.377   7.690 -2.0756  0.3893  2.2886
  124OSM   C14S13185   1.481   3.189   7.725 -0.4170  0.7205  0.2828
  124OSM   H14S13186   1.578   3.159   7.769 -0.3134  1.9026  0.8658
  124OSM   H14T13187   1.459   3.101   7.660  3.0481 -0.4413  0.6088
  124OSM   C15S13188   1.373   3.191   7.829  0.0440 -0.6149 -0.4783
  124OSM   H15S13189   1.279   3.233   7.786  0.8016 -1.2129 -2.7757
  124OSM   H15T13190   1.411   3.263   7.905  1.1028 -1.4587 -0.1986
  124OSM   C16S13191   1.341   3.060   7.899 -1.0203  0.4012 -0.9806
  124OSM   H16S13192   1.301   2.979   7.834 -0.1928  0.0851 -1.1098
  124OSM   H16T13193   1.271   3.076   7.983  0.2008  2.2361 -0.2685
  124OSM   C17S13194   1.470   3.018   7.967 -0.2917  0.1306  0.2978
  124OSM   H17S13195   1.500   3.109   8.024 -1.8588  1.6165 -1.1895
  124OSM   H17T13196   1.547   3.003   7.889  0.5358  1.6017  0.8035
  124OSM   C18S13197   1.472   2.904   8.062 -0.1444  0.0781  1.3579
  124OSM   H18S13198   1.400   2.919   8.146 -0.7713 -1.9052  1.1974
  124OSM   H18T13199   1.577   2.882   8.093  0.0423  0.6666  1.1374
  124OSM   H18U13200   1.433   2.811   8.015  0.7044  1.3537 -2.0214
  124OSM    C1F13201   0.839   3.423   6.580  0.1541  0.2266 -0.1786
  124OSM     OF13202   0.731   3.365   6.609 -0.3490  0.0862  0.7813
  124OSM    C2F13203   0.863   3.569   6.592  0.0725  0.1198  0.3199
  124OSM    H2F13204   0.770   3.617   6.627 -0.8649 -0.8081 -0.8435
  124OSM    H2G13205   0.891   3.600   6.489  0.1553  0.3209  0.4012
  124OSM    C3F13206   0.977   3.601   6.686 -0.2059  0.6508 -0.0462
  124OSM    H3F13207   0.987   3.712   6.679 -0.3893  0.6230 -0.7390
  124OSM    H3G13208   1.072   3.550   6.660 -1.1175  0.1666 -2.5362
  124OSM    C4F13209   0.938   3.560   6.826  0.0960 -0.7581 -0.2393
  124OSM    H4F13210   0.955   3.450   6.832 -1.9494 -1.1670 -1.4147
  124OSM    H4G13211   0.833   3.565   6.862  1.0063 -0.5269  2.5423
  124OSM    C5F13212   1.038   3.626   6.933 -0.7840  0.4498 -0.1580
  124OSM    H5F13213   1.030   3.737   6.932  1.1700  0.6087 -1.9252
  124OSM    H5G13214   1.142   3.607   6.899 -1.6547 -0.1880 -2.5983
  124OSM    C6F13215   1.020   3.581   7.073 -0.4360 -0.1620 -0.5399
  124OSM    H6F13216   1.012   3.470   7.072  0.1725 -0.2164  0.4360
  124OSM    H6G13217   0.920   3.615   7.109  0.6106  2.8119 -0.3568
  124OSM    C7F13218   1.132   3.611   7.165 -0.0037  0.6259  0.1582
  124OSM    H7F13219   1.153   3.719   7.176 -0.6716  0.6384  1.5289
  124OSM    H7G13220   1.218   3.565   7.113  0.1294  3.0614 -1.8701
  124OSM    C8F13221   1.118   3.552   7.305 -0.7322  0.3091 -0.1652
  124OSM    H8F13222   1.129   3.442   7.299  0.1722  0.4234 -0.7356
  124OSM    H8G13223   1.019   3.577   7.349 -0.6302  0.9375 -0.2821
  124OSM    C9F13224   1.235   3.607   7.388  0.6568  0.4822  0.1137
  124OSM    H9F13225   1.322   3.636   7.327  0.6918  0.7995  0.3111
  124OSM   C10F13226   1.236   3.641   7.514  0.2869 -0.1223 -0.0815
  124OSM   H10F13227   1.325   3.693   7.554 -0.0949  0.9191 -0.5716
  124OSM   C11F13228   1.122   3.631   7.616  0.3504 -0.2459 -0.1695
  124OSM   H11F13229   1.042   3.570   7.569  2.8949 -1.2099 -3.4730
  124OSM   H11G13230   1.070   3.727   7.632  2.2938  0.6057  1.2391
  124OSM   C12F13231   1.147   3.567   7.750  0.0548  0.1378  0.2447
  124OSM   H12F13232   1.198   3.469   7.758 -0.0862 -0.1137 -1.8594
  124OSM   H12G13233   1.045   3.544   7.789  0.4378  0.1216  1.2433
  124OSM   C13F13234   1.215   3.659   7.857 -0.3797 -0.2575 -0.0281
  124OSM   H13F13235   1.153   3.750   7.873  0.3129 -0.0467  1.6044
  124OSM   H13G13236   1.305   3.710   7.817  0.0805 -1.1778 -0.1720
  124OSM   C14F13237   1.256   3.598   7.995 -0.7301  0.1292 -0.6506
  124OSM   H14F13238   1.300   3.676   8.061 -1.1147 -0.6309  0.5279
  124OSM   H14G13239   1.324   3.511   7.987 -0.9109  0.0170 -0.9714
  124OSM   C15F13240   1.121   3.572   8.079  0.3632 -0.8412  0.0214
  124OSM   H15F13241   1.075   3.490   8.019  1.0058  1.2471 -3.4924
  124OSM   H15G13242   1.060   3.665   8.077  1.3053 -0.2099  0.4182
  124OSM   C16F13243   1.132   3.523   8.219 -0.0886 -0.3267 -0.0519
  124OSM   H16F13244   1.031   3.488   8.251  0.2021  1.4554  3.1225
  124OSM   H16G13245   1.164   3.608   8.284 -3.5969  2.1279 -1.3730
  124OSM   C17F13246   1.219   3.397   8.235 -0.2345 -0.3026 -0.1444
  124OSM   H17F13247   1.327   3.422   8.239 -0.5414  1.3791 -1.5916
  124OSM   H17G13248   1.197   3.328   8.151  1.2784 -0.8667 -0.0806
  124OSM   C18F13249   1.188   3.314   8.357 -0.1148 -0.6194 -0.1089
  124OSM   H18F13250   1.092   3.261   8.335 -0.5281 -0.8747  2.2224
  124OSM   H18G13251   1.179   3.382   8.444 -0.7358  0.0775 -0.7089
  124OSM   H18H13252   1.272   3.242   8.361  2.0356  1.8658  1.3077
  125OSM      N13253   4.007   1.963   6.355 -0.3910  0.6818 -0.5070
  125OSM    C1513254   4.031   2.046   6.230 -0.4755 -0.0118  0.5250
  125OSM   H15A13255   4.135   2.074   6.224 -0.0628 -1.7970 -1.3902
  125OSM   H15B13256   3.969   2.135   6.235  1.4891  1.6297 -2.4007
  125OSM   H15C13257   4.013   1.975   6.151 -0.5306 -1.8892  2.1927
  125OSM    C1413258   4.054   1.826   6.325  0.4235 -0.2618 -0.2019
  125OSM   H14A13259   3.998   1.792   6.239 -0.2851  0.0361  0.1327
  125OSM   H14B13260   4.031   1.766   6.413 -0.2950  0.3684  0.0495
  125OSM   H14C13261   4.158   1.832   6.300  0.5728 -0.3398  0.3849
  125OSM    C1313262   4.097   2.010   6.475  0.5825 -0.4503 -0.2622
  125OSM   H13A13263   4.071   2.107   6.512 -0.9408 -0.5601 -0.9971
  125OSM   H13B13264   4.200   2.005   6.442 -0.1674 -0.7283 -2.7342
  125OSM   H13C13265   4.083   1.941   6.557  0.9199  0.9202  0.9660
  125OSM    C1213266   3.866   1.964   6.396 -0.0504  0.2976  0.1263
  125OSM   H12A13267   3.807   1.916   6.320  0.9610 -0.2854 -0.3013
  125OSM   H12B13268   3.834   2.067   6.407  3.9524  1.4944  1.4730
  125OSM    C1113269   3.835   1.886   6.522  0.5032 -0.0289  0.2180
  125OSM   H11A13270   3.737   1.920   6.561  1.1663 -0.9188  2.7105
  125OSM   H11B13271   3.915   1.897   6.598 -0.2322 -1.8972  1.2865
  125OSM      P13272   3.698   1.694   6.412  0.1353 -0.2668 -0.0402
  125OSM    O1313273   3.655   1.777   6.296 -0.0119  0.1990 -0.7357
  125OSM    O1413274   3.709   1.550   6.386  0.4384 -0.2548  0.1102
  125OSM    O1113275   3.589   1.706   6.522  0.1663  0.2790 -0.8946
  125OSM    O1213276   3.830   1.747   6.483  0.0526 -0.2232  0.0648
  125OSM    C1S13277   3.587   1.642   6.652 -0.8597 -0.1658 -0.1104
  125OSM    H1S13278   3.680   1.581   6.652 -1.0137 -0.4092 -0.8574
  125OSM    H1T13279   3.495   1.580   6.659 -0.8965 -0.0764  0.2071
  125OSM     NF13280   3.600   1.658   6.891 -0.0849  0.8664 -0.4416
  125OSM    HNF13281   3.517   1.653   6.946  0.3191 -0.7436  0.0547
  125OSM    C2S13282   3.588   1.743   6.777  0.9615  0.3783 -0.2427
  125OSM    H2S13283   3.676   1.810   6.767 -0.7732  2.6622 -0.6107
  125OSM    C3S13284   3.458   1.830   6.783  0.6329 -0.0228 -0.7016
  125OSM    H3S13285   3.369   1.766   6.801  0.3198  0.8336  0.9043
  125OSM     O313286   3.435   1.895   6.660 -0.0529  0.0623 -0.1614
  125OSM    HO313287   3.471   1.839   6.591  0.1616  0.5974 -0.4911
  125OSM    C4S13288   3.470   1.924   6.894 -0.1575  0.4067 -0.1536
  125OSM    H4S13289   3.407   1.910   6.983 -0.0595 -0.4552 -0.2123
  125OSM    C5S13290   3.557   2.028   6.893 -0.7414 -0.1191 -1.0471
  125OSM    H5S13291   3.601   2.060   6.798 -2.0916  2.7417 -0.7742
  125OSM    C6S13292   3.578   2.120   7.008 -0.1346 -0.1320  0.0637
  125OSM    H6S13293   3.562   2.224   6.971 -0.7440  0.1551  1.0931
  125OSM    H6T13294   3.682   2.116   7.047 -0.1918  1.5251  0.4562
  125OSM    C7S13295   3.490   2.076   7.131 -0.2127  0.2658  1.3647
  125OSM    H7S13296   3.490   1.966   7.144 -0.2845 -0.1412 -1.8585
  125OSM    H7T13297   3.386   2.108   7.109 -0.1993 -0.2915  0.4893
  125OSM    C8S13298   3.530   2.143   7.257  0.1066 -0.2812 -0.0120
  125OSM    H8S13299   3.517   2.252   7.240 -0.3070 -0.3975 -0.4208
  125OSM    H8T13300   3.636   2.130   7.288  0.0578  0.0782  0.3184
  125OSM    C9S13301   3.438   2.113   7.372 -0.4822 -0.0843 -0.7139
  125OSM    H9S13302   3.432   2.005   7.397  1.5493 -0.8395 -3.2785
  125OSM    H9T13303   3.339   2.143   7.333 -1.8713 -2.1837  1.0366
  125OSM   C10S13304   3.460   2.192   7.510  0.2515 -1.0858  0.4076
  125OSM   H10S13305   3.428   2.298   7.496  0.2748 -1.2801 -1.1860
  125OSM   H10T13306   3.568   2.193   7.538  0.4952  2.9913 -0.3336
  125OSM   C11S13307   3.396   2.124   7.633  0.3765 -0.5938  0.2160
  125OSM   H11S13308   3.413   2.014   7.635  0.5584 -0.5930 -1.4473
  125OSM   H11T13309   3.286   2.134   7.623  0.2840 -1.0808  0.7146
  125OSM   C12S13310   3.433   2.192   7.765 -0.2158  0.1742  0.1555
  125OSM   H12S13311   3.401   2.299   7.758 -1.3819 -0.0017  2.2545
  125OSM   H12T13312   3.542   2.188   7.784 -0.8159 -0.9210  3.7057
  125OSM   C13S13313   3.358   2.125   7.879 -0.2259  1.1453 -0.1504
  125OSM   H13S13314   3.394   2.020   7.881  0.1143  1.2526 -0.5817
  125OSM   H13T13315   3.250   2.134   7.856 -0.3979 -0.4551 -0.0155
  125OSM   C14S13316   3.402   2.187   8.013 -0.3643 -0.1619 -0.1781
  125OSM   H14S13317   3.359   2.289   8.009  0.6431  0.3260  1.2774
  125OSM   H14T13318   3.512   2.190   8.021 -0.5650  1.2238  2.8502
  125OSM   C15S13319   3.335   2.122   8.142 -0.3952 -0.1648 -0.5692
  125OSM   H15S13320   3.373   2.019   8.157 -3.7036 -1.4828 -0.7563
  125OSM   H15T13321   3.224   2.115   8.131 -0.4259  0.4284 -0.6323
  125OSM   C16S13322   3.345   2.189   8.279  0.2928  0.4875 -0.7860
  125OSM   H16S13323   3.293   2.287   8.281  0.2985  0.4725  1.4090
  125OSM   H16T13324   3.450   2.206   8.312 -0.7144 -0.3920  3.2391
  125OSM   C17S13325   3.284   2.103   8.392  0.7673  0.3071  0.0134
  125OSM   H17S13326   3.325   2.001   8.402 -0.0704 -0.1367 -1.0358
  125OSM   H17T13327   3.174   2.100   8.373  0.8554  1.5696 -0.7871
  125OSM   C18S13328   3.298   2.178   8.529 -0.3547  0.1858  0.2018
  125OSM   H18S13329   3.240   2.127   8.608  0.4282 -1.6825 -0.4065
  125OSM   H18T13330   3.254   2.280   8.522 -1.7453 -0.5401 -2.0213
  125OSM   H18U13331   3.403   2.186   8.565  0.3573  2.8106 -2.2539
  125OSM    C1F13332   3.705   1.587   6.924 -0.3837  0.1734  0.1567
  125OSM     OF13333   3.804   1.579   6.858  0.5513 -0.8626 -0.1583
  125OSM    C2F13334   3.681   1.512   7.056  0.3879 -0.2162 -0.2245
  125OSM    H2F13335   3.620   1.420   7.044  0.5301 -0.4466  0.7502
  125OSM    H2G13336   3.624   1.577   7.126  1.1875 -0.0657  0.3026
  125OSM    C3F13337   3.818   1.487   7.130  0.5216  0.0379 -0.2548
  125OSM    H3F13338   3.863   1.587   7.148  0.8093 -0.0321 -0.5902
  125OSM    H3G13339   3.885   1.427   7.065 -1.6697 -1.0473 -1.5641
  125OSM    C4F13340   3.797   1.429   7.273  0.2387 -0.2166 -0.6894
  125OSM    H4F13341   3.758   1.325   7.261  2.9986 -1.8586  3.4827
  125OSM    H4G13342   3.722   1.494   7.323 -0.7768 -1.6625 -0.3108
  125OSM    C5F13343   3.919   1.432   7.369 -0.6021 -0.5274  0.8989
  125OSM    H5F13344   3.952   1.538   7.368  1.6222 -1.1900  1.9583
  125OSM    H5G13345   4.001   1.367   7.330 -0.6015 -0.4345  0.7424
  125OSM    C6F13346   3.899   1.409   7.522 -0.0145  0.2027  0.3429
  125OSM    H6F13347   3.801   1.449   7.556  0.3344 -1.2657  3.2614
  125OSM    H6G13348   3.985   1.459   7.573  1.0495 -2.5765  1.3974
  125OSM    C7F13349   3.889   1.260   7.559  0.5881  0.3034  0.4542
  125OSM    H7F13350   3.978   1.200   7.532  0.9874  0.7437  0.7907
  125OSM    H7G13351   3.801   1.213   7.509  1.8407 -0.4772 -1.0437
  125OSM    C8F13352   3.868   1.237   7.710 -0.1994  0.1236  0.5835
  125OSM    H8F13353   3.965   1.264   7.756  0.2148  1.0495 -0.7981
  125OSM    H8G13354   3.867   1.126   7.711  0.9742  0.0694 -1.9871
  125OSM    C9F13355   3.749   1.294   7.783  0.0445  0.6326 -0.5583
  125OSM    H9F13356   3.660   1.283   7.719  0.5357 -0.5845 -1.0505
  125OSM   C10F13357   3.745   1.349   7.906 -0.1473  0.2981 -0.4437
  125OSM   H10F13358   3.649   1.385   7.947 -0.9879  1.1965 -3.1123
  125OSM   C11F13359   3.864   1.368   7.997  0.9020 -0.0090 -0.1902
  125OSM   H11F13360   3.908   1.467   7.975 -0.0110  0.4127 -0.1449
  125OSM   H11G13361   3.940   1.289   7.981  0.9037 -0.1209  0.3567
  125OSM   C12F13362   3.820   1.362   8.145  0.0372 -0.0874 -0.6264
  125OSM   H12F13363   3.734   1.432   8.156 -1.1114 -1.3127 -1.6551
  125OSM   H12G13364   3.904   1.401   8.206 -1.2085  0.8627  0.5185
  125OSM   C13F13365   3.782   1.227   8.193  0.6260 -0.3964  0.0519
  125OSM   H13F13366   3.881   1.181   8.211  1.0025  0.3975  0.0495
  125OSM   H13G13367   3.730   1.181   8.107 -2.1446  2.2416  0.2217
  125OSM   C14F13368   3.707   1.213   8.325  0.1448 -0.1848  0.1368
  125OSM   H14F13369   3.600   1.225   8.299  0.0693 -0.8137  0.1402
  125OSM   H14G13370   3.741   1.279   8.408  0.3241 -1.0607  0.7745
  125OSM   C15F13371   3.712   1.071   8.387 -0.3246  0.4531 -0.6772
  125OSM   H15F13372   3.692   0.990   8.313 -0.1347 -0.8632  0.6929
  125OSM   H15G13373   3.624   1.053   8.452 -0.7052  2.3638 -0.6439
  125OSM   C16F13374   3.837   1.042   8.468  0.0313  0.2345 -0.5245
  125OSM   H16F13375   3.859   1.119   8.546  2.0038 -1.7486  0.9409
  125OSM   H16G13376   3.917   1.051   8.391  0.3235  2.8225  0.0094
  125OSM   C17F13377   3.873   0.900   8.529  0.4474  0.0180  0.4991
  125OSM   H17F13378   3.800   0.836   8.474  1.3066 -2.4195  2.1187
  125OSM   H17G13379   3.857   0.892   8.638  0.1138  0.5608  0.4910
  125OSM   C18F13380   4.011   0.847   8.493 -0.5738 -0.7241  0.0536
  125OSM   H18F13381   4.019   0.830   8.384  1.4976 -1.4226  0.2771
  125OSM   H18G13382   4.019   0.752   8.551 -1.2864  0.2072  1.6980
  125OSM   H18H13383   4.096   0.916   8.513 -1.1021  0.5838 -2.0532
  126OSM      N13384   1.304   6.184   6.396 -0.5302  0.2047 -0.5837
  126OSM    C1513385   1.181   6.189   6.312 -0.4337 -0.6083  0.7676
  126OSM   H15A13386   1.188   6.282   6.257 -0.7390 -0.8901  0.2416
  126OSM   H15B13387   1.097   6.199   6.379  1.0413  0.9212  2.4394
  126OSM   H15C13388   1.176   6.106   6.243 -0.1582 -0.1070  0.1323
  126OSM    C1413389   1.319   6.044   6.450 -0.1782 -0.0381  0.3220
  126OSM   H14A13390   1.228   6.014   6.499 -0.5444  2.0109  0.9642
  126OSM   H14B13391   1.409   6.043   6.509 -0.1720  1.2270  0.3488
  126OSM   H14C13392   1.334   5.983   6.362  1.3990 -0.1552  0.6628
  126OSM    C1313393   1.430   6.215   6.318 -0.2752 -0.3007  0.4305
  126OSM   H13A13394   1.426   6.175   6.217 -0.3506  1.4873 -0.2977
  126OSM   H13B13395   1.520   6.184   6.369 -0.5214 -0.8324  0.5388
  126OSM   H13C13396   1.440   6.321   6.300 -1.9068 -0.5708 -2.4801
  126OSM    C1213397   1.298   6.284   6.511  0.1152  0.0226 -0.0915
  126OSM   H12A13398   1.288   6.385   6.473 -0.7460  0.2311  0.6628
  126OSM   H12B13399   1.388   6.289   6.570 -0.1300  2.3915  0.1427
  126OSM    C1113400   1.185   6.270   6.615  0.0533 -0.7715 -0.3898
  126OSM   H11A13401   1.221   6.337   6.696 -0.5496 -0.8989 -0.0138
  126OSM   H11B13402   1.183   6.169   6.661  3.9377 -0.4535  0.6958
  126OSM      P13403   1.038   6.466   6.531 -0.1359  0.2607 -0.2461
  126OSM    O1313404   1.162   6.526   6.470  0.2575 -0.1686  0.6108
  126OSM    O1413405   0.910   6.480   6.454 -0.3542  0.7078  0.2165
  126OSM    O1113406   1.014   6.523   6.672  0.6676  0.0234 -0.4330
  126OSM    O1213407   1.062   6.312   6.558  0.4907 -0.8411 -0.1929
  126OSM    C1S13408   0.942   6.461   6.776  0.1914 -0.6070  0.1452
  126OSM    H1S13409   0.997   6.369   6.801 -0.9251 -0.7930  1.9831
  126OSM    H1T13410   0.839   6.436   6.741 -0.8013  1.3184  1.5558
  126OSM     NF13411   0.858   6.482   7.017  0.0091  0.4992 -0.0290
  126OSM    HNF13412   0.766   6.517   7.035 -0.5328 -1.8782  2.0947
  126OSM    C2S13413   0.935   6.543   6.908  0.2244  0.1757 -0.5054
  126OSM    H2S13414   1.039   6.553   6.945 -0.0925  1.1030  0.1756
  126OSM    C3S13415   0.883   6.685   6.878 -0.1996  0.3251 -0.1608
  126OSM    H3S13416   0.777   6.673   6.848 -0.6977 -1.0691  1.9908
  126OSM     O313417   0.956   6.758   6.770  0.1614  0.1761 -0.3819
  126OSM    HO313418   0.994   6.683   6.724 -0.2856 -1.6534  2.1711
  126OSM    C4S13419   0.878   6.765   6.999  0.8244  0.3868 -0.8902
  126OSM    H4S13420   0.777   6.778   7.042  0.4919 -0.5789 -1.3583
  126OSM    C5S13421   0.981   6.819   7.062 -0.7000 -0.1170  0.2096
  126OSM    H5S13422   1.081   6.823   7.016 -1.2250 -0.7560 -1.0101
  126OSM    C6S13423   0.985   6.896   7.192 -0.1404  0.3297 -0.3054
  126OSM    H6S13424   0.884   6.935   7.217  0.9110  3.7764 -1.1797
  126OSM    H6T13425   1.047   6.986   7.174  2.9624 -1.6747 -0.0441
  126OSM    C7S13426   1.071   6.821   7.297  0.7191  0.0436 -0.5129
  126OSM    H7S13427   1.167   6.793   7.248  1.5904 -0.8906  1.6726
  126OSM    H7T13428   1.022   6.721   7.308 -0.2619  0.4697 -0.9761
  126OSM    C8S13429   1.102   6.899   7.434  0.1366  0.0917 -0.3316
  126OSM    H8S13430   1.164   6.986   7.404  1.3525 -0.4617  0.4797
  126OSM    H8T13431   1.160   6.830   7.499 -2.3835 -0.9184  0.8824
  126OSM    C9S13432   0.980   6.964   7.503 -0.6305  0.6104 -0.1125
  126OSM    H9S13433   0.904   6.885   7.518 -1.1657  0.5508 -2.8111
  126OSM    H9T13434   0.934   7.040   7.436  0.7358 -0.3689 -2.2313
  126OSM   C10S13435   1.013   7.024   7.641 -0.6914 -0.3656  0.4302
  126OSM   H10S13436   0.918   7.060   7.687 -0.6474 -0.2414  0.4234
  126OSM   H10T13437   1.090   7.104   7.636 -0.5729 -0.3966  1.6132
  126OSM   C11S13438   1.065   6.911   7.738  0.1109 -0.0644 -0.4411
  126OSM   H11S13439   1.169   6.875   7.724 -0.5583 -1.5200 -1.8021
  126OSM   H11T13440   0.993   6.828   7.723  0.0407  0.0235 -0.5907
  126OSM   C12S13441   1.063   6.961   7.880 -0.5939  0.0769 -1.3453
  126OSM   H12S13442   0.982   7.037   7.892 -1.5063 -1.0657 -0.0610
  126OSM   H12T13443   1.158   7.013   7.906  0.6777 -1.3815 -2.9281
  126OSM   C13S13444   1.046   6.848   7.975  0.1722 -0.5000  0.1533
  126OSM   H13S13445   0.953   6.792   7.952 -1.5494  1.0267  3.0012
  126OSM   H13T13446   1.032   6.883   8.080 -0.1536  0.4413 -0.1947
  126OSM   C14S13447   1.158   6.746   7.979 -0.0407 -0.1201 -0.3162
  126OSM   H14S13448   1.262   6.786   7.982 -0.3648  0.9599 -2.2648
  126OSM   H14T13449   1.153   6.698   7.879 -0.1088 -0.6048 -0.0812
  126OSM   C15S13450   1.150   6.657   8.104  0.2449  0.4769 -0.0701
  126OSM   H15S13451   1.041   6.656   8.125  0.0926 -0.8401 -0.8571
  126OSM   H15T13452   1.200   6.707   8.189  3.2461 -1.8120 -0.4010
  126OSM   C16S13453   1.218   6.531   8.070  0.4615 -0.4581  0.4628
  126OSM   H16S13454   1.321   6.539   8.029  0.1375  1.1876 -0.0656
  126OSM   H16T13455   1.161   6.478   7.991  0.9779 -0.3180 -0.0030
  126OSM   C17S13456   1.233   6.433   8.187  0.1459 -0.7603  0.2476
  126OSM   H17S13457   1.281   6.340   8.151  0.8337  0.1274 -1.1764
  126OSM   H17T13458   1.133   6.412   8.229 -0.9400  2.9564 -0.3211
  126OSM   C18S13459   1.326   6.488   8.290  0.2360  0.1050  0.7718
  126OSM   H18S13460   1.261   6.554   8.350  0.0090  1.6849 -1.1703
  126OSM   H18T13461   1.416   6.538   8.248  0.1390 -0.7060 -0.4344
  126OSM   H18U13462   1.358   6.406   8.359  0.7997  0.2206  0.6554
  126OSM    C1F13463   0.894   6.362   7.066 -1.1341 -0.0761 -0.1308
  126OSM     OF13464   1.011   6.319   7.033  0.4531  0.1821 -0.7776
  126OSM    C2F13465   0.797   6.279   7.141  0.3966 -0.3133  0.3863
  126OSM    H2F13466   0.707   6.277   7.076  1.1073 -0.5691 -0.6074
  126OSM    H2G13467   0.787   6.334   7.237  1.1670 -0.0532  0.3234
  126OSM    C3F13468   0.853   6.145   7.180 -0.0966  0.2293  0.1847
  126OSM    H3F13469   0.928   6.159   7.261 -0.9743 -0.2465  1.0936
  126OSM    H3G13470   0.902   6.092   7.095 -1.2656 -0.0850 -0.2961
  126OSM    C4F13471   0.745   6.062   7.238  0.0815  0.2174  0.5559
  126OSM    H4F13472   0.662   6.034   7.170  0.1913  0.0902  0.4737
  126OSM    H4G13473   0.691   6.113   7.320 -0.1140  0.8430  0.0368
  126OSM    C5F13474   0.803   5.929   7.304 -0.1350  0.0815  0.2222
  126OSM    H5F13475   0.891   5.898   7.245 -0.0755 -2.6218  1.6572
  126OSM    H5G13476   0.719   5.855   7.303 -1.8357  1.9301  1.5992
  126OSM    C6F13477   0.856   5.955   7.446  0.0773 -0.4391 -0.2817
  126OSM    H6F13478   0.771   6.000   7.501 -1.2149 -1.5842 -1.3080
  126OSM    H6G13479   0.930   6.036   7.431 -0.2290 -0.0847  0.1067
  126OSM    C7F13480   0.910   5.827   7.509 -0.0349 -0.6766  0.3471
  126OSM    H7F13481   0.996   5.792   7.448  0.0717  1.7116 -0.9603
  126OSM    H7G13482   0.820   5.762   7.513  0.8176 -1.9840 -1.3516
  126OSM    C8F13483   0.961   5.851   7.654 -0.1657 -0.0274 -0.0410
  126OSM    H8F13484   1.020   5.945   7.653 -1.8307  1.0425 -0.1570
  126OSM    H8G13485   1.040   5.782   7.692 -1.3606 -0.0655  2.5088
  126OSM    C9F13486   0.849   5.880   7.750 -0.8674  0.1429  0.8858
  126OSM    H9F13487   0.769   5.944   7.709 -0.7879  0.4771  1.2617
  126OSM   C10F13488   0.847   5.832   7.873  0.8423  0.0710  0.0371
  126OSM   H10F13489   0.754   5.845   7.931  0.6911 -2.6047  0.4336
  126OSM   C11F13490   0.949   5.739   7.933 -0.2089  0.4367 -0.2153
  126OSM   H11F13491   1.047   5.750   7.880  0.8838 -0.3832  1.5726
  126OSM   H11G13492   0.923   5.633   7.913  1.0340  0.0238  0.2701
  126OSM   C12F13493   0.978   5.770   8.083 -0.1991 -0.5561 -0.5806
  126OSM   H12F13494   0.991   5.876   8.112  1.7818 -1.1380  0.7535
  126OSM   H12G13495   1.071   5.712   8.101  1.5796  2.0049 -1.3407
  126OSM   C13F13496   0.858   5.716   8.169  0.4271  0.1213  0.4975
  126OSM   H13F13497   0.803   5.632   8.121  0.5285  0.3744 -0.0634
  126OSM   H13G13498   0.783   5.797   8.186 -0.3645  0.1702 -2.8587
  126OSM   C14F13499   0.897   5.683   8.314  0.6373 -0.6833 -0.0846
  126OSM   H14F13500   0.950   5.586   8.299 -0.7526 -1.3223 -0.9986
  126OSM   H14G13501   0.816   5.673   8.389  0.6019  3.5353  0.5349
  126OSM   C15F13502   1.005   5.783   8.381 -0.2812 -0.3072 -0.8542
  126OSM   H15F13503   0.966   5.880   8.344 -0.6990  0.5804  1.7941
  126OSM   H15G13504   1.105   5.772   8.335 -0.8669 -0.9748 -2.0016
  126OSM   C16F13505   1.015   5.760   8.533 -0.1864  0.0707 -0.3826
  126OSM   H16F13506   1.050   5.655   8.536  0.7545  0.3601 -1.0647
  126OSM   H16G13507   0.923   5.759   8.595  1.1241 -3.2092  1.6297
  126OSM   C17F13508   1.118   5.847   8.591  0.6531 -0.5512 -0.2936
  126OSM   H17F13509   1.097   5.951   8.560 -0.0363 -0.2373  1.1778
  126OSM   H17G13510   1.216   5.831   8.541  1.2821  1.0227  0.4145
  126OSM   C18F13511   1.130   5.832   8.738 -0.3086  0.1127  0.1556
  126OSM   H18F13512   1.198   5.909   8.779 -0.6071  0.4087  0.0990
  126OSM   H18G13513   1.176   5.734   8.762  0.4314 -0.0557 -1.8368
  126OSM   H18H13514   1.032   5.843   8.789  0.4085 -0.6931  1.7238
  127OSM      N13515   6.697   1.211   6.143  0.2717  0.0532 -0.6470
  127OSM    C1513516   6.656   1.273   6.018  0.5565 -0.2540  0.2602
  127OSM   H15A13517   6.571   1.222   5.976 -0.2073  1.3192 -0.1570
  127OSM   H15B13518   6.742   1.263   5.954  1.0483 -0.8182  1.0074
  127OSM   H15C13519   6.632   1.376   6.038 -0.5306 -0.7273  1.5121
  127OSM    C1413520   6.749   1.073   6.116 -0.6685 -0.1331  0.2938
  127OSM   H14A13521   6.675   1.010   6.070  1.5430 -2.6270  0.0517
  127OSM   H14B13522   6.765   1.019   6.208  3.1396 -1.7522 -1.2269
  127OSM   H14C13523   6.841   1.073   6.060  0.1906 -0.6004  1.6759
  127OSM    C1313524   6.817   1.286   6.188  0.1940 -0.3086 -0.3347
  127OSM   H13A13525   6.871   1.247   6.273  1.0522  1.5039 -0.0373
  127OSM   H13B13526   6.785   1.385   6.214  2.0069 -0.1841  1.5278
  127OSM   H13C13527   6.885   1.306   6.106  1.4762 -0.7101  0.6179
  127OSM    C1213528   6.596   1.213   6.254  0.5302  1.0984 -0.3162
  127OSM   H12A13529   6.596   1.313   6.294  2.1327  1.9298 -2.3049
  127OSM   H12B13530   6.632   1.139   6.323  0.1126 -1.6621 -2.9555
  127OSM    C1113531   6.455   1.162   6.221  0.7213 -0.3007 -0.3881
  127OSM   H11A13532   6.417   1.211   6.128  1.1166  0.7095 -0.0219
  127OSM   H11B13533   6.379   1.192   6.296  0.8675  0.9120 -0.7100
  127OSM      P13534   6.446   0.913   6.316  0.3429  0.3055  0.1032
  127OSM    O1313535   6.451   0.773   6.259  0.4878  0.1467  0.3148
  127OSM    O1413536   6.543   0.944   6.419 -0.0756 -0.0633 -0.6455
  127OSM    O1113537   6.296   0.936   6.362  0.1832  0.3480  0.3607
  127OSM    O1213538   6.463   1.021   6.200 -0.5186  0.5846 -0.9170
  127OSM    C1S13539   6.250   0.900   6.495 -0.0988  0.2956  0.0720
  127OSM    H1S13540   6.321   0.835   6.552 -0.8541 -1.3934 -0.8723
  127OSM    H1T13541   6.159   0.837   6.495  0.9868 -1.3781 -2.8622
  127OSM     NF13542   6.204   0.979   6.724  0.4136 -0.8328  1.0503
  127OSM    HNF13543   6.116   0.991   6.770 -0.5320 -0.3432 -0.8190
  127OSM    C2S13544   6.215   1.023   6.581 -0.4241 -0.4400 -0.7261
  127OSM    H2S13545   6.304   1.088   6.579 -0.2223 -0.5203  2.4946
  127OSM    C3S13546   6.095   1.100   6.520  0.2853  0.1308 -0.0193
  127OSM    H3S13547   6.006   1.033   6.519  2.5251 -2.9946 -1.6570
  127OSM     O313548   6.115   1.139   6.383  0.1204 -0.1247  0.1031
  127OSM    HO313549   6.162   1.058   6.359  0.6210 -0.1965  1.2958
  127OSM    C4S13550   6.077   1.226   6.605 -0.4642  0.2947 -0.4333
  127OSM    H4S13551   6.013   1.200   6.691 -1.1889 -0.8869 -1.3303
  127OSM    C5S13552   6.139   1.344   6.595 -0.7304 -1.2316 -0.3636
  127OSM    H5S13553   6.194   1.377   6.506 -3.0628 -2.8986 -2.4523
  127OSM    C6S13554   6.117   1.461   6.701 -0.2719  0.3968 -0.2490
  127OSM    H6S13555   6.038   1.429   6.773  0.4391 -0.8196  0.0019
  127OSM    H6T13556   6.075   1.555   6.660 -1.2170  0.1186  0.0588
  127OSM    C7S13557   6.246   1.498   6.783  0.2446 -0.0280 -0.1686
  127OSM    H7S13558   6.220   1.588   6.843 -0.7690  0.0095 -0.6545
  127OSM    H7T13559   6.311   1.527   6.698  0.1529 -0.4885 -0.3977
  127OSM    C8S13560   6.306   1.380   6.856  0.7405  0.2885  0.2902
  127OSM    H8S13561   6.412   1.401   6.880  0.6080  1.8439 -0.4612
  127OSM    H8T13562   6.299   1.284   6.799  0.3673  0.5675 -0.1382
  127OSM    C9S13563   6.230   1.342   6.986  0.9204 -0.5281 -0.6289
  127OSM    H9S13564   6.277   1.252   7.031 -1.0617 -1.4344 -0.3357
  127OSM    H9T13565   6.126   1.314   6.960 -0.0175 -0.2620  2.6863
  127OSM   C10S13566   6.216   1.452   7.099  0.3286 -0.0227 -0.3929
  127OSM   H10S13567   6.141   1.414   7.172  1.0140  1.5187  1.1481
  127OSM   H10T13568   6.177   1.539   7.043  2.2185  0.7993 -0.4558
  127OSM   C11S13569   6.349   1.497   7.160  0.3365 -0.1976 -0.0867
  127OSM   H11S13570   6.436   1.502   7.091 -1.3260 -1.2169 -2.2933
  127OSM   H11T13571   6.376   1.427   7.242  0.8164 -0.0542 -0.1206
  127OSM   C12S13572   6.327   1.635   7.235  0.8125 -0.7279  0.6523
  127OSM   H12S13573   6.239   1.610   7.299 -0.5824  0.7631 -0.6459
  127OSM   H12T13574   6.296   1.716   7.166  0.1709 -1.6942 -0.2134
  127OSM   C13S13575   6.448   1.694   7.318  0.3181  0.8070  0.5028
  127OSM   H13S13576   6.522   1.733   7.244 -1.0011  1.4562 -0.4969
  127OSM   H13T13577   6.513   1.617   7.364  3.6729 -0.5047 -5.7376
  127OSM   C14S13578   6.408   1.792   7.422 -0.0141 -0.4925 -0.4901
  127OSM   H14S13579   6.326   1.744   7.481  1.4520 -2.7406 -0.2143
  127OSM   H14T13580   6.362   1.880   7.372 -1.9158  0.1867  2.2980
  127OSM   C15S13581   6.533   1.840   7.508 -0.5021 -0.1129 -0.0272
  127OSM   H15S13582   6.625   1.842   7.445 -1.3056  0.9681 -1.2003
  127OSM   H15T13583   6.553   1.770   7.592  1.0086 -1.0595 -1.1473
  127OSM   C16S13584   6.532   1.987   7.565  0.1385  0.2074 -0.3832
  127OSM   H16S13585   6.518   2.057   7.480 -1.5516  0.3729  0.0224
  127OSM   H16T13586   6.633   2.001   7.609 -0.4097  0.2114  0.9098
  127OSM   C17S13587   6.438   1.994   7.679 -0.1275 -0.0386 -0.5119
  127OSM   H17S13588   6.344   1.936   7.665 -1.2881  1.4745  0.8616
  127OSM   H17T13589   6.402   2.097   7.702  0.9123  0.4895 -1.1994
  127OSM   C18S13590   6.487   1.940   7.811 -0.5138  0.3797  0.0944
  127OSM   H18S13591   6.486   1.830   7.802  2.5837  0.4272 -1.1972
  127OSM   H18T13592   6.414   1.963   7.892  0.2089  0.6957  0.6585
  127OSM   H18U13593   6.589   1.968   7.846 -0.2857 -0.9859  0.5371
  127OSM    C1F13594   6.304   0.935   6.794 -0.0122 -0.6205  0.7477
  127OSM     OF13595   6.412   0.977   6.759  0.1200  0.0771  0.1416
  127OSM    C2F13596   6.276   0.848   6.907  0.7083 -0.4128  0.1415
  127OSM    H2F13597   6.246   0.749   6.866  0.7006 -0.0285 -0.7858
  127OSM    H2G13598   6.196   0.893   6.969  0.7488  0.9599 -0.8001
  127OSM    C3F13599   6.396   0.816   7.003  0.4949  0.3829 -0.0460
  127OSM    H3F13600   6.430   0.905   7.060 -0.3782  0.8880 -0.2924
  127OSM    H3G13601   6.480   0.777   6.942 -1.0908 -3.3201 -0.0073
  127OSM    C4F13602   6.354   0.720   7.119 -0.0273 -0.5031  0.1173
  127OSM    H4F13603   6.294   0.641   7.068 -1.7132  1.4579 -1.0349
  127OSM    H4G13604   6.283   0.759   7.195  0.4323  0.1212  0.2206
  127OSM    C5F13605   6.470   0.653   7.203 -1.2940 -0.2949 -0.0391
  127OSM    H5F13606   6.515   0.734   7.264  1.5685 -2.2067  0.5030
  127OSM    H5G13607   6.543   0.598   7.139 -2.3517  1.8653 -3.2626
  127OSM    C6F13608   6.405   0.551   7.304  0.3501 -0.2242  0.5453
  127OSM    H6F13609   6.487   0.487   7.343 -1.3320 -2.6154  0.3311
  127OSM    H6G13610   6.344   0.478   7.246  2.9946 -1.6003 -0.5795
  127OSM    C7F13611   6.330   0.613   7.423  0.1189 -0.1944 -0.4045
  127OSM    H7F13612   6.278   0.710   7.403 -0.4889 -0.5212 -0.4409
  127OSM    H7G13613   6.406   0.636   7.500  1.1163 -1.0956 -1.1060
  127OSM    C8F13614   6.216   0.516   7.472  0.1019 -0.3006 -0.0473
  127OSM    H8F13615   6.159   0.489   7.381  0.9559 -1.0339 -0.3689
  127OSM    H8G13616   6.151   0.571   7.543  0.3493 -0.3205  0.1967
  127OSM    C9F13617   6.267   0.393   7.529  0.6988  0.3376  0.2948
  127OSM    H9F13618   6.275   0.307   7.461  0.1661 -0.6882  1.4963
  127OSM   C10F13619   6.323   0.385   7.651 -0.7868  0.3869  0.7072
  127OSM   H10F13620   6.375   0.293   7.682 -0.7145 -0.2578 -1.2390
  127OSM   C11F13621   6.336   0.491   7.747 -0.2338 -0.3786  0.0422
  127OSM   H11F13622   6.354   0.587   7.695 -0.1743 -0.8432 -0.8061
  127OSM   H11G13623   6.425   0.466   7.808  1.6819  3.5528 -0.9788
  127OSM   C12F13624   6.215   0.520   7.828 -0.2539  0.6317  0.7131
  127OSM   H12F13625   6.122   0.550   7.776 -0.3089  0.9299  0.9841
  127OSM   H12G13626   6.239   0.612   7.885  1.3842 -0.7399  2.3105
  127OSM   C13F13627   6.187   0.401   7.929  0.0168  0.2189 -0.5770
  127OSM   H13F13628   6.164   0.306   7.877 -0.4226 -0.3780  0.6884
  127OSM   H13G13629   6.103   0.431   7.996  0.6906 -0.7509  0.7205
  127OSM   C14F13630   6.302   0.375   8.028  0.5085 -0.3642  0.1422
  127OSM   H14F13631   6.319   0.469   8.085 -2.0135 -0.9289  1.9089
  127OSM   H14G13632   6.400   0.336   7.993  1.4212  0.5813  1.5910
  127OSM   C15F13633   6.250   0.276   8.137 -0.4365  0.5414  0.1785
  127OSM   H15F13634   6.234   0.180   8.083 -1.2704  0.3978  0.6780
  127OSM   H15G13635   6.147   0.297   8.173 -0.5820  0.4691 -0.1916
  127OSM   C16F13636   6.345   0.256   8.251 -0.2825 -0.5926 -0.2227
  127OSM   H16F13637   6.447   0.247   8.209 -0.2766  1.6742 -0.7565
  127OSM   H16G13638   6.309   0.169   8.311  1.6224 -0.7502  0.7384
  127OSM   C17F13639   6.355   0.374   8.357 -0.0040 -0.6629 -0.0140
  127OSM   H17F13640   6.253   0.394   8.396 -0.6402 -0.7013 -1.6498
  127OSM   H17G13641   6.371   0.473   8.310 -0.2985 -0.4171  0.4101
  127OSM   C18F13642   6.458   0.351   8.468 -0.2008 -0.6045 -0.1056
  127OSM   H18F13643   6.435   0.255   8.521 -1.0850 -0.0547  0.5260
  127OSM   H18G13644   6.448   0.428   8.547  2.1958 -0.3712 -0.0026
  127OSM   H18H13645   6.566   0.356   8.443  0.0101  0.4310  0.9478
  128OSM      N13646   5.806   4.620   5.651 -0.1871 -0.3760 -0.4058
  128OSM    C1513647   5.829   4.719   5.536 -0.3781  0.2001  0.1714
  128OSM   H15A13648   5.777   4.694   5.445  3.0705  0.3739 -1.9327
  128OSM   H15B13649   5.934   4.722   5.510  0.0540 -2.0075  1.5487
  128OSM   H15C13650   5.797   4.815   5.575 -0.0261  0.9426 -1.3099
  128OSM    C1413651   5.660   4.606   5.672 -0.1301  0.0796 -0.0948
  128OSM   H14A13652   5.614   4.702   5.688  1.8296  1.2253 -1.1429
  128OSM   H14B13653   5.639   4.540   5.755 -1.7127  1.6048  0.7538
  128OSM   H14C13654   5.615   4.563   5.584 -1.8461  1.1711  0.2200
  128OSM    C1313655   5.867   4.489   5.612  0.3931  0.1594  0.4408
  128OSM   H13A13656   5.836   4.417   5.687 -0.8389 -0.3358 -0.5340
  128OSM   H13B13657   5.975   4.492   5.608  0.3487  2.5238  0.6959
  128OSM   H13C13658   5.831   4.447   5.519 -0.8917 -0.9723  1.4117
  128OSM    C1213659   5.874   4.673   5.777  0.4146  0.1365  0.6163
  128OSM   H12A13660   5.818   4.764   5.795  0.7702  1.2549 -3.3964
  128OSM   H12B13661   5.980   4.694   5.769  0.3487  2.3052  4.0325
  128OSM    C1113662   5.846   4.590   5.908  0.1882 -0.1073 -0.1739
  128OSM   H11A13663   5.737   4.570   5.912 -0.3289  2.5564  0.6487
  128OSM   H11B13664   5.863   4.647   6.002 -0.5991 -0.6556  0.3083
  128OSM      P13665   5.902   4.367   6.023 -0.5199  0.2870 -0.3479
  128OSM    O1313666   5.779   4.285   6.002 -0.2361 -0.9651  0.3057
  128OSM    O1413667   6.021   4.285   6.041 -0.4594 -0.1287  0.4914
  128OSM    O1113668   5.885   4.460   6.152  0.5789 -0.4287 -0.3905
  128OSM    O1213669   5.927   4.475   5.914 -0.6093  0.7359  0.1750
  128OSM    C1S13670   5.920   4.396   6.278  0.3440 -0.0911  0.1740
  128OSM    H1S13671   6.028   4.369   6.276  0.5336  0.6474 -0.0182
  128OSM    H1T13672   5.849   4.316   6.307 -4.3553  3.8495  0.3336
  128OSM     NF13673   5.973   4.453   6.515 -0.2227 -0.1053 -0.4119
  128OSM    HNF13674   5.904   4.421   6.578  2.4483  0.8029  3.1549
  128OSM    C2S13675   5.906   4.501   6.393 -0.6913  0.4892 -0.1035
  128OSM    H2S13676   5.964   4.592   6.366  0.7158  0.2355  1.9504
  128OSM    C3S13677   5.753   4.545   6.410 -0.1218  0.4191 -0.0818
  128OSM    H3S13678   5.687   4.460   6.437  0.8378 -0.2766  0.0863
  128OSM     O313679   5.704   4.598   6.290 -0.1672  0.5537 -0.1471
  128OSM    HO313680   5.760   4.554   6.226 -1.2420  0.0782 -0.7799
  128OSM    C4S13681   5.742   4.643   6.522 -0.2932  0.6134  0.7642
  128OSM    H4S13682   5.815   4.725   6.511  0.0428 -0.0562 -2.3474
  128OSM    C5S13683   5.665   4.626   6.625 -0.2614  0.0323  0.3482
  128OSM    H5S13684   5.617   4.528   6.643 -3.9264  1.6361 -0.3019
  128OSM    C6S13685   5.650   4.721   6.741 -0.0370 -0.5706  0.0097
  128OSM    H6S13686   5.666   4.666   6.836 -1.1238  1.3428  1.3237
  128OSM    H6T13687   5.553   4.773   6.753  0.3517  0.0175  0.7042
  128OSM    C7S13688   5.764   4.823   6.754  0.1078  0.1693  0.9960
  128OSM    H7S13689   5.768   4.874   6.656 -2.9229  1.2664  1.3786
  128OSM    H7T13690   5.859   4.770   6.775  1.3227  2.3654  1.0831
  128OSM    C8S13691   5.745   4.934   6.863  0.1421  0.6650 -0.2420
  128OSM    H8S13692   5.656   4.998   6.844 -0.7606 -0.4318  0.2469
  128OSM    H8T13693   5.842   4.985   6.842  2.5537 -3.0459  1.3488
  128OSM    C9S13694   5.738   4.871   7.004  0.2754  0.1162  0.3986
  128OSM    H9S13695   5.828   4.807   7.012  0.4370 -0.1079 -2.7473
  128OSM    H9T13696   5.646   4.809   7.012 -1.2820  1.9434 -2.3539
  128OSM   C10S13697   5.744   4.977   7.112 -0.2726 -0.3059 -0.2825
  128OSM   H10S13698   5.653   5.040   7.107 -0.4298 -0.3210  1.7709
  128OSM   H10T13699   5.834   5.038   7.089 -0.4144  0.0198  0.0230
  128OSM   C11S13700   5.761   4.933   7.261 -0.4459  0.0774  0.0966
  128OSM   H11S13701   5.856   4.876   7.247  0.0021  1.0522 -0.9709
  128OSM   H11T13702   5.683   4.864   7.298  1.6264 -1.3030  2.0053
  128OSM   C12S13703   5.771   5.044   7.369  0.7227  0.0478  0.1855
  128OSM   H12S13704   5.670   5.091   7.370  0.8442  0.2951  1.3943
  128OSM   H12T13705   5.837   5.127   7.335  1.0055 -0.0788  0.4227
  128OSM   C13S13706   5.801   4.986   7.501 -0.4131 -0.2183  1.0126
  128OSM   H13S13707   5.893   4.925   7.505 -0.2023 -0.1490 -1.7867
  128OSM   H13T13708   5.713   4.925   7.531 -0.9146 -0.4878 -0.9424
  128OSM   C14S13709   5.818   5.093   7.610 -0.2057  0.1954  0.1651
  128OSM   H14S13710   5.741   5.174   7.618 -0.4144 -0.0836  1.0272
  128OSM   H14T13711   5.912   5.151   7.596 -0.2495  0.2367  0.0437
  128OSM   C15S13712   5.836   5.038   7.753  0.6555 -0.5763 -0.0182
  128OSM   H15S13713   5.932   4.984   7.763  2.3615  1.9515 -2.1387
  128OSM   H15T13714   5.752   4.970   7.780  1.6780 -1.4762  0.9377
  128OSM   C16S13715   5.840   5.156   7.849 -0.1171 -0.1085  0.3307
  128OSM   H16S13716   5.739   5.201   7.838 -0.7065 -0.9808  1.9207
  128OSM   H16T13717   5.918   5.233   7.831 -0.6970  0.5679  0.6966
  128OSM   C17S13718   5.836   5.114   8.003 -0.2328  1.0820 -0.2652
  128OSM   H17S13719   5.914   5.046   8.043 -0.8638  1.1168  1.0334
  128OSM   H17T13720   5.741   5.058   8.015  1.5948 -2.3909 -1.1893
  128OSM   C18S13721   5.821   5.225   8.101 -1.4393  0.4070  0.3574
  128OSM   H18S13722   5.918   5.276   8.117 -0.4865 -1.9389  2.3645
  128OSM   H18T13723   5.784   5.191   8.200 -0.7943  0.0441  0.4732
  128OSM   H18U13724   5.745   5.295   8.060  0.0112  0.4627 -2.3811
  128OSM    C1F13725   6.107   4.440   6.529 -0.1292  0.4257  0.0197
  128OSM     OF13726   6.181   4.483   6.436  0.2331  0.4153 -0.2241
  128OSM    C2F13727   6.162   4.385   6.654 -1.0026 -0.0429  0.5127
  128OSM    H2F13728   6.124   4.281   6.665  1.8662 -1.0162  1.6045
  128OSM    H2G13729   6.122   4.440   6.743  0.3665  1.9120 -0.0444
  128OSM    C3F13730   6.315   4.400   6.663 -0.0240  0.2824 -0.3947
  128OSM    H3F13731   6.367   4.494   6.634  1.0603  0.0119  0.6015
  128OSM    H3G13732   6.357   4.313   6.609 -0.9860 -0.9153  0.7410
  128OSM    C4F13733   6.367   4.382   6.805  0.1537  0.3390 -0.5217
  128OSM    H4F13734   6.301   4.315   6.865  0.9238  0.7702  0.8173
  128OSM    H4G13735   6.363   4.479   6.859 -1.2433  0.1297 -0.2219
  128OSM    C5F13736   6.507   4.317   6.805 -0.5608 -0.1914 -0.5971
  128OSM    H5F13737   6.574   4.373   6.737  0.1713  0.0210  0.2926
  128OSM    H5G13738   6.496   4.217   6.759  2.9247  0.2079 -2.4654
  128OSM    C6F13739   6.568   4.300   6.945  0.2155 -0.5400  0.5948
  128OSM    H6F13740   6.671   4.258   6.939  1.1121  1.7067 -0.2173
  128OSM    H6G13741   6.504   4.222   6.993 -1.2704 -0.9747 -2.0182
  128OSM    C7F13742   6.567   4.421   7.035 -0.4176  0.5975  0.0530
  128OSM    H7F13743   6.463   4.462   7.036 -0.3278  0.8805 -1.7695
  128OSM    H7G13744   6.638   4.497   6.997  0.3604 -1.4446 -2.7244
  128OSM    C8F13745   6.594   4.389   7.186  0.2877 -0.7648  0.5192
  128OSM    H8F13746   6.639   4.480   7.229  1.7692 -0.9983 -0.4944
  128OSM    H8G13747   6.676   4.314   7.190 -0.3809 -1.4669  1.3065
  128OSM    C9F13748   6.485   4.334   7.280 -1.2301 -0.2582 -0.3306
  128OSM    H9F13749   6.428   4.255   7.229 -0.0318 -0.7110 -0.9764
  128OSM   C10F13750   6.451   4.382   7.402 -0.0540  0.8734 -0.3078
  128OSM   H10F13751   6.375   4.321   7.454  1.4450 -1.8793 -1.2600
  128OSM   C11F13752   6.512   4.488   7.480  0.3432  0.1283  0.7242
  128OSM   H11F13753   6.468   4.586   7.454  0.5154 -0.2213 -0.9287
  128OSM   H11G13754   6.620   4.504   7.457 -0.5173  1.6434 -2.4898
  128OSM   C12F13755   6.500   4.467   7.629  1.1149 -0.1888 -0.4680
  128OSM   H12F13756   6.393   4.484   7.655  1.0224 -0.5875 -0.5760
  128OSM   H12G13757   6.561   4.544   7.680  0.3236 -1.4723  2.5129
  128OSM   C13F13758   6.529   4.326   7.686  0.2428  0.3934 -0.0039
  128OSM   H13F13759   6.612   4.284   7.626 -0.3376  3.1379 -2.8431
  128OSM   H13G13760   6.444   4.257   7.669  2.2932 -2.5528  1.3836
  128OSM   C14F13761   6.559   4.323   7.838 -0.5804  0.5552  0.7548
  128OSM   H14F13762   6.473   4.378   7.881 -0.4732  0.5730  0.9458
  128OSM   H14G13763   6.649   4.385   7.858 -1.2523  0.8794  2.8416
  128OSM   C15F13764   6.567   4.181   7.890 -0.4112 -0.5851  0.1824
  128OSM   H15F13765   6.663   4.134   7.863  0.2164  1.3032 -0.9840
  128OSM   H15G13766   6.482   4.128   7.842 -0.5061 -1.2507  1.0778
  128OSM   C16F13767   6.553   4.165   8.041 -0.4443  0.1740  0.7429
  128OSM   H16F13768   6.453   4.205   8.067 -0.6246  0.3786 -0.2374
  128OSM   H16G13769   6.630   4.219   8.100 -0.1321 -1.0493  1.4821
  128OSM   C17F13770   6.554   4.016   8.064 -0.4157 -0.2976  0.0700
  128OSM   H17F13771   6.646   3.969   8.023 -0.4556  0.6783 -1.1671
  128OSM   H17G13772   6.467   3.963   8.019  0.1681  1.3802 -3.1557
  128OSM   C18F13773   6.550   3.986   8.213  0.6498 -0.3076 -0.7160
  128OSM   H18F13774   6.512   3.883   8.231  3.0782 -0.9608  0.9329
  128OSM   H18G13775   6.472   4.051   8.256  1.7897  1.4604 -1.2625
  128OSM   H18H13776   6.648   4.012   8.258  0.8642  1.9884 -2.3964
  129OSM      N13777   4.613   6.078   6.121  0.3844 -0.1375 -0.0338
  129OSM    C1513778   4.617   6.049   5.977 -0.4998  0.4827  0.8312
  129OSM   H15A13779   4.720   6.032   5.948  0.0095  1.0378  2.2899
  129OSM   H15B13780   4.570   6.130   5.923 -1.3199 -0.4647  0.1116
  129OSM   H15C13781   4.569   5.957   5.948  0.3090  0.3936 -0.2822
  129OSM    C1413782   4.688   5.965   6.188 -0.3472  0.4455 -0.4431
  129OSM   H14A13783   4.793   5.989   6.189  0.1417 -1.6560  1.4216
  129OSM   H14B13784   4.679   5.868   6.142  0.9660  0.0586  0.1006
  129OSM   H14C13785   4.656   5.959   6.291  0.0719  0.0405 -0.3399
  129OSM    C1313786   4.668   6.212   6.165  0.5671  0.1906  0.1049
  129OSM   H13A13787   4.656   6.230   6.271  1.0649  1.0818  0.0198
  129OSM   H13B13788   4.612   6.292   6.118 -2.2318 -0.7787  1.6431
  129OSM   H13C13789   4.772   6.216   6.139  0.5106 -1.2965 -0.4062
  129OSM    C1213790   4.460   6.073   6.169 -0.3179 -0.0770 -0.2136
  129OSM   H12A13791   4.467   6.081   6.276 -0.1765 -4.1157  0.1716
  129OSM   H12B13792   4.426   5.971   6.158 -1.6084  0.5470 -2.2877
  129OSM    C1113793   4.366   6.173   6.103  0.5892  0.0691 -0.6456
  129OSM   H11A13794   4.264   6.132   6.123  1.2805 -1.6710 -0.6507
  129OSM   H11B13795   4.371   6.168   5.992 -2.4821 -1.3674 -0.7666
  129OSM      P13796   4.370   6.344   6.308 -0.1226  0.1017 -0.1018
  129OSM    O1313797   4.502   6.330   6.375  0.0665 -0.2241 -0.4716
  129OSM    O1413798   4.304   6.472   6.314  0.0066 -0.1922  0.1090
  129OSM    O1113799   4.270   6.232   6.360  0.2608 -0.2182 -0.8070
  129OSM    O1213800   4.378   6.310   6.150  0.1867 -0.8380  0.2113
  129OSM    C1S13801   4.260   6.196   6.496  0.0461 -0.4297 -0.1930
  129OSM    H1S13802   4.361   6.164   6.531  1.2864  2.3062 -1.0858
  129OSM    H1T13803   4.204   6.102   6.514  1.0976 -0.8357  1.1301
  129OSM     NF13804   4.212   6.242   6.731  0.3962  0.0680 -0.2313
  129OSM    HNF13805   4.127   6.200   6.764  1.4940 -2.1515 -0.1108
  129OSM    C2S13806   4.205   6.301   6.598  0.0024 -0.8242  0.3143
  129OSM    H2S13807   4.266   6.394   6.590 -2.4206  0.9239  1.3181
  129OSM    C3S13808   4.062   6.351   6.549 -0.4213  0.1106 -0.5362
  129OSM    H3S13809   4.000   6.262   6.527  1.6770 -1.5465  0.1189
  129OSM     O313810   4.062   6.424   6.424 -0.0174 -0.3048  0.5364
  129OSM    HO313811   4.153   6.426   6.393 -0.0003  0.5124  0.6347
  129OSM    C4S13812   3.990   6.433   6.661 -0.6700  0.5795 -0.0978
  129OSM    H4S13813   3.916   6.374   6.717 -0.4369 -1.2955 -1.6760
  129OSM    C5S13814   4.010   6.564   6.692 -0.5169 -0.6417  0.2135
  129OSM    H5S13815   4.074   6.628   6.630  1.6537 -1.7610  1.2596
  129OSM    C6S13816   3.933   6.641   6.793 -0.5986  0.3067  0.0624
  129OSM    H6S13817   3.833   6.646   6.746 -0.1223 -0.9177 -1.1104
  129OSM    H6T13818   3.980   6.740   6.810 -0.1733  0.0254  0.5428
  129OSM    C7S13819   3.930   6.570   6.929 -0.4390  0.2319 -0.1771
  129OSM    H7S13820   3.894   6.465   6.927  2.9804 -0.9875 -0.7105
  129OSM    H7T13821   3.861   6.625   6.996 -1.0603 -1.0581  0.2661
  129OSM    C8S13822   4.071   6.565   6.993 -0.2316  0.4720 -0.0942
  129OSM    H8S13823   4.092   6.671   7.017  2.8418 -0.0581 -0.2362
  129OSM    H8T13824   4.136   6.536   6.908 -0.8443 -1.5368  0.0972
  129OSM    C9S13825   4.085   6.454   7.102 -0.1972 -0.0548  0.1650
  129OSM    H9S13826   4.191   6.424   7.121  0.0023  1.6660  1.9128
  129OSM    H9T13827   4.034   6.365   7.059  1.8321 -0.2535 -1.9269
  129OSM   C10S13828   4.025   6.499   7.233  0.2165 -0.0575  0.3663
  129OSM   H10S13829   3.935   6.563   7.224  1.0436  0.7686 -2.6471
  129OSM   H10T13830   4.094   6.579   7.265 -0.1440  0.5797 -0.4259
  129OSM   C11S13831   4.024   6.386   7.342 -0.2883 -0.0856 -0.9102
  129OSM   H11S13832   4.124   6.339   7.335 -0.3386 -0.6085  1.4906
  129OSM   H11T13833   3.947   6.312   7.309 -0.1519  0.5774 -2.7890
  129OSM   C12S13834   3.991   6.441   7.487  0.3781 -0.2709  0.0827
  129OSM   H12S13835   3.883   6.465   7.480  0.1525 -1.4726 -0.7593
  129OSM   H12T13836   4.049   6.532   7.515  0.5046 -0.9311  2.0217
  129OSM   C13S13837   4.019   6.336   7.589  0.5926 -0.2477  0.0676
  129OSM   H13S13838   4.125   6.313   7.613 -0.3296 -0.8710  4.0015
  129OSM   H13T13839   3.979   6.236   7.558  0.9522 -0.5581  0.6034
  129OSM   C14S13840   3.957   6.355   7.729  0.1153 -0.2304  0.4962
  129OSM   H14S13841   3.856   6.399   7.712  0.8497  1.0718 -0.6368
  129OSM   H14T13842   4.010   6.436   7.784 -2.7907 -0.2297  3.4997
  129OSM   C15S13843   3.946   6.228   7.815 -0.3847 -0.1751  1.0607
  129OSM   H15S13844   4.021   6.148   7.799 -0.8812 -0.1776 -1.5279
  129OSM   H15T13845   3.851   6.179   7.785 -0.0801 -0.1630  0.0743
  129OSM   C16S13846   3.949   6.274   7.967  0.5256 -0.2469 -0.0348
  129OSM   H16S13847   3.906   6.195   8.033  0.3321  1.0830  1.4459
  129OSM   H16T13848   3.877   6.356   7.986 -0.6631 -0.8847 -1.5454
  129OSM   C17S13849   4.088   6.295   8.021  0.3222  0.8378 -1.5873
  129OSM   H17S13850   4.156   6.363   7.965  2.1334 -1.0523 -1.7754
  129OSM   H17T13851   4.137   6.195   8.009  0.1679  0.5172  0.3265
  129OSM   C18S13852   4.083   6.329   8.169 -0.0311  0.1191  0.4523
  129OSM   H18S13853   4.187   6.329   8.208  0.5707 -3.3225 -0.9734
  129OSM   H18T13854   4.039   6.241   8.221  1.1071 -1.5114 -1.2760
  129OSM   H18U13855   4.036   6.426   8.197  0.0472 -0.0146  1.0703
  129OSM    C1F13856   4.330   6.220   6.795  0.4930 -0.2385  0.1735
  129OSM     OF13857   4.435   6.267   6.749 -0.7770 -0.2257 -0.1638
  129OSM    C2F13858   4.323   6.151   6.927  0.1794  0.6297 -0.3438
  129OSM    H2F13859   4.255   6.063   6.925  1.8958 -0.7731  1.2231
  129OSM    H2G13860   4.289   6.217   7.009 -2.4845 -0.4173 -0.5264
  129OSM    C3F13861   4.465   6.095   6.966 -0.7008  0.2800 -0.6640
  129OSM    H3F13862   4.538   6.179   6.970  0.8393 -1.0980  0.9960
  129OSM    H3G13863   4.494   6.015   6.895  0.5825  0.7555 -0.6969
  129OSM    C4F13864   4.451   6.023   7.104  0.2812 -0.3409  0.3409
  129OSM    H4F13865   4.539   5.960   7.128  0.4835 -0.1026  0.2271
  129OSM    H4G13866   4.364   5.957   7.087 -0.4019  0.1194  1.8868
  129OSM    C5F13867   4.434   6.108   7.229 -0.0104  0.4229 -0.1341
  129OSM    H5F13868   4.348   6.176   7.215  0.5486  1.9695  3.4508
  129OSM    H5G13869   4.520   6.179   7.225  1.0929 -0.9923 -3.3043
  129OSM    C6F13870   4.418   6.029   7.354  0.0028 -0.3595 -0.2223
  129OSM    H6F13871   4.502   5.965   7.386  0.1070 -0.0779  0.0749
  129OSM    H6G13872   4.329   5.965   7.338  1.0224 -1.7506 -0.3942
  129OSM    C7F13873   4.392   6.127   7.472 -0.0011 -0.2866 -0.4806
  129OSM    H7F13874   4.310   6.188   7.428  0.1412  1.9368  2.2117
  129OSM    H7G13875   4.485   6.187   7.475 -0.1942  0.0041 -0.3326
  129OSM    C8F13876   4.351   6.075   7.608 -0.0605  0.1046 -0.1202
  129OSM    H8F13877   4.429   6.006   7.645  0.5053  1.3043  0.9516
  129OSM    H8G13878   4.259   6.014   7.592  1.0142 -0.8406 -2.9335
  129OSM    C9F13879   4.334   6.174   7.720  0.0513  0.4060  0.8121
  129OSM    H9F13880   4.299   6.274   7.694  0.1796 -0.2211 -1.8551
  129OSM   C10F13881   4.352   6.134   7.851 -0.7342 -0.2608  0.6750
  129OSM   H10F13882   4.346   6.214   7.926  1.6978  0.9568 -0.3707
  129OSM   C11F13883   4.382   6.007   7.910  0.3277  1.2270 -0.1752
  129OSM   H11F13884   4.418   5.939   7.830 -1.2601 -0.0274  0.1398
  129OSM   H11G13885   4.290   5.971   7.961  1.1025 -0.2167  0.2249
  129OSM   C12F13886   4.477   6.023   8.031  0.0279 -0.2305 -0.2480
  129OSM   H12F13887   4.584   6.047   8.012  0.2880 -1.0048  0.1863
  129OSM   H12G13888   4.485   5.926   8.086  0.6782 -0.2599 -0.3844
  129OSM   C13F13889   4.419   6.122   8.144 -0.1361 -0.5266 -0.3048
  129OSM   H13F13890   4.310   6.107   8.151 -0.0265 -0.7886  0.8484
  129OSM   H13G13891   4.439   6.227   8.112  1.0172 -0.5073  0.4169
  129OSM   C14F13892   4.496   6.099   8.276  0.4578 -0.1855 -0.2237
  129OSM   H14F13893   4.475   5.996   8.312  0.0663 -0.7448 -1.9906
  129OSM   H14G13894   4.465   6.174   8.352  2.3514 -0.2685  0.6792
  129OSM   C15F13895   4.649   6.106   8.258 -0.1420  0.0991 -0.9966
  129OSM   H15F13896   4.666   6.193   8.192 -1.2814 -0.4244 -1.9923
  129OSM   H15G13897   4.687   6.015   8.206  0.0322 -0.3296 -0.1320
  129OSM   C16F13898   4.726   6.123   8.388 -0.1336  0.3832  0.2849
  129OSM   H16F13899   4.694   6.214   8.443 -2.0476 -0.8172  1.1953
  129OSM   H16G13900   4.834   6.145   8.375  0.1036 -0.9420 -0.1379
  129OSM   C17F13901   4.733   5.996   8.474  0.0366  0.4398 -0.4673
  129OSM   H17F13902   4.749   5.905   8.412  0.9124 -1.0447  1.8842
  129OSM   H17G13903   4.633   5.976   8.518  1.2464 -3.1852  0.8754
  129OSM   C18F13904   4.835   5.992   8.589 -0.5886  0.0766 -0.3678
  129OSM   H18F13905   4.928   6.041   8.552  0.8259 -1.4741  1.0437
  129OSM   H18G13906   4.854   5.889   8.627 -1.8028  0.0653  0.2318
  129OSM   H18H13907   4.809   6.057   8.676  2.3048  0.2910  0.3798
  130OSM      N13908   5.082   3.007   6.074  0.1403 -0.1685  0.0517
  130OSM    C1513909   5.074   2.976   6.220 -0.2202 -1.0204  0.5902
  130OSM   H15A13910   5.167   2.961   6.272 -1.0395 -1.8170  1.8247
  130OSM   H15B13911   5.021   2.887   6.247 -1.7839 -0.1096  0.5616
  130OSM   H15C13912   5.021   3.056   6.270 -1.4088 -1.0742 -0.5497
  130OSM    C1413913   5.131   2.885   6.000  0.1787  0.5756 -0.0582
  130OSM   H14A13914   5.227   2.851   6.035 -0.4201 -0.7122  0.3788
  130OSM   H14B13915   5.130   2.898   5.892 -0.8051  0.3583 -0.0829
  130OSM   H14C13916   5.061   2.803   6.011  1.6437 -0.4213  2.1088
  130OSM    C1313917   4.933   3.032   6.025 -0.2148 -0.0643  0.3837
  130OSM   H13A13918   4.885   3.098   6.096  1.5417  2.2622 -0.5121
  130OSM   H13B13919   4.869   2.946   6.017  0.9847 -0.8554 -0.9267
  130OSM   H13C13920   4.934   3.076   5.926 -1.9322 -1.0021 -0.0737
  130OSM    C1213921   5.162   3.132   6.050 -0.0253  0.3513 -0.3673
  130OSM   H12A13922   5.163   3.148   5.943 -1.8679 -0.9046 -0.5963
  130OSM   H12B13923   5.267   3.124   6.075 -0.2084 -4.9805 -0.7565
  130OSM    C1113924   5.115   3.261   6.121 -0.2123  0.2948 -0.2740
  130OSM   H11A13925   5.014   3.289   6.083 -0.2752  2.4203  1.3693
  130OSM   H11B13926   5.191   3.340   6.097  0.4494  0.1497  1.3252
  130OSM      P13927   5.244   3.279   6.346  0.0760 -0.2652 -0.4383
  130OSM    O1313928   5.349   3.180   6.311 -0.0981 -0.4587 -0.2151
  130OSM    O1413929   5.283   3.420   6.350 -0.2687  0.3219  0.3763
  130OSM    O1113930   5.194   3.235   6.494 -0.6288  0.0073 -0.7565
  130OSM    O1213931   5.111   3.253   6.266  0.1536  0.2731  0.2409
  130OSM    C1S13932   5.082   3.297   6.562 -0.3216  0.1938 -0.7235
  130OSM    H1S13933   4.997   3.231   6.534 -0.6061 -0.0746  0.7382
  130OSM    H1T13934   5.055   3.397   6.521 -1.0274 -0.0430 -0.8541
  130OSM     NF13935   4.950   3.335   6.778  0.0326 -0.1488 -0.7063
  130OSM    HNF13936   4.942   3.427   6.815  0.2385 -0.5461  0.3584
  130OSM    C2S13937   5.079   3.290   6.724 -0.0539 -0.1647  0.4719
  130OSM    H2S13938   5.096   3.182   6.744 -1.1172 -0.2453  0.9414
  130OSM    C3S13939   5.203   3.373   6.769  0.3890  0.0748  0.3943
  130OSM    H3S13940   5.182   3.477   6.738  0.8411 -0.6866 -2.5732
  130OSM     O313941   5.318   3.326   6.704 -0.1277  0.1250  0.1156
  130OSM    HO313942   5.288   3.281   6.625 -0.5524  1.9453 -0.7656
  130OSM    C4S13943   5.217   3.369   6.923  0.6062  0.5227  0.0255
  130OSM    H4S13944   5.186   3.465   6.966  1.5069  0.2214  1.3815
  130OSM    C5S13945   5.261   3.265   6.999 -0.1952  0.1611  0.2180
  130OSM    H5S13946   5.276   3.167   6.950 -2.4139 -1.0805  1.9237
  130OSM    C6S13947   5.284   3.270   7.152  0.1406 -0.1575  0.6409
  130OSM    H6S13948   5.394   3.276   7.166  0.1132 -1.5150  1.4849
  130OSM    H6T13949   5.269   3.168   7.193  2.4409 -0.6571  0.3215
  130OSM    C7S13950   5.215   3.379   7.233  0.5295 -0.7159  0.4838
  130OSM    H7S13951   5.107   3.356   7.217  0.2480 -0.7024  2.3062
  130OSM    H7T13952   5.244   3.480   7.198 -1.8349 -0.2594 -0.3010
  130OSM    C8S13953   5.240   3.364   7.381  0.2333 -0.3060  0.0637
  130OSM    H8S13954   5.199   3.263   7.406 -0.5638 -0.6970 -2.6172
  130OSM    H8T13955   5.190   3.447   7.434 -2.0917 -1.0979 -0.8110
  130OSM    C9S13956   5.386   3.378   7.432  0.0336  0.0623  1.1687
  130OSM    H9S13957   5.448   3.459   7.387 -0.4470  0.1910  0.7332
  130OSM    H9T13958   5.435   3.284   7.397 -1.8608 -0.8449  0.9133
  130OSM   C10S13959   5.397   3.371   7.586  0.5948 -0.4849 -0.2162
  130OSM   H10S13960   5.481   3.440   7.610 -0.7727  0.5705  1.6841
  130OSM   H10T13961   5.424   3.268   7.619  2.9501  0.8465  2.1843
  130OSM   C11S13962   5.279   3.412   7.676 -0.2738  0.6462 -0.3205
  130OSM   H11S13963   5.192   3.349   7.648  0.2606 -1.0052  1.5520
  130OSM   H11T13964   5.257   3.519   7.658 -1.8500  0.1474 -1.4194
  130OSM   C12S13965   5.302   3.389   7.828 -0.1065 -0.5205 -0.6499
  130OSM   H12S13966   5.310   3.281   7.851 -0.6880 -0.6833 -1.2169
  130OSM   H12T13967   5.218   3.432   7.886  1.1471  0.2737  0.6266
  130OSM   C13S13968   5.437   3.426   7.876  0.1037  0.2245 -0.3972
  130OSM   H13S13969   5.448   3.533   7.848 -0.2875  0.7644  1.3998
  130OSM   H13T13970   5.522   3.372   7.831 -1.0086 -2.8679  1.0508
  130OSM   C14S13971   5.444   3.418   8.030  0.2899 -0.0235  0.1316
  130OSM   H14S13972   5.424   3.313   8.060  0.8203 -0.3252 -0.5575
  130OSM   H14T13973   5.366   3.475   8.084  0.5951 -0.5103  1.0929
  130OSM   C15S13974   5.575   3.453   8.094 -0.5880  0.0166  0.0862
  130OSM   H15S13975   5.596   3.562   8.089 -2.0012  0.3920  1.7556
  130OSM   H15T13976   5.650   3.396   8.035 -0.1405  1.6342 -0.9352
  130OSM   C16S13977   5.596   3.387   8.236  0.3917 -0.1851 -0.3871
  130OSM   H16S13978   5.537   3.293   8.241 -0.9690  0.5945 -1.5583
  130OSM   H16T13979   5.556   3.449   8.319  1.0919  1.3495 -1.1931
  130OSM   C17S13980   5.747   3.351   8.255  0.0433 -0.5300 -0.1859
  130OSM   H17S13981   5.800   3.449   8.257  0.0377 -0.4619 -1.9864
  130OSM   H17T13982   5.784   3.289   8.170  0.2188 -0.3126 -0.2730
  130OSM   C18S13983   5.770   3.261   8.379  0.5769 -0.5961 -1.4105
  130OSM   H18S13984   5.880   3.266   8.394  0.5957 -1.7637 -1.0996
  130OSM   H18T13985   5.726   3.162   8.357 -1.9609 -0.1717  1.3646
  130OSM   H18U13986   5.730   3.297   8.476 -0.7438  0.7557 -2.4304
  130OSM    C1F13987   4.845   3.262   6.772 -0.2919  0.5383  0.1726
  130OSM     OF13988   4.852   3.159   6.705  0.1036 -0.7143  0.4469
  130OSM    C2F13989   4.715   3.292   6.843 -0.6694  0.1354 -0.2556
  130OSM    H2F13990   4.653   3.355   6.776 -2.4323 -0.0905  1.1169
  130OSM    H2G13991   4.728   3.357   6.933 -0.4064 -1.4580  0.8911
  130OSM    C3F13992   4.636   3.166   6.882  0.1468 -0.4074  0.0418
  130OSM    H3F13993   4.689   3.094   6.948 -0.3229 -0.2029  0.6416
  130OSM    H3G13994   4.587   3.130   6.789 -1.5509  0.9409  0.3816
  130OSM    C4F13995   4.528   3.213   6.979  0.0268 -0.3892  0.0531
  130OSM    H4F13996   4.465   3.297   6.942 -0.2308 -0.1303  1.0563
  130OSM    H4G13997   4.586   3.247   7.068 -0.4315  0.2532  0.1115
  130OSM    C5F13998   4.424   3.099   6.998  0.1539 -0.1560 -0.5450
  130OSM    H5F13999   4.478   3.016   7.049  1.0064  0.9661  0.4018
  130OSM    H5G14000   4.384   3.070   6.898  1.5104  3.1491 -2.1140
  130OSM    C6F14001   4.306   3.134   7.096 -0.7216 -0.1299 -0.6433
  130OSM    H6F14002   4.239   3.046   7.104 -0.3535 -0.4109 -0.6456
  130OSM    H6G14003   4.249   3.210   7.038 -1.4126 -0.7163 -0.7373
  130OSM    C7F14004   4.363   3.197   7.229 -0.1135  0.1287 -0.0933
  130OSM    H7F14005   4.277   3.224   7.294 -0.0782  1.6144 -0.6467
  130OSM    H7G14006   4.429   3.283   7.204 -0.5251  0.3958 -0.2520
  130OSM    C8F14007   4.460   3.108   7.312 -0.4899  0.3375  0.1731
  130OSM    H8F14008   4.511   3.181   7.379 -1.7393  2.2850 -0.9510
  130OSM    H8G14009   4.538   3.077   7.239 -0.3120 -3.5348  1.9163
  130OSM    C9F14010   4.399   2.985   7.377  0.7150 -1.0735 -0.0756
  130OSM    H9F14011   4.321   2.931   7.321  0.0264 -2.3550  2.0558
  130OSM   C10F14012   4.430   2.948   7.504  0.0227  0.6336 -0.2607
  130OSM   H10F14013   4.387   2.852   7.536 -0.1658  1.0515  0.7606
  130OSM   C11F14014   4.535   3.017   7.598 -0.4136  0.7609  0.4080
  130OSM   H11F14015   4.599   3.091   7.546  1.9027 -0.8585  0.8601
  130OSM   H11G14016   4.594   2.930   7.635 -1.2692 -0.1780 -0.3813
  130OSM   C12F14017   4.461   3.079   7.722 -0.4089 -0.1472  0.2829
  130OSM   H12F14018   4.407   3.171   7.692 -3.0516 -0.9380  2.4642
  130OSM   H12G14019   4.538   3.105   7.798 -0.1034 -0.2609  0.0164
  130OSM   C13F14020   4.356   2.989   7.796 -0.1477 -0.0083  0.1574
  130OSM   H13F14021   4.408   2.900   7.837  2.3933  2.2785  2.0469
  130OSM   H13G14022   4.270   2.966   7.730  2.3825  1.3812 -3.7988
  130OSM   C14F14023   4.298   3.069   7.918  0.4312  0.2957 -0.3741
  130OSM   H14F14024   4.255   3.166   7.886  3.3694  1.2419 -1.6491
  130OSM   H14G14025   4.382   3.096   7.986  1.2240 -1.3793 -0.6636
  130OSM   C15F14026   4.195   2.981   7.998 -0.1548  0.1680 -0.6634
  130OSM   H15F14027   4.267   2.898   8.014 -0.3385  0.6168  2.7487
  130OSM   H15G14028   4.115   2.956   7.924 -2.6387  4.4131  0.4088
  130OSM   C16F14029   4.145   3.035   8.126  0.2895  0.2852  0.2492
  130OSM   H16F14030   4.078   3.121   8.103  0.7782  0.2627 -1.2838
  130OSM   H16G14031   4.225   3.075   8.191 -0.3088 -1.9084  2.4007
  130OSM   C17F14032   4.079   2.919   8.201  0.2806 -0.5089  0.4088
  130OSM   H17F14033   4.013   2.860   8.133  2.8829 -1.5357 -1.2944
  130OSM   H17G14034   4.021   2.944   8.293  1.1318  0.3654  0.7083
  130OSM   C18F14035   4.177   2.813   8.254 -0.6470  0.1465  0.9319
  130OSM   H18F14036   4.115   2.750   8.320 -1.5718  0.7172  0.6099
  130OSM   H18G14037   4.254   2.854   8.322 -0.2229  0.2175  0.4160
  130OSM   H18H14038   4.220   2.758   8.167 -1.1996 -0.7543  1.2218
  131OSM      N14039   4.854   1.402   5.852  0.2272  0.2646 -0.0188
  131OSM    C1514040   4.748   1.507   5.822  0.1396 -0.3332  0.5772
  131OSM   H15A14041   4.661   1.478   5.880 -0.4783  0.8269  0.2603
  131OSM   H15B14042   4.742   1.504   5.715  1.4293  0.6261  0.4771
  131OSM   H15C14043   4.765   1.610   5.850  2.1456  0.1178 -2.1461
  131OSM    C1414044   4.806   1.274   5.794 -0.3214  0.2618 -0.5431
  131OSM   H14A14045   4.812   1.289   5.687  2.2656  1.4094 -0.2698
  131OSM   H14B14046   4.705   1.256   5.830  0.2332 -0.1987  0.8000
  131OSM   H14C14047   4.873   1.200   5.835  1.0929  1.4898 -0.5915
  131OSM    C1314048   4.983   1.434   5.796 -0.0858  0.0507 -0.4845
  131OSM   H13A14049   4.993   1.443   5.689  1.6528 -0.5236 -0.3860
  131OSM   H13B14050   5.050   1.360   5.836  1.4143  1.3161 -0.6085
  131OSM   H13C14051   5.021   1.526   5.838  0.7059  0.3807 -1.8825
  131OSM    C1214052   4.862   1.404   6.003  0.3757 -0.0522  0.3675
  131OSM   H12A14053   4.763   1.389   6.042 -0.0140  0.2670 -0.4975
  131OSM   H12B14054   4.908   1.498   6.031 -0.5972  0.4035  0.4644
  131OSM    C1114055   4.959   1.295   6.056 -0.5765 -0.1860  0.3097
  131OSM   H11A14056   4.928   1.196   6.015  3.2128 -1.2148 -0.2581
  131OSM   H11B14057   4.958   1.284   6.167  2.4154  1.0743  0.4991
  131OSM      P14058   5.193   1.406   6.086 -0.3721  0.1134  0.7013
  131OSM    O1314059   5.334   1.387   6.033 -0.2525 -0.6983 -0.2702
  131OSM    O1414060   5.140   1.537   6.060 -0.0745 -0.7404  0.8866
  131OSM    O1114061   5.180   1.369   6.241 -0.0110  0.7702 -0.3387
  131OSM    O1214062   5.093   1.306   6.014  0.4100  0.2849 -0.9489
  131OSM    C1S14063   5.253   1.257   6.297 -0.5167  0.4214 -0.1418
  131OSM    H1S14064   5.361   1.277   6.284 -0.6426  0.8653 -0.5008
  131OSM    H1T14065   5.237   1.160   6.245 -0.4420 -0.2063  0.9764
  131OSM     NF14066   5.334   1.170   6.519  0.6628  0.3959  0.4899
  131OSM    HNF14067   5.327   1.071   6.520 -0.6966  0.4973  0.8996
  131OSM    C2S14068   5.229   1.242   6.451  0.0073  0.3097 -0.2522
  131OSM    H2S14069   5.212   1.342   6.496  2.8478  0.3213  0.8977
  131OSM    C3S14070   5.096   1.164   6.462 -0.4737 -0.6980  0.1367
  131OSM    H3S14071   5.116   1.074   6.400  2.8356  0.3704 -0.4401
  131OSM     O314072   4.975   1.210   6.397 -0.2704  0.2960  0.3159
  131OSM    HO314073   5.003   1.299   6.373  0.3522 -0.1869 -0.7747
  131OSM    C4S14074   5.068   1.125   6.613  0.4150  0.0107 -0.0389
  131OSM    H4S14075   5.102   1.027   6.649 -1.7104 -0.0618  1.8850
  131OSM    C5S14076   5.013   1.209   6.701  0.7601 -1.0223 -0.0385
  131OSM    H5S14077   4.982   1.307   6.661  1.8957  0.6158  2.9789
  131OSM    C6S14078   5.000   1.178   6.844 -0.7325 -0.1058  0.2569
  131OSM    H6S14079   5.085   1.225   6.898 -0.1515  1.2385 -1.7941
  131OSM    H6T14080   5.023   1.069   6.853 -0.9055 -0.1679 -0.0535
  131OSM    C7S14081   4.876   1.227   6.919 -0.2497  0.4567  0.7761
  131OSM    H7S14082   4.788   1.186   6.864 -0.4879  1.3837  0.4622
  131OSM    H7T14083   4.872   1.338   6.914  1.6630  0.4447 -2.0619
  131OSM    C8S14084   4.884   1.175   7.066 -0.3617  0.4635  0.7070
  131OSM    H8S14085   4.982   1.210   7.103 -0.5991  0.1243  1.6895
  131OSM    H8T14086   4.878   1.064   7.062  2.6201  0.1657  2.8254
  131OSM    C9S14087   4.778   1.235   7.163 -0.0067 -0.4017 -0.0530
  131OSM    H9S14088   4.673   1.205   7.141  0.2273  0.0967 -1.9571
  131OSM    H9T14089   4.780   1.346   7.159  0.5262 -0.4158 -0.1757
  131OSM   C10S14090   4.812   1.185   7.304 -0.4633  0.3207  0.3500
  131OSM   H10S14091   4.918   1.175   7.335 -0.5360 -0.7054  0.2982
  131OSM   H10T14092   4.783   1.077   7.307  0.1199  0.1493 -0.2194
  131OSM   C11S14093   4.731   1.266   7.401 -0.3622  0.4347 -0.1140
  131OSM   H11S14094   4.621   1.273   7.384 -0.0761  0.3573 -2.1149
  131OSM   H11T14095   4.769   1.370   7.395 -0.8148  0.5587 -0.9516
  131OSM   C12S14096   4.765   1.220   7.542 -0.2329  0.2781  0.4603
  131OSM   H12S14097   4.865   1.252   7.578 -0.5222  1.5887  0.1248
  131OSM   H12T14098   4.770   1.109   7.538  0.4139  0.3140  0.0892
  131OSM   C13S14099   4.656   1.275   7.633 -0.5338 -0.1381 -0.5350
  131OSM   H13S14100   4.551   1.248   7.611 -0.0676 -1.7513 -0.7935
  131OSM   H13T14101   4.660   1.386   7.630 -0.1514 -0.1636 -1.0564
  131OSM   C14S14102   4.677   1.236   7.781 -0.6181 -0.5464  0.5165
  131OSM   H14S14103   4.701   1.129   7.795 -2.8074 -1.0763  0.3629
  131OSM   H14T14104   4.583   1.256   7.837 -1.7366  0.1185 -1.5137
  131OSM   C15S14105   4.785   1.330   7.844 -0.7336  0.3853 -0.8959
  131OSM   H15S14106   4.757   1.437   7.835  1.7201  0.9777 -1.9704
  131OSM   H15T14107   4.883   1.318   7.792 -0.1402  0.1016  0.2794
  131OSM   C16S14108   4.803   1.307   7.992  0.1822  0.0821  1.0713
  131OSM   H16S14109   4.810   1.199   8.015  0.4793  0.5125  3.0700
  131OSM   H16T14110   4.707   1.338   8.039 -1.4980  0.2695 -2.3319
  131OSM   C17S14111   4.917   1.383   8.058 -0.3874 -0.6124  0.4518
  131OSM   H17S14112   4.934   1.341   8.160  1.2763  1.3220  1.0135
  131OSM   H17T14113   4.899   1.491   8.078  2.5879  0.0772 -0.4243
  131OSM   C18S14114   5.057   1.396   7.992  0.4185  0.2426  0.2583
  131OSM   H18S14115   5.096   1.294   7.974 -3.1396 -1.0534 -0.5111
  131OSM   H18T14116   5.130   1.445   8.059  1.3024  0.4397 -0.8259
  131OSM   H18U14117   5.064   1.470   7.909  2.2641  0.7187  0.8083
  131OSM    C1F14118   5.453   1.233   6.524  0.3857 -0.4669  0.2594
  131OSM     OF14119   5.455   1.357   6.518 -0.1117  0.0944  0.5589
  131OSM    C2F14120   5.577   1.149   6.547  0.4953 -0.5269  0.5508
  131OSM    H2F14121   5.582   1.090   6.453  0.6090 -1.3141  1.0457
  131OSM    H2G14122   5.546   1.079   6.628 -2.7101  0.1375 -0.0305
  131OSM    C3F14123   5.711   1.217   6.570 -0.2814 -0.0662  0.6517
  131OSM    H3F14124   5.723   1.284   6.482 -2.3909  1.2415  1.3184
  131OSM    H3G14125   5.787   1.137   6.561 -2.0960 -1.4885 -3.2026
  131OSM    C4F14126   5.732   1.288   6.701 -0.1780  0.1499 -0.0733
  131OSM    H4F14127   5.649   1.358   6.725  0.2376  0.7631 -0.4130
  131OSM    H4G14128   5.816   1.361   6.694 -0.7557  1.1945  3.1169
  131OSM    C5F14129   5.750   1.196   6.824  0.0756  1.2170 -0.0001
  131OSM    H5F14130   5.829   1.120   6.805 -0.5767  0.5848 -0.2506
  131OSM    H5G14131   5.660   1.135   6.848  0.4572  1.8902  3.3989
  131OSM    C6F14132   5.794   1.266   6.949 -0.2974 -0.1701 -0.1030
  131OSM    H6F14133   5.743   1.364   6.946 -0.0181 -0.0244 -0.0827
  131OSM    H6G14134   5.903   1.289   6.954 -0.4593  2.0231 -4.2128
  131OSM    C7F14135   5.764   1.192   7.079  0.1601 -0.7952  0.3977
  131OSM    H7F14136   5.815   1.096   7.055  0.9730 -1.2315  3.6553
  131OSM    H7G14137   5.656   1.175   7.096 -0.7333  0.5288 -3.4180
  131OSM    C8F14138   5.823   1.267   7.201  0.1089  0.5201  0.1310
  131OSM    H8F14139   5.933   1.277   7.188 -0.0896  1.2332 -1.0016
  131OSM    H8G14140   5.820   1.195   7.287  3.3482 -0.6473 -0.6269
  131OSM    C9F14141   5.753   1.398   7.232  0.5202 -0.8710  0.4735
  131OSM    H9F14142   5.674   1.434   7.165 -0.0859  1.2330  2.2545
  131OSM   C10F14143   5.796   1.479   7.331 -0.1629  0.1403  0.1056
  131OSM   H10F14144   5.740   1.573   7.346 -0.5033 -0.0868  0.2460
  131OSM   C11F14145   5.911   1.457   7.424  0.1682 -0.2312 -0.0871
  131OSM   H11F14146   5.999   1.522   7.402 -2.0150  2.6024 -0.8254
  131OSM   H11G14147   5.951   1.354   7.414 -2.1267 -1.0282 -1.1704
  131OSM   C12F14148   5.875   1.474   7.573  0.4479  0.0110 -0.2604
  131OSM   H12F14149   5.791   1.404   7.591  1.6974 -0.4078  4.5805
  131OSM   H12G14150   5.848   1.578   7.603  3.2338  0.6001  0.3167
  131OSM   C13F14151   5.988   1.434   7.665  0.1261  0.1154  0.7668
  131OSM   H13F14152   6.069   1.509   7.656  2.4868 -2.5289 -0.7045
  131OSM   H13G14153   6.040   1.344   7.627  0.5382  1.7749 -2.7175
  131OSM   C14F14154   5.951   1.433   7.813 -0.1921 -0.4459  0.1382
  131OSM   H14F14155   5.892   1.522   7.843  3.6839  3.0222 -1.9349
  131OSM   H14G14156   6.044   1.429   7.873  0.0348  3.3435  0.1965
  131OSM   C15F14157   5.867   1.304   7.847  0.2195 -0.2166  0.1731
  131OSM   H15F14158   5.919   1.212   7.816 -0.0764 -0.3018 -0.0692
  131OSM   H15G14159   5.772   1.298   7.788  0.6181 -3.9584 -0.1923
  131OSM   C16F14160   5.815   1.296   7.985 -0.3831 -0.1759 -0.4046
  131OSM   H16F14161   5.799   1.190   8.014  2.4967  0.1119  2.4755
  131OSM   H16G14162   5.719   1.346   8.005 -2.0526 -3.3268 -0.1315
  131OSM   C17F14163   5.926   1.332   8.088 -0.7743  0.6994  0.1204
  131OSM   H17F14164   5.954   1.439   8.078  0.3057  0.3368 -0.8133
  131OSM   H17G14165   6.008   1.264   8.056  1.1361  3.0844 -0.1900
  131OSM   C18F14166   5.880   1.301   8.237 -0.2914 -0.3424 -0.4585
  131OSM   H18F14167   5.796   1.371   8.254  0.0518  0.2106 -0.9954
  131OSM   H18G14168   5.960   1.323   8.310 -1.3138  0.7165  0.3449
  131OSM   H18H14169   5.839   1.198   8.246  0.5133 -0.3365  4.5517
  132OSM      N14170   0.271   4.967   5.899  0.1451  0.4994  0.0139
  132OSM    C1514171   0.138   4.993   5.826 -0.2797 -0.2955  0.2225
  132OSM   H15A14172   0.140   5.089   5.777  0.8562  0.0922  1.0231
  132OSM   H15B14173   0.058   4.987   5.898 -0.7940  0.1838 -0.3059
  132OSM   H15C14174   0.123   4.909   5.759 -4.3437 -0.7152  1.5222
  132OSM    C1414175   0.283   4.835   5.961  0.7205  0.0025  0.2058
  132OSM   H14A14176   0.209   4.830   6.040 -2.2823 -0.9284 -2.5315
  132OSM   H14B14177   0.383   4.814   5.996  0.8929  0.8333  0.2134
  132OSM   H14C14178   0.262   4.759   5.886 -1.5202 -0.5017  1.3017
  132OSM    C1314179   0.388   4.989   5.798  0.5531 -0.1427 -0.2250
  132OSM   H13A14180   0.480   4.981   5.853  0.6151  0.8569 -0.1677
  132OSM   H13B14181   0.377   5.091   5.764  1.0723  0.3760  1.1135
  132OSM   H13C14182   0.389   4.919   5.716  3.7282  1.2940 -1.4858
  132OSM    C1214183   0.278   5.065   6.003 -0.6414 -0.1555  0.5081
  132OSM   H12A14184   0.192   5.059   6.070 -0.8415 -0.5150  0.2198
  132OSM   H12B14185   0.276   5.155   5.943  1.3357 -0.2137  0.3497
  132OSM    C1114186   0.398   5.069   6.092 -0.3933  0.1709  0.2986
  132OSM   H11A14187   0.398   5.167   6.144  0.4309  1.4856 -2.1016
  132OSM   H11B14188   0.491   5.087   6.033 -3.0122  2.5707 -3.2729
  132OSM      P14189   0.530   4.972   6.303 -0.2609 -0.2122 -0.1155
  132OSM    O1314190   0.570   4.837   6.340  0.5771  0.2466  0.0772
  132OSM    O1414191   0.642   5.055   6.255 -0.1168 -0.1665 -0.2847
  132OSM    O1114192   0.447   5.047   6.416 -0.3297 -0.0459 -0.1439
  132OSM    O1214193   0.419   4.960   6.191 -0.1783  0.7190 -0.8202
  132OSM    C1S14194   0.333   4.993   6.475 -0.3277  0.2996  0.2814
  132OSM    H1S14195   0.332   4.882   6.474 -0.1847  0.2635  2.4011
  132OSM    H1T14196   0.246   5.022   6.413  0.3858 -0.0482 -0.8884
  132OSM     NF14197   0.197   4.976   6.672 -0.7355  0.3308  0.5385
  132OSM    HNF14198   0.107   5.019   6.672 -0.4426  0.9431 -0.6788
  132OSM    C2S14199   0.312   5.048   6.612  0.4940 -0.2257  0.3115
  132OSM    H2S14200   0.400   5.019   6.674 -1.7011 -1.1929  3.0689
  132OSM    C3S14201   0.291   5.198   6.608  0.0083 -0.5488  0.1119
  132OSM    H3S14202   0.209   5.225   6.538  0.8842  1.4301 -0.1908
  132OSM     O314203   0.403   5.276   6.566 -0.7727 -0.1063 -0.1963
  132OSM    HO314204   0.462   5.206   6.538 -1.3752  0.2466 -2.4325
  132OSM    C4S14205   0.263   5.242   6.745  0.3989 -0.0990  0.2685
  132OSM    H4S14206   0.346   5.237   6.818  1.0028 -1.7423 -0.4969
  132OSM    C5S14207   0.155   5.306   6.785  0.2145 -0.4470  0.4142
  132OSM    H5S14208   0.071   5.318   6.714  0.4977  0.8778  0.3090
  132OSM    C6S14209   0.137   5.369   6.923 -0.1864 -0.3297  0.2092
  132OSM    H6S14210   0.104   5.475   6.916 -1.6071 -0.7308  0.7376
  132OSM    H6T14211   0.233   5.379   6.979  0.4662 -0.3329 -0.8929
  132OSM    C7S14212   0.039   5.288   7.004  0.0085  0.1978  0.2338
  132OSM    H7S14213   0.086   5.188   7.019 -2.4236 -1.5541 -2.9360
  132OSM    H7T14214  -0.063   5.270   6.962 -0.2495 -1.8632  1.6322
  132OSM    C8S14215   0.004   5.366   7.128 -0.0977  0.3747 -0.2664
  132OSM    H8S14216  -0.061   5.456   7.121 -1.9818 -0.8891  0.5974
  132OSM    H8T14217   0.092   5.413   7.176 -0.3008  0.8401 -0.3452
  132OSM    C9S14218  -0.066   5.278   7.228 -0.6087  0.0893 -0.4510
  132OSM    H9S14219  -0.010   5.183   7.237 -0.0655  0.5819  1.7551
  132OSM    H9T14220  -0.162   5.230   7.198 -0.4001 -0.6182 -0.0004
  132OSM   C10S14221  -0.087   5.361   7.359  0.7601 -0.0080  1.2385
  132OSM   H10S14222  -0.177   5.423   7.337 -0.2088 -2.2214 -1.2843
  132OSM   H10T14223  -0.005   5.436   7.364  0.5986  0.6877 -3.8281
  132OSM   C11S14224  -0.099   5.278   7.489  0.9931  0.0088  0.3184
  132OSM   H11S14225  -0.008   5.214   7.496  1.9580  1.4135  0.9216
  132OSM   H11T14226  -0.186   5.210   7.499  0.5086  0.5265 -0.3979
  132OSM   C12S14227  -0.102   5.364   7.620  0.9107  0.3600  0.2477
  132OSM   H12S14228  -0.204   5.358   7.664 -0.0462 -0.0758 -1.9805
  132OSM   H12T14229  -0.081   5.471   7.601  1.7570  0.8079  3.4311
  132OSM   C13S14230  -0.001   5.309   7.714  0.1706 -0.6653  0.3927
  132OSM   H13S14231   0.018   5.379   7.798 -0.1935  0.3849 -0.3853
  132OSM   H13T14232   0.100   5.302   7.669  0.5557 -1.9404  1.4297
  132OSM   C14S14233  -0.031   5.174   7.760 -0.2817  0.4153 -0.7026
  132OSM   H14S14234  -0.001   5.100   7.682 -0.8522 -0.5451 -0.0188
  132OSM   H14T14235  -0.141   5.168   7.766 -0.3434  2.6251  0.7774
  132OSM   C15S14236   0.055   5.149   7.885 -0.6919 -0.0225  0.0096
  132OSM   H15S14237   0.159   5.185   7.870 -0.1323 -1.4875  0.3443
  132OSM   H15T14238   0.069   5.039   7.893 -1.6829 -0.1037  0.7204
  132OSM   C16S14239  -0.011   5.203   8.011  0.3822 -0.2613  0.6550
  132OSM   H16S14240  -0.110   5.154   8.022 -0.6711  1.8217  0.8182
  132OSM   H16T14241  -0.018   5.314   8.005 -1.6029 -0.3634  0.7602
  132OSM   C17S14242   0.071   5.159   8.132  0.3559  0.0872 -0.3745
  132OSM   H17S14243   0.174   5.200   8.117 -0.0587  1.4232  0.3138
  132OSM   H17T14244   0.085   5.049   8.129  3.7191  0.4574 -0.1237
  132OSM   C18S14245   0.007   5.218   8.261  0.4739  1.0271 -0.1220
  132OSM   H18S14246  -0.099   5.186   8.274  0.9419  0.0383  1.3302
  132OSM   H18T14247   0.004   5.327   8.240 -1.8515  0.6026 -2.2423
  132OSM   H18U14248   0.059   5.176   8.349 -3.8093 -3.7999  0.3801
  132OSM    C1F14249   0.195   4.842   6.709  0.0459 -0.8619  0.9019
  132OSM     OF14250   0.296   4.779   6.716  0.4574 -0.6952  0.6515
  132OSM    C2F14251   0.061   4.778   6.745  0.3729  0.9925 -0.5128
  132OSM    H2F14252   0.060   4.683   6.686  0.5331  0.8773 -0.3291
  132OSM    H2G14253  -0.021   4.844   6.708  1.1060  2.2494  0.0946
  132OSM    C3F14254   0.044   4.772   6.898 -0.3015  0.1471 -0.8867
  132OSM    H3F14255   0.134   4.729   6.947  0.0861 -1.0103 -2.5760
  132OSM    H3G14256  -0.045   4.709   6.924 -0.0903  0.8658  1.7046
  132OSM    C4F14257   0.029   4.911   6.963  0.2083 -0.3827  0.3921
  132OSM    H4F14258  -0.027   4.983   6.900 -0.5735 -0.8899  0.5071
  132OSM    H4G14259   0.128   4.960   6.975  0.6549 -1.1481 -0.1047
  132OSM    C5F14260  -0.064   4.906   7.084 -0.7566  0.5441 -0.1314
  132OSM    H5F14261  -0.165   4.874   7.050  0.3453 -0.2299 -2.7360
  132OSM    H5G14262  -0.060   5.016   7.101  0.2068  0.5716 -0.4997
  132OSM    C6F14263  -0.018   4.824   7.211 -0.6594 -0.0104  0.0663
  132OSM    H6F14264   0.072   4.877   7.249 -0.6590  0.3437 -0.4164
  132OSM    H6G14265   0.022   4.724   7.183  0.2670  0.5626 -0.6573
  132OSM    C7F14266  -0.124   4.802   7.318  0.1800  0.0152 -0.1422
  132OSM    H7F14267  -0.117   4.702   7.366  3.0292  0.7644  1.1341
  132OSM    H7G14268  -0.224   4.802   7.270 -0.7988 -0.9232  1.8614
  132OSM    C8F14269  -0.130   4.910   7.427  1.2123  1.0075 -1.0103
  132OSM    H8F14270  -0.143   5.005   7.370  1.1376  0.4147 -2.0090
  132OSM    H8G14271  -0.029   4.909   7.472  1.3293  1.9265 -1.2503
  132OSM    C9F14272  -0.240   4.888   7.524 -0.3342  0.5425 -0.4872
  132OSM    H9F14273  -0.341   4.897   7.481 -1.0292 -0.5831  0.8586
  132OSM   C10F14274  -0.230   4.845   7.652 -0.0324 -0.5571  0.0050
  132OSM   H10F14275  -0.318   4.841   7.718 -0.1873  1.5086 -0.0563
  132OSM   C11F14276  -0.102   4.815   7.718 -0.6273 -0.0952  0.2377
  132OSM   H11F14277  -0.025   4.892   7.699  1.1634 -2.0630 -0.6464
  132OSM   H11G14278  -0.062   4.720   7.677 -0.6634 -0.2267  0.5072
  132OSM   C12F14279  -0.122   4.803   7.875  0.1601  0.4743 -0.4184
  132OSM   H12F14280  -0.154   4.904   7.908  0.4850  0.1066  1.0515
  132OSM   H12G14281  -0.025   4.769   7.919  0.6787  1.1493 -1.0373
  132OSM   C13F14282  -0.219   4.694   7.927 -0.1535 -0.1199  0.2054
  132OSM   H13F14283  -0.182   4.599   7.884 -1.8786 -2.4831  3.6487
  132OSM   H13G14284  -0.322   4.722   7.897 -0.6109 -1.4497  0.4890
  132OSM   C14F14285  -0.203   4.670   8.079 -0.0343  0.3983 -0.4654
  132OSM   H14F14286  -0.216   4.762   8.140  0.4895 -0.2563  0.6538
  132OSM   H14G14287  -0.108   4.618   8.104  0.0573  0.7158 -0.1562
  132OSM   C15F14288  -0.319   4.585   8.131  0.4873  0.7518 -0.4383
  132OSM   H15F14289  -0.311   4.485   8.083  0.7349  0.5656 -0.0158
  132OSM   H15G14290  -0.406   4.644   8.097  0.0039 -0.3766 -1.1538
  132OSM   C16F14291  -0.321   4.583   8.286 -0.2913  0.4578  0.7755
  132OSM   H16F14292  -0.418   4.540   8.319  0.0647 -1.4244 -0.4898
  132OSM   H16G14293  -0.310   4.685   8.328  2.5465  0.8928 -0.8402
  132OSM   C17F14294  -0.212   4.489   8.341 -0.0467 -0.0299 -0.6856
  132OSM   H17F14295  -0.113   4.534   8.317  0.5040 -1.0668 -0.3570
  132OSM   H17G14296  -0.222   4.384   8.307 -0.0404  0.0356 -0.8836
  132OSM   C18F14297  -0.197   4.501   8.496  0.6358 -0.4585  0.0658
  132OSM   H18F14298  -0.292   4.486   8.553 -0.0744 -0.0433 -0.9948
  132OSM   H18G14299  -0.156   4.598   8.531  0.8949 -0.5500  0.0155
  132OSM   H18H14300  -0.137   4.414   8.531 -0.9977 -1.7498 -0.2382
  133SAPE     N14301   3.185   2.437  11.285  0.6254 -0.1388 -0.6905
  133SAPE   HN114302   3.150   2.340  11.275  0.1259 -0.1463  0.9950
  133SAPE   HN214303   3.276   2.455  11.238 -0.2441  0.5601 -2.1274
  133SAPE   HN314304   3.204   2.470  11.382 -1.3443 -1.2050  0.0766
  133SAPE   C1214305   3.088   2.537  11.220 -0.0587 -0.7907  0.3544
  133SAPE  H12A14306   3.107   2.637  11.265  0.3066 -0.0622 -1.3549
  133SAPE  H12B14307   2.987   2.502  11.249 -0.7162  0.2099 -0.7158
  133SAPE   C1114308   3.093   2.513  11.067  0.1012 -1.1613 -0.2341
  133SAPE  H11A14309   3.013   2.570  11.016 -1.0092 -1.2125  1.3984
  133SAPE  H11B14310   3.079   2.406  11.041  3.9927 -1.5786 -0.9602
  133SAPE     P14311   3.264   2.676  10.955 -0.0413 -0.2887  0.1270
  133SAPE   O1314312   3.197   2.790  11.020  0.1054  0.1547  0.1722
  133SAPE   O1414313   3.407   2.690  10.932  0.0382 -0.6065 -0.0015
  133SAPE   O1214314   3.223   2.543  11.034  0.0761  0.2990 -0.9156
  133SAPE   O1114315   3.189   2.660  10.810 -0.0158  0.0744  0.2299
  133SAPE    C114316   3.257   2.579  10.711  0.7309 -0.1954  0.3936
  133SAPE    HA14317   3.327   2.636  10.647 -0.4173 -0.0292 -0.7281
  133SAPE    HB14318   3.310   2.494  10.759  0.8389 -0.3370  0.0242
  133SAPE    C214319   3.151   2.519  10.613 -0.0704 -0.7558 -0.4227
  133SAPE    HS14320   3.204   2.444  10.551  0.3416 -2.3267  1.7581
  133SAPE   O2114321   3.093   2.627  10.543 -0.4999 -0.0361  0.2665
  133SAPE   C2114322   3.051   2.606  10.420 -0.4208  0.7513  0.0324
  133SAPE   O2214323   3.072   2.509  10.349  0.2921 -0.0260  0.5976
  133SAPE   C2214324   2.980   2.734  10.368 -0.2539 -0.7766  0.3922
  133SAPE   H2R14325   2.877   2.722  10.408  0.6829  1.0578  3.5868
  133SAPE   H2S14326   3.026   2.819  10.424 -2.8100 -0.5919  2.3303
  133SAPE    C314327   3.041   2.442  10.689 -0.2900 -0.9608  0.6455
  133SAPE    HX14328   2.974   2.525  10.719  0.1367 -0.1831 -0.5251
  133SAPE    HY14329   3.096   2.398  10.775 -0.9502  0.9702  2.0712
  133SAPE   O3114330   2.984   2.346  10.604 -0.3240 -0.1039 -0.6524
  133SAPE   C3114331   2.860   2.314  10.636  0.5931  0.3578 -0.5044
  133SAPE   O3214332   2.795   2.353  10.729 -0.6400 -0.1462 -0.6301
  133SAPE   C3214333   2.807   2.230  10.518 -0.1636 -0.5006  0.2791
  133SAPE   H2X14334   2.716   2.179  10.556 -0.2257  0.0102  0.8133
  133SAPE   H2Y14335   2.882   2.151  10.497 -1.3999 -1.7823  0.6060
  133SAPE   C2314336   2.980   2.766  10.220 -0.2783 -0.3296 -0.3016
  133SAPE   H3R14337   2.911   2.696  10.168 -2.4371  0.3751  1.5386
  133SAPE   H3S14338   3.071   2.758  10.157  0.1017 -0.1723  0.2193
  133SAPE   C2414339   2.933   2.914  10.198 -0.3525 -1.2202  0.4064
  133SAPE   H4R14340   2.848   2.933  10.267  0.6726 -1.0961  1.6691
  133SAPE   H4S14341   2.888   2.926  10.097 -2.8248 -2.0689  1.3650
  133SAPE   C2514342   3.048   3.015  10.239 -0.2236  1.0054 -0.7474
  133SAPE   H5R14343   3.058   3.019  10.349 -0.5861  0.1434 -0.6775
  133SAPE   C2614344   3.128   3.084  10.159  0.0827  0.6002  0.6068
  133SAPE   H6R14345   3.206   3.150  10.202  0.3386 -1.7955  4.0493
  133SAPE   C2714346   3.124   3.081  10.011 -0.6234  0.7557  0.1582
  133SAPE   H7R14347   3.027   3.035   9.982 -0.0314  0.5303 -1.4963
  133SAPE   H7S14348   3.199   3.006   9.979  1.2475  2.0363  1.4366
  133SAPE   C2814349   3.150   3.220   9.952  0.0011 -0.5625 -0.1601
  133SAPE   H8R14350   3.205   3.289  10.018 -0.6695 -2.0003  1.9881
  133SAPE   C2914351   3.119   3.261   9.831 -0.3869  0.1898 -0.1516
  133SAPE   H9R14352   3.126   3.368   9.803  0.9207 -0.6623 -3.1890
  133SAPE  C21014353   3.048   3.181   9.726  0.5511 -0.0103 -0.4456
  133SAPE  H10R14354   2.974   3.253   9.686 -0.0133 -0.5962 -0.4505
  133SAPE  H10S14355   2.994   3.096   9.772  3.2725 -1.2506  0.5356
  133SAPE  C21114356   3.131   3.128   9.618  0.4569 -0.0286 -0.2000
  133SAPE  H11R14357   3.214   3.067   9.655  0.9074  0.3773 -0.5331
  133SAPE  C21214358   3.116   3.139   9.490 -0.3776  0.3783 -0.5490
  133SAPE  H12R14359   3.168   3.063   9.429  1.4914 -0.3495  1.8713
  133SAPE  C21314360   3.001   3.204   9.418 -0.0043 -1.2291  0.8292
  133SAPE  H13R14361   3.043   3.285   9.354  0.0509 -1.3050  0.7693
  133SAPE  H13S14362   2.940   3.259   9.493  1.2515  1.0410  0.2516
  133SAPE  C21414363   2.914   3.112   9.338  0.1689 -0.5387  0.3570
  133SAPE  H14R14364   2.817   3.099   9.388  0.4711 -0.1646  1.0492
  133SAPE  C21514365   2.944   3.035   9.234  0.4791  1.3085 -0.3650
  133SAPE  H15R14366   2.861   2.981   9.186  0.6124  1.6648 -1.0097
  133SAPE  C21614367   3.080   3.029   9.167  0.5176  0.3902 -0.0150
  133SAPE  H16R14368   3.122   2.926   9.172  0.4634  0.4221  1.2336
  133SAPE  H16S14369   3.155   3.100   9.209 -0.2892  2.1282 -1.4789
  133SAPE  C21714370   3.087   3.062   9.016  0.1683  0.4542  1.2525
  133SAPE  H17R14371   3.189   3.065   8.974 -1.1495 -0.7677 -2.1794
  133SAPE  H17S14372   3.050   3.167   9.007  0.9926  0.5961 -0.6891
  133SAPE  C21814373   3.012   2.966   8.929 -0.5662  0.3749 -0.2760
  133SAPE  H18R14374   2.910   2.940   8.965  0.3243 -2.6958  0.1466
  133SAPE  H18S14375   3.061   2.868   8.915 -0.0666  0.6070 -0.1645
  133SAPE  C21914376   2.995   3.034   8.790  0.6541  0.7534  0.1005
  133SAPE  H19R14377   2.945   3.133   8.800 -0.8813 -0.0068  0.1597
  133SAPE  H19S14378   2.937   2.967   8.722  2.0722 -2.0483  1.5709
  133SAPE  C22014379   3.126   3.059   8.713 -0.4662  0.3202  0.4744
  133SAPE  H20R14380   3.201   2.995   8.765  0.6405  1.0302 -0.2275
  133SAPE  H20S14381   3.154   3.164   8.735 -0.2504  0.3162  0.2284
  133SAPE  H20T14382   3.117   3.047   8.603  1.4446 -0.1029  0.3411
  133SAPE   C3314383   2.769   2.320  10.400 -0.0794 -0.0902 -0.1935
  133SAPE   H3X14384   2.869   2.356  10.368  0.1182  0.5585  1.1191
  133SAPE   H3Y14385   2.703   2.401  10.436  0.5519  0.1428  0.4627
  133SAPE   C3414386   2.704   2.232  10.286  0.3897 -0.1930 -0.3689
  133SAPE   H4X14387   2.611   2.190  10.330  1.4842 -1.2635  0.9743
  133SAPE   H4Y14388   2.780   2.152  10.287  0.7156  0.1166  2.2354
  133SAPE   C3514389   2.690   2.281  10.140  0.4706  0.3573  1.0005
  133SAPE   H5X14390   2.785   2.330  10.109 -0.1679  0.5638 -0.6673
  133SAPE   H5Y14391   2.611   2.358  10.151  0.0097 -0.1512  1.2987
  133SAPE   C3614392   2.654   2.158  10.044 -0.3136  0.5174  0.2304
  133SAPE   H6X14393   2.590   2.078  10.086  1.9332 -1.5751 -0.2333
  133SAPE   H6Y14394   2.750   2.110  10.013  0.6678  2.2249  0.5352
  133SAPE   C3714395   2.588   2.203   9.915 -0.1590  0.0779 -0.4816
  133SAPE   H7X14396   2.653   2.276   9.862  0.8273 -0.4573 -0.0241
  133SAPE   H7Y14397   2.498   2.264   9.938  0.6459  1.7720 -1.7018
  133SAPE   C3814398   2.563   2.085   9.821 -0.4823  0.0498  0.6140
  133SAPE   H8X14399   2.475   2.029   9.860 -1.7342  1.1124 -0.6350
  133SAPE   H8Y14400   2.647   2.013   9.819 -1.1647 -0.8254  2.2434
  133SAPE   C3914401   2.532   2.120   9.677  0.2061 -0.2372 -0.1174
  133SAPE   H9X14402   2.622   2.175   9.642  1.5411 -0.8886  2.1814
  133SAPE   H9Y14403   2.445   2.189   9.670  1.7276  1.7657  0.2888
  133SAPE  C31014404   2.506   1.998   9.595  0.1194  0.2084  0.7783
  133SAPE  H10X14405   2.398   1.979   9.612 -0.2893  2.1943  0.5630
  133SAPE  H10Y14406   2.563   1.915   9.642  1.1189 -1.2604 -2.8512
  133SAPE  C31114407   2.535   2.027   9.441  0.5526  0.1609 -0.1005
  133SAPE  H11X14408   2.646   2.034   9.442  0.5811 -0.1370 -0.8779
  133SAPE  H11Y14409   2.493   2.127   9.417 -0.5549  0.0823  1.4699
  133SAPE  C31214410   2.487   1.911   9.356 -0.1084 -0.7970 -0.4734
  133SAPE  H12X14411   2.378   1.908   9.376  0.0841  0.1744  0.7521
  133SAPE  H12Y14412   2.537   1.818   9.389  0.2903 -1.0930 -1.8452
  133SAPE  C31314413   2.494   1.946   9.208 -0.6687  0.1639  0.3351
  133SAPE  H13X14414   2.596   1.967   9.171 -1.3248 -0.7821 -2.1333
  133SAPE  H13Y14415   2.430   2.033   9.182 -0.3954  0.5608  0.9986
  133SAPE  C31414416   2.438   1.826   9.116 -0.1918 -0.6360 -0.1921
  133SAPE  H14X14417   2.333   1.799   9.143  0.1169 -1.7271 -0.0772
  133SAPE  H14Y14418   2.489   1.728   9.119  0.7304 -0.1274  1.2049
  133SAPE  C31514419   2.424   1.865   8.967 -0.0529 -0.0486  0.0992
  133SAPE  H15X14420   2.511   1.920   8.927 -1.1289  1.5423 -0.0804
  133SAPE  H15Y14421   2.333   1.929   8.958 -0.1855 -0.0957  1.0149
  133SAPE  C31614422   2.377   1.745   8.888  0.0390  0.3739  0.5904
  133SAPE  H16X14423   2.289   1.692   8.930  0.4444 -1.4529 -0.8322
  133SAPE  H16Y14424   2.451   1.666   8.912  0.3336  0.4322 -0.1194
  133SAPE  C31714425   2.362   1.775   8.736 -0.6086  1.1166  0.0573
  133SAPE  H17X14426   2.299   1.864   8.718 -1.8358  0.3346  0.3960
  133SAPE  H17Y14427   2.302   1.693   8.691 -2.2772  1.2275  2.0003
  133SAPE  C31814428   2.494   1.802   8.660 -0.0337  0.0276  0.5335
  133SAPE  H18X14429   2.543   1.899   8.682 -2.1315  1.3652 -0.4759
  133SAPE  H18Y14430   2.460   1.803   8.554 -1.9434 -1.3334  1.0982
  133SAPE  H18Z14431   2.570   1.721   8.654  0.0021  0.1989 -2.0830
  134SAPE     N14432   5.591   3.436  10.640  0.3289  0.0389 -0.1557
  134SAPE   HN114433   5.645   3.379  10.708  1.4204  0.5491 -0.5851
  134SAPE   HN214434   5.598   3.535  10.670  1.8257  0.6184 -2.3146
  134SAPE   HN314435   5.490   3.417  10.657  0.3555 -0.6376 -0.6954
  134SAPE   C1214436   5.611   3.400  10.494  0.1630 -0.8141 -0.3888
  134SAPE  H12A14437   5.712   3.440  10.470 -0.2187  0.0932 -0.4957
  134SAPE  H12B14438   5.533   3.453  10.436  0.4988  0.1714  0.0577
  134SAPE   C1114439   5.607   3.250  10.485 -0.3729  0.2876 -0.3580
  134SAPE  H11A14440   5.642   3.214  10.386 -1.0479 -1.6903  0.1017
  134SAPE  H11B14441   5.499   3.227  10.495  0.0554 -0.4094  3.3337
  134SAPE     P14442   5.838   3.173  10.566 -0.6386  0.0998 -0.0630
  134SAPE   O1314443   5.890   3.289  10.640 -0.1302  0.4656 -0.3537
  134SAPE   O1414444   5.876   3.043  10.617 -0.2823 -0.8571 -0.6964
  134SAPE   O1214445   5.681   3.169  10.582 -0.3562  0.6204 -0.4590
  134SAPE   O1114446   5.861   3.181  10.412 -0.1373  0.0536 -0.4040
  134SAPE    C114447   5.991   3.196  10.366  0.1103 -0.5860  0.4656
  134SAPE    HA14448   6.069   3.198  10.445 -3.1692  0.1022  3.8565
  134SAPE    HB14449   6.022   3.115  10.298 -0.8738 -0.6339  0.0560
  134SAPE    C214450   6.011   3.324  10.287 -0.0096 -0.7975  0.3292
  134SAPE    HS14451   6.007   3.414  10.353  4.2265 -0.4861  0.2815
  134SAPE   O2114452   5.901   3.338  10.200 -0.0408 -0.6313  0.6461
  134SAPE   C2114453   5.902   3.452  10.142 -0.4085  0.1842  0.7314
  134SAPE   O2214454   5.985   3.541  10.168 -0.2112  0.2522 -0.0226
  134SAPE   C2214455   5.776   3.483  10.068  0.6561 -0.4026 -0.3664
  134SAPE   H2R14456   5.732   3.383  10.046  1.9363 -1.3075  1.0341
  134SAPE   H2S14457   5.712   3.542  10.138 -2.9166 -0.0859 -3.7350
  134SAPE    C314458   6.151   3.305  10.204  0.6404  0.3847 -0.4057
  134SAPE    HX14459   6.230   3.293  10.282 -0.5339 -0.1714  0.7269
  134SAPE    HY14460   6.180   3.403  10.160 -0.7989  1.0836  0.1269
  134SAPE   O3114461   6.157   3.194  10.116 -0.1654 -0.5747 -0.1526
  134SAPE   C3114462   6.128   3.221   9.996  0.3630  0.0106 -0.7893
  134SAPE   O3214463   6.103   3.331   9.949 -0.1538 -0.0890  0.1027
  134SAPE   C3214464   6.143   3.088   9.922  0.0923 -0.0417  0.5026
  134SAPE   H2X14465   6.093   3.010   9.984 -0.1453  0.5314  1.0411
  134SAPE   H2Y14466   6.252   3.069   9.925  0.7408  3.0512 -1.4672
  134SAPE   C2314467   5.785   3.558   9.933  0.2500  0.2928  0.6291
  134SAPE   H3R14468   5.890   3.591   9.918 -0.0887  0.6563 -1.0042
  134SAPE   H3S14469   5.735   3.657   9.938  2.0961  1.2847  0.0093
  134SAPE   C2414470   5.738   3.488   9.812  0.5359  0.6317  0.4892
  134SAPE   H4R14471   5.685   3.565   9.752 -2.2793 -0.8096  0.9875
  134SAPE   H4S14472   5.647   3.432   9.846 -1.0626  2.6029 -0.4304
  134SAPE   C2514473   5.844   3.400   9.743 -0.1646  0.0416 -0.2696
  134SAPE   H5R14474   5.932   3.376   9.805 -1.1031 -1.3695  0.5389
  134SAPE   C2614475   5.842   3.367   9.613  0.1960  0.0662  0.5223
  134SAPE   H6R14476   5.928   3.312   9.573 -0.2381 -0.4965  0.3484
  134SAPE   C2714477   5.737   3.394   9.511 -0.6216 -0.1627 -0.1340
  134SAPE   H7R14478   5.637   3.376   9.555 -0.7516  1.0238  0.0819
  134SAPE   H7S14479   5.740   3.311   9.438 -3.3073 -2.0608  1.8195
  134SAPE   C2814480   5.736   3.530   9.449  0.1100  0.1130 -0.1517
  134SAPE   H8R14481   5.776   3.610   9.513 -1.0634 -0.5826  1.4955
  134SAPE   C2914482   5.718   3.557   9.317  1.0142 -0.7225  0.8857
  134SAPE   H9R14483   5.728   3.662   9.284 -0.9241 -0.8898 -0.3073
  134SAPE  C21014484   5.683   3.453   9.210  0.5112  0.4548  0.7752
  134SAPE  H10R14485   5.587   3.484   9.163  0.2838  0.5434  1.3000
  134SAPE  H10S14486   5.657   3.351   9.244 -1.0734  0.1405 -1.2718
  134SAPE  C21114487   5.794   3.432   9.109 -0.3872 -0.5510 -0.2129
  134SAPE  H11R14488   5.890   3.406   9.154 -1.5820 -1.9223  1.6398
  134SAPE  C21214489   5.776   3.456   8.976  0.4839  1.1054  0.2302
  134SAPE  H12R14490   5.863   3.419   8.920 -1.2165  0.7284 -2.2771
  134SAPE  C21314491   5.647   3.497   8.912 -0.1564 -0.3736  0.7452
  134SAPE  H13R14492   5.613   3.587   8.968 -0.1631  0.8697 -1.1988
  134SAPE  H13S14493   5.569   3.420   8.934 -0.8565  0.1633  0.1865
  134SAPE  C21414494   5.647   3.530   8.764 -0.2080  0.3514  0.0846
  134SAPE  H14R14495   5.729   3.594   8.728 -1.0805  2.3700  1.5835
  134SAPE  C21514496   5.551   3.497   8.677 -1.0213  0.2134 -0.5776
  134SAPE  H15R14497   5.571   3.512   8.570 -0.3546 -1.3481 -0.6861
  134SAPE  C21614498   5.419   3.433   8.702  0.1073 -0.4636 -0.0678
  134SAPE  H16R14499   5.346   3.515   8.719 -1.5899 -1.5417 -1.8927
  134SAPE  H16S14500   5.415   3.369   8.793 -2.2178 -1.0748 -0.5552
  134SAPE  C21714501   5.352   3.353   8.588 -0.5566  0.3352 -0.0760
  134SAPE  H17R14502   5.331   3.430   8.510  0.9018  1.5476  0.7297
  134SAPE  H17S14503   5.259   3.309   8.630  1.1545 -1.4756  1.9105
  134SAPE  C21814504   5.426   3.228   8.536  0.4403 -0.6155 -0.1631
  134SAPE  H18R14505   5.495   3.202   8.619 -0.0776 -1.8343 -0.0993
  134SAPE  H18S14506   5.482   3.242   8.441 -0.1601 -2.8226 -0.8896
  134SAPE  C21914507   5.347   3.105   8.498  0.3040 -0.9690  0.2086
  134SAPE  H19R14508   5.272   3.127   8.419  2.2052  0.7306 -1.1846
  134SAPE  H19S14509   5.287   3.073   8.586 -0.6103 -0.0394 -0.0655
  134SAPE  C22014510   5.442   2.990   8.463  0.6698  0.1624  0.3244
  134SAPE  H20R14511   5.480   2.957   8.562 -1.9241  1.2396  1.7511
  134SAPE  H20S14512   5.524   3.021   8.395  1.8343 -1.1289  1.1471
  134SAPE  H20T14513   5.391   2.905   8.413 -1.3203  1.2490  0.4305
  134SAPE   C3314514   6.083   3.090   9.785  0.0694 -0.7524 -0.2014
  134SAPE   H3X14515   6.135   3.165   9.722 -0.6340 -2.0827 -2.4076
  134SAPE   H3Y14516   5.976   3.111   9.807  0.3464  0.2997  0.1631
  134SAPE   C3414517   6.083   2.958   9.712 -0.1470 -0.0205 -0.0424
  134SAPE   H4X14518   6.013   2.891   9.767 -1.9739  2.0142  0.1677
  134SAPE   H4Y14519   6.184   2.915   9.694  0.2831  0.4658  1.1333
  134SAPE   C3514520   6.005   2.971   9.585  0.1514  0.1778  0.3405
  134SAPE   H5X14521   6.035   3.065   9.533  1.7476  0.8955  2.5079
  134SAPE   H5Y14522   5.897   2.986   9.605 -0.0136 -1.8244  1.0356
  134SAPE   C3614523   6.017   2.846   9.503 -0.0732 -0.2142 -0.1079
  134SAPE   H6X14524   6.014   2.755   9.566  0.1246  0.6273  1.1467
  134SAPE   H6Y14525   6.120   2.837   9.462  1.4133  0.3843  3.3704
  134SAPE   C3714526   5.910   2.835   9.392 -1.2368 -0.0068 -0.4072
  134SAPE   H7X14527   5.917   2.934   9.341  0.9058 -0.4470 -1.0322
  134SAPE   H7Y14528   5.817   2.825   9.451 -0.1822  0.5512  1.4051
  134SAPE   C3814529   5.920   2.715   9.298 -0.4158 -0.0748  0.4836
  134SAPE   H8X14530   5.948   2.624   9.355 -0.0856 -0.8926 -0.9793
  134SAPE   H8Y14531   6.001   2.740   9.226 -0.8619  1.6578  0.5543
  134SAPE   C3914532   5.788   2.680   9.220 -0.1656 -0.2388  0.6055
  134SAPE   H9X14533   5.769   2.767   9.154  1.1390 -0.8580 -0.6028
  134SAPE   H9Y14534   5.699   2.679   9.287  0.5455 -2.3381  1.5617
  134SAPE  C31014535   5.803   2.553   9.136  0.0233 -0.4184  0.4579
  134SAPE  H10X14536   5.823   2.477   9.215 -0.8070  1.1079  2.1815
  134SAPE  H10Y14537   5.896   2.553   9.076  0.3011  0.7031  0.8705
  134SAPE  C31114538   5.674   2.530   9.048 -0.3299 -0.0250 -0.7272
  134SAPE  H11X14539   5.582   2.541   9.109  1.5339 -2.3658  2.6757
  134SAPE  H11Y14540   5.691   2.422   9.029  0.8160 -0.0052  0.1070
  134SAPE  C31214541   5.666   2.625   8.934 -0.5879 -0.2590  1.0719
  134SAPE  H12X14542   5.761   2.613   8.877  0.6084  2.3539  2.4632
  134SAPE  H12Y14543   5.658   2.732   8.960  2.4529  0.7191 -1.6892
  134SAPE  C31314544   5.549   2.587   8.828 -0.0456 -0.0907 -0.3053
  134SAPE  H13X14545   5.458   2.613   8.887 -0.3214 -1.6036 -0.0292
  134SAPE  H13Y14546   5.562   2.479   8.805 -0.6916  0.0362 -1.2757
  134SAPE  C31414547   5.552   2.667   8.693  0.1400  0.7840 -0.4001
  134SAPE  H14X14548   5.659   2.673   8.663  0.1725  0.6876 -0.3011
  134SAPE  H14Y14549   5.519   2.770   8.718  1.6538  1.4644 -1.1107
  134SAPE  C31514550   5.453   2.606   8.594 -0.6090  0.3324  0.0384
  134SAPE  H15X14551   5.472   2.496   8.586 -2.6126  0.0127 -0.6426
  134SAPE  H15Y14552   5.475   2.641   8.491 -0.5906 -1.5047 -0.6091
  134SAPE  C31614553   5.309   2.649   8.624  0.1183  0.3101  0.9481
  134SAPE  H16X14554   5.312   2.760   8.625 -2.2061  0.4735 -2.3491
  134SAPE  H16Y14555   5.269   2.614   8.722 -2.2936 -1.6755 -0.6959
  134SAPE  C31714556   5.216   2.588   8.513 -0.3946 -0.9396 -0.3112
  134SAPE  H17X14557   5.113   2.573   8.552 -0.3598 -0.0948  0.1090
  134SAPE  H17Y14558   5.258   2.493   8.473  0.0370 -1.6375  1.7512
  134SAPE  C31814559   5.214   2.685   8.395 -0.0562  0.4220 -0.0892
  134SAPE  H18X14560   5.170   2.779   8.436  2.0144  0.8252  1.2897
  134SAPE  H18Y14561   5.141   2.643   8.323 -0.2099 -0.9591  0.8596
  134SAPE  H18Z14562   5.314   2.704   8.350  0.0992 -1.5836 -0.6103
  135SAPE     N14563   5.555   1.923  10.425  0.5352 -0.1597 -0.1362
  135SAPE   HN114564   5.648   1.929  10.379  1.1104  0.4061  1.0804
  135SAPE   HN214565   5.508   1.855  10.363  0.1255 -1.8504  1.9659
  135SAPE   HN314566   5.515   2.019  10.418  0.6208 -0.1744 -0.8503
  135SAPE   C1214567   5.552   1.891  10.567 -0.3397  0.0229  0.3131
  135SAPE  H12A14568   5.585   1.983  10.620 -0.5992  0.3616 -0.1098
  135SAPE  H12B14569   5.619   1.802  10.574 -0.0477  0.0618 -1.5606
  135SAPE   C1114570   5.404   1.853  10.593 -0.0781 -0.7474 -0.3703
  135SAPE  H11A14571   5.333   1.936  10.574 -0.0636 -0.1957  1.9217
  135SAPE  H11B14572   5.406   1.828  10.701  0.7677  2.2441  0.3336
  135SAPE     P14573   5.235   1.657  10.563  0.5457  0.2108 -0.1759
  135SAPE   O1314574   5.280   1.549  10.654 -0.7819 -0.3485  0.2825
  135SAPE   O1414575   5.134   1.747  10.621  0.0397 -0.0582  0.1724
  135SAPE   O1214576   5.360   1.741  10.509 -0.5113 -0.1775 -0.6016
  135SAPE   O1114577   5.184   1.598  10.427  1.0210  1.0704 -0.3391
  135SAPE    C114578   5.166   1.694  10.321 -0.2500 -0.0213 -0.6075
  135SAPE    HA14579   5.099   1.778  10.352 -0.8697 -1.1041  1.0655
  135SAPE    HB14580   5.266   1.725  10.286 -0.1618  0.7901  0.3263
  135SAPE    C214581   5.088   1.621  10.210 -0.2747  0.0931  0.5890
  135SAPE    HS14582   5.046   1.528  10.255 -2.4819  0.5337 -0.4696
  135SAPE   O2114583   5.184   1.586  10.105  0.0097  0.2988  0.2098
  135SAPE   C2114584   5.139   1.503  10.011 -0.5573 -0.5958 -1.0809
  135SAPE   O2214585   5.035   1.444  10.012  0.4207 -0.1953 -0.1296
  135SAPE   C2214586   5.242   1.481   9.901  0.1386 -0.3729  0.9290
  135SAPE   H2R14587   5.342   1.510   9.939  0.0429  1.3322 -0.0706
  135SAPE   H2S14588   5.246   1.372   9.876 -1.9717  0.1142 -1.7894
  135SAPE    C314589   4.973   1.704  10.156  0.6441  0.6448  0.6282
  135SAPE    HX14590   4.907   1.722  10.244 -1.3302 -1.3471 -0.4004
  135SAPE    HY14591   4.915   1.650  10.079 -3.5795  0.5021  3.7130
  135SAPE   O3114592   5.007   1.832  10.097  0.2843  0.0228  0.8280
  135SAPE   C3114593   4.920   1.928  10.111  0.6000 -0.5836  0.1309
  135SAPE   O3214594   4.814   1.927  10.170  0.2182 -0.4510 -0.2221
  135SAPE   C3214595   4.969   2.045  10.027 -0.0960 -0.1526 -0.6904
  135SAPE   H2X14596   5.074   2.080  10.027  0.1103 -0.7521  1.0002
  135SAPE   H2Y14597   4.912   2.131  10.068 -0.5357 -1.3152  1.1860
  135SAPE   C2314598   5.219   1.577   9.776  0.3787 -0.1699  0.9688
  135SAPE   H3R14599   5.262   1.679   9.789 -2.7735  1.4378 -0.5303
  135SAPE   H3S14600   5.109   1.572   9.762  0.8174 -1.8908 -2.2813
  135SAPE   C2414601   5.275   1.514   9.648 -0.2033  0.5494  0.4016
  135SAPE   H4R14602   5.371   1.464   9.672 -0.5279  0.7119  2.1139
  135SAPE   H4S14603   5.296   1.603   9.586 -0.1033  0.0901 -0.2203
  135SAPE   C2514604   5.185   1.408   9.582  0.0338  0.5613  0.0807
  135SAPE   H5R14605   5.139   1.334   9.649  2.8842 -0.9330  0.4715
  135SAPE   C2614606   5.144   1.390   9.453  0.0135 -0.0638  0.7940
  135SAPE   H6R14607   5.088   1.298   9.432 -1.0821  1.1257 -1.6453
  135SAPE   C2714608   5.169   1.474   9.336  0.0925 -0.7620 -0.5360
  135SAPE   H7R14609   5.226   1.416   9.261  2.1333  2.2126 -1.3809
  135SAPE   H7S14610   5.233   1.560   9.365 -0.5429 -0.7619  0.9076
  135SAPE   C2814611   5.032   1.517   9.277 -0.8496 -0.1280 -0.4084
  135SAPE   H8R14612   4.971   1.561   9.357  2.0040  2.1823  0.5765
  135SAPE   C2914613   4.989   1.503   9.148 -0.0540 -0.2113  0.6884
  135SAPE   H9R14614   4.893   1.551   9.124 -0.6055 -0.8763  1.5407
  135SAPE  C21014615   5.057   1.432   9.031 -1.0387 -0.2161 -0.4295
  135SAPE  H10R14616   5.148   1.485   8.993 -1.3898 -0.2737 -1.3544
  135SAPE  H10S14617   5.006   1.458   8.936  1.2106  1.5698 -1.2184
  135SAPE  C21114618   5.078   1.285   9.032  0.0101 -0.3707  0.2588
  135SAPE  H11R14619   5.124   1.250   9.125 -0.3116 -1.0073  0.1761
  135SAPE  C21214620   5.033   1.188   8.945  0.2400  0.1402 -0.3420
  135SAPE  H12R14621   5.052   1.080   8.961  0.9092  0.5609  1.9921
  135SAPE  C21314622   4.964   1.229   8.811  0.7042  0.1014  0.1001
  135SAPE  H13R14623   4.893   1.313   8.828 -1.4183 -1.1273 -2.3197
  135SAPE  H13S14624   4.908   1.138   8.781  2.8919 -1.0869 -0.4600
  135SAPE  C21414625   5.059   1.270   8.703 -0.6326 -0.4485  0.0827
  135SAPE  H14R14626   5.157   1.219   8.706 -0.1847  0.2470 -1.8998
  135SAPE  C21514627   5.038   1.371   8.623 -0.7312 -0.4606  0.7009
  135SAPE  H15R14628   5.117   1.392   8.549  0.4619 -1.2655  1.7296
  135SAPE  C21614629   4.908   1.451   8.615  0.2521  0.0946  0.0273
  135SAPE  H16R14630   4.913   1.547   8.671 -1.4781  0.0091  0.3571
  135SAPE  H16S14631   4.817   1.400   8.652  0.8497 -0.0578  1.3157
  135SAPE  C21714632   4.878   1.484   8.471 -0.1286 -0.4220  0.3023
  135SAPE  H17R14633   4.891   1.387   8.417  0.9493 -0.1863  0.1297
  135SAPE  H17S14634   4.938   1.563   8.422 -1.6343  2.1549  2.4891
  135SAPE  C21814635   4.731   1.524   8.450 -0.5860 -0.0082 -0.1520
  135SAPE  H18R14636   4.725   1.613   8.515  1.9682 -0.0507  0.1762
  135SAPE  H18S14637   4.652   1.449   8.473  0.8513 -1.1852  1.0262
  135SAPE  C21914638   4.701   1.562   8.301  0.5598 -0.0386 -0.5126
  135SAPE  H19R14639   4.714   1.473   8.237 -0.9757 -0.0652 -0.8063
  135SAPE  H19S14640   4.773   1.635   8.258  1.6625  0.0567  1.4566
  135SAPE  C22014641   4.555   1.610   8.288 -0.5408 -0.2728  0.1835
  135SAPE  H20R14642   4.514   1.662   8.377  1.1699 -1.5709  1.7579
  135SAPE  H20S14643   4.486   1.525   8.272 -3.8980  2.7815 -2.3834
  135SAPE  H20T14644   4.549   1.674   8.197 -0.9094 -1.0815 -0.3660
  135SAPE   C3314645   4.918   2.039   9.879  0.0310  0.0962 -0.2726
  135SAPE   H3X14646   4.913   2.143   9.841 -1.0128  1.1412  2.5723
  135SAPE   H3Y14647   4.811   2.009   9.878  0.3450 -1.0609 -1.3780
  135SAPE   C3414648   4.992   1.945   9.778 -0.2717 -0.7102  0.6648
  135SAPE   H4X14649   5.007   1.844   9.820  2.2927 -1.3556 -1.6271
  135SAPE   H4Y14650   5.093   1.986   9.759 -0.3511 -0.4457  0.8127
  135SAPE   C3514651   4.915   1.939   9.644  0.3487 -0.3446 -0.3683
  135SAPE   H5X14652   4.904   2.036   9.592 -3.5376  0.0225  0.9849
  135SAPE   H5Y14653   4.811   1.910   9.670  0.4411 -0.5250 -0.2023
  135SAPE   C3614654   4.975   1.833   9.548  0.5259 -0.2518 -0.0392
  135SAPE   H6X14655   4.952   1.739   9.601 -0.4781 -0.8607 -1.5262
  135SAPE   H6Y14656   5.086   1.829   9.550  0.4492 -2.9090  3.7126
  135SAPE   C3714657   4.920   1.847   9.402  0.4455  0.3151 -0.1572
  135SAPE   H7X14658   4.809   1.843   9.408  0.5368 -2.3451  0.1847
  135SAPE   H7Y14659   4.958   1.760   9.345  0.3433 -0.1907  0.5353
  135SAPE   C3814660   4.962   1.978   9.335 -0.6557 -0.5414  0.1166
  135SAPE   H8X14661   5.061   2.023   9.360 -0.6712 -0.2273 -0.3763
  135SAPE   H8Y14662   4.889   2.052   9.372 -1.1384 -0.0327 -1.8212
  135SAPE   C3914663   4.947   1.970   9.178  0.4736  0.6989 -0.0139
  135SAPE   H9X14664   5.018   1.895   9.137  1.3987  1.5039  0.0860
  135SAPE   H9Y14665   4.980   2.066   9.134  1.8138  1.5544  2.7327
  135SAPE  C31014666   4.807   1.932   9.143  0.1989 -1.1845 -0.0444
  135SAPE  H10X14667   4.734   2.002   9.189  0.1071 -0.6298 -1.0127
  135SAPE  H10Y14668   4.783   1.837   9.195 -0.5644 -1.1493 -0.3323
  135SAPE  C31114669   4.789   1.923   8.990  0.3013 -0.2651 -0.4117
  135SAPE  H11X14670   4.855   1.843   8.951 -1.4044 -1.2727 -1.2486
  135SAPE  H11Y14671   4.809   2.020   8.939 -2.3098  1.4387  1.6486
  135SAPE  C31214672   4.647   1.873   8.955  0.3343  0.3247  0.4058
  135SAPE  H12X14673   4.570   1.948   8.984  1.6533  1.0187  2.2053
  135SAPE  H12Y14674   4.627   1.789   9.024  2.2181  0.8078  1.5946
  135SAPE  C31314675   4.633   1.839   8.809  0.0848 -0.1050  0.3173
  135SAPE  H13X14676   4.561   1.757   8.787 -0.9866  0.9283 -0.0100
  135SAPE  H13Y14677   4.730   1.794   8.778 -0.0466 -0.7336  0.7990
  135SAPE  C31414678   4.602   1.945   8.713 -0.4644  0.0500  0.2651
  135SAPE  H14X14679   4.681   2.024   8.713  0.4612 -0.8466 -1.5070
  135SAPE  H14Y14680   4.508   1.993   8.748 -1.2916 -3.0435  2.5361
  135SAPE  C31514681   4.586   1.902   8.565 -0.4199  0.3557 -0.0909
  135SAPE  H15X14682   4.508   1.823   8.557 -1.4565  1.4718 -1.1891
  135SAPE  H15Y14683   4.681   1.848   8.542 -1.4408 -1.1157 -0.9315
  135SAPE  C31614684   4.562   2.018   8.465 -0.0841 -0.2179 -0.3105
  135SAPE  H16X14685   4.641   2.093   8.448 -0.9108  1.0265  1.2203
  135SAPE  H16Y14686   4.468   2.068   8.498  1.2604  1.2235  1.4106
  135SAPE  C31714687   4.535   1.958   8.322 -0.0515 -0.1146 -0.0681
  135SAPE  H17X14688   4.451   1.887   8.326 -1.5608  1.6533  0.2127
  135SAPE  H17Y14689   4.634   1.912   8.302  0.5032  0.3895  1.3861
  135SAPE  C31814690   4.519   2.068   8.220 -0.6038 -0.4185  0.3041
  135SAPE  H18X14691   4.602   2.142   8.228  0.3302 -1.4313  0.1032
  135SAPE  H18Y14692   4.424   2.124   8.222 -0.3501  0.0069  0.5234
  135SAPE  H18Z14693   4.533   2.023   8.119 -3.3638  0.0102 -0.2935
  136SAPE     N14694   1.116   1.317  10.701  0.0834  0.5321 -0.0427
  136SAPE   HN114695   1.204   1.370  10.718  0.3327  0.9834 -2.5277
  136SAPE   HN214696   1.143   1.217  10.711 -0.7408  0.1834 -1.2406
  136SAPE   HN314697   1.081   1.341  10.606  2.5398 -0.4210 -1.2473
  136SAPE   C1214698   1.015   1.345  10.805 -0.0420 -0.0696 -0.0290
  136SAPE  H12A14699   1.012   1.265  10.881  0.7471  0.3418  0.4524
  136SAPE  H12B14700   0.918   1.349  10.752 -0.9024  3.7914  1.6170
  136SAPE   C1114701   1.049   1.475  10.886 -0.3017 -0.3295 -0.3225
  136SAPE  H11A14702   1.148   1.467  10.936 -1.1615 -0.2193  1.4233
  136SAPE  H11B14703   0.975   1.485  10.968 -1.7660  0.3887 -1.7214
  136SAPE     P14704   0.971   1.711  10.824 -0.0480 -0.3606 -0.1811
  136SAPE   O1314705   0.829   1.676  10.836  0.4520 -0.4255 -0.8210
  136SAPE   O1414706   1.028   1.781  10.935 -0.2409  0.2080  0.2875
  136SAPE   O1214707   1.060   1.586  10.790  0.1231 -0.2235  0.3136
  136SAPE   O1114708   0.987   1.787  10.689 -0.2812  0.1345  0.1694
  136SAPE    C114709   1.116   1.799  10.626 -0.3307  0.4593 -0.0661
  136SAPE    HA14710   1.125   1.895  10.571  1.7593 -0.3899 -1.2795
  136SAPE    HB14711   1.194   1.809  10.704 -1.6461  0.2798  1.2785
  136SAPE    C214712   1.143   1.684  10.525 -0.0051  0.0342 -0.1269
  136SAPE    HS14713   1.166   1.585  10.570 -0.8789 -0.2607 -0.3120
  136SAPE   O2114714   1.237   1.730  10.424  0.1396 -0.2830  0.0050
  136SAPE   C2114715   1.366   1.727  10.457  0.7501  0.1623  0.5783
  136SAPE   O2214716   1.407   1.731  10.571 -0.4365  0.2368 -0.1070
  136SAPE   C2214717   1.451   1.701  10.335  0.1591  0.4159 -0.4414
  136SAPE   H2R14718   1.395   1.631  10.270  1.2200 -0.1118 -0.8105
  136SAPE   H2S14719   1.460   1.798  10.280 -0.9785  0.5415 -0.4166
  136SAPE    C314720   1.011   1.638  10.452  0.3793 -0.2751  0.6019
  136SAPE    HX14721   0.967   1.735  10.419 -1.6816 -1.3279  0.2113
  136SAPE    HY14722   0.945   1.592  10.528 -2.3999  0.0995 -1.4871
  136SAPE   O3114723   1.043   1.553  10.339 -0.0609 -0.3360  1.0805
  136SAPE   C3114724   1.038   1.422  10.347  0.1266 -0.6452 -1.0993
  136SAPE   O3214725   1.028   1.355  10.451  0.5824 -0.5057  0.0752
  136SAPE   C3214726   1.036   1.369  10.210 -0.6218 -0.2744  0.4941
  136SAPE   H2X14727   0.928   1.372  10.185 -0.5008 -3.0697 -0.4930
  136SAPE   H2Y14728   1.070   1.263  10.207  1.1573  0.3077 -0.7918
  136SAPE   C2314729   1.596   1.651  10.366  0.2506 -0.2943  0.1558
  136SAPE   H3R14730   1.589   1.551  10.413  2.0070 -0.2036  0.6419
  136SAPE   H3S14731   1.635   1.714  10.449 -0.4852 -0.3734  0.5725
  136SAPE   C2414732   1.691   1.644  10.248 -0.4821 -0.5689 -0.2522
  136SAPE   H4R14733   1.792   1.626  10.292 -1.0532  0.6898  1.6310
  136SAPE   H4S14734   1.695   1.746  10.205  2.2936 -0.3144  0.5064
  136SAPE   C2514735   1.666   1.535  10.146  0.4219 -0.4481  0.1712
  136SAPE   H5R14736   1.690   1.435  10.184 -0.9850 -0.9384 -0.1936
  136SAPE   C2614737   1.608   1.559  10.027 -0.3145 -0.3933 -0.1030
  136SAPE   H6R14738   1.596   1.474   9.959  0.7699 -1.3221  0.8321
  136SAPE   C2714739   1.557   1.687   9.972 -0.8146 -0.6862 -0.4587
  136SAPE   H7R14740   1.531   1.755  10.055  0.6654 -0.0830 -0.4763
  136SAPE   H7S14741   1.462   1.672   9.915 -2.0165 -0.7537  1.5314
  136SAPE   C2814742   1.667   1.747   9.896 -0.0800 -0.2412  0.3009
  136SAPE   H8R14743   1.751   1.773   9.962  0.8488 -0.1097 -0.9167
  136SAPE   C2914744   1.676   1.773   9.766 -0.0139 -0.2427  0.8668
  136SAPE   H9R14745   1.759   1.832   9.724 -1.9751  1.7072 -0.3666
  136SAPE  C21014746   1.567   1.730   9.672 -0.4147  0.4228 -0.0463
  136SAPE  H10R14747   1.486   1.806   9.678 -1.1294 -0.2815 -0.5798
  136SAPE  H10S14748   1.508   1.643   9.710 -0.6420  0.5712 -0.0568
  136SAPE  C21114749   1.611   1.703   9.535  0.8303 -0.3934 -0.0779
  136SAPE  H11R14750   1.692   1.629   9.531  0.0655 -1.1809 -1.2750
  136SAPE  C21214751   1.550   1.742   9.424 -0.2523  0.2962  0.0012
  136SAPE  H12R14752   1.597   1.708   9.330 -0.5381  0.4573 -0.2021
  136SAPE  C21314753   1.419   1.824   9.414 -0.0338  0.2267 -0.4998
  136SAPE  H13R14754   1.385   1.811   9.309 -0.0536 -2.1741 -0.2055
  136SAPE  H13S14755   1.443   1.933   9.423  0.8041 -0.0051  0.1488
  136SAPE  C21414756   1.305   1.770   9.492 -0.5420  0.2563 -0.2900
  136SAPE  H14R14757   1.283   1.663   9.479  0.6067  0.1095 -1.0979
  136SAPE  C21514758   1.221   1.832   9.575 -0.5172 -1.1282  0.1112
  136SAPE  H15R14759   1.145   1.773   9.629 -0.5212 -1.2593 -0.0384
  136SAPE  C21614760   1.240   1.976   9.625  0.1216  0.5369  0.7781
  136SAPE  H16R14761   1.174   2.057   9.588 -0.3747 -0.0438  0.3696
  136SAPE  H16S14762   1.343   2.003   9.592  0.3932 -0.2410  0.9764
  136SAPE  C21714763   1.241   1.990   9.776 -0.2310 -0.4699  0.9052
  136SAPE  H17R14764   1.264   2.097   9.797 -0.7153 -0.0679 -0.5013
  136SAPE  H17S14765   1.319   1.925   9.819  0.2795 -0.7019 -0.3448
  136SAPE  C21814766   1.105   1.969   9.847 -0.4593 -0.3138 -0.0743
  136SAPE  H18R14767   1.070   1.866   9.825  1.3707 -0.3016 -3.3051
  136SAPE  H18S14768   1.031   2.035   9.798  1.6893  0.7990 -1.9249
  136SAPE  C21914769   1.111   1.987  10.004 -0.2642  0.0842 -0.2471
  136SAPE  H19R14770   1.005   1.996  10.038 -0.3063  1.6382 -0.7313
  136SAPE  H19S14771   1.169   2.080  10.020 -1.4140  0.7282  0.2819
  136SAPE  C22014772   1.183   1.866  10.070 -0.9351 -0.0484 -0.2149
  136SAPE  H20R14773   1.199   1.881  10.178  1.7581 -1.1871 -0.4189
  136SAPE  H20S14774   1.286   1.859  10.027 -0.8741  1.4241 -0.3176
  136SAPE  H20T14775   1.135   1.766  10.066  2.6673 -1.8685  0.0545
  136SAPE   C3314776   1.114   1.464  10.113  0.2941  0.3775  0.7325
  136SAPE   H3X14777   1.210   1.506  10.152 -0.9522  2.2143  1.8697
  136SAPE   H3Y14778   1.045   1.546  10.086 -0.4729  0.0128  1.5739
  136SAPE   C3414779   1.152   1.394   9.984 -0.0548  0.0989 -0.3150
  136SAPE   H4X14780   1.062   1.336   9.953 -1.1446 -0.0471  2.8841
  136SAPE   H4Y14781   1.233   1.323  10.011 -1.2355 -1.9622 -2.0042
  136SAPE   C3514782   1.183   1.496   9.877 -0.4939 -0.0721  0.2798
  136SAPE   H5X14783   1.276   1.553   9.900 -1.2911  2.1407 -1.7798
  136SAPE   H5Y14784   1.108   1.576   9.856  1.5987  3.1091  4.1024
  136SAPE   C3614785   1.211   1.423   9.743 -0.0207 -0.2155 -0.2403
  136SAPE   H6X14786   1.284   1.340   9.749 -0.9798 -0.9787  1.5450
  136SAPE   H6Y14787   1.258   1.498   9.677  1.2504  0.7711  1.7263
  136SAPE   C3714788   1.082   1.370   9.683  0.2550  0.0506  0.5470
  136SAPE   H7X14789   1.008   1.453   9.691  0.8820  0.7998 -1.1298
  136SAPE   H7Y14790   1.036   1.280   9.731 -2.2692  1.3697  0.7157
  136SAPE   C3814791   1.094   1.325   9.535 -0.3315  0.3121 -0.5288
  136SAPE   H8X14792   0.995   1.301   9.492  0.8348 -1.5838 -2.3147
  136SAPE   H8Y14793   1.147   1.227   9.528 -0.9389 -0.1047  0.5767
  136SAPE   C3914794   1.159   1.424   9.435  0.4655 -0.1976 -0.6241
  136SAPE   H9X14795   1.269   1.436   9.443  0.4145 -0.3549  0.3643
  136SAPE   H9Y14796   1.121   1.526   9.457 -0.4271 -0.6961  0.1524
  136SAPE  C31014797   1.130   1.372   9.297  0.5255  0.6364  0.6969
  136SAPE  H10X14798   1.024   1.340   9.283  0.3062  2.0392 -1.0060
  136SAPE  H10Y14799   1.199   1.290   9.273 -1.2725 -0.0734 -2.3019
  136SAPE  C31114800   1.139   1.485   9.195  0.4027 -0.1226 -0.3980
  136SAPE  H11X14801   1.242   1.526   9.187 -0.0139  0.9367 -0.5526
  136SAPE  H11Y14802   1.072   1.567   9.230  0.3204 -0.5991  0.5534
  136SAPE  C31214803   1.100   1.439   9.057  1.0693  0.1780  0.8649
  136SAPE  H12X14804   1.008   1.379   9.043  0.4440  1.7093 -2.0171
  136SAPE  H12Y14805   1.169   1.356   9.030 -0.4197 -1.4026  1.8480
  136SAPE  C31314806   1.101   1.549   8.955  0.3415  0.1870 -0.2292
  136SAPE  H13X14807   1.171   1.628   8.989 -1.6077  1.1221  1.7084
  136SAPE  H13Y14808   1.001   1.598   8.952  0.1538 -0.2016 -0.5003
  136SAPE  C31414809   1.154   1.511   8.817 -0.6838  0.2907 -0.1818
  136SAPE  H14X14810   1.067   1.460   8.770 -0.4439 -0.8569  0.6170
  136SAPE  H14Y14811   1.251   1.459   8.827 -0.8853 -0.2175 -0.8699
  136SAPE  C31514812   1.185   1.632   8.731  0.5622 -0.5076 -0.4262
  136SAPE  H15X14813   1.203   1.592   8.629 -3.9982  2.8972 -2.7523
  136SAPE  H15Y14814   1.271   1.687   8.776  1.4485 -1.5461 -0.8224
  136SAPE  C31614815   1.067   1.734   8.721  0.4797  0.3220 -0.9631
  136SAPE  H16X14816   1.036   1.775   8.820 -2.5763  0.7116 -2.0005
  136SAPE  H16Y14817   0.977   1.674   8.693 -1.2365  2.2468  0.2243
  136SAPE  C31714818   1.095   1.844   8.619  0.2294 -0.3101  0.8447
  136SAPE  H17X14819   1.100   1.797   8.518  2.4694  0.9161  0.3502
  136SAPE  H17Y14820   1.199   1.875   8.645  0.1460 -0.0522  0.8686
  136SAPE  C31814821   0.997   1.961   8.633 -0.0231  0.2494  0.3295
  136SAPE  H18X14822   0.987   1.999   8.737 -1.6300 -2.4537  1.2266
  136SAPE  H18Y14823   0.898   1.918   8.604 -0.3136  2.2897 -1.8630
  136SAPE  H18Z14824   1.022   2.042   8.561  2.1367 -1.0808 -0.4766
  137SAPE     N14825   5.521   4.881  11.077  0.0634 -0.2601 -0.4469
  137SAPE   HN114826   5.460   4.808  11.120  0.0942  0.7356  1.3565
  137SAPE   HN214827   5.501   4.971  11.125 -3.1920 -1.0791 -0.1629
  137SAPE   HN314828   5.480   4.903  10.985  0.6313  0.2810 -0.5768
  137SAPE   C1214829   5.665   4.836  11.066  0.5062  0.5113 -0.1515
  137SAPE  H12A14830   5.692   4.791  11.164 -1.6080 -0.2637  0.0911
  137SAPE  H12B14831   5.732   4.924  11.050 -0.5749  1.4468  0.3353
  137SAPE   C1114832   5.686   4.732  10.959 -0.1627  0.7380  1.0851
  137SAPE  H11A14833   5.651   4.755  10.856  0.2441  1.3841  1.0951
  137SAPE  H11B14834   5.624   4.644  10.988 -0.6277  0.4202 -0.7824
  137SAPE     P14835   5.860   4.547  10.914 -0.2576  0.4353  0.2593
  137SAPE   O1314836   5.885   4.458  11.026  0.2199  0.2120 -0.1103
  137SAPE   O1414837   5.762   4.506  10.814  0.4067 -0.6965 -0.0138
  137SAPE   O1214838   5.828   4.690  10.965  0.2003  0.0892  0.0417
  137SAPE   O1114839   5.992   4.555  10.834 -0.3731 -0.3958  0.3928
  137SAPE    C114840   6.050   4.675  10.783  0.3612  0.1873 -0.2486
  137SAPE    HA14841   6.022   4.762  10.845  0.7205  1.3482 -1.6830
  137SAPE    HB14842   6.159   4.653  10.790  0.2405 -0.6185 -0.8604
  137SAPE    C214843   6.025   4.701  10.634 -0.9939 -0.2164  0.1754
  137SAPE    HS14844   6.080   4.788  10.594 -1.6335  0.5408  0.9392
  137SAPE   O2114845   5.884   4.729  10.613  0.7629 -0.2132 -0.1142
  137SAPE   C2114846   5.837   4.843  10.653  0.4623  0.9213 -0.2897
  137SAPE   O2214847   5.904   4.933  10.700 -0.0061 -0.7921 -0.3365
  137SAPE   C2214848   5.692   4.851  10.621 -0.0471  0.6306  0.7006
  137SAPE   H2R14849   5.660   4.746  10.608 -0.6064  0.9343 -0.4164
  137SAPE   H2S14850   5.633   4.893  10.705 -0.8961 -0.8352  0.8377
  137SAPE    C314851   6.066   4.573  10.554  0.3760  0.1717  0.0444
  137SAPE    HX14852   6.011   4.494  10.610 -0.4582  0.4607 -0.3501
  137SAPE    HY14853   6.175   4.556  10.568  0.4139  1.2211  1.1107
  137SAPE   O3114854   6.033   4.583  10.419 -0.2684 -0.3695 -0.1393
  137SAPE   C3114855   5.922   4.526  10.375 -0.6994  0.0456  0.3904
  137SAPE   O3214856   5.862   4.435  10.428 -0.6948  0.6458 -0.3846
  137SAPE   C3214857   5.882   4.587  10.237  0.0058  0.6572 -0.2697
  137SAPE   H2X14858   5.950   4.545  10.160 -0.2340 -0.4439  0.1200
  137SAPE   H2Y14859   5.912   4.694  10.245 -1.0382  1.2642 -3.6485
  137SAPE   C2314860   5.676   4.940  10.495 -0.1860  0.3576 -0.3888
  137SAPE   H3R14861   5.715   4.896  10.401  1.9247  2.0900 -0.3762
  137SAPE   H3S14862   5.749   5.024  10.500  0.2775 -0.1354  1.2877
  137SAPE   C2414863   5.529   4.981  10.467 -0.1428 -0.7354 -0.0943
  137SAPE   H4R14864   5.532   5.048  10.378  0.2143 -0.5598  0.0462
  137SAPE   H4S14865   5.482   5.038  10.551 -0.7124 -1.3200 -0.0167
  137SAPE   C2514866   5.438   4.859  10.464 -0.1637 -0.5201 -0.3696
  137SAPE   H5R14867   5.415   4.803  10.556 -0.2967  4.2547  2.6232
  137SAPE   C2614868   5.372   4.823  10.356 -0.0061 -0.6368 -0.3215
  137SAPE   H6R14869   5.310   4.732  10.352  0.1174 -0.6798 -1.5323
  137SAPE   C2714870   5.373   4.902  10.228 -0.0806 -0.7023 -1.0156
  137SAPE   H7R14871   5.352   4.836  10.141 -0.5705 -2.0007  0.0681
  137SAPE   H7S14872   5.476   4.938  10.205 -0.5048 -0.5275 -2.7407
  137SAPE   C2814873   5.254   5.000  10.220 -0.2701  0.0794  0.4753
  137SAPE   H8R14874   5.205   5.033  10.312  1.3928  2.1464  0.6411
  137SAPE   C2914875   5.209   5.054  10.104  0.1699  0.6159  0.4014
  137SAPE   H9R14876   5.144   5.142  10.119  0.0896  0.8937 -1.4553
  137SAPE  C21014877   5.263   5.033   9.961  0.0817  0.5433 -0.4655
  137SAPE  H10R14878   5.352   4.966   9.962  0.5328  1.1381  0.8247
  137SAPE  H10S14879   5.306   5.128   9.925  0.8946  0.3958  0.0858
  137SAPE  C21114880   5.168   4.981   9.858 -0.9860  0.8067 -0.0524
  137SAPE  H11R14881   5.090   4.911   9.891 -0.4121  0.8509  1.4346
  137SAPE  C21214882   5.166   5.017   9.725 -0.3225 -0.1507 -0.1219
  137SAPE  H12R14883   5.097   4.965   9.657  0.7650 -0.5224 -0.9671
  137SAPE  C21314884   5.267   5.096   9.648  0.4567 -0.2456  0.0664
  137SAPE  H13R14885   5.281   5.185   9.714  1.3089  0.8812 -1.5999
  137SAPE  H13S14886   5.222   5.135   9.554  0.0434 -0.3930  0.2026
  137SAPE  C21414887   5.394   5.029   9.625  0.6246  0.6977  0.1546
  137SAPE  H14R14888   5.424   4.956   9.702  1.1627  0.6280 -0.1183
  137SAPE  C21514889   5.471   5.033   9.511 -0.3445 -0.6231  0.7485
  137SAPE  H15R14890   5.567   4.979   9.507 -1.1523 -1.9715 -1.6750
  137SAPE  C21614891   5.436   5.121   9.382 -0.8989 -0.1782  0.9814
  137SAPE  H16R14892   5.487   5.220   9.382 -0.8431 -0.2059  0.9039
  137SAPE  H16S14893   5.327   5.142   9.375 -0.2866  3.4594  1.2052
  137SAPE  C21714894   5.476   5.049   9.247  0.2745 -0.0888 -0.2494
  137SAPE  H17R14895   5.407   4.962   9.235 -0.7711  0.7080 -0.0671
  137SAPE  H17S14896   5.580   5.011   9.245  0.2477 -0.1843  0.0507
  137SAPE  C21814897   5.448   5.128   9.121 -0.6567 -0.7038 -0.3222
  137SAPE  H18R14898   5.530   5.202   9.118 -0.6547 -0.6197  1.2946
  137SAPE  H18S14899   5.347   5.175   9.122 -0.3328 -0.0193  1.2668
  137SAPE  C21914900   5.452   5.045   8.994 -0.0295  0.0052  0.4318
  137SAPE  H19R14901   5.365   4.976   8.997 -0.0186 -0.1112 -1.3608
  137SAPE  H19S14902   5.550   4.995   8.977 -0.7044 -0.7755 -1.2114
  137SAPE  C22014903   5.445   5.134   8.863 -0.3817 -0.3758 -0.2156
  137SAPE  H20R14904   5.338   5.158   8.846 -0.5085 -0.2420  0.7720
  137SAPE  H20S14905   5.482   5.071   8.779  0.0328 -0.2411 -0.1368
  137SAPE  H20T14906   5.512   5.222   8.870 -0.1907 -0.6046  1.0613
  137SAPE   C3314907   5.740   4.575  10.191  0.6331 -0.2355 -0.2845
  137SAPE   H3X14908   5.670   4.633  10.255 -0.4549 -0.0986 -1.5778
  137SAPE   H3Y14909   5.720   4.466  10.202 -0.0467  0.0140  1.0799
  137SAPE   C3414910   5.719   4.617  10.045  0.1756  0.2437  0.4806
  137SAPE   H4X14911   5.612   4.594  10.025 -0.6469  3.0099  1.3993
  137SAPE   H4Y14912   5.787   4.578   9.967  0.6651  0.8431  0.5971
  137SAPE   C3514913   5.731   4.769  10.024  0.1359 -0.2482  0.0174
  137SAPE   H5X14914   5.833   4.801  10.057 -0.1970 -0.6253  1.4650
  137SAPE   H5Y14915   5.664   4.834  10.084 -0.7047  0.4524 -1.6564
  137SAPE   C3614916   5.729   4.796   9.868 -0.3259  0.1563 -0.0050
  137SAPE   H6X14917   5.699   4.901   9.851 -1.3442 -0.5148 -2.5976
  137SAPE   H6Y14918   5.637   4.749   9.827 -1.1323  0.5705  1.2920
  137SAPE   C3714919   5.859   4.773   9.797  0.8802 -0.0752  0.2703
  137SAPE   H7X14920   5.878   4.663   9.794  1.4301 -0.1270  3.5377
  137SAPE   H7Y14921   5.945   4.817   9.853 -0.2493  1.6085  0.7050
  137SAPE   C3814922   5.853   4.814   9.655  0.2769  0.3306 -0.6263
  137SAPE   H8X14923   5.954   4.842   9.619 -0.0648  1.4774 -0.7015
  137SAPE   H8Y14924   5.802   4.911   9.643 -1.1921 -0.3164  0.2539
  137SAPE   C3914925   5.792   4.711   9.565  0.1918 -0.0358 -0.1406
  137SAPE   H9X14926   5.685   4.689   9.585  0.0740 -1.5810 -2.2911
  137SAPE   H9Y14927   5.851   4.617   9.560 -1.0364 -0.6951 -5.0410
  137SAPE  C31014928   5.804   4.772   9.421 -0.0660 -0.4043 -0.1650
  137SAPE  H10X14929   5.906   4.803   9.390  1.0771 -4.0358 -0.2814
  137SAPE  H10Y14930   5.741   4.861   9.401  0.0582 -0.4594 -0.8072
  137SAPE  C31114931   5.782   4.656   9.311 -0.6730  0.0264 -0.0915
  137SAPE  H11X14932   5.826   4.559   9.342 -0.0277 -0.2456 -1.8412
  137SAPE  H11Y14933   5.821   4.693   9.214  1.7141 -0.4299  0.6804
  137SAPE  C31214934   5.628   4.636   9.300  0.0926  0.1021 -0.1885
  137SAPE  H12X14935   5.589   4.729   9.253 -0.5437 -0.1088 -0.0866
  137SAPE  H12Y14936   5.575   4.634   9.398  2.9490 -2.6553  1.3860
  137SAPE  C31314937   5.598   4.517   9.209  0.0137 -0.2730 -0.2153
  137SAPE  H13X14938   5.584   4.426   9.271 -1.0506 -1.7357 -2.5646
  137SAPE  H13Y14939   5.682   4.494   9.141 -0.6533  1.5345 -1.6830
  137SAPE  C31414940   5.484   4.546   9.118 -0.1636  0.2800 -0.3887
  137SAPE  H14X14941   5.482   4.470   9.037 -0.2027  2.7977 -2.8461
  137SAPE  H14Y14942   5.520   4.639   9.070  1.8658 -1.3277 -2.0708
  137SAPE  C31514943   5.353   4.561   9.186 -0.0751  0.1092 -0.6032
  137SAPE  H15X14944   5.363   4.659   9.237  1.4466  0.0584 -0.7770
  137SAPE  H15Y14945   5.324   4.486   9.263 -0.3072  0.3709 -0.4342
  137SAPE  C31614946   5.228   4.579   9.089 -0.0480 -0.3270 -0.8448
  137SAPE  H16X14947   5.237   4.663   9.017  1.7234  0.5190  0.3124
  137SAPE  H16Y14948   5.147   4.600   9.162  1.9206  0.0112  1.3313
  137SAPE  C31714949   5.195   4.444   9.020  0.0605  0.0061  0.6584
  137SAPE  H17X14950   5.173   4.368   9.098  1.7308 -0.4460  0.7260
  137SAPE  H17Y14951   5.291   4.405   8.978  0.1870  0.6337  0.3564
  137SAPE  C31814952   5.098   4.443   8.901  0.0720  0.0642 -0.1809
  137SAPE  H18X14953   5.106   4.528   8.829 -0.9895  0.0981 -0.2656
  137SAPE  H18Y14954   4.993   4.442   8.935 -0.1386  1.5582 -0.7507
  137SAPE  H18Z14955   5.110   4.356   8.832  0.2504 -0.2885  0.2888
  138SAPE     N14956   3.242   5.839  10.957  0.1596  0.2134 -0.1079
  138SAPE   HN114957   3.219   5.739  10.939 -1.0230  0.0602  2.0659
  138SAPE   HN214958   3.333   5.851  10.909 -0.8760  1.4987 -1.8184
  138SAPE   HN314959   3.255   5.839  11.060 -0.7107  2.5277  0.0401
  138SAPE   C1214960   3.161   5.954  10.890  0.1569  0.1013 -0.2066
  138SAPE  H12A14961   3.226   6.043  10.903  1.5514 -0.8849 -0.2526
  138SAPE  H12B14962   3.070   5.966  10.953 -0.0610 -1.4102 -0.2067
  138SAPE   C1114963   3.118   5.910  10.750  0.1762 -0.2483  0.2293
  138SAPE  H11A14964   3.207   5.892  10.686 -0.0680  0.6218 -0.3686
  138SAPE  H11B14965   3.062   5.995  10.705 -2.2600 -1.2155  1.3238
  138SAPE     P14966   2.887   5.789  10.753  0.2784 -0.0465  0.0280
  138SAPE   O1314967   2.868   5.672  10.843 -0.4370  0.1341 -0.8451
  138SAPE   O1414968   2.838   5.923  10.800 -0.4113  0.2634 -0.1957
  138SAPE   O1214969   3.040   5.793  10.740 -0.2740 -0.5652 -0.2883
  138SAPE   O1114970   2.833   5.748  10.607  0.8465 -0.8079  0.2902
  138SAPE    C114971   2.918   5.686  10.508 -0.6069  0.2324  0.0911
  138SAPE    HA14972   3.006   5.749  10.483 -1.2283  1.5190  1.0962
  138SAPE    HB14973   2.960   5.592  10.550 -0.1752  0.3355 -0.1036
  138SAPE    C214974   2.851   5.670  10.368  0.6007  0.9245  0.9227
  138SAPE    HS14975   2.921   5.710  10.291 -0.0547 -0.6445 -0.5008
  138SAPE   O2114976   2.713   5.715  10.349  0.4956 -0.2038  0.3883
  138SAPE   C2114977   2.705   5.841  10.322  0.1334  0.9894  0.8869
  138SAPE   O2214978   2.800   5.916  10.302 -0.1240  0.2919 -0.2905
  138SAPE   C2214979   2.556   5.891  10.318 -0.3121  0.0272  0.2628
  138SAPE   H2R14980   2.497   5.803  10.287 -0.6965  0.7648 -1.0864
  138SAPE   H2S14981   2.544   5.921  10.425 -0.0582  0.8062  0.0758
  138SAPE    C314982   2.851   5.520  10.343  0.0545  0.0792 -0.1888
  138SAPE    HX14983   2.773   5.464  10.399 -0.0357  2.4530  2.1689
  138SAPE    HY14984   2.949   5.486  10.383  1.0510  1.9088 -1.0011
  138SAPE   O3114985   2.843   5.493  10.199 -0.2219 -0.0426  0.3379
  138SAPE   C3114986   2.717   5.474  10.156  1.0065 -0.2918 -0.0233
  138SAPE   O3214987   2.620   5.458  10.226  0.2383  0.0445 -0.4340
  138SAPE   C3214988   2.719   5.479  10.000  0.5400 -0.1031 -0.1580
  138SAPE   H2X14989   2.769   5.383   9.973 -0.8807 -0.1807 -2.6339
  138SAPE   H2Y14990   2.794   5.556   9.972  1.1689 -0.9547 -0.8271
  138SAPE   C2314991   2.514   6.010  10.229 -0.5721  0.3496 -0.2292
  138SAPE   H3R14992   2.604   6.076  10.233 -2.0422  2.3318  1.5789
  138SAPE   H3S14993   2.430   6.059  10.282 -1.2090  0.0213 -0.9361
  138SAPE   C2414994   2.465   5.967  10.084  0.2125  0.4035  0.5296
  138SAPE   H4R14995   2.440   6.065  10.039 -2.3531 -0.2862  0.3328
  138SAPE   H4S14996   2.371   5.907  10.081  0.6292 -0.2157 -3.5869
  138SAPE   C2514997   2.572   5.896  10.006  0.5508  0.4350 -0.4151
  138SAPE   H5R14998   2.661   5.874  10.066  0.6726  0.5198 -0.5676
  138SAPE   C2614999   2.575   5.862   9.873 -0.4534 -0.0041 -0.6308
  138SAPE   H6R15000   2.659   5.806   9.830  0.4650  0.2989  0.7224
  138SAPE   C2715001   2.474   5.895   9.771  0.1988  0.0993 -0.4443
  138SAPE   H7R15002   2.498   5.878   9.664 -0.2470 -1.3457 -0.3193
  138SAPE   H7S15003   2.451   6.001   9.797 -0.4971 -0.0831 -0.3121
  138SAPE   C2815004   2.348   5.809   9.786  0.7132 -0.4846 -0.6638
  138SAPE   H8R15005   2.331   5.757   9.881 -1.1996 -0.5581 -1.0273
  138SAPE   C2915006   2.254   5.786   9.693 -0.7007  0.7297  0.0193
  138SAPE   H9R15007   2.170   5.720   9.722 -0.4820  0.6728  0.5315
  138SAPE  C21015008   2.248   5.828   9.546  0.6349  0.2635 -0.3671
  138SAPE  H10R15009   2.308   5.922   9.547 -0.7069  1.1394  0.6744
  138SAPE  H10S15010   2.143   5.848   9.516  0.2550  0.8434  1.2916
  138SAPE  C21115011   2.287   5.709   9.467 -0.5689 -0.4419 -0.1263
  138SAPE  H11R15012   2.312   5.614   9.516  3.2577  1.0678  1.0048
  138SAPE  C21215013   2.279   5.716   9.333 -0.3544  0.7495  0.1733
  138SAPE  H12R15014   2.299   5.627   9.272  1.3114 -0.2440  2.0959
  138SAPE  C21315015   2.227   5.833   9.249 -0.4254 -0.2898 -0.0801
  138SAPE  H13R15016   2.158   5.896   9.309 -0.6679  0.7856 -1.4735
  138SAPE  H13S15017   2.170   5.806   9.158 -0.4066  0.9295 -0.4595
  138SAPE  C21415018   2.353   5.911   9.215  0.3084 -0.1829 -0.0273
  138SAPE  H14R15019   2.405   5.960   9.299  0.0148  0.5376 -0.2636
  138SAPE  C21515020   2.391   5.932   9.092  0.1354 -0.0087  0.2712
  138SAPE  H15R15021   2.490   5.977   9.077  0.3422 -1.4739 -3.0397
  138SAPE  C21615022   2.330   5.874   8.958 -0.3886 -0.3031  0.2698
  138SAPE  H16R15023   2.263   5.787   8.975 -2.2670  0.8383 -0.9740
  138SAPE  H16S15024   2.408   5.827   8.895 -1.0494 -2.2327  0.8542
  138SAPE  C21715025   2.249   5.978   8.884 -0.3373  0.2143  0.3419
  138SAPE  H17R15026   2.309   6.060   8.838 -2.2086  0.5570 -1.5740
  138SAPE  H17S15027   2.178   6.032   8.949 -0.9901 -1.0157  0.6512
  138SAPE  C21815028   2.175   5.915   8.767  0.1121 -0.0498  0.2440
  138SAPE  H18R15029   2.103   5.840   8.806  0.8630  0.3785  2.5394
  138SAPE  H18S15030   2.236   5.873   8.685  1.2691 -1.7194  1.9316
  138SAPE  C21915031   2.091   6.026   8.695  0.9572 -0.8335 -0.2742
  138SAPE  H19R15032   2.161   6.105   8.660  1.3289  0.0637  2.3526
  138SAPE  H19S15033   2.022   6.083   8.761  0.0479  0.4721 -2.3146
  138SAPE  C22015034   2.019   5.979   8.574 -0.4446  0.9061 -0.8671
  138SAPE  H20R15035   2.089   5.919   8.513 -1.2717  0.6563 -1.5773
  138SAPE  H20S15036   1.978   6.058   8.508  1.8874  2.3009 -0.7003
  138SAPE  H20T15037   1.940   5.904   8.597  1.1780 -0.9805 -1.3626
  138SAPE   C3315038   2.581   5.502   9.943 -0.0941  0.0928  0.0518
  138SAPE   H3X15039   2.534   5.598   9.973 -2.6054 -0.9416 -0.4504
  138SAPE   H3Y15040   2.503   5.428   9.971  1.1024 -0.9755  0.6238
  138SAPE   C3415041   2.582   5.501   9.785 -0.0436 -0.1198 -0.8676
  138SAPE   H4X15042   2.660   5.574   9.756  1.2371 -0.8197  0.7595
  138SAPE   H4Y15043   2.491   5.538   9.733  0.7112  2.2528 -0.5427
  138SAPE   C3515044   2.608   5.363   9.730  0.4289 -0.8511  0.2657
  138SAPE   H5X15045   2.553   5.289   9.792 -1.3539 -1.3055 -1.7969
  138SAPE   H5Y15046   2.717   5.340   9.733  1.0137  1.7839  1.3738
  138SAPE   C3615047   2.560   5.344   9.585 -0.1260 -0.5154  0.3898
  138SAPE   H6X15048   2.612   5.414   9.516  1.3547 -0.1154  1.9012
  138SAPE   H6Y15049   2.449   5.352   9.584 -0.0451  0.8257  1.2853
  138SAPE   C3715050   2.592   5.207   9.524  0.0444  0.5935  0.4049
  138SAPE   H7X15051   2.533   5.136   9.586 -2.1389  2.6867  0.7715
  138SAPE   H7Y15052   2.701   5.188   9.524  0.3577  2.2158 -1.2832
  138SAPE   C3815053   2.545   5.198   9.373 -0.4266 -0.1910 -0.3614
  138SAPE   H8X15054   2.566   5.096   9.332  0.3537  0.8555 -2.6856
  138SAPE   H8Y15055   2.604   5.266   9.308  1.2930  0.0456  1.4063
  138SAPE   C3915056   2.392   5.206   9.360  0.0143 -0.0636  0.5054
  138SAPE   H9X15057   2.346   5.183   9.458  0.0646 -0.9084  0.3309
  138SAPE   H9Y15058   2.362   5.130   9.285  0.7868 -0.2468  0.3717
  138SAPE  C31015059   2.329   5.332   9.296  0.3430 -0.0492  0.0691
  138SAPE  H10X15060   2.383   5.422   9.333 -3.1520  2.3194 -0.4050
  138SAPE  H10Y15061   2.226   5.329   9.338  1.1814 -2.5905  2.0753
  138SAPE  C31115062   2.318   5.329   9.138  0.0243  0.0423 -0.1542
  138SAPE  H11X15063   2.278   5.426   9.102 -3.6446 -1.3375 -0.0957
  138SAPE  H11Y15064   2.243   5.249   9.116 -1.4510  1.7784 -1.6186
  138SAPE  C31215065   2.456   5.298   9.071  0.2757  0.5472 -0.3909
  138SAPE  H12X15066   2.506   5.202   9.098 -0.9213 -0.0631 -0.2729
  138SAPE  H12Y15067   2.531   5.376   9.092  0.5159  0.3713 -0.5997
  138SAPE  C31315068   2.429   5.287   8.920 -0.0265 -0.0101 -0.3674
  138SAPE  H13X15069   2.401   5.381   8.867  1.0581  0.0193 -0.9026
  138SAPE  H13Y15070   2.338   5.224   8.910 -0.4444  0.1876  2.0719
  138SAPE  C31415071   2.546   5.223   8.842 -0.2110 -0.2090 -1.1008
  138SAPE  H14X15072   2.572   5.120   8.875  1.0684  0.8701  1.3786
  138SAPE  H14Y15073   2.632   5.289   8.865 -0.0314  0.2269 -2.9590
  138SAPE  C31515074   2.528   5.224   8.698  0.3484  0.0703  0.2915
  138SAPE  H15X15075   2.503   5.325   8.659 -1.7813 -1.2982 -2.0759
  138SAPE  H15Y15076   2.438   5.163   8.674 -0.0867  0.9623 -0.3926
  138SAPE  C31615077   2.646   5.152   8.630 -0.1193 -0.6384 -0.3424
  138SAPE  H16X15078   2.646   5.055   8.684 -1.5892  0.5115  1.8070
  138SAPE  H16Y15079   2.731   5.216   8.661 -0.9083  0.3706 -0.2020
  138SAPE  C31715080   2.628   5.130   8.480 -0.0270 -0.8567  0.2170
  138SAPE  H17X15081   2.733   5.121   8.445  0.2027 -0.3435  0.7639
  138SAPE  H17Y15082   2.574   5.222   8.448  2.1614  0.8999  1.3832
  138SAPE  C31815083   2.543   5.011   8.436 -0.1933  0.0479 -0.3121
  138SAPE  H18X15084   2.444   5.026   8.483  0.2727  0.6378  0.4749
  138SAPE  H18Y15085   2.580   4.911   8.466 -1.9365  0.2197  2.5680
  138SAPE  H18Z15086   2.531   5.018   8.325  0.6098  1.1721 -0.3385
  139SAPE     N15087   2.066   4.239  10.676 -0.0865  0.1497 -0.2663
  139SAPE   HN115088   2.131   4.288  10.741  0.5310  0.7683 -1.3251
  139SAPE   HN215089   2.109   4.253  10.582  1.8563  0.5413  0.6428
  139SAPE   HN315090   1.976   4.290  10.684  0.5926  1.1427  1.0745
  139SAPE   C1215091   2.053   4.090  10.709 -1.0354  0.3137 -0.1051
  139SAPE  H12A15092   1.957   4.044  10.676 -1.5785  0.7164  0.8863
  139SAPE  H12B15093   2.053   4.087  10.820  2.2300 -0.0705 -0.0913
  139SAPE   C1115094   2.178   4.017  10.652 -0.2779  0.1637  0.0124
  139SAPE  H11A15095   2.165   4.015  10.542  1.0898 -0.3804 -0.1491
  139SAPE  H11B15096   2.175   3.912  10.687  0.0958  0.4399  0.9121
  139SAPE     P15097   2.431   4.070  10.615  0.4667 -0.2962 -0.0990
  139SAPE   O1315098   2.431   4.182  10.519 -0.5611 -0.2916 -0.0736
  139SAPE   O1415099   2.542   4.060  10.709 -0.1311  0.3515 -0.7177
  139SAPE   O1215100   2.305   4.074  10.705 -0.1638  0.0252 -0.2266
  139SAPE   O1115101   2.411   3.937  10.541  0.2291 -0.1751  0.1136
  139SAPE    C115102   2.517   3.852  10.495 -0.6881 -0.1266  1.0202
  139SAPE    HA15103   2.610   3.913  10.489  0.1530 -0.8972  5.0508
  139SAPE    HB15104   2.531   3.780  10.578  1.7779 -0.8575  0.0164
  139SAPE    C215105   2.477   3.794  10.355 -0.5828 -0.5534  0.5882
  139SAPE    HS15106   2.547   3.715  10.321 -0.0655 -0.6524  1.8516
  139SAPE   O2115107   2.480   3.902  10.255 -0.0130 -0.0272  0.4783
  139SAPE   C2115108   2.497   3.862  10.127 -0.4262 -0.1486 -0.9925
  139SAPE   O2215109   2.551   3.759  10.090  0.0283 -0.6808 -0.4054
  139SAPE   C2215110   2.438   3.965  10.030 -0.4269 -0.8791  0.2041
  139SAPE   H2R15111   2.458   4.067  10.070 -0.9282 -1.3291  1.6370
  139SAPE   H2S15112   2.493   3.949   9.935 -0.4637  0.9664 -0.1528
  139SAPE    C315113   2.335   3.735  10.361  0.6357  0.2841 -0.0637
  139SAPE    HX15114   2.266   3.822  10.365 -2.6338 -2.2734  0.1967
  139SAPE    HY15115   2.327   3.670  10.451  3.9397 -2.1306 -1.4198
  139SAPE   O3115116   2.288   3.671  10.242  0.5997  0.4986  0.0671
  139SAPE   C3115117   2.317   3.539  10.233  0.1417 -0.9938 -0.7957
  139SAPE   O3215118   2.387   3.487  10.317  0.2285 -0.3751 -0.0779
  139SAPE   C3215119   2.242   3.468  10.119 -0.1729  0.4997 -0.5235
  139SAPE   H2X15120   2.141   3.514  10.118 -0.2644  0.3416  1.0047
  139SAPE   H2Y15121   2.234   3.361  10.148 -1.3551  1.4597  2.8902
  139SAPE   C2315122   2.291   3.940  10.002  0.0485  0.2502  0.1601
  139SAPE   H3R15123   2.230   3.952  10.094 -1.5451  1.4174 -1.0315
  139SAPE   H3S15124   2.272   3.837   9.965  0.9543  0.5748 -1.2748
  139SAPE   C2415125   2.227   4.039   9.905 -0.2504 -0.0025  0.4056
  139SAPE   H4R15126   2.128   3.998   9.875  1.1791 -2.9788 -0.3802
  139SAPE   H4S15127   2.290   4.026   9.815 -0.8346 -2.7642  0.3450
  139SAPE   C2515128   2.232   4.181   9.944 -0.5488 -0.1619  0.5887
  139SAPE   H5R15129   2.152   4.217  10.011 -1.3302 -0.5915 -0.1114
  139SAPE   C2615130   2.310   4.274   9.891  0.5357  0.1613 -0.6981
  139SAPE   H6R15131   2.283   4.370   9.938 -1.3590 -0.8545  0.3178
  139SAPE   C2715132   2.410   4.277   9.781 -0.5538 -0.1694 -0.2809
  139SAPE   H7R15133   2.412   4.189   9.713  3.1370 -0.0368 -0.4255
  139SAPE   H7S15134   2.504   4.269   9.840  0.4489  0.3668 -1.7943
  139SAPE   C2815135   2.428   4.409   9.704 -0.2868  0.0500 -0.4479
  139SAPE   H8R15136   2.445   4.500   9.764 -2.0772 -0.1361  0.3783
  139SAPE   C2915137   2.429   4.420   9.568  0.0852  0.5920 -0.3368
  139SAPE   H9R15138   2.427   4.519   9.520  2.2481  1.9190  2.2192
  139SAPE  C21015139   2.398   4.307   9.470 -0.7559  0.2089 -0.7569
  139SAPE  H10R15140   2.387   4.205   9.512  1.7961  0.1519 -0.1407
  139SAPE  H10S15141   2.491   4.291   9.412 -0.6267  1.3459 -0.8714
  139SAPE  C21115142   2.270   4.336   9.390  0.3487 -0.8035  0.5090
  139SAPE  H11R15143   2.180   4.330   9.452  0.3189 -0.2946  0.5149
  139SAPE  C21215144   2.258   4.344   9.252 -0.7941  0.0647  0.0112
  139SAPE  H12R15145   2.163   4.361   9.200 -0.3262 -0.5652 -1.0571
  139SAPE  C21315146   2.368   4.325   9.155 -0.1336  0.4158 -0.0127
  139SAPE  H13R15147   2.435   4.250   9.203 -1.8663 -2.1582 -1.4597
  139SAPE  H13S15148   2.433   4.411   9.130  3.2326 -2.1510 -0.5170
  139SAPE  C21415149   2.329   4.255   9.025 -0.6459  0.1356 -0.3219
  139SAPE  H14R15150   2.374   4.155   9.034 -2.3445 -0.6518 -0.3580
  139SAPE  C21515151   2.256   4.299   8.917  0.2776 -0.0192 -0.8025
  139SAPE  H15R15152   2.244   4.231   8.831 -3.4291  0.0770 -0.4607
  139SAPE  C21615153   2.191   4.430   8.897  0.3174  0.1025  0.3064
  139SAPE  H16R15154   2.239   4.508   8.959 -0.1177 -0.7891  1.8089
  139SAPE  H16S15155   2.083   4.446   8.917  0.5919  4.1067 -1.1131
  139SAPE  C21715156   2.193   4.487   8.749  0.2280  0.0316  0.1988
  139SAPE  H17R15157   2.095   4.535   8.730  0.9939  1.0296 -1.3775
  139SAPE  H17S15158   2.175   4.401   8.681 -0.5907 -1.3329  2.1294
  139SAPE  C21815159   2.313   4.573   8.715 -0.2296  0.1420  0.2894
  139SAPE  H18R15160   2.403   4.509   8.718 -0.3335  0.0206  1.0904
  139SAPE  H18S15161   2.322   4.660   8.784 -0.4941  0.9477 -0.6737
  139SAPE  C21915162   2.311   4.633   8.573  0.2267 -0.0088  0.3742
  139SAPE  H19R15163   2.232   4.711   8.580  2.6749  2.8039 -1.9627
  139SAPE  H19S15164   2.297   4.562   8.489  3.0468  0.9455 -0.9502
  139SAPE  C22015165   2.448   4.689   8.539  0.1852 -0.2371 -0.1077
  139SAPE  H20R15166   2.433   4.730   8.437  1.3390  0.3890 -0.0307
  139SAPE  H20S15167   2.527   4.611   8.537  0.3249 -0.1097  0.4862
  139SAPE  H20T15168   2.486   4.774   8.599  1.7769 -0.8607 -0.2124
  139SAPE   C3315169   2.310   3.486   9.981  0.4080 -0.6982  0.0228
  139SAPE   H3X15170   2.400   3.423   9.970  2.3428  1.6010  2.1427
  139SAPE   H3Y15171   2.334   3.594   9.971  0.1795 -0.7022 -0.6280
  139SAPE   C3415172   2.224   3.449   9.857  0.1747 -0.2606  1.0436
  139SAPE   H4X15173   2.130   3.507   9.864 -0.4859 -1.0570 -0.9670
  139SAPE   H4Y15174   2.204   3.341   9.874 -4.0428  0.6712  2.7963
  139SAPE   C3515175   2.300   3.480   9.725 -0.1012 -0.1713  0.5324
  139SAPE   H5X15176   2.236   3.438   9.644  1.2145  0.3413 -0.7934
  139SAPE   H5Y15177   2.396   3.425   9.733 -1.2596 -1.9386  2.9339
  139SAPE   C3615178   2.316   3.632   9.704 -0.1203 -0.2336 -0.1445
  139SAPE   H6X15179   2.392   3.667   9.777  0.0600 -0.8440 -0.0365
  139SAPE   H6Y15180   2.225   3.691   9.728 -1.4607 -2.0881 -0.5803
  139SAPE   C3715181   2.367   3.666   9.565  0.3816 -0.2400 -0.8123
  139SAPE   H7X15182   2.302   3.624   9.485  1.2649  1.6448 -2.5478
  139SAPE   H7Y15183   2.451   3.599   9.535  0.9357  0.0665  0.0611
  139SAPE   C3815184   2.410   3.816   9.548  0.0463  0.0148  0.0393
  139SAPE   H8X15185   2.503   3.828   9.488 -0.2519 -0.4021 -0.5106
  139SAPE   H8Y15186   2.434   3.857   9.648 -3.0758 -0.0486  0.8626
  139SAPE   C3915187   2.292   3.896   9.483  0.9100  0.2199 -0.0401
  139SAPE   H9X15188   2.323   4.002   9.475 -0.2230  0.5642 -0.0008
  139SAPE   H9Y15189   2.205   3.890   9.553  0.7495 -1.7031 -0.3768
  139SAPE  C31015190   2.267   3.867   9.331  0.4793  0.5996 -0.5383
  139SAPE  H10X15191   2.195   3.782   9.321 -2.5505  3.0770 -0.4158
  139SAPE  H10Y15192   2.356   3.827   9.278 -0.7826  1.6046 -3.5517
  139SAPE  C31115193   2.215   3.984   9.255  0.4692 -0.3839 -0.2753
  139SAPE  H11X15194   2.290   4.065   9.254 -0.5952  0.6293  0.7975
  139SAPE  H11Y15195   2.125   4.023   9.307  1.0879 -1.0112  1.3067
  139SAPE  C31215196   2.177   3.943   9.119  0.1299  0.0094  0.2706
  139SAPE  H12X15197   2.156   4.037   9.063 -0.0549  0.3289  0.8775
  139SAPE  H12Y15198   2.086   3.881   9.129 -0.6887  0.3417 -3.9998
  139SAPE  C31315199   2.286   3.869   9.041 -0.3215  0.0868 -0.2188
  139SAPE  H13X15200   2.296   3.775   9.099  1.6846  1.3683  1.5758
  139SAPE  H13Y15201   2.380   3.928   9.051 -0.5942  0.5754 -0.4755
  139SAPE  C31415202   2.244   3.838   8.895  0.0140 -0.2178 -1.0343
  139SAPE  H14X15203   2.139   3.799   8.892 -0.5489  1.3094 -1.3261
  139SAPE  H14Y15204   2.321   3.767   8.857  0.2402 -0.0081 -0.9639
  139SAPE  C31515205   2.228   3.958   8.805 -0.0824  0.2665 -0.4396
  139SAPE  H15X15206   2.327   4.009   8.813 -0.3912  1.2052 -2.2692
  139SAPE  H15Y15207   2.145   4.024   8.838  1.8111  2.9527 -0.8475
  139SAPE  C31615208   2.208   3.899   8.664 -0.3722 -0.0051  0.6696
  139SAPE  H16X15209   2.290   3.829   8.639 -1.0980 -0.0896 -1.5708
  139SAPE  H16Y15210   2.113   3.852   8.631  0.7520 -0.2090 -2.4326
  139SAPE  C31715211   2.230   4.023   8.564 -0.1102  0.1440 -1.0890
  139SAPE  H17X15212   2.317   4.080   8.602 -0.7245  0.4739 -0.1600
  139SAPE  H17Y15213   2.148   4.098   8.570  0.2410  0.5277 -1.0902
  139SAPE  C31815214   2.260   3.988   8.420  0.0664  0.1261 -0.3780
  139SAPE  H18X15215   2.264   4.081   8.359 -0.4532  0.9470  0.8091
  139SAPE  H18Y15216   2.174   3.933   8.376 -0.1364 -0.6121  0.9189
  139SAPE  H18Z15217   2.342   3.914   8.421 -0.0281  0.0198 -0.4490
  140SAPE     N15218   4.631   0.943  10.985  0.4489 -0.3643 -0.8238
  140SAPE   HN115219   4.582   0.951  10.894 -0.8673 -0.9480 -0.1732
  140SAPE   HN215220   4.569   0.971  11.064  0.2847  0.3329 -1.1947
  140SAPE   HN315221   4.713   1.005  10.969  0.2808  0.4064  1.1042
  140SAPE   C1215222   4.684   0.805  11.012  0.4395  0.6403  0.1532
  140SAPE  H12A15223   4.711   0.752  10.918  0.5583  0.6029  0.2092
  140SAPE  H12B15224   4.605   0.749  11.066 -1.4782  1.8449 -1.3180
  140SAPE   C1115225   4.806   0.822  11.101  0.3728 -0.6579 -0.4417
  140SAPE  H11A15226   4.820   0.722  11.146  2.2091 -0.0665  0.3865
  140SAPE  H11B15227   4.797   0.893  11.187  0.3183 -2.5544  1.1473
  140SAPE     P15228   5.063   0.861  11.094  0.2503  0.5729  0.0988
  140SAPE   O1315229   5.074   0.996  11.153 -0.1694  0.0127  0.0315
  140SAPE   O1415230   5.074   0.746  11.185 -0.3391  0.0165  0.2054
  140SAPE   O1215231   4.920   0.857  11.018 -0.1533  0.2602  0.5573
  140SAPE   O1115232   5.163   0.850  10.972 -0.2647 -0.1934 -0.3632
  140SAPE    C115233   5.161   0.730  10.886  0.3941  0.0452  0.3298
  140SAPE    HA15234   5.254   0.670  10.894  0.8313  0.9004  1.8425
  140SAPE    HB15235   5.072   0.668  10.907 -0.2050  0.2740 -1.4445
  140SAPE    C215236   5.151   0.769  10.734 -0.0516  0.0808 -0.1624
  140SAPE    HS15237   5.124   0.682  10.670  2.1946 -0.6125 -0.1985
  140SAPE   O2115238   5.281   0.808  10.690 -0.1486  0.3319 -0.1015
  140SAPE   C2115239   5.360   0.712  10.652  0.0225  0.6204 -0.7721
  140SAPE   O2215240   5.322   0.593  10.639  0.8730  0.0817 -0.3053
  140SAPE   C2215241   5.498   0.764  10.613 -0.0522  0.3305  0.3881
  140SAPE   H2R15242   5.519   0.859  10.666 -0.7177 -0.7926  2.6983
  140SAPE   H2S15243   5.571   0.690  10.651  1.3333  1.6843  0.3859
  140SAPE    C315244   5.039   0.879  10.714 -0.0451  0.0137  0.8967
  140SAPE    HX15245   5.082   0.974  10.753  1.3121  0.5590 -1.7679
  140SAPE    HY15246   4.945   0.855  10.768  0.1497 -2.5922  0.1447
  140SAPE   O3115247   5.007   0.896  10.574  0.1045  0.1288  0.7300
  140SAPE   C3115248   4.936   1.017  10.564  0.2516  0.3852  0.4001
  140SAPE   O3215249   4.907   1.089  10.659  0.3729  0.2333  0.2301
  140SAPE   C3215250   4.918   1.055  10.414 -0.1874 -0.3118 -0.2056
  140SAPE   H2X15251   5.005   1.118  10.385 -0.4618 -0.4346 -1.2960
  140SAPE   H2Y15252   4.826   1.116  10.422 -0.3007 -0.7183  2.1639
  140SAPE   C2315253   5.520   0.787  10.461 -0.3106  0.5619 -0.1255
  140SAPE   H3R15254   5.455   0.721  10.400  1.1740 -0.3374 -0.7686
  140SAPE   H3S15255   5.624   0.749  10.446 -1.4076 -2.0617 -1.4726
  140SAPE   C2415256   5.508   0.932  10.414 -0.3310  0.6868  0.7532
  140SAPE   H4R15257   5.555   0.947  10.315  1.4135 -1.7152  1.1684
  140SAPE   H4S15258   5.566   1.000  10.480  2.7057  0.8103 -1.9121
  140SAPE   C2515259   5.366   0.981  10.407 -0.0704 -0.2876 -0.1863
  140SAPE   H5R15260   5.310   0.980  10.501 -1.8552  0.4391 -1.1979
  140SAPE   C2615261   5.298   1.015  10.294 -0.2183 -0.2247  0.5970
  140SAPE   H6R15262   5.197   1.059  10.301 -0.4857 -0.6664 -0.3664
  140SAPE   C2715263   5.360   0.997  10.156  0.2628 -0.0218 -0.4751
  140SAPE   H7R15264   5.362   0.889  10.133 -0.6609 -0.0089 -0.6683
  140SAPE   H7S15265   5.463   1.037  10.146  0.1157 -0.0480 -2.2421
  140SAPE   C2815266   5.285   1.070  10.049 -0.6759  0.2128 -0.8268
  140SAPE   H8R15267   5.217   1.154  10.071 -2.3243 -0.9441 -1.3999
  140SAPE   C2915268   5.289   1.049   9.917  0.4052 -0.5073 -0.4849
  140SAPE   H9R15269   5.230   1.118   9.856  3.5362  4.1434  1.4525
  140SAPE  C21015270   5.376   0.947   9.846  0.8271  0.1916 -0.4773
  140SAPE  H10R15271   5.314   0.895   9.770  0.4867  1.1520 -0.8684
  140SAPE  H10S15272   5.408   0.864   9.913 -0.8631 -1.2507 -1.4177
  140SAPE  C21115273   5.498   1.026   9.803 -0.1550 -0.0199  0.3565
  140SAPE  H11R15274   5.554   1.084   9.878  0.1961 -0.9318  0.8064
  140SAPE  C21215275   5.526   1.047   9.673 -0.5933  0.3819  0.1133
  140SAPE  H12R15276   5.609   1.115   9.649  1.1311 -1.2277  1.3151
  140SAPE  C21315277   5.452   0.993   9.548 -0.8277  0.9141 -0.1479
  140SAPE  H13R15278   5.401   0.897   9.571 -0.5349  0.4004 -1.5375
  140SAPE  H13S15279   5.533   0.963   9.478  0.0826 -1.1782  1.7268
  140SAPE  C21415280   5.361   1.086   9.483  0.2732 -0.0710 -0.8835
  140SAPE  H14R15281   5.369   1.189   9.520 -0.1023 -0.1762 -0.5106
  140SAPE  C21515282   5.270   1.059   9.381  0.4169 -0.0971 -0.1572
  140SAPE  H15R15283   5.227   1.152   9.340 -0.7624 -1.6868 -2.6627
  140SAPE  C21615284   5.230   0.937   9.312 -0.7804 -0.4382  0.3192
  140SAPE  H16R15285   5.119   0.934   9.307 -0.7288 -1.6312 -0.3033
  140SAPE  H16S15286   5.258   0.842   9.361  1.6692  0.0940 -0.0222
  140SAPE  C21715287   5.275   0.930   9.169 -0.2189  0.3102 -0.2914
  140SAPE  H17R15288   5.383   0.938   9.144 -0.3090  1.8895 -0.1989
  140SAPE  H17S15289   5.220   1.015   9.124 -2.5472 -0.6031  0.7516
  140SAPE  C21815290   5.225   0.807   9.093 -0.5958 -0.4716  0.4396
  140SAPE  H18R15291   5.115   0.807   9.110 -0.6007  0.6610  0.4587
  140SAPE  H18S15292   5.258   0.710   9.135 -0.8852 -0.3806  0.8928
  140SAPE  C21915293   5.265   0.798   8.943  0.4889  0.2446 -0.2429
  140SAPE  H19R15294   5.217   0.888   8.898  0.3149  1.1108  1.6096
  140SAPE  H19S15295   5.223   0.705   8.900  0.7542  0.7244 -1.5645
  140SAPE  C22015296   5.419   0.810   8.908  0.0237  0.0123  0.2976
  140SAPE  H20R15297   5.448   0.916   8.920 -0.0534 -0.0591  1.1646
  140SAPE  H20S15298   5.437   0.796   8.800  2.0078  1.0732  0.4665
  140SAPE  H20T15299   5.481   0.740   8.969 -0.1713 -0.9765 -0.6283
  140SAPE   C3315300   4.906   0.935  10.310 -0.1182  0.2656 -0.6059
  140SAPE   H3X15301   4.848   0.844  10.336  0.5770  0.1399  0.5513
  140SAPE   H3Y15302   5.010   0.897  10.297  0.0377 -0.1814  1.6731
  140SAPE   C3415303   4.859   0.980  10.170  0.1570  0.2244  0.1623
  140SAPE   H4X15304   4.909   1.078  10.154 -2.9008  2.3291  2.8297
  140SAPE   H4Y15305   4.749   0.995  10.173 -0.1955 -1.7296 -1.7374
  140SAPE   C3515306   4.894   0.875  10.069 -0.4175 -0.7462  0.7340
  140SAPE   H5X15307   4.837   0.786  10.102 -0.4387 -1.0166 -0.0173
  140SAPE   H5Y15308   5.002   0.849  10.070  0.3585  2.3086  1.1598
  140SAPE   C3615309   4.841   0.902   9.929  0.1128  0.2326 -0.1885
  140SAPE   H6X15310   4.730   0.903   9.932  0.1333  0.4884  0.7679
  140SAPE   H6Y15311   4.865   0.809   9.874 -3.5120 -0.3884 -0.8122
  140SAPE   C3715312   4.895   1.022   9.861  0.4048 -0.9769  0.0227
  140SAPE   H7X15313   5.004   1.006   9.845  0.1175 -1.0714 -1.9664
  140SAPE   H7Y15314   4.870   1.112   9.921 -1.3688 -1.7521  0.4850
  140SAPE   C3815315   4.830   1.035   9.725 -0.5540 -0.3526 -0.7446
  140SAPE   H8X15316   4.738   1.097   9.730 -0.8758 -0.8621 -0.3437
  140SAPE   H8Y15317   4.805   0.930   9.697 -2.8882  0.5094 -2.0069
  140SAPE   C3915318   4.919   1.086   9.619  0.0097 -0.1712  0.1320
  140SAPE   H9X15319   5.007   1.022   9.592  1.5629  2.3070 -0.8208
  140SAPE   H9Y15320   4.966   1.178   9.659 -0.9600 -0.3013  1.5815
  140SAPE  C31015321   4.849   1.128   9.489  0.0696  0.3464 -0.4918
  140SAPE  H10X15322   4.911   1.198   9.430 -0.4780 -0.2554 -1.7847
  140SAPE  H10Y15323   4.751   1.177   9.507  0.0846  0.4235 -0.6240
  140SAPE  C31115324   4.828   1.000   9.396  0.7878  0.1954  0.3344
  140SAPE  H11X15325   4.766   0.928   9.455 -2.1474  0.5169 -2.2104
  140SAPE  H11Y15326   4.924   0.946   9.384 -0.1043 -0.9873 -1.5539
  140SAPE  C31215327   4.756   1.022   9.266  1.1580  0.0309 -0.4039
  140SAPE  H12X15328   4.787   1.122   9.227  1.6751  0.3835  0.9131
  140SAPE  H12Y15329   4.646   1.012   9.284  1.7971 -1.4040  3.0987
  140SAPE  C31315330   4.789   0.924   9.166  0.6174 -0.3536 -0.8152
  140SAPE  H13X15331   4.775   0.823   9.208 -0.1862  0.1863  0.2349
  140SAPE  H13Y15332   4.899   0.927   9.152  0.6577  1.1930 -0.2583
  140SAPE  C31415333   4.727   0.947   9.019 -0.5862 -0.5553  1.2039
  140SAPE  H14X15334   4.783   1.033   8.975 -1.2182 -0.7644 -0.0420
  140SAPE  H14Y15335   4.620   0.974   9.022 -0.7627 -0.9304 -0.9141
  140SAPE  C31515336   4.752   0.832   8.932 -0.3467  0.7239 -0.2510
  140SAPE  H15X15337   4.682   0.752   8.965 -0.8548  1.0652 -0.4945
  140SAPE  H15Y15338   4.855   0.798   8.954 -0.8516 -1.1567 -0.6644
  140SAPE  C31615339   4.753   0.856   8.782  0.0027 -0.0916  0.5906
  140SAPE  H16X15340   4.817   0.944   8.762  0.8495 -0.6378  0.8707
  140SAPE  H16Y15341   4.644   0.871   8.766 -0.2099  3.3231  4.2784
  140SAPE  C31715342   4.810   0.746   8.695  0.3876  0.7653  0.7127
  140SAPE  H17X15343   4.913   0.733   8.737  0.2308 -0.0843  0.8473
  140SAPE  H17Y15344   4.821   0.778   8.589  1.3090 -1.8464 -0.0176
  140SAPE  C31815345   4.728   0.619   8.687  0.0966  0.7587 -0.3403
  140SAPE  H18X15346   4.698   0.576   8.785 -0.5378  1.4226 -0.2357
  140SAPE  H18Y15347   4.774   0.530   8.639 -0.6197  0.5227 -0.5974
  140SAPE  H18Z15348   4.637   0.644   8.629 -1.3071  0.3932  1.6525
  141SAPE     N15349   5.101   1.249  11.063  0.3807 -0.2506 -0.6978
  141SAPE   HN115350   5.183   1.295  11.109 -0.5136 -2.3331  3.1706
  141SAPE   HN215351   5.017   1.310  11.059  0.0029 -0.8628 -2.0965
  141SAPE   HN315352   5.084   1.158  11.109 -0.8248 -0.3295 -1.2779
  141SAPE   C1215353   5.134   1.201  10.919 -0.7651 -0.1991  0.1275
  141SAPE  H12A15354   5.141   1.295  10.860 -0.0403 -1.2033 -1.4187
  141SAPE  H12B15355   5.047   1.144  10.882 -1.1249  0.1297  0.4579
  141SAPE   C1115356   5.268   1.126  10.918 -0.1745 -0.7186 -0.6162
  141SAPE  H11A15357   5.277   1.061  10.828  0.0424  1.1229 -1.9676
  141SAPE  H11B15358   5.280   1.065  11.010  1.4822  0.6133  0.0747
  141SAPE     P15359   5.451   1.280  11.031  0.1349 -0.1131  0.1180
  141SAPE   O1315360   5.481   1.415  10.984 -0.1846 -0.4732  0.0512
  141SAPE   O1415361   5.371   1.271  11.156  0.7017  0.3407 -0.4230
  141SAPE   O1215362   5.372   1.219  10.915  0.2839 -0.3005  0.2845
  141SAPE   O1115363   5.584   1.194  11.038 -0.6740 -0.4947  0.2525
  141SAPE    C115364   5.599   1.058  11.004 -0.1527 -0.0993 -0.4838
  141SAPE    HA15365   5.627   1.011  11.101  1.3000  1.0386 -0.3377
  141SAPE    HB15366   5.501   1.013  10.978 -1.7537  2.1808  1.3679
  141SAPE    C215367   5.694   1.027  10.889 -0.1083  0.2996  0.3352
  141SAPE    HS15368   5.798   1.050  10.918 -0.5064  0.9860  1.2468
  141SAPE   O2115369   5.655   1.089  10.767 -0.7155  0.4635  0.0418
  141SAPE   C2115370   5.707   1.207  10.758  0.3764 -0.0941  0.3589
  141SAPE   O2215371   5.790   1.257  10.831 -0.5413  0.4670 -0.1592
  141SAPE   C2215372   5.636   1.282  10.645  0.0946  0.3774  0.1921
  141SAPE   H2R15373   5.537   1.234  10.627  0.1547 -0.2858  1.5498
  141SAPE   H2S15374   5.623   1.386  10.682 -1.0191  0.0205  0.8324
  141SAPE    C315375   5.708   0.875  10.869  0.0656  0.6940  0.2706
  141SAPE    HX15376   5.602   0.842  10.877  1.1559 -3.1229  0.3613
  141SAPE    HY15377   5.770   0.831  10.951  1.2623 -1.7944 -1.8895
  141SAPE   O3115378   5.762   0.831  10.742 -0.2452  0.1353 -0.4062
  141SAPE   C3115379   5.893   0.803  10.748 -0.1890 -0.8111 -0.1059
  141SAPE   O3215380   5.968   0.818  10.845 -0.5367 -0.0617  0.4929
  141SAPE   C3215381   5.932   0.737  10.619  0.4815 -0.4370 -1.2643
  141SAPE   H2X15382   5.929   0.813  10.539  0.7361 -1.4484 -2.2446
  141SAPE   H2Y15383   5.863   0.655  10.591 -1.3281 -0.1254  1.9735
  141SAPE   C2315384   5.714   1.283  10.513  0.4552 -0.6063  0.3859
  141SAPE   H3R15385   5.688   1.190  10.459  2.0940 -2.0501  2.0332
  141SAPE   H3S15386   5.822   1.286  10.539  0.1059 -1.0988  1.9588
  141SAPE   C2415387   5.679   1.411  10.432  1.0383 -0.3403 -0.3752
  141SAPE   H4R15388   5.748   1.401  10.346 -0.4370 -0.6602 -1.5609
  141SAPE   H4S15389   5.691   1.505  10.490  1.2049  0.2461 -1.3605
  141SAPE   C2515390   5.544   1.393  10.374  0.1446 -0.2565  0.2260
  141SAPE   H5R15391   5.473   1.373  10.456  0.1709  0.2229  0.3648
  141SAPE   C2615392   5.495   1.380  10.244  0.1787  0.1558 -0.6865
  141SAPE   H6R15393   5.385   1.371  10.243  0.2190 -0.3567 -1.2274
  141SAPE   C2715394   5.567   1.383  10.110 -0.1192  0.4087  0.2737
  141SAPE   H7R15395   5.481   1.354  10.046  1.7213 -1.7772 -1.3036
  141SAPE   H7S15396   5.637   1.296  10.110 -1.2947 -0.5568  0.9084
  141SAPE   C2815397   5.631   1.511  10.062  0.2572 -0.4233  0.4844
  141SAPE   H8R15398   5.637   1.586  10.142 -1.1952  1.6943 -1.3344
  141SAPE   C2915399   5.661   1.526   9.932 -0.1146  0.9694  0.3618
  141SAPE   H9R15400   5.698   1.625   9.899 -2.0739  1.4921 -0.3444
  141SAPE  C21015401   5.649   1.427   9.820 -0.1957 -0.1801 -0.5302
  141SAPE  H10R15402   5.552   1.427   9.765 -0.8302  0.7380  0.5749
  141SAPE  H10S15403   5.654   1.323   9.858  0.0750 -1.1132 -3.0100
  141SAPE  C21115404   5.768   1.445   9.726 -0.2201  0.2894  0.6850
  141SAPE  H11R15405   5.864   1.432   9.777 -0.8369  2.4153  2.4222
  141SAPE  C21215406   5.772   1.460   9.593 -0.2594 -0.3965 -0.2474
  141SAPE  H12R15407   5.870   1.482   9.549 -0.5211  0.9450 -0.1691
  141SAPE  C21315408   5.649   1.477   9.500 -0.9257  0.3821 -0.0640
  141SAPE  H13R15409   5.557   1.501   9.556  0.5951  2.2086  1.7433
  141SAPE  H13S15410   5.628   1.383   9.445  1.0456 -1.0501  1.5531
  141SAPE  C21415411   5.664   1.589   9.402 -0.2308  0.3226  0.6993
  141SAPE  H14R15412   5.612   1.684   9.424 -0.4852  0.7062 -1.4802
  141SAPE  C21515413   5.728   1.579   9.278  0.4982  0.5762 -0.1089
  141SAPE  H15R15414   5.721   1.668   9.213 -1.0666 -0.6410 -1.6533
  141SAPE  C21615415   5.788   1.454   9.220  0.3139 -0.7771  0.7004
  141SAPE  H16R15416   5.774   1.375   9.297 -2.0133 -0.0586  1.0588
  141SAPE  H16S15417   5.894   1.468   9.190 -0.4579  1.8992 -0.9258
  141SAPE  C21715418   5.711   1.422   9.089 -0.6200  0.5435  0.6756
  141SAPE  H17R15419   5.725   1.322   9.043  0.0388  0.6352  0.6743
  141SAPE  H17S15420   5.746   1.493   9.011  1.6817 -0.3013  0.8936
  141SAPE  C21815421   5.559   1.433   9.091  0.4239  0.2120 -0.1179
  141SAPE  H18R15422   5.535   1.538   9.061  2.5570  0.7543 -0.0036
  141SAPE  H18S15423   5.529   1.431   9.198  2.2353  0.4444  0.4215
  141SAPE  C21915424   5.480   1.337   8.999 -1.2010  0.2394 -0.6557
  141SAPE  H19R15425   5.372   1.353   9.014 -1.1352  0.0637  0.0050
  141SAPE  H19S15426   5.497   1.238   9.047 -1.1251 -0.0950 -1.3597
  141SAPE  C22015427   5.525   1.333   8.852  0.3087  0.8729 -0.2451
  141SAPE  H20R15428   5.553   1.431   8.808  0.7266  0.7900 -0.1662
  141SAPE  H20S15429   5.445   1.289   8.788 -1.4288  1.3336  1.5566
  141SAPE  H20T15430   5.618   1.274   8.847 -0.3798 -0.3417  1.0776
  141SAPE   C3315431   6.074   0.671  10.610  0.8023 -0.7762  0.1612
  141SAPE   H3X15432   6.089   0.597  10.691  1.6052  0.3102  1.0312
  141SAPE   H3Y15433   6.158   0.742  10.628 -0.1177 -0.0979  1.9905
  141SAPE   C3415434   6.107   0.604  10.478 -0.3575  0.2659  0.0855
  141SAPE   H4X15435   6.059   0.504  10.472  0.0717  0.0132  0.7708
  141SAPE   H4Y15436   6.218   0.600  10.466 -0.4473  1.5581 -1.3468
  141SAPE   C3515437   6.053   0.677  10.351  0.0256 -0.0093  0.2846
  141SAPE   H5X15438   6.081   0.784  10.362  0.9739 -0.0399 -1.6580
  141SAPE   H5Y15439   5.945   0.655  10.337 -0.5806  2.1188  1.4077
  141SAPE   C3615440   6.125   0.620  10.226 -0.0333 -0.2891  0.7862
  141SAPE   H6X15441   6.137   0.510  10.241 -2.9486 -0.9766 -1.3747
  141SAPE   H6Y15442   6.230   0.653  10.228  0.0676 -0.3565 -1.4538
  141SAPE   C3715443   6.065   0.648  10.085 -0.5361  0.7151  0.0144
  141SAPE   H7X15444   6.049   0.758  10.087 -2.6170  0.4382  0.1213
  141SAPE   H7Y15445   5.969   0.594  10.068 -0.1072  0.0701 -0.3649
  141SAPE   C3815446   6.169   0.613   9.979 -0.1497  0.2513 -0.8257
  141SAPE   H8X15447   6.182   0.504   9.997 -0.8378  0.7472  2.9878
  141SAPE   H8Y15448   6.260   0.676   9.988  1.0452 -1.7174  1.2297
  141SAPE   C3915449   6.106   0.627   9.842 -0.4096  0.1441  0.3957
  141SAPE   H9X15450   6.059   0.728   9.847 -2.2331 -0.7450  2.1450
  141SAPE   H9Y15451   6.021   0.557   9.824  0.4686 -0.8587  0.0765
  141SAPE  C31015452   6.205   0.613   9.729  0.0793  0.7080  0.2038
  141SAPE  H10X15453   6.261   0.517   9.732 -1.2794 -0.2213 -2.1484
  141SAPE  H10Y15454   6.278   0.692   9.756  1.5385 -0.8823  0.9829
  141SAPE  C31115455   6.141   0.622   9.595 -0.1713 -0.8200 -0.0604
  141SAPE  H11X15456   6.073   0.709   9.586  1.9035  0.9955  1.3608
  141SAPE  H11Y15457   6.068   0.538   9.597  1.8557 -2.6456 -0.2883
  141SAPE  C31215458   6.240   0.608   9.479 -0.6750  0.0427 -0.4699
  141SAPE  H12X15459   6.316   0.529   9.501  0.2418  0.5894 -1.6609
  141SAPE  H12Y15460   6.297   0.703   9.480 -0.5431  0.0009 -2.2896
  141SAPE  C31315461   6.182   0.593   9.337 -0.7599  0.5164 -0.1480
  141SAPE  H13X15462   6.091   0.652   9.314 -0.1261  0.6302 -2.4927
  141SAPE  H13Y15463   6.158   0.486   9.322  1.8211  0.0416 -1.3366
  141SAPE  C31415464   6.298   0.638   9.237  0.3108  0.2797  0.2916
  141SAPE  H14X15465   6.347   0.729   9.278 -2.3114  0.8286  2.3515
  141SAPE  H14Y15466   6.244   0.665   9.143 -2.6052 -1.3388  1.4274
  141SAPE  C31515467   6.412   0.539   9.196 -0.6122 -0.2931 -0.3900
  141SAPE  H15X15468   6.360   0.462   9.136 -0.0452 -0.1217 -1.1123
  141SAPE  H15Y15469   6.451   0.487   9.286 -0.8022 -1.1430 -0.7948
  141SAPE  C31615470   6.526   0.602   9.122 -0.7900 -0.5954 -0.0295
  141SAPE  H16X15471   6.480   0.666   9.044 -1.1713  0.7441  1.2788
  141SAPE  H16Y15472   6.588   0.528   9.067  0.4356  1.0390 -0.8606
  141SAPE  C31715473   6.623   0.705   9.199 -0.0160 -0.0512 -0.1475
  141SAPE  H17X15474   6.554   0.779   9.244  0.3374  1.7900 -2.5504
  141SAPE  H17Y15475   6.686   0.753   9.121  2.0939 -0.5132  1.2293
  141SAPE  C31815476   6.708   0.638   9.307  0.5789 -0.6031  0.2268
  141SAPE  H18X15477   6.768   0.712   9.364  0.3037  1.4962 -2.1184
  141SAPE  H18Y15478   6.763   0.554   9.261 -1.4352 -1.1944 -1.1984
  141SAPE  H18Z15479   6.634   0.592   9.377 -0.3704 -2.1443 -1.7432
  142SAPE     N15480   0.210   1.197  11.009  0.2434  0.5495 -0.3835
  142SAPE   HN115481   0.127   1.214  10.949 -1.1165  1.4060  1.7064
  142SAPE   HN215482   0.212   1.280  11.070  0.6064  0.2237  0.0555
  142SAPE   HN315483   0.295   1.199  10.949  1.3579 -1.1660  1.0676
  142SAPE   C1215484   0.211   1.075  11.095  0.2315  0.0417  0.3003
  142SAPE  H12A15485   0.179   1.118  11.192  2.3398  2.3577  0.0226
  142SAPE  H12B15486   0.316   1.042  11.108  0.6120  1.0986 -0.0846
  142SAPE   C1115487   0.112   0.965  11.050 -0.0389  0.1239 -0.4389
  142SAPE  H11A15488   0.114   0.879  11.121  0.4589  1.1893  0.8521
  142SAPE  H11B15489   0.143   0.946  10.945  1.6327 -0.5050  0.1605
  142SAPE     P15490  -0.142   0.930  11.067 -0.3749  0.0947  0.0082
  142SAPE   O1315491  -0.122   0.855  11.196 -0.0022 -0.8680 -0.1926
  142SAPE   O1415492  -0.271   1.000  11.054 -0.9496 -0.2964 -0.0996
  142SAPE   O1215493  -0.019   1.022  11.050  0.0840 -0.4960 -0.0116
  142SAPE   O1115494  -0.127   0.830  10.948 -0.2007  0.3912  0.6499
  142SAPE    C115495  -0.166   0.882  10.819 -0.3111 -0.0278 -0.4027
  142SAPE    HA15496  -0.268   0.925  10.826 -0.0684  0.6251 -0.8143
  142SAPE    HB15497  -0.096   0.963  10.788 -0.6346  0.0513 -0.9354
  142SAPE    C215498  -0.157   0.780  10.709 -0.3711 -0.4715  0.0304
  142SAPE    HS15499  -0.203   0.835  10.624 -0.7361  1.1299  1.2405
  142SAPE   O2115500  -0.220   0.659  10.747  0.0175 -0.2182 -0.4063
  142SAPE   C2115501  -0.343   0.658  10.700 -0.0418  0.1152 -0.4373
  142SAPE   O2215502  -0.401   0.746  10.637 -0.4308  0.4078 -0.4607
  142SAPE   C2215503  -0.414   0.526  10.721  0.2335  0.5993 -0.2574
  142SAPE   H2R15504  -0.424   0.502  10.829 -1.8478  0.5624 -0.4419
  142SAPE   H2S15505  -0.519   0.542  10.690 -0.1944  1.4092  1.5419
  142SAPE    C315506  -0.004   0.757  10.678  0.0978 -0.3191  0.1384
  142SAPE    HX15507   0.050   0.734  10.772 -2.6867 -3.2859  1.1115
  142SAPE    HY15508   0.047   0.849  10.642  0.1521 -0.6121 -0.5335
  142SAPE   O3115509   0.002   0.653  10.581  0.1574  0.6575  0.7198
  142SAPE   C3115510   0.131   0.623  10.547  0.0664  0.5572 -0.5167
  142SAPE   O3215511   0.228   0.655  10.615  0.1619  0.1205  0.2416
  142SAPE   C3215512   0.128   0.528  10.430  0.0071 -0.4489  0.1057
  142SAPE   H2X15513   0.071   0.575  10.347 -1.4691 -1.9967  0.2249
  142SAPE   H2Y15514   0.071   0.437  10.458 -1.0100  0.8431  2.2622
  142SAPE   C2315515  -0.332   0.417  10.646  0.6599 -0.2618  0.4284
  142SAPE   H3R15516  -0.362   0.316  10.681 -1.0623  0.2159  0.4167
  142SAPE   H3S15517  -0.232   0.430  10.691  0.2741  0.7566  1.0307
  142SAPE   C2415518  -0.349   0.423  10.491 -0.5551 -0.4630  0.1451
  142SAPE   H4R15519  -0.341   0.528  10.454 -0.1704 -0.7421 -0.5820
  142SAPE   H4S15520  -0.445   0.380  10.454  0.0601 -0.8295 -1.0617
  142SAPE   C2515521  -0.228   0.350  10.438 -0.0676 -0.1381  0.8734
  142SAPE   H5R15522  -0.149   0.321  10.508  1.3469 -0.7926 -0.9665
  142SAPE   C2615523  -0.205   0.334  10.305  0.2507  0.2555 -0.8327
  142SAPE   H6R15524  -0.109   0.285  10.281  0.9335  0.3779  1.5492
  142SAPE   C2715525  -0.299   0.398  10.205 -1.4362  0.2357  0.4489
  142SAPE   H7R15526  -0.406   0.402  10.235 -1.1923  0.8543  1.2728
  142SAPE   H7S15527  -0.295   0.329  10.118  0.3623  0.9055 -0.0149
  142SAPE   C2815528  -0.257   0.532  10.147 -0.0487 -0.0836 -0.1823
  142SAPE   H8R15529  -0.287   0.617  10.211 -0.4833 -1.5131  1.5654
  142SAPE   C2915530  -0.195   0.566  10.030 -0.9054  0.4649  0.6162
  142SAPE   H9R15531  -0.175   0.673  10.012  1.2725 -0.3390 -2.2546
  142SAPE  C21015532  -0.143   0.475   9.919 -0.1436 -0.4102 -0.0592
  142SAPE  H10R15533  -0.123   0.372   9.955  0.8676 -0.1073  0.2658
  142SAPE  H10S15534  -0.050   0.528   9.890 -0.2011 -0.4647 -0.3391
  142SAPE  C21115535  -0.252   0.469   9.811 -0.6389 -1.0909 -0.1367
  142SAPE  H11R15536  -0.328   0.548   9.817  2.3679  1.9106 -0.1686
  142SAPE  C21215537  -0.264   0.377   9.707 -0.6570 -0.6441  0.1712
  142SAPE  H12R15538  -0.338   0.398   9.628  0.8094  2.7732 -0.3959
  142SAPE  C21315539  -0.171   0.263   9.671  0.8397  0.2378 -0.6716
  142SAPE  H13R15540  -0.232   0.170   9.678  0.8056  0.2240 -1.1948
  142SAPE  H13S15541  -0.082   0.255   9.737  3.4694  2.3594 -3.8039
  142SAPE  C21415542  -0.096   0.294   9.543 -0.0789 -0.1155 -0.5877
  142SAPE  H14R15543   0.002   0.341   9.553  0.5990 -1.5521 -0.3177
  142SAPE  C21515544  -0.144   0.258   9.423  0.1353 -0.0935  0.0772
  142SAPE  H15R15545  -0.091   0.284   9.330  0.9570 -1.4345  0.1663
  142SAPE  C21615546  -0.271   0.173   9.405 -0.4324 -1.0131 -0.4222
  142SAPE  H16R15547  -0.355   0.206   9.469  1.5193 -2.4545  3.0144
  142SAPE  H16S15548  -0.249   0.069   9.437 -1.0341 -1.5470 -1.7063
  142SAPE  C21715549  -0.314   0.157   9.259  0.0713  0.4995  0.6046
  142SAPE  H17R15550  -0.230   0.107   9.206 -1.8519 -0.3010 -1.8000
  142SAPE  H17S15551  -0.342   0.255   9.216 -1.3395 -0.7122 -1.3580
  142SAPE  C21815552  -0.436   0.066   9.236 -0.3941  0.4075  1.1755
  142SAPE  H18R15553  -0.407  -0.030   9.283  0.3746 -0.1489 -0.4272
  142SAPE  H18S15554  -0.452   0.051   9.127 -1.0029 -0.5392  1.3833
  142SAPE  C21915555  -0.556   0.109   9.318  0.4934  0.1809  0.1397
  142SAPE  H19R15556  -0.582   0.203   9.265 -2.4482  0.0797  1.2658
  142SAPE  H19S15557  -0.536   0.121   9.426 -0.6575 -0.1394  0.4017
  142SAPE  C22015558  -0.672   0.002   9.307 -0.8399 -0.3064 -0.2702
  142SAPE  H20R15559  -0.709   0.000   9.202 -1.6469  0.4197  0.0006
  142SAPE  H20S15560  -0.751   0.041   9.374 -1.1395 -0.5243 -0.4916
  142SAPE  H20T15561  -0.626  -0.094   9.340 -0.4559 -1.0361 -2.7916
  142SAPE   C3315562   0.272   0.503  10.381 -0.2646  0.4175  0.3123
  142SAPE   H3X15563   0.315   0.419  10.438  0.7555  1.5372  1.2007
  142SAPE   H3Y15564   0.339   0.591  10.387  0.5785 -0.0064 -2.0718
  142SAPE   C3415565   0.276   0.455  10.236 -0.5787  0.6123 -0.0873
  142SAPE   H4X15566   0.376   0.409  10.224 -0.7240  0.1256  0.5289
  142SAPE   H4Y15567   0.276   0.533  10.157  0.7372 -0.3942 -1.1042
  142SAPE   C3515568   0.175   0.348  10.182  0.5828 -0.4765  0.2114
  142SAPE   H5X15569   0.073   0.379  10.213  0.8619  1.3080 -0.5787
  142SAPE   H5Y15570   0.178   0.245  10.224 -2.5561 -0.9734 -0.6354
  142SAPE   C3615571   0.173   0.328  10.032 -0.2763  0.3005  0.3821
  142SAPE   H6X15572   0.179   0.428   9.982  2.2529  0.0022  0.0214
  142SAPE   H6Y15573   0.075   0.279  10.010 -0.3850  1.5620 -2.1684
  142SAPE   C3715574   0.291   0.238   9.986  0.1292 -0.5289 -0.4058
  142SAPE   H7X15575   0.285   0.146  10.047 -0.4004 -0.8906 -0.9986
  142SAPE   H7Y15576   0.391   0.283  10.000  0.9863 -2.7663  0.8811
  142SAPE   C3815577   0.281   0.201   9.834 -0.1563 -0.7015  0.8476
  142SAPE   H8X15578   0.182   0.155   9.816 -0.2581 -0.0879 -0.2051
  142SAPE   H8Y15579   0.361   0.125   9.833 -0.5863 -1.1714 -1.7129
  142SAPE   C3915580   0.318   0.308   9.729  0.7411 -0.1867  0.8155
  142SAPE   H9X15581   0.421   0.345   9.749  1.3762 -0.5886 -1.6205
  142SAPE   H9Y15582   0.262   0.402   9.747  0.5117  0.0137 -0.8861
  142SAPE  C31015583   0.300   0.264   9.582  0.1936 -0.3944 -0.8797
  142SAPE  H10X15584   0.199   0.220   9.576 -0.4008  1.0185 -1.3305
  142SAPE  H10Y15585   0.373   0.184   9.554 -0.6873 -1.0454 -1.3196
  142SAPE  C31115586   0.311   0.386   9.488 -0.1055  0.4818 -0.0036
  142SAPE  H11X15587   0.414   0.426   9.502 -0.3393  0.5079  1.8994
  142SAPE  H11Y15588   0.236   0.464   9.516 -0.3868  0.2536 -0.1197
  142SAPE  C31215589   0.281   0.337   9.343  0.3670 -0.2973  0.2504
  142SAPE  H12X15590   0.181   0.289   9.349 -0.8984  2.3759  1.6360
  142SAPE  H12Y15591   0.346   0.250   9.320 -0.8508 -0.4167 -2.8880
  142SAPE  C31315592   0.291   0.441   9.233  0.1692  0.1162  0.1172
  142SAPE  H13X15593   0.344   0.532   9.269  1.3134  0.5750 -2.6196
  142SAPE  H13Y15594   0.185   0.473   9.224 -0.2198 -0.4333  2.2617
  142SAPE  C31415595   0.345   0.393   9.101 -0.5411  0.4230 -0.0061
  142SAPE  H14X15596   0.308   0.292   9.073  0.3446 -0.1586  0.8387
  142SAPE  H14Y15597   0.456   0.387   9.112 -0.2536  0.6464 -2.5357
  142SAPE  C31515598   0.326   0.496   8.991 -0.7173  0.5634 -0.1272
  142SAPE  H15X15599   0.349   0.596   9.034  0.5386  0.0960  0.3031
  142SAPE  H15Y15600   0.217   0.499   8.966 -0.5644 -0.3572 -0.9220
  142SAPE  C31615601   0.399   0.455   8.855  1.0892 -0.4568  0.3283
  142SAPE  H16X15602   0.362   0.352   8.836  1.3186 -0.3349 -0.8602
  142SAPE  H16Y15603   0.509   0.447   8.869  1.0575 -1.5593  0.0147
  142SAPE  C31715604   0.364   0.541   8.732 -0.5729  0.3286  0.5403
  142SAPE  H17X15605   0.378   0.647   8.762  0.5884 -0.0497  1.3584
  142SAPE  H17Y15606   0.258   0.524   8.702 -0.8822 -1.5678  2.5880
  142SAPE  C31815607   0.446   0.501   8.610 -0.9766  0.5433 -0.7105
  142SAPE  H18X15608   0.553   0.508   8.638 -1.1159 -0.2851  0.0599
  142SAPE  H18Y15609   0.416   0.558   8.520 -0.6584  2.3457  0.3035
  142SAPE  H18Z15610   0.421   0.394   8.593 -0.5234  0.1880  0.7451
  143SAPE     N15611   1.957   0.888  11.012  0.3918 -0.0136 -0.1179
  143SAPE   HN115612   2.017   0.929  10.938  0.1886  0.4539 -0.0205
  143SAPE   HN215613   1.871   0.945  11.022  0.9676  0.8703 -0.0995
  143SAPE   HN315614   2.002   0.907  11.104  0.4531  3.3571 -0.7872
  143SAPE   C1215615   1.944   0.741  10.981  0.2658 -0.3292 -0.3048
  143SAPE  H12A15616   2.050   0.709  10.976  0.8356  1.4319  0.1358
  143SAPE  H12B15617   1.893   0.729  10.883  0.3637  0.1638 -0.4202
  143SAPE   C1115618   1.860   0.674  11.096 -0.4562  0.5422  0.2178
  143SAPE  H11A15619   1.917   0.670  11.191 -0.8846  0.8880  0.4912
  143SAPE  H11B15620   1.844   0.567  11.070  0.7739  0.0016  1.5644
  143SAPE     P15621   1.602   0.686  11.050  0.8786 -0.1746 -0.1745
  143SAPE   O1315622   1.569   0.547  11.110  0.1173 -0.3000  0.8547
  143SAPE   O1415623   1.500   0.791  11.070  0.0094 -0.2697 -0.3364
  143SAPE   O1215624   1.734   0.737  11.122 -0.0274  0.3887 -0.2318
  143SAPE   O1115625   1.644   0.680  10.900  0.1450 -0.2665 -0.1484
  143SAPE    C115626   1.545   0.699  10.798 -0.1312  0.0992 -0.0441
  143SAPE    HA15627   1.443   0.665  10.826  0.5189 -0.7383  1.3441
  143SAPE    HB15628   1.534   0.809  10.782  0.0025  0.1587  0.2639
  143SAPE    C215629   1.586   0.621  10.670  0.2623 -0.5503  0.1921
  143SAPE    HS15630   1.671   0.679  10.628 -0.7183  3.5251  3.5413
  143SAPE   O2115631   1.474   0.610  10.577  0.3982 -0.1298  0.1704
  143SAPE   C2115632   1.462   0.704  10.480 -0.6161 -0.7831 -0.2881
  143SAPE   O2215633   1.522   0.809  10.474  0.0968  0.2360 -0.3194
  143SAPE   C2215634   1.356   0.665  10.381 -0.0017 -0.1599  0.2129
  143SAPE   H2R15635   1.393   0.604  10.296 -1.6859  0.7403 -1.1841
  143SAPE   H2S15636   1.269   0.623  10.436 -1.2987  0.4980 -1.3351
  143SAPE    C315637   1.630   0.480  10.711  0.2490  0.4442 -0.0958
  143SAPE    HX15638   1.555   0.440  10.783  1.3644  1.8237  1.8842
  143SAPE    HY15639   1.719   0.493  10.776 -0.1320 -4.3436  1.5689
  143SAPE   O3115640   1.657   0.388  10.604 -1.3941  0.3288  0.1245
  143SAPE   C3115641   1.624   0.262  10.631  0.1941  0.6107 -0.3749
  143SAPE   O3215642   1.583   0.215  10.738 -0.6132 -0.4006 -0.6061
  143SAPE   C3215643   1.657   0.179  10.508 -0.9676  0.4183  0.3094
  143SAPE   H2X15644   1.655   0.073  10.540  0.0019  0.3876  0.2778
  143SAPE   H2Y15645   1.759   0.214  10.484 -1.7449  0.2439 -3.4753
  143SAPE   C2315646   1.284   0.784  10.313 -0.9095  0.2096 -0.3531
  143SAPE   H3R15647   1.348   0.873  10.301  0.9570 -0.9175  0.9940
  143SAPE   H3S15648   1.211   0.827  10.385  0.0986  1.7867 -0.2683
  143SAPE   C2415649   1.219   0.741  10.184 -1.3303 -0.3991 -0.0770
  143SAPE   H4R15650   1.137   0.671  10.213 -1.4103  0.1728  1.1129
  143SAPE   H4S15651   1.300   0.689  10.129 -0.6567 -1.4569  1.8241
  143SAPE   C2515652   1.155   0.860  10.111 -0.5723  0.3967  0.0087
  143SAPE   H5R15653   1.139   0.943  10.182 -0.9977  0.6738 -0.4040
  143SAPE   C2615654   1.103   0.851   9.985 -0.7160 -0.6701 -0.4184
  143SAPE   H6R15655   1.041   0.929   9.937 -2.1914 -0.5624  1.5858
  143SAPE   C2715656   1.106   0.735   9.892  0.0381  0.4570  0.4241
  143SAPE   H7R15657   1.012   0.723   9.834 -0.4852 -0.3002  1.4095
  143SAPE   H7S15658   1.129   0.644   9.951 -1.8776 -1.1496 -1.2470
  143SAPE   C2815659   1.222   0.745   9.799  0.5593  0.2886  0.3371
  143SAPE   H8R15660   1.306   0.676   9.814  0.5150 -0.1316 -1.2042
  143SAPE   C2915661   1.223   0.832   9.691 -0.3517  0.6206 -0.9687
  143SAPE   H9R15662   1.318   0.829   9.635  0.6853  0.6898  0.7534
  143SAPE  C21015663   1.123   0.930   9.636  0.1303  0.2647  0.3340
  143SAPE  H10R15664   1.157   1.033   9.661  3.7273 -0.5404 -0.9664
  143SAPE  H10S15665   1.025   0.912   9.685  0.8497  0.0708  1.7383
  143SAPE  C21115666   1.125   0.901   9.484 -0.7306 -0.1115  0.1922
  143SAPE  H11R15667   1.224   0.909   9.437 -1.4130  0.4552 -1.1422
  143SAPE  C21215668   1.021   0.850   9.417 -0.3356  0.4541 -0.1320
  143SAPE  H12R15669   1.039   0.808   9.316 -0.4509 -1.6479  0.6868
  143SAPE  C21315670   0.881   0.818   9.448 -0.2609  0.1864 -0.7833
  143SAPE  H13R15671   0.812   0.878   9.385 -0.1252  1.1824  0.0083
  143SAPE  H13S15672   0.866   0.860   9.550 -2.8170  2.0512 -1.8828
  143SAPE  C21415673   0.838   0.681   9.460 -0.4848 -0.2947  0.5142
  143SAPE  H14R15674   0.895   0.595   9.425  4.9441  1.5410  4.1258
  143SAPE  C21515675   0.726   0.654   9.526 -0.7423 -0.8511 -0.2235
  143SAPE  H15R15676   0.707   0.547   9.545  0.9242 -0.9275  1.1811
  143SAPE  C21615677   0.625   0.746   9.592  0.8106  0.0464 -0.1638
  143SAPE  H16R15678   0.532   0.715   9.540 -0.7274  0.1470  2.4707
  143SAPE  H16S15679   0.639   0.854   9.567 -0.1255 -0.0976 -1.3457
  143SAPE  C21715680   0.591   0.729   9.742 -0.2300 -0.0815  0.7116
  143SAPE  H17R15681   0.499   0.789   9.757  0.4254  0.9386  0.7363
  143SAPE  H17S15682   0.668   0.765   9.815 -1.6253 -1.5154  2.9632
  143SAPE  C21815683   0.537   0.592   9.790  0.0429  0.0299 -0.8897
  143SAPE  H18R15684   0.616   0.518   9.765 -0.5346 -0.9848  0.2830
  143SAPE  H18S15685   0.450   0.579   9.721 -0.2316 -0.4798 -0.4425
  143SAPE  C21915686   0.487   0.584   9.931  0.0424  0.2786 -1.2098
  143SAPE  H19R15687   0.418   0.498   9.943  1.1024 -0.5695 -1.0847
  143SAPE  H19S15688   0.432   0.672   9.970  1.7837  0.3550  1.1492
  143SAPE  C22015689   0.609   0.554  10.026  0.7385  0.4487  0.4758
  143SAPE  H20R15690   0.653   0.454  10.006  1.1981  0.3500  1.9143
  143SAPE  H20S15691   0.573   0.553  10.132 -0.6795 -1.0711  0.0000
  143SAPE  H20T15692   0.685   0.633  10.009 -0.1166  1.1837  0.0617
  143SAPE   C3315693   1.546   0.205  10.398 -0.2414 -0.8263  0.2994
  143SAPE   H3X15694   1.545   0.316  10.386  3.2865 -0.9300 -1.8083
  143SAPE   H3Y15695   1.444   0.172  10.427 -0.1769 -1.9013 -0.6570
  143SAPE   C3415696   1.583   0.176  10.251 -0.4823 -0.1497 -1.1279
  143SAPE   H4X15697   1.589   0.066  10.235  2.6854 -0.3345  0.9639
  143SAPE   H4Y15698   1.682   0.215  10.221  0.7131 -1.3653  1.1507
  143SAPE   C3515699   1.489   0.234  10.145  0.0336  0.2706 -0.0573
  143SAPE   H5X15700   1.496   0.345  10.145  0.4554  0.2445  0.7667
  143SAPE   H5Y15701   1.386   0.201  10.171  0.4079 -0.3616  0.6276
  143SAPE   C3615702   1.527   0.187  10.005 -0.0790 -0.9361 -0.9197
  143SAPE   H6X15703   1.515   0.077  10.004 -0.7083 -0.9164  1.4792
  143SAPE   H6Y15704   1.634   0.208   9.982 -0.2476 -1.0973 -1.8513
  143SAPE   C3715705   1.431   0.215   9.885 -0.3309 -0.0385  0.5498
  143SAPE   H7X15706   1.431   0.326   9.892 -0.1741  0.0063 -0.0798
  143SAPE   H7Y15707   1.327   0.178   9.892 -0.2433 -0.5734 -0.7661
  143SAPE   C3815708   1.479   0.168   9.750  0.2233 -0.1619 -0.1080
  143SAPE   H8X15709   1.532   0.071   9.752 -0.9159 -0.7921 -0.2427
  143SAPE   H8Y15710   1.549   0.246   9.714  2.1522 -2.2613 -1.0013
  143SAPE   C3915711   1.362   0.131   9.660  0.8072 -0.1723  0.6648
  143SAPE   H9X15712   1.415   0.129   9.563 -1.2032 -0.7662 -0.4527
  143SAPE   H9Y15713   1.294   0.219   9.660 -0.2775 -0.9947  0.4957
  143SAPE  C31015714   1.284   0.006   9.700  0.1953  0.3207 -0.1570
  143SAPE  H10X15715   1.269  -0.012   9.809 -0.1139 -1.5028 -0.4756
  143SAPE  H10Y15716   1.348  -0.080   9.671 -0.2272  0.3708 -1.2500
  143SAPE  C31115717   1.148  -0.003   9.629  0.2533  0.1619  0.4226
  143SAPE  H11X15718   1.082   0.085   9.640 -2.1835 -1.7059  1.1256
  143SAPE  H11Y15719   1.098  -0.093   9.671 -0.9536  1.7590  2.4950
  143SAPE  C31215720   1.162  -0.022   9.478  0.3626 -0.3646 -0.5854
  143SAPE  H12X15721   1.224  -0.113   9.465  1.7399  0.6297 -1.0605
  143SAPE  H12Y15722   1.215   0.061   9.426  1.6455 -1.9584 -1.8707
  143SAPE  C31315723   1.031  -0.059   9.395  0.1764  0.2871  0.3101
  143SAPE  H13X15724   1.050  -0.015   9.295 -0.2193  1.3999  0.7222
  143SAPE  H13Y15725   0.955   0.005   9.443  1.9340  1.8405  1.0820
  143SAPE  C31415726   1.001  -0.208   9.397 -0.5384  0.7165  0.1825
  143SAPE  H14X15727   1.014  -0.227   9.505 -0.4486  0.6750  0.1650
  143SAPE  H14Y15728   1.092  -0.252   9.350 -0.8779  0.1385  0.0718
  143SAPE  C31515729   0.874  -0.255   9.326 -0.2261  0.1123  0.1329
  143SAPE  H15X15730   0.889  -0.253   9.216 -1.6524 -0.2861 -0.0730
  143SAPE  H15Y15731   0.789  -0.190   9.354 -1.0168 -1.8115  2.3496
  143SAPE  C31615732   0.834  -0.396   9.365  0.6610  0.5473  0.5374
  143SAPE  H16X15733   0.798  -0.388   9.470 -1.2793 -1.6626  0.0833
  143SAPE  H16Y15734   0.914  -0.471   9.350  0.2523  0.1272  0.4561
  143SAPE  C31715735   0.707  -0.442   9.289 -0.2826  0.0435 -0.5613
  143SAPE  H17X15736   0.745  -0.433   9.185  1.0113  2.4157  0.0794
  143SAPE  H17Y15737   0.625  -0.367   9.297  2.6807  3.7953 -3.1735
  143SAPE  C31815738   0.642  -0.575   9.302 -0.2780  0.1084  0.1434
  143SAPE  H18X15739   0.621  -0.586   9.411  5.7879  1.3430  1.6128
  143SAPE  H18Y15740   0.705  -0.659   9.266 -1.0805 -0.9641  1.1919
  143SAPE  H18Z15741   0.556  -0.578   9.232  1.3278 -1.2185 -1.8229
  144SAPE     N15742   4.735   5.758  10.866 -0.0795  0.3738  0.1741
  144SAPE   HN115743   4.811   5.707  10.817 -1.6003  0.0337 -1.8959
  144SAPE   HN215744   4.661   5.767  10.793  0.6033 -3.2618 -1.0432
  144SAPE   HN315745   4.777   5.852  10.883  0.2667  0.2421  0.0526
  144SAPE   C1215746   4.708   5.687  10.999  0.8678  0.3779  1.0552
  144SAPE  H12A15747   4.623   5.738  11.051  1.3811  0.1782  2.1088
  144SAPE  H12B15748   4.803   5.702  11.055  1.5579  0.3276 -0.1024
  144SAPE   C1115749   4.678   5.545  10.961  0.1181 -0.7638  0.2254
  144SAPE  H11A15750   4.685   5.486  11.055 -0.3236  0.4071  1.0027
  144SAPE  H11B15751   4.757   5.504  10.894 -1.7501 -3.2412 -0.5364
  144SAPE     P15752   4.443   5.413  10.932  0.0480  0.2329 -0.1246
  144SAPE   O1315753   4.494   5.316  11.030 -1.0247  0.2152  0.5629
  144SAPE   O1415754   4.315   5.485  10.963 -0.8952  0.1448  0.1764
  144SAPE   O1215755   4.551   5.529  10.897  0.1797  0.1641  0.0219
  144SAPE   O1115756   4.433   5.340  10.800 -0.1560 -0.1701  0.2754
  144SAPE    C115757   4.535   5.344  10.697  0.1107 -0.1360 -0.4000
  144SAPE    HA15758   4.634   5.373  10.739  0.7882  0.1461 -2.1397
  144SAPE    HB15759   4.547   5.241  10.658  2.3394  0.3652 -1.0852
  144SAPE    C215760   4.504   5.454  10.587 -0.3987 -0.4685 -0.2522
  144SAPE    HS15761   4.477   5.544  10.646 -1.3307  0.2610 -1.7685
  144SAPE   O2115762   4.388   5.426  10.510  0.6253  0.0882  0.0374
  144SAPE   C2115763   4.389   5.324  10.427 -0.2516  0.4469 -0.1202
  144SAPE   O2215764   4.481   5.249  10.410 -0.5924  0.2504  0.1673
  144SAPE   C2215765   4.252   5.307  10.369 -0.2101 -0.9460 -0.7823
  144SAPE   H2R15766   4.231   5.200  10.391 -1.4116 -0.8791 -1.5586
  144SAPE   H2S15767   4.174   5.364  10.424 -0.5501 -1.5151 -0.6642
  144SAPE    C315768   4.622   5.472  10.489 -0.2554 -0.4597 -0.3180
  144SAPE    HX15769   4.679   5.378  10.472  0.6391 -0.4596  2.3194
  144SAPE    HY15770   4.697   5.534  10.543 -2.0597  0.3988  1.2655
  144SAPE   O3115771   4.580   5.524  10.366 -0.1728  0.5138 -0.1628
  144SAPE   C3115772   4.564   5.658  10.347  0.7350  0.1365  0.4532
  144SAPE   O3215773   4.595   5.738  10.430 -0.1224  0.3397  0.1122
  144SAPE   C3215774   4.487   5.689  10.215 -0.4125 -0.4938  0.3285
  144SAPE   H2X15775   4.463   5.592  10.166 -0.6796  0.6078 -1.7915
  144SAPE   H2Y15776   4.561   5.747  10.155 -0.1556  1.4069  2.4219
  144SAPE   C2315777   4.267   5.340  10.218  0.1818  0.3123 -0.2827
  144SAPE   H3R15778   4.340   5.262  10.186 -1.5747 -2.1242  1.4259
  144SAPE   H3S15779   4.312   5.441  10.207 -0.7825  0.7603 -0.1241
  144SAPE   C2415780   4.139   5.339  10.137 -0.7951 -0.1939  0.0394
  144SAPE   H4R15781   4.082   5.244  10.123 -0.8766  0.0367 -1.2375
  144SAPE   H4S15782   4.170   5.364  10.034 -0.6093 -0.5431  0.0092
  144SAPE   C2515783   4.045   5.451  10.183  0.1158  0.0422  0.0868
  144SAPE   H5R15784   4.094   5.541  10.222 -0.9618  1.3254 -1.4534
  144SAPE   C2615785   3.914   5.446  10.185  0.5824 -0.4512  0.5665
  144SAPE   H6R15786   3.873   5.530  10.243  0.7250  0.2681 -0.3622
  144SAPE   C2715787   3.811   5.341  10.160 -0.8452 -0.7321  0.4853
  144SAPE   H7R15788   3.807   5.263  10.238  1.9886 -1.5579 -0.1533
  144SAPE   H7S15789   3.850   5.283  10.074 -1.6512  0.0566 -0.4284
  144SAPE   C2815790   3.673   5.397  10.134 -0.5419  0.5751 -0.5873
  144SAPE   H8R15791   3.651   5.485  10.197 -1.4782  0.4420 -0.7191
  144SAPE   C2915792   3.581   5.349  10.048 -0.1477  0.3657  0.2416
  144SAPE   H9R15793   3.480   5.393  10.048 -0.1346  0.3943  0.5608
  144SAPE  C21015794   3.607   5.236   9.951  0.1092  0.2598 -0.3432
  144SAPE  H10R15795   3.675   5.162  10.000  1.1554  2.0151  0.8973
  144SAPE  H10S15796   3.643   5.265   9.850  1.0038 -1.3889 -0.5221
  144SAPE  C21115797   3.486   5.148   9.923 -1.2300  0.9184 -1.0345
  144SAPE  H11R15798   3.443   5.091  10.007 -0.8222  0.8106 -0.8982
  144SAPE  C21215799   3.421   5.137   9.807 -0.0371  0.3093 -0.0559
  144SAPE  H12R15800   3.335   5.068   9.806  0.1380  0.0964 -1.0958
  144SAPE  C21315801   3.447   5.208   9.673  0.2269  0.1211  0.4297
  144SAPE  H13R15802   3.461   5.316   9.695 -3.4709  0.8948 -0.6542
  144SAPE  H13S15803   3.354   5.213   9.612  0.9734  0.2142 -0.7149
  144SAPE  C21415804   3.563   5.158   9.583  0.2761 -0.3021  0.2212
  144SAPE  H14R15805   3.603   5.056   9.592 -0.8183 -0.7713 -0.2583
  144SAPE  C21515806   3.611   5.227   9.480  0.1107 -0.2201 -0.4686
  144SAPE  H15R15807   3.690   5.178   9.421 -0.1486 -2.1896  0.7561
  144SAPE  C21615808   3.567   5.368   9.449  0.3732  0.0295 -0.0447
  144SAPE  H16R15809   3.589   5.440   9.531 -0.5444  0.6963 -0.3695
  144SAPE  H16S15810   3.456   5.362   9.438 -0.0278  1.2081  2.7251
  144SAPE  C21715811   3.621   5.407   9.313 -0.3941  0.3502 -0.5177
  144SAPE  H17R15812   3.574   5.334   9.244  2.8359 -2.5875  0.2795
  144SAPE  H17S15813   3.732   5.396   9.314 -0.2789  1.4073  0.1691
  144SAPE  C21815814   3.568   5.547   9.281  0.0052 -0.1373 -0.4395
  144SAPE  H18R15815   3.623   5.631   9.330  0.8268 -0.8856 -0.0729
  144SAPE  H18S15816   3.459   5.544   9.302 -0.3142 -0.8494 -2.1422
  144SAPE  C21915817   3.605   5.583   9.139  0.1901 -0.2643 -1.1130
  144SAPE  H19R15818   3.561   5.681   9.110 -0.5071 -0.0271  0.6827
  144SAPE  H19S15819   3.563   5.500   9.079  1.7955 -0.4869 -1.9466
  144SAPE  C22015820   3.753   5.595   9.112 -1.2199 -0.6412  0.2677
  144SAPE  H20R15821   3.788   5.672   9.184  0.0432 -0.8827 -0.0807
  144SAPE  H20S15822   3.772   5.625   9.007 -0.1609 -1.8943  0.0915
  144SAPE  H20T15823   3.801   5.498   9.134  0.8610  0.4170  0.5366
  144SAPE   C3315824   4.364   5.785  10.219  0.2819 -0.3188 -0.3843
  144SAPE   H3X15825   4.381   5.878  10.278 -3.1202 -0.2568  0.6528
  144SAPE   H3Y15826   4.294   5.737  10.292 -1.4692  0.6701 -1.3605
  144SAPE   C3415827   4.294   5.813  10.093 -0.2438  0.2494  0.3135
  144SAPE   H4X15828   4.362   5.874  10.030 -1.9479  3.0704  1.1053
  144SAPE   H4Y15829   4.206   5.880  10.106 -0.2706  0.1374  0.7177
  144SAPE   C3515830   4.249   5.685  10.013  0.2151 -0.4014  0.0199
  144SAPE   H5X15831   4.156   5.646  10.060  0.0608  2.1248  1.8743
  144SAPE   H5Y15832   4.332   5.612  10.004 -0.9792 -1.9216  0.9764
  144SAPE   C3615833   4.222   5.719   9.865  0.2094 -0.7259 -0.3745
  144SAPE   H6X15834   4.316   5.735   9.808  1.1936  1.7450  1.8511
  144SAPE   H6Y15835   4.156   5.807   9.852 -3.3992 -3.3141 -0.5262
  144SAPE   C3715836   4.141   5.612   9.799  0.2733  0.6076  0.8641
  144SAPE   H7X15837   4.051   5.597   9.862  0.1654  1.9672  1.0508
  144SAPE   H7Y15838   4.184   5.510   9.792 -0.3503  0.4766 -1.6606
  144SAPE   C3815839   4.088   5.654   9.656  0.1114  0.1786  0.3416
  144SAPE   H8X15840   4.184   5.664   9.601 -0.4529  2.7859 -0.2396
  144SAPE   H8Y15841   4.054   5.760   9.647  0.6192  0.2851 -0.3607
  144SAPE   C3915842   4.007   5.558   9.567 -0.2361  0.2552 -0.1538
  144SAPE   H9X15843   3.900   5.549   9.595 -0.0967 -2.0356 -0.2352
  144SAPE   H9Y15844   4.060   5.460   9.566 -0.8728 -0.0884 -0.3633
  144SAPE  C31015845   4.000   5.603   9.422 -0.2404 -0.3480  0.2135
  144SAPE  H10X15846   3.930   5.688   9.406  0.4279 -0.0851 -1.4231
  144SAPE  H10Y15847   3.949   5.521   9.366 -0.9859 -1.2338  2.1421
  144SAPE  C31115848   4.131   5.623   9.357 -0.4929  0.2076 -0.4541
  144SAPE  H11X15849   4.206   5.548   9.391  0.8320  0.2609 -3.0534
  144SAPE  H11Y15850   4.160   5.722   9.397 -2.7082  0.1743  1.3142
  144SAPE  C31215851   4.138   5.618   9.204 -0.3157 -0.0056 -0.0801
  144SAPE  H12X15852   4.059   5.675   9.150  1.0261  2.8132  0.7980
  144SAPE  H12Y15853   4.134   5.510   9.179 -0.5099  0.1863 -0.9114
  144SAPE  C31315854   4.265   5.675   9.143 -0.3994 -0.2812  0.3426
  144SAPE  H13X15855   4.266   5.631   9.041 -0.7975  1.2133 -0.3204
  144SAPE  H13Y15856   4.359   5.641   9.192 -1.0464  0.6416  2.2604
  144SAPE  C31415857   4.272   5.834   9.135  0.1483 -0.3976  0.1803
  144SAPE  H14X15858   4.270   5.864   9.242 -1.2571 -0.7162  0.2564
  144SAPE  H14Y15859   4.188   5.878   9.076  0.9176 -0.8943 -1.3180
  144SAPE  C31515860   4.398   5.883   9.060  0.0796  0.3443 -0.1048
  144SAPE  H15X15861   4.467   5.796   9.048 -1.3150 -0.5686 -1.8254
  144SAPE  H15Y15862   4.452   5.959   9.120  0.3538  0.9114 -1.0608
  144SAPE  C31615863   4.369   5.934   8.920 -0.6452 -0.1966  0.0983
  144SAPE  H16X15864   4.297   6.017   8.937  0.0188  0.5256 -0.5731
  144SAPE  H16Y15865   4.329   5.867   8.841  0.8690  0.4283 -1.2276
  144SAPE  C31715866   4.499   5.999   8.862 -0.5941  1.0385  0.5794
  144SAPE  H17X15867   4.580   5.924   8.860 -0.0690  1.5436  1.9453
  144SAPE  H17Y15868   4.533   6.075   8.936  0.7083  0.8238  0.2003
  144SAPE  C31815869   4.479   6.055   8.721 -0.4763 -0.2594  0.3526
  144SAPE  H18X15870   4.567   6.107   8.679 -1.8155  1.4532 -0.4205
  144SAPE  H18Y15871   4.404   6.137   8.725  0.2288  0.3849  0.3976
  144SAPE  H18Z15872   4.448   5.979   8.646  2.9272 -0.0744 -1.3247
  145SAPE     N15873   1.507   0.073  11.006 -0.6781 -0.1780 -0.7191
  145SAPE   HN115874   1.527   0.037  11.102 -3.0663  0.2925 -0.0015
  145SAPE   HN215875   1.552   0.017  10.931 -1.5812 -0.9261 -0.7049
  145SAPE   HN315876   1.549   0.168  10.999 -1.1661  0.1611  0.8282
  145SAPE   C1215877   1.365   0.086  10.972 -0.8838  0.0935  0.3902
  145SAPE  H12A15878   1.353   0.134  10.873 -2.2486  1.0611  1.0162
  145SAPE  H12B15879   1.316   0.140  11.056 -0.4929 -0.5068  1.0142
  145SAPE   C1115880   1.284  -0.049  10.965 -0.2502 -0.3747  0.2242
  145SAPE  H11A15881   1.316  -0.101  10.872 -0.1271 -2.0711  1.1956
  145SAPE  H11B15882   1.175  -0.031  10.957 -0.3967 -1.1800  0.3010
  145SAPE     P15883   1.198  -0.170  11.185 -0.1917 -0.1071 -0.0660
  145SAPE   O1315884   1.251  -0.266  11.283  0.7943 -0.2671 -0.5193
  145SAPE   O1415885   1.142  -0.045  11.240  0.0403  0.0297  0.9525
  145SAPE   O1215886   1.312  -0.130  11.082  0.7485 -0.1277 -0.1149
  145SAPE   O1115887   1.093  -0.245  11.089 -0.4890 -0.4689  0.7500
  145SAPE    C115888   1.120  -0.379  11.051 -0.7743  0.0220  0.4766
  145SAPE    HA15889   1.214  -0.416  11.097 -1.2921 -0.6205  1.0275
  145SAPE    HB15890   1.037  -0.443  11.089 -0.2009 -1.7864 -1.2056
  145SAPE    C215891   1.132  -0.390  10.891  0.3386  0.2869 -0.3952
  145SAPE    HS15892   1.237  -0.359  10.873  0.8918 -0.7613  0.9389
  145SAPE   O2115893   1.031  -0.317  10.815 -0.2346 -0.5520 -0.0747
  145SAPE   C2115894   1.087  -0.238  10.727  0.3294  0.6672  0.1781
  145SAPE   O2215895   1.204  -0.205  10.719 -0.1866 -0.5543  0.3735
  145SAPE   C2215896   0.992  -0.201  10.617  0.1380 -0.7556  0.4122
  145SAPE   H2R15897   0.893  -0.187  10.664 -0.6265 -0.9946 -1.1123
  145SAPE   H2S15898   1.035  -0.108  10.573  0.6963 -1.4461 -0.5333
  145SAPE    C315899   1.125  -0.535  10.847  0.4312 -0.2614 -0.2603
  145SAPE    HX15900   1.026  -0.583  10.862 -0.1026  0.5744 -1.0531
  145SAPE    HY15901   1.204  -0.576  10.913 -0.8550  1.5137  2.5081
  145SAPE   O3115902   1.163  -0.535  10.707  0.3888 -0.3188 -0.1033
  145SAPE   C3115903   1.246  -0.638  10.677 -0.3746 -0.1869  0.3182
  145SAPE   O3215904   1.271  -0.729  10.751 -0.3535 -0.2941  0.0232
  145SAPE   C3215905   1.290  -0.632  10.532  0.0631  0.7806  0.9029
  145SAPE   H2X15906   1.376  -0.562  10.535 -0.3526  1.2604  1.9463
  145SAPE   H2Y15907   1.207  -0.578  10.482 -0.3989  0.0435  0.8596
  145SAPE   C2315908   0.995  -0.303  10.497  0.6594 -0.5398 -0.0961
  145SAPE   H3R15909   0.954  -0.396  10.542 -0.4289 -0.0285  0.0108
  145SAPE   H3S15910   1.098  -0.321  10.462  0.8809 -1.1091  0.8369
  145SAPE   C2415911   0.908  -0.263  10.373  0.2559  0.0944 -0.2395
  145SAPE   H4R15912   0.921  -0.339  10.293 -1.6355 -1.1141  0.5863
  145SAPE   H4S15913   0.950  -0.168  10.333  2.5487 -0.9092 -0.2924
  145SAPE   C2515914   0.768  -0.247  10.420  0.0327  0.2952  0.2745
  145SAPE   H5R15915   0.751  -0.180  10.506  3.5692  1.4311  0.1771
  145SAPE   C2615916   0.664  -0.321  10.367 -0.6691  0.0193  0.3605
  145SAPE   H6R15917   0.564  -0.308  10.411 -1.9544 -1.1917 -2.0863
  145SAPE   C2715918   0.663  -0.422  10.261  0.0740 -1.1859  0.7550
  145SAPE   H7R15919   0.574  -0.488  10.266  0.3521 -1.5390  1.0431
  145SAPE   H7S15920   0.746  -0.491  10.289  0.6456 -0.0518  1.8701
  145SAPE   C2815921   0.680  -0.363  10.123  0.3638  0.5919  0.4891
  145SAPE   H8R15922   0.780  -0.333  10.089  0.6924 -0.2306  0.7076
  145SAPE   C2915923   0.571  -0.348  10.043 -0.2864  0.2814  0.1520
  145SAPE   H9R15924   0.589  -0.292   9.950 -0.1760 -0.5787 -0.3413
  145SAPE  C21015925   0.428  -0.388  10.066 -0.0777 -0.3003 -0.1412
  145SAPE  H10R15926   0.394  -0.392  10.172 -0.7378 -1.7256 -0.3904
  145SAPE  H10S15927   0.407  -0.493  10.038 -3.7774  0.5201 -0.7358
  145SAPE  C21115928   0.336  -0.292  10.001  0.4795  0.2359 -0.3691
  145SAPE  H11R15929   0.309  -0.211  10.070  4.0437  0.3630  0.9963
  145SAPE  C21215930   0.289  -0.299   9.878 -0.1917 -1.0513 -0.5271
  145SAPE  H12R15931   0.237  -0.210   9.839  1.6512  0.5464  0.5405
  145SAPE  C21315932   0.315  -0.406   9.776  0.6219  0.2962  0.4402
  145SAPE  H13R15933   0.239  -0.415   9.696  1.5262 -0.6715 -0.3305
  145SAPE  H13S15934   0.309  -0.509   9.819 -0.7948  0.7058  1.2499
  145SAPE  C21415935   0.443  -0.383   9.696  0.0625 -0.1878  0.0897
  145SAPE  H14R15936   0.526  -0.435   9.746 -0.0020 -0.1572  0.2281
  145SAPE  C21515937   0.462  -0.307   9.581  1.2846  0.6286 -0.2011
  145SAPE  H15R15938   0.562  -0.296   9.537  1.4428  0.9145  0.2241
  145SAPE  C21615939   0.355  -0.228   9.509 -0.4283  0.0511  0.6449
  145SAPE  H16R15940   0.398  -0.126   9.500  0.7714 -0.4024  1.0579
  145SAPE  H16S15941   0.271  -0.205   9.578  0.2375  0.2458  1.4037
  145SAPE  C21715942   0.333  -0.276   9.366  0.1315  0.9464  0.2416
  145SAPE  H17R15943   0.340  -0.387   9.367 -0.6570  0.9063  1.6194
  145SAPE  H17S15944   0.420  -0.246   9.303 -0.4661  0.6806 -0.7277
  145SAPE  C21815945   0.195  -0.235   9.303 -1.0627 -0.1372  0.3307
  145SAPE  H18R15946   0.125  -0.315   9.332  2.5413 -2.8437  1.9310
  145SAPE  H18S15947   0.192  -0.240   9.192  3.0535  1.1914  0.0852
  145SAPE  C21915948   0.143  -0.101   9.359  0.3567  1.1556 -0.2346
  145SAPE  H19R15949   0.209  -0.016   9.334  1.1709  0.6511  0.1911
  145SAPE  H19S15950   0.141  -0.100   9.470 -1.1112 -2.0061 -0.1571
  145SAPE  C22015951   0.005  -0.066   9.290  0.1845 -0.2257  0.5698
  145SAPE  H20R15952  -0.038   0.032   9.320  0.0999 -0.1036  0.0657
  145SAPE  H20S15953  -0.070  -0.145   9.311  0.9709 -0.2386  3.4487
  145SAPE  H20T15954   0.018  -0.064   9.179  0.7353  2.0032  0.6507
  145SAPE   C3315955   1.326  -0.766  10.465  0.3327 -0.2008 -0.1905
  145SAPE   H3X15956   1.243  -0.835  10.444  1.7304 -1.4649 -1.6740
  145SAPE   H3Y15957   1.411  -0.805  10.526  1.1271  0.7071 -0.6868
  145SAPE   C3415958   1.390  -0.740  10.322  0.5174 -0.2261  0.1426
  145SAPE   H4X15959   1.476  -0.670  10.329 -0.4718  0.9850  0.5578
  145SAPE   H4Y15960   1.305  -0.688  10.271 -0.7073  0.0570  2.4217
  145SAPE   C3515961   1.442  -0.867  10.256  0.1087  0.4532 -0.3165
  145SAPE   H5X15962   1.372  -0.952  10.273  0.0311  0.8318  1.3107
  145SAPE   H5Y15963   1.525  -0.909  10.317  0.7643 -0.1762 -1.6200
  145SAPE   C3615964   1.500  -0.869  10.111 -0.1842 -0.2462  0.3812
  145SAPE   H6X15965   1.535  -0.973  10.092 -2.6694 -1.0285 -0.0191
  145SAPE   H6Y15966   1.586  -0.798  10.104 -0.1813  0.0856  3.2511
  145SAPE   C3715967   1.405  -0.821  10.000  0.0417 -0.1350 -0.0167
  145SAPE   H7X15968   1.379  -0.714  10.018 -0.5547 -0.6573  2.3092
  145SAPE   H7Y15969   1.308  -0.875  10.007 -1.6411  2.6674 -0.8800
  145SAPE   C3815970   1.446  -0.839   9.857  0.1753  0.6770 -0.4119
  145SAPE   H8X15971   1.446  -0.948   9.838  1.9923  0.8512 -1.6149
  145SAPE   H8Y15972   1.552  -0.809   9.841  0.9014 -0.4937  2.0481
  145SAPE   C3915973   1.340  -0.772   9.766 -0.2192 -0.0972  0.1984
  145SAPE   H9X15974   1.365  -0.664   9.770  2.2728 -0.6180 -0.3327
  145SAPE   H9Y15975   1.239  -0.792   9.809  1.1365  0.2781  3.7722
  145SAPE  C31015976   1.360  -0.807   9.619 -0.2243 -0.1819  0.3842
  145SAPE  H10X15977   1.328  -0.913   9.612 -2.5986  0.5125  0.0196
  145SAPE  H10Y15978   1.466  -0.782   9.601 -0.9023  0.5743 -2.8322
  145SAPE  C31115979   1.298  -0.717   9.523 -0.7616 -0.6035  0.3459
  145SAPE  H11X15980   1.336  -0.615   9.540 -0.6322 -0.2070 -2.1761
  145SAPE  H11Y15981   1.191  -0.713   9.552 -1.3385 -1.3595 -1.5980
  145SAPE  C31215982   1.324  -0.762   9.375  0.9518  0.0696  0.4228
  145SAPE  H12X15983   1.318  -0.872   9.368  5.1523 -0.1746 -0.6372
  145SAPE  H12Y15984   1.424  -0.728   9.339  1.0108 -1.1260 -0.5684
  145SAPE  C31315985   1.211  -0.713   9.279  0.1118 -0.1180  0.2763
  145SAPE  H13X15986   1.115  -0.707   9.335  0.5406  1.3628  0.8723
  145SAPE  H13Y15987   1.194  -0.776   9.190 -0.8658  2.1701 -1.1890
  145SAPE  C31415988   1.241  -0.581   9.212  0.7661 -0.1658  1.0109
  145SAPE  H14X15989   1.337  -0.587   9.156  0.4404 -0.5602  0.4881
  145SAPE  H14Y15990   1.258  -0.505   9.292  0.3585 -0.0247  0.9648
  145SAPE  C31515991   1.126  -0.533   9.127  0.8265 -0.0325 -0.1719
  145SAPE  H15X15992   1.153  -0.427   9.107  0.6519 -0.0694 -0.6034
  145SAPE  H15Y15993   1.031  -0.542   9.183  1.5314 -0.3874  0.9923
  145SAPE  C31615994   1.107  -0.615   8.997  0.7823  0.0053 -0.3349
  145SAPE  H16X15995   1.062  -0.715   9.011 -2.2390  1.2580 -0.7269
  145SAPE  H16Y15996   1.210  -0.622   8.956  1.7148  0.7020  1.7770
  145SAPE  C31715997   1.026  -0.551   8.886 -0.1270 -0.1233 -0.1937
  145SAPE  H17X15998   1.037  -0.609   8.793  0.5284 -1.4805  0.7225
  145SAPE  H17Y15999   1.064  -0.449   8.862 -0.4765  0.3238  1.0944
  145SAPE  C31816000   0.874  -0.546   8.911  0.5267  0.2400  0.4438
  145SAPE  H18X16001   0.852  -0.478   8.997 -1.7207  0.8795 -0.5826
  145SAPE  H18Y16002   0.840  -0.641   8.957  2.3561  0.0289  1.3895
  145SAPE  H18Z16003   0.813  -0.509   8.826 -0.0601  3.2695  2.1098
  146SAPE     N16004   6.196   6.236  10.725 -0.2239 -0.3600 -0.6286
  146SAPE   HN116005   6.132   6.213  10.804  0.4000  3.3259  1.0960
  146SAPE   HN216006   6.257   6.153  10.713 -0.4203 -0.8144  1.3600
  146SAPE   HN316007   6.244   6.321  10.762  0.5921  0.5933 -3.7452
  146SAPE   C1216008   6.137   6.272  10.592 -0.0593  0.3153 -0.2343
  146SAPE  H12A16009   6.209   6.264  10.508 -0.5909  1.6045 -0.8189
  146SAPE  H12B16010   6.107   6.379  10.589 -0.3152  0.2638  0.5017
  146SAPE   C1116011   6.024   6.181  10.557 -0.3524  0.3333 -0.0986
  146SAPE  H11A16012   6.051   6.077  10.583 -3.4222 -0.0746  1.5973
  146SAPE  H11B16013   5.994   6.188  10.450  0.1406  2.3836 -0.1232
  146SAPE     P16014   5.870   6.162  10.777  0.2930 -0.1106  0.0204
  146SAPE   O1316015   5.971   6.211  10.872  0.4047  0.1934 -0.0772
  146SAPE   O1416016   5.732   6.204  10.810 -0.0676 -0.2761 -0.0752
  146SAPE   O1216017   5.911   6.222  10.635  0.4860  0.4783 -0.0034
  146SAPE   O1116018   5.881   6.008  10.746 -0.3022  0.9489  0.4417
  146SAPE    C116019   5.809   5.951  10.636 -0.3523  0.0080  0.2111
  146SAPE    HA16020   5.713   5.916  10.681 -0.0593  0.5311  1.2679
  146SAPE    HB16021   5.788   6.021  10.552 -0.4126 -1.9633 -1.4335
  146SAPE    C216022   5.879   5.823  10.582 -0.2606  1.4665 -0.3930
  146SAPE    HS16023   5.925   5.765  10.665  0.8825  0.2674 -1.8405
  146SAPE   O2116024   5.983   5.873  10.496  0.3563 -0.6252  0.5744
  146SAPE   C2116025   6.075   5.789  10.469 -0.0266  0.0621  0.3537
  146SAPE   O2216026   6.085   5.676  10.516 -0.2081  0.1154  0.0499
  146SAPE   C2216027   6.179   5.852  10.375 -0.7317  0.3267 -0.3903
  146SAPE   H2R16028   6.122   5.917  10.305  2.3026  0.7543 -2.5511
  146SAPE   H2S16029   6.230   5.919  10.447  2.0044 -0.6232 -1.4004
  146SAPE    C316030   5.778   5.721  10.506  0.3762  0.2952  0.3122
  146SAPE    HX16031   5.700   5.692  10.580 -0.4596 -0.1977 -0.7474
  146SAPE    HY16032   5.842   5.638  10.469 -1.2265 -1.4930  1.4448
  146SAPE   O3116033   5.723   5.780  10.389  0.2303  0.3766 -0.1135
  146SAPE   C3116034   5.593   5.817  10.393 -0.5900 -0.3181  0.5901
  146SAPE   O3216035   5.514   5.803  10.485  0.3438 -0.3829  0.0159
  146SAPE   C3216036   5.559   5.886  10.256 -0.3551 -0.0758 -0.7210
  146SAPE   H2X16037   5.462   5.938  10.270 -0.8190 -0.7125 -1.5394
  146SAPE   H2Y16038   5.536   5.799  10.190  1.9704 -2.8065  1.8978
  146SAPE   C2316039   6.270   5.757  10.304 -1.1155  0.3791 -0.2780
  146SAPE   H3R16040   6.205   5.695  10.239 -1.1193 -1.6807  1.6121
  146SAPE   H3S16041   6.309   5.682  10.376  1.5633 -0.3349 -2.3678
  146SAPE   C2416042   6.384   5.820  10.221  0.2660 -0.2780 -0.5949
  146SAPE   H4R16043   6.347   5.877  10.133  0.2832  0.3381 -0.2046
  146SAPE   H4S16044   6.435   5.732  10.176  0.3806 -0.8616  0.6457
  146SAPE   C2516045   6.481   5.903  10.297  0.5316 -0.4260 -0.2062
  146SAPE   H5R16046   6.456   6.010  10.310 -0.7393 -0.6785 -0.5466
  146SAPE   C2616047   6.605   5.868  10.345  0.4331  0.6148  0.1981
  146SAPE   H6R16048   6.656   5.949  10.400  1.5902 -0.6006  0.9580
  146SAPE   C2716049   6.670   5.733  10.342 -0.6938  0.3145 -0.1313
  146SAPE   H7R16050   6.624   5.674  10.259 -0.7090 -0.8289  0.6803
  146SAPE   H7S16051   6.657   5.677  10.437  2.6364  1.1577  0.8861
  146SAPE   C2816052   6.820   5.744  10.304  0.1601 -0.0877 -0.3925
  146SAPE   H8R16053   6.891   5.746  10.387 -1.2766 -0.0336  0.8536
  146SAPE   C2916054   6.872   5.748  10.182 -0.5996 -0.0271 -0.5000
  146SAPE   H9R16055   6.982   5.739  10.175 -0.7097 -0.6717 -1.4996
  146SAPE  C21016056   6.795   5.739  10.050  0.2026  0.0056  0.3745
  146SAPE  H10R16057   6.701   5.798  10.055  0.4785  0.4258  0.6048
  146SAPE  H10S16058   6.770   5.633  10.026 -1.2153  0.5247 -0.5026
  146SAPE  C21116059   6.865   5.801   9.935  0.3378 -0.9975 -0.2266
  146SAPE  H11R16060   6.915   5.894   9.965 -0.0129 -0.3310 -1.6675
  146SAPE  C21216061   6.860   5.767   9.803  0.2030 -0.2649  0.3897
  146SAPE  H12R16062   6.923   5.824   9.733 -0.6923 -1.6341 -1.5683
  146SAPE  C21316063   6.762   5.670   9.752 -0.5575 -0.7923  0.0831
  146SAPE  H13R16064   6.657   5.698   9.775 -0.1461  2.3691 -1.5296
  146SAPE  H13S16065   6.774   5.570   9.799  0.6894 -0.3682  0.6907
  146SAPE  C21416066   6.778   5.639   9.605  0.5016 -0.1168  0.2553
  146SAPE  H14R16067   6.809   5.537   9.577 -2.2464 -0.6932 -0.8308
  146SAPE  C21516068   6.739   5.713   9.498  0.1349 -0.3210  0.2775
  146SAPE  H15R16069   6.756   5.685   9.393 -0.6890 -1.5606  0.4611
  146SAPE  C21616070   6.675   5.845   9.497 -0.4026  0.1530 -0.5177
  146SAPE  H16R16071   6.717   5.916   9.422  0.0826 -0.5168 -0.8794
  146SAPE  H16S16072   6.684   5.887   9.600  2.4734 -2.7104  0.4535
  146SAPE  C21716073   6.525   5.821   9.456 -0.5919 -0.6622 -0.0683
  146SAPE  H17R16074   6.486   5.925   9.460 -1.9651 -1.0315 -2.6222
  146SAPE  H17S16075   6.478   5.759   9.536  1.7180 -1.6180  0.5899
  146SAPE  C21816076   6.503   5.748   9.321 -0.2501 -0.6719 -0.2269
  146SAPE  H18R16077   6.439   5.657   9.326  0.0464 -0.8345  0.6131
  146SAPE  H18S16078   6.598   5.710   9.277 -0.4113 -0.8318 -0.4385
  146SAPE  C21916079   6.451   5.851   9.224 -0.3520  0.4039 -0.0619
  146SAPE  H19R16080   6.391   5.924   9.283  0.4121 -1.2654  2.8971
  146SAPE  H19S16081   6.387   5.798   9.150 -1.0620  1.8059 -0.4691
  146SAPE  C22016082   6.555   5.925   9.135  0.3817  0.4259  0.0001
  146SAPE  H20R16083   6.505   5.987   9.057  2.6986  3.2859  0.7055
  146SAPE  H20S16084   6.630   5.850   9.100 -1.7129 -1.6120 -0.2908
  146SAPE  H20T16085   6.621   5.992   9.194  0.5766 -2.4119  3.1769
  146SAPE   C3316086   5.673   5.977  10.203 -0.3682 -0.2156  0.4264
  146SAPE   H3X16087   5.714   6.045  10.280 -2.0467 -0.5146  1.5984
  146SAPE   H3Y16088   5.620   6.053  10.142 -2.1371 -1.9500 -0.2542
  146SAPE   C3416089   5.780   5.908  10.113 -0.2092 -0.1937  0.1782
  146SAPE   H4X16090   5.760   5.799  10.098  0.1764 -0.2151 -0.1847
  146SAPE   H4Y16091   5.877   5.924  10.163 -0.5424  0.0630  0.7439
  146SAPE   C3516092   5.784   5.949   9.963 -0.5024 -0.1589 -0.0452
  146SAPE   H5X16093   5.862   5.886   9.916  1.3234  0.0201  2.6632
  146SAPE   H5Y16094   5.800   6.057   9.943 -0.0703  0.0842  1.5662
  146SAPE   C3616095   5.651   5.914   9.888 -0.6852  0.2239  0.2866
  146SAPE   H6X16096   5.569   5.980   9.924 -1.0594 -0.4461  0.6508
  146SAPE   H6Y16097   5.634   5.807   9.912  1.0138 -0.4277 -1.2443
  146SAPE   C3716098   5.677   5.924   9.735 -0.2109  0.0638 -0.5290
  146SAPE   H7X16099   5.762   5.860   9.704  0.4803  0.7478 -0.0678
  146SAPE   H7Y16100   5.692   6.030   9.706  1.5184 -0.8013 -2.9126
  146SAPE   C3816101   5.550   5.876   9.666  0.6487  0.0635 -0.5329
  146SAPE   H8X16102   5.478   5.960   9.674  0.0338 -0.4815 -0.3368
  146SAPE   H8Y16103   5.517   5.788   9.725  0.7164 -0.1179 -0.7665
  146SAPE   C3916104   5.561   5.843   9.516  0.1327  0.8020  0.2589
  146SAPE   H9X16105   5.533   5.737   9.503 -0.8355  1.0764  0.0408
  146SAPE   H9Y16106   5.667   5.853   9.485 -0.2145 -0.4112 -1.4164
  146SAPE  C31016107   5.473   5.939   9.430  0.6925  0.0759 -0.3773
  146SAPE  H10X16108   5.513   6.038   9.461  0.4365  0.1890 -0.4099
  146SAPE  H10Y16109   5.366   5.953   9.458  0.3218 -0.7104 -1.3789
  146SAPE  C31116110   5.492   5.926   9.277 -0.5968 -0.9199 -0.7770
  146SAPE  H11X16111   5.477   5.818   9.257  0.0617 -1.0572 -0.5516
  146SAPE  H11Y16112   5.598   5.949   9.255 -0.6750 -0.5250 -0.7470
  146SAPE  C31216113   5.398   6.014   9.190 -0.6604 -0.3014  0.3716
  146SAPE  H12X16114   5.400   6.114   9.238 -0.9981 -1.2272  2.3767
  146SAPE  H12Y16115   5.292   5.982   9.207 -0.9566  0.0321 -0.7769
  146SAPE  C31316116   5.423   6.021   9.033  0.1223 -0.1399 -0.4308
  146SAPE  H13X16117   5.332   6.069   8.991  0.5853  1.9139  0.8246
  146SAPE  H13Y16118   5.441   5.918   8.995 -2.7050 -1.4148  1.5260
  146SAPE  C31416119   5.544   6.112   8.995 -0.1261  1.1145  0.5428
  146SAPE  H14X16120   5.634   6.071   9.047 -0.6083 -1.5407 -0.6360
  146SAPE  H14Y16121   5.521   6.219   9.013 -1.3253  0.6111  2.1450
  146SAPE  C31516122   5.575   6.114   8.841 -0.3508  0.2890  0.2820
  146SAPE  H15X16123   5.480   6.102   8.783 -0.7206  1.3391  0.6602
  146SAPE  H15Y16124   5.629   6.019   8.821 -2.7350 -1.0998  0.1667
  146SAPE  C31616125   5.631   6.244   8.776  0.3189 -0.8219  0.2669
  146SAPE  H16X16126   5.639   6.229   8.667 -1.3139  2.1285 -0.3397
  146SAPE  H16Y16127   5.729   6.282   8.810 -1.3245  2.4321  1.6784
  146SAPE  C31716128   5.522   6.356   8.774  0.5229  0.4345  0.1405
  146SAPE  H17X16129   5.568   6.456   8.759  0.3232  0.3822 -0.8913
  146SAPE  H17Y16130   5.456   6.363   8.863  1.6767  0.0821  1.0338
  146SAPE  C31816131   5.422   6.339   8.659 -0.6857 -0.1134 -0.5054
  146SAPE  H18X16132   5.386   6.235   8.643 -0.4643 -0.1346 -0.8493
  146SAPE  H18Y16133   5.463   6.364   8.559  2.5880  0.1994  0.8459
  146SAPE  H18Z16134   5.332   6.403   8.675 -0.9638 -0.4682 -0.6503
  147SAPE     N16135   1.756   3.715   6.347  0.2052  0.8334  0.1624
  147SAPE   HN116136   1.788   3.628   6.301  0.7048  2.6277 -2.9884
  147SAPE   HN216137   1.719   3.709   6.444 -0.8251 -0.8192 -0.3172
  147SAPE   HN316138   1.682   3.759   6.289 -0.3389  1.0212  0.9887
  147SAPE   C1216139   1.861   3.814   6.335  0.2465 -0.5820  0.6749
  147SAPE  H12A16140   1.813   3.913   6.333 -1.1296 -1.2569 -0.0947
  147SAPE  H12B16141   1.911   3.796   6.238  1.2795  2.3322  0.6277
  147SAPE   C1116142   1.952   3.791   6.455 -0.0199  0.4976  0.0609
  147SAPE  H11A16143   1.914   3.829   6.552 -0.2918 -1.2370  0.6534
  147SAPE  H11B16144   2.041   3.853   6.431  0.1424  0.5417  0.7482
  147SAPE     P16145   2.132   3.583   6.483 -0.3591 -0.4206 -0.0227
  147SAPE   O1316146   2.119   3.449   6.544  0.0115 -0.8547  0.2668
  147SAPE   O1416147   2.188   3.581   6.351  0.5726  0.1123  0.2107
  147SAPE   O1216148   1.986   3.649   6.472 -0.3973  0.6462  0.2217
  147SAPE   O1116149   2.215   3.674   6.590 -0.0759 -0.5277 -0.1312
  147SAPE    C116150   2.153   3.714   6.715 -0.2263 -0.3668 -0.3545
  147SAPE    HA16151   2.142   3.824   6.715  2.2633 -0.0784 -3.3748
  147SAPE    HB16152   2.051   3.670   6.721  1.2304 -4.0233 -1.1762
  147SAPE    C216153   2.246   3.679   6.838  0.2721  0.3765 -0.3425
  147SAPE    HS16154   2.257   3.569   6.849 -3.3147 -0.2910 -2.4280
  147SAPE   O2116155   2.184   3.749   6.949 -1.0531  0.2380 -0.3318
  147SAPE   C2116156   2.198   3.692   7.076 -0.2725 -0.0148  0.1740
  147SAPE   O2216157   2.256   3.586   7.096 -0.3218 -0.2210  0.3186
  147SAPE   C2216158   2.111   3.761   7.176  0.0287 -0.4449 -0.4141
  147SAPE   H2R16159   2.063   3.844   7.120 -0.3225 -1.0475 -1.0094
  147SAPE   H2S16160   2.024   3.697   7.205  0.9708 -2.1690 -1.3585
  147SAPE    C316161   2.395   3.734   6.812  0.1979  0.0872 -0.4934
  147SAPE    HX16162   2.396   3.836   6.768  0.7805  0.0332 -0.6142
  147SAPE    HY16163   2.433   3.660   6.738  0.1024  1.1871 -1.6369
  147SAPE   O3116164   2.476   3.745   6.939 -0.7523 -0.7040  0.2775
  147SAPE   C3116165   2.612   3.756   6.927  0.1830  0.2806  1.1825
  147SAPE   O3216166   2.663   3.767   6.817 -0.0871  0.2089  0.7569
  147SAPE   C3216167   2.669   3.773   7.061 -0.3772 -0.5064 -1.0025
  147SAPE   H2X16168   2.777   3.795   7.059 -0.2703 -0.5789  1.9066
  147SAPE   H2Y16169   2.661   3.682   7.126  1.9452 -2.2476 -3.0621
  147SAPE   C2316170   2.196   3.804   7.298 -0.4171 -0.2665 -0.2398
  147SAPE   H3R16171   2.293   3.827   7.247 -0.9803  0.7545 -0.8651
  147SAPE   H3S16172   2.219   3.725   7.372 -2.8785  0.2421  1.1175
  147SAPE   C2416173   2.140   3.918   7.390 -0.2365  0.6340  0.5184
  147SAPE   H4R16174   2.043   3.893   7.439 -0.3553 -0.1778 -0.1015
  147SAPE   H4S16175   2.123   3.994   7.312  0.0034  0.9600  0.7835
  147SAPE   C2516176   2.234   3.974   7.486 -0.9454  0.2129 -0.2013
  147SAPE   H5R16177   2.314   4.030   7.435 -0.9525  0.2359 -0.1877
  147SAPE   C2616178   2.233   3.954   7.621  0.2259  0.3894  0.5826
  147SAPE   H6R16179   2.303   4.006   7.688  0.8037  0.9822 -0.4725
  147SAPE   C2716180   2.136   3.872   7.704  1.2209  0.2262  0.8254
  147SAPE   H7R16181   2.090   3.792   7.641  2.0432  0.9245 -0.7064
  147SAPE   H7S16182   2.052   3.937   7.735 -0.0952  0.5908 -3.1790
  147SAPE   C2816183   2.203   3.793   7.812 -0.3746 -0.6168 -0.5224
  147SAPE   H8R16184   2.273   3.712   7.788  0.4037  0.0621 -0.5666
  147SAPE   C2916185   2.218   3.845   7.942  0.2673  0.0749  0.9230
  147SAPE   H9R16186   2.270   3.784   8.018  2.5484  0.6979 -0.0831
  147SAPE  C21016187   2.171   3.971   8.010 -0.0194 -0.0306 -0.2514
  147SAPE  H10R16188   2.214   4.052   7.948 -0.4574 -0.0476 -0.5814
  147SAPE  H10S16189   2.211   3.980   8.113 -0.7536 -0.6352  0.0960
  147SAPE  C21116190   2.021   3.995   8.023  0.1416  0.5463  0.2164
  147SAPE  H11R16191   1.964   3.923   7.962  0.5303  0.7294 -0.3709
  147SAPE  C21216192   1.957   4.084   8.100 -0.4174 -0.0894 -0.0749
  147SAPE  H12R16193   1.852   4.112   8.080  0.5303  1.9347 -2.4818
  147SAPE  C21316194   2.023   4.182   8.193 -0.4821  0.7467 -0.8500
  147SAPE  H13R16195   2.120   4.205   8.143 -0.5038  1.0598 -0.7466
  147SAPE  H13S16196   2.035   4.136   8.294  1.9737  1.9382 -0.5632
  147SAPE  C21416197   1.931   4.302   8.217 -0.8301 -0.6378 -0.6145
  147SAPE  H14R16198   1.873   4.315   8.310  1.0839 -0.8065  0.6234
  147SAPE  C21516199   1.906   4.404   8.133 -0.8346  0.0146  0.0224
  147SAPE  H15R16200   1.836   4.484   8.162  1.7487  2.7513 -1.0548
  147SAPE  C21616201   1.977   4.432   7.999 -0.3229  1.0040  0.1170
  147SAPE  H16R16202   2.040   4.347   7.965  1.2450  2.0592  0.3346
  147SAPE  H16S16203   2.043   4.519   8.021  0.3661  0.1985  1.2389
  147SAPE  C21716204   1.875   4.461   7.889  1.3253  0.0344 -0.8621
  147SAPE  H17R16205   1.847   4.568   7.897  0.8987 -0.0522 -1.1929
  147SAPE  H17S16206   1.791   4.391   7.908  2.9490 -1.6848  0.1399
  147SAPE  C21816207   1.932   4.442   7.751  0.1381  0.3631  1.4070
  147SAPE  H18R16208   1.955   4.338   7.718 -1.4110  0.6181 -0.5682
  147SAPE  H18S16209   2.032   4.489   7.750  0.4310 -0.2749 -0.5589
  147SAPE  C21916210   1.827   4.491   7.645  0.1226  0.2468 -0.0269
  147SAPE  H19R16211   1.801   4.596   7.672  1.4595  0.4625  0.4796
  147SAPE  H19S16212   1.733   4.433   7.654 -0.5652  1.5484  1.3084
  147SAPE  C22016213   1.873   4.478   7.500 -0.3102  0.2859 -0.0268
  147SAPE  H20R16214   1.959   4.547   7.483 -0.2442  0.8996  2.6037
  147SAPE  H20S16215   1.787   4.501   7.434  0.0618 -1.9810 -1.3646
  147SAPE  H20T16216   1.920   4.377   7.494 -1.4624 -0.2595  0.1014
  147SAPE   C3316217   2.597   3.888   7.139 -0.0383  0.1061  1.0956
  147SAPE   H3X16218   2.491   3.860   7.158 -0.0364 -1.9589 -1.6569
  147SAPE   H3Y16219   2.594   3.979   7.075 -2.6366  1.1464  2.6159
  147SAPE   C3416220   2.666   3.916   7.273 -0.1406 -0.2435  0.1543
  147SAPE   H4X16221   2.747   3.988   7.249 -1.3169  1.0813  0.0394
  147SAPE   H4Y16222   2.711   3.833   7.331 -1.0491 -1.2817 -0.5763
  147SAPE   C3516223   2.574   3.990   7.370 -0.5497  0.0090 -0.3132
  147SAPE   H5X16224   2.484   3.927   7.388  0.0821 -0.8288 -0.0797
  147SAPE   H5Y16225   2.542   4.093   7.342 -1.4469 -0.1444  0.1422
  147SAPE   C3616226   2.644   3.990   7.503 -0.2097  1.1460 -0.2722
  147SAPE   H6X16227   2.614   4.079   7.563  3.3707  0.2762  3.0546
  147SAPE   H6Y16228   2.753   4.012   7.491  0.6682 -2.2906  0.9188
  147SAPE   C3716229   2.629   3.872   7.596  0.6511  0.5949 -0.9291
  147SAPE   H7X16230   2.666   3.786   7.538  0.2780 -1.0458  1.2045
  147SAPE   H7Y16231   2.522   3.861   7.625  0.7930  1.1681 -0.1666
  147SAPE   C3816232   2.713   3.876   7.724 -0.2395 -0.2172  0.2787
  147SAPE   H8X16233   2.815   3.918   7.712  0.1713 -1.4061 -0.4629
  147SAPE   H8Y16234   2.725   3.771   7.757  0.0519 -0.2740 -0.0067
  147SAPE   C3916235   2.645   3.948   7.845 -0.0762  0.3093  0.4826
  147SAPE   H9X16236   2.534   3.938   7.847  0.0456 -1.5031 -0.6654
  147SAPE   H9Y16237   2.664   4.057   7.833 -2.0237  0.7831  1.4846
  147SAPE  C31016238   2.698   3.895   7.981 -0.2394  0.1365  0.7758
  147SAPE  H10X16239   2.709   3.785   7.977  0.8887  0.3514 -4.6449
  147SAPE  H10Y16240   2.615   3.929   8.047 -0.1622 -1.6099  1.7986
  147SAPE  C31116241   2.835   3.953   8.013  0.0534  0.2701  0.2638
  147SAPE  H11X16242   2.822   4.063   8.004 -1.7653  0.1307  1.1386
  147SAPE  H11Y16243   2.914   3.928   7.938  1.3065  0.4662  1.5051
  147SAPE  C31216244   2.896   3.917   8.145 -0.7694  0.1379 -0.3929
  147SAPE  H12X16245   2.905   3.807   8.156  0.2528  0.2379 -0.1939
  147SAPE  H12Y16246   2.817   3.950   8.217 -0.8352  0.9410 -0.8324
  147SAPE  C31316247   3.021   3.999   8.164  0.1120  0.8207  0.3850
  147SAPE  H13X16248   3.002   4.103   8.130 -2.0301 -0.1371 -1.5098
  147SAPE  H13Y16249   3.102   3.956   8.102 -2.5397 -1.3808 -1.7215
  147SAPE  C31416250   3.057   3.994   8.312  0.0211  0.0614 -0.2816
  147SAPE  H14X16251   3.162   4.029   8.329 -0.7760  0.8341  3.4849
  147SAPE  H14Y16252   3.055   3.888   8.345  2.3474 -0.4560 -1.6721
  147SAPE  C31516253   2.973   4.082   8.408 -0.6319  0.0158 -0.5240
  147SAPE  H15X16254   2.874   4.035   8.427 -0.6832  1.0275  1.8930
  147SAPE  H15Y16255   2.957   4.181   8.361 -0.8638 -0.4593 -1.4582
  147SAPE  C31616256   3.055   4.113   8.534  0.1859 -0.2112 -0.1979
  147SAPE  H16X16257   3.134   4.189   8.513  1.0775 -1.5995 -2.0468
  147SAPE  H16Y16258   3.107   4.026   8.580  0.3332  0.1005  0.2355
  147SAPE  C31716259   2.964   4.180   8.647 -0.4943  0.4788 -0.5990
  147SAPE  H17X16260   2.889   4.111   8.693 -0.9360  2.0921  1.1554
  147SAPE  H17Y16261   2.907   4.255   8.588  0.2833  0.9204 -0.7950
  147SAPE  C31816262   3.035   4.264   8.755 -0.5608  0.1310  0.3200
  147SAPE  H18X16263   2.963   4.303   8.830 -0.8745 -0.0929  0.1305
  147SAPE  H18Y16264   3.089   4.347   8.704  0.3336  0.3919  1.6504
  147SAPE  H18Z16265   3.112   4.201   8.805 -1.1977 -2.1505 -1.5289
  148SAPE     N16266   1.891   1.506   6.370 -0.4641 -0.0781 -0.3644
  148SAPE   HN116267   1.798   1.550   6.353 -0.8651 -0.5038  0.6480
  148SAPE   HN216268   1.966   1.563   6.327 -1.6862 -0.0161 -2.4711
  148SAPE   HN316269   1.896   1.413   6.323  0.4987 -0.0227 -0.3812
  148SAPE   C1216270   1.930   1.496   6.516 -0.1745  0.4428  0.3104
  148SAPE  H12A16271   1.899   1.588   6.570 -0.6575  1.0522 -0.9875
  148SAPE  H12B16272   2.040   1.479   6.520 -0.3717 -1.5273 -1.7782
  148SAPE   C1116273   1.866   1.377   6.588  0.1981  0.3078  0.2228
  148SAPE  H11A16274   1.914   1.371   6.688 -0.5752 -0.4718  0.5539
  148SAPE  H11B16275   1.885   1.285   6.529 -1.5000  0.3178 -0.3673
  148SAPE     P16276   1.646   1.483   6.701 -0.1948  0.5292  0.1424
  148SAPE   O1316277   1.506   1.446   6.696  0.1188 -0.0892  0.2977
  148SAPE   O1416278   1.721   1.478   6.829  0.5671 -0.0004  0.6802
  148SAPE   O1216279   1.726   1.386   6.601 -0.0137 -0.3410 -0.6484
  148SAPE   O1116280   1.673   1.623   6.625 -0.1589 -0.0700 -0.1958
  148SAPE    C116281   1.588   1.738   6.660  0.0879 -0.2646  0.0697
  148SAPE    HA16282   1.550   1.788   6.569 -2.0039  0.6502  1.4046
  148SAPE    HB16283   1.501   1.725   6.727 -2.0816  0.4629 -2.5513
  148SAPE    C216284   1.677   1.844   6.728  0.2825 -0.3101 -0.0845
  148SAPE    HS16285   1.758   1.868   6.655  0.0923 -0.1663 -0.2515
  148SAPE   O2116286   1.719   1.780   6.848 -0.3345  0.4469 -0.2073
  148SAPE   C2116287   1.841   1.817   6.885 -0.9657  0.2787  1.3064
  148SAPE   O2216288   1.912   1.901   6.831  0.3722  0.4473 -0.1049
  148SAPE   C2216289   1.849   1.773   7.030  0.4381  0.4441 -0.3765
  148SAPE   H2R16290   1.769   1.838   7.073 -0.1097 -0.5392  0.0987
  148SAPE   H2S16291   1.829   1.664   7.026  1.4963  0.3084 -3.5473
  148SAPE    C316292   1.589   1.972   6.751 -0.2675  1.0975 -0.3164
  148SAPE    HX16293   1.486   1.935   6.773  0.2472  0.4346  0.9816
  148SAPE    HY16294   1.572   2.018   6.651 -2.2208 -3.5782 -2.3299
  148SAPE   O3116295   1.649   2.055   6.855 -0.3627 -0.3842  0.7694
  148SAPE   C3116296   1.691   2.177   6.812  0.4303  0.5391 -0.3878
  148SAPE   O3216297   1.683   2.219   6.698 -0.2928 -0.0258  0.1160
  148SAPE   C3216298   1.759   2.240   6.929  0.8413  0.8157  0.6726
  148SAPE   H2X16299   1.844   2.301   6.892 -0.5871  1.2043 -2.0504
  148SAPE   H2Y16300   1.804   2.164   6.996  3.8839  2.3687  0.4935
  148SAPE   C2316301   1.987   1.804   7.107 -0.1752 -0.4260  0.0507
  148SAPE   H3R16302   2.020   1.910   7.109 -2.2044  0.2057  0.8501
  148SAPE   H3S16303   2.064   1.746   7.051 -0.6621 -0.2093 -0.8688
  148SAPE   C2416304   1.982   1.749   7.252 -0.4562 -0.4050 -0.4760
  148SAPE   H4R16305   1.941   1.646   7.244 -1.4995 -0.0835  0.6029
  148SAPE   H4S16306   1.910   1.813   7.307  0.0451 -0.1980 -0.0611
  148SAPE   C2516307   2.113   1.740   7.326  0.1687 -0.4624  0.4522
  148SAPE   H5R16308   2.186   1.669   7.285  0.0039 -1.2346  1.4663
  148SAPE   C2616309   2.144   1.813   7.439  0.2428  0.1736 -0.5288
  148SAPE   H6R16310   2.235   1.775   7.489  1.6367  0.3355 -2.8720
  148SAPE   C2716311   2.068   1.917   7.511  0.4189 -0.2110  0.6545
  148SAPE   H7R16312   1.987   1.866   7.566  1.3693 -0.8210  1.5054
  148SAPE   H7S16313   2.013   1.981   7.438  0.2422 -0.3578  0.6602
  148SAPE   C2816314   2.147   1.986   7.614  0.1275  0.4976  0.3632
  148SAPE   H8R16315   2.173   2.091   7.591 -0.3135  0.5372  0.0527
  148SAPE   C2916316   2.173   1.936   7.739  0.1830 -0.6734 -0.2283
  148SAPE   H9R16317   2.223   2.000   7.812 -3.0408  1.7211  0.0363
  148SAPE  C21016318   2.127   1.804   7.786  0.2369  0.1953  0.2847
  148SAPE  H10R16319   2.145   1.726   7.709  2.1902 -1.0825  1.9855
  148SAPE  H10S16320   2.019   1.805   7.813  0.3567  2.1332  0.7605
  148SAPE  C21116321   2.228   1.754   7.892  0.1075  0.0826 -0.8308
  148SAPE  H11R16322   2.302   1.677   7.865  0.3545 -0.1662  0.5229
  148SAPE  C21216323   2.220   1.786   8.024  0.7723 -0.3819 -0.0934
  148SAPE  H12R16324   2.302   1.769   8.094  0.4166  0.0769  0.4371
  148SAPE  C21316325   2.102   1.874   8.079 -0.1890  0.6914  0.7831
  148SAPE  H13R16326   2.025   1.904   8.005  0.2490  0.5613  0.2728
  148SAPE  H13S16327   2.148   1.965   8.123  2.5677 -1.6003  2.8423
  148SAPE  C21416328   2.032   1.786   8.182  1.1186  0.4695 -0.0608
  148SAPE  H14R16329   1.980   1.696   8.145  1.1286  1.3147 -2.2156
  148SAPE  C21516330   1.995   1.831   8.304 -0.2985  0.0710 -0.4299
  148SAPE  H15R16331   1.939   1.760   8.366  1.1217  1.2334  2.2252
  148SAPE  C21616332   2.027   1.956   8.370  1.0369  0.1317 -0.4850
  148SAPE  H16R16333   2.073   2.031   8.302  0.0081  0.9747 -0.2653
  148SAPE  H16S16334   2.090   1.945   8.461  1.0086  1.2212 -0.3214
  148SAPE  C21716335   1.893   2.016   8.416  0.3884 -0.0233  0.8781
  148SAPE  H17R16336   1.822   1.942   8.461 -0.2399 -0.7367 -1.2300
  148SAPE  H17S16337   1.839   2.056   8.327  0.8869  0.6777  0.8896
  148SAPE  C21816338   1.904   2.127   8.526  0.4446  0.2264 -0.3897
  148SAPE  H18R16339   1.962   2.081   8.608  1.1094  1.9215  0.1151
  148SAPE  H18S16340   1.805   2.161   8.562  0.6663 -0.7694  1.1837
  148SAPE  C21916341   1.986   2.252   8.490  0.5691 -0.4759 -0.5493
  148SAPE  H19R16342   1.939   2.307   8.406  0.2250  0.8540  0.4861
  148SAPE  H19S16343   2.086   2.216   8.457  0.8958  1.4510 -1.7599
  148SAPE  C22016344   1.988   2.348   8.613  0.0089  0.3871 -0.4276
  148SAPE  H20R16345   2.050   2.303   8.693 -2.0242  0.5802  1.3046
  148SAPE  H20S16346   1.888   2.376   8.655  0.1111 -1.7051  1.2673
  148SAPE  H20T16347   2.040   2.442   8.584  0.6447 -0.2362 -1.3004
  148SAPE   C3316348   1.674   2.346   7.003  0.0142  0.0407  0.1181
  148SAPE   H3X16349   1.630   2.405   6.919  0.0677 -0.0358  0.0366
  148SAPE   H3Y16350   1.742   2.417   7.054  1.9574 -1.6786 -0.0342
  148SAPE   C3416351   1.561   2.292   7.098 -0.0207  0.0666  0.2758
  148SAPE   H4X16352   1.518   2.194   7.069  1.2499 -0.4370  0.0414
  148SAPE   H4Y16353   1.479   2.367   7.095  0.0068  0.0534 -1.3443
  148SAPE   C3516354   1.611   2.287   7.240 -0.6381  0.3433 -0.5720
  148SAPE   H5X16355   1.660   2.383   7.268 -1.3563  0.6785 -0.4457
  148SAPE   H5Y16356   1.690   2.210   7.251  0.5635  1.7554  0.8489
  148SAPE   C3616357   1.495   2.249   7.335  0.5388 -0.4132 -0.4466
  148SAPE   H6X16358   1.443   2.161   7.291 -0.7365 -0.1238  0.4527
  148SAPE   H6Y16359   1.428   2.337   7.345  1.1823 -0.1933  2.1591
  148SAPE   C3716360   1.550   2.217   7.468  0.2758  0.6536 -0.6557
  148SAPE   H7X16361   1.590   2.113   7.470 -2.0134 -0.3191 -2.7592
  148SAPE   H7Y16362   1.475   2.206   7.550 -0.3578  0.5130 -1.2538
  148SAPE   C3816363   1.653   2.320   7.510 -0.4955  0.0221 -0.0740
  148SAPE   H8X16364   1.603   2.419   7.505 -0.3640  0.0094 -1.7019
  148SAPE   H8Y16365   1.751   2.326   7.459 -0.7581 -0.5118 -0.6344
  148SAPE   C3916366   1.706   2.295   7.656  0.6969  0.3656 -0.0600
  148SAPE   H9X16367   1.616   2.265   7.715  0.2499 -0.4646 -1.1547
  148SAPE   H9Y16368   1.740   2.393   7.696  2.0017 -0.4731  0.9430
  148SAPE  C31016369   1.806   2.175   7.671  0.3386  0.5906  0.8362
  148SAPE  H10X16370   1.912   2.202   7.650  0.1702  2.5392  2.3248
  148SAPE  H10Y16371   1.780   2.095   7.598  1.2005 -0.2370  1.4257
  148SAPE  C31116372   1.817   2.106   7.810  0.3397  0.0943  0.1582
  148SAPE  H11X16373   1.900   2.033   7.801  0.1883 -0.2497  1.4215
  148SAPE  H11Y16374   1.728   2.045   7.837  0.9194 -1.1092 -0.6011
  148SAPE  C31216375   1.841   2.197   7.926 -0.5504 -0.0365 -0.2260
  148SAPE  H12X16376   1.846   2.138   8.020  0.5683 -0.5435 -0.5948
  148SAPE  H12Y16377   1.766   2.279   7.931 -0.4775  0.1526 -1.9166
  148SAPE  C31316378   1.982   2.269   7.910  0.4164  0.4749  0.2112
  148SAPE  H13X16379   1.976   2.341   7.826 -1.5372  2.3335  1.8942
  148SAPE  H13Y16380   2.052   2.183   7.897 -0.2022  0.0548 -0.3978
  148SAPE  C31416381   2.023   2.342   8.035  0.1855 -0.2873  0.1292
  148SAPE  H14X16382   2.129   2.372   8.048 -1.3492  4.6243  2.9341
  148SAPE  H14Y16383   1.994   2.285   8.126  0.0124 -1.3535 -0.5934
  148SAPE  C31516384   1.944   2.480   8.048 -0.5076  0.0088 -0.7602
  148SAPE  H15X16385   1.834   2.468   8.041 -0.5179 -0.8292  0.6092
  148SAPE  H15Y16386   1.977   2.536   7.958  0.3496 -0.7106 -0.9113
  148SAPE  C31616387   1.986   2.547   8.174  1.1205  0.4198 -0.0022
  148SAPE  H16X16388   2.097   2.536   8.183  1.1477 -0.9870 -1.8115
  148SAPE  H16Y16389   1.941   2.489   8.257  0.2713  1.0876  0.0135
  148SAPE  C31716390   1.930   2.692   8.181 -0.4511  0.8706  0.1578
  148SAPE  H17X16391   1.823   2.675   8.160 -0.6451  1.3527  0.7667
  148SAPE  H17Y16392   1.969   2.751   8.095 -2.4616  2.0845  0.0553
  148SAPE  C31816393   1.961   2.747   8.320  0.1453 -0.4052  0.2357
  148SAPE  H18X16394   1.915   2.848   8.329 -0.7000 -0.6451 -1.2347
  148SAPE  H18Y16395   2.070   2.765   8.327  0.2647 -0.7198 -0.7201
  148SAPE  H18Z16396   1.929   2.679   8.401 -0.5350  1.5073  1.6174
  149SAPE     N16397   1.947   2.344   6.168  0.1897 -0.0138  0.0493
  149SAPE   HN116398   2.004   2.339   6.255  0.7794 -0.2608 -0.3442
  149SAPE   HN216399   1.953   2.258   6.110 -1.2089  0.1070 -0.2865
  149SAPE   HN316400   1.978   2.428   6.115  1.0574  0.8028  1.7961
  149SAPE   C1216401   1.810   2.365   6.222  0.4926  0.0486  0.4259
  149SAPE  H12A16402   1.792   2.267   6.271 -0.0804  0.2413  0.6060
  149SAPE  H12B16403   1.737   2.377   6.139  0.1503 -1.3582  0.5080
  149SAPE   C1116404   1.811   2.477   6.324 -0.8109  0.0668 -0.1315
  149SAPE  H11A16405   1.901   2.464   6.388 -0.4156  2.8066 -0.0665
  149SAPE  H11B16406   1.726   2.461   6.393 -0.7255 -3.0225 -0.6792
  149SAPE     P16407   1.778   2.737   6.358 -0.3342 -0.0817  0.0613
  149SAPE   O1316408   1.894   2.831   6.354  0.4994 -0.0356  0.0254
  149SAPE   O1416409   1.655   2.793   6.305  0.0107  0.1503  0.2370
  149SAPE   O1216410   1.814   2.606   6.273 -0.0956  0.2248 -0.9731
  149SAPE   O1116411   1.745   2.684   6.501  0.4668  0.4462 -0.3219
  149SAPE    C116412   1.665   2.763   6.598 -0.3821  0.0525  0.5933
  149SAPE    HA16413   1.733   2.774   6.685  0.3506 -1.3870  0.2115
  149SAPE    HB16414   1.647   2.867   6.562 -0.1902  0.3698  1.3972
  149SAPE    C216415   1.543   2.690   6.645  0.0407 -0.1315 -0.1441
  149SAPE    HS16416   1.460   2.714   6.575  0.6610 -0.2626 -0.9428
  149SAPE   O2116417   1.520   2.730   6.777  0.3494 -0.3333  0.5187
  149SAPE   C2116418   1.407   2.791   6.803  0.1177  0.1758 -0.4782
  149SAPE   O2216419   1.331   2.849   6.729  0.1451  0.0749  0.0282
  149SAPE   C2216420   1.384   2.789   6.955  0.0135  0.4168 -0.2049
  149SAPE   H2R16421   1.380   2.686   6.995 -0.0645 -0.3582 -2.1666
  149SAPE   H2S16422   1.473   2.835   7.003 -0.6578  1.0809  0.4249
  149SAPE    C316423   1.562   2.533   6.645  0.0053 -0.2753  0.1918
  149SAPE    HX16424   1.644   2.529   6.720 -0.0773  1.2920  0.3810
  149SAPE    HY16425   1.591   2.500   6.543  1.0225 -0.2722  0.4708
  149SAPE   O3116426   1.442   2.472   6.687  0.2778  0.2567 -0.2188
  149SAPE   C3116427   1.335   2.478   6.612  0.1532 -0.7994  0.3681
  149SAPE   O3216428   1.336   2.520   6.497  0.0580 -0.1026  0.1343
  149SAPE   C3216429   1.217   2.408   6.681 -0.0278  0.3368 -0.5316
  149SAPE   H2X16430   1.245   2.301   6.685 -3.6621 -0.5919  2.8915
  149SAPE   H2Y16431   1.124   2.414   6.619 -0.0644 -1.9998 -0.7339
  149SAPE   C2316432   1.252   2.858   7.005 -0.6487  0.3290  0.0537
  149SAPE   H3R16433   1.156   2.810   6.975  0.5807 -1.6216 -0.8872
  149SAPE   H3S16434   1.248   2.961   6.963  0.1967  0.1294 -0.5287
  149SAPE   C2416435   1.245   2.861   7.155  0.2940 -0.0001 -0.2004
  149SAPE   H4R16436   1.146   2.903   7.184  0.0441 -1.5437  1.2843
  149SAPE   H4S16437   1.317   2.937   7.194  1.2483 -0.4610 -1.0605
  149SAPE   C2516438   1.250   2.738   7.232 -0.3215  0.2217  0.2364
  149SAPE   H5R16439   1.157   2.680   7.230 -0.6969  0.8503 -0.8477
  149SAPE   C2616440   1.357   2.691   7.298 -0.0861  0.0327  0.6753
  149SAPE   H6R16441   1.354   2.596   7.352 -1.1376  0.3903  1.2511
  149SAPE   C2716442   1.497   2.744   7.320 -0.3229  0.0280  0.8895
  149SAPE   H7R16443   1.526   2.728   7.426  0.6351  0.8470  0.7578
  149SAPE   H7S16444   1.499   2.853   7.301 -2.2964  0.2344  1.7847
  149SAPE   C2816445   1.595   2.679   7.230 -0.7367 -0.4488  0.3263
  149SAPE   H8R16446   1.569   2.575   7.206 -2.3447  0.2575 -1.0569
  149SAPE   C2916447   1.701   2.734   7.165  0.2323  0.4517 -0.0734
  149SAPE   H9R16448   1.764   2.673   7.100  0.5156 -1.1844  1.7113
  149SAPE  C21016449   1.747   2.882   7.178  0.3088  0.8570  0.2580
  149SAPE  H10R16450   1.858   2.877   7.180  0.3284  0.3478 -1.5507
  149SAPE  H10S16451   1.721   2.933   7.274 -3.1025  2.2729 -1.3428
  149SAPE  C21116452   1.708   2.958   7.053 -0.5953 -0.4137 -0.2448
  149SAPE  H11R16453   1.610   3.010   7.058 -0.2857  0.2788 -1.3541
  149SAPE  C21216454   1.772   2.971   6.934 -1.0058 -0.1321 -0.6772
  149SAPE  H12R16455   1.728   3.040   6.860 -1.7006  1.4303  1.1144
  149SAPE  C21316456   1.904   2.921   6.887  0.0450  0.4843 -0.1984
  149SAPE  H13R16457   1.894   2.874   6.787 -0.4086  0.8420 -0.3255
  149SAPE  H13S16458   1.930   2.838   6.956 -3.9914  1.4337  2.7040
  149SAPE  C21416459   2.011   3.024   6.877 -0.8368  0.4194 -0.1047
  149SAPE  H14R16460   2.018   3.078   6.781 -1.4821  1.2867  0.3273
  149SAPE  C21516461   2.110   3.057   6.965 -0.0634  0.6531  0.3907
  149SAPE  H15R16462   2.177   3.141   6.939 -0.3303  0.6265 -0.3961
  149SAPE  C21616463   2.135   3.004   7.101  0.3603 -0.1242 -0.1783
  149SAPE  H16R16464   2.035   3.003   7.150 -0.4726 -0.9136 -1.8472
  149SAPE  H16S16465   2.210   3.061   7.160  0.6440  0.7048 -1.3268
  149SAPE  C21716466   2.197   2.861   7.102 -0.1083  1.4227  0.0023
  149SAPE  H17R16467   2.132   2.794   7.043  0.4574  2.4210 -1.7856
  149SAPE  H17S16468   2.198   2.824   7.207  1.4082 -0.8906 -0.7930
  149SAPE  C21816469   2.332   2.839   7.028 -0.1549 -1.2247  0.5520
  149SAPE  H18R16470   2.405   2.918   7.055 -0.2697 -1.3088  1.1172
  149SAPE  H18S16471   2.299   2.847   6.922 -0.4405  0.9955  0.7864
  149SAPE  C21916472   2.386   2.694   7.042 -0.3707 -0.0084 -0.7233
  149SAPE  H19R16473   2.309   2.619   7.070  0.7230 -0.9644 -0.2211
  149SAPE  H19S16474   2.452   2.705   7.131 -0.1224  1.4232 -1.0769
  149SAPE  C22016475   2.484   2.627   6.943  0.1722  0.2742 -0.5097
  149SAPE  H20R16476   2.583   2.675   6.962  0.1177 -0.8555  3.0430
  149SAPE  H20S16477   2.441   2.640   6.841 -1.0482  1.4506  0.1509
  149SAPE  H20T16478   2.490   2.519   6.971  1.1334  0.2974 -0.6044
  149SAPE   C3316479   1.200   2.458   6.826 -0.2362  0.6809  0.4942
  149SAPE   H3X16480   1.108   2.521   6.829 -3.8515 -4.1583 -1.3876
  149SAPE   H3Y16481   1.287   2.508   6.874 -0.8000  2.8306 -0.6495
  149SAPE   C3416482   1.157   2.346   6.927  0.7358 -0.2559  0.1659
  149SAPE   H4X16483   1.227   2.261   6.916 -0.3274 -1.1833  0.3910
  149SAPE   H4Y16484   1.059   2.301   6.899  1.6822 -0.9422 -2.1049
  149SAPE   C3516485   1.141   2.405   7.066 -0.8808  0.3425 -0.1052
  149SAPE   H5X16486   1.046   2.462   7.067 -0.1461  1.5857  1.7518
  149SAPE   H5Y16487   1.222   2.480   7.075  0.1635 -0.6714 -0.8854
  149SAPE   C3616488   1.146   2.310   7.187  0.0532 -0.4723 -0.2625
  149SAPE   H6X16489   1.236   2.246   7.180  0.4437 -0.0392  0.7018
  149SAPE   H6Y16490   1.055   2.246   7.179 -0.1587 -0.0214 -1.6272
  149SAPE   C3716491   1.130   2.378   7.323 -0.2976  0.2740 -0.2458
  149SAPE   H7X16492   1.055   2.459   7.329 -1.9205 -1.4236  4.1332
  149SAPE   H7Y16493   1.226   2.430   7.341  0.1483 -0.7544  0.3841
  149SAPE   C3816494   1.115   2.276   7.437  0.6822 -1.0150  0.7048
  149SAPE   H8X16495   1.196   2.200   7.444  1.9670 -0.0503 -2.5768
  149SAPE   H8Y16496   1.023   2.219   7.411  1.1168 -1.2013 -0.4858
  149SAPE   C3916497   1.108   2.343   7.570  0.2813  0.3648 -0.3331
  149SAPE   H9X16498   1.106   2.256   7.639 -0.0875 -1.7105 -2.8902
  149SAPE   H9Y16499   1.011   2.393   7.592  0.4366  0.8531 -0.7439
  149SAPE  C31016500   1.229   2.428   7.603  0.2738  1.0108 -0.5437
  149SAPE  H10X16501   1.204   2.515   7.540  1.8069 -0.1240 -2.7733
  149SAPE  H10Y16502   1.323   2.381   7.568 -0.5243  0.9705 -2.6717
  149SAPE  C31116503   1.248   2.453   7.750 -0.1634 -0.0928  0.0576
  149SAPE  H11X16504   1.278   2.368   7.814  1.4896  0.9936  0.7573
  149SAPE  H11Y16505   1.148   2.479   7.793 -0.6258  1.0992 -1.6915
  149SAPE  C31216506   1.341   2.573   7.781  0.2161  0.6633 -0.1188
  149SAPE  H12X16507   1.375   2.571   7.887  0.4272  1.3714 -0.1692
  149SAPE  H12Y16508   1.288   2.671   7.784 -0.5724  0.2071  2.1898
  149SAPE  C31316509   1.454   2.579   7.685 -0.1806  0.3291  0.7331
  149SAPE  H13X16510   1.414   2.600   7.584  1.2480  0.8066  0.2602
  149SAPE  H13Y16511   1.510   2.483   7.684 -1.5163 -0.4620  0.1233
  149SAPE  C31416512   1.556   2.693   7.690 -0.5536 -0.0295 -0.0088
  149SAPE  H14X16513   1.497   2.788   7.691  1.3529  1.1819  1.2872
  149SAPE  H14Y16514   1.610   2.686   7.594 -1.0662 -0.9679 -0.2296
  149SAPE  C31516515   1.637   2.680   7.818  0.3209  0.1592 -0.8408
  149SAPE  H15X16516   1.688   2.582   7.816  1.3515  0.7085 -1.9263
  149SAPE  H15Y16517   1.578   2.680   7.912  0.1060  2.3880 -0.9540
  149SAPE  C31616518   1.744   2.797   7.828  0.4679 -0.2614  0.2646
  149SAPE  H16X16519   1.819   2.749   7.894 -0.3626  0.2400  1.5946
  149SAPE  H16Y16520   1.701   2.882   7.885  0.7428 -1.5157  2.3837
  149SAPE  C31716521   1.815   2.850   7.707  0.2212 -0.2225 -1.1074
  149SAPE  H17X16522   1.741   2.883   7.631 -0.6516 -2.7864 -1.4219
  149SAPE  H17Y16523   1.886   2.769   7.679  0.2515 -1.2540  1.7533
  149SAPE  C31816524   1.907   2.972   7.744  0.6959 -0.0317 -0.2015
  149SAPE  H18X16525   1.967   3.000   7.655 -1.0565 -0.9176 -1.6894
  149SAPE  H18Y16526   1.967   2.944   7.834 -0.1270  0.6187  0.5600
  149SAPE  H18Z16527   1.842   3.060   7.763 -0.8820 -1.5341  1.5971
  150SAPE     N16528   0.588   3.644   6.240  0.4624 -0.8830 -0.5962
  150SAPE   HN116529   0.589   3.743   6.274  0.6614 -0.8015 -0.8407
  150SAPE   HN216530   0.574   3.577   6.319  1.8235 -1.0598 -0.4784
  150SAPE   HN316531   0.687   3.626   6.212  0.1686 -1.8299 -1.0157
  150SAPE   C1216532   0.491   3.615   6.130 -0.1888 -0.0497 -0.4391
  150SAPE  H12A16533   0.507   3.505   6.119 -0.6716 -0.2465  0.7130
  150SAPE  H12B16534   0.531   3.666   6.040  1.2147  0.8967  0.6906
  150SAPE   C1116535   0.345   3.652   6.161  1.2221 -0.2663  0.6055
  150SAPE  H11A16536   0.285   3.621   6.073  2.1201  0.4669 -0.2728
  150SAPE  H11B16537   0.345   3.762   6.174 -4.1691 -0.3756  2.7267
  150SAPE     P16538   0.237   3.665   6.392  0.3103 -0.2977  0.4691
  150SAPE   O1316539   0.162   3.775   6.330 -0.3724  0.0640  0.3880
  150SAPE   O1416540   0.169   3.582   6.499 -0.1259  0.2281 -0.1531
  150SAPE   O1216541   0.294   3.578   6.273  0.4316  0.3748 -0.2074
  150SAPE   O1116542   0.364   3.743   6.459 -0.8461 -0.3272  0.3646
  150SAPE    C116543   0.340   3.847   6.561 -0.6801 -0.9149 -0.5708
  150SAPE    HA16544   0.379   3.945   6.527  0.7327 -1.6240 -1.0703
  150SAPE    HB16545   0.234   3.875   6.579  0.1782  1.0861  1.7783
  150SAPE    C216546   0.403   3.801   6.700 -0.3549 -0.5615 -0.1211
  150SAPE    HS16547   0.321   3.749   6.754 -0.9192  2.4046  1.9824
  150SAPE   O2116548   0.453   3.913   6.772 -0.3577  0.5875  0.3024
  150SAPE   C2116549   0.359   4.002   6.815 -0.3306 -0.0648  0.2154
  150SAPE   O2216550   0.241   3.975   6.817 -0.1628 -0.2650 -0.2052
  150SAPE   C2216551   0.417   4.139   6.873 -0.5772  0.3533  0.1405
  150SAPE   H2R16552   0.486   4.112   6.957 -0.9006 -1.9841 -0.3011
  150SAPE   H2S16553   0.472   4.176   6.784 -1.2343 -0.7440 -0.7354
  150SAPE    C316554   0.522   3.694   6.682  0.2706 -0.1685  0.5556
  150SAPE    HX16555   0.590   3.733   6.602  0.5830 -0.9697  0.4310
  150SAPE    HY16556   0.468   3.611   6.631  1.1299  1.7281 -3.7467
  150SAPE   O3116557   0.591   3.678   6.811 -0.4103 -0.1999  0.0073
  150SAPE   C3116558   0.522   3.600   6.889 -0.1246 -0.4153  0.3066
  150SAPE   O3216559   0.419   3.541   6.855 -0.0756 -0.1444 -0.3739
  150SAPE   C3216560   0.608   3.566   7.013 -0.1574  0.0162  0.3646
  150SAPE   H2X16561   0.668   3.652   7.050 -1.7279  0.6520  1.5265
  150SAPE   H2Y16562   0.670   3.481   6.979  1.6693  2.2729 -2.0854
  150SAPE   C2316563   0.322   4.254   6.912 -1.0592  0.4644  0.6325
  150SAPE   H3R16564   0.261   4.275   6.821 -1.4227  2.7234  1.3529
  150SAPE   H3S16565   0.392   4.341   6.913 -1.7710  1.0628 -0.5044
  150SAPE   C2416566   0.233   4.254   7.041 -0.5340  0.6826  0.1368
  150SAPE   H4R16567   0.303   4.257   7.127 -0.4090  0.3038  0.0515
  150SAPE   H4S16568   0.182   4.156   7.048 -0.4055  0.5849 -0.2852
  150SAPE   C2516569   0.135   4.363   7.035 -0.4613 -0.3091 -0.0201
  150SAPE   H5R16570   0.086   4.382   6.939  1.8687 -0.3917 -1.2548
  150SAPE   C2616571   0.108   4.453   7.136 -0.8527 -0.5466  0.0338
  150SAPE   H6R16572   0.029   4.527   7.117 -1.5548 -1.2704  0.1048
  150SAPE   C2716573   0.159   4.449   7.278 -0.1969 -1.2786 -0.2373
  150SAPE   H7R16574   0.135   4.552   7.311  0.4775 -0.7966 -1.2018
  150SAPE   H7S16575   0.270   4.437   7.282 -0.0244  0.3061  0.4030
  150SAPE   C2816576   0.103   4.351   7.374 -0.0908  0.0902 -0.7432
  150SAPE   H8R16577   0.044   4.267   7.334 -0.3894 -0.8822  1.6443
  150SAPE   C2916578   0.108   4.354   7.508 -0.2682  0.2392  1.0984
  150SAPE   H9R16579   0.067   4.270   7.566  2.1499 -1.5760  0.2419
  150SAPE  C21016580   0.169   4.470   7.590 -0.0894  0.5757  0.3014
  150SAPE  H10R16581   0.143   4.561   7.531  0.4937 -0.9519 -2.4232
  150SAPE  H10S16582   0.277   4.454   7.611 -0.2087 -1.2913 -0.4025
  150SAPE  C21116583   0.109   4.492   7.725 -0.4157  0.1301  0.0111
  150SAPE  H11R16584   0.012   4.545   7.727 -0.9804 -0.8459 -0.9905
  150SAPE  C21216585   0.176   4.465   7.843 -0.0018  0.0354  0.0164
  150SAPE  H12R16586   0.124   4.497   7.935 -1.2339  0.2514 -0.7489
  150SAPE  C21316587   0.304   4.394   7.857  0.1083  0.1678  0.5733
  150SAPE  H13R16588   0.324   4.394   7.966  2.4002 -2.0613  0.2280
  150SAPE  H13S16589   0.383   4.452   7.804  1.4078 -0.4133  1.8347
  150SAPE  C21416590   0.297   4.249   7.813  0.2930 -0.1011  0.1935
  150SAPE  H14R16591   0.262   4.229   7.710 -1.3413  0.2416  0.6633
  150SAPE  C21516592   0.348   4.142   7.886  0.1367 -0.2538  0.7826
  150SAPE  H15R16593   0.338   4.041   7.842 -1.8240  0.0933  0.3907
  150SAPE  C21616594   0.432   4.140   8.007 -0.1766  0.5800  0.1316
  150SAPE  H16R16595   0.495   4.231   8.020  1.7402 -0.6504 -0.3760
  150SAPE  H16S16596   0.504   4.055   8.000 -1.9565 -0.8882 -0.7315
  150SAPE  C21716597   0.366   4.107   8.143  0.3743 -0.1931 -0.8141
  150SAPE  H17R16598   0.443   4.094   8.222 -0.4927  1.2178  0.2763
  150SAPE  H17S16599   0.310   4.011   8.136  0.8667 -0.8887  3.6467
  150SAPE  C21816600   0.262   4.214   8.197 -0.0119  0.1948 -0.1467
  150SAPE  H18R16601   0.192   4.244   8.116 -0.6619 -0.1045  0.2981
  150SAPE  H18S16602   0.313   4.309   8.226 -0.6534  0.5607 -0.2121
  150SAPE  C21916603   0.170   4.164   8.315  0.6064 -0.5752 -0.4557
  150SAPE  H19R16604   0.236   4.164   8.405  0.1380 -0.3795 -0.1112
  150SAPE  H19S16605   0.144   4.057   8.300  1.0830 -0.9041  0.9542
  150SAPE  C22016606   0.051   4.249   8.344  0.3744  0.1009  0.2346
  150SAPE  H20R16607   0.091   4.342   8.390  1.2301  1.1403 -2.5106
  150SAPE  H20S16608  -0.025   4.207   8.413  0.2996  0.1665  0.1931
  150SAPE  H20T16609   0.005   4.278   8.247  0.1521 -0.5731  0.1413
  150SAPE   C3316610   0.517   3.520   7.137  0.5348  0.2931  0.4003
  150SAPE   H3X16611   0.474   3.421   7.113  0.6654  0.2551  0.3256
  150SAPE   H3Y16612   0.433   3.593   7.138  0.5184  0.2778  0.0363
  150SAPE   C3416613   0.580   3.525   7.275 -0.5248  0.2594  0.0964
  150SAPE   H4X16614   0.503   3.499   7.352 -0.8374 -1.2095 -0.6901
  150SAPE   H4Y16615   0.626   3.624   7.292 -0.1076  0.4131 -1.8351
  150SAPE   C3516616   0.695   3.429   7.290 -0.6692  0.2463  0.8494
  150SAPE   H5X16617   0.773   3.448   7.214 -2.0037  0.5116 -0.4859
  150SAPE   H5Y16618   0.646   3.330   7.277 -0.8311  0.3281  0.8324
  150SAPE   C3616619   0.760   3.438   7.435  0.2759  0.2524 -0.2880
  150SAPE   H6X16620   0.794   3.540   7.462  0.4924 -0.1980  1.1705
  150SAPE   H6Y16621   0.847   3.369   7.437  0.0995  0.0580  1.0684
  150SAPE   C3716622   0.673   3.383   7.546  0.3628 -0.3268 -0.1506
  150SAPE   H7X16623   0.643   3.277   7.534  1.2567 -0.5967 -0.0827
  150SAPE   H7Y16624   0.582   3.442   7.571 -0.2246 -1.1964 -0.2058
  150SAPE   C3816625   0.753   3.387   7.683  0.3063 -0.8783 -0.7334
  150SAPE   H8X16626   0.777   3.494   7.704  1.1196 -0.9840 -1.0702
  150SAPE   H8Y16627   0.854   3.340   7.674  0.0346 -1.8863  1.3633
  150SAPE   C3916628   0.670   3.326   7.801  0.3397  0.3631 -0.4010
  150SAPE   H9X16629   0.645   3.220   7.778 -0.6644  0.6102 -0.4710
  150SAPE   H9Y16630   0.572   3.376   7.812 -0.2300 -0.7977 -0.0514
  150SAPE  C31016631   0.736   3.337   7.945  0.3204  1.0447  0.3884
  150SAPE  H10X16632   0.756   3.441   7.978  1.4375  1.6317 -2.0260
  150SAPE  H10Y16633   0.836   3.291   7.933 -0.3007 -0.1553 -0.2129
  150SAPE  C31116634   0.661   3.267   8.051  0.0261 -0.2939 -0.7120
  150SAPE  H11X16635   0.665   3.159   8.027  1.7966 -0.4743  0.2969
  150SAPE  H11Y16636   0.554   3.297   8.042 -0.6072 -1.7868  1.4006
  150SAPE  C31216637   0.704   3.293   8.201 -0.1722  1.0160  0.0265
  150SAPE  H12X16638   0.684   3.398   8.231  2.0823  0.9091  2.0499
  150SAPE  H12Y16639   0.811   3.267   8.210 -0.7466 -1.9932 -1.1145
  150SAPE  C31316640   0.640   3.196   8.300 -0.8811  0.2202 -0.1006
  150SAPE  H13X16641   0.619   3.098   8.254 -0.6252  0.0158  0.2147
  150SAPE  H13Y16642   0.537   3.236   8.313 -1.3024 -1.4544  1.9022
  150SAPE  C31416643   0.729   3.194   8.424 -0.4008  0.5842 -0.2248
  150SAPE  H14X16644   0.727   3.292   8.477  1.9693  1.5050 -1.7501
  150SAPE  H14Y16645   0.833   3.166   8.397 -0.8015 -1.8564  0.6236
  150SAPE  C31516646   0.687   3.086   8.528  0.2167 -0.5345  0.7006
  150SAPE  H15X16647   0.689   2.994   8.466 -0.3853  1.4443 -2.4330
  150SAPE  H15Y16648   0.584   3.119   8.555 -0.0852 -0.3960 -0.5775
  150SAPE  C31616649   0.782   3.067   8.642 -0.3343  0.4756 -0.0437
  150SAPE  H16X16650   0.785   3.162   8.698  1.6659 -0.0059  0.6960
  150SAPE  H16Y16651   0.887   3.056   8.608 -0.7818 -0.9748 -1.0220
  150SAPE  C31716652   0.745   2.955   8.730  0.1471  0.3929  0.4141
  150SAPE  H17X16653   0.775   2.856   8.689  0.9487 -0.0206  1.9405
  150SAPE  H17Y16654   0.637   2.941   8.753  0.6186 -2.6648  0.9579
  150SAPE  C31816655   0.798   2.971   8.866  0.0708  0.2685  0.3894
  150SAPE  H18X16656   0.789   2.874   8.920  0.2425  0.8352  1.4447
  150SAPE  H18Y16657   0.743   3.047   8.924 -0.5378 -0.4471  0.7629
  150SAPE  H18Z16658   0.905   2.999   8.871 -0.1645  0.9819  1.4623
  151SAPE     N16659   3.271   1.249   6.295  0.0459 -0.2214 -0.4743
  151SAPE   HN116660   3.342   1.325   6.294  0.7642 -0.7916  2.5070
  151SAPE   HN216661   3.177   1.284   6.322 -0.7179 -1.6052 -1.3146
  151SAPE   HN316662   3.288   1.184   6.374 -0.8081  1.6449  1.3136
  151SAPE   C1216663   3.259   1.186   6.161  0.2962  0.6706  0.0952
  151SAPE  H12A16664   3.361   1.185   6.117  0.1069  0.3152 -0.3348
  151SAPE  H12B16665   3.205   1.252   6.090  1.0727  0.5165 -0.6582
  151SAPE   C1116666   3.191   1.050   6.175 -0.4023 -0.3106  0.3670
  151SAPE  H11A16667   3.250   0.995   6.251  0.1994  0.7505  0.6812
  151SAPE  H11B16668   3.204   1.004   6.074 -2.0354 -0.1697  0.0826
  151SAPE     P16669   2.980   0.948   6.275  0.7645  0.0092 -0.0977
  151SAPE   O1316670   2.839   0.944   6.230 -0.3876 -0.2108  0.7764
  151SAPE   O1416671   3.050   0.821   6.260 -0.5760 -0.3840  0.2358
  151SAPE   O1216672   3.056   1.073   6.212  0.4935 -0.7238 -0.2744
  151SAPE   O1116673   2.974   0.982   6.429 -0.1984 -0.1158 -0.2939
  151SAPE    C116674   2.934   1.109   6.470 -0.1126 -0.4382  0.5922
  151SAPE    HA16675   2.991   1.191   6.421 -0.2577 -0.5399  0.2540
  151SAPE    HB16676   2.826   1.121   6.449 -0.1059 -3.2254 -1.2484
  151SAPE    C216677   2.945   1.130   6.628  0.5635  0.8483  0.1069
  151SAPE    HS16678   3.045   1.173   6.649  0.4653  0.5239  1.3124
  151SAPE   O2116679   2.918   1.011   6.706 -0.3299  0.2394  0.0086
  151SAPE   C2116680   3.027   0.940   6.732  0.4753 -0.8066 -0.4024
  151SAPE   O2216681   3.142   0.973   6.719  0.2771 -0.4467 -0.3409
  151SAPE   C2216682   2.975   0.803   6.777  0.1484  0.1100 -0.0902
  151SAPE   H2R16683   2.874   0.804   6.824  0.6686 -1.1910  1.0886
  151SAPE   H2S16684   2.965   0.735   6.690 -0.4304  0.9343 -0.6789
  151SAPE    C316685   2.846   1.256   6.658 -0.2381 -0.0390 -0.5543
  151SAPE    HX16686   2.754   1.239   6.598 -0.5455  0.4776 -0.2313
  151SAPE    HY16687   2.888   1.345   6.606  2.2008 -2.4199 -2.8299
  151SAPE   O3116688   2.809   1.276   6.791  0.2476 -0.0070 -0.0489
  151SAPE   C3116689   2.908   1.336   6.855 -0.2084  0.3248  0.5658
  151SAPE   O3216690   3.017   1.357   6.804 -0.3172 -0.3451 -0.2951
  151SAPE   C3216691   2.871   1.374   6.995 -0.0557  0.1151  0.1510
  151SAPE   H2X16692   2.917   1.302   7.066 -0.8079  0.4203  0.9520
  151SAPE   H2Y16693   2.762   1.371   7.015 -0.0273 -0.9333  0.1498
  151SAPE   C2316694   3.068   0.739   6.886 -0.2317  0.0008 -0.3970
  151SAPE   H3R16695   3.061   0.799   6.979  0.3456 -0.7756  0.1609
  151SAPE   H3S16696   3.174   0.739   6.852 -1.0230  1.0775 -2.9773
  151SAPE   C2416697   3.044   0.585   6.923  0.4566  0.1444 -0.6379
  151SAPE   H4R16698   3.129   0.550   6.986  0.5704  1.4748 -0.0272
  151SAPE   H4S16699   3.046   0.529   6.828  0.3143 -0.1689 -0.4582
  151SAPE   C2516700   2.907   0.563   6.991 -1.2534 -0.1723  0.3123
  151SAPE   H5R16701   2.827   0.541   6.919 -1.5696  1.4395  0.1595
  151SAPE   C2616702   2.894   0.577   7.124  0.0895  1.1223  0.4555
  151SAPE   H6R16703   2.797   0.558   7.172  0.3850  1.8430  1.3589
  151SAPE   C2716704   3.005   0.612   7.217  1.0528 -0.3884 -0.8259
  151SAPE   H7R16705   3.080   0.677   7.168 -0.1910  1.4839 -0.2992
  151SAPE   H7S16706   3.049   0.514   7.246 -2.1102 -1.4368  0.6834
  151SAPE   C2816707   2.932   0.669   7.336  0.4931  0.2138  0.3858
  151SAPE   H8R16708   2.883   0.602   7.408 -1.4268  1.4388  0.2616
  151SAPE   C2916709   2.917   0.800   7.340 -0.6844 -0.7378 -0.3554
  151SAPE   H9R16710   2.865   0.843   7.427 -1.5536  2.1120 -2.2107
  151SAPE  C21016711   2.961   0.912   7.252  0.8967 -0.0242  0.0914
  151SAPE  H10R16712   2.991   0.886   7.148  0.1339 -2.9152  0.5768
  151SAPE  H10S16713   3.055   0.959   7.289  1.5897 -0.8034 -0.6480
  151SAPE  C21116714   2.844   1.012   7.248 -0.4079  0.6919  0.5214
  151SAPE  H11R16715   2.763   0.983   7.180 -0.2184  1.4653 -0.0401
  151SAPE  C21216716   2.830   1.137   7.301 -0.6633  0.2955 -0.0280
  151SAPE  H12R16717   2.736   1.192   7.290  0.3589  2.4909  1.9295
  151SAPE  C21316718   2.931   1.213   7.382 -0.4231 -0.1548 -0.9956
  151SAPE  H13R16719   2.954   1.291   7.306  0.2066  0.4510 -0.1818
  151SAPE  H13S16720   3.016   1.142   7.395 -1.3089 -0.6716  2.6233
  151SAPE  C21416721   2.889   1.259   7.521 -0.1941  0.4222  0.1793
  151SAPE  H14R16722   2.831   1.352   7.529 -2.3692 -0.8423 -0.4601
  151SAPE  C21516723   2.917   1.193   7.635  0.7890  0.1226 -0.3348
  151SAPE  H15R16724   2.870   1.225   7.729 -0.1530 -4.7675  1.0071
  151SAPE  C21616725   2.983   1.057   7.638  0.0055  0.6009 -0.5292
  151SAPE  H16R16726   3.089   1.060   7.670 -0.0916  1.1302 -0.2414
  151SAPE  H16S16727   2.986   1.007   7.539 -1.3895  0.2884 -0.4263
  151SAPE  C21716728   2.904   0.966   7.733  0.3167  0.5216  0.2924
  151SAPE  H17R16729   2.796   0.958   7.709  0.6594  0.2529 -1.1534
  151SAPE  H17S16730   2.897   1.021   7.830  0.1565 -1.2745  1.3303
  151SAPE  C21816731   2.968   0.834   7.765 -0.1413  0.0238  0.1942
  151SAPE  H18R16732   3.044   0.839   7.847  1.4488 -0.5961 -1.1973
  151SAPE  H18S16733   3.035   0.806   7.681 -0.0289 -1.0417  0.6279
  151SAPE  C21916734   2.875   0.725   7.809 -0.3988  0.0192  0.5001
  151SAPE  H19R16735   2.926   0.628   7.827 -1.6445 -1.2831 -2.6455
  151SAPE  H19S16736   2.809   0.709   7.721  0.0172  0.3349  0.1231
  151SAPE  C22016737   2.786   0.758   7.935  0.6318 -0.5586  0.0913
  151SAPE  H20R16738   2.718   0.672   7.957 -0.0465  0.2415  1.1737
  151SAPE  H20S16739   2.848   0.778   8.025 -2.5581 -0.2315  2.3114
  151SAPE  H20T16740   2.722   0.846   7.914 -1.1064 -1.6568  0.6835
  151SAPE   C3316741   2.911   1.519   7.035 -0.3730 -0.1238  0.3982
  151SAPE   H3X16742   2.855   1.581   6.961 -0.1696  0.9088  1.1009
  151SAPE   H3Y16743   3.021   1.526   7.025 -0.2735 -2.7145 -0.8714
  151SAPE   C3416744   2.875   1.556   7.185  0.7287  0.3979  0.2837
  151SAPE   H4X16745   2.923   1.655   7.198  0.0994  0.7885 -0.2979
  151SAPE   H4Y16746   2.932   1.494   7.257  1.8235  1.8294  0.6616
  151SAPE   C3516747   2.728   1.562   7.222  0.2585  0.1494 -0.1602
  151SAPE   H5X16748   2.682   1.465   7.198 -1.2209  0.3784  1.6688
  151SAPE   H5Y16749   2.663   1.630   7.163  0.2659 -0.6304 -1.0739
  151SAPE   C3616750   2.687   1.593   7.366  0.6109 -0.0892  0.1569
  151SAPE   H6X16751   2.734   1.513   7.426 -0.6017  0.7956  2.3380
  151SAPE   H6Y16752   2.577   1.600   7.374  0.7723  1.7886  0.9404
  151SAPE   C3716753   2.736   1.724   7.422  0.0586 -1.2025 -0.2038
  151SAPE   H7X16754   2.729   1.806   7.348  0.5102 -1.3387 -0.4031
  151SAPE   H7Y16755   2.846   1.715   7.441  0.4476  1.9806 -0.5918
  151SAPE   C3816756   2.674   1.771   7.558 -0.2771  0.6192  0.0236
  151SAPE   H8X16757   2.661   1.691   7.634 -1.2527  0.3832 -0.3800
  151SAPE   H8Y16758   2.567   1.789   7.537 -0.8174 -4.3695 -2.2792
  151SAPE   C3916759   2.756   1.892   7.615  0.4113 -0.1513  0.2662
  151SAPE   H9X16760   2.753   1.974   7.540  0.8933 -0.6823 -0.3384
  151SAPE   H9Y16761   2.859   1.851   7.623  0.0115 -1.2207 -0.0042
  151SAPE  C31016762   2.698   1.945   7.752 -0.0403 -0.0968  0.8430
  151SAPE  H10X16763   2.587   1.952   7.757 -0.2688 -2.8680  0.4322
  151SAPE  H10Y16764   2.740   2.045   7.774 -0.3325  0.3186 -0.4377
  151SAPE  C31116765   2.732   1.847   7.860 -0.5657 -0.3248 -1.0489
  151SAPE  H11X16766   2.840   1.852   7.887 -0.6518  0.9040 -0.9258
  151SAPE  H11Y16767   2.707   1.743   7.832 -1.0393 -0.3382 -0.5686
  151SAPE  C31216768   2.650   1.868   7.982  0.2791 -0.0447  0.1900
  151SAPE  H12X16769   2.549   1.874   7.936  0.4192 -0.0840 -0.1232
  151SAPE  H12Y16770   2.670   1.970   8.024  0.1277  0.1996 -0.3290
  151SAPE  C31316771   2.642   1.757   8.085 -0.0555  0.4010 -0.3195
  151SAPE  H13X16772   2.599   1.663   8.044 -2.3382  1.8108 -1.2577
  151SAPE  H13Y16773   2.583   1.802   8.167 -3.1952 -1.2594 -1.5868
  151SAPE  C31416774   2.775   1.709   8.152 -0.2858 -0.4171  0.2015
  151SAPE  H14X16775   2.840   1.669   8.072 -0.9205 -1.9358  0.4204
  151SAPE  H14Y16776   2.744   1.627   8.219 -1.3363  0.1597  0.4452
  151SAPE  C31516777   2.872   1.807   8.223  0.1868  0.1310 -1.0773
  151SAPE  H15X16778   2.909   1.885   8.153 -0.5307 -0.1434 -1.7690
  151SAPE  H15Y16779   2.950   1.746   8.273 -0.3862 -0.8552 -1.3681
  151SAPE  C31616780   2.806   1.891   8.333  0.4036 -0.7027 -0.0519
  151SAPE  H16X16781   2.753   1.826   8.406 -0.7590  1.3484  0.9760
  151SAPE  H16Y16782   2.725   1.947   8.282  2.3947  1.6046 -0.8146
  151SAPE  C31716783   2.890   1.980   8.421  0.0217 -0.3517 -0.1840
  151SAPE  H17X16784   2.944   2.048   8.352  0.1154  0.9105  1.1050
  151SAPE  H17Y16785   2.960   1.916   8.478  0.6729 -2.2848 -3.0912
  151SAPE  C31816786   2.828   2.074   8.518 -0.1790  0.2430 -0.2933
  151SAPE  H18X16787   2.903   2.139   8.568 -0.6297  1.5324 -1.2429
  151SAPE  H18Y16788   2.781   2.015   8.599  0.0155 -1.0278 -1.0979
  151SAPE  H18Z16789   2.763   2.153   8.473  0.7124 -0.3168 -2.5957
  152SAPE     N16790   6.254   4.382   6.195 -0.1724  0.3858 -0.6484
  152SAPE   HN116791   6.210   4.294   6.163 -2.0887  1.0836 -0.0253
  152SAPE   HN216792   6.228   4.398   6.294 -1.6815  2.1510 -1.2971
  152SAPE   HN316793   6.227   4.471   6.147 -0.9473  0.2291 -0.5011
  152SAPE   C1216794   6.401   4.370   6.174 -0.2044 -0.3096  0.1579
  152SAPE  H12A16795   6.409   4.321   6.075  1.6991 -1.8629  1.0444
  152SAPE  H12B16796   6.429   4.303   6.258 -0.9253 -0.8205  0.0003
  152SAPE   C1116797   6.481   4.502   6.190 -0.4988 -0.0084  0.5178
  152SAPE  H11A16798   6.590   4.489   6.172 -0.9243  0.2480 -2.6000
  152SAPE  H11B16799   6.451   4.521   6.295 -0.2261 -1.0952  0.7903
  152SAPE     P16800   6.491   4.753   6.131  0.2065  0.1158  0.1019
  152SAPE   O1316801   6.628   4.754   6.085 -0.5642 -0.0055 -0.4144
  152SAPE   O1416802   6.402   4.852   6.060 -0.8042  0.5974 -0.5226
  152SAPE   O1216803   6.430   4.607   6.100  0.0069 -0.3582 -0.3344
  152SAPE   O1116804   6.486   4.781   6.286 -0.3857  0.1040 -0.7094
  152SAPE    C116805   6.354   4.776   6.357 -0.4744 -0.0892  0.3959
  152SAPE    HA16806   6.272   4.736   6.293 -0.5442  0.1899  0.3122
  152SAPE    HB16807   6.358   4.710   6.446 -2.4260  0.8604  1.2166
  152SAPE    C216808   6.293   4.909   6.404  0.3155  0.1190  0.3477
  152SAPE    HS16809   6.289   4.983   6.321 -0.2347  1.5909  1.6461
  152SAPE   O2116810   6.367   4.953   6.517  0.2686 -0.0206  0.4474
  152SAPE   C2116811   6.332   5.075   6.565  0.2449  0.8622  0.4159
  152SAPE   O2216812   6.256   5.153   6.508  0.3177 -0.5787 -0.5446
  152SAPE   C2216813   6.423   5.117   6.689  1.0742 -0.4584  0.1283
  152SAPE   H2R16814   6.486   5.030   6.719  0.7968 -0.5203  0.5400
  152SAPE   H2S16815   6.501   5.180   6.642  0.1621  1.2487  0.8646
  152SAPE    C316816   6.136   4.893   6.438 -1.1437  0.3678 -0.7339
  152SAPE    HX16817   6.075   4.859   6.351 -0.1170 -1.9413 -0.5995
  152SAPE    HY16818   6.102   4.995   6.467 -1.4394  0.6754 -2.1321
  152SAPE   O3116819   6.121   4.802   6.549 -0.5928  0.7419 -0.1296
  152SAPE   C3116820   6.110   4.847   6.669 -0.1967 -0.1566  0.3936
  152SAPE   O3216821   6.083   4.964   6.696 -0.3280 -0.1852 -0.4257
  152SAPE   C3216822   6.133   4.731   6.771  0.2640 -0.0917 -0.4456
  152SAPE   H2X16823   6.225   4.672   6.749  1.2659  1.5109 -0.6849
  152SAPE   H2Y16824   6.045   4.664   6.767 -0.0595  0.3455 -0.6602
  152SAPE   C2316825   6.339   5.191   6.789  0.1929 -0.2224  0.0791
  152SAPE   H3R16826   6.250   5.127   6.810  1.1095 -2.6737 -3.1684
  152SAPE   H3S16827   6.294   5.280   6.740  0.3827  0.0693  0.4277
  152SAPE   C2416828   6.412   5.243   6.917 -0.4710  0.1146  0.3411
  152SAPE   H4R16829   6.357   5.328   6.962  1.0381  1.0570  0.4258
  152SAPE   H4S16830   6.509   5.284   6.881 -2.4466  0.6707 -4.8229
  152SAPE   C2516831   6.457   5.142   7.018  0.0717 -0.5505 -0.3323
  152SAPE   H5R16832   6.549   5.083   7.001 -1.9088 -3.7912 -0.3358
  152SAPE   C2616833   6.390   5.117   7.135 -0.6992  0.2770 -0.1481
  152SAPE   H6R16834   6.444   5.057   7.210  0.8447  0.7865 -0.8329
  152SAPE   C2716835   6.258   5.193   7.177 -1.0241  0.5016  0.4487
  152SAPE   H7R16836   6.186   5.214   7.096 -1.3227 -1.4231  0.1996
  152SAPE   H7S16837   6.279   5.286   7.234 -2.6077  0.4155  1.2117
  152SAPE   C2816838   6.179   5.102   7.270  0.2411  0.3891  0.3321
  152SAPE   H8R16839   6.128   5.026   7.208 -2.3903  2.2466  0.0967
  152SAPE   C2916840   6.163   5.102   7.410 -0.4286  0.2256  0.9164
  152SAPE   H9R16841   6.090   5.028   7.445 -0.4498  0.9815  2.5513
  152SAPE  C21016842   6.212   5.193   7.519  0.0878  0.1048 -0.4998
  152SAPE  H10R16843   6.133   5.251   7.571 -2.1613 -1.6813 -1.8735
  152SAPE  H10S16844   6.287   5.266   7.480 -0.4296 -0.0895 -1.9044
  152SAPE  C21116845   6.288   5.109   7.616  0.9176  0.1242 -0.2349
  152SAPE  H11R16846   6.360   5.048   7.559  1.7767  1.5667 -0.7234
  152SAPE  C21216847   6.300   5.114   7.751  0.9086  0.2077  0.7255
  152SAPE  H12R16848   6.351   5.037   7.812 -1.5752  0.8747  3.7889
  152SAPE  C21316849   6.229   5.213   7.838 -0.1892 -0.1351  0.3640
  152SAPE  H13R16850   6.135   5.168   7.876  0.1559  0.6841  2.2089
  152SAPE  H13S16851   6.188   5.293   7.772 -0.2178 -0.8558 -0.4978
  152SAPE  C21416852   6.325   5.277   7.936 -0.1351 -0.5944  0.5533
  152SAPE  H14R16853   6.424   5.309   7.900 -0.5163  1.4490  1.2889
  152SAPE  C21516854   6.317   5.278   8.069 -0.4592  0.5030  0.1228
  152SAPE  H15R16855   6.399   5.324   8.127  0.1931 -0.4976 -0.0033
  152SAPE  C21616856   6.204   5.221   8.147 -0.3841  0.4040  0.2247
  152SAPE  H16R16857   6.215   5.111   8.150  1.1050  0.5394  0.1024
  152SAPE  H16S16858   6.108   5.253   8.101 -0.4539 -1.8126 -1.2016
  152SAPE  C21716859   6.202   5.257   8.302 -0.1814  0.2933 -0.3900
  152SAPE  H17R16860   6.302   5.238   8.347 -0.6092  0.3565  0.6087
  152SAPE  H17S16861   6.123   5.200   8.356  3.2729 -0.9983  3.5876
  152SAPE  C21816862   6.186   5.401   8.332 -0.0410  0.0442  0.4203
  152SAPE  H18R16863   6.092   5.431   8.281 -1.0756 -2.5441  0.7115
  152SAPE  H18S16864   6.267   5.462   8.288 -0.6414 -0.8425 -2.0117
  152SAPE  C21916865   6.176   5.425   8.481  0.4464  0.5013  0.4792
  152SAPE  H19R16866   6.278   5.404   8.520  1.3210 -0.4119 -2.1516
  152SAPE  H19S16867   6.094   5.362   8.521 -1.9017  3.1353 -0.0426
  152SAPE  C22016868   6.141   5.569   8.506  0.5776  0.6553 -0.4415
  152SAPE  H20R16869   6.220   5.621   8.448  0.8621  1.1778  0.4067
  152SAPE  H20S16870   6.146   5.575   8.617 -0.3645 -3.5169 -0.0672
  152SAPE  H20T16871   6.037   5.596   8.479 -0.1259 -1.0055  0.5148
  152SAPE   C3316872   6.131   4.780   6.914  1.0132 -0.6160 -0.3590
  152SAPE   H3X16873   6.056   4.861   6.923 -0.0896 -1.5861 -0.6578
  152SAPE   H3Y16874   6.227   4.820   6.954  1.1007  2.4938 -3.4261
  152SAPE   C3416875   6.087   4.669   7.007 -0.3371  0.0773 -1.1106
  152SAPE   H4X16876   6.149   4.577   7.001  0.2887  0.3946  0.2257
  152SAPE   H4Y16877   5.982   4.638   6.990 -0.3346 -0.2459 -0.5804
  152SAPE   C3516878   6.090   4.711   7.154  0.5215 -0.1197  0.0904
  152SAPE   H5X16879   6.010   4.786   7.174  0.4567 -0.0227 -0.5298
  152SAPE   H5Y16880   6.187   4.762   7.169  0.7303 -0.2694 -0.7768
  152SAPE   C3616881   6.087   4.586   7.248  0.0424 -0.2173 -0.4607
  152SAPE   H6X16882   6.174   4.519   7.230  1.7394  1.8674 -0.1288
  152SAPE   H6Y16883   6.000   4.529   7.206 -0.5682  0.2548  0.1507
  152SAPE   C3716884   6.055   4.619   7.394  0.5880 -0.6140 -0.4217
  152SAPE   H7X16885   6.022   4.535   7.458 -0.4933  1.2087  1.4828
  152SAPE   H7Y16886   5.966   4.685   7.399  0.6424 -0.6570  1.3805
  152SAPE   C3816887   6.168   4.708   7.459  0.3216 -0.7452  1.0801
  152SAPE   H8X16888   6.184   4.792   7.388 -1.2266 -1.3027  0.0303
  152SAPE   H8Y16889   6.263   4.650   7.468  1.4090  1.2554  2.7212
  152SAPE   C3916890   6.131   4.765   7.593 -0.3383 -0.2444  0.5197
  152SAPE   H9X16891   6.038   4.824   7.579 -1.5254 -2.1952  0.0011
  152SAPE   H9Y16892   6.204   4.842   7.629 -1.7246  0.8079  1.1377
  152SAPE  C31016893   6.102   4.663   7.702 -0.0783  0.2021 -0.0383
  152SAPE  H10X16894   6.169   4.574   7.701  1.3418  1.2593 -0.6864
  152SAPE  H10Y16895   6.003   4.621   7.674 -0.1066 -0.5504  1.1471
  152SAPE  C31116896   6.079   4.730   7.845  0.7354  0.4254  0.6621
  152SAPE  H11X16897   5.994   4.802   7.840  1.0856  0.9072  1.6176
  152SAPE  H11Y16898   6.167   4.793   7.868  1.0821 -0.2945  1.3311
  152SAPE  C31216899   6.051   4.630   7.962 -0.0277  0.1597  0.1967
  152SAPE  H12X16900   6.135   4.561   7.987  1.0618  0.7610 -1.6690
  152SAPE  H12Y16901   5.964   4.566   7.936  0.4040 -0.7817  1.0322
  152SAPE  C31316902   6.017   4.704   8.089 -0.6130 -0.2602 -0.7053
  152SAPE  H13X16903   6.011   4.624   8.166 -0.8662 -0.8941 -1.3773
  152SAPE  H13Y16904   5.923   4.759   8.070 -0.6988 -1.3578 -3.6614
  152SAPE  C31416905   6.128   4.806   8.139  0.4657 -0.4140  0.4370
  152SAPE  H14X16906   6.106   4.899   8.083  0.5515 -1.3553 -1.1986
  152SAPE  H14Y16907   6.233   4.792   8.107  0.1019 -1.5912 -0.2726
  152SAPE  C31516908   6.105   4.833   8.292 -0.2457  0.3564  0.1743
  152SAPE  H15X16909   6.208   4.840   8.333 -1.2254  2.9153  2.3779
  152SAPE  H15Y16910   6.062   4.738   8.330  2.7814 -1.8725 -1.8114
  152SAPE  C31616911   5.999   4.940   8.320 -0.2613 -0.1166  0.0944
  152SAPE  H16X16912   5.907   4.905   8.268  1.5214 -1.1570 -2.4696
  152SAPE  H16Y16913   6.018   5.033   8.262 -1.2971 -0.6483 -1.1127
  152SAPE  C31716914   5.974   4.957   8.470 -0.1550  0.0150  0.3547
  152SAPE  H17X16915   6.066   5.012   8.498 -0.0633 -0.1930  0.4621
  152SAPE  H17Y16916   5.984   4.858   8.519  0.0410  0.1169  0.5203
  152SAPE  C31816917   5.839   5.025   8.496 -0.0945 -0.1426  0.1874
  152SAPE  H18X16918   5.831   5.126   8.451  1.4007  0.7433  1.8488
  152SAPE  H18Y16919   5.839   5.038   8.606 -0.2913  0.3029  0.1334
  152SAPE  H18Z16920   5.748   4.965   8.471  0.0263  0.4039 -1.6408
  153SAPE     N16921   3.536   5.620   6.177  0.4484 -0.2192  0.2390
  153SAPE   HN116922   3.541   5.553   6.257  1.4943  0.2789  0.5963
  153SAPE   HN216923   3.622   5.679   6.176 -0.1611  0.6884  0.6714
  153SAPE   HN316924   3.458   5.685   6.199  0.2244 -0.7529  1.0763
  153SAPE   C1216925   3.502   5.563   6.042  1.2633 -0.0299  0.2019
  153SAPE  H12A16926   3.575   5.481   6.027 -0.3521 -1.3728 -0.3379
  153SAPE  H12B16927   3.516   5.648   5.971 -1.3952 -0.7732 -1.2680
  153SAPE   C1116928   3.363   5.507   6.042  0.4003 -0.2568 -0.4793
  153SAPE  H11A16929   3.334   5.486   5.937 -1.8002  1.3676 -0.2238
  153SAPE  H11B16930   3.291   5.585   6.074  2.1734  0.7145  1.2276
  153SAPE     P16931   3.300   5.406   6.287  0.0617  0.4516 -0.0821
  153SAPE   O1316932   3.198   5.309   6.307 -0.1462  0.2017 -0.5554
  153SAPE   O1416933   3.423   5.399   6.367  0.2546 -0.0892  0.0190
  153SAPE   O1216934   3.351   5.395   6.140  0.7488 -0.2364  0.4629
  153SAPE   O1116935   3.244   5.547   6.304  0.2110  0.6221  0.7389
  153SAPE    C116936   3.115   5.586   6.344 -0.3189  0.1214 -0.7167
  153SAPE    HA16937   3.088   5.673   6.279 -2.9344  0.5127  0.8315
  153SAPE    HB16938   3.039   5.508   6.325  0.6480 -0.9086 -0.4057
  153SAPE    C216939   3.110   5.638   6.500  0.1327 -0.2053 -0.3130
  153SAPE    HS16940   3.168   5.732   6.508  0.3692 -0.1492 -2.3493
  153SAPE   O2116941   3.161   5.536   6.587  0.1772  0.6629  0.2130
  153SAPE   C2116942   3.231   5.568   6.702 -0.6321 -0.7026 -0.4594
  153SAPE   O2216943   3.245   5.681   6.740  0.3669  0.1630 -0.3430
  153SAPE   C2216944   3.290   5.442   6.770 -0.5210  0.4237  0.5703
  153SAPE   H2R16945   3.208   5.371   6.792  0.3546 -0.5748  0.6398
  153SAPE   H2S16946   3.363   5.400   6.697  2.1868  0.4189  3.1792
  153SAPE    C316947   2.964   5.666   6.535  0.9447  0.1734 -0.4884
  153SAPE    HX16948   2.917   5.571   6.503  1.4377 -0.7454  1.4095
  153SAPE    HY16949   2.924   5.745   6.469  1.1186  2.2831  1.8236
  153SAPE   O3116950   2.943   5.689   6.679 -0.1160  0.8358  0.4302
  153SAPE   C3116951   2.933   5.823   6.706  0.3364 -0.0785  0.2786
  153SAPE   O3216952   2.934   5.912   6.627  0.6081 -0.3204 -0.1171
  153SAPE   C3216953   2.910   5.845   6.857  0.0633  0.6832  0.2776
  153SAPE   H2X16954   2.804   5.823   6.880  0.1560  0.3234  0.3743
  153SAPE   H2Y16955   2.921   5.954   6.871  0.0706  0.5723  1.1634
  153SAPE   C2316956   3.361   5.474   6.898 -0.4262  0.1461  0.6459
  153SAPE   H3R16957   3.411   5.573   6.895 -0.9940  0.4205 -0.1507
  153SAPE   H3S16958   3.442   5.398   6.894 -0.2734  0.2944  0.9547
  153SAPE   C2416959   3.284   5.459   7.031  0.0110 -0.1507  0.3190
  153SAPE   H4R16960   3.279   5.356   7.071  0.1075 -0.1108  0.4337
  153SAPE   H4S16961   3.184   5.505   7.013  0.0258  0.2726  1.2984
  153SAPE   C2516962   3.342   5.543   7.132  0.1571 -0.1323  0.1366
  153SAPE   H5R16963   3.383   5.638   7.095 -0.7877 -0.3180 -1.4388
  153SAPE   C2616964   3.361   5.523   7.265  0.4652 -0.4449  0.5358
  153SAPE   H6R16965   3.408   5.604   7.323 -1.1745  0.6347  0.3839
  153SAPE   C2716966   3.317   5.398   7.338 -1.0287 -1.0253  0.1754
  153SAPE   H7R16967   3.402   5.327   7.329  0.2909  0.7468 -2.1900
  153SAPE   H7S16968   3.222   5.360   7.296 -0.9778 -1.3469  0.3533
  153SAPE   C2816969   3.299   5.410   7.495  0.0619 -0.5475  0.3837
  153SAPE   H8R16970   3.196   5.417   7.534 -0.4273  0.3417 -1.0096
  153SAPE   C2916971   3.401   5.425   7.582  0.5395  0.2007  0.0388
  153SAPE   H9R16972   3.377   5.428   7.689  0.3923  1.1319 -0.0169
  153SAPE  C21016973   3.551   5.431   7.542  1.4098  0.2432 -0.7154
  153SAPE  H10R16974   3.568   5.393   7.439  0.4587  0.4751 -0.9654
  153SAPE  H10S16975   3.608   5.354   7.599  0.7327 -1.9283 -2.9148
  153SAPE  C21116976   3.615   5.574   7.537  0.5646  0.2542 -0.0769
  153SAPE  H11R16977   3.636   5.612   7.436  1.3083 -1.7766 -0.7112
  153SAPE  C21216978   3.646   5.652   7.641 -0.0859  0.2808 -0.0512
  153SAPE  H12R16979   3.698   5.748   7.625 -0.6813  1.2630  3.5087
  153SAPE  C21316980   3.630   5.607   7.787  0.4682  0.1809  0.6082
  153SAPE  H13R16981   3.536   5.548   7.793  0.3563  0.3778  0.8277
  153SAPE  H13S16982   3.599   5.698   7.844 -0.6894  0.9453 -1.1955
  153SAPE  C21416983   3.752   5.546   7.849 -0.1980  0.0851 -0.6730
  153SAPE  H14R16984   3.844   5.583   7.802  0.4237  0.0860  0.5414
  153SAPE  C21516985   3.760   5.456   7.951  0.4772  0.0032  0.2648
  153SAPE  H15R16986   3.861   5.429   7.985 -0.5041 -1.6831  1.9155
  153SAPE  C21616987   3.641   5.398   8.030  0.1297  0.5507  0.0039
  153SAPE  H16R16988   3.618   5.292   8.005 -0.3961  0.6291  0.1305
  153SAPE  H16S16989   3.547   5.456   8.014  0.7968  1.5782 -0.2305
  153SAPE  C21716990   3.665   5.401   8.185  0.8609  0.6410  0.4137
  153SAPE  H17R16991   3.745   5.329   8.212  2.0052  1.6866 -0.1413
  153SAPE  H17S16992   3.565   5.380   8.228 -0.3565  1.6628 -1.8133
  153SAPE  C21816993   3.715   5.531   8.240 -0.1510 -0.6270 -0.2769
  153SAPE  H18R16994   3.623   5.592   8.229 -0.2527 -0.3178  1.9657
  153SAPE  H18S16995   3.804   5.570   8.188 -0.7749  0.1541 -0.7677
  153SAPE  C21916996   3.754   5.512   8.386  0.5976 -0.3892 -0.4660
  153SAPE  H19R16997   3.833   5.435   8.395  0.9737  0.2000  1.4318
  153SAPE  H19S16998   3.672   5.464   8.443  2.2467 -1.5370  0.9552
  153SAPE  C22016999   3.793   5.648   8.449  0.3085 -0.1263 -0.3708
  153SAPE  H20R17000   3.806   5.633   8.559 -0.5663 -3.3391 -0.6674
  153SAPE  H20S17001   3.722   5.733   8.438 -0.2821 -0.5578  0.0135
  153SAPE  H20T17002   3.892   5.686   8.418 -0.7087  1.7805 -1.3359
  153SAPE   C3317003   3.007   5.773   6.959 -0.3766  0.7425 -0.1042
  153SAPE   H3X17004   3.113   5.796   6.933 -0.5632 -0.6271 -2.2339
  153SAPE   H3Y17005   2.990   5.663   6.957  0.5746  0.5407  1.4503
  153SAPE   C3417006   2.980   5.829   7.104  0.1139  0.5718 -0.7293
  153SAPE   H4X17007   2.873   5.823   7.133  0.0158 -1.4217 -1.4287
  153SAPE   H4Y17008   3.018   5.933   7.099 -0.6738  1.0006  1.4596
  153SAPE   C3517009   3.054   5.755   7.215  1.3191 -0.6098 -0.2479
  153SAPE   H5X17010   3.160   5.763   7.182  0.6011 -2.7694 -3.3215
  153SAPE   H5Y17011   3.033   5.645   7.218 -2.5558  0.1115  1.9656
  153SAPE   C3617012   3.034   5.812   7.348  0.3551 -0.4525 -0.1085
  153SAPE   H6X17013   2.937   5.780   7.393  0.9475 -2.0485  0.0621
  153SAPE   H6Y17014   3.049   5.921   7.335 -1.1600 -0.2555 -0.3703
  153SAPE   C3717015   3.138   5.758   7.445 -0.6988 -1.0971  0.0878
  153SAPE   H7X17016   3.240   5.782   7.408 -0.7461 -0.4766  0.3565
  153SAPE   H7Y17017   3.135   5.649   7.464  0.5677 -1.0753  0.4507
  153SAPE   C3817018   3.131   5.823   7.586  0.6229 -0.7524  0.2092
  153SAPE   H8X17019   3.029   5.811   7.629 -0.4464  0.6998 -1.8574
  153SAPE   H8Y17020   3.138   5.933   7.586  1.0353 -0.7732  1.7010
  153SAPE   C3917021   3.236   5.764   7.674  0.1031  0.1829 -0.0712
  153SAPE   H9X17022   3.331   5.820   7.659  2.3271 -3.0402  1.3193
  153SAPE   H9Y17023   3.250   5.657   7.648 -0.6051  0.3068 -1.0012
  153SAPE  C31017024   3.202   5.775   7.827  0.2597 -0.0612 -0.5782
  153SAPE  H10X17025   3.094   5.754   7.842 -0.0596  1.6159 -0.4010
  153SAPE  H10Y17026   3.210   5.882   7.854  0.7004 -0.7514  2.1230
  153SAPE  C31117027   3.291   5.687   7.923 -0.6928  0.0704 -0.0303
  153SAPE  H11X17028   3.387   5.742   7.926 -0.6959  0.0913 -0.2764
  153SAPE  H11Y17029   3.311   5.586   7.879 -1.7884  0.0105 -0.4046
  153SAPE  C31217030   3.234   5.692   8.065 -0.5631 -0.7476 -0.4869
  153SAPE  H12X17031   3.151   5.618   8.066 -1.0602 -0.1761  0.0496
  153SAPE  H12Y17032   3.188   5.790   8.089  1.2261 -0.0799  0.2686
  153SAPE  C31317033   3.335   5.653   8.175 -0.5259  0.0134 -0.0465
  153SAPE  H13X17034   3.404   5.738   8.187 -1.0637  0.6507 -1.2850
  153SAPE  H13Y17035   3.400   5.567   8.147 -0.1510 -0.0512  1.0298
  153SAPE  C31417036   3.285   5.642   8.319 -0.2796  0.3391 -0.0746
  153SAPE  H14X17037   3.200   5.572   8.334 -0.6513  0.6974 -0.4946
  153SAPE  H14Y17038   3.259   5.739   8.367 -1.7858 -0.9867  1.9177
  153SAPE  C31517039   3.402   5.592   8.415  0.7543  1.1051  0.1386
  153SAPE  H15X17040   3.491   5.658   8.407  1.0572  0.4334 -2.5792
  153SAPE  H15Y17041   3.444   5.494   8.384 -2.2143 -1.0785  2.6577
  153SAPE  C31617042   3.368   5.591   8.566 -0.0110 -0.7079  0.2089
  153SAPE  H16X17043   3.269   5.541   8.581  0.0030 -1.2029 -1.2697
  153SAPE  H16Y17044   3.350   5.697   8.596 -2.4244 -1.0666  0.1608
  153SAPE  C31717045   3.481   5.545   8.659 -0.4472  0.5536  0.0061
  153SAPE  H17X17046   3.568   5.601   8.619 -0.4692  1.6066  1.3983
  153SAPE  H17Y17047   3.497   5.436   8.674 -0.7395  0.7671  2.0081
  153SAPE  C31817048   3.471   5.593   8.802  0.0525  0.7572 -0.2189
  153SAPE  H18X17049   3.481   5.704   8.805 -0.0698  0.7671 -0.1791
  153SAPE  H18Y17050   3.550   5.550   8.867 -1.0554 -0.4840  0.3340
  153SAPE  H18Z17051   3.374   5.566   8.848  0.0721  3.1033  1.2753
  154SAPE     N17052   1.351   3.998   5.793  0.4411  0.4563  0.0159
  154SAPE   HN117053   1.315   4.058   5.717  0.7733  2.1467  1.1661
  154SAPE   HN217054   1.364   3.901   5.757 -0.1070  0.3257  0.1667
  154SAPE   HN317055   1.275   3.995   5.864  1.1503  1.7819  0.8436
  154SAPE   C1217056   1.477   4.045   5.847 -0.1999  0.1405 -0.9969
  154SAPE  H12A17057   1.461   4.149   5.882 -1.4725 -0.7376  1.1944
  154SAPE  H12B17058   1.559   4.031   5.774  0.7287 -0.0557  0.0693
  154SAPE   C1117059   1.517   3.958   5.969 -0.7001 -0.1790 -0.0259
  154SAPE  H11A17060   1.608   4.001   6.016 -1.1231 -1.1043  1.6876
  154SAPE  H11B17061   1.531   3.853   5.936  1.8245 -0.4342  1.7659
  154SAPE     P17062   1.431   3.903   6.212 -0.1758 -0.3265  0.0495
  154SAPE   O1317063   1.314   3.817   6.230  0.1194 -0.1116  0.2187
  154SAPE   O1417064   1.564   3.842   6.226 -0.1562  0.0126 -0.3176
  154SAPE   O1217065   1.420   3.959   6.067 -0.2907 -0.1906 -0.3309
  154SAPE   O1117066   1.422   4.033   6.308 -0.2872 -0.0027  0.5837
  154SAPE    C117067   1.353   4.155   6.256 -0.1060  0.4482 -0.1708
  154SAPE    HA17068   1.427   4.237   6.248  0.7615 -0.3512 -0.5086
  154SAPE    HB17069   1.309   4.146   6.154  1.2798  0.6027 -0.7983
  154SAPE    C217070   1.227   4.191   6.341  0.5265  0.1322  0.0645
  154SAPE    HS17071   1.170   4.274   6.296 -0.2928  0.2195  1.2704
  154SAPE   O2117072   1.271   4.237   6.471 -0.3090 -0.0568  0.8305
  154SAPE   C2117073   1.318   4.360   6.480 -0.0055  0.0982 -0.0488
  154SAPE   O2217074   1.321   4.438   6.383 -0.6657  0.3885  0.3138
  154SAPE   C2217075   1.376   4.395   6.613 -0.3933  0.1358  0.1074
  154SAPE   H2R17076   1.299   4.458   6.661 -1.0544 -0.2342 -0.4585
  154SAPE   H2S17077   1.387   4.299   6.667 -0.4631  0.0283 -0.0698
  154SAPE    C317078   1.130   4.070   6.359 -0.4062  0.4203 -0.0536
  154SAPE    HX17079   1.186   3.982   6.397 -1.8358  0.4239  2.1904
  154SAPE    HY17080   1.091   4.028   6.264  2.5937 -1.4944 -0.5047
  154SAPE   O3117081   1.025   4.106   6.448 -0.1633  0.4402 -0.1667
  154SAPE   C3117082   0.968   4.007   6.520  0.1380 -0.5180 -0.5363
  154SAPE   O3217083   0.977   3.889   6.489 -0.3669  0.6515  0.2970
  154SAPE   C3217084   0.903   4.069   6.641 -0.1351 -0.1535 -0.4265
  154SAPE   H2X17085   0.812   4.116   6.597 -1.9309  1.4197  4.5923
  154SAPE   H2Y17086   0.964   4.153   6.680 -0.8432  0.2033 -0.0724
  154SAPE   C2317087   1.514   4.475   6.597 -0.2757  0.5553  0.4139
  154SAPE   H3R17088   1.516   4.544   6.510  2.0688  2.4001  1.8615
  154SAPE   H3S17089   1.593   4.402   6.568 -1.5790 -0.5950 -0.2661
  154SAPE   C2417090   1.548   4.550   6.729  0.3927 -0.3115  0.8149
  154SAPE   H4R17091   1.654   4.581   6.714 -0.5910  1.2672 -3.3992
  154SAPE   H4S17092   1.558   4.471   6.807  1.0594 -0.8917  0.1473
  154SAPE   C2517093   1.474   4.678   6.749  1.1621  0.7602 -0.7036
  154SAPE   H5R17094   1.475   4.752   6.667 -0.1571  1.2046 -0.3376
  154SAPE   C2617095   1.392   4.698   6.848 -0.1068 -0.1516 -0.9807
  154SAPE   H6R17096   1.353   4.799   6.863  1.9234  0.1924  2.5781
  154SAPE   C2717097   1.365   4.600   6.964  0.1679  0.3679  0.6170
  154SAPE   H7R17098   1.374   4.500   6.916  1.3190 -0.3688  2.3259
  154SAPE   H7S17099   1.266   4.613   7.013 -0.0314  1.1711  0.0210
  154SAPE   C2817100   1.465   4.616   7.070  0.0377  0.1432 -0.6477
  154SAPE   H8R17101   1.567   4.637   7.034  0.8368  0.1049  1.4723
  154SAPE   C2917102   1.455   4.596   7.202  0.1901 -0.2568 -0.0177
  154SAPE   H9R17103   1.536   4.613   7.275 -0.3488 -0.2496  0.5837
  154SAPE  C21017104   1.330   4.540   7.268 -0.1924  0.1843  0.8549
  154SAPE  H10R17105   1.263   4.494   7.192  1.2059  0.5199 -0.6138
  154SAPE  H10S17106   1.274   4.626   7.310 -0.3934  0.4366  0.0748
  154SAPE  C21117107   1.351   4.440   7.381  0.3989 -0.4071 -0.4371
  154SAPE  H11R17108   1.355   4.334   7.354  3.5906 -0.1693 -1.1227
  154SAPE  C21217109   1.379   4.469   7.511 -0.0929 -0.1571 -0.1023
  154SAPE  H12R17110   1.404   4.385   7.577 -0.6644 -1.1864 -1.1764
  154SAPE  C21317111   1.386   4.611   7.563 -0.1615  0.0697  0.3601
  154SAPE  H13R17112   1.369   4.691   7.488  0.5678  1.7256  1.8938
  154SAPE  H13S17113   1.493   4.626   7.590 -0.2172  3.5241 -1.0051
  154SAPE  C21417114   1.302   4.629   7.693 -0.0834  0.3328  0.4127
  154SAPE  H14R17115   1.199   4.653   7.664  0.1298  0.9521  0.1554
  154SAPE  C21517116   1.337   4.629   7.820  0.3054  0.2620 -0.4764
  154SAPE  H15R17117   1.249   4.646   7.885 -1.0120 -0.9708 -1.8873
  154SAPE  C21617118   1.470   4.613   7.883 -0.0812  0.2057 -0.4427
  154SAPE  H16R17119   1.498   4.706   7.937  2.9484 -3.2615  4.3613
  154SAPE  H16S17120   1.542   4.589   7.802  0.1902  0.5635 -0.3064
  154SAPE  C21717121   1.497   4.500   7.985  0.5455 -0.2104 -0.0162
  154SAPE  H17R17122   1.604   4.497   8.013  0.3313  0.1530  0.8396
  154SAPE  H17S17123   1.462   4.408   7.932 -0.8966  0.6168 -0.5182
  154SAPE  C21817124   1.410   4.500   8.112 -1.1735 -0.5482 -0.8382
  154SAPE  H18R17125   1.309   4.466   8.081 -1.1585 -1.1785 -0.2046
  154SAPE  H18S17126   1.402   4.607   8.142  3.1379 -0.4863  0.5279
  154SAPE  C21917127   1.467   4.415   8.235  0.1204  0.2075 -0.0281
  154SAPE  H19R17128   1.570   4.447   8.262 -0.0828  1.4364 -0.6544
  154SAPE  H19S17129   1.464   4.309   8.200  0.7404  0.6163 -1.3664
  154SAPE  C22017130   1.376   4.431   8.356  0.2325  0.8310 -0.0631
  154SAPE  H20R17131   1.421   4.406   8.454  0.3160 -2.4821 -0.9043
  154SAPE  H20S17132   1.279   4.379   8.340  1.6628 -2.9769  2.9484
  154SAPE  H20T17133   1.360   4.541   8.358  0.0384  0.7848  1.5758
  154SAPE   C3317134   0.875   3.965   6.749  0.1647 -0.2938  0.1522
  154SAPE   H3X17135   0.971   3.929   6.791 -0.7716 -0.5095  2.1499
  154SAPE   H3Y17136   0.811   3.891   6.697  1.3017 -0.7519 -0.6251
  154SAPE   C3417137   0.812   4.041   6.864  0.0390  0.3632 -0.2292
  154SAPE   H4X17138   0.722   4.099   6.834 -2.4620 -3.1111  0.2326
  154SAPE   H4Y17139   0.882   4.113   6.912  0.9006 -0.8661  0.4059
  154SAPE   C3517140   0.758   3.946   6.968  0.0303  0.4379 -0.1972
  154SAPE   H5X17141   0.820   3.854   6.973 -1.6906 -0.7043  0.2801
  154SAPE   H5Y17142   0.666   3.892   6.938  1.1133 -1.1025 -0.7968
  154SAPE   C3617143   0.754   4.001   7.112 -0.3412 -1.1177  0.7219
  154SAPE   H6X17144   0.681   4.082   7.133  2.2419  1.0630  1.4672
  154SAPE   H6Y17145   0.849   4.055   7.131 -1.8389  2.0502 -0.5451
  154SAPE   C3717146   0.732   3.884   7.212  0.0933 -0.2398  0.6570
  154SAPE   H7X17147   0.810   3.807   7.192  1.8622  1.2296  1.7617
  154SAPE   H7Y17148   0.632   3.837   7.197 -0.0554  0.4901 -0.7462
  154SAPE   C3817149   0.749   3.939   7.352  0.1565 -0.4324  0.0919
  154SAPE   H8X17150   0.667   4.013   7.360  0.1378 -0.3472 -0.8237
  154SAPE   H8Y17151   0.844   3.995   7.366 -0.7567  1.1935 -0.1507
  154SAPE   C3917152   0.726   3.835   7.459  0.5270  0.1294 -0.5584
  154SAPE   H9X17153   0.816   3.769   7.460  0.0981 -0.4824  1.5028
  154SAPE   H9Y17154   0.641   3.766   7.441  1.2212 -1.0022  0.3388
  154SAPE  C31017155   0.706   3.896   7.599 -0.2273 -0.7114 -0.2332
  154SAPE  H10X17156   0.624   3.971   7.595  0.6846  0.6668  3.6959
  154SAPE  H10Y17157   0.792   3.959   7.633 -0.9372  0.1010  0.0758
  154SAPE  C31117158   0.686   3.789   7.707 -0.5088  0.1081 -0.1498
  154SAPE  H11X17159   0.771   3.717   7.706  1.9986  2.9674  0.3955
  154SAPE  H11Y17160   0.604   3.722   7.673  0.4895 -0.3474 -1.6974
  154SAPE  C31217161   0.671   3.862   7.842  0.3709  0.1495 -0.9856
  154SAPE  H12X17162   0.580   3.922   7.820 -0.4144  0.1516  2.0905
  154SAPE  H12Y17163   0.760   3.928   7.851 -1.3986  2.4084  0.6356
  154SAPE  C31317164   0.643   3.772   7.962  0.1232 -1.2832  0.2578
  154SAPE  H13X17165   0.710   3.685   7.944  1.8593  0.2826 -1.0226
  154SAPE  H13Y17166   0.538   3.737   7.970  0.3410 -1.9905  0.0119
  154SAPE  C31417167   0.698   3.842   8.089 -0.0730  0.0245  1.4140
  154SAPE  H14X17168   0.615   3.898   8.138 -0.2522  0.2030  0.9155
  154SAPE  H14Y17169   0.776   3.918   8.070  0.7920 -0.6377  2.2816
  154SAPE  C31517170   0.739   3.745   8.199 -0.3047  0.0163 -0.5219
  154SAPE  H15X17171   0.819   3.677   8.163 -0.1596 -0.0243 -0.1219
  154SAPE  H15Y17172   0.647   3.686   8.219  0.0938 -0.5675 -0.3963
  154SAPE  C31617173   0.783   3.813   8.324 -0.3838 -0.3356 -0.0467
  154SAPE  H16X17174   0.685   3.852   8.360  0.1823  0.3302  0.7815
  154SAPE  H16Y17175   0.866   3.887   8.321  1.5465 -2.5077 -1.2521
  154SAPE  C31717176   0.827   3.712   8.442 -0.6886 -0.4701 -0.0970
  154SAPE  H17X17177   0.912   3.648   8.409 -0.0629  0.8015 -0.9832
  154SAPE  H17Y17178   0.743   3.643   8.468 -1.1901  0.6001  1.1158
  154SAPE  C31817179   0.868   3.791   8.569 -0.0277 -0.0903 -0.1300
  154SAPE  H18X17180   0.792   3.772   8.647 -0.9005  0.4417 -0.8449
  154SAPE  H18Y17181   0.878   3.901   8.563 -2.0039  0.2367  1.9683
  154SAPE  H18Z17182   0.964   3.749   8.607 -0.1392  1.1026  1.4725
  155SAPE     N17183   0.769   5.219   6.075 -0.1802 -0.2484 -0.4627
  155SAPE   HN117184   0.714   5.207   5.988  0.9747 -0.5310 -1.1563
  155SAPE   HN217185   0.868   5.187   6.071  0.8164  2.3406  1.8193
  155SAPE   HN317186   0.733   5.159   6.152  0.5485  0.5372  0.5174
  155SAPE   C1217187   0.750   5.356   6.133  0.0431 -0.1254 -0.2289
  155SAPE  H12A17188   0.642   5.382   6.130  0.2248  0.9293  1.4944
  155SAPE  H12B17189   0.806   5.433   6.075 -0.6731 -0.6508 -1.6273
  155SAPE   C1117190   0.788   5.365   6.273  0.1956 -0.4651 -0.3475
  155SAPE  H11A17191   0.717   5.304   6.332 -1.4969  2.6558  0.9555
  155SAPE  H11B17192   0.772   5.462   6.323  0.6602 -0.6115  0.0862
  155SAPE     P17193   1.039   5.399   6.335 -0.3098  0.0543  0.2181
  155SAPE   O1317194   1.155   5.327   6.290 -0.6194  0.0971  0.4498
  155SAPE   O1417195   1.025   5.541   6.285  0.1881 -0.0131 -0.3328
  155SAPE   O1217196   0.914   5.306   6.305 -0.2341  0.2638  0.2556
  155SAPE   O1117197   1.040   5.396   6.493  0.3441 -0.0165 -0.4105
  155SAPE    C117198   0.929   5.442   6.574 -0.4015 -0.0409 -0.1373
  155SAPE    HA17199   0.929   5.552   6.585  0.2703 -0.0571  0.0295
  155SAPE    HB17200   0.828   5.414   6.537  0.0854 -0.3932 -1.2189
  155SAPE    C217201   0.953   5.393   6.721  0.1953 -0.0223  0.6198
  155SAPE    HS17202   1.040   5.453   6.758 -0.9149  0.0422  3.2336
  155SAPE   O2117203   0.981   5.250   6.720 -0.1580  1.0104 -0.5124
  155SAPE   C2117204   1.056   5.209   6.822 -0.2300 -0.1561 -0.7493
  155SAPE   O2217205   1.118   5.278   6.897  0.3138  0.0846  0.5368
  155SAPE   C2217206   1.045   5.060   6.831  0.2402  0.4203  0.8381
  155SAPE   H2R17207   0.939   5.031   6.848 -0.0372  0.6014 -0.5039
  155SAPE   H2S17208   1.083   5.019   6.734  0.0977 -0.1160  1.0040
  155SAPE    C317209   0.832   5.437   6.814 -0.3397 -0.6253 -0.1223
  155SAPE    HX17210   0.735   5.409   6.768 -0.2931 -0.5422 -0.2700
  155SAPE    HY17211   0.839   5.547   6.801 -1.2726 -0.4105  1.0617
  155SAPE   O3117212   0.853   5.385   6.939  0.0285 -0.0055  0.7065
  155SAPE   C3117213   0.882   5.469   7.038  0.1948  0.5323  0.2343
  155SAPE   O3217214   0.893   5.588   7.040 -0.5054  0.0744  0.1076
  155SAPE   C3217215   0.909   5.382   7.160 -0.6060  0.1660  0.1531
  155SAPE   H2X17216   1.019   5.367   7.164 -0.6112 -0.2818 -1.2502
  155SAPE   H2Y17217   0.872   5.277   7.161  2.3923 -0.9399 -0.8770
  155SAPE   C2317218   1.131   4.983   6.931  0.0242 -0.1234  0.2911
  155SAPE   H3R17219   1.230   5.034   6.928 -1.7064  3.3118 -1.5637
  155SAPE   H3S17220   1.137   4.876   6.902 -0.3197  0.5073 -2.3038
  155SAPE   C2417221   1.077   4.996   7.070 -0.5552 -0.0381  0.6043
  155SAPE   H4R17222   0.977   4.947   7.073 -0.2772 -0.6989 -0.6765
  155SAPE   H4S17223   1.054   5.102   7.093 -0.3257 -0.0831  1.0358
  155SAPE   C2517224   1.163   4.918   7.167 -0.5712  0.1720 -0.7124
  155SAPE   H5R17225   1.244   4.859   7.122  1.3851  2.3322 -0.1488
  155SAPE   C2617226   1.145   4.926   7.304 -0.1756  0.2327 -0.0546
  155SAPE   H6R17227   1.199   4.858   7.372  0.2678 -0.1536 -0.7833
  155SAPE   C2717228   1.030   4.999   7.377  0.4138  0.2805 -0.6836
  155SAPE   H7R17229   0.982   5.070   7.306  1.0996  0.3609 -1.0648
  155SAPE   H7S17230   1.078   5.076   7.441  1.0429 -1.2673  0.7453
  155SAPE   C2817231   0.920   4.914   7.432 -0.2498  0.2951  0.8667
  155SAPE   H8R17232   0.854   4.864   7.359 -0.6445  0.1673  1.3083
  155SAPE   C2917233   0.903   4.898   7.564 -0.1401  0.6701 -0.1137
  155SAPE   H9R17234   0.827   4.830   7.606  0.9474 -0.3635  0.1924
  155SAPE  C21017235   0.991   4.951   7.667  0.0240 -0.4732 -0.3232
  155SAPE  H10R17236   0.963   5.056   7.690  2.0159  0.2138 -1.0001
  155SAPE  H10S17237   1.092   4.967   7.625  0.4606 -2.2197  0.0328
  155SAPE  C21117238   0.984   4.876   7.800  0.4483  0.2248  0.1448
  155SAPE  H11R17239   0.906   4.802   7.820 -0.7453  1.7175  1.0929
  155SAPE  C21217240   1.083   4.884   7.890 -0.0060  0.3981  0.0941
  155SAPE  H12R17241   1.074   4.823   7.980  1.8558 -0.9747 -0.6126
  155SAPE  C21317242   1.204   4.987   7.884  0.0662  0.5101  0.2935
  155SAPE  H13R17243   1.158   5.088   7.893  0.4816  0.7556 -0.3272
  155SAPE  H13S17244   1.238   4.979   7.779 -2.2098  1.3211 -0.5482
  155SAPE  C21417245   1.318   4.960   7.983  0.5531 -0.2479  0.6085
  155SAPE  H14R17246   1.416   4.938   7.938  0.4155  1.7428 -0.7524
  155SAPE  C21517247   1.311   4.965   8.116  0.0334  0.3839  0.1121
  155SAPE  H15R17248   1.401   4.946   8.176 -0.2746  1.4892  0.9449
  155SAPE  C21617249   1.190   4.988   8.207  0.7637 -0.1049  0.2027
  155SAPE  H16R17250   1.104   5.002   8.138 -0.5042  0.1663  1.8062
  155SAPE  H16S17251   1.193   5.082   8.266  0.8410 -0.1777  0.3136
  155SAPE  C21717252   1.168   4.863   8.300 -0.3268 -0.3246  0.2097
  155SAPE  H17R17253   1.181   4.776   8.232 -1.0949  1.0071 -1.6663
  155SAPE  H17S17254   1.060   4.871   8.327 -0.8961  1.6803 -2.5224
  155SAPE  C21817255   1.265   4.870   8.424 -0.0459  0.3177  0.2276
  155SAPE  H18R17256   1.261   4.974   8.462 -0.6022 -0.1523  1.4839
  155SAPE  H18S17257   1.374   4.857   8.407  0.1918  0.5691  1.5426
  155SAPE  C21917258   1.223   4.769   8.533  0.2158  0.4192 -0.9965
  155SAPE  H19R17259   1.299   4.749   8.612 -1.0120 -1.9732 -0.3661
  155SAPE  H19S17260   1.210   4.670   8.486 -0.7156  0.5331 -0.9845
  155SAPE  C22017261   1.078   4.806   8.583 -0.6447  0.3133  0.6194
  155SAPE  H20R17262   1.078   4.917   8.592  0.6929  0.5210 -1.7807
  155SAPE  H20S17263   1.049   4.770   8.684 -1.9291  1.2765  0.6051
  155SAPE  H20T17264   1.003   4.782   8.505 -0.4804 -0.6249  0.7351
  155SAPE   C3317265   0.862   5.446   7.295 -0.8988  0.3137  0.2043
  155SAPE   H3X17266   0.755   5.476   7.301 -0.5821  1.6160 -0.5867
  155SAPE   H3Y17267   0.922   5.538   7.308  0.1888 -0.5530  1.3570
  155SAPE   C3417268   0.904   5.361   7.415  0.3552 -0.6966  0.2660
  155SAPE   H4X17269   1.015   5.353   7.417  0.4053  0.2225  1.9465
  155SAPE   H4Y17270   0.869   5.257   7.400 -2.3128  0.1341  0.3927
  155SAPE   C3517271   0.844   5.413   7.550 -0.4306 -0.1570 -0.1680
  155SAPE   H5X17272   0.735   5.423   7.532 -0.3897  0.0579 -0.2932
  155SAPE   H5Y17273   0.885   5.511   7.580 -0.1837 -0.5625  0.8670
  155SAPE   C3617274   0.866   5.307   7.663  0.5799  0.1743  0.7302
  155SAPE   H6X17275   0.975   5.288   7.670  0.4395 -1.3433 -0.6426
  155SAPE   H6Y17276   0.810   5.213   7.640 -0.2721  0.3912  1.8883
  155SAPE   C3717277   0.812   5.361   7.793  0.5289  0.1079  0.5470
  155SAPE   H7X17278   0.702   5.355   7.800  0.7427 -2.6819  2.1837
  155SAPE   H7Y17279   0.831   5.470   7.793 -1.8873  0.5587  0.5394
  155SAPE   C3817280   0.871   5.282   7.914 -0.2574 -0.3416  0.3176
  155SAPE   H8X17281   0.982   5.287   7.921 -0.3377 -0.1397  1.4886
  155SAPE   H8Y17282   0.855   5.174   7.895  2.4446 -0.6401 -0.5755
  155SAPE   C3917283   0.809   5.318   8.043  0.3033  0.0096  0.4633
  155SAPE   H9X17284   0.699   5.306   8.046  0.0800  1.5838 -0.7642
  155SAPE   H9Y17285   0.803   5.428   8.059 -2.4336  0.7985 -4.8389
  155SAPE  C31017286   0.890   5.254   8.162 -0.2859 -0.6605  0.1833
  155SAPE  H10X17287   0.992   5.299   8.163 -1.0898  1.2035  0.7819
  155SAPE  H10Y17288   0.894   5.145   8.138 -0.2130 -0.7839  0.7505
  155SAPE  C31117289   0.821   5.254   8.301  0.4552 -0.0496  0.2579
  155SAPE  H11X17290   0.716   5.223   8.282  0.5093 -0.3258  0.4172
  155SAPE  H11Y17291   0.825   5.358   8.340  1.0448  0.1571 -0.3290
  155SAPE  C31217292   0.881   5.141   8.386 -0.1720 -1.0276  0.2784
  155SAPE  H12X17293   0.980   5.168   8.427  0.0456  2.5586 -2.3753
  155SAPE  H12Y17294   0.906   5.057   8.317  1.6434  0.9359 -1.5292
  155SAPE  C31317295   0.785   5.081   8.492 -0.3672  0.1784 -0.5822
  155SAPE  H13X17296   0.830   4.988   8.532 -0.5493  0.6652  0.7956
  155SAPE  H13Y17297   0.683   5.065   8.449  0.0920 -1.2391 -1.1763
  155SAPE  C31417298   0.764   5.188   8.609 -0.4358  0.3999 -0.3490
  155SAPE  H14X17299   0.734   5.290   8.578 -0.1106  1.2803  2.1525
  155SAPE  H14Y17300   0.859   5.190   8.666 -0.8278  0.1145  0.3172
  155SAPE  C31517301   0.665   5.142   8.719  0.9903 -0.0078  0.5785
  155SAPE  H15X17302   0.567   5.137   8.666  0.1535 -2.6032  2.3001
  155SAPE  H15Y17303   0.655   5.232   8.784 -0.8796  0.6822 -0.6053
  155SAPE  C31617304   0.703   5.012   8.793 -0.1593 -0.4583  0.0354
  155SAPE  H16X17305   0.662   4.922   8.743 -1.1464  0.6626 -1.1792
  155SAPE  H16Y17306   0.657   5.011   8.894  0.1595 -2.4644  0.1878
  155SAPE  C31717307   0.849   4.993   8.839 -0.2592 -0.3814  0.1327
  155SAPE  H17X17308   0.886   5.074   8.906 -0.7715 -2.1919  2.6661
  155SAPE  H17Y17309   0.914   4.997   8.749 -0.6298  1.1332 -0.0848
  155SAPE  C31817310   0.878   4.873   8.939 -0.4583  0.2232 -0.2130
  155SAPE  H18X17311   0.842   4.784   8.882  0.9982  1.1517 -2.6781
  155SAPE  H18Y17312   0.819   4.895   9.030  1.0772  0.9180  0.6247
  155SAPE  H18Z17313   0.987   4.859   8.956 -0.6582 -2.1173 -0.6566
  156SAPE     N17314   6.018   5.298   6.432  0.3414  0.5564  0.3764
  156SAPE   HN117315   6.091   5.303   6.358  0.2326 -0.2833  0.2076
  156SAPE   HN217316   6.047   5.227   6.503 -3.2128  0.5563  1.9101
  156SAPE   HN317317   5.931   5.271   6.383  0.9192  1.2656 -1.0810
  156SAPE   C1217318   6.014   5.428   6.507 -0.6979 -0.1247  0.4622
  156SAPE  H12A17319   6.120   5.443   6.539 -0.5723  1.0041 -0.4519
  156SAPE  H12B17320   5.948   5.424   6.596 -0.3792 -0.5555  0.6802
  156SAPE   C1117321   5.973   5.541   6.412 -0.1080  0.1289  0.2478
  156SAPE  H11A17322   5.983   5.632   6.474 -1.3741  0.6843 -0.3440
  156SAPE  H11B17323   5.866   5.524   6.385  0.5609 -0.0517 -2.4555
  156SAPE     P17324   6.061   5.671   6.196 -0.2561 -0.4106  0.1029
  156SAPE   O1317325   6.204   5.714   6.175 -0.0851  0.2748  0.2822
  156SAPE   O1417326   5.984   5.638   6.072 -0.2044  0.5017  0.1290
  156SAPE   O1217327   6.054   5.546   6.290 -0.6741  0.4464 -0.6339
  156SAPE   O1117328   5.969   5.779   6.269 -0.2266  0.0015  0.8337
  156SAPE    C117329   5.983   5.922   6.266 -0.3102  0.2400 -0.2691
  156SAPE    HA17330   6.064   5.958   6.200 -0.5044 -1.3388 -1.3891
  156SAPE    HB17331   5.891   5.966   6.222 -0.4924  0.9896  0.8221
  156SAPE    C217332   6.003   5.983   6.409 -0.5519  0.7133  0.5354
  156SAPE    HS17333   6.015   6.093   6.398 -0.4575  0.8666  2.1117
  156SAPE   O2117334   6.127   5.938   6.460 -0.2299 -0.1204  0.5425
  156SAPE   C2117335   6.236   5.987   6.408 -0.8452  0.4794  0.0155
  156SAPE   O2217336   6.254   6.059   6.310  0.6322 -0.2544 -0.5909
  156SAPE   C2217337   6.359   5.949   6.497 -0.4321 -0.4572  0.2286
  156SAPE   H2R17338   6.328   5.879   6.578 -0.3880 -1.1942 -0.3895
  156SAPE   H2S17339   6.434   5.896   6.434 -0.0215  1.1624 -0.6478
  156SAPE    C317340   5.888   5.944   6.500 -0.0918  0.5025  0.5269
  156SAPE    HX17341   5.881   5.834   6.512 -0.4663 -0.1253 -4.3304
  156SAPE    HY17342   5.794   5.981   6.452  0.5901  1.3455 -0.1976
  156SAPE   O3117343   5.913   6.008   6.630  0.4735  0.8837 -0.3248
  156SAPE   C3117344   5.973   5.936   6.726 -0.1551 -0.0948 -0.2901
  156SAPE   O3217345   6.000   5.817   6.730  0.4549 -0.2545 -0.0730
  156SAPE   C3217346   5.998   6.027   6.843 -0.1534  0.1914  0.9008
  156SAPE   H2X17347   5.905   6.086   6.862  0.3741  1.0607  0.8210
  156SAPE   H2Y17348   6.082   6.092   6.810 -1.0921  0.4856 -0.9826
  156SAPE   C2317349   6.437   6.067   6.561  0.3207  1.0226 -0.2143
  156SAPE   H3R17350   6.495   6.109   6.476 -0.2095  0.2913 -0.9455
  156SAPE   H3S17351   6.498   6.019   6.641 -1.9101  0.3825  1.1453
  156SAPE   C2417352   6.357   6.179   6.634 -0.9551 -0.0981 -1.2662
  156SAPE   H4R17353   6.269   6.140   6.689 -0.7115  0.2743 -0.6060
  156SAPE   H4S17354   6.319   6.238   6.548  0.4688 -1.8841 -3.1752
  156SAPE   C2517355   6.446   6.270   6.716  1.0550  0.2682  0.6001
  156SAPE   H5R17356   6.496   6.351   6.662  0.5232  0.6336  0.6598
  156SAPE   C2617357   6.453   6.275   6.856 -0.8269 -0.0574  0.1662
  156SAPE   H6R17358   6.524   6.346   6.900 -0.0820  0.0747 -1.2337
  156SAPE   C2717359   6.381   6.186   6.956 -0.2552 -0.1821 -0.0726
  156SAPE   H7R17360   6.286   6.164   6.902 -0.7943  1.5507  0.1509
  156SAPE   H7S17361   6.360   6.238   7.052  1.2415 -0.3069  0.3348
  156SAPE   C2817362   6.454   6.056   6.980  0.7029 -0.1699 -0.5039
  156SAPE   H8R17363   6.417   5.981   6.909 -0.4347  0.3926 -0.5295
  156SAPE   C2917364   6.538   6.024   7.081 -0.3954  0.1740  0.4209
  156SAPE   H9R17365   6.593   5.930   7.066 -0.7298  0.2863 -1.7372
  156SAPE  C21017366   6.584   6.116   7.201  0.1873  0.0433 -0.1174
  156SAPE  H10R17367   6.577   6.221   7.163  0.4282  0.5454  1.2093
  156SAPE  H10S17368   6.690   6.088   7.213  0.4292 -0.2726 -2.5937
  156SAPE  C21117369   6.495   6.088   7.320  0.3645 -0.2415 -0.1784
  156SAPE  H11R17370   6.418   6.011   7.305  0.7400 -0.6064 -0.2451
  156SAPE  C21217371   6.506   6.134   7.442 -0.1106 -0.2269 -0.3784
  156SAPE  H12R17372   6.435   6.103   7.521  0.2888 -0.7569 -0.2255
  156SAPE  C21317373   6.609   6.229   7.489 -0.4861 -0.2270 -0.7704
  156SAPE  H13R17374   6.567   6.330   7.506  3.7005  1.0552  2.9075
  156SAPE  H13S17375   6.692   6.233   7.415 -0.7646 -1.4717 -1.1648
  156SAPE  C21417376   6.687   6.200   7.617 -0.4040 -0.3746  0.1341
  156SAPE  H14R17377   6.781   6.147   7.596 -1.4885 -1.0473 -3.2700
  156SAPE  C21517378   6.646   6.204   7.744  0.0381 -0.1749  0.1282
  156SAPE  H15R17379   6.706   6.153   7.821  2.7325  0.2658 -1.6298
  156SAPE  C21617380   6.518   6.262   7.801 -0.2832  0.5377  0.8043
  156SAPE  H16R17381   6.427   6.200   7.784  0.2923  0.0159 -0.4352
  156SAPE  H16S17382   6.503   6.340   7.723  0.3674 -0.3821 -0.2557
  156SAPE  C21717383   6.525   6.344   7.932 -0.9601  0.1317 -0.3926
  156SAPE  H17R17384   6.427   6.396   7.939 -0.7646  0.3203  0.9725
  156SAPE  H17S17385   6.605   6.422   7.929 -3.0466  2.4067  1.3462
  156SAPE  C21817386   6.539   6.255   8.058  0.4156  0.0691 -0.0489
  156SAPE  H18R17387   6.649   6.240   8.069  0.6585 -0.3370 -2.6806
  156SAPE  H18S17388   6.506   6.154   8.024  1.8247  0.0735 -1.4932
  156SAPE  C21917389   6.468   6.291   8.187  1.0332 -0.6213  0.2547
  156SAPE  H19R17390   6.359   6.272   8.175  1.7404 -3.7906 -1.6727
  156SAPE  H19S17391   6.483   6.399   8.210  1.1677 -0.3221 -1.2142
  156SAPE  C22017392   6.531   6.218   8.307  0.4198  0.3487  0.8690
  156SAPE  H20R17393   6.532   6.109   8.285  0.8824  0.3291  0.9754
  156SAPE  H20S17394   6.481   6.240   8.404 -2.2197 -2.4430  0.2257
  156SAPE  H20T17395   6.637   6.247   8.325  0.8536  0.4024 -1.6934
  156SAPE   C3317396   6.021   5.958   6.980  0.0464  0.2370 -0.1908
  156SAPE   H3X17397   6.104   5.885   6.981 -0.8727 -0.8491  2.5411
  156SAPE   H3Y17398   5.933   5.897   7.010  0.3754 -1.1451 -2.0007
  156SAPE   C3417399   6.027   6.058   7.100 -0.6007 -0.0447 -0.0888
  156SAPE   H4X17400   5.941   6.127   7.114 -0.8918 -0.4191 -0.0163
  156SAPE   H4Y17401   6.118   6.120   7.083 -0.1368 -0.7278 -0.1100
  156SAPE   C3517402   6.040   5.984   7.239 -0.4056 -0.1900  0.3782
  156SAPE   H5X17403   6.135   5.927   7.230 -2.2380 -3.5189  1.2684
  156SAPE   H5Y17404   5.947   5.923   7.232 -0.4321 -0.2713  1.3364
  156SAPE   C3617405   6.030   6.074   7.363 -0.3544  0.3668  0.1427
  156SAPE   H6X17406   5.929   6.121   7.369 -1.1018 -0.6153 -3.4842
  156SAPE   H6Y17407   6.109   6.148   7.338 -1.8787  0.7555 -3.8833
  156SAPE   C3717408   6.053   5.982   7.487 -0.3749  0.6757 -0.1857
  156SAPE   H7X17409   6.151   5.930   7.488 -2.0186 -2.4928  2.6009
  156SAPE   H7Y17410   5.971   5.907   7.491  1.1791 -1.0266  0.4152
  156SAPE   C3817411   6.051   6.062   7.615 -0.4166  0.0126  0.0394
  156SAPE   H8X17412   6.061   5.994   7.703  1.4259  0.5630  0.2807
  156SAPE   H8Y17413   5.953   6.112   7.631 -1.3962 -1.2316 -1.8763
  156SAPE   C3917414   6.156   6.177   7.633  0.3523 -0.0426 -0.1112
  156SAPE   H9X17415   6.147   6.250   7.549  2.8608 -0.2398 -0.6063
  156SAPE   H9Y17416   6.262   6.144   7.634  0.4222  0.0018 -2.3497
  156SAPE  C31017417   6.131   6.264   7.763  0.4218 -0.3256  0.0555
  156SAPE  H10X17418   6.230   6.305   7.793  0.7194 -0.4773 -0.7310
  156SAPE  H10Y17419   6.100   6.194   7.843 -1.7089  1.2734  0.6654
  156SAPE  C31117420   6.025   6.371   7.742  0.7866 -0.3082  0.4512
  156SAPE  H11X17421   5.932   6.333   7.695  1.6087 -0.6920 -0.8781
  156SAPE  H11Y17422   6.075   6.448   7.680  0.8216 -1.1535 -0.5966
  156SAPE  C31217423   5.994   6.440   7.882  0.5061 -0.3920 -0.4266
  156SAPE  H12X17424   5.940   6.372   7.952  0.0351 -1.1773 -1.5443
  156SAPE  H12Y17425   5.909   6.506   7.855 -0.1168 -0.7359  0.6644
  156SAPE  C31317426   6.111   6.514   7.939  0.1491 -0.4882 -0.5739
  156SAPE  H13X17427   6.160   6.581   7.865 -0.6072 -1.3937 -1.9293
  156SAPE  H13Y17428   6.183   6.441   7.981 -0.9339 -0.9103  0.5799
  156SAPE  C31417429   6.073   6.607   8.055 -0.5083 -0.3616 -0.2105
  156SAPE  H14X17430   6.025   6.547   8.135 -0.1192  0.6428  0.7885
  156SAPE  H14Y17431   6.003   6.687   8.023  0.9024  1.0892  0.2746
  156SAPE  C31517432   6.187   6.692   8.106 -0.6263 -0.1206 -0.2457
  156SAPE  H15X17433   6.219   6.760   8.024  0.8559  0.7847  1.0568
  156SAPE  H15Y17434   6.272   6.627   8.132 -0.9891 -0.5172 -0.0460
  156SAPE  C31617435   6.162   6.758   8.240 -0.3483  0.4029 -0.1539
  156SAPE  H16X17436   6.116   6.859   8.236  3.9622  2.4635 -0.1099
  156SAPE  H16Y17437   6.268   6.782   8.265 -1.4134  3.7077  1.6049
  156SAPE  C31717438   6.096   6.660   8.340  0.0834 -0.2645  0.8855
  156SAPE  H17X17439   6.141   6.560   8.324  1.3185  0.4973 -0.4312
  156SAPE  H17Y17440   5.989   6.667   8.312  0.7421  0.7080 -1.4267
  156SAPE  C31817441   6.117   6.694   8.484 -0.1338 -0.2779 -0.0752
  156SAPE  H18X17442   6.220   6.670   8.518  0.1905  0.4949 -0.4849
  156SAPE  H18Y17443   6.062   6.620   8.547 -3.0548  0.1304 -2.0607
  156SAPE  H18Z17444   6.092   6.799   8.511  0.4701 -0.2123  0.2430
  157SAPE     N17445   3.589   0.094   5.928  0.1064  0.3631 -0.7933
  157SAPE   HN117446   3.487   0.103   5.946  0.2907 -1.9673  1.7711
  157SAPE   HN217447   3.599   0.104   5.825 -0.9415  1.6531 -0.7825
  157SAPE   HN317448   3.609  -0.002   5.960  1.5184  1.2174  0.9811
  157SAPE   C1217449   3.674   0.200   5.998 -0.0944 -0.0839 -0.5678
  157SAPE  H12A17450   3.774   0.191   5.951 -0.0385  0.8178 -0.6253
  157SAPE  H12B17451   3.676   0.181   6.108  0.5876 -0.3974 -0.6311
  157SAPE   C1117452   3.620   0.343   5.962  0.1877  0.4486 -0.3645
  157SAPE  H11A17453   3.612   0.356   5.852 -0.7396 -0.0549 -0.3668
  157SAPE  H11B17454   3.685   0.427   5.994 -0.4250  1.3695 -1.5430
  157SAPE     P17455   3.434   0.469   6.108  0.3012  0.2791  0.4000
  157SAPE   O1317456   3.519   0.592   6.105 -0.0494 -0.1022 -0.5953
  157SAPE   O1417457   3.282   0.483   6.102 -0.0262  0.1090  0.2508
  157SAPE   O1217458   3.488   0.350   6.010  0.0973 -0.3571 -0.2914
  157SAPE   O1117459   3.481   0.406   6.244 -0.4192  0.0665  0.8938
  157SAPE    C117460   3.433   0.279   6.284 -0.6089  0.0752  0.3866
  157SAPE    HA17461   3.345   0.241   6.229  0.8541  1.2694 -2.9377
  157SAPE    HB17462   3.513   0.203   6.273  0.6095  1.4903 -0.8305
  157SAPE    C217463   3.404   0.296   6.439  0.4663 -0.3257  0.1145
  157SAPE    HS17464   3.316   0.364   6.444  0.6395 -0.2445  2.6211
  157SAPE   O2117465   3.517   0.347   6.513  0.1476 -0.4285 -0.4427
  157SAPE   C2117466   3.491   0.407   6.628 -0.3231  0.6612  0.7749
  157SAPE   O2217467   3.384   0.433   6.667 -0.1080  0.1879 -0.2411
  157SAPE   C2217468   3.614   0.441   6.706 -0.2686 -0.1973  0.5470
  157SAPE   H2R17469   3.663   0.535   6.674  0.6849 -1.2325 -1.0966
  157SAPE   H2S17470   3.576   0.451   6.810 -1.1148  0.6975  0.1472
  157SAPE    C317471   3.355   0.155   6.487 -0.0723  0.3146 -0.7082
  157SAPE    HX17472   3.438   0.082   6.473 -0.0841 -0.0213  0.8891
  157SAPE    HY17473   3.270   0.128   6.421 -0.6103 -1.5278  0.6858
  157SAPE   O3117474   3.311   0.153   6.624 -0.1252  0.0809  0.3372
  157SAPE   C3117475   3.176   0.175   6.638 -0.2595 -0.0017 -1.1528
  157SAPE   O3217476   3.101   0.202   6.548 -0.1269 -0.2052  0.5529
  157SAPE   C3217477   3.138   0.133   6.780  0.2871 -0.7023  0.0906
  157SAPE   H2X17478   3.155   0.024   6.787  1.2739 -0.5138  0.7722
  157SAPE   H2Y17479   3.030   0.156   6.792  0.5449  1.2074 -1.0592
  157SAPE   C2317480   3.711   0.325   6.716  0.0136 -0.3569 -0.4259
  157SAPE   H3R17481   3.804   0.353   6.769  1.0997 -1.1171 -1.8904
  157SAPE   H3S17482   3.743   0.301   6.612 -0.3912 -0.7409 -0.4664
  157SAPE   C2417483   3.647   0.209   6.790 -0.8001  0.5594 -0.1696
  157SAPE   H4R17484   3.709   0.118   6.778  1.5465  2.1612 -0.5990
  157SAPE   H4S17485   3.552   0.176   6.743  0.8701 -2.1243 -1.7889
  157SAPE   C2517486   3.623   0.231   6.940 -0.1979  0.1246  0.6328
  157SAPE   H5R17487   3.517   0.234   6.969 -1.5430 -1.3981 -3.7584
  157SAPE   C2617488   3.717   0.215   7.033  0.0887  0.8600 -0.5770
  157SAPE   H6R17489   3.692   0.257   7.131 -4.5358  0.5510 -1.5296
  157SAPE   C2717490   3.864   0.183   7.011  0.3395 -0.7146  0.0448
  157SAPE   H7R17491   3.903   0.240   6.924 -0.8473  0.3441  0.2051
  157SAPE   H7S17492   3.873   0.080   6.970  0.6411 -0.5132 -0.4061
  157SAPE   C2817493   3.957   0.208   7.127  0.4659 -0.2140  0.9811
  157SAPE   H8R17494   4.039   0.276   7.098  0.7428 -1.2102 -0.6687
  157SAPE   C2917495   3.941   0.163   7.247  0.6698 -0.0778 -0.4687
  157SAPE   H9R17496   4.029   0.174   7.312  0.1222 -2.9992  0.8530
  157SAPE  C21017497   3.820   0.081   7.304 -0.0555 -0.0455  0.0151
  157SAPE  H10R17498   3.778   0.027   7.216  0.0553  2.7018 -1.7593
  157SAPE  H10S17499   3.731   0.140   7.332 -1.6965 -1.1869 -2.5696
  157SAPE  C21117500   3.866  -0.011   7.411 -0.1985 -0.0955 -0.4725
  157SAPE  H11R17501   3.912  -0.104   7.374  1.6581 -0.2179  2.0554
  157SAPE  C21217502   3.859   0.012   7.545  0.0641 -0.3758  0.2663
  157SAPE  H12R17503   3.907  -0.056   7.617 -0.1587 -1.6298 -0.7560
  157SAPE  C21317504   3.797   0.135   7.617 -0.3922 -0.5470  0.7849
  157SAPE  H13R17505   3.722   0.096   7.689 -2.2344  0.9881 -0.2394
  157SAPE  H13S17506   3.730   0.194   7.549 -0.6187 -1.9574 -0.2299
  157SAPE  C21417507   3.911   0.218   7.670  0.2674  0.5116 -0.7278
  157SAPE  H14R17508   3.997   0.245   7.606  1.5602 -2.5821 -0.3996
  157SAPE  C21517509   3.921   0.255   7.799  0.2212  0.0313  1.1577
  157SAPE  H15R17510   4.004   0.318   7.834  1.1897  1.4807 -3.4137
  157SAPE  C21617511   3.819   0.234   7.903  0.0936  0.3129  0.5588
  157SAPE  H16R17512   3.722   0.204   7.858 -0.0133  1.0271  0.3134
  157SAPE  H16S17513   3.789   0.327   7.957 -2.5960 -1.2017  1.8192
  157SAPE  C21717514   3.859   0.139   8.012 -0.9273 -0.3283  0.2940
  157SAPE  H17R17515   3.786   0.146   8.095  0.2801  2.6390  1.1794
  157SAPE  H17S17516   3.950   0.180   8.059 -1.1452 -0.2059  0.6092
  157SAPE  C21817517   3.896  -0.007   7.972 -0.7649  0.4019 -0.7438
  157SAPE  H18R17518   4.000   0.001   7.934  0.0952  0.6384  1.5765
  157SAPE  H18S17519   3.836  -0.048   7.888 -1.0398 -0.9088  0.0781
  157SAPE  C21917520   3.900  -0.106   8.084  0.0800  0.4638 -0.0481
  157SAPE  H19R17521   3.927  -0.203   8.037  0.3463  0.3985  0.2413
  157SAPE  H19S17522   3.796  -0.117   8.121  0.2509  0.7755  0.5198
  157SAPE  C22017523   4.001  -0.086   8.195  0.8154  0.1929 -0.1429
  157SAPE  H20R17524   4.096  -0.047   8.151  1.5537 -0.3395  0.9421
  157SAPE  H20S17525   4.016  -0.177   8.257 -0.1730  0.0306 -0.1312
  157SAPE  H20T17526   3.967  -0.007   8.266 -2.7288  0.4356 -2.0279
  157SAPE   C3317527   3.230   0.208   6.879  0.2624 -1.0073 -0.2349
  157SAPE   H3X17528   3.220   0.318   6.864 -1.4996 -0.7638  2.2865
  157SAPE   H3Y17529   3.336   0.184   6.857  0.6994  1.6796 -1.2030
  157SAPE   C3417530   3.211   0.166   7.021  1.0924  1.0038 -0.4757
  157SAPE   H4X17531   3.275   0.076   7.029  2.1602  1.8318  0.3918
  157SAPE   H4Y17532   3.101   0.149   7.034  1.0997  0.4376 -1.1276
  157SAPE   C3517533   3.249   0.282   7.119  0.8117 -0.1185 -0.5073
  157SAPE   H5X17534   3.168   0.358   7.111  0.2065 -0.7869 -0.7163
  157SAPE   H5Y17535   3.345   0.324   7.082 -0.3727  1.6010 -1.7054
  157SAPE   C3617536   3.257   0.236   7.266  0.6103 -0.1575 -0.0986
  157SAPE   H6X17537   3.335   0.157   7.274  0.1990 -0.8277 -2.1827
  157SAPE   H6Y17538   3.158   0.203   7.304 -0.1271  2.7687  0.6325
  157SAPE   C3717539   3.292   0.340   7.374  0.4012  0.6591 -0.2296
  157SAPE   H7X17540   3.204   0.405   7.392  0.7552  0.8527  0.8763
  157SAPE   H7Y17541   3.381   0.396   7.336  0.6735  0.2682 -0.1677
  157SAPE   C3817542   3.347   0.261   7.494  0.7985  0.4378 -0.5400
  157SAPE   H8X17543   3.446   0.221   7.465  1.1003  1.5359 -1.0348
  157SAPE   H8Y17544   3.291   0.165   7.507  1.6611  0.0855  0.6156
  157SAPE   C3917545   3.362   0.340   7.624  0.7451 -0.1425  0.0982
  157SAPE   H9X17546   3.437   0.421   7.612 -1.3773  1.7527 -0.6959
  157SAPE   H9Y17547   3.402   0.261   7.692  1.0946 -1.3093 -1.4236
  157SAPE  C31017548   3.228   0.410   7.675 -0.2542 -0.2016 -0.4355
  157SAPE  H10X17549   3.146   0.338   7.654  1.8944 -2.0602 -2.7618
  157SAPE  H10Y17550   3.198   0.501   7.618 -2.0214 -1.3669 -1.4087
  157SAPE  C31117551   3.227   0.451   7.826  0.4479 -0.3528  0.1282
  157SAPE  H11X17552   3.128   0.491   7.856 -0.6529  0.0818 -3.8574
  157SAPE  H11Y17553   3.299   0.535   7.840  1.3485 -1.0160 -0.5038
  157SAPE  C31217554   3.266   0.339   7.925  0.1721  0.3354 -0.3246
  157SAPE  H12X17555   3.360   0.288   7.896  2.2572  1.8810  3.4571
  157SAPE  H12Y17556   3.180   0.269   7.929  0.5219 -0.0016  2.2098
  157SAPE  C31317557   3.295   0.393   8.068  0.3897 -1.4053 -0.1021
  157SAPE  H13X17558   3.255   0.326   8.147  2.0963 -0.0894  1.9314
  157SAPE  H13Y17559   3.242   0.490   8.076  0.5549 -1.3034 -0.2522
  157SAPE  C31417560   3.445   0.403   8.095 -0.5615 -0.0643  0.0126
  157SAPE  H14X17561   3.483   0.462   8.009 -0.7712  0.1562  0.0695
  157SAPE  H14Y17562   3.480   0.299   8.084 -1.3499 -0.2868 -0.4423
  157SAPE  C31517563   3.488   0.461   8.227 -0.6378 -0.6644  0.3140
  157SAPE  H15X17564   3.459   0.389   8.307 -2.0576 -1.0536 -0.5519
  157SAPE  H15Y17565   3.441   0.561   8.240 -0.1914 -0.4297  0.1484
  157SAPE  C31617566   3.638   0.491   8.237 -0.4588  0.0195 -0.3208
  157SAPE  H16X17567   3.674   0.530   8.140  1.0512  2.3461  1.1072
  157SAPE  H16Y17568   3.689   0.392   8.238 -1.9853 -0.7856  1.2238
  157SAPE  C31717569   3.666   0.581   8.352 -0.0567  0.2265 -0.3148
  157SAPE  H17X17570   3.616   0.679   8.340 -0.7672 -0.0587  0.2755
  157SAPE  H17Y17571   3.777   0.588   8.360 -0.1227 -0.3444  1.4478
  157SAPE  C31817572   3.625   0.519   8.490  0.0482 -0.0187 -0.4598
  157SAPE  H18X17573   3.530   0.463   8.481  0.4487 -0.4554 -2.1032
  157SAPE  H18Y17574   3.606   0.601   8.562 -1.0964 -1.4292  0.8817
  157SAPE  H18Z17575   3.700   0.458   8.546 -1.4255 -0.1738  1.3759
  158SAPE     N17576   5.423   4.584   6.286  0.3799 -0.3825  0.2103
  158SAPE   HN117577   5.521   4.618   6.292  0.0269  0.7673 -0.2782
  158SAPE   HN217578   5.410   4.483   6.264 -0.2103 -0.7346  2.1280
  158SAPE   HN317579   5.378   4.647   6.216 -1.2337 -1.7637 -0.0412
  158SAPE   C1217580   5.367   4.621   6.420  0.2145 -0.3474 -0.0809
  158SAPE  H12A17581   5.427   4.574   6.501 -0.9669 -2.1882 -0.2412
  158SAPE  H12B17582   5.263   4.583   6.429 -0.3789  1.4554  1.0987
  158SAPE   C1117583   5.347   4.778   6.443 -0.2260 -0.0122 -0.3201
  158SAPE  H11A17584   5.351   4.802   6.551 -0.9093 -0.6289 -0.1560
  158SAPE  H11B17585   5.253   4.809   6.393 -0.5786 -0.2907  0.1681
  158SAPE     P17586   5.445   5.003   6.372  0.4580 -0.0455  0.2435
  158SAPE   O1317587   5.577   5.064   6.350  0.3447 -0.3587  0.2831
  158SAPE   O1417588   5.337   5.035   6.282  0.2996  0.0292 -0.1153
  158SAPE   O1217589   5.455   4.846   6.383 -0.3346  0.0494 -0.0582
  158SAPE   O1117590   5.408   5.058   6.515 -0.1646 -0.1999 -0.2460
  158SAPE    C117591   5.519   5.057   6.615  0.4768 -0.4000 -0.7355
  158SAPE    HA17592   5.479   4.993   6.697  3.1162  0.3288  1.2111
  158SAPE    HB17593   5.612   5.006   6.583  0.2297 -1.2739 -0.0753
  158SAPE    C217594   5.558   5.202   6.657 -0.1538  0.5935 -0.2700
  158SAPE    HS17595   5.633   5.187   6.738 -0.0643  0.9252 -0.2906
  158SAPE   O2117596   5.449   5.271   6.725  0.0255  0.0525 -0.0548
  158SAPE   C2117597   5.416   5.240   6.842  0.1057 -0.0613 -0.1886
  158SAPE   O2217598   5.480   5.174   6.925 -0.0662  0.1719  0.4308
  158SAPE   C2217599   5.275   5.305   6.868 -0.1153 -0.5876 -0.0119
  158SAPE   H2R17600   5.250   5.362   6.776 -1.3156  1.6264  1.6383
  158SAPE   H2S17601   5.203   5.221   6.874 -1.1145  0.3328  1.2337
  158SAPE    C317602   5.619   5.286   6.545  0.2729 -1.0455 -0.0246
  158SAPE    HX17603   5.551   5.297   6.458  0.5717  1.5102  0.0297
  158SAPE    HY17604   5.701   5.223   6.505 -0.1905 -1.0290 -1.0025
  158SAPE   O3117605   5.671   5.412   6.592  0.3133 -0.3853 -0.5108
  158SAPE   C3117606   5.572   5.507   6.599 -0.6747 -0.1755  0.0187
  158SAPE   O3217607   5.459   5.496   6.559 -0.3847 -0.3308 -0.9161
  158SAPE   C3217608   5.620   5.633   6.668 -0.7750  0.2105  0.0016
  158SAPE   H2X17609   5.718   5.658   6.623 -0.2216 -0.0916  1.0235
  158SAPE   H2Y17610   5.643   5.619   6.776  1.1918  1.8063 -0.1857
  158SAPE   C2317611   5.277   5.393   7.003  0.0581 -1.1785  0.6055
  158SAPE   H3R17612   5.301   5.325   7.088  0.1495 -1.6982  0.1635
  158SAPE   H3S17613   5.175   5.431   7.027 -0.6185 -1.7807 -1.2458
  158SAPE   C2417614   5.374   5.518   6.981  0.3473 -0.3214  0.0617
  158SAPE   H4R17615   5.458   5.502   6.910 -0.9578 -1.1635 -1.3342
  158SAPE   H4S17616   5.425   5.549   7.074  0.4551  2.9588 -1.0206
  158SAPE   C2517617   5.290   5.633   6.922 -0.7654  0.1668  0.1631
  158SAPE   H5R17618   5.275   5.628   6.813  0.2409  5.1935 -0.3148
  158SAPE   C2617619   5.240   5.735   6.993  0.2919  0.3169 -0.3904
  158SAPE   H6R17620   5.186   5.815   6.941  0.0935  1.2309  1.2122
  158SAPE   C2717621   5.258   5.758   7.147 -0.0578 -0.5255 -0.3554
  158SAPE   H7R17622   5.349   5.821   7.153  0.3432 -1.2351  1.0725
  158SAPE   H7S17623   5.290   5.672   7.209  1.3049  1.3111  1.5493
  158SAPE   C2817624   5.138   5.833   7.202  0.0374 -0.4426  0.2964
  158SAPE   H8R17625   5.047   5.819   7.142 -1.0598 -0.7300  1.9829
  158SAPE   C2917626   5.115   5.879   7.328  0.3818  0.0270  0.3363
  158SAPE   H9R17627   5.015   5.919   7.353  0.8619  0.4345  1.6354
  158SAPE  C21017628   5.213   5.880   7.442  0.3820  0.4503 -0.1601
  158SAPE  H10R17629   5.247   5.984   7.462 -2.0141  1.2767 -0.2531
  158SAPE  H10S17630   5.309   5.838   7.407  1.0782  4.6861 -3.6386
  158SAPE  C21117631   5.149   5.810   7.552  0.3670  0.6460  0.3665
  158SAPE  H11R17632   5.080   5.725   7.542  2.1247 -0.6190 -1.3021
  158SAPE  C21217633   5.161   5.857   7.682 -0.0662 -0.1777 -0.4647
  158SAPE  H12R17634   5.099   5.811   7.760 -1.7344 -0.3159 -1.8462
  158SAPE  C21317635   5.239   5.972   7.745  0.7108 -0.0904 -0.8395
  158SAPE  H13R17636   5.327   5.993   7.681 -0.2961  1.7828 -1.6650
  158SAPE  H13S17637   5.286   5.949   7.843  0.7611  0.2086 -0.7897
  158SAPE  C21417638   5.145   6.090   7.751 -0.4237  0.3251 -0.2394
  158SAPE  H14R17639   5.121   6.124   7.649  0.4977 -0.7902 -0.8401
  158SAPE  C21517640   5.076   6.127   7.856 -0.6666 -0.4955 -0.1369
  158SAPE  H15R17641   5.000   6.206   7.846 -1.2148 -1.3315 -2.9647
  158SAPE  C21617642   5.084   6.070   7.996 -0.4373 -0.0314  0.2283
  158SAPE  H16R17643   5.134   5.971   8.002  1.8750  1.1051  0.0340
  158SAPE  H16S17644   4.985   6.041   8.036 -0.8100  0.0645 -0.6223
  158SAPE  C21717645   5.152   6.153   8.110 -0.1026  0.4093  0.1776
  158SAPE  H17R17646   5.092   6.247   8.117 -0.6623 -0.1218  2.8497
  158SAPE  H17S17647   5.254   6.175   8.072  0.3080 -2.2060 -0.2715
  158SAPE  C21817648   5.145   6.086   8.238 -0.0159  0.7370 -0.0089
  158SAPE  H18R17649   5.043   6.045   8.254  1.2019 -1.6543  1.9191
  158SAPE  H18S17650   5.151   6.152   8.327 -2.4011 -1.6167  1.9887
  158SAPE  C21917651   5.239   5.964   8.258  0.2350  0.1836 -0.1102
  158SAPE  H19R17652   5.233   5.896   8.171 -3.1960 -0.0612  0.2601
  158SAPE  H19S17653   5.210   5.914   8.353  2.3902  1.8674  1.4896
  158SAPE  C22017654   5.383   6.021   8.269  0.1726  0.4906  0.2526
  158SAPE  H20R17655   5.397   6.091   8.353  0.1308 -0.0599  0.7196
  158SAPE  H20S17656   5.402   6.082   8.178 -2.9463  0.1274 -0.7004
  158SAPE  H20T17657   5.457   5.939   8.273  0.0230  0.3304 -0.1795
  158SAPE   C3317658   5.515   5.745   6.642  0.2793  0.2360  0.1170
  158SAPE   H3X17659   5.421   5.713   6.691 -0.7174  2.2854 -0.4177
  158SAPE   H3Y17660   5.506   5.758   6.532 -0.1870 -0.5272  0.0573
  158SAPE   C3417661   5.549   5.879   6.701  0.0056  0.2532 -0.2590
  158SAPE   H4X17662   5.457   5.942   6.698 -0.8535 -1.0444 -1.7782
  158SAPE   H4Y17663   5.623   5.945   6.652 -1.3703  1.1558 -1.1854
  158SAPE   C3517664   5.591   5.860   6.851  0.1777  0.4111  0.6011
  158SAPE   H5X17665   5.694   5.818   6.846 -1.1031 -2.8979  0.8345
  158SAPE   H5Y17666   5.521   5.791   6.900  0.4966  0.7458  1.5340
  158SAPE   C3617667   5.577   6.001   6.922 -0.1549 -0.0908 -0.2940
  158SAPE   H6X17668   5.476   6.046   6.910  0.7705  2.6701  1.7095
  158SAPE   H6Y17669   5.651   6.069   6.874 -0.4073 -0.9290 -1.9288
  158SAPE   C3717670   5.601   5.996   7.066 -0.3216  0.7552 -0.4775
  158SAPE   H7X17671   5.512   5.945   7.109 -0.4493 -0.6300 -2.3048
  158SAPE   H7Y17672   5.693   5.941   7.095 -0.5402  0.1056 -0.9961
  158SAPE   C3817673   5.614   6.132   7.130 -0.2770  0.5744 -0.2637
  158SAPE   H8X17674   5.527   6.194   7.099  0.7361  2.9240  1.4262
  158SAPE   H8Y17675   5.702   6.190   7.093  0.2993  1.2466  2.0312
  158SAPE   C3917676   5.596   6.130   7.280  0.3460  0.7576 -0.3476
  158SAPE   H9X17677   5.695   6.095   7.318 -0.1684  0.0864  0.3788
  158SAPE   H9Y17678   5.520   6.059   7.318  3.2226 -1.7327  0.9821
  158SAPE  C31017679   5.560   6.265   7.337  0.2192  0.2569 -0.5298
  158SAPE  H10X17680   5.480   6.306   7.271  0.3713 -1.1697 -1.6301
  158SAPE  H10Y17681   5.651   6.329   7.326 -0.1757  1.0476  0.7307
  158SAPE  C31117682   5.518   6.269   7.483 -0.6714 -0.2149 -0.2124
  158SAPE  H11X17683   5.415   6.229   7.501 -0.1725 -1.4182 -0.0078
  158SAPE  H11Y17684   5.512   6.376   7.513  2.2717  0.0206 -0.3834
  158SAPE  C31217685   5.610   6.191   7.580  0.5015 -0.2558  0.6504
  158SAPE  H12X17686   5.715   6.228   7.573  0.7557 -1.0451  0.2874
  158SAPE  H12Y17687   5.620   6.085   7.550  2.3226  0.1521 -0.2662
  158SAPE  C31317688   5.580   6.187   7.731 -0.1986  0.2764  0.1026
  158SAPE  H13X17689   5.663   6.123   7.765 -1.2388 -1.5987 -0.7689
  158SAPE  H13Y17690   5.480   6.140   7.747 -0.0780 -0.6433 -1.6611
  158SAPE  C31417691   5.576   6.328   7.796  0.1791  0.1666 -0.3997
  158SAPE  H14X17692   5.500   6.384   7.737 -1.1438  1.0334  2.0500
  158SAPE  H14Y17693   5.672   6.379   7.770  0.3415  0.9078  1.5389
  158SAPE  C31517694   5.537   6.313   7.939 -0.5900 -0.6471 -0.7130
  158SAPE  H15X17695   5.580   6.221   7.983 -2.8766 -0.9972  0.8546
  158SAPE  H15Y17696   5.426   6.309   7.932 -0.4265 -0.7139 -4.1807
  158SAPE  C31617697   5.595   6.428   8.030 -0.3022 -0.1643  0.5704
  158SAPE  H16X17698   5.580   6.527   7.982 -0.9412 -0.6589 -0.2580
  158SAPE  H16Y17699   5.705   6.424   8.048  0.0776  1.2243 -1.2548
  158SAPE  C31717700   5.530   6.442   8.166 -0.0592 -0.0305  0.1448
  158SAPE  H17X17701   5.550   6.351   8.226  1.5365  0.1465 -0.0845
  158SAPE  H17Y17702   5.420   6.443   8.152  0.3084  0.4108 -3.1306
  158SAPE  C31817703   5.589   6.568   8.237 -0.1374 -0.8648  0.2147
  158SAPE  H18X17704   5.552   6.657   8.183 -1.8001 -2.4535 -1.3257
  158SAPE  H18Y17705   5.700   6.572   8.245  0.0283 -2.5673 -0.9582
  158SAPE  H18Z17706   5.557   6.565   8.343 -1.6837 -2.1534 -0.2733
  159SAPE     N17707   4.169   1.423   6.575  0.0256 -0.5215 -0.2587
  159SAPE   HN117708   4.087   1.470   6.617 -0.3398 -1.3088 -0.0681
  159SAPE   HN217709   4.224   1.371   6.648  1.2235  2.2352  0.8699
  159SAPE   HN317710   4.229   1.498   6.536 -2.9105  2.5540  0.8985
  159SAPE   C1217711   4.128   1.329   6.477 -0.0442  0.1942 -0.2240
  159SAPE  H12A17712   4.047   1.262   6.513 -0.4964 -0.0891 -1.7204
  159SAPE  H12B17713   4.211   1.261   6.449  0.6362  0.3264  1.4490
  159SAPE   C1117714   4.081   1.404   6.348 -0.1704 -0.1790  0.0668
  159SAPE  H11A17715   3.981   1.443   6.378 -0.6485 -0.6600 -0.8941
  159SAPE  H11B17716   4.078   1.331   6.265 -1.0790  2.3072 -2.1823
  159SAPE     P17717   4.214   1.542   6.182 -0.3065 -0.6765 -0.1973
  159SAPE   O1317718   4.291   1.418   6.145  0.1157 -0.2373  0.2489
  159SAPE   O1417719   4.118   1.597   6.079 -0.2060  0.3054  0.4136
  159SAPE   O1217720   4.143   1.530   6.320  0.1867  0.2047 -0.2238
  159SAPE   O1117721   4.327   1.651   6.208 -0.1827 -0.0949  0.6113
  159SAPE    C117722   4.390   1.670   6.342  0.2256 -0.3191  0.1811
  159SAPE    HA17723   4.410   1.780   6.342  1.7063 -0.5743  1.3447
  159SAPE    HB17724   4.320   1.642   6.423  0.8415 -1.6683  0.2578
  159SAPE    C217725   4.522   1.599   6.342  0.0258  0.6903 -0.5898
  159SAPE    HS17726   4.513   1.496   6.301  1.1369  0.1879  0.3891
  159SAPE   O2117727   4.580   1.600   6.475 -0.2352 -0.2612  0.2128
  159SAPE   C2117728   4.520   1.511   6.553 -0.2007 -0.4654 -0.0148
  159SAPE   O2217729   4.447   1.419   6.522 -0.1796  0.0030  0.0538
  159SAPE   C2217730   4.584   1.513   6.698 -1.0351  0.6127  0.4692
  159SAPE   H2R17731   4.533   1.446   6.770  1.5646  0.1710  1.9888
  159SAPE   H2S17732   4.691   1.484   6.695 -1.0418  0.7811 -1.9725
  159SAPE    C317733   4.621   1.676   6.259  0.2036  0.0149 -0.0289
  159SAPE    HX17734   4.620   1.783   6.289  1.6530 -0.0737  0.3977
  159SAPE    HY17735   4.587   1.678   6.154  2.5580 -3.0082 -0.9447
  159SAPE   O3117736   4.756   1.623   6.256  0.4356 -0.0354  0.1480
  159SAPE   C3117737   4.853   1.694   6.313 -0.2601  0.1389 -0.1163
  159SAPE   O3217738   4.847   1.809   6.347  0.2928 -0.9445 -0.2596
  159SAPE   C3217739   4.974   1.603   6.342 -0.6222 -0.6183 -0.4004
  159SAPE   H2X17740   5.066   1.654   6.306 -1.6814  3.5607  2.4797
  159SAPE   H2Y17741   4.963   1.511   6.281 -1.7036 -1.7782  1.5078
  159SAPE   C2317742   4.596   1.662   6.748 -1.0957  0.3064  0.0833
  159SAPE   H3R17743   4.492   1.697   6.766 -0.2941  1.0410  3.6107
  159SAPE   H3S17744   4.645   1.733   6.678 -1.9966 -0.2935 -1.1791
  159SAPE   C2417745   4.673   1.647   6.885  0.2851  0.3501  0.4400
  159SAPE   H4R17746   4.767   1.590   6.868  0.2202  1.2105 -3.1059
  159SAPE   H4S17747   4.604   1.583   6.944  1.0617 -1.5617 -0.6774
  159SAPE   C2517748   4.685   1.782   6.965  0.3733  0.2454 -1.2229
  159SAPE   H5R17749   4.609   1.859   6.944 -0.0057 -0.2311 -1.6272
  159SAPE   C2617750   4.796   1.819   7.035  0.1180 -0.5054 -0.2634
  159SAPE   H6R17751   4.790   1.915   7.089 -0.1787 -0.5625 -0.1944
  159SAPE   C2717752   4.917   1.736   7.059  0.1534 -0.3453  0.2165
  159SAPE   H7R17753   4.926   1.654   6.984 -1.1192 -0.5300  0.2546
  159SAPE   H7S17754   4.904   1.682   7.155  0.7249  1.3554  1.2746
  159SAPE   C2817755   5.056   1.792   7.066  0.3511  0.4675 -0.2256
  159SAPE   H8R17756   5.130   1.732   7.122  0.9735  2.1454  0.8130
  159SAPE   C2917757   5.111   1.900   7.008 -0.2242  0.7811 -0.2334
  159SAPE   H9R17758   5.213   1.931   7.035 -0.0124  1.3355 -1.5992
  159SAPE  C21017759   5.056   2.000   6.912  0.5906 -0.3097  0.3222
  159SAPE  H10R17760   4.946   1.997   6.926  0.2120 -0.8340 -2.4644
  159SAPE  H10S17761   5.074   1.964   6.808 -0.6406 -0.3237  0.1065
  159SAPE  C21117762   5.108   2.137   6.931  0.1749 -0.1613 -0.1646
  159SAPE  H11R17763   5.183   2.156   6.852  0.9637  2.6457  1.1812
  159SAPE  C21217764   5.071   2.237   7.006 -0.2368  0.5490 -0.2611
  159SAPE  H12R17765   5.118   2.335   6.992 -3.0443  1.6918 -2.1179
  159SAPE  C21317766   4.961   2.228   7.112  0.8325 -0.1121 -0.1667
  159SAPE  H13R17767   4.904   2.134   7.094  2.5546 -1.4424  1.2539
  159SAPE  H13S17768   4.899   2.320   7.099  0.3102 -0.4221  0.1210
  159SAPE  C21417769   4.996   2.216   7.257  0.8784 -0.6040 -0.3688
  159SAPE  H14R17770   5.072   2.139   7.277 -0.4892 -1.3049  2.3734
  159SAPE  C21517771   4.950   2.285   7.367  0.1756 -0.2339  0.4396
  159SAPE  H15R17772   4.978   2.253   7.468  0.0244  0.6873  0.7761
  159SAPE  C21617773   4.843   2.385   7.359 -0.1836  0.1310  0.2953
  159SAPE  H16R17774   4.780   2.381   7.450  0.8079  2.1089  1.0934
  159SAPE  H16S17775   4.781   2.359   7.270  1.1416  1.1582 -0.9461
  159SAPE  C21717776   4.900   2.525   7.354 -0.6629 -0.1696  0.8152
  159SAPE  H17R17777   4.921   2.550   7.248 -0.8750 -2.3674  0.2191
  159SAPE  H17S17778   4.994   2.541   7.411  0.5842 -1.0499 -0.9345
  159SAPE  C21817779   4.805   2.638   7.403 -0.3788  1.4162  0.5311
  159SAPE  H18R17780   4.852   2.736   7.385  0.5300  0.9793  0.5218
  159SAPE  H18S17781   4.797   2.624   7.513  0.2797 -0.3606  0.3724
  159SAPE  C21917782   4.671   2.639   7.339 -0.0484  0.2606  0.4871
  159SAPE  H19R17783   4.592   2.698   7.390  2.5862  2.7119  1.7832
  159SAPE  H19S17784   4.641   2.532   7.331 -0.1367  0.3198  0.0197
  159SAPE  C22017785   4.679   2.679   7.192  0.5743  0.0515 -1.1448
  159SAPE  H20R17786   4.717   2.783   7.196  0.9388 -0.0284 -2.3076
  159SAPE  H20S17787   4.579   2.683   7.143 -0.2412  0.4854  0.4932
  159SAPE  H20T17788   4.746   2.615   7.131 -0.4222 -0.3124 -1.8622
  159SAPE   C3317789   4.980   1.563   6.490 -0.4424 -0.7002 -0.1767
  159SAPE   H3X17790   5.056   1.482   6.499 -0.7643 -1.0860 -0.8930
  159SAPE   H3Y17791   4.884   1.523   6.527 -0.9501  2.6626  2.3514
  159SAPE   C3417792   5.025   1.668   6.586  0.1885 -0.1765 -0.4121
  159SAPE   H4X17793   5.003   1.627   6.687  0.0105 -2.3056 -1.2897
  159SAPE   H4Y17794   4.956   1.755   6.582 -1.7777 -1.6264  1.1105
  159SAPE   C3517795   5.165   1.733   6.572 -0.0000  0.4627  0.2071
  159SAPE   H5X17796   5.162   1.826   6.633 -1.4362  0.9253 -0.5607
  159SAPE   H5Y17797   5.193   1.771   6.471 -2.2387  2.0964  0.1639
  159SAPE   C3617798   5.277   1.650   6.632 -0.9545  0.0205 -0.6035
  159SAPE   H6X17799   5.367   1.710   6.656 -1.3440  0.1827  0.4631
  159SAPE   H6Y17800   5.303   1.568   6.561  1.2129  0.7497 -0.6628
  159SAPE   C3717801   5.237   1.564   6.756  0.0245 -0.1157  0.1644
  159SAPE   H7X17802   5.163   1.484   6.737  1.3918 -0.9549 -1.8017
  159SAPE   H7Y17803   5.189   1.631   6.831  0.0643 -0.1914  0.2582
  159SAPE   C3817804   5.364   1.501   6.829 -0.3162  0.5958 -0.6303
  159SAPE   H8X17805   5.438   1.579   6.856 -0.9410  0.7224  0.7462
  159SAPE   H8Y17806   5.405   1.424   6.759  0.2491  0.8011 -0.5269
  159SAPE   C3917807   5.313   1.437   6.964  0.3259 -0.2777 -0.3858
  159SAPE   H9X17808   5.214   1.389   6.949  0.2954 -0.2516 -0.2736
  159SAPE   H9Y17809   5.286   1.521   7.032  0.2671 -1.6274  1.3015
  159SAPE  C31017810   5.410   1.342   7.036 -0.0018  0.5130  0.1073
  159SAPE  H10X17811   5.499   1.404   7.057 -0.0777  0.3558  0.8888
  159SAPE  H10Y17812   5.437   1.265   6.960  0.2652  0.4954  0.2203
  159SAPE  C31117813   5.356   1.285   7.166 -0.8711  0.0451  0.1258
  159SAPE  H11X17814   5.441   1.253   7.230  1.6901  1.1181 -2.6027
  159SAPE  H11Y17815   5.304   1.187   7.154 -1.3539  0.4791 -1.4476
  159SAPE  C31217816   5.254   1.374   7.244  0.6832  0.3793  0.1963
  159SAPE  H12X17817   5.159   1.380   7.187  0.6939 -3.6486 -0.3943
  159SAPE  H12Y17818   5.300   1.473   7.264 -1.0807  1.2146  0.2623
  159SAPE  C31317819   5.207   1.323   7.381  0.3479  0.1754  0.4419
  159SAPE  H13X17820   5.289   1.328   7.456 -0.8298 -0.5192  1.7897
  159SAPE  H13Y17821   5.177   1.217   7.366 -0.1856  0.5205 -1.0927
  159SAPE  C31417822   5.074   1.390   7.423  0.5657  0.3508  0.3167
  159SAPE  H14X17823   5.032   1.346   7.516 -1.3084 -0.8665 -1.0770
  159SAPE  H14Y17824   5.007   1.383   7.334 -0.1730  3.3316  0.6072
  159SAPE  C31517825   5.079   1.539   7.455  0.0064  0.4902 -0.3918
  159SAPE  H15X17826   5.114   1.610   7.377  1.3364  0.5113  0.2156
  159SAPE  H15Y17827   5.159   1.547   7.531 -1.2827  0.2505  1.0117
  159SAPE  C31617828   4.945   1.573   7.528 -0.2449 -0.4228 -0.4314
  159SAPE  H16X17829   4.937   1.503   7.614  0.0353 -0.3801 -0.3704
  159SAPE  H16Y17830   4.857   1.550   7.465 -0.4540 -0.1488 -0.2427
  159SAPE  C31717831   4.939   1.718   7.578 -0.1911  0.1256  0.2675
  159SAPE  H17X17832   4.955   1.796   7.500  0.4873 -1.3476 -1.0934
  159SAPE  H17Y17833   5.029   1.728   7.643 -0.7125 -2.1756  1.3884
  159SAPE  C31817834   4.816   1.736   7.662  0.3107  0.7289 -0.1105
  159SAPE  H18X17835   4.728   1.726   7.595  0.4910 -0.9965 -0.1136
  159SAPE  H18Y17836   4.817   1.840   7.702  4.1381  0.9541 -0.6241
  159SAPE  H18Z17837   4.814   1.662   7.745 -0.6514  0.5537 -0.2757
  160SAPE     N17838   6.730   0.378   6.730 -0.0533  0.5011  1.2211
  160SAPE   HN117839   6.785   0.291   6.709  0.3970  0.8415  0.9812
  160SAPE   HN217840   6.666   0.404   6.652  0.0060  2.1577  1.7100
  160SAPE   HN317841   6.788   0.459   6.757  1.2220 -1.1541  3.6797
  160SAPE   C1217842   6.640   0.341   6.840  0.9283 -0.2664  0.6817
  160SAPE  H12A17843   6.678   0.397   6.929  1.0771 -2.3992  1.9972
  160SAPE  H12B17844   6.647   0.232   6.861  0.1488 -0.3191  0.6584
  160SAPE   C1117845   6.498   0.390   6.820 -0.1157 -0.3180  0.8740
  160SAPE  H11A17846   6.497   0.495   6.784 -0.0414 -0.6280 -0.0295
  160SAPE  H11B17847   6.465   0.399   6.926 -0.6411  1.8306  0.5595
  160SAPE     P17848   6.312   0.352   6.631  0.2408 -0.0093  0.4787
  160SAPE   O1317849   6.364   0.447   6.528 -0.1815 -0.8584  0.0188
  160SAPE   O1417850   6.251   0.225   6.581 -0.3632 -0.3232 -0.9031
  160SAPE   O1217851   6.429   0.302   6.728 -0.3506 -0.1163 -0.0910
  160SAPE   O1117852   6.214   0.423   6.724 -0.1040  0.5790 -0.2403
  160SAPE    C117853   6.076   0.388   6.726 -0.7379 -0.2240  0.2364
  160SAPE    HA17854   6.022   0.485   6.732  1.1366  0.8807 -0.2041
  160SAPE    HB17855   6.032   0.339   6.636  2.2797 -0.5962 -1.0813
  160SAPE    C217856   6.039   0.302   6.856 -1.0181  0.0464 -0.9712
  160SAPE    HS17857   6.034   0.193   6.833 -0.1790 -0.2970  0.3673
  160SAPE   O2117858   5.917   0.354   6.909  0.2496  0.3297  0.7176
  160SAPE   C2117859   5.813   0.268   6.908 -0.6728 -0.2833  0.0934
  160SAPE   O2217860   5.823   0.149   6.882  0.3857  0.5251  0.1692
  160SAPE   C2217861   5.686   0.348   6.927  0.1663  0.0688 -0.0722
  160SAPE   H2R17862   5.716   0.444   6.974  1.3886 -1.0052  1.3801
  160SAPE   H2S17863   5.630   0.377   6.835  1.0964 -0.0249 -0.6669
  160SAPE    C317864   6.146   0.322   6.968 -0.2210 -0.2035 -0.5424
  160SAPE    HX17865   6.169   0.431   6.966  1.6126 -0.5730 -1.0195
  160SAPE    HY17866   6.239   0.267   6.942 -0.2314 -0.0109 -0.9891
  160SAPE   O3117867   6.101   0.276   7.095 -0.1321  0.2993 -0.2286
  160SAPE   C3117868   6.102   0.143   7.112  0.2111  0.2311 -0.3269
  160SAPE   O3217869   6.160   0.062   7.046 -0.0352  0.9153 -0.3079
  160SAPE   C3217870   6.005   0.115   7.228 -0.4024 -1.4523  0.0594
  160SAPE   H2X17871   6.068   0.038   7.276  0.8187 -1.2284 -1.1617
  160SAPE   H2Y17872   5.922   0.055   7.184  0.1948 -0.9193 -1.8542
  160SAPE   C2317873   5.588   0.270   7.022 -0.2480  0.0621 -0.5590
  160SAPE   H3R17874   5.641   0.252   7.117 -1.2504  0.3789  0.0652
  160SAPE   H3S17875   5.581   0.169   6.974  3.6268 -0.5497  0.0435
  160SAPE   C2417876   5.462   0.340   7.042 -0.2195 -1.2069  0.6429
  160SAPE   H4R17877   5.432   0.340   6.935  1.3150  0.0327  0.1857
  160SAPE   H4S17878   5.476   0.446   7.072 -1.0652 -0.2865 -2.0083
  160SAPE   C2517879   5.377   0.263   7.139  0.1754 -0.5310  0.9036
  160SAPE   H5R17880   5.331   0.176   7.091  2.3337 -1.8729  1.1755
  160SAPE   C2617881   5.358   0.287   7.270  0.3132  0.1482  0.3647
  160SAPE   H6R17882   5.292   0.223   7.331  0.5372  0.8668  1.3726
  160SAPE   C2717883   5.433   0.390   7.341  0.9494  0.2985 -0.9925
  160SAPE   H7R17884   5.510   0.442   7.282 -1.0763  2.2536 -1.9964
  160SAPE   H7S17885   5.473   0.329   7.425  0.9106  0.3996 -0.8991
  160SAPE   C2817886   5.340   0.492   7.392 -1.0921  0.3825  0.1582
  160SAPE   H8R17887   5.274   0.537   7.316 -0.1394 -0.8981 -1.4719
  160SAPE   C2917888   5.327   0.529   7.521 -0.3826  0.0517  0.8616
  160SAPE   H9R17889   5.244   0.599   7.536 -1.5368 -1.2324  0.5175
  160SAPE  C21017890   5.393   0.467   7.646  1.0404 -0.1282  0.1642
  160SAPE  H10R17891   5.491   0.424   7.616  1.8589  0.3527  2.1092
  160SAPE  H10S17892   5.332   0.380   7.680 -0.8050  0.9996 -0.1782
  160SAPE  C21117893   5.403   0.568   7.755  0.1734 -0.4726  0.9124
  160SAPE  H11R17894   5.430   0.669   7.722 -0.9544  0.3080  2.2799
  160SAPE  C21217895   5.390   0.556   7.889  0.4693  0.2420  0.3627
  160SAPE  H12R17896   5.406   0.644   7.953  1.5982 -0.6681  1.3543
  160SAPE  C21317897   5.362   0.431   7.970  0.4394  0.0250  0.1248
  160SAPE  H13R17898   5.459   0.383   7.995  0.9599  1.1451  0.2801
  160SAPE  H13S17899   5.308   0.361   7.904 -2.0732  0.0912  2.0326
  160SAPE  C21417900   5.277   0.468   8.087  0.6808 -0.7357  0.4508
  160SAPE  H14R17901   5.175   0.502   8.064  1.4644  1.1035 -0.4490
  160SAPE  C21517902   5.317   0.474   8.214  0.7502  0.0691  0.4794
  160SAPE  H15R17903   5.241   0.497   8.290  1.7847  0.3850  1.4430
  160SAPE  C21617904   5.456   0.432   8.260  0.1485  0.2861 -0.2064
  160SAPE  H16R17905   5.537   0.464   8.191 -0.0595 -0.5077 -0.8398
  160SAPE  H16S17906   5.458   0.321   8.256  2.3260  0.1877  2.4759
  160SAPE  C21717907   5.492   0.486   8.397 -0.2534 -0.1167 -0.4456
  160SAPE  H17R17908   5.463   0.592   8.412  1.0666  0.1823  0.0352
  160SAPE  H17S17909   5.602   0.478   8.409 -0.2877 -0.7723 -0.5287
  160SAPE  C21817910   5.417   0.421   8.520 -0.4084 -0.6139 -0.5122
  160SAPE  H18R17911   5.436   0.312   8.517  1.3654 -0.3318 -0.1193
  160SAPE  H18S17912   5.309   0.449   8.516 -0.2154 -0.0272 -2.1918
  160SAPE  C21917913   5.481   0.468   8.655 -0.2484 -0.3800  1.0411
  160SAPE  H19R17914   5.477   0.579   8.660 -1.0457  0.0857 -5.2548
  160SAPE  H19S17915   5.588   0.448   8.632  0.0414  1.0583  1.1234
  160SAPE  C22017916   5.426   0.390   8.767 -0.1445  0.7018  1.0699
  160SAPE  H20R17917   5.449   0.282   8.763 -0.4967  0.7166 -2.1144
  160SAPE  H20S17918   5.317   0.399   8.784 -0.2160  1.8728  0.1106
  160SAPE  H20T17919   5.470   0.428   8.862  1.9006  0.2649  0.3242
  160SAPE   C3317920   5.987   0.223   7.332 -0.0803  0.1800 -0.0847
  160SAPE   H3X17921   6.072   0.292   7.349  0.3143 -0.4925  0.7718
  160SAPE   H3Y17922   5.959   0.180   7.431 -3.1520  0.0988 -0.9478
  160SAPE   C3417923   5.852   0.300   7.299  1.3685 -0.0653  0.6156
  160SAPE   H4X17924   5.757   0.245   7.318  0.2042  1.1216 -1.5431
  160SAPE   H4Y17925   5.852   0.326   7.191  0.8058  1.1756  0.9031
  160SAPE   C3517926   5.837   0.430   7.384 -0.6697 -0.4941  0.4139
  160SAPE   H5X17927   5.752   0.485   7.340  1.0077  1.7338 -0.1233
  160SAPE   H5Y17928   5.929   0.491   7.368 -0.0413 -0.6810  3.1294
  160SAPE   C3617929   5.799   0.413   7.533  0.2471 -0.1621 -0.3169
  160SAPE   H6X17930   5.866   0.341   7.585  1.7762 -0.1053 -2.1559
  160SAPE   H6Y17931   5.695   0.373   7.532 -0.3931  1.4581  0.0904
  160SAPE   C3717932   5.788   0.548   7.601 -0.3542  0.1807 -0.1844
  160SAPE   H7X17933   5.723   0.627   7.558  0.8300  0.0589 -2.2560
  160SAPE   H7Y17934   5.889   0.594   7.603  0.1607 -0.7749 -2.2644
  160SAPE   C3817935   5.745   0.519   7.748  0.5785  0.4777  0.1158
  160SAPE   H8X17936   5.804   0.433   7.785 -0.6700 -2.5295 -4.5029
  160SAPE   H8Y17937   5.640   0.484   7.747  0.3645  1.1246 -0.2709
  160SAPE   C3917938   5.773   0.637   7.850  0.9172  0.6219  0.2331
  160SAPE   H9X17939   5.697   0.715   7.828  0.2705 -0.0527  0.0335
  160SAPE   H9Y17940   5.873   0.683   7.840  1.6907 -1.2473 -0.9575
  160SAPE  C31017941   5.757   0.612   8.002  0.1130 -0.0059  0.4670
  160SAPE  H10X17942   5.835   0.547   8.047  1.7053 -0.2528 -2.5153
  160SAPE  H10Y17943   5.656   0.568   8.019 -0.1189  0.5915  0.6483
  160SAPE  C31117944   5.752   0.746   8.080 -0.1491  0.2920  0.7064
  160SAPE  H11X17945   5.671   0.808   8.037  1.5515  0.8989 -1.7217
  160SAPE  H11Y17946   5.846   0.804   8.067 -0.8092  0.5688 -3.2433
  160SAPE  C31217947   5.735   0.705   8.226 -0.3492  0.1743  0.3084
  160SAPE  H12X17948   5.812   0.630   8.254 -1.2154 -0.6309  0.5561
  160SAPE  H12Y17949   5.634   0.667   8.255 -0.1459  0.5384  1.5282
  160SAPE  C31317950   5.774   0.815   8.328  0.0698 -0.2248  0.3449
  160SAPE  H13X17951   5.720   0.908   8.299 -0.7664 -1.0042 -0.6723
  160SAPE  H13Y17952   5.884   0.825   8.315  0.1640 -1.9045 -0.3274
  160SAPE  C31417953   5.737   0.780   8.468 -0.4683 -0.0043 -0.1335
  160SAPE  H14X17954   5.629   0.755   8.480 -0.1791 -0.2110  2.2089
  160SAPE  H14Y17955   5.747   0.872   8.528  1.9592  1.2745 -2.4203
  160SAPE  C31517956   5.830   0.679   8.546  0.4720  0.2625  0.3947
  160SAPE  H15X17957   5.856   0.591   8.483 -2.9669  0.5591 -1.5752
  160SAPE  H15Y17958   5.774   0.658   8.639 -1.2461  0.1324 -0.6461
  160SAPE  C31617959   5.965   0.741   8.584 -0.5470 -0.4886 -0.0639
  160SAPE  H16X17960   5.945   0.850   8.589 -0.4744 -0.2519 -3.6521
  160SAPE  H16Y17961   6.033   0.729   8.497 -0.1131  0.0964  0.1999
  160SAPE  C31717962   6.027   0.681   8.714 -1.1820  0.1808 -0.1940
  160SAPE  H17X17963   6.035   0.571   8.706 -0.1231  0.1409  1.2811
  160SAPE  H17Y17964   5.952   0.687   8.796  0.4812  0.9831  1.2945
  160SAPE  C31817965   6.166   0.734   8.769  0.0254  0.1703 -0.2140
  160SAPE  H18X17966   6.189   0.703   8.873  1.1811 -0.5142 -0.6628
  160SAPE  H18Y17967   6.157   0.845   8.780 -1.3969 -0.0957  1.5539
  160SAPE  H18Z17968   6.247   0.706   8.698  1.0849  1.7393  0.3398
  161SOPE     N17969   4.905   1.897  10.659  0.3896 -0.5584  0.2279
  161SOPE   HN117970   4.837   1.910  10.581  0.0171 -0.6413  0.5398
  161SOPE   HN217971   4.935   1.996  10.674 -0.1123 -0.7096  2.2858
  161SOPE   HN317972   4.989   1.842  10.633  0.5216 -0.0500 -0.4469
  161SOPE   C1217973   4.846   1.847  10.789 -0.3845  0.5914 -1.1389
  161SOPE  H12A17974   4.936   1.826  10.851 -0.8404 -0.1463 -0.7154
  161SOPE  H12B17975   4.798   1.751  10.760 -2.2254  1.1853 -0.1237
  161SOPE   C1117976   4.751   1.947  10.854  0.3750  0.5335 -0.2714
  161SOPE  H11A17977   4.805   2.029  10.906  0.8981 -0.0168  0.0526
  161SOPE  H11B17978   4.681   1.895  10.922 -0.5940  0.2120 -1.5012
  161SOPE     P17979   4.531   2.071  10.795  0.0903  0.0566 -0.0586
  161SOPE   O1317980   4.564   2.198  10.872  0.2024  0.0845  0.1151
  161SOPE   O1417981   4.456   1.962  10.861 -0.2554 -0.7670 -0.1073
  161SOPE   O1217982   4.671   2.008  10.751 -0.0930  0.1369  0.0082
  161SOPE   O1117983   4.470   2.089  10.653  0.2806 -0.3862  0.4130
  161SOPE    C117984   4.558   2.122  10.544  0.5116 -0.3791 -0.4912
  161SOPE    HA17985   4.601   2.037  10.487 -2.2270 -2.0919 -0.1174
  161SOPE    HB17986   4.644   2.182  10.581  0.9966 -0.9535 -0.6845
  161SOPE    C217987   4.490   2.219  10.438  0.5141  0.2982  0.0886
  161SOPE    HS17988   4.456   2.312  10.489 -0.0523 -0.6913  1.5445
  161SOPE   O2117989   4.370   2.146  10.385  0.1040 -0.6672 -0.1363
  161SOPE   C2117990   4.269   2.232  10.350  0.2428  0.4650  0.5766
  161SOPE   O2217991   4.254   2.348  10.385  0.2941  0.1929  0.8303
  161SOPE   C2217992   4.170   2.159  10.258  0.2408 -0.7950 -0.2247
  161SOPE   H2R17993   4.070   2.149  10.305  0.5903  0.1366  0.7140
  161SOPE   H2S17994   4.220   2.062  10.234 -0.7238 -0.9750 -1.5744
  161SOPE    C317995   4.578   2.247  10.307 -0.0198 -0.2336  0.4984
  161SOPE    HX17996   4.618   2.148  10.279  0.6597  0.2903 -0.4381
  161SOPE    HY17997   4.672   2.293  10.345  0.3850 -0.7523  0.1240
  161SOPE   O3117998   4.506   2.316  10.203  0.1163 -0.4992 -0.5606
  161SOPE   C3117999   4.579   2.386  10.116 -0.3869 -0.0975 -0.3177
  161SOPE   O3218000   4.699   2.387  10.122 -0.4522  0.2136  0.0911
  161SOPE   C3218001   4.500   2.451  10.006  0.3895 -0.3588 -1.4750
  161SOPE   H2X18002   4.506   2.561  10.023 -0.4369 -0.6009  0.5144
  161SOPE   H2Y18003   4.391   2.429  10.005  0.4213 -0.5764 -0.1734
  161SOPE   C2318004   4.152   2.221  10.116  0.8917 -0.8745 -0.1539
  161SOPE   H3R18005   4.217   2.178  10.037  1.3372  1.5658 -1.1235
  161SOPE   H3S18006   4.184   2.327  10.120 -4.5350  0.9340 -0.0632
  161SOPE   C2418007   4.008   2.205  10.066  0.6004  0.3527  0.0718
  161SOPE   H4R18008   3.976   2.101  10.043  0.6722  0.0722  1.2133
  161SOPE   H4S18009   3.947   2.233  10.154 -0.9445  0.6198 -1.0571
  161SOPE   C2518010   3.976   2.315   9.971 -0.7027 -0.4041  0.2657
  161SOPE   H5R18011   3.999   2.411  10.021  0.0221 -0.2221 -0.4190
  161SOPE   H5S18012   4.037   2.300   9.880 -1.8192  1.1140 -0.7588
  161SOPE   C2618013   3.829   2.300   9.931 -0.1315  0.1679  0.0474
  161SOPE   H6R18014   3.813   2.198   9.890  1.0936  0.6490 -1.7234
  161SOPE   H6S18015   3.769   2.313  10.023  1.5268 -0.6810  1.2619
  161SOPE   C2718016   3.789   2.412   9.830 -0.2967 -0.1290  0.2354
  161SOPE   H7R18017   3.815   2.512   9.871 -1.2331  0.8114 -1.4140
  161SOPE   H7S18018   3.855   2.404   9.741 -1.5548 -1.5830 -0.5969
  161SOPE   C2818019   3.645   2.432   9.779  0.0034 -0.4005  0.7394
  161SOPE   H8R18020   3.575   2.457   9.862  0.0581  2.3497  0.0008
  161SOPE   H8S18021   3.648   2.519   9.710  1.4624  0.5744  1.9945
  161SOPE   C2918022   3.594   2.313   9.705  0.0337 -0.2127 -0.6958
  161SOPE   H9118023   3.587   2.228   9.774  0.2091  0.4749  0.1912
  161SOPE  C21018024   3.554   2.302   9.582  0.5702 -0.2866 -0.2456
  161SOPE  H10118025   3.535   2.202   9.540 -0.5742 -0.0690 -0.2675
  161SOPE  C21118026   3.567   2.413   9.482 -0.1512  0.0578 -0.0659
  161SOPE  H11R18027   3.630   2.501   9.510  1.8526 -1.4806  0.3556
  161SOPE  H11S18028   3.464   2.435   9.445 -0.8389  1.1363  2.3880
  161SOPE  C21218029   3.652   2.375   9.355  0.1925 -0.1194  0.0221
  161SOPE  H12R18030   3.605   2.282   9.318 -1.6762  1.1112 -0.7468
  161SOPE  H12S18031   3.757   2.348   9.381 -0.0067 -2.8247 -1.7422
  161SOPE  C21318032   3.642   2.490   9.251  0.3495  0.0795  0.5701
  161SOPE  H13R18033   3.692   2.581   9.288  2.6360 -0.5079 -0.9319
  161SOPE  H13S18034   3.534   2.515   9.248  0.4926  0.7998  1.3041
  161SOPE  C21418035   3.695   2.458   9.112 -0.3800 -0.4245  0.2302
  161SOPE  H14R18036   3.786   2.394   9.106  0.5702  0.8657  0.6098
  161SOPE  H14S18037   3.707   2.546   9.046 -4.0620 -1.2194 -1.6058
  161SOPE  C21518038   3.590   2.377   9.031  0.7759 -0.4260  0.0362
  161SOPE  H15R18039   3.490   2.418   9.056 -0.1686 -0.2291 -3.6990
  161SOPE  H15S18040   3.595   2.275   9.074  0.2551 -0.4895 -0.0416
  161SOPE  C21618041   3.604   2.381   8.877  0.2659  0.2420 -0.5758
  161SOPE  H16R18042   3.598   2.482   8.831 -0.7415  0.5590  0.2232
  161SOPE  H16S18043   3.514   2.325   8.842 -1.2975  1.5977  1.1500
  161SOPE  C21718044   3.729   2.305   8.826 -0.4775 -0.4066 -0.6219
  161SOPE  H17R18045   3.720   2.195   8.840 -2.6963 -0.3601 -1.6140
  161SOPE  H17S18046   3.817   2.345   8.882  0.0295  1.4940 -2.7211
  161SOPE  C21818047   3.753   2.307   8.673 -0.6868 -0.5762 -0.0696
  161SOPE  H18R18048   3.859   2.296   8.642 -0.6062 -0.3873  0.1326
  161SOPE  H18S18049   3.723   2.404   8.629 -1.3778 -0.4141  0.7257
  161SOPE  H18T18050   3.682   2.240   8.620 -1.2728 -1.4659  1.7582
  161SOPE   C3318051   4.564   2.416   9.868 -0.3655  0.1605  0.4368
  161SOPE   H3X18052   4.666   2.461   9.876  0.7664 -1.9991 -1.3678
  161SOPE   H3Y18053   4.519   2.482   9.790  1.7167 -0.9655 -1.7767
  161SOPE   C3418054   4.560   2.269   9.846 -0.0630 -0.1135 -0.0757
  161SOPE   H4X18055   4.455   2.235   9.851 -0.5229  1.6005  2.8101
  161SOPE   H4Y18056   4.607   2.215   9.932 -1.1699 -2.2305 -0.7626
  161SOPE   C3518057   4.621   2.221   9.717  0.0192  0.0100  0.8015
  161SOPE   H5X18058   4.621   2.110   9.716  2.6845 -0.0365  0.3773
  161SOPE   H5Y18059   4.726   2.254   9.702 -0.2742  0.7688  0.3795
  161SOPE   C3618060   4.556   2.277   9.587 -0.9004  0.3107  0.0775
  161SOPE   H6X18061   4.596   2.379   9.568  2.2679 -0.7393  0.8395
  161SOPE   H6Y18062   4.445   2.270   9.592 -0.6271 -5.0366  0.9062
  161SOPE   C3718063   4.595   2.194   9.467  0.2008 -0.7560 -0.1739
  161SOPE   H7X18064   4.589   2.085   9.486 -0.9854 -0.3371  2.0236
  161SOPE   H7Y18065   4.704   2.202   9.445  0.6036  0.3598  2.1009
  161SOPE   C3818066   4.528   2.239   9.330  0.6938 -0.1620  0.9441
  161SOPE   H8X18067   4.599   2.216   9.247 -0.0944  3.8277 -0.9549
  161SOPE   H8Y18068   4.524   2.350   9.327  4.8192  0.0445 -1.7190
  161SOPE   C3918069   4.391   2.167   9.297 -0.0646 -0.3116 -0.6352
  161SOPE   H9X18070   4.343   2.236   9.224 -3.3659  0.2471  1.9854
  161SOPE   H9Y18071   4.329   2.156   9.388 -2.1796 -1.7550 -2.1938
  161SOPE  C31018072   4.405   2.016   9.249  0.2814 -0.0918  0.5880
  161SOPE  H10X18073   4.437   1.966   9.342 -2.1006  0.1709  1.5922
  161SOPE  H10Y18074   4.498   2.015   9.188  0.1857  1.5995  0.3815
  161SOPE  C31118075   4.277   1.957   9.183 -0.4979  0.3431 -0.1245
  161SOPE  H11X18076   4.192   1.981   9.250 -0.3700  0.7995 -0.1240
  161SOPE  H11Y18077   4.290   1.847   9.190  1.6142  0.6410  1.0055
  161SOPE  C31218078   4.254   2.006   9.038  0.7892  0.2853 -0.4586
  161SOPE  H12X18079   4.348   2.006   8.979  0.9410 -0.6857 -0.2170
  161SOPE  H12Y18080   4.220   2.112   9.047  0.2452  0.0349  0.4864
  161SOPE  C31318081   4.154   1.916   8.965 -0.1601  0.1026  0.2605
  161SOPE  H13X18082   4.075   1.879   9.034 -2.7666  1.4747 -1.8929
  161SOPE  H13Y18083   4.209   1.829   8.925  0.5614 -0.7421  2.9986
  161SOPE  C31418084   4.073   1.991   8.857  0.1661 -0.0953  0.1618
  161SOPE  H14X18085   4.037   2.083   8.907 -0.2959 -0.8014  1.1268
  161SOPE  H14Y18086   3.980   1.942   8.822  1.2228 -1.8307 -0.2982
  161SOPE  C31518087   4.158   2.021   8.745  0.4584  0.4689  0.3213
  161SOPE  H15X18088   4.191   1.930   8.691  0.7577 -0.1804  1.5661
  161SOPE  H15Y18089   4.251   2.070   8.782  0.2735  1.5944 -0.6761
  161SOPE  C31618090   4.071   2.112   8.654 -0.2348 -0.0620  0.3107
  161SOPE  H16X18091   4.039   2.204   8.708 -0.7692 -1.4262  2.3772
  161SOPE  H16Y18092   3.982   2.054   8.620  0.8060 -1.1997 -0.5456
  161SOPE  C31718093   4.158   2.145   8.532 -0.3858 -0.1785 -0.1431
  161SOPE  H17X18094   4.177   2.052   8.474  1.6266  1.3442 -2.0180
  161SOPE  H17Y18095   4.258   2.178   8.568  0.0763 -1.2083 -0.4666
  161SOPE  C31818096   4.095   2.252   8.441 -0.4649 -0.3516  0.8744
  161SOPE  H18X18097   4.044   2.328   8.504  2.2702  1.3851  1.0800
  161SOPE  H18Y18098   4.038   2.201   8.360 -1.4111 -1.1289  2.0008
  161SOPE  H18Z18099   4.186   2.305   8.405 -1.3102  2.5368  2.8317
  162SOPE     N18100   3.678   1.784  10.868  0.7457 -0.5126 -0.7140
  162SOPE   HN118101   3.595   1.760  10.811  0.3882  0.4408 -0.6078
  162SOPE   HN218102   3.694   1.887  10.869 -0.9521 -0.2332 -0.4950
  162SOPE   HN318103   3.763   1.744  10.822  0.5569  0.9621 -2.4082
  162SOPE   C1218104   3.669   1.733  11.008  0.8889 -0.3045 -0.4117
  162SOPE  H12A18105   3.601   1.804  11.061  0.4016 -0.4032 -0.9064
  162SOPE  H12B18106   3.769   1.762  11.046  0.3493  0.2045  0.6756
  162SOPE   C1118107   3.629   1.591  11.008 -0.2848 -0.5867  0.0259
  162SOPE  H11A18108   3.631   1.549  11.110  0.0373 -0.8229 -0.0761
  162SOPE  H11B18109   3.706   1.525  10.962 -0.9603 -1.2289 -0.1908
  162SOPE     P18110   3.370   1.588  11.016 -0.5527 -0.3579 -0.1735
  162SOPE   O1318111   3.380   1.704  11.104 -0.7171  0.0877 -0.2075
  162SOPE   O1418112   3.338   1.461  11.077  0.5382  0.1817 -0.1206
  162SOPE   O1218113   3.503   1.572  10.937 -0.1991  0.5613 -0.1309
  162SOPE   O1118114   3.275   1.628  10.901 -0.5393  0.2116  0.2481
  162SOPE    C118115   3.188   1.528  10.839  0.1865  0.1981  0.2204
  162SOPE    HA18116   3.120   1.585  10.772  0.0995  1.0876  1.0388
  162SOPE    HB18117   3.122   1.478  10.912  0.1807 -1.2763 -0.7892
  162SOPE    C218118   3.260   1.417  10.760  0.2248 -0.5213 -0.4065
  162SOPE    HS18119   3.324   1.359  10.829 -0.3960 -0.5830  0.1258
  162SOPE   O2118120   3.330   1.477  10.655 -0.2845  0.2917  0.0395
  162SOPE   C2118121   3.431   1.412  10.599  0.2473 -0.7202 -0.1734
  162SOPE   O2218122   3.474   1.303  10.638 -0.7635 -0.1438  0.6273
  162SOPE   C2218123   3.502   1.497  10.494 -0.8695  0.3966 -1.1670
  162SOPE   H2R18124   3.571   1.434  10.433  0.6142  0.6637  0.2039
  162SOPE   H2S18125   3.569   1.572  10.540  0.0217 -1.1131  0.0549
  162SOPE    C318126   3.153   1.320  10.690  0.4961  0.0741 -0.1159
  162SOPE    HX18127   3.096   1.275  10.774 -0.0483  1.0813  0.0582
  162SOPE    HY18128   3.196   1.227  10.647  0.1892 -0.5448  0.8939
  162SOPE   O3118129   3.068   1.394  10.606 -0.5741  0.6819 -0.1749
  162SOPE   C3118130   3.106   1.385  10.475  0.6318  0.1924  0.5493
  162SOPE   O3218131   3.190   1.308  10.433  0.3260  0.1418 -0.2639
  162SOPE   C3218132   3.031   1.491  10.396 -0.0496 -0.5802  0.6669
  162SOPE   H2X18133   3.076   1.590  10.416  0.5256 -0.3852 -1.3958
  162SOPE   H2Y18134   2.923   1.492  10.420 -0.6294 -0.6330 -1.7782
  162SOPE   C2318135   3.407   1.579  10.404 -0.0990  0.3512 -0.2808
  162SOPE   H3R18136   3.366   1.664  10.463 -0.2717 -0.3811  0.6569
  162SOPE   H3S18137   3.326   1.523  10.351  1.4682 -1.1072 -1.1651
  162SOPE   C2418138   3.492   1.647  10.297 -0.1967  0.0486  0.0703
  162SOPE   H4R18139   3.570   1.710  10.344 -0.2829 -0.7394  1.2912
  162SOPE   H4S18140   3.544   1.559  10.253  2.8825  1.6757  0.2967
  162SOPE   C2518141   3.413   1.713  10.188  0.0892  0.6542 -0.2087
  162SOPE   H5R18142   3.367   1.624  10.141  0.4094 -0.0476  0.7774
  162SOPE   H5S18143   3.328   1.773  10.226  0.5716  1.5040 -0.4607
  162SOPE   C2618144   3.502   1.783  10.088  0.3524 -0.2958 -0.0147
  162SOPE   H6R18145   3.571   1.854  10.139 -1.5005  0.9738  0.8085
  162SOPE   H6S18146   3.552   1.698  10.037 -0.9708 -1.4320  0.5515
  162SOPE   C2718147   3.420   1.853   9.976  0.3967 -0.4808  0.6250
  162SOPE   H7R18148   3.330   1.792   9.949  1.3180 -1.8439  0.5659
  162SOPE   H7S18149   3.368   1.941  10.019  0.8663 -0.6241  1.4858
  162SOPE   C2818150   3.495   1.903   9.861  0.3889  0.0427 -0.1706
  162SOPE   H8R18151   3.575   1.968   9.902  1.3584 -0.5902 -1.0315
  162SOPE   H8S18152   3.548   1.825   9.802 -0.4451  0.8712 -2.0426
  162SOPE   C2918153   3.417   2.000   9.769 -0.2069  0.9313 -0.1838
  162SOPE   H9118154   3.432   2.107   9.792  1.6158  0.1448  2.4977
  162SOPE  C21018155   3.331   1.962   9.671 -0.4818 -0.6155 -0.1276
  162SOPE  H10118156   3.300   2.045   9.606  1.6038  0.7721  0.5985
  162SOPE  C21118157   3.276   1.825   9.633 -0.5362 -0.5928 -0.1953
  162SOPE  H11R18158   3.166   1.836   9.642 -0.5102  2.8009 -3.0005
  162SOPE  H11S18159   3.302   1.750   9.711 -1.1876  2.3139  2.9931
  162SOPE  C21218160   3.303   1.790   9.478 -0.4085  0.0547 -0.6760
  162SOPE  H12R18161   3.291   1.681   9.464  1.3561 -0.4075  1.1050
  162SOPE  H12S18162   3.408   1.811   9.450 -0.3448 -2.6555 -2.6100
  162SOPE  C21318163   3.218   1.856   9.370  0.0601 -0.7003  0.1662
  162SOPE  H13R18164   3.114   1.832   9.403  0.3306 -1.5151  0.4397
  162SOPE  H13S18165   3.234   1.793   9.280  1.0115  0.3155 -0.3823
  162SOPE  C21418166   3.231   2.010   9.348  0.3942 -0.4688  0.3477
  162SOPE  H14R18167   3.220   2.056   9.449 -1.6763 -0.4408  0.1249
  162SOPE  H14S18168   3.146   2.052   9.290  0.5219  0.8695  1.1102
  162SOPE  C21518169   3.365   2.065   9.296 -0.4844 -0.1747  0.5985
  162SOPE  H15R18170   3.451   2.031   9.358 -0.8123  0.0902  1.1965
  162SOPE  H15S18171   3.363   2.175   9.290 -0.6105 -0.2723 -1.7800
  162SOPE  C21618172   3.387   2.027   9.148  0.2958 -0.5421 -0.9607
  162SOPE  H16R18173   3.388   1.918   9.126 -2.7516 -0.8063 -0.0244
  162SOPE  H16S18174   3.490   2.060   9.124 -0.1555  0.4384 -1.5625
  162SOPE  C21718175   3.289   2.088   9.049  0.0429 -0.3627 -0.3039
  162SOPE  H17R18176   3.287   2.197   9.074 -1.3679 -1.0716  2.9104
  162SOPE  H17S18177   3.185   2.058   9.074 -0.3723  0.5549 -0.8880
  162SOPE  C21818178   3.313   2.053   8.908 -0.3346  0.8043  0.0312
  162SOPE  H18R18179   3.390   2.122   8.868 -2.2503  1.7071 -2.1524
  162SOPE  H18S18180   3.216   2.064   8.856 -1.7611 -0.9151  2.2207
  162SOPE  H18T18181   3.357   1.951   8.905 -1.2123  0.3120  2.4314
  162SOPE   C3318182   3.063   1.475  10.242 -0.0799 -0.0533  0.2676
  162SOPE   H3X18183   3.169   1.452  10.219 -0.2458  0.1882 -0.7550
  162SOPE   H3Y18184   3.026   1.571  10.202  0.1347 -0.1410 -0.1391
  162SOPE   C3418185   2.970   1.366  10.183 -0.7626 -0.4257  0.3225
  162SOPE   H4X18186   2.886   1.344  10.252  0.0945  1.3839  1.9959
  162SOPE   H4Y18187   3.033   1.275  10.176 -0.7268 -0.2730 -1.3748
  162SOPE   C3518188   2.923   1.403  10.042 -0.1695 -1.0085  0.0651
  162SOPE   H5X18189   2.905   1.512  10.030  0.6841 -0.7044  1.3778
  162SOPE   H5Y18190   2.836   1.337  10.023  1.0748 -2.7805  0.3512
  162SOPE   C3618191   3.016   1.361   9.920  0.3112  0.3556  0.2333
  162SOPE   H6X18192   2.951   1.371   9.830  0.9876  1.2196 -0.1596
  162SOPE   H6Y18193   3.036   1.252   9.930  0.1306  0.0673 -2.2277
  162SOPE   C3718194   3.148   1.442   9.895  0.0785 -0.2655  0.5694
  162SOPE   H7X18195   3.212   1.415   9.982  0.8542 -2.6108 -0.6658
  162SOPE   H7Y18196   3.138   1.551   9.909  0.6082 -0.4957  2.8978
  162SOPE   C3818197   3.230   1.390   9.774 -0.8001 -0.5879  0.1553
  162SOPE   H8X18198   3.271   1.288   9.785 -1.5339 -0.7942  0.9715
  162SOPE   H8Y18199   3.327   1.441   9.755 -1.1796  0.5665  1.2435
  162SOPE   C3918200   3.159   1.402   9.644 -0.8350 -0.4364  0.2076
  162SOPE   H9X18201   3.143   1.509   9.618  0.3377  0.1318  1.7422
  162SOPE   H9Y18202   3.061   1.350   9.640  0.6007 -3.4127  2.0820
  162SOPE  C31018203   3.247   1.345   9.531 -0.1963 -0.0501  1.2061
  162SOPE  H10X18204   3.275   1.239   9.552  0.6260 -0.0224  0.2658
  162SOPE  H10Y18205   3.347   1.393   9.539  0.1658 -0.4408 -0.8599
  162SOPE  C31118206   3.164   1.361   9.408  0.3946  0.3534 -0.2064
  162SOPE  H11X18207   3.123   1.463   9.419  0.2198  0.1827  0.8098
  162SOPE  H11Y18208   3.073   1.299   9.419  0.6152  0.0952  0.1982
  162SOPE  C31218209   3.233   1.328   9.278  0.1282 -0.4456  0.6452
  162SOPE  H12X18210   3.246   1.218   9.269 -1.9027 -0.7629  1.4243
  162SOPE  H12Y18211   3.328   1.386   9.282 -0.0541 -0.0655 -0.2995
  162SOPE  C31318212   3.148   1.386   9.154  0.2613 -0.1486  0.0901
  162SOPE  H13X18213   3.147   1.496   9.174  2.0743 -0.3059  1.1509
  162SOPE  H13Y18214   3.048   1.339   9.166 -1.0985  3.1238  2.4982
  162SOPE  C31418215   3.207   1.370   9.014  0.0608 -0.4729 -0.0076
  162SOPE  H14X18216   3.310   1.410   9.008 -0.1303  0.0637  0.2740
  162SOPE  H14Y18217   3.148   1.432   8.944  1.0858  1.9290  1.1950
  162SOPE  C31518218   3.200   1.225   8.964  0.3723  0.2798 -0.0312
  162SOPE  H15X18219   3.106   1.166   8.975  1.6932 -1.6736  0.9184
  162SOPE  H15Y18220   3.266   1.169   9.033  0.7418  0.1628 -0.4756
  162SOPE  C31618221   3.260   1.213   8.825 -0.2209  0.1999 -0.0195
  162SOPE  H16X18222   3.339   1.292   8.829  0.9257 -0.9929  2.4634
  162SOPE  H16Y18223   3.176   1.247   8.762  0.3093 -1.2061 -1.5053
  162SOPE  C31718224   3.310   1.077   8.780 -0.2471  0.2816  0.3672
  162SOPE  H17X18225   3.230   0.999   8.782 -0.9047  0.8382 -2.2660
  162SOPE  H17Y18226   3.391   1.039   8.846  1.2832 -0.6932 -2.0124
  162SOPE  C31818227   3.352   1.074   8.636  0.1095 -0.0446  0.3976
  162SOPE  H18X18228   3.429   1.146   8.601 -0.3913  0.5708  0.5603
  162SOPE  H18Y18229   3.257   1.085   8.581 -0.7816  0.6480  2.0422
  162SOPE  H18Z18230   3.395   0.973   8.617 -1.1284 -0.1822 -1.7403
  163SOPE     N18231   4.168   5.676  10.877 -0.0985 -0.6583  0.3149
  163SOPE   HN118232   4.084   5.619  10.854  1.4373 -2.6322 -0.5684
  163SOPE   HN218233   4.216   5.627  10.956 -0.7252 -1.2279  0.3456
  163SOPE   HN318234   4.143   5.768  10.918  0.8706  1.1475 -2.9595
  163SOPE   C1218235   4.239   5.689  10.747  0.1407 -0.4587  0.3834
  163SOPE  H12A18236   4.244   5.585  10.709 -1.7307 -1.0222  1.6275
  163SOPE  H12B18237   4.338   5.729  10.775  0.4058 -1.1243  0.4045
  163SOPE   C1118238   4.164   5.785  10.651 -0.4792  0.4110  0.7118
  163SOPE  H11A18239   4.064   5.739  10.637 -0.1204 -0.3465  0.6329
  163SOPE  H11B18240   4.222   5.800  10.557 -0.4905  3.2116  1.1039
  163SOPE     P18241   4.223   6.040  10.714  0.3044 -0.3908 -0.1064
  163SOPE   O1318242   4.371   6.022  10.695  0.7441 -0.8318 -0.8065
  163SOPE   O1418243   4.185   6.116  10.838 -0.4495 -0.4482  0.2058
  163SOPE   O1218244   4.147   5.904  10.724  0.8035  0.5920  0.3827
  163SOPE   O1118245   4.169   6.101  10.587  0.4798  0.1631 -0.0924
  163SOPE    C118246   4.028   6.106  10.568  0.2119 -0.5319  0.3308
  163SOPE    HA18247   3.998   6.199  10.622  2.2308  0.8154 -0.8505
  163SOPE    HB18248   3.976   6.014  10.603  0.2635 -1.0105 -0.8523
  163SOPE    C218249   3.988   6.104  10.423 -0.6910  0.1851 -0.0855
  163SOPE    HS18250   4.041   6.194  10.383  1.1840 -0.4213  0.9836
  163SOPE   O2118251   3.847   6.123  10.409  0.5210  0.1467  0.5480
  163SOPE   C2118252   3.808   6.203  10.317  0.1065 -0.2375  0.0651
  163SOPE   O2218253   3.881   6.255  10.237 -0.5417  0.3578 -0.0818
  163SOPE   C2218254   3.659   6.213  10.316  0.5365  1.2468  0.1816
  163SOPE   H2R18255   3.624   6.318  10.326 -1.2624  0.8011 -1.1235
  163SOPE   H2S18256   3.623   6.159  10.407  2.9341 -0.5747  0.1082
  163SOPE    C318257   4.033   5.973  10.350 -0.1162  0.3140 -0.4344
  163SOPE    HX18258   3.993   5.891  10.413 -1.1862 -0.3743 -1.9848
  163SOPE    HY18259   4.144   5.970  10.347 -0.1323  0.1043 -0.8397
  163SOPE   O3118260   3.998   5.964  10.209  0.2804 -0.2749 -0.0166
  163SOPE   C3118261   3.899   5.871  10.180  0.2968  0.5863  0.3520
  163SOPE   O3218262   3.838   5.804  10.262  0.2873 -0.1611 -0.0966
  163SOPE   C3218263   3.866   5.881  10.026 -0.3139 -0.2258  0.0644
  163SOPE   H2X18264   3.960   5.861   9.970  0.8335 -0.0818  1.8880
  163SOPE   H2Y18265   3.835   5.987  10.014 -0.8946 -0.5878 -1.6694
  163SOPE   C2318266   3.589   6.145  10.191 -0.5465 -0.4585  0.5845
  163SOPE   H3R18267   3.478   6.141  10.205 -0.4766 -0.2601  1.2458
  163SOPE   H3S18268   3.625   6.040  10.196 -1.7119 -0.7659  4.1085
  163SOPE   C2418269   3.597   6.228  10.060  0.1775 -0.0603 -0.1282
  163SOPE   H4R18270   3.536   6.319  10.078 -0.9416 -1.0463  1.1461
  163SOPE   H4S18271   3.700   6.250  10.025  0.6127 -0.5562  0.8415
  163SOPE   C2518272   3.531   6.147   9.943 -0.4814 -0.6554  0.7108
  163SOPE   H5R18273   3.612   6.084   9.899  0.4395  1.8966 -1.4096
  163SOPE   H5S18274   3.443   6.088   9.976 -1.1880  0.4643  0.8853
  163SOPE   C2618275   3.477   6.240   9.831  0.5561 -0.3522 -0.5095
  163SOPE   H6R18276   3.395   6.293   9.884 -0.8276  0.7167 -3.5589
  163SOPE   H6S18277   3.551   6.319   9.807 -1.3112  2.2830  2.0715
  163SOPE   C2718278   3.408   6.183   9.709  0.1714 -0.3075  0.2466
  163SOPE   H7R18279   3.482   6.120   9.656  0.4814 -0.4852  0.8940
  163SOPE   H7S18280   3.321   6.122   9.742  0.4385  0.0285  1.5991
  163SOPE   C2818281   3.374   6.282   9.597  1.3483 -0.3715  0.3208
  163SOPE   H8R18282   3.312   6.232   9.519  1.1876  0.2880  0.0234
  163SOPE   H8S18283   3.297   6.341   9.651  1.2451  0.1452 -0.3792
  163SOPE   C2918284   3.487   6.366   9.539  0.6934 -0.6174  0.3829
  163SOPE   H9118285   3.562   6.401   9.611  0.0697 -0.4059  0.9404
  163SOPE  C21018286   3.515   6.388   9.406  0.2298 -0.0094  0.1017
  163SOPE  H10118287   3.602   6.449   9.380 -0.4249  1.0314  0.3244
  163SOPE  C21118288   3.440   6.337   9.285 -0.1609  0.7105 -0.1517
  163SOPE  H11R18289   3.393   6.237   9.301  1.3218 -0.4752 -2.9437
  163SOPE  H11S18290   3.516   6.329   9.204 -3.1476 -2.4918 -2.7838
  163SOPE  C21218291   3.317   6.421   9.240  0.1290  0.2815  0.2258
  163SOPE  H12R18292   3.350   6.513   9.188 -1.2922  0.9035  0.3918
  163SOPE  H12S18293   3.250   6.456   9.322  0.2137  2.0526 -0.4332
  163SOPE  C21318294   3.237   6.343   9.138  0.0264 -0.4694  0.4058
  163SOPE  H13R18295   3.183   6.259   9.187  0.3549 -1.6193 -1.1654
  163SOPE  H13S18296   3.294   6.296   9.055  1.2016  0.2510  0.7867
  163SOPE  C21418297   3.130   6.430   9.063  0.0105  0.1287 -0.4982
  163SOPE  H14R18298   3.192   6.507   9.012  2.0584 -1.0096  0.1714
  163SOPE  H14S18299   3.067   6.477   9.141  0.8148 -0.1979  0.3662
  163SOPE  C21518300   3.045   6.340   8.972 -0.3893 -0.4481  0.1715
  163SOPE  H15R18301   2.984   6.278   9.040 -0.1983 -0.4570  0.3375
  163SOPE  H15S18302   3.111   6.267   8.921  0.1509  0.4470 -0.4369
  163SOPE  C21618303   2.959   6.417   8.876 -0.2649 -0.2606 -0.3904
  163SOPE  H16R18304   2.908   6.508   8.915 -0.8615 -0.1189 -1.4750
  163SOPE  H16S18305   2.885   6.350   8.827  0.0148  0.4933 -1.8592
  163SOPE  C21718306   3.040   6.462   8.752  0.0817  0.5124  0.2903
  163SOPE  H17R18307   3.048   6.364   8.700  0.7389  0.4868  0.4318
  163SOPE  H17S18308   3.139   6.503   8.781  0.9235 -1.2165 -0.0731
  163SOPE  C21818309   2.977   6.568   8.657  0.0317  0.2911 -0.1132
  163SOPE  H18R18310   3.038   6.587   8.566 -0.2778  1.4978 -0.0776
  163SOPE  H18S18311   2.972   6.659   8.719  1.9651 -0.0488  0.5737
  163SOPE  H18T18312   2.875   6.529   8.633  0.2546 -1.6628  1.9571
  163SOPE   C3318313   3.753   5.786   9.997 -0.2155 -0.3115  0.0654
  163SOPE   H3X18314   3.665   5.822  10.054 -0.1511 -0.3132  0.1654
  163SOPE   H3Y18315   3.776   5.684  10.033  3.3086  0.1073 -0.7579
  163SOPE   C3418316   3.722   5.788   9.849 -0.2796  0.7343 -0.1384
  163SOPE   H4X18317   3.772   5.713   9.784  0.5118  0.0995  1.1816
  163SOPE   H4Y18318   3.743   5.888   9.804 -2.1768  1.0790 -0.2940
  163SOPE   C3518319   3.572   5.753   9.829 -0.9159  0.3753 -0.5119
  163SOPE   H5X18320   3.527   5.849   9.863  0.7773 -0.4249  4.3834
  163SOPE   H5Y18321   3.546   5.671   9.899  2.8507  0.0035  0.5923
  163SOPE   C3618322   3.536   5.728   9.685 -0.0461  0.2780 -0.4354
  163SOPE   H6X18323   3.526   5.620   9.663 -1.4930  0.6109 -1.5438
  163SOPE   H6Y18324   3.617   5.762   9.617  0.5399 -0.8346 -0.2926
  163SOPE   C3718325   3.398   5.796   9.638 -0.0681  0.7914 -0.6372
  163SOPE   H7X18326   3.394   5.901   9.673 -0.6489  0.6232 -0.1926
  163SOPE   H7Y18327   3.316   5.745   9.693  1.2037  1.2568  1.7894
  163SOPE   C3818328   3.363   5.796   9.490 -0.0730 -0.2869 -0.3016
  163SOPE   H8X18329   3.369   5.694   9.446  0.5731 -1.6601  2.8531
  163SOPE   H8Y18330   3.444   5.843   9.430  0.0374  0.6130  0.5440
  163SOPE   C3918331   3.239   5.882   9.471 -0.1851  0.9073  0.4910
  163SOPE   H9X18332   3.255   5.986   9.505  1.8808  0.6761  0.2818
  163SOPE   H9Y18333   3.159   5.837   9.534 -0.2599 -1.7750 -1.4138
  163SOPE  C31018334   3.189   5.874   9.324  0.6090 -0.6848 -0.0313
  163SOPE  H10X18335   3.146   5.776   9.295  0.4919 -0.7613  0.3975
  163SOPE  H10Y18336   3.278   5.880   9.257  0.8978 -0.4989  0.3674
  163SOPE  C31118337   3.087   5.981   9.288  0.4888  0.1219  0.5040
  163SOPE  H11X18338   3.134   6.079   9.311  1.0493  0.4110 -1.7381
  163SOPE  H11Y18339   2.991   5.984   9.342 -0.3571 -1.2482 -0.8510
  163SOPE  C31218340   3.054   5.976   9.134  0.3738 -0.1527 -1.1576
  163SOPE  H12X18341   3.068   5.871   9.101 -0.8222 -1.3909  1.9908
  163SOPE  H12Y18342   3.132   6.029   9.077  1.1886  0.1150  0.1881
  163SOPE  C31318343   2.911   6.023   9.114 -0.3275  0.0357 -0.2434
  163SOPE  H13X18344   2.906   6.126   9.158 -0.4898 -0.3370  0.6214
  163SOPE  H13Y18345   2.855   5.954   9.181  0.1341 -0.0739  0.0367
  163SOPE  C31418346   2.875   6.027   8.970  0.8172 -0.3472  0.2667
  163SOPE  H14X18347   2.874   5.918   8.946 -0.7401 -0.2037 -0.3782
  163SOPE  H14Y18348   2.951   6.063   8.897  0.3460  2.8739  1.2760
  163SOPE  C31518349   2.736   6.085   8.949 -0.1654 -0.5573  0.5119
  163SOPE  H15X18350   2.745   6.195   8.936 -1.5727 -0.5906 -0.8281
  163SOPE  H15Y18351   2.673   6.064   9.038  1.3132 -0.5435  1.6014
  163SOPE  C31618352   2.679   6.043   8.820 -0.5849  0.0860 -0.3293
  163SOPE  H16X18353   2.580   6.091   8.801 -0.5521  1.4380  2.6347
  163SOPE  H16Y18354   2.661   5.933   8.820 -2.3284  0.3429 -1.4699
  163SOPE  C31718355   2.766   6.077   8.701  0.1884 -0.2761  0.3114
  163SOPE  H17X18356   2.868   6.033   8.710  0.7117  1.2439  2.0963
  163SOPE  H17Y18357   2.775   6.187   8.700 -1.1731 -0.1595 -0.3715
  163SOPE  C31818358   2.699   6.036   8.569  0.4117  0.2137  0.4584
  163SOPE  H18X18359   2.739   6.107   8.493  2.1505 -0.6729  0.5338
  163SOPE  H18Y18360   2.589   6.051   8.568  0.7389  2.9821 -2.3029
  163SOPE  H18Z18361   2.732   5.936   8.534  2.0080  0.9537 -0.1866
  164SOPE     N18362   6.016   4.024  10.742  0.5075 -0.0416  0.3116
  164SOPE   HN118363   6.026   4.030  10.638 -0.7834 -3.1715 -0.0591
  164SOPE   HN218364   6.102   3.977  10.778  0.7924 -0.2492 -0.6121
  164SOPE   HN318365   5.934   3.963  10.760 -0.2127  1.3414  1.7548
  164SOPE   C1218366   6.013   4.167  10.793  0.5364  0.2627 -0.1748
  164SOPE  H12A18367   6.019   4.156  10.903 -1.7834  0.6715  0.0196
  164SOPE  H12B18368   5.910   4.204  10.778  1.0716  1.6648 -0.4930
  164SOPE   C1118369   6.128   4.247  10.737  0.7526  0.8132 -0.3433
  164SOPE  H11A18370   6.111   4.352  10.766 -0.9585  1.0649 -2.1920
  164SOPE  H11B18371   6.125   4.241  10.626  1.7031 -2.4443 -0.2470
  164SOPE     P18372   6.375   4.312  10.779  0.1058  0.9121 -0.0690
  164SOPE   O1318373   6.494   4.248  10.832  0.8800  0.3493  0.1424
  164SOPE   O1418374   6.338   4.436  10.850  0.0910 -0.1236 -0.2069
  164SOPE   O1218375   6.260   4.209  10.783  0.3391 -0.6699  0.0403
  164SOPE   O1118376   6.391   4.338  10.627 -0.0906  0.2308  0.0201
  164SOPE    C118377   6.416   4.231  10.544 -0.3643 -0.7894 -0.4383
  164SOPE    HA18378   6.330   4.161  10.548  0.7540 -2.1208  1.5882
  164SOPE    HB18379   6.503   4.179  10.590  1.8462  2.7055 -0.4785
  164SOPE    C218380   6.463   4.279  10.399  0.5945  0.3197  0.2622
  164SOPE    HS18381   6.440   4.192  10.334 -3.0612 -0.6281  2.6283
  164SOPE   O2118382   6.600   4.310  10.397 -0.0216 -0.1708  0.1523
  164SOPE   C2118383   6.687   4.209  10.398  0.5244  0.2950  0.0954
  164SOPE   O2218384   6.657   4.090  10.427 -0.6180 -0.8787 -0.3793
  164SOPE   C2218385   6.823   4.249  10.375  0.1759  0.4866  0.5215
  164SOPE   H2R18386   6.877   4.213  10.465 -1.5174 -0.0354  1.3494
  164SOPE   H2S18387   6.833   4.358  10.358  0.2015  0.3265 -0.4936
  164SOPE    C318388   6.381   4.395  10.347  0.8431 -0.3321 -0.1829
  164SOPE    HX18389   6.386   4.493  10.398  2.1785 -1.6163  2.2936
  164SOPE    HY18390   6.276   4.368  10.372  0.3290 -0.7315 -2.6269
  164SOPE   O3118391   6.398   4.411  10.204  0.5015 -0.3702  0.0032
  164SOPE   C3118392   6.284   4.411  10.142 -0.0360 -0.2779  0.0310
  164SOPE   O3218393   6.172   4.376  10.177 -0.2027 -0.2377 -0.0561
  164SOPE   C3218394   6.315   4.455   9.999 -0.5673  0.2066  0.4201
  164SOPE   H2X18395   6.388   4.383   9.956 -2.4376 -1.9380  0.7775
  164SOPE   H2Y18396   6.361   4.556   9.998  1.8164 -0.7906 -3.3259
  164SOPE   C2318397   6.873   4.177  10.244  0.2176 -0.0846 -0.1862
  164SOPE   H3R18398   6.830   4.074  10.243 -2.9988  1.1083  2.2854
  164SOPE   H3S18399   6.980   4.160  10.268  0.3605  0.1765 -0.6302
  164SOPE   C2418400   6.862   4.244  10.111  0.3712 -0.4726  0.3068
  164SOPE   H4R18401   6.944   4.319  10.112  1.5935 -1.7932  1.0939
  164SOPE   H4S18402   6.887   4.154  10.051  1.2864  0.3929 -0.6230
  164SOPE   C2518403   6.721   4.299  10.084  0.2358  0.7371  0.3657
  164SOPE   H5R18404   6.637   4.231  10.110 -0.0948  1.1830  0.4709
  164SOPE   H5S18405   6.712   4.392  10.144 -0.7971  1.3913 -0.7868
  164SOPE   C2618406   6.702   4.334   9.933 -0.1208 -0.3273 -0.3604
  164SOPE   H6R18407   6.606   4.388   9.926 -0.6582 -1.4079 -1.4415
  164SOPE   H6S18408   6.784   4.399   9.895 -0.0352  0.0063  0.3799
  164SOPE   C2718409   6.699   4.204   9.860  0.6091  0.3178  0.7060
  164SOPE   H7R18410   6.798   4.158   9.841  0.0115 -1.4816  1.8591
  164SOPE   H7S18411   6.640   4.135   9.924  3.4619 -1.1699  1.8424
  164SOPE   C2818412   6.629   4.218   9.722 -0.8287  0.0611 -0.4824
  164SOPE   H8R18413   6.610   4.114   9.688  0.9893  0.0694 -1.5635
  164SOPE   H8S18414   6.539   4.280   9.743  0.4107  2.0355 -0.9606
  164SOPE   C2918415   6.716   4.297   9.626  0.1379 -0.4328 -0.2853
  164SOPE   H9118416   6.775   4.370   9.684 -0.5738  1.4498 -1.8692
  164SOPE  C21018417   6.722   4.281   9.494 -0.1737 -0.9263 -0.4010
  164SOPE  H10118418   6.783   4.350   9.433  0.8926 -2.2324 -0.8313
  164SOPE  C21118419   6.639   4.177   9.425  0.6037 -0.1947  0.4042
  164SOPE  H11R18420   6.542   4.158   9.476  0.3091  0.3301  0.0357
  164SOPE  H11S18421   6.697   4.082   9.420  1.7607  0.5824 -1.3532
  164SOPE  C21218422   6.597   4.225   9.280  0.2361 -0.6534  0.4809
  164SOPE  H12R18423   6.557   4.328   9.269  3.2444  0.3391 -1.7968
  164SOPE  H12S18424   6.519   4.163   9.230  0.4495  0.1081 -0.8219
  164SOPE  C21318425   6.720   4.213   9.178 -0.9145  0.0192 -0.9925
  164SOPE  H13R18426   6.743   4.105   9.163 -1.6459  0.1376 -3.1766
  164SOPE  H13S18427   6.803   4.276   9.216 -1.8072  1.5595 -1.5208
  164SOPE  C21418428   6.696   4.277   9.046  0.5490 -0.1295  0.3662
  164SOPE  H14R18429   6.671   4.384   9.060  0.5027  0.0606 -1.0841
  164SOPE  H14S18430   6.603   4.225   9.013 -0.1810  1.5189 -0.1937
  164SOPE  C21518431   6.807   4.253   8.945  0.0594  0.4772  0.8086
  164SOPE  H15R18432   6.848   4.151   8.959 -0.8828  0.0839  0.7165
  164SOPE  H15S18433   6.885   4.329   8.966  0.2773  0.2648  0.7703
  164SOPE  C21618434   6.765   4.269   8.795  0.5287  0.1690  0.6479
  164SOPE  H16R18435   6.714   4.363   8.766 -0.1960 -0.1555  0.8531
  164SOPE  H16S18436   6.698   4.181   8.785  1.7307 -0.6281 -0.6148
  164SOPE  C21718437   6.890   4.237   8.703 -1.0485 -0.1412 -0.7673
  164SOPE  H17R18438   6.860   4.204   8.601  0.5435 -0.7360 -1.0569
  164SOPE  H17S18439   6.952   4.155   8.745 -0.0996  0.8940 -0.1380
  164SOPE  C21818440   6.973   4.363   8.673  0.4793  0.4567  0.0900
  164SOPE  H18R18441   7.006   4.409   8.768  1.2257  1.3142 -0.5732
  164SOPE  H18S18442   6.909   4.438   8.622 -0.8330  1.1837  2.7070
  164SOPE  H18T18443   7.061   4.343   8.608  0.1268  0.8438 -0.5131
  164SOPE   C3318444   6.203   4.477   9.901  0.6405 -0.1154 -0.6139
  164SOPE   H3X18445   6.144   4.568   9.927  0.3596 -0.4460 -0.0791
  164SOPE   H3Y18446   6.134   4.390   9.898  0.5608  0.0150 -3.5687
  164SOPE   C3418447   6.255   4.498   9.755  0.4014 -0.5804 -0.1915
  164SOPE   H4X18448   6.316   4.407   9.733 -1.3742 -1.5770 -1.1063
  164SOPE   H4Y18449   6.334   4.575   9.748 -1.3823  1.3292  0.4558
  164SOPE   C3518450   6.152   4.533   9.654  0.0828  0.0852  0.0063
  164SOPE   H5X18451   6.095   4.627   9.673 -0.7240 -0.3383 -0.2797
  164SOPE   H5Y18452   6.075   4.456   9.674  2.6950 -2.2636  1.2388
  164SOPE   C3618453   6.207   4.523   9.507 -1.1022 -0.2137 -0.5121
  164SOPE   H6X18454   6.310   4.562   9.492 -1.3569 -0.9797 -4.7681
  164SOPE   H6Y18455   6.136   4.580   9.444  0.5527  2.2622 -0.2056
  164SOPE   C3718456   6.209   4.381   9.447  0.0541 -0.3414  0.2748
  164SOPE   H7X18457   6.106   4.355   9.417  0.4038 -0.5509 -0.7700
  164SOPE   H7Y18458   6.258   4.322   9.527  0.7390  0.9421  0.8273
  164SOPE   C3818459   6.296   4.383   9.330  0.0100 -0.3144 -0.4464
  164SOPE   H8X18460   6.321   4.279   9.302 -0.6492 -0.4096 -0.6788
  164SOPE   H8Y18461   6.392   4.435   9.349  1.4615 -2.5012 -1.6904
  164SOPE   C3918462   6.227   4.465   9.211  0.0665  0.0628  0.2570
  164SOPE   H9X18463   6.219   4.571   9.244  0.0437 -0.1694  1.0225
  164SOPE   H9Y18464   6.128   4.427   9.179  1.8658 -2.3758 -2.6384
  164SOPE  C31018465   6.302   4.450   9.076 -0.2084  0.0927  0.1543
  164SOPE  H10X18466   6.296   4.344   9.043 -0.3099 -0.5589  2.2071
  164SOPE  H10Y18467   6.406   4.481   9.099 -0.1175  2.7784 -3.4375
  164SOPE  C31118468   6.246   4.547   8.965  0.3260  0.0477 -0.3105
  164SOPE  H11X18469   6.245   4.653   8.998  0.6649 -0.2594  0.7349
  164SOPE  H11Y18470   6.138   4.523   8.955 -0.3937  3.4627 -1.6366
  164SOPE  C31218471   6.302   4.519   8.827  0.5602 -0.2275 -0.0871
  164SOPE  H12X18472   6.253   4.422   8.803 -1.8413  1.2099 -1.2295
  164SOPE  H12Y18473   6.412   4.511   8.824  0.5426 -0.2738 -0.8479
  164SOPE  C31318474   6.278   4.638   8.734  0.0755 -0.8665 -0.0287
  164SOPE  H13X18475   6.175   4.678   8.743  0.4625  0.1817 -0.1991
  164SOPE  H13Y18476   6.278   4.600   8.629  0.0556 -1.2577  0.1138
  164SOPE  C31418477   6.379   4.749   8.751 -0.3039 -0.3166  0.3703
  164SOPE  H14X18478   6.477   4.708   8.719 -0.2473 -0.3096  0.5349
  164SOPE  H14Y18479   6.400   4.778   8.856  1.2688 -2.1588  0.5799
  164SOPE  C31518480   6.340   4.871   8.660 -0.0831 -0.2677 -0.0131
  164SOPE  H15X18481   6.249   4.922   8.700  0.7089  2.4111 -1.5472
  164SOPE  H15Y18482   6.322   4.835   8.557 -2.3542 -2.2445  1.0068
  164SOPE  C31618483   6.447   4.978   8.670  0.5972  0.7740  0.0122
  164SOPE  H16X18484   6.547   4.931   8.660 -0.2146 -0.9793 -0.0871
  164SOPE  H16Y18485   6.442   5.031   8.768 -0.5769  1.0136 -0.1610
  164SOPE  C31718486   6.421   5.095   8.574  0.1542  0.0358 -0.0807
  164SOPE  H17X18487   6.353   5.166   8.625  1.0135  0.3601  0.6216
  164SOPE  H17Y18488   6.379   5.069   8.474 -1.6505  0.6424  0.5049
  164SOPE  C31818489   6.553   5.176   8.545 -0.6759 -0.4761  0.2394
  164SOPE  H18X18490   6.535   5.262   8.476 -1.9804 -0.7410  0.2283
  164SOPE  H18Y18491   6.638   5.117   8.505 -1.2985 -2.0796  1.2268
  164SOPE  H18Z18492   6.601   5.221   8.634  2.8029 -3.1665 -0.1981
  165SOPE     N18493   5.322   5.947  10.846  0.0870 -0.0934  0.4469
  165SOPE   HN118494   5.368   6.039  10.831  1.1012 -0.7826 -0.7950
  165SOPE   HN218495   5.398   5.876  10.842  0.1155 -0.1168  1.2661
  165SOPE   HN318496   5.265   5.925  10.762 -0.3807 -0.5320  0.8814
  165SOPE   C1218497   5.238   5.920  10.965  0.2273 -0.4982  0.2318
  165SOPE  H12A18498   5.186   6.015  10.990 -0.6537 -0.5469 -1.3748
  165SOPE  H12B18499   5.313   5.885  11.039  0.5099 -0.2221  0.0779
  165SOPE   C1118500   5.137   5.812  10.915  0.4240 -0.6544 -0.2825
  165SOPE  H11A18501   5.060   5.868  10.858  0.2267 -0.0125  0.6054
  165SOPE  H11B18502   5.085   5.773  11.005  0.7434 -1.1455 -0.3134
  165SOPE     P18503   5.097   5.579  10.800 -0.0525 -0.0485  0.0620
  165SOPE   O1318504   4.955   5.616  10.787 -0.0041 -0.5760  0.0192
  165SOPE   O1418505   5.134   5.480  10.903  0.1172 -0.3831  0.2690
  165SOPE   O1218506   5.188   5.712  10.820 -0.4378 -0.3663  0.4447
  165SOPE   O1118507   5.158   5.529  10.662  0.0619  0.0087 -0.6916
  165SOPE    C118508   5.221   5.403  10.657 -0.8551 -0.9536  0.3819
  165SOPE    HA18509   5.172   5.341  10.735 -2.1556 -2.5544 -1.6475
  165SOPE    HB18510   5.330   5.413  10.676 -0.8199  0.6836 -0.5916
  165SOPE    C218511   5.184   5.333  10.527 -0.4062 -0.0846 -0.4565
  165SOPE    HS18512   5.207   5.226  10.545 -0.7301 -0.3297 -1.4607
  165SOPE   O2118513   5.251   5.395  10.425 -0.3358  0.0071  0.8059
  165SOPE   C2118514   5.379   5.362  10.409  0.3283  0.6096  0.3156
  165SOPE   O2218515   5.448   5.290  10.482  0.9053 -0.5352 -0.4308
  165SOPE   C2218516   5.431   5.453  10.295  0.7306  0.4596 -0.1055
  165SOPE   H2R18517   5.541   5.439  10.287  0.4670 -2.0338  0.2034
  165SOPE   H2S18518   5.406   5.560  10.311 -0.9091  0.2244 -0.9799
  165SOPE    C318519   5.032   5.338  10.497 -0.9001  0.0647 -0.2606
  165SOPE    HX18520   4.986   5.438  10.514 -2.2099 -0.7116  0.9603
  165SOPE    HY18521   4.985   5.276  10.578 -3.0128  1.1340 -0.6404
  165SOPE   O3118522   4.998   5.284  10.366 -0.2989 -0.0623  0.2561
  165SOPE   C3118523   4.954   5.380  10.277  0.6600  0.2383 -0.4787
  165SOPE   O3218524   4.966   5.499  10.288  0.3065  0.0890  0.5674
  165SOPE   C3218525   4.883   5.308  10.158  1.0308  0.4019 -0.6381
  165SOPE   H2X18526   4.856   5.202  10.178  0.8014  0.4195 -0.8375
  165SOPE   H2Y18527   4.961   5.298  10.079 -0.1440  3.6699 -2.3036
  165SOPE   C2318528   5.369   5.416  10.153 -0.0995  0.5268 -0.1931
  165SOPE   H3R18529   5.261   5.400  10.174  0.2317 -1.7363 -0.0066
  165SOPE   H3S18530   5.400   5.316  10.116 -0.8403  0.9675 -2.0765
  165SOPE   C2418531   5.396   5.520  10.038  0.2186 -0.0065 -0.3073
  165SOPE   H4R18532   5.368   5.619  10.078  3.3249  1.1222 -0.7809
  165SOPE   H4S18533   5.505   5.532  10.018  0.7234 -1.1736  1.6183
  165SOPE   C2518534   5.307   5.497   9.919  0.1577 -0.1185  0.3934
  165SOPE   H5R18535   5.328   5.403   9.864 -2.2702  0.6614 -1.9377
  165SOPE   H5S18536   5.202   5.491   9.955  0.0121 -1.0402 -0.1700
  165SOPE   C2618537   5.322   5.601   9.807  0.1571 -0.2076  0.4373
  165SOPE   H6R18538   5.299   5.698   9.856 -0.0105  0.1101 -0.2518
  165SOPE   H6S18539   5.430   5.599   9.782  0.5537 -0.8041  2.1855
  165SOPE   C2718540   5.236   5.587   9.678 -0.1166  0.0030  0.0044
  165SOPE   H7R18541   5.242   5.684   9.623 -0.0644  0.6822  1.1944
  165SOPE   H7S18542   5.282   5.518   9.605  3.0970  1.6006  0.4561
  165SOPE   C2818543   5.085   5.548   9.709 -1.1768 -0.1535 -0.0963
  165SOPE   H8R18544   5.081   5.440   9.735  0.6604  0.4146  2.7602
  165SOPE   H8S18545   5.043   5.605   9.795  2.5541  3.5153 -0.5281
  165SOPE   C2918546   4.999   5.566   9.590 -0.3655 -0.4754 -0.8289
  165SOPE   H9118547   4.952   5.666   9.585  0.1966 -0.2673 -2.3865
  165SOPE  C21018548   4.972   5.482   9.483  0.1995  0.2319 -0.4381
  165SOPE  H10118549   4.903   5.515   9.404 -0.9287 -0.0852  0.4116
  165SOPE  C21118550   5.045   5.351   9.462 -0.3519 -0.1296  0.1681
  165SOPE  H11R18551   4.978   5.264   9.479 -1.9090  0.7894 -1.1063
  165SOPE  H11S18552   5.126   5.336   9.537  0.5308  1.7396 -0.3957
  165SOPE  C21218553   5.111   5.326   9.330  0.6599  0.3402  0.0238
  165SOPE  H12R18554   5.155   5.223   9.332 -1.8165 -0.8278 -2.8557
  165SOPE  H12S18555   5.188   5.406   9.328 -0.5514  1.4853 -2.0600
  165SOPE  C21318556   5.016   5.343   9.205 -0.5281  0.0593 -0.2384
  165SOPE  H13R18557   4.911   5.361   9.239 -0.0758  1.7395  0.2952
  165SOPE  H13S18558   5.018   5.252   9.141  1.0498 -0.9412  1.1876
  165SOPE  C21418559   5.059   5.463   9.121 -0.0748 -0.9250  0.3840
  165SOPE  H14R18560   5.170   5.468   9.119 -0.1217 -0.1842 -1.4641
  165SOPE  H14S18561   5.021   5.561   9.159  1.3988 -0.2382  0.1503
  165SOPE  C21518562   5.015   5.458   8.976  0.2744  0.8377  0.3191
  165SOPE  H15R18563   4.911   5.421   8.972  0.2098  0.9451  0.9962
  165SOPE  H15S18564   5.067   5.375   8.923 -1.2368 -1.1765  1.9045
  165SOPE  C21618565   5.026   5.593   8.906  0.0044 -0.3057  0.2896
  165SOPE  H16R18566   5.117   5.644   8.945  0.3019  0.5582 -1.5116
  165SOPE  H16S18567   4.941   5.651   8.948  1.6285  0.7774  2.1906
  165SOPE  C21718568   5.024   5.581   8.753  0.3749  0.1073 -0.1833
  165SOPE  H17R18569   5.008   5.686   8.719  0.0520  0.6782  1.6848
  165SOPE  H17S18570   4.922   5.544   8.728 -0.5247  3.9008 -2.5956
  165SOPE  C21818571   5.138   5.513   8.669  1.0755  0.1161 -0.0118
  165SOPE  H18R18572   5.138   5.408   8.704  0.8759 -0.0361 -0.4728
  165SOPE  H18S18573   5.237   5.551   8.704  0.7254  0.5807  0.4971
  165SOPE  H18T18574   5.136   5.519   8.559 -1.0548 -0.9693 -0.0517
  165SOPE   C3318575   4.761   5.377  10.097 -1.2827 -0.5748 -0.4893
  165SOPE   H3X18576   4.776   5.486  10.086 -0.2558 -0.4162  2.2775
  165SOPE   H3Y18577   4.674   5.375  10.166 -0.3035  1.1200  0.8034
  165SOPE   C3418578   4.719   5.321   9.965 -0.7564  0.0752  0.8687
  165SOPE   H4X18579   4.677   5.221   9.991 -0.7223 -0.2280 -0.2191
  165SOPE   H4Y18580   4.798   5.317   9.887  0.1276 -0.0404  1.7650
  165SOPE   C3518581   4.605   5.410   9.914  0.2566  0.4140 -0.0156
  165SOPE   H5X18582   4.643   5.514   9.899 -1.5988  0.9006 -1.5720
  165SOPE   H5Y18583   4.524   5.404   9.989  0.7705 -1.7493  0.3914
  165SOPE   C3618584   4.539   5.367   9.780 -0.0351  0.5400  0.8380
  165SOPE   H6X18585   4.444   5.415   9.747  0.1291 -0.8359 -1.7083
  165SOPE   H6Y18586   4.525   5.260   9.808 -2.4136  0.8916  1.0717
  165SOPE   C3718587   4.636   5.370   9.660 -0.0136 -0.4830  0.5366
  165SOPE   H7X18588   4.721   5.302   9.680  0.5165  0.1009  0.2782
  165SOPE   H7Y18589   4.691   5.466   9.652  0.8812 -0.9789  0.7508
  165SOPE   C3818590   4.556   5.340   9.537 -0.4922  0.2071  0.7717
  165SOPE   H8X18591   4.480   5.420   9.525 -0.2886  0.4481  1.0584
  165SOPE   H8Y18592   4.514   5.238   9.546 -0.0641 -0.2511 -2.0367
  165SOPE   C3918593   4.645   5.351   9.411 -0.0495  0.3877 -0.2040
  165SOPE   H9X18594   4.732   5.286   9.434 -1.1836 -0.8818  0.6153
  165SOPE   H9Y18595   4.689   5.452   9.395 -0.1030  0.2312 -1.3193
  165SOPE  C31018596   4.579   5.303   9.274  0.3447  0.4831  0.0630
  165SOPE  H10X18597   4.525   5.208   9.295 -0.8056  0.8216 -1.2638
  165SOPE  H10Y18598   4.666   5.278   9.210  0.5373 -0.5306  0.7118
  165SOPE  C31118599   4.485   5.407   9.209 -0.2088 -0.0684 -0.2937
  165SOPE  H11X18600   4.531   5.507   9.197  2.0334 -0.8590  1.3299
  165SOPE  H11Y18601   4.400   5.416   9.280 -1.0365 -0.4039 -1.2386
  165SOPE  C31218602   4.431   5.368   9.070 -0.4697 -0.4349 -0.5285
  165SOPE  H12X18603   4.339   5.426   9.046 -1.1198 -1.0236  0.4879
  165SOPE  H12Y18604   4.407   5.260   9.070  2.0923 -1.0458 -1.5396
  165SOPE  C31318605   4.533   5.395   8.957  1.1666  0.0757 -1.2394
  165SOPE  H13X18606   4.617   5.323   8.965 -0.1504 -1.5269 -1.5233
  165SOPE  H13Y18607   4.562   5.502   8.962  0.1794  0.4127 -2.5269
  165SOPE  C31418608   4.458   5.385   8.823 -0.0278 -0.3393 -0.3351
  165SOPE  H14X18609   4.358   5.435   8.825  0.6765  1.0640  0.0645
  165SOPE  H14Y18610   4.442   5.275   8.820  0.0611 -0.4167  1.4846
  165SOPE  C31518611   4.541   5.445   8.708 -0.0111  0.0944 -0.4964
  165SOPE  H15X18612   4.506   5.391   8.617 -1.9632  0.6806 -0.1345
  165SOPE  H15Y18613   4.651   5.434   8.712 -0.2107 -1.7142  0.0700
  165SOPE  C31618614   4.497   5.586   8.683  0.6957 -0.2395  0.0398
  165SOPE  H16X18615   4.512   5.642   8.778 -0.3318  3.3891 -1.8569
  165SOPE  H16Y18616   4.390   5.583   8.653  0.6234  0.1699  0.2564
  165SOPE  C31718617   4.568   5.659   8.572  0.7220 -0.2397  0.1856
  165SOPE  H17X18618   4.675   5.669   8.600  0.3801  0.0873  1.4422
  165SOPE  H17Y18619   4.524   5.760   8.560  2.9097  0.9812  2.0163
  165SOPE  C31818620   4.554   5.585   8.440 -0.1780  0.2241  0.8417
  165SOPE  H18X18621   4.613   5.492   8.451 -1.9667 -1.0692 -0.2821
  165SOPE  H18Y18622   4.597   5.647   8.359  1.7426 -1.4134  0.5777
  165SOPE  H18Z18623   4.449   5.563   8.413  0.3053  0.0545 -0.9812
  166SOPE     N18624   2.629   4.371  10.532  0.4490 -0.1232 -0.0273
  166SOPE   HN118625   2.697   4.300  10.499  0.0754 -1.6214  2.2698
  166SOPE   HN218626   2.542   4.313  10.527  0.4982 -0.1669 -0.4068
  166SOPE   HN318627   2.624   4.447  10.462 -2.1145 -1.2123 -1.1204
  166SOPE   C1218628   2.671   4.423  10.664 -0.0030  0.5891 -0.2710
  166SOPE  H12A18629   2.754   4.490  10.632  0.5976 -0.1997 -0.3667
  166SOPE  H12B18630   2.703   4.336  10.724  0.1387  1.3615  0.7959
  166SOPE   C1118631   2.564   4.512  10.733 -0.2982  0.6326 -0.0656
  166SOPE  H11A18632   2.550   4.603  10.671 -1.5786 -0.6688 -1.7742
  166SOPE  H11B18633   2.609   4.539  10.831 -0.5316 -0.3710  0.3314
  166SOPE     P18634   2.321   4.510  10.804 -0.2075 -0.0126 -0.4069
  166SOPE   O1318635   2.345   4.610  10.906  0.9090 -0.1118  0.3179
  166SOPE   O1418636   2.223   4.407  10.833  0.4961 -0.0461 -0.1953
  166SOPE   O1218637   2.453   4.432  10.765 -0.5642  0.0973 -0.6105
  166SOPE   O1118638   2.273   4.582  10.672 -0.1965 -0.4074 -0.8225
  166SOPE    C118639   2.133   4.605  10.657  0.2020  0.7098 -0.1257
  166SOPE    HA18640   2.088   4.627  10.756  0.4884  0.1513  0.1271
  166SOPE    HB18641   2.081   4.524  10.602  2.2455 -0.6391 -0.1117
  166SOPE    C218642   2.106   4.743  10.585 -0.0710 -0.2850  0.2527
  166SOPE    HS18643   2.002   4.778  10.606  0.7264  2.1680  0.2897
  166SOPE   O2118644   2.133   4.734  10.443  0.3978 -0.1279  0.0275
  166SOPE   C2118645   2.041   4.657  10.373 -0.9399  0.1584 -1.1127
  166SOPE   O2218646   1.930   4.625  10.414  0.5094  0.5629 -0.3187
  166SOPE   C2218647   2.097   4.634  10.232 -0.5418  0.2449  0.2517
  166SOPE   H2R18648   2.190   4.574  10.226 -0.1975  0.7098  0.8335
  166SOPE   H2S18649   2.124   4.732  10.187 -0.5780  0.2946  0.3368
  166SOPE    C318650   2.201   4.848  10.641  0.1330  0.9436 -0.2518
  166SOPE    HX18651   2.305   4.829  10.606  0.7219  2.1242  0.8160
  166SOPE    HY18652   2.216   4.846  10.751  0.1372  1.4703 -0.2401
  166SOPE   O3118653   2.164   4.984  10.604  0.0180 -0.7092 -0.0929
  166SOPE   C3118654   2.209   5.040  10.499 -0.1514 -0.6207 -0.3076
  166SOPE   O3218655   2.313   5.011  10.440  0.3280  0.5284 -0.3443
  166SOPE   C3218656   2.116   5.155  10.450  0.0232  0.3218 -0.0447
  166SOPE   H2X18657   2.176   5.206  10.371 -1.0794  1.6088 -0.0848
  166SOPE   H2Y18658   2.107   5.237  10.525 -0.4824  0.6443 -0.4504
  166SOPE   C2318659   1.992   4.571  10.144 -0.0653 -0.3196 -0.1079
  166SOPE   H3R18660   1.895   4.625  10.148 -0.2920 -0.7695  0.4475
  166SOPE   H3S18661   1.976   4.465  10.173 -1.6662  0.0986  0.5642
  166SOPE   C2418662   2.039   4.565  10.003 -0.1821  0.0103 -0.5814
  166SOPE   H4R18663   2.026   4.669   9.966 -2.7161  0.1169  0.5342
  166SOPE   H4S18664   2.146   4.537   9.992  0.0413  0.4975  0.3644
  166SOPE   C2518665   1.952   4.467   9.926  0.6201 -0.2954  0.3790
  166SOPE   H5R18666   1.956   4.368   9.976 -1.3966 -0.8649 -0.5363
  166SOPE   H5S18667   1.847   4.498   9.946  1.3074  1.4392  1.4940
  166SOPE   C2618668   1.986   4.461   9.769  0.1560  0.1917 -0.3812
  166SOPE   H6R18669   2.005   4.565   9.735  0.5502  0.9554  2.1448
  166SOPE   H6S18670   2.080   4.406   9.751  0.7522  0.7592  0.9805
  166SOPE   C2718671   1.867   4.417   9.686  0.1930  0.6384  0.2718
  166SOPE   H7R18672   1.828   4.321   9.726  1.9189 -1.2305 -2.3895
  166SOPE   H7S18673   1.786   4.491   9.704  0.4816  0.4051  2.7643
  166SOPE   C2818674   1.880   4.397   9.534  0.2342 -0.4025 -0.2254
  166SOPE   H8R18675   1.899   4.499   9.493  1.6581 -1.4102 -2.1928
  166SOPE   H8S18676   1.976   4.342   9.518  0.7987  0.4903  0.0850
  166SOPE   C2918677   1.752   4.336   9.472  0.0868 -0.2670 -0.5130
  166SOPE   H9118678   1.655   4.353   9.521  1.0362  0.6808  1.0875
  166SOPE  C21018679   1.753   4.247   9.374 -0.4546  0.0156 -0.1702
  166SOPE  H10118680   1.660   4.205   9.332  0.4890 -0.3147 -2.0011
  166SOPE  C21118681   1.869   4.208   9.302  0.6471  0.0724 -0.4951
  166SOPE  H11R18682   1.918   4.112   9.327  3.3359  1.7697  0.9837
  166SOPE  H11S18683   1.955   4.277   9.315  1.7336 -1.3323 -0.0987
  166SOPE  C21218684   1.835   4.190   9.153 -0.3478 -0.3790  0.3893
  166SOPE  H12R18685   1.932   4.181   9.099  2.0233 -1.1170  4.5772
  166SOPE  H12S18686   1.784   4.280   9.111  1.8923  0.5076 -0.5121
  166SOPE  C21318687   1.759   4.061   9.124 -0.1871  0.0806  0.3502
  166SOPE  H13R18688   1.650   4.075   9.139 -0.2949  0.4922 -0.7773
  166SOPE  H13S18689   1.799   3.985   9.194  0.7016 -0.0287 -0.2715
  166SOPE  C21418690   1.779   3.998   8.984  0.3988  0.0677 -0.1379
  166SOPE  H14R18691   1.700   3.922   8.971  0.2786  0.1838 -0.0935
  166SOPE  H14S18692   1.885   3.963   8.978  1.3864  3.3220 -3.5912
  166SOPE  C21518693   1.772   4.100   8.871  0.6499  0.6083  0.4752
  166SOPE  H15R18694   1.820   4.199   8.885  1.0174  0.5509 -0.3701
  166SOPE  H15S18695   1.663   4.119   8.859  0.3924 -1.4212 -0.6181
  166SOPE  C21618696   1.821   4.048   8.733  0.8308 -0.5026 -0.6346
  166SOPE  H16R18697   1.780   3.945   8.723 -3.6363  0.8965  1.8912
  166SOPE  H16S18698   1.931   4.042   8.740  0.9248  3.2590  2.7958
  166SOPE  C21718699   1.772   4.124   8.605  0.0436 -0.4013  0.0498
  166SOPE  H17R18700   1.828   4.083   8.518 -2.0726  1.3003 -2.2060
  166SOPE  H17S18701   1.795   4.232   8.618  1.4446 -0.7464  0.4386
  166SOPE  C21818702   1.614   4.124   8.585 -0.6089  0.4768 -0.0912
  166SOPE  H18R18703   1.593   4.183   8.493 -1.1212  1.1907  0.4762
  166SOPE  H18S18704   1.551   4.166   8.666 -1.6132  0.4219 -0.8342
  166SOPE  H18T18705   1.573   4.021   8.580 -0.4807  0.5345 -2.8111
  166SOPE   C3318706   1.981   5.104  10.406 -0.1087  0.6494  0.5798
  166SOPE   H3X18707   1.910   5.184  10.375 -1.8509 -1.4856 -1.0150
  166SOPE   H3Y18708   1.929   5.051  10.489  0.8254 -2.4540 -0.7563
  166SOPE   C3418709   1.976   5.034  10.264 -0.2130  0.1250 -0.0785
  166SOPE   H4X18710   2.020   4.933  10.278 -0.2958  0.0032 -0.6776
  166SOPE   H4Y18711   2.033   5.087  10.185  0.4720  3.4375  2.5051
  166SOPE   C3518712   1.830   5.028  10.218  0.5953  0.4573  0.1765
  166SOPE   H5X18713   1.808   5.132  10.188  1.4988  0.5858 -0.0617
  166SOPE   H5Y18714   1.762   5.002  10.302  1.8000  0.2509  1.0890
  166SOPE   C3618715   1.797   4.922  10.115  0.7780  0.0946 -0.2809
  166SOPE   H6X18716   1.687   4.926  10.099  0.9777  0.8579 -1.5147
  166SOPE   H6Y18717   1.823   4.823  10.157 -0.7578 -0.0104  0.4761
  166SOPE   C3718718   1.868   4.931   9.974  0.0555 -1.2501  0.1351
  166SOPE   H7X18719   1.968   4.882   9.976  1.2564  1.0568 -1.2999
  166SOPE   H7Y18720   1.867   5.041   9.957  1.2408 -0.9060  2.1009
  166SOPE   C3818721   1.787   4.864   9.856 -0.6669  0.3782 -0.1640
  166SOPE   H8X18722   1.681   4.893   9.877  0.1478  2.7237  0.9091
  166SOPE   H8Y18723   1.787   4.756   9.879 -1.0256  0.3281 -0.3934
  166SOPE   C3918724   1.847   4.896   9.720 -0.2192  1.0839  0.1502
  166SOPE   H9X18725   1.953   4.862   9.721 -0.6967 -0.4596 -0.2369
  166SOPE   H9Y18726   1.846   5.005   9.700 -1.1975  1.0930  0.1990
  166SOPE  C31018727   1.764   4.829   9.611  0.4221  0.1458 -0.1007
  166SOPE  H10X18728   1.676   4.891   9.583  0.2940 -0.7760 -1.8315
  166SOPE  H10Y18729   1.739   4.726   9.644 -0.3337  0.2809 -0.2475
  166SOPE  C31118730   1.841   4.799   9.483  0.0466 -0.5545 -0.4933
  166SOPE  H11X18731   1.927   4.734   9.510  0.3628  0.0807  0.0560
  166SOPE  H11Y18732   1.876   4.890   9.429  0.4143 -0.2981  0.1758
  166SOPE  C31218733   1.758   4.730   9.382 -0.6597  0.4023  0.7158
  166SOPE  H12X18734   1.676   4.786   9.333 -0.7161 -1.3354 -1.2734
  166SOPE  H12Y18735   1.706   4.643   9.427  1.1251 -1.1461 -0.1364
  166SOPE  C31318736   1.832   4.680   9.262  0.1052 -0.3273  0.4893
  166SOPE  H13X18737   1.893   4.592   9.292 -0.5596 -1.3546 -1.0783
  166SOPE  H13Y18738   1.904   4.748   9.211 -1.0201 -0.0750 -0.8128
  166SOPE  C31418739   1.742   4.623   9.153 -0.6400  0.4331 -0.6038
  166SOPE  H14X18740   1.660   4.694   9.129  0.8966  2.3532 -0.2503
  166SOPE  H14Y18741   1.687   4.534   9.192  0.4731  0.2692  0.6239
  166SOPE  C31518742   1.820   4.588   9.022 -0.5912  0.2673  0.6212
  166SOPE  H15X18743   1.903   4.516   9.041 -0.5844  0.8208  2.8364
  166SOPE  H15Y18744   1.875   4.677   8.984 -1.2572  0.5838  0.3962
  166SOPE  C31618745   1.725   4.537   8.912 -0.6930 -0.3581  0.0272
  166SOPE  H16X18746   1.656   4.453   8.935 -2.1513  1.0623  0.8722
  166SOPE  H16Y18747   1.787   4.498   8.828 -0.8816 -0.4860 -0.0527
  166SOPE  C31718748   1.643   4.656   8.852 -0.4496  1.1589 -0.2414
  166SOPE  H17X18749   1.698   4.752   8.839  1.5536  0.2719  1.4541
  166SOPE  H17Y18750   1.556   4.677   8.918 -1.0291  1.0785 -0.9634
  166SOPE  C31818751   1.575   4.621   8.724  0.4365 -0.4117  0.1316
  166SOPE  H18X18752   1.659   4.574   8.669  1.5292  2.1415 -0.4538
  166SOPE  H18Y18753   1.534   4.712   8.677 -0.8856 -0.8710  0.3924
  166SOPE  H18Z18754   1.497   4.542   8.733  0.7359 -0.8844 -1.2670
  167SOPE     N18755   2.118   3.191   6.469  0.1119 -0.0892 -0.1639
  167SOPE   HN118756   2.039   3.132   6.504  1.4034 -0.0057  3.0652
  167SOPE   HN218757   2.214   3.169   6.504  0.7856 -1.2221 -2.5924
  167SOPE   HN318758   2.103   3.290   6.495  0.2467  0.0087 -0.4517
  167SOPE   C1218759   2.146   3.166   6.321 -0.0948  0.0603  0.1036
  167SOPE  H12A18760   2.056   3.188   6.259  0.1812  0.0234 -0.3109
  167SOPE  H12B18761   2.175   3.059   6.315  0.8626  0.3675 -0.9228
  167SOPE   C1118762   2.272   3.248   6.275 -0.7309 -0.7232  0.3660
  167SOPE  H11A18763   2.270   3.357   6.299 -2.5826  0.0638 -3.0037
  167SOPE  H11B18764   2.271   3.229   6.166  2.2434 -1.1546  0.3861
  167SOPE     P18765   2.531   3.270   6.334 -0.0597 -0.0081  0.6312
  167SOPE   O1318766   2.564   3.306   6.191 -0.2945 -0.2801  0.1421
  167SOPE   O1418767   2.628   3.180   6.413  0.0968  0.0721 -0.1222
  167SOPE   O1218768   2.389   3.188   6.333  0.0226 -0.6470  0.0995
  167SOPE   O1118769   2.513   3.399   6.423  0.1011  0.2625 -0.5051
  167SOPE    C118770   2.464   3.416   6.556 -0.3175  0.2096  0.1372
  167SOPE    HA18771   2.397   3.333   6.589  0.9061 -0.6775  0.4493
  167SOPE    HB18772   2.419   3.517   6.566 -1.9003 -0.5879  1.2531
  167SOPE    C218773   2.584   3.404   6.654 -0.5182 -0.1645 -0.3782
  167SOPE    HS18774   2.645   3.314   6.631  1.5076  1.4293 -1.3923
  167SOPE   O2118775   2.542   3.400   6.791  0.0100 -0.4822  0.1521
  167SOPE   C2118776   2.493   3.285   6.839 -0.2340 -0.1756  0.0978
  167SOPE   O2218777   2.484   3.183   6.774 -0.1667 -0.0332 -0.1968
  167SOPE   C2218778   2.452   3.306   6.984 -0.2609  1.0382 -0.4872
  167SOPE   H2R18779   2.385   3.226   7.021  1.4471 -0.0102  0.3904
  167SOPE   H2S18780   2.384   3.395   6.979 -0.9015  0.5184 -1.1230
  167SOPE    C318781   2.682   3.519   6.625  0.0917  0.0415  0.3870
  167SOPE    HX18782   2.626   3.612   6.648  1.4747  1.2143 -0.8226
  167SOPE    HY18783   2.694   3.528   6.515 -2.8846  3.3325  0.2401
  167SOPE   O3118784   2.810   3.508   6.696 -0.1863 -0.2474 -0.5482
  167SOPE   C3118785   2.907   3.581   6.654 -0.3029 -0.6761  0.1981
  167SOPE   O3218786   2.908   3.635   6.546  0.3548 -0.2974 -0.2331
  167SOPE   C3218787   3.024   3.578   6.754 -0.0297 -0.1579  0.3061
  167SOPE   H2X18788   3.080   3.673   6.738  0.0474 -0.2282  0.1607
  167SOPE   H2Y18789   3.100   3.504   6.722  0.1968 -0.2869  1.1237
  167SOPE   C2318790   2.566   3.341   7.087  0.7001  0.8178 -0.5728
  167SOPE   H3R18791   2.655   3.393   7.044  1.9958 -0.3709  0.6386
  167SOPE   H3S18792   2.603   3.243   7.123 -0.3809  0.5563 -0.1640
  167SOPE   C2418793   2.518   3.426   7.206  0.0300 -0.2758 -0.4914
  167SOPE   H4R18794   2.506   3.532   7.173 -0.6066 -0.1776  0.0496
  167SOPE   H4S18795   2.420   3.381   7.229 -0.5427  1.3820  0.3556
  167SOPE   C2518796   2.611   3.431   7.327 -0.0230 -0.2353 -0.6020
  167SOPE   H5R18797   2.628   3.327   7.362 -2.0390 -1.3045 -2.6468
  167SOPE   H5S18798   2.713   3.467   7.303 -0.5482 -0.0282 -2.6008
  167SOPE   C2618799   2.566   3.527   7.432  0.3558  0.1380  0.1075
  167SOPE   H6R18800   2.636   3.511   7.517 -1.2455 -1.9800  1.0855
  167SOPE   H6S18801   2.568   3.630   7.390 -3.5900 -0.1850 -1.1085
  167SOPE   C2718802   2.424   3.497   7.484 -0.7194 -0.2057  0.0326
  167SOPE   H7R18803   2.346   3.518   7.408  2.1413  1.5556 -2.5015
  167SOPE   H7S18804   2.423   3.389   7.510  0.3808 -0.1435  0.3342
  167SOPE   C2818805   2.392   3.564   7.618  0.3188 -0.2360 -0.1244
  167SOPE   H8R18806   2.369   3.670   7.594 -1.5777 -0.4605  0.6302
  167SOPE   H8S18807   2.295   3.525   7.656  0.6237 -0.8097  0.0732
  167SOPE   C2918808   2.489   3.558   7.734  0.8251  0.5990 -0.5864
  167SOPE   H9118809   2.538   3.654   7.757  1.5369  1.2754 -4.5110
  167SOPE  C21018810   2.502   3.446   7.813  0.2325  0.3491 -0.6433
  167SOPE  H10118811   2.564   3.459   7.903 -0.2456 -0.5958 -0.1782
  167SOPE  C21118812   2.428   3.323   7.799  0.2396  0.1712 -0.4298
  167SOPE  H11R18813   2.502   3.240   7.809  1.0073  0.5606 -2.6220
  167SOPE  H11S18814   2.386   3.301   7.698  1.8120 -0.2359 -1.0206
  167SOPE  C21218815   2.322   3.310   7.911  0.3714  0.0936 -0.4931
  167SOPE  H12R18816   2.239   3.238   7.891 -0.4066  0.7901  0.1780
  167SOPE  H12S18817   2.260   3.401   7.894  0.4250 -0.0609 -1.5677
  167SOPE  C21318818   2.364   3.307   8.058  0.2007  0.3980 -0.0758
  167SOPE  H13R18819   2.288   3.364   8.117 -2.7326 -0.3829 -3.0023
  167SOPE  H13S18820   2.466   3.347   8.075  0.3382  0.9475 -2.0759
  167SOPE  C21418821   2.374   3.160   8.120 -0.7678  0.1173  0.1492
  167SOPE  H14R18822   2.460   3.114   8.067 -1.7329  0.5022 -1.7819
  167SOPE  H14S18823   2.287   3.098   8.089  0.6458 -0.6260 -2.5018
  167SOPE  C21518824   2.414   3.160   8.264 -0.2682  0.2762  0.6903
  167SOPE  H15R18825   2.347   3.222   8.327 -0.9122 -0.5226  0.8113
  167SOPE  H15S18826   2.521   3.187   8.276  0.0625 -1.0462  0.8670
  167SOPE  C21618827   2.401   3.018   8.328  1.0163 -0.4494  0.8059
  167SOPE  H16R18828   2.448   2.938   8.267 -0.2609 -2.2332  2.1189
  167SOPE  H16S18829   2.293   3.001   8.311  1.1292  0.7735 -1.2786
  167SOPE  C21718830   2.441   3.011   8.479 -0.0154  0.4702  0.9240
  167SOPE  H17R18831   2.392   2.922   8.524  3.3772 -2.2460 -0.5508
  167SOPE  H17S18832   2.398   3.103   8.525  1.4669  0.7623  1.7631
  167SOPE  C21818833   2.591   3.006   8.495  0.2491  0.3067 -0.1320
  167SOPE  H18R18834   2.635   2.997   8.596  1.0829 -1.4999 -0.6143
  167SOPE  H18S18835   2.636   3.100   8.456  0.2175  0.9146  1.3027
  167SOPE  H18T18836   2.640   2.922   8.439 -0.2551  0.6177 -1.0424
  167SOPE   C3318837   2.981   3.584   6.906 -0.0364  1.0883  0.2376
  167SOPE   H3X18838   2.949   3.480   6.928  2.9126  0.4104  1.6166
  167SOPE   H3Y18839   2.894   3.648   6.932  0.2557  1.8674 -0.6899
  167SOPE   C3418840   3.107   3.591   6.989  0.0413 -0.9923  0.0698
  167SOPE   H4X18841   3.166   3.684   6.975 -0.3515 -0.4561  1.8718
  167SOPE   H4Y18842   3.177   3.507   6.965  1.0172 -0.6760  1.7769
  167SOPE   C3518843   3.082   3.583   7.137  0.4499  0.2859  0.5522
  167SOPE   H5X18844   3.008   3.660   7.168  1.1264  0.2917  2.2035
  167SOPE   H5Y18845   3.178   3.594   7.191  1.3052  3.6669 -1.5130
  167SOPE   C3618846   3.016   3.448   7.177 -0.6405  0.6980  0.3522
  167SOPE   H6X18847   3.062   3.366   7.118 -1.6622  0.7606 -0.5414
  167SOPE   H6Y18848   2.908   3.446   7.151 -0.1548 -3.5256 -1.6476
  167SOPE   C3718849   3.020   3.428   7.330  0.0454  0.3409  0.1320
  167SOPE   H7X18850   3.121   3.393   7.359  0.1877  0.1932 -0.5179
  167SOPE   H7Y18851   2.948   3.347   7.355 -0.6352  0.1498 -2.2723
  167SOPE   C3818852   2.977   3.539   7.422  0.4279 -0.4333  0.2646
  167SOPE   H8X18853   2.875   3.576   7.402 -0.4353 -1.8374  1.9102
  167SOPE   H8Y18854   3.056   3.617   7.419  0.2469 -0.3001 -0.9260
  167SOPE   C3918855   2.967   3.487   7.562  0.4192  0.2603  0.0286
  167SOPE   H9X18856   3.043   3.410   7.587 -0.6462 -0.3677  1.4380
  167SOPE   H9Y18857   2.871   3.431   7.559  0.9270 -0.7163  1.3833
  167SOPE  C31018858   2.958   3.595   7.676  0.5676  0.0347 -0.1365
  167SOPE  H10X18859   2.859   3.636   7.645  0.8000  1.8140  1.3334
  167SOPE  H10Y18860   3.041   3.663   7.650  1.2130  0.6829  3.3903
  167SOPE  C31118861   2.973   3.551   7.822 -0.2651 -0.2876 -0.4893
  167SOPE  H11X18862   2.965   3.636   7.892  1.5197 -1.4714  1.2164
  167SOPE  H11Y18863   3.080   3.522   7.835 -0.6079 -0.3168  2.4056
  167SOPE  C31218864   2.870   3.447   7.851  0.1900 -0.2390 -0.0895
  167SOPE  H12X18865   2.869   3.360   7.781  1.5589 -1.4681  1.3894
  167SOPE  H12Y18866   2.766   3.482   7.835  0.5782 -0.0560 -2.5019
  167SOPE  C31318867   2.883   3.389   7.994 -0.0651 -0.0264 -0.0059
  167SOPE  H13X18868   2.987   3.355   8.011  0.4133  2.2472  2.0525
  167SOPE  H13Y18869   2.824   3.295   8.000 -0.9405  0.4480 -0.9620
  167SOPE  C31418870   2.841   3.481   8.109 -0.2945 -0.0205 -0.5485
  167SOPE  H14X18871   2.749   3.537   8.083 -1.1854 -0.3570  1.7603
  167SOPE  H14Y18872   2.911   3.567   8.122 -0.8461  0.2034  1.1005
  167SOPE  C31518873   2.835   3.411   8.241  0.5030  0.9273 -0.1208
  167SOPE  H15X18874   2.941   3.401   8.273  0.4165  0.9587  0.1759
  167SOPE  H15Y18875   2.774   3.318   8.230  1.3469  0.4888 -1.3131
  167SOPE  C31618876   2.758   3.502   8.343 -0.2733  0.0907  0.0866
  167SOPE  H16X18877   2.661   3.518   8.291 -0.2626 -3.4925 -1.1238
  167SOPE  H16Y18878   2.805   3.602   8.359 -2.0774  0.9894 -0.0756
  167SOPE  C31718879   2.725   3.432   8.474  0.1380  0.4792 -0.0925
  167SOPE  H17X18880   2.656   3.346   8.460 -0.2399  0.9729 -1.2633
  167SOPE  H17Y18881   2.664   3.498   8.539 -0.5636 -0.3064  0.0682
  167SOPE  C31818882   2.845   3.382   8.552  0.6796 -0.0440  0.2606
  167SOPE  H18X18883   2.831   3.281   8.594  0.1999 -0.0262  0.1483
  167SOPE  H18Y18884   2.853   3.444   8.644  3.5543 -1.0118  0.6906
  167SOPE  H18Z18885   2.934   3.403   8.489 -1.1811 -1.4016 -2.9975
  168SOPE     N18886   2.854   0.156   6.425 -0.0133  0.5132  0.4821
  168SOPE   HN118887   2.868   0.072   6.365 -1.0663  1.9009 -1.7468
  168SOPE   HN218888   2.792   0.227   6.382  0.6708  0.6800 -0.2453
  168SOPE   HN318889   2.951   0.188   6.441  0.5215 -1.9703  2.6618
  168SOPE   C1218890   2.797   0.103   6.553 -0.5891  0.2386  0.6593
  168SOPE  H12A18891   2.687   0.105   6.540 -0.8579 -0.5999  2.5946
  168SOPE  H12B18892   2.829   0.173   6.634  0.8929 -2.8259  2.8278
  168SOPE   C1118893   2.838  -0.049   6.570 -0.0656 -0.1419 -0.3170
  168SOPE  H11A18894   2.795  -0.095   6.661 -0.5274 -0.7844 -0.8555
  168SOPE  H11B18895   2.948  -0.060   6.587 -0.3061 -2.4317 -0.0397
  168SOPE     P18896   2.669  -0.192   6.436 -0.4787  0.3900  0.3901
  168SOPE   O1318897   2.704  -0.334   6.434  0.0839 -0.0723 -0.4643
  168SOPE   O1418898   2.602  -0.137   6.314 -0.2716  0.0163 -0.0892
  168SOPE   O1218899   2.809  -0.116   6.446  0.0518  0.2538  0.3230
  168SOPE   O1118900   2.590  -0.162   6.572  0.1520  0.4860  0.0886
  168SOPE    C118901   2.474  -0.083   6.564  0.1761 -0.2974 -0.6073
  168SOPE    HA18902   2.401  -0.153   6.517 -0.8658  0.5058 -0.2200
  168SOPE    HB18903   2.479   0.010   6.503 -3.1514  0.0885 -0.3871
  168SOPE    C218904   2.421  -0.039   6.698  0.1723  0.4303  0.0917
  168SOPE    HS18905   2.477   0.044   6.746  2.3527 -0.5015 -0.7925
  168SOPE   O2118906   2.411  -0.156   6.790  0.5527  0.0573  0.1282
  168SOPE   C2118907   2.522  -0.190   6.836  0.3134  0.1396  0.5093
  168SOPE   O2218908   2.630  -0.125   6.840  0.8426  0.2218  0.2740
  168SOPE   C2218909   2.516  -0.347   6.869  0.2493 -0.1099  0.5542
  168SOPE   H2R18910   2.624  -0.373   6.866  0.7894  1.9536  1.3386
  168SOPE   H2S18911   2.453  -0.400   6.794  0.7721 -1.0188  0.7538
  168SOPE    C318912   2.276   0.010   6.681  0.5780 -0.4666  0.3444
  168SOPE    HX18913   2.206  -0.075   6.667  0.6888 -0.6360  0.8180
  168SOPE    HY18914   2.263   0.082   6.597  1.0877  0.7135  1.2654
  168SOPE   O3118915   2.227   0.063   6.810 -0.2784  0.1167  0.1844
  168SOPE   C3118916   2.272   0.185   6.840 -0.0080 -0.1431 -0.3681
  168SOPE   O3218917   2.359   0.248   6.776 -0.1246 -1.0266 -0.1617
  168SOPE   C3218918   2.214   0.219   6.976 -0.6809 -0.4585 -0.0235
  168SOPE   H2X18919   2.104   0.226   6.966 -0.5469  0.9360 -0.5207
  168SOPE   H2Y18920   2.248   0.320   7.008  0.0906 -1.0613  1.1427
  168SOPE   C2318921   2.450  -0.386   6.999 -0.1422 -0.0286  0.3957
  168SOPE   H3R18922   2.468  -0.495   7.014  1.8656  0.3170  0.6909
  168SOPE   H3S18923   2.341  -0.393   6.979  0.1218 -0.6915 -0.8488
  168SOPE   C2418924   2.489  -0.297   7.115 -0.3192 -0.5016 -0.3052
  168SOPE   H4R18925   2.600  -0.299   7.121 -0.1129  0.5350 -2.9250
  168SOPE   H4S18926   2.444  -0.196   7.112  0.3791 -0.1736  0.1601
  168SOPE   C2518927   2.428  -0.356   7.244  0.6366 -0.1160  0.8668
  168SOPE   H5R18928   2.320  -0.378   7.226  1.2591 -0.5969 -2.4252
  168SOPE   H5S18929   2.481  -0.449   7.271  1.2497  0.2249  0.8486
  168SOPE   C2618930   2.439  -0.263   7.365  0.2478 -0.2463  0.3117
  168SOPE   H6R18931   2.544  -0.228   7.372  0.1016 -0.0199  1.4824
  168SOPE   H6S18932   2.378  -0.177   7.331  2.2666  0.9758 -0.2647
  168SOPE   C2718933   2.384  -0.335   7.483  0.7770 -0.0554  0.6044
  168SOPE   H7R18934   2.273  -0.328   7.483  0.7886  1.1988  4.3467
  168SOPE   H7S18935   2.419  -0.440   7.493 -1.5179 -0.9988 -1.0263
  168SOPE   C2818936   2.433  -0.264   7.621  0.4476  0.1732  0.0814
  168SOPE   H8R18937   2.405  -0.157   7.608 -0.4873  0.0876  1.2581
  168SOPE   H8S18938   2.372  -0.312   7.701 -3.0330  0.7287 -2.1041
  168SOPE   C2918939   2.582  -0.286   7.634  0.4242 -0.0864 -0.5063
  168SOPE   H9118940   2.641  -0.301   7.543  1.2185  1.3683 -0.2416
  168SOPE  C21018941   2.649  -0.290   7.752  0.2300  0.6149  0.2879
  168SOPE  H10118942   2.759  -0.284   7.748  0.3230  1.5431  3.3792
  168SOPE  C21118943   2.592  -0.273   7.893  0.0654  0.5309  0.4099
  168SOPE  H11R18944   2.544  -0.369   7.922  1.7694  0.0595  1.7242
  168SOPE  H11S18945   2.516  -0.192   7.895 -1.7461 -1.1373  0.6353
  168SOPE  C21218946   2.705  -0.237   8.003 -0.0439 -0.2123  0.8974
  168SOPE  H12R18947   2.748  -0.147   7.952  0.1848 -0.8127  0.0202
  168SOPE  H12S18948   2.772  -0.325   8.001 -0.0669 -0.2159 -0.4993
  168SOPE  C21318949   2.657  -0.213   8.147  0.2649  0.4364 -0.8480
  168SOPE  H13R18950   2.622  -0.307   8.196 -2.9572  1.3841 -1.2274
  168SOPE  H13S18951   2.571  -0.144   8.140  0.6239  0.9799  0.0299
  168SOPE  C21418952   2.758  -0.140   8.245 -0.2269  0.9037  0.0779
  168SOPE  H14R18953   2.800  -0.047   8.202  0.7360  0.1373 -0.6538
  168SOPE  H14S18954   2.843  -0.210   8.254  2.4175  4.0233 -0.0594
  168SOPE  C21518955   2.693  -0.112   8.391  0.0179 -0.2913  0.0907
  168SOPE  H15R18956   2.771  -0.096   8.468  0.3429  0.9441 -0.4862
  168SOPE  H15S18957   2.643  -0.204   8.429  0.2290  0.3525  2.0031
  168SOPE  C21618958   2.599   0.011   8.380  0.3225 -0.1916  0.2986
  168SOPE  H16R18959   2.530  -0.007   8.295  1.6164  1.2999 -1.0958
  168SOPE  H16S18960   2.647   0.108   8.357  0.5476 -0.5400 -0.7472
  168SOPE  C21718961   2.507   0.017   8.504 -0.8561 -0.2231  0.0969
  168SOPE  H17R18962   2.557  -0.015   8.598 -0.5986 -0.7647 -0.2216
  168SOPE  H17S18963   2.420  -0.051   8.487 -1.8826  1.1418 -0.2567
  168SOPE  C21818964   2.453   0.160   8.538  0.3406  0.1710 -0.0102
  168SOPE  H18R18965   2.538   0.217   8.581  2.0707 -0.3472 -2.6075
  168SOPE  H18S18966   2.367   0.156   8.608 -0.0311  0.3466 -0.4459
  168SOPE  H18T18967   2.424   0.211   8.443  1.0344  0.5974  0.0078
  168SOPE   C3318968   2.247   0.120   7.088  0.4110 -0.6759  0.2380
  168SOPE   H3X18969   2.354   0.122   7.116  0.9782  1.5000 -1.8495
  168SOPE   H3Y18970   2.210   0.019   7.060  1.6401 -0.7948 -1.0244
  168SOPE   C3418971   2.160   0.152   7.215 -0.0999  0.6995 -0.4731
  168SOPE   H4X18972   2.052   0.139   7.197  0.0188 -1.7332  0.3958
  168SOPE   H4Y18973   2.188   0.258   7.236  1.0236  0.3808 -0.2991
  168SOPE   C3518974   2.207   0.066   7.328 -0.1737  0.1008  0.5911
  168SOPE   H5X18975   2.316   0.081   7.343 -0.4350  1.1794  1.4636
  168SOPE   H5Y18976   2.198  -0.041   7.299  1.2327  0.4450 -1.1943
  168SOPE   C3618977   2.128   0.116   7.451  0.1844 -0.0098  0.3385
  168SOPE   H6X18978   2.019   0.099   7.454  0.2484 -0.7558 -1.0497
  168SOPE   H6Y18979   2.144   0.223   7.474 -0.9992  0.2510 -0.0321
  168SOPE   C3718980   2.192   0.046   7.577 -0.4111  0.0350  1.0830
  168SOPE   H7X18981   2.303   0.042   7.574 -0.4515 -2.5971 -5.1809
  168SOPE   H7Y18982   2.142  -0.051   7.559  0.5841 -0.7984  2.7123
  168SOPE   C3818983   2.144   0.091   7.714  0.2368  0.3449 -0.7713
  168SOPE   H8X18984   2.041   0.132   7.710 -0.4698 -1.2426  0.8339
  168SOPE   H8Y18985   2.207   0.177   7.745 -0.1016  0.0619  0.6961
  168SOPE   C3918986   2.157  -0.018   7.819 -0.2221  0.5852 -0.4318
  168SOPE   H9X18987   2.258  -0.064   7.807 -0.4877 -0.0941 -0.1391
  168SOPE   H9Y18988   2.084  -0.099   7.798  1.7372 -1.4263  0.2834
  168SOPE  C31018989   2.148   0.032   7.962 -0.2509 -0.6861  0.8643
  168SOPE  H10X18990   2.050   0.081   7.983 -0.3278 -0.3036 -0.3774
  168SOPE  H10Y18991   2.222   0.111   7.988 -0.0011 -0.5534 -0.2410
  168SOPE  C31118992   2.153  -0.075   8.067  0.1131 -0.0113 -0.1975
  168SOPE  H11X18993   2.228  -0.148   8.031  1.7836  0.2324  2.6604
  168SOPE  H11Y18994   2.054  -0.124   8.079 -1.1194  1.7666 -2.5875
  168SOPE  C31218995   2.183  -0.018   8.207 -0.3065  0.3269 -0.2820
  168SOPE  H12X18996   2.262   0.060   8.200  4.2830 -3.8692  2.0895
  168SOPE  H12Y18997   2.226  -0.100   8.269 -0.0601 -1.3514 -2.6219
  168SOPE  C31318998   2.062   0.050   8.274 -0.1078  0.0975 -0.1756
  168SOPE  H13X18999   1.965  -0.001   8.255  0.1880 -0.5057 -0.0788
  168SOPE  H13Y19000   2.053   0.150   8.226  3.0618  1.1941  1.3899
  168SOPE  C31419001   2.079   0.080   8.427 -0.1621  0.4221 -0.4243
  168SOPE  H14X19002   2.174   0.137   8.424 -1.4961  2.6434 -2.2224
  168SOPE  H14Y19003   2.098  -0.020   8.471 -0.6519 -0.8314 -2.9793
  168SOPE  C31519004   1.960   0.158   8.485  0.1227  0.8433  0.0434
  168SOPE  H15X19005   1.935   0.239   8.415  0.4087  2.6824  2.0158
  168SOPE  H15Y19006   1.986   0.206   8.582 -0.5616 -0.4155  0.8645
  168SOPE  C31619007   1.837   0.072   8.515  0.0021  0.3814 -0.5546
  168SOPE  H16X19008   1.808   0.028   8.417  1.2028 -1.3909 -0.1170
  168SOPE  H16Y19009   1.759   0.147   8.543 -0.8861 -0.6317 -0.2879
  168SOPE  C31719010   1.840  -0.040   8.617  0.0063 -0.3138 -1.2222
  168SOPE  H17X19011   1.923  -0.010   8.685  1.3151 -0.4193 -2.7564
  168SOPE  H17Y19012   1.878  -0.127   8.560  1.9837  0.5009 -1.1771
  168SOPE  C31819013   1.700  -0.085   8.666 -0.7459  0.0724 -0.2210
  168SOPE  H18X19014   1.619  -0.085   8.590 -0.9106 -0.8572 -0.0476
  168SOPE  H18Y19015   1.659  -0.008   8.735 -0.5444  0.5599 -0.6428
  168SOPE  H18Z19016   1.707  -0.183   8.719  1.2400 -0.0343 -0.6431
  169SOPE     N19017   4.102   2.767   6.273  0.1608 -0.2602 -0.2821
  169SOPE   HN119018   4.062   2.678   6.235  1.5869 -1.4871  1.0510
  169SOPE   HN219019   4.063   2.777   6.369 -1.3838  0.7344 -0.9904
  169SOPE   HN319020   4.066   2.843   6.212 -2.1184 -3.1680 -2.7534
  169SOPE   C1219021   4.250   2.764   6.269 -0.1002  0.5073  0.8647
  169SOPE  H12A19022   4.282   2.845   6.337  0.2985  1.9965 -1.0785
  169SOPE  H12B19023   4.275   2.786   6.163  0.1747  1.7870  1.1958
  169SOPE   C1119024   4.311   2.625   6.301 -0.1874 -1.0522 -0.1088
  169SOPE  H11A19025   4.420   2.623   6.320 -0.3237 -0.7770  0.7538
  169SOPE  H11B19026   4.306   2.558   6.212  0.8130 -1.2346 -0.0367
  169SOPE     P19027   4.278   2.426   6.462  0.1994  0.0644  0.5119
  169SOPE   O1319028   4.286   2.325   6.358 -0.4303 -0.1167 -1.1135
  169SOPE   O1419029   4.196   2.399   6.577  0.0595 -0.0665 -0.0861
  169SOPE   O1219030   4.236   2.570   6.411 -0.0644  0.1187  0.4710
  169SOPE   O1119031   4.432   2.456   6.505  0.4910  0.2911 -0.0764
  169SOPE    C119032   4.457   2.533   6.610  0.5288 -0.1702  0.0223
  169SOPE    HA19033   4.374   2.522   6.683 -1.5234  0.5342 -2.1595
  169SOPE    HB19034   4.451   2.641   6.584 -3.3053 -0.4045 -0.3210
  169SOPE    C219035   4.581   2.496   6.686 -0.7791  0.4329 -0.1616
  169SOPE    HS19036   4.666   2.506   6.615  1.5051  1.0360  2.5715
  169SOPE   O2119037   4.569   2.354   6.734 -0.1921 -0.0214  0.1199
  169SOPE   C2119038   4.683   2.294   6.754  0.4919  0.6636 -0.1182
  169SOPE   O2219039   4.793   2.340   6.722 -0.2471  0.3074 -0.2772
  169SOPE   C2219040   4.642   2.173   6.847 -0.3312 -0.0068  0.1486
  169SOPE   H2R19041   4.738   2.126   6.878 -0.3285  0.2424  0.5248
  169SOPE   H2S19042   4.560   2.124   6.791  0.0479 -0.3447 -0.1115
  169SOPE    C319043   4.596   2.594   6.809 -0.3014  0.2118  0.1962
  169SOPE    HX19044   4.521   2.561   6.884  1.4827 -0.8518  1.5470
  169SOPE    HY19045   4.557   2.692   6.774 -0.3449  0.5497  1.1882
  169SOPE   O3119046   4.728   2.602   6.871 -0.1782 -0.2188 -0.0215
  169SOPE   C3119047   4.816   2.690   6.813  0.2115 -0.4820  0.6006
  169SOPE   O3219048   4.781   2.762   6.718  0.1853 -0.6116 -0.2111
  169SOPE   C3219049   4.958   2.685   6.879 -0.1321  1.1944 -0.0612
  169SOPE   H2X19050   5.022   2.634   6.804 -0.0176 -1.3805  1.7103
  169SOPE   H2Y19051   4.949   2.618   6.968  0.3589 -0.5503 -1.2944
  169SOPE   C2319052   4.581   2.220   6.987 -0.3751  0.8551 -0.3952
  169SOPE   H3R19053   4.484   2.270   6.963 -0.0799  1.7398  0.2779
  169SOPE   H3S19054   4.655   2.294   7.023 -0.9963  0.2757  2.1830
  169SOPE   C2419055   4.564   2.108   7.089 -0.1828  0.0556  0.4109
  169SOPE   H4R19056   4.521   2.017   7.043  1.7582 -0.7231  0.0806
  169SOPE   H4S19057   4.670   2.079   7.107 -0.9576 -1.9428  1.9042
  169SOPE   C2519058   4.497   2.163   7.208  1.0979 -0.1964 -0.4242
  169SOPE   H5R19059   4.547   2.260   7.231 -1.3340  0.8945  0.5210
  169SOPE   H5S19060   4.394   2.194   7.178  0.3604 -2.2873 -0.1138
  169SOPE   C2619061   4.499   2.075   7.335  0.8063 -0.3836  0.5084
  169SOPE   H6R19062   4.407   2.102   7.392  0.3238 -1.8766  0.4391
  169SOPE   H6S19063   4.493   1.969   7.304 -1.1550 -0.1285 -0.0724
  169SOPE   C2719064   4.630   2.102   7.415  0.0215  0.4517 -0.4593
  169SOPE   H7R19065   4.722   2.087   7.355  1.3922 -0.8223  1.8896
  169SOPE   H7S19066   4.629   2.209   7.445  0.0546 -0.0277  1.2906
  169SOPE   C2819067   4.640   1.992   7.535  0.7206 -0.3147  0.8598
  169SOPE   H8R19068   4.632   1.894   7.483  1.7118 -1.0025  1.9928
  169SOPE   H8S19069   4.741   2.004   7.581  1.7484 -4.2829 -0.1445
  169SOPE   C2919070   4.528   2.008   7.632  0.3386  0.8059 -0.7280
  169SOPE   H9119071   4.452   1.929   7.622 -0.1548  0.8462  2.1479
  169SOPE  C21019072   4.514   2.107   7.726  0.1336  0.0143  0.3934
  169SOPE  H10119073   4.434   2.103   7.801  0.0702  0.9216  0.3801
  169SOPE  C21119074   4.604   2.223   7.758 -0.0352  0.0264  0.6287
  169SOPE  H11R19075   4.710   2.203   7.731 -0.5372 -0.1587 -1.2990
  169SOPE  H11S19076   4.604   2.231   7.869 -1.1180  0.8194  0.5784
  169SOPE  C21219077   4.569   2.358   7.711  0.2209 -0.1607  0.4700
  169SOPE  H12R19078   4.461   2.382   7.716  0.3535  0.6451 -0.3505
  169SOPE  H12S19079   4.601   2.376   7.606  1.4799  2.5990  1.2845
  169SOPE  C21319080   4.642   2.467   7.801  0.0722 -0.6577 -0.7920
  169SOPE  H13R19081   4.750   2.450   7.788  0.2397 -0.1187 -0.1514
  169SOPE  H13S19082   4.615   2.466   7.909  1.4150  2.4236 -0.3749
  169SOPE  C21419083   4.604   2.613   7.752  0.1572  0.8212  0.6018
  169SOPE  H14R19084   4.495   2.633   7.761  0.0013  0.7574 -0.9659
  169SOPE  H14S19085   4.621   2.641   7.646 -1.1924 -0.8280 -0.0779
  169SOPE  C21519086   4.669   2.712   7.853 -0.2217 -0.1985 -0.3118
  169SOPE  H15R19087   4.644   2.671   7.953  2.7263  2.6805  1.7184
  169SOPE  H15S19088   4.616   2.810   7.850 -1.3015 -0.5914  3.7373
  169SOPE  C21619089   4.815   2.728   7.833 -0.7591  0.5034 -1.0642
  169SOPE  H16R19090   4.850   2.751   7.731  0.0040  0.9444 -0.7092
  169SOPE  H16S19091   4.854   2.624   7.846 -0.4585  0.7708  0.2971
  169SOPE  C21719092   4.877   2.827   7.934  0.3246  0.4305  0.7574
  169SOPE  H17R19093   4.825   2.814   8.032 -2.0103  2.0891 -0.2143
  169SOPE  H17S19094   4.844   2.925   7.894 -1.7574 -0.6632 -0.2814
  169SOPE  C21819095   5.027   2.810   7.953  0.2016  0.1759 -0.6513
  169SOPE  H18R19096   5.041   2.716   8.012 -1.1809 -0.0330 -0.6400
  169SOPE  H18S19097   5.068   2.888   8.020 -0.4120  1.1787 -1.4342
  169SOPE  H18T19098   5.088   2.814   7.860  0.1979  0.2797 -0.6479
  169SOPE   C3319099   5.011   2.828   6.913 -0.1374  0.1157 -0.2020
  169SOPE   H3X19100   4.979   2.905   6.840 -0.2680  0.8492  0.6215
  169SOPE   H3Y19101   5.120   2.833   6.933  0.3443 -0.5392 -2.5062
  169SOPE   C3419102   4.943   2.869   7.044 -0.1724 -0.4711 -0.2790
  169SOPE   H4X19103   4.951   2.796   7.128  0.5757  0.0351  0.0965
  169SOPE   H4Y19104   4.836   2.864   7.016 -1.2172  1.9077  2.9711
  169SOPE   C3519105   4.979   3.003   7.098  0.5838  0.1107 -0.1569
  169SOPE   H5X19106   4.968   3.075   7.013 -2.1708 -1.6763 -1.3673
  169SOPE   H5Y19107   5.084   3.003   7.135  1.1903 -0.6629 -1.8072
  169SOPE   C3619108   4.876   3.056   7.205  0.0905  0.0714  0.2758
  169SOPE   H6X19109   4.886   2.978   7.283  0.1265  0.1093  0.3092
  169SOPE   H6Y19110   4.778   3.054   7.153 -1.0576  1.4942  2.3003
  169SOPE   C3719111   4.892   3.189   7.269 -0.0429 -0.8446 -0.3540
  169SOPE   H7X19112   4.880   3.265   7.190 -2.3400 -2.1279 -1.3055
  169SOPE   H7Y19113   4.994   3.199   7.311 -0.6643  1.3153  0.7034
  169SOPE   C3819114   4.800   3.214   7.389 -0.3280 -0.0587  0.1632
  169SOPE   H8X19115   4.698   3.220   7.346 -0.4573  0.9166  0.5879
  169SOPE   H8Y19116   4.792   3.123   7.451 -4.0451 -0.2016 -0.4332
  169SOPE   C3919117   4.834   3.340   7.468  0.3011 -0.0882 -0.1378
  169SOPE   H9X19118   4.795   3.426   7.409  0.8305  0.1970 -0.0827
  169SOPE   H9Y19119   4.945   3.345   7.472  0.2751 -0.4887  1.3827
  169SOPE  C31019120   4.786   3.352   7.610 -0.4638 -0.6556 -0.4532
  169SOPE  H10X19121   4.677   3.335   7.627 -0.7447  1.2832 -0.2453
  169SOPE  H10Y19122   4.794   3.462   7.627  0.9346 -0.5670 -1.6017
  169SOPE  C31119123   4.877   3.277   7.713 -0.3740  0.2613  0.0235
  169SOPE  H11X19124   4.983   3.283   7.682 -0.1797 -1.4199  0.3090
  169SOPE  H11Y19125   4.842   3.172   7.710  0.5065 -0.0042 -3.8646
  169SOPE  C31219126   4.853   3.313   7.854  0.8906  0.3265  0.1386
  169SOPE  H12X19127   4.753   3.267   7.875  0.2605  2.3299  1.6480
  169SOPE  H12Y19128   4.852   3.422   7.876 -2.0036 -0.0157  2.0265
  169SOPE  C31319129   4.956   3.253   7.951  0.1652  0.5998  0.5441
  169SOPE  H13X19130   5.059   3.275   7.916 -0.8001  0.3028 -2.6453
  169SOPE  H13Y19131   4.942   3.143   7.950  1.9218  0.3668  0.5671
  169SOPE  C31419132   4.939   3.300   8.095 -0.5270 -0.2624 -0.4169
  169SOPE  H14X19133   4.929   3.410   8.091 -4.0024 -0.5487 -1.3163
  169SOPE  H14Y19134   5.032   3.295   8.156 -0.1573 -0.0622 -0.9653
  169SOPE  C31519135   4.836   3.227   8.180  0.3927 -0.2894  0.5266
  169SOPE  H15X19136   4.865   3.120   8.186 -1.9433 -1.0214 -0.4804
  169SOPE  H15Y19137   4.736   3.220   8.132  0.5736 -3.4121  0.4445
  169SOPE  C31619138   4.806   3.288   8.319  0.4968  0.8075 -0.9450
  169SOPE  H16X19139   4.779   3.394   8.298 -0.6703  1.0699  1.7010
  169SOPE  H16Y19140   4.896   3.300   8.383  0.4178 -0.1918 -0.6391
  169SOPE  C31719141   4.692   3.228   8.405 -0.2597 -0.3562 -0.0838
  169SOPE  H17X19142   4.721   3.121   8.418  2.6984  0.4693  0.4906
  169SOPE  H17Y19143   4.589   3.230   8.364 -0.8905 -1.7057  1.3636
  169SOPE  C31819144   4.672   3.289   8.541 -0.6937 -0.0170  0.0160
  169SOPE  H18X19145   4.741   3.244   8.615  0.2650  2.5295  0.7379
  169SOPE  H18Y19146   4.571   3.255   8.571 -1.0758  1.6925  0.7552
  169SOPE  H18Z19147   4.691   3.399   8.535  2.0195 -0.3117  2.3117
  170SOPE     N19148   6.205   0.661   6.234  0.5629 -0.2553 -0.4908
  170SOPE   HN119149   6.161   0.755   6.241  3.9260  1.3345  0.3031
  170SOPE   HN219150   6.307   0.676   6.244  0.5167 -0.8763  1.0650
  170SOPE   HN319151   6.185   0.622   6.139 -3.5692  0.5721 -0.0465
  170SOPE   C1219152   6.154   0.577   6.345 -0.0408  0.6454  0.2399
  170SOPE  H12A19153   6.207   0.607   6.438  0.5029  1.0830 -0.2084
  170SOPE  H12B19154   6.183   0.471   6.326  0.8495  0.9520 -0.1423
  170SOPE   C1119155   5.996   0.579   6.349 -0.0323 -0.9345  0.0915
  170SOPE  H11A19156   5.962   0.506   6.426  1.6657 -0.1045  1.6734
  170SOPE  H11B19157   5.965   0.538   6.251 -0.6098 -2.4245  0.8771
  170SOPE     P19158   5.806   0.768   6.352  1.0397  0.2262  0.5361
  170SOPE   O1319159   5.710   0.655   6.343  0.0451 -0.2968 -0.7340
  170SOPE   O1419160   5.802   0.865   6.239 -0.2153 -0.0972  0.5150
  170SOPE   O1219161   5.952   0.715   6.367 -0.0505 -0.2145  0.0053
  170SOPE   O1119162   5.771   0.826   6.490 -0.1533 -0.3274 -0.9208
  170SOPE    C119163   5.826   0.768   6.608  0.0782  0.5450  0.2185
  170SOPE    HA19164   5.933   0.798   6.619 -0.4530  2.5779 -0.0002
  170SOPE    HB19165   5.824   0.657   6.611  1.2439  0.4411 -1.8780
  170SOPE    C219166   5.747   0.827   6.725 -0.1844 -0.2331 -0.6378
  170SOPE    HS19167   5.758   0.938   6.728 -0.6925 -0.2188  2.4131
  170SOPE   O2119168   5.794   0.767   6.851 -0.4053 -0.7898 -0.2003
  170SOPE   C2119169   5.901   0.824   6.902  0.4052  0.3668  0.0907
  170SOPE   O2219170   5.950   0.928   6.855 -0.5757 -0.2942 -0.3490
  170SOPE   C2219171   5.939   0.743   7.024  0.5115  0.2161  0.4286
  170SOPE   H2R19172   6.031   0.783   7.073  0.5805 -0.7606  1.1076
  170SOPE   H2S19173   5.978   0.649   6.979  4.2976  1.5476  0.7708
  170SOPE    C319174   5.595   0.792   6.716 -0.1578 -0.3732 -0.2230
  170SOPE    HX19175   5.604   0.682   6.700 -0.3464 -0.4280  0.0437
  170SOPE    HY19176   5.546   0.840   6.628  2.1924  0.6783 -0.9933
  170SOPE   O3119177   5.517   0.815   6.836 -0.1756  0.2654 -0.3587
  170SOPE   C3119178   5.442   0.711   6.869  1.0143 -0.6204 -1.1423
  170SOPE   O3219179   5.431   0.603   6.811 -0.4557 -1.0229  0.0318
  170SOPE   C3219180   5.360   0.752   6.992 -0.2286 -0.1580 -0.3332
  170SOPE   H2X19181   5.426   0.823   7.046 -0.5911 -1.0494  1.3019
  170SOPE   H2Y19182   5.348   0.665   7.060 -3.0828  0.1862 -0.3633
  170SOPE   C2319183   5.836   0.723   7.131 -0.4794 -0.7326  0.0724
  170SOPE   H3R19184   5.885   0.683   7.223  0.8234  1.3652  0.3345
  170SOPE   H3S19185   5.766   0.651   7.085  0.1319 -0.9012 -0.6141
  170SOPE   C2419186   5.750   0.851   7.175 -0.4154 -0.2111 -0.2662
  170SOPE   H4R19187   5.817   0.934   7.207  0.4919 -0.9622 -0.1643
  170SOPE   H4S19188   5.684   0.884   7.093  1.8608 -0.8374 -2.4060
  170SOPE   C2519189   5.653   0.821   7.300 -0.8492 -0.1118 -0.0354
  170SOPE   H5R19190   5.588   0.733   7.279  0.2617 -0.4965 -1.9841
  170SOPE   H5S19191   5.714   0.805   7.392 -1.0349  0.7078  0.2372
  170SOPE   C2619192   5.559   0.932   7.348 -0.2726  0.0612 -0.0118
  170SOPE   H6R19193   5.624   1.021   7.359  0.9666 -0.6217 -1.6756
  170SOPE   H6S19194   5.464   0.950   7.293  0.3350  0.6162 -0.8891
  170SOPE   C2719195   5.499   0.899   7.494 -0.3723  0.3035 -0.5936
  170SOPE   H7R19196   5.439   0.805   7.494  1.9478 -1.2266  0.2564
  170SOPE   H7S19197   5.586   0.878   7.560  0.4910  0.5466 -1.6381
  170SOPE   C2819198   5.412   1.023   7.546 -0.1623 -0.4105 -0.0950
  170SOPE   H8R19199   5.342   1.048   7.463  1.0318  4.5755  0.2304
  170SOPE   H8S19200   5.350   0.989   7.631 -2.1100 -1.0712 -1.7234
  170SOPE   C2919201   5.497   1.138   7.581  1.2411 -0.2292  0.5532
  170SOPE   H9119202   5.517   1.200   7.492  0.2695 -0.1335  0.3917
  170SOPE  C21019203   5.538   1.176   7.700  0.4352 -0.5685  0.2518
  170SOPE  H10119204   5.591   1.272   7.709  1.4593 -1.1703  0.7424
  170SOPE  C21119205   5.514   1.100   7.828  1.1388 -0.1950  0.9478
  170SOPE  H11R19206   5.606   1.105   7.890  0.5535  1.4040  1.7078
  170SOPE  H11S19207   5.500   0.991   7.812  1.1951 -0.1390  0.5042
  170SOPE  C21219208   5.404   1.148   7.920  0.6984 -0.0300  0.5105
  170SOPE  H12R19209   5.304   1.132   7.874 -0.3414  2.4728  1.8196
  170SOPE  H12S19210   5.403   1.259   7.920  2.4359  0.0046  0.1757
  170SOPE  C21319211   5.406   1.064   8.054  0.6451 -0.3624  0.4647
  170SOPE  H13R19212   5.512   1.046   8.082  1.5252  0.4742 -2.2019
  170SOPE  H13S19213   5.367   0.963   8.031 -1.5402  0.1977  1.5183
  170SOPE  C21419214   5.316   1.112   8.171  0.0214 -0.2696  0.5193
  170SOPE  H14R19215   5.212   1.130   8.136 -0.0132 -2.1939 -0.4686
  170SOPE  H14S19216   5.361   1.208   8.204 -0.6645  1.0599 -2.2626
  170SOPE  C21519217   5.304   1.016   8.292 -0.2554 -0.4592  0.1145
  170SOPE  H15R19218   5.402   1.008   8.343 -1.1779 -0.6829  1.9006
  170SOPE  H15S19219   5.292   0.911   8.256  0.9520 -0.8144  0.7424
  170SOPE  C21619220   5.194   1.054   8.398  0.4523  0.1036 -0.2990
  170SOPE  H16R19221   5.095   1.027   8.356  0.5611 -2.0893  0.8301
  170SOPE  H16S19222   5.203   1.164   8.415  2.1997  0.5085 -3.3729
  170SOPE  C21719223   5.208   0.985   8.535 -0.1416  0.8751 -0.0677
  170SOPE  H17R19224   5.129   1.029   8.599 -0.5687  3.0811 -2.0316
  170SOPE  H17S19225   5.305   1.024   8.570 -0.0376  0.1267  0.4934
  170SOPE  C21819226   5.217   0.826   8.536  0.3037 -0.1772  0.2765
  170SOPE  H18R19227   5.112   0.790   8.533  0.7665 -1.4871 -0.2020
  170SOPE  H18S19228   5.263   0.790   8.630 -2.0755  0.1340  1.6046
  170SOPE  H18T19229   5.273   0.781   8.452 -0.8784 -1.1315 -0.0083
  170SOPE   C3319230   5.217   0.817   6.955  0.2945  0.5082 -0.3912
  170SOPE   H3X19231   5.153   0.738   6.910 -1.5626  1.2344  0.9231
  170SOPE   H3Y19232   5.229   0.903   6.886  0.7398  0.0989 -0.8247
  170SOPE   C3419233   5.146   0.878   7.079 -0.6279 -0.1892  0.1315
  170SOPE   H4X19234   5.041   0.890   7.045 -0.9994  0.4191  1.4829
  170SOPE   H4Y19235   5.207   0.969   7.096  1.0804 -1.7892  2.8937
  170SOPE   C3519236   5.137   0.815   7.216 -0.0538 -0.1967 -0.3834
  170SOPE   H5X19237   5.241   0.792   7.249  0.7009  2.0893 -1.0800
  170SOPE   H5Y19238   5.081   0.720   7.206 -3.4412  1.8742 -1.8744
  170SOPE   C3619239   5.064   0.904   7.318  0.3950 -0.2993  0.6409
  170SOPE   H6X19240   4.968   0.950   7.287 -0.2451 -1.3713  0.9945
  170SOPE   H6Y19241   5.133   0.990   7.328  1.8846 -0.9727 -3.1666
  170SOPE   C3719242   5.039   0.825   7.445  0.4908 -0.5130 -0.5221
  170SOPE   H7X19243   5.138   0.800   7.488  1.5501  4.1675  0.0192
  170SOPE   H7Y19244   4.984   0.730   7.426  0.8000 -0.7857 -0.0654
  170SOPE   C3819245   4.958   0.912   7.547 -0.0295 -0.2108 -0.2728
  170SOPE   H8X19246   4.866   0.942   7.493  0.8671  1.7183 -0.7717
  170SOPE   H8Y19247   5.017   1.003   7.570 -0.0491 -0.4765  0.8401
  170SOPE   C3919248   4.921   0.835   7.674 -0.5918 -0.6275  0.1063
  170SOPE   H9X19249   4.849   0.755   7.649 -0.5053 -0.8907  0.6861
  170SOPE   H9Y19250   4.867   0.902   7.745  2.6270  2.4657 -0.2227
  170SOPE  C31019251   5.048   0.787   7.738 -1.0852  0.1857 -0.7458
  170SOPE  H10X19252   5.133   0.856   7.720 -1.5775  1.3894  1.4489
  170SOPE  H10Y19253   5.071   0.698   7.676  0.4233  1.0299 -1.4372
  170SOPE  C31119254   5.027   0.750   7.885 -1.2097  1.1863  0.5944
  170SOPE  H11X19255   5.117   0.697   7.923 -0.0679  2.4891 -0.1960
  170SOPE  H11Y19256   4.946   0.675   7.893 -0.3906  0.1067 -0.9089
  170SOPE  C31219257   5.007   0.871   7.968  0.1530  0.5010  1.1169
  170SOPE  H12X19258   4.901   0.905   7.961  0.4244  1.0647 -0.5647
  170SOPE  H12Y19259   5.056   0.959   7.921 -1.4096  1.3833  1.1124
  170SOPE  C31319260   5.038   0.854   8.121 -0.5648  0.4899  0.3485
  170SOPE  H13X19261   5.001   0.948   8.167  1.9442  2.0900 -0.8191
  170SOPE  H13Y19262   5.148   0.841   8.115 -0.7617 -0.6685 -1.0659
  170SOPE  C31419263   4.968   0.740   8.194  0.0325 -0.8922  1.1926
  170SOPE  H14X19264   4.973   0.767   8.301 -1.1615  1.1349  0.7490
  170SOPE  H14Y19265   5.037   0.653   8.188  0.1775 -0.7665  1.0275
  170SOPE  C31519266   4.825   0.722   8.163  0.4208 -0.6687  0.8367
  170SOPE  H15X19267   4.814   0.661   8.071 -1.7314 -0.0988  0.6804
  170SOPE  H15Y19268   4.785   0.822   8.136  1.6596 -1.2626 -3.4872
  170SOPE  C31619269   4.743   0.665   8.289  0.4555  0.2664 -0.1052
  170SOPE  H16X19270   4.726   0.753   8.355 -1.4394 -0.7291  0.7566
  170SOPE  H16Y19271   4.806   0.593   8.345 -1.3018 -0.2641  1.2163
  170SOPE  C31719272   4.601   0.606   8.251  0.7494  0.7109  0.4175
  170SOPE  H17X19273   4.542   0.582   8.342  0.1759  0.5506 -0.0001
  170SOPE  H17Y19274   4.618   0.505   8.208  3.7399  1.0872  0.5812
  170SOPE  C31819275   4.513   0.688   8.157  0.1206 -0.0788  0.4573
  170SOPE  H18X19276   4.549   0.687   8.052 -2.2532  1.9754 -0.4353
  170SOPE  H18Y19277   4.494   0.793   8.188 -0.8508 -0.3257  0.7222
  170SOPE  H18Z19278   4.410   0.645   8.158 -0.6194  1.6201  3.9123
  171SOPE     N19279   5.801   3.995   6.180 -0.1319 -0.3956  0.0176
  171SOPE   HN119280   5.768   3.897   6.193  1.9658 -1.2252 -0.6355
  171SOPE   HN219281   5.756   4.068   6.238 -0.4977 -0.7419  0.1768
  171SOPE   HN319282   5.786   4.012   6.079 -0.4496 -0.3275  0.0783
  171SOPE   C1219283   5.944   4.005   6.218 -0.5055 -0.1948 -0.5892
  171SOPE  H12A19284   5.978   4.111   6.221 -1.2270  0.0110  0.9347
  171SOPE  H12B19285   6.008   3.951   6.145  1.3660 -0.2075  1.0131
  171SOPE   C1119286   5.969   3.941   6.359  1.2636  0.1883  0.5222
  171SOPE  H11A19287   5.915   3.844   6.351  0.0565  0.7199  2.0729
  171SOPE  H11B19288   5.928   4.009   6.436 -1.6805  0.3259 -1.1037
  171SOPE     P19289   6.204   4.027   6.434  0.0512 -0.0678  0.0418
  171SOPE   O1319290   6.176   4.152   6.367  0.1883  0.4106 -0.3026
  171SOPE   O1419291   6.344   3.973   6.414  0.0934 -0.3546  0.7348
  171SOPE   O1219292   6.108   3.910   6.378 -0.3019  0.2494 -0.0069
  171SOPE   O1119293   6.179   4.030   6.592  0.1465 -0.5390  0.3704
  171SOPE    C119294   6.288   3.974   6.677  0.4393 -0.6675  0.2104
  171SOPE    HA19295   6.366   4.052   6.667 -1.2415  0.7569 -2.9245
  171SOPE    HB19296   6.342   3.884   6.640  1.6037  0.9323 -2.0926
  171SOPE    C219297   6.241   3.951   6.824  0.5795 -0.4856 -0.0524
  171SOPE    HS19298   6.178   3.859   6.822  3.9240 -2.8973  0.4740
  171SOPE   O2119299   6.176   4.078   6.860  0.2063  0.5371 -0.3434
  171SOPE   C2119300   6.102   4.074   6.972  0.4260  0.3741  0.4706
  171SOPE   O2219301   6.057   3.974   7.020  0.2928  0.2480  0.0398
  171SOPE   C2219302   6.081   4.218   7.018  0.2034 -0.2561 -0.5066
  171SOPE   H2R19303   6.087   4.290   6.933  0.5089  1.1033  0.6548
  171SOPE   H2S19304   6.151   4.240   7.101 -0.5599  1.5771 -0.3208
  171SOPE    C319305   6.355   3.918   6.920  0.1831  0.4255  0.1533
  171SOPE    HX19306   6.428   4.002   6.929 -0.2137  0.7592  0.2392
  171SOPE    HY19307   6.409   3.841   6.860 -2.1614 -0.9123 -0.2700
  171SOPE   O3119308   6.322   3.848   7.043  0.5337 -0.2232  0.1786
  171SOPE   C3119309   6.351   3.928   7.144  0.1136  0.2982 -0.4024
  171SOPE   O3219310   6.388   4.046   7.140  0.4178 -0.3433 -0.5219
  171SOPE   C3219311   6.335   3.841   7.272  0.2789 -0.3724  0.6919
  171SOPE   H2X19312   6.429   3.834   7.330 -0.2565 -0.6665  1.5228
  171SOPE   H2Y19313   6.313   3.735   7.249  2.2889 -0.5289 -0.6618
  171SOPE   C2319314   5.941   4.223   7.078 -0.2841 -0.0017 -0.5466
  171SOPE   H3R19315   5.873   4.168   7.008 -1.0394  0.8214 -0.4644
  171SOPE   H3S19316   5.908   4.329   7.080  0.1429  0.1377 -1.0177
  171SOPE   C2419317   5.930   4.176   7.224  0.5775  0.0141  0.7559
  171SOPE   H4R19318   5.822   4.152   7.235  0.2976  0.5857 -0.7009
  171SOPE   H4S19319   5.980   4.077   7.232  0.3813 -0.1546 -0.1036
  171SOPE   C2519320   5.978   4.269   7.343  0.1818 -0.5356  0.0460
  171SOPE   H5R19321   6.083   4.300   7.329 -0.0483 -0.8075 -2.5777
  171SOPE   H5S19322   5.908   4.355   7.343 -2.0079 -2.2026  2.8251
  171SOPE   C2619323   5.968   4.190   7.476  0.0989 -0.3746 -0.3451
  171SOPE   H6R19324   5.873   4.131   7.476  0.2211 -0.6495  2.9192
  171SOPE   H6S19325   6.043   4.109   7.467 -0.1414 -0.8877  2.0776
  171SOPE   C2719326   5.962   4.288   7.596 -0.5910  0.1587 -0.8402
  171SOPE   H7R19327   6.066   4.325   7.603 -0.5626  0.2050 -1.4478
  171SOPE   H7S19328   5.899   4.379   7.578  0.2804  1.0608  0.6196
  171SOPE   C2819329   5.917   4.206   7.732 -0.1921  0.2799 -0.9239
  171SOPE   H8R19330   5.886   4.281   7.808  0.4304 -0.9369  0.5478
  171SOPE   H8S19331   5.815   4.168   7.710 -0.5292  1.5396 -1.5808
  171SOPE   C2919332   6.013   4.101   7.785  0.2362 -0.4895  0.2399
  171SOPE   H9119333   5.990   4.001   7.746 -0.3861 -0.3751  0.3067
  171SOPE  C21019334   6.108   4.107   7.873 -0.5415 -0.5289 -0.6138
  171SOPE  H10119335   6.170   4.019   7.895  0.7183  0.4603 -0.0655
  171SOPE  C21119336   6.139   4.234   7.953 -0.1130 -0.0617  0.2220
  171SOPE  H11R19337   6.079   4.321   7.920 -0.5468 -0.5154 -0.1954
  171SOPE  H11S19338   6.241   4.260   7.916  0.3816 -0.2604  1.4463
  171SOPE  C21219339   6.135   4.199   8.101  0.7006  0.0343 -0.2492
  171SOPE  H12R19340   6.202   4.112   8.117 -0.0127 -0.1191  2.0633
  171SOPE  H12S19341   6.032   4.166   8.130  1.2545 -0.7269  0.9078
  171SOPE  C21319342   6.185   4.313   8.190  0.2593 -0.0971  0.5758
  171SOPE  H13R19343   6.133   4.408   8.169  3.6955  2.3055  2.3600
  171SOPE  H13S19344   6.293   4.329   8.172  0.1347  0.6248  0.4705
  171SOPE  C21419345   6.161   4.292   8.344  0.1403  0.0821  0.1983
  171SOPE  H14R19346   6.060   4.256   8.374  0.5776 -1.3451  0.0167
  171SOPE  H14S19347   6.168   4.394   8.387 -2.2387 -0.4520  1.9251
  171SOPE  C21519348   6.269   4.203   8.404  0.5209 -0.3099 -0.2943
  171SOPE  H15R19349   6.367   4.237   8.364  0.4788 -1.0467 -1.0343
  171SOPE  H15S19350   6.259   4.098   8.368 -2.0433 -0.0222 -0.4958
  171SOPE  C21619351   6.253   4.187   8.554 -0.1961  0.3097 -0.2800
  171SOPE  H16R19352   6.156   4.140   8.579  1.4275 -1.5126  2.9470
  171SOPE  H16S19353   6.252   4.287   8.601  0.3552 -0.1193  0.6502
  171SOPE  C21719354   6.376   4.110   8.620  0.3890  0.2885 -0.1452
  171SOPE  H17R19355   6.462   4.167   8.579  0.0862  0.7829 -0.0890
  171SOPE  H17S19356   6.379   4.004   8.588 -0.4981  0.2399 -0.0933
  171SOPE  C21819357   6.373   4.116   8.770 -0.8818  0.0489 -0.2410
  171SOPE  H18R19358   6.308   4.041   8.819 -1.2861  0.0313 -0.8083
  171SOPE  H18S19359   6.337   4.217   8.799  4.4154  1.4170  2.2536
  171SOPE  H18T19360   6.475   4.103   8.814 -1.0773  2.1888  0.9262
  171SOPE   C3319361   6.236   3.900   7.380 -1.0108 -0.0817 -0.2840
  171SOPE   H3X19362   6.144   3.927   7.323 -1.3746 -1.5221 -0.3956
  171SOPE   H3Y19363   6.285   3.989   7.425 -1.1601 -0.1425 -0.0008
  171SOPE   C3419364   6.190   3.805   7.494 -0.0777 -0.1019 -0.0169
  171SOPE   H4X19365   6.139   3.714   7.454  0.7180  0.1421 -1.6128
  171SOPE   H4Y19366   6.122   3.859   7.563 -1.2753 -1.7229  0.1227
  171SOPE   C3519367   6.297   3.746   7.586 -0.0902 -0.4015 -0.0492
  171SOPE   H5X19368   6.369   3.694   7.520  0.6519 -2.2850  2.2119
  171SOPE   H5Y19369   6.256   3.670   7.655  0.0705 -2.4744 -2.1692
  171SOPE   C3619370   6.388   3.855   7.659  0.3087  0.7145  0.8794
  171SOPE   H6X19371   6.326   3.917   7.728  1.1894  2.8481 -0.2025
  171SOPE   H6Y19372   6.430   3.931   7.590 -0.2992 -0.9134 -1.3096
  171SOPE   C3719373   6.507   3.786   7.730  0.4002  0.2514 -0.7437
  171SOPE   H7X19374   6.576   3.864   7.767 -0.6203  1.2109 -0.8205
  171SOPE   H7Y19375   6.558   3.720   7.657  0.9636  0.2656 -0.3573
  171SOPE   C3819376   6.468   3.695   7.852  0.2961 -0.4132 -0.3720
  171SOPE   H8X19377   6.388   3.623   7.825 -0.1483  0.2488 -0.8231
  171SOPE   H8Y19378   6.425   3.771   7.921 -0.1232  0.3481 -1.4625
  171SOPE   C3919379   6.580   3.631   7.939  1.0435  0.4540  0.5062
  171SOPE   H9X19380   6.662   3.706   7.948  2.4143 -1.1399  1.7845
  171SOPE   H9Y19381   6.628   3.540   7.896  0.1069 -0.4979  1.4618
  171SOPE  C31019382   6.532   3.604   8.085  0.4724  0.3652  0.0284
  171SOPE  H10X19383   6.452   3.526   8.083  2.2710 -1.4659 -2.1284
  171SOPE  H10Y19384   6.461   3.680   8.124 -1.7459 -0.3738 -2.4007
  171SOPE  C31119385   6.646   3.558   8.176 -0.1372 -0.6157 -0.0079
  171SOPE  H11X19386   6.728   3.632   8.163 -2.2099  1.2960 -2.6368
  171SOPE  H11Y19387   6.667   3.462   8.125 -2.5453 -1.0605 -0.2370
  171SOPE  C31219388   6.601   3.524   8.321 -0.0947  0.4148  0.1105
  171SOPE  H12X19389   6.698   3.482   8.354 -0.0940 -1.4266 -2.0684
  171SOPE  H12Y19390   6.508   3.463   8.318  0.6953 -0.7436 -2.1793
  171SOPE  C31319391   6.578   3.645   8.412 -0.6321 -0.5446 -0.1190
  171SOPE  H13X19392   6.538   3.603   8.507 -2.0322  0.3236 -0.3093
  171SOPE  H13Y19393   6.499   3.707   8.364 -0.3799  0.4627  0.7391
  171SOPE  C31419394   6.711   3.720   8.442  0.2628 -0.6101 -0.1395
  171SOPE  H14X19395   6.748   3.762   8.346  0.9281  1.1655  0.8826
  171SOPE  H14Y19396   6.792   3.649   8.469  0.1452 -1.2519 -1.4280
  171SOPE  C31519397   6.698   3.831   8.542 -0.2277  0.0787  0.5131
  171SOPE  H15X19398   6.606   3.885   8.508  0.8586  0.8818 -1.2327
  171SOPE  H15Y19399   6.783   3.901   8.527  0.9594 -1.7719 -1.6745
  171SOPE  C31619400   6.705   3.789   8.694 -0.8976  0.5443  0.6781
  171SOPE  H16X19401   6.800   3.732   8.710  0.2238  1.9710 -0.7092
  171SOPE  H16Y19402   6.619   3.720   8.702 -1.5849  1.4011  0.7247
  171SOPE  C31719403   6.693   3.912   8.785 -0.3686  0.7858 -0.2856
  171SOPE  H17X19404   6.592   3.954   8.764 -1.4662 -1.9299 -0.6780
  171SOPE  H17Y19405   6.769   3.987   8.755 -1.2084  1.0048 -1.9461
  171SOPE  C31819406   6.715   3.885   8.934  0.8982  0.0193  0.6451
  171SOPE  H18X19407   6.809   3.833   8.961  1.1962  0.5963  0.7098
  171SOPE  H18Y19408   6.645   3.811   8.981  2.8058 -2.0043  0.3668
  171SOPE  H18Z19409   6.698   3.978   8.993 -1.1508 -0.4251  0.8031
  172SOPE     N19410   6.446   5.563   6.184  0.3443 -0.4515 -0.4088
  172SOPE   HN119411   6.538   5.606   6.164 -0.3158  0.8289 -0.7188
  172SOPE   HN219412   6.434   5.480   6.123  3.0853 -2.0286  1.1033
  172SOPE   HN319413   6.373   5.628   6.148  1.2767  1.0277  0.3503
  172SOPE   C1219414   6.420   5.515   6.326  0.2457 -0.9028  0.2585
  172SOPE  H12A19415   6.310   5.496   6.329 -0.0030  0.1954 -1.2253
  172SOPE  H12B19416   6.426   5.607   6.388 -0.5771 -1.0948  0.6336
  172SOPE   C1119417   6.503   5.386   6.358  0.2335 -0.1228 -0.6934
  172SOPE  H11A19418   6.497   5.314   6.273  2.7245 -0.8270 -0.3137
  172SOPE  H11B19419   6.466   5.338   6.452 -1.4084  1.8375 -0.3072
  172SOPE     P19420   6.708   5.460   6.496  0.0045  0.2731 -0.0773
  172SOPE   O1319421   6.833   5.526   6.461 -0.3569  0.1009 -0.1235
  172SOPE   O1419422   6.706   5.340   6.581 -0.9138 -0.2617 -0.1552
  172SOPE   O1219423   6.641   5.422   6.365 -0.4688  0.1205 -1.2797
  172SOPE   O1119424   6.602   5.563   6.557 -0.7276 -0.2442  0.7955
  172SOPE    C119425   6.539   5.544   6.682  0.9296 -0.7350  0.0609
  172SOPE    HA19426   6.493   5.444   6.693  3.0983 -1.9460 -1.5626
  172SOPE    HB19427   6.458   5.620   6.684  4.0568  2.7179  1.6665
  172SOPE    C219428   6.635   5.585   6.792 -0.0368 -0.0823 -0.0325
  172SOPE    HS19429   6.731   5.531   6.786 -0.3037 -0.7815  1.6575
  172SOPE   O2119430   6.577   5.560   6.924 -0.1367  0.1343 -0.3412
  172SOPE   C2119431   6.474   5.628   6.977 -0.2287  0.3955 -0.7408
  172SOPE   O2219432   6.409   5.713   6.922  0.5109  0.1179  0.4450
  172SOPE   C2219433   6.453   5.584   7.118  0.4386  0.1507  0.1597
  172SOPE   H2R19434   6.548   5.568   7.173 -0.3251 -3.5107  0.5611
  172SOPE   H2S19435   6.396   5.488   7.117 -0.6255  0.7574  1.4035
  172SOPE    C319436   6.680   5.733   6.780 -0.2442 -0.2851 -0.1190
  172SOPE    HX19437   6.592   5.798   6.763 -0.2312 -0.1955  0.1508
  172SOPE    HY19438   6.745   5.739   6.691 -0.6808 -0.6594 -0.4655
  172SOPE   O3119439   6.744   5.776   6.906 -0.0503  0.1290  0.2183
  172SOPE   C3119440   6.874   5.784   6.903 -0.2610 -0.2918  0.4372
  172SOPE   O3219441   6.940   5.747   6.807  0.0573  0.3285 -0.4691
  172SOPE   C3219442   6.920   5.837   7.039 -0.3509  0.3645  0.0776
  172SOPE   H2X19443   6.882   5.941   7.045 -1.4914 -0.1602  3.4468
  172SOPE   H2Y19444   7.030   5.822   7.047 -0.4399 -0.5527 -0.3971
  172SOPE   C2319445   6.361   5.680   7.203  0.0411 -0.1681 -0.6566
  172SOPE   H3R19446   6.253   5.671   7.181  0.4353 -2.0115 -1.9637
  172SOPE   H3S19447   6.392   5.783   7.176 -0.5622  0.3145  0.4579
  172SOPE   C2419448   6.393   5.673   7.357  0.2046  0.4373 -0.2051
  172SOPE   H4R19449   6.503   5.685   7.363  0.1919  1.1213 -1.1945
  172SOPE   H4S19450   6.347   5.766   7.397 -0.3273 -1.1080  2.9282
  172SOPE   C2519451   6.355   5.550   7.429  0.2384 -0.2468  0.2125
  172SOPE   H5R19452   6.246   5.531   7.431  0.1773  0.1852  2.5601
  172SOPE   H5S19453   6.408   5.463   7.384 -1.6283 -3.6168  4.2104
  172SOPE   C2619454   6.388   5.539   7.580 -0.1874  0.1033  0.4616
  172SOPE   H6R19455   6.339   5.446   7.617 -0.9399  1.2167  2.3454
  172SOPE   H6S19456   6.495   5.524   7.604 -0.4245 -1.6121  0.5254
  172SOPE   C2719457   6.336   5.653   7.675  0.0793  0.0324 -0.4361
  172SOPE   H7R19458   6.361   5.614   7.776 -2.7252 -0.7780 -0.0175
  172SOPE   H7S19459   6.414   5.730   7.658  0.4602 -0.2394  0.0403
  172SOPE   C2819460   6.197   5.701   7.653  0.0625  0.7133 -0.0746
  172SOPE   H8R19461   6.180   5.794   7.711  0.4818  0.6954  0.0801
  172SOPE   H8S19462   6.188   5.739   7.549  1.5701 -1.3843 -1.0090
  172SOPE   C2919463   6.087   5.603   7.690 -0.3766 -0.1968 -0.4165
  172SOPE   H9119464   6.064   5.518   7.625 -0.6190 -1.4012  1.2058
  172SOPE  C21019465   6.013   5.609   7.806  0.0519 -0.2996  0.6922
  172SOPE  H10119466   5.950   5.521   7.825  0.2648 -0.5615  0.2045
  172SOPE  C21119467   6.006   5.706   7.918  0.0275 -0.3788  0.2117
  172SOPE  H11R19468   5.920   5.777   7.913 -0.2761 -0.8708 -1.7708
  172SOPE  H11S19469   6.099   5.766   7.928 -1.6166  1.8576  3.2275
  172SOPE  C21219470   5.995   5.645   8.066 -0.0129 -0.4665 -0.1817
  172SOPE  H12R19471   6.063   5.557   8.077  0.0077 -0.3576  0.6311
  172SOPE  H12S19472   5.890   5.611   8.083  1.1956 -3.2686  2.1262
  172SOPE  C21319473   6.044   5.753   8.170  0.3108  0.2447  0.0468
  172SOPE  H13R19474   6.149   5.788   8.168  1.0197 -1.1753  4.8315
  172SOPE  H13S19475   6.042   5.686   8.259 -1.7195 -1.4503 -1.2265
  172SOPE  C21419476   5.944   5.872   8.183  0.1987 -0.1463 -0.4414
  172SOPE  H14R19477   5.842   5.836   8.206  0.0002  0.6155 -0.1099
  172SOPE  H14S19478   5.933   5.935   8.091 -0.8970  0.5256  0.1431
  172SOPE  C21519479   5.986   5.979   8.286  0.1853  0.0674 -0.2674
  172SOPE  H15R19480   6.095   6.001   8.289  0.2144  0.2935 -2.0104
  172SOPE  H15S19481   5.957   5.946   8.388  0.4351  2.1864  0.4934
  172SOPE  C21619482   5.917   6.116   8.252  0.7427 -0.1998  0.2123
  172SOPE  H16R19483   5.821   6.091   8.201  1.5155 -0.5410 -1.0775
  172SOPE  H16S19484   5.985   6.168   8.181  1.5977 -0.8276  0.5636
  172SOPE  C21719485   5.898   6.211   8.377  0.3347 -0.0499  0.2821
  172SOPE  H17R19486   5.997   6.211   8.427  1.0078  0.6467 -1.0287
  172SOPE  H17S19487   5.819   6.181   8.450  0.5621  0.9192  0.9353
  172SOPE  C21819488   5.881   6.361   8.338 -0.3693  0.3201  0.4427
  172SOPE  H18R19489   5.879   6.428   8.426 -1.5745  0.4769  0.3110
  172SOPE  H18S19490   5.787   6.376   8.280  0.3892  1.1870 -0.5770
  172SOPE  H18T19491   5.966   6.388   8.272 -1.5599  0.2513 -1.1531
  172SOPE   C3319492   6.856   5.758   7.160  0.3734 -0.7816  0.2532
  172SOPE   H3X19493   6.900   5.656   7.155  0.3217 -0.8712  1.6568
  172SOPE   H3Y19494   6.748   5.752   7.138  0.4731 -1.8639 -0.0068
  172SOPE   C3419495   6.883   5.837   7.287  0.3829 -0.4256  0.4510
  172SOPE   H4X19496   6.841   5.940   7.277  2.9280  0.7534  1.4154
  172SOPE   H4Y19497   6.991   5.839   7.313  0.6885 -1.4827 -0.6899
  172SOPE   C3519498   6.815   5.776   7.410  0.0962 -0.0778 -0.0840
  172SOPE   H5X19499   6.840   5.668   7.420 -0.1116 -0.0852  0.3907
  172SOPE   H5Y19500   6.704   5.784   7.407  0.2215  1.8958 -0.1379
  172SOPE   C3619501   6.861   5.849   7.538 -0.1475  0.0231 -0.3061
  172SOPE   H6X19502   6.860   5.960   7.526  0.9088 -0.1260 -2.1331
  172SOPE   H6Y19503   6.970   5.830   7.551 -0.0110 -0.1114 -1.5612
  172SOPE   C3719504   6.782   5.810   7.670 -0.5035 -0.2403  0.0166
  172SOPE   H7X19505   6.796   5.701   7.686  0.4363 -0.3513 -1.3875
  172SOPE   H7Y19506   6.677   5.839   7.651  0.0507  2.0476  0.2511
  172SOPE   C3819507   6.824   5.895   7.795 -0.0431 -0.3778  0.2907
  172SOPE   H8X19508   6.843   6.000   7.763  0.8400 -0.7278 -0.3411
  172SOPE   H8Y19509   6.910   5.851   7.850  0.0236  0.1946  0.6500
  172SOPE   C3919510   6.699   5.897   7.898 -0.3244  0.1721  1.2934
  172SOPE   H9X19511   6.606   5.914   7.839  0.3209  1.5319  0.6476
  172SOPE   H9Y19512   6.735   5.972   7.972  0.2288 -0.1168  1.3206
  172SOPE  C31019513   6.690   5.761   7.974  0.7391  0.2782  0.0069
  172SOPE  H10X19514   6.780   5.754   8.040 -0.1415  1.4735  1.3716
  172SOPE  H10Y19515   6.705   5.676   7.904  1.0483  2.2032 -2.3110
  172SOPE  C31119516   6.555   5.743   8.039  0.9280 -0.5374  0.2435
  172SOPE  H11X19517   6.478   5.767   7.963  2.2517  1.2864 -0.5626
  172SOPE  H11Y19518   6.532   5.813   8.123 -0.7860  1.0493 -1.4918
  172SOPE  C31219519   6.538   5.597   8.096 -0.2219  0.3184  0.6798
  172SOPE  H12X19520   6.545   5.539   8.002  3.1704 -1.1275  1.7398
  172SOPE  H12Y19521   6.442   5.599   8.153  0.3717 -0.0215  1.6979
  172SOPE  C31319522   6.643   5.553   8.195  0.7526 -0.5172 -0.2065
  172SOPE  H13X19523   6.743   5.587   8.161  1.8810 -0.7346  2.7514
  172SOPE  H13Y19524   6.631   5.442   8.194 -0.2982 -0.3990 -1.0527
  172SOPE  C31419525   6.622   5.596   8.337 -0.5515 -0.4791 -0.1747
  172SOPE  H14X19526   6.520   5.565   8.370 -1.3609  1.9231 -0.3005
  172SOPE  H14Y19527   6.609   5.706   8.332 -0.0568 -0.4921 -2.0054
  172SOPE  C31519528   6.737   5.538   8.415  0.3599 -0.1900  0.0156
  172SOPE  H15X19529   6.833   5.566   8.367  0.9262 -1.8164  0.1806
  172SOPE  H15Y19530   6.725   5.428   8.407 -0.6830  0.0121 -1.2563
  172SOPE  C31619531   6.736   5.578   8.566  0.0542  0.1118 -0.3748
  172SOPE  H16X19532   6.640   5.550   8.613  1.0007  1.3524  2.4477
  172SOPE  H16Y19533   6.736   5.688   8.581 -0.2089 -0.1985  2.0364
  172SOPE  C31719534   6.863   5.521   8.641  0.3867  0.0444  0.0743
  172SOPE  H17X19535   6.849   5.534   8.751 -1.2987  0.6185 -0.1793
  172SOPE  H17Y19536   6.947   5.588   8.613 -0.2721  0.6469 -0.4987
  172SOPE  C31819537   6.894   5.376   8.621 -0.3474 -0.4985  0.5337
  172SOPE  H18X19538   6.796   5.327   8.638 -0.7083  0.6425  1.9332
  172SOPE  H18Y19539   6.962   5.346   8.704  0.7619  0.3481 -0.0463
  172SOPE  H18Z19540   6.944   5.362   8.523 -0.3915  2.3152  0.0489
  173SAPI   C1219541   1.921   3.110  11.120 -0.0481  0.1579  0.1992
  173SAPI    H219542   1.891   3.010  11.081 -3.7501  0.8918  0.9490
  173SAPI    O219543   1.809   3.197  11.088 -0.7933  0.4465 -0.0206
  173SAPI   HO219544   1.825   3.218  10.996 -2.4200  0.0926 -0.4048
  173SAPI   C1319545   1.953   3.098  11.266 -0.0927 -0.0370 -0.3071
  173SAPI    H319546   2.032   3.019  11.260  0.0841  0.1318 -0.2080
  173SAPI    O319547   1.853   3.036  11.347 -0.3412  0.0032 -0.5801
  173SAPI   HO319548   1.790   3.103  11.376 -2.3210 -1.9460 -0.2318
  173SAPI   C1419549   2.014   3.225  11.322  0.2450 -0.4640  0.7942
  173SAPI    H419550   1.943   3.310  11.324 -1.3026 -1.7471  2.0713
  173SAPI    O419551   2.055   3.200  11.456  0.0750  0.0936 -0.3620
  173SAPI   HO419552   2.111   3.123  11.466  0.8269  1.1345  4.2047
  173SAPI   C1519553   2.133   3.261  11.234  0.4318  0.2006 -0.1403
  173SAPI    H519554   2.218   3.190  11.241  0.9698  1.0349  2.3000
  173SAPI    O519555   2.185   3.387  11.281 -0.6929 -0.2038  0.9161
  173SAPI   HO519556   2.276   3.371  11.308 -0.6331  0.3324  1.0519
  173SAPI   C1619557   2.094   3.276  11.093 -0.4205 -0.2993  0.4112
  173SAPI    H619558   2.019   3.355  11.072  0.3707  0.1518 -0.7389
  173SAPI    O619559   2.209   3.319  11.012  0.5869 -0.4586  0.2587
  173SAPI   HO619560   2.260   3.243  10.982 -0.1349 -0.3337 -1.3591
  173SAPI   C1119561   2.045   3.150  11.044 -0.7304  0.1221  0.4889
  173SAPI    H119562   2.129   3.082  11.070 -0.0053  0.0066 -1.9577
  173SAPI     P19563   2.030   3.023  10.809 -0.4148  0.3558 -0.0959
  173SAPI   O1319564   1.898   2.973  10.759 -0.2881  0.5484  0.1773
  173SAPI   O1419565   2.120   2.929  10.877  0.1851 -0.3295 -0.0121
  173SAPI   O1219566   2.009   3.154  10.909 -0.0240  0.5195  0.5365
  173SAPI   O1119567   2.105   3.088  10.690 -0.4214 -0.1936  0.3203
  173SAPI    C119568   2.112   3.224  10.666 -0.4753  0.3815 -0.3637
  173SAPI    HA19569   2.012   3.271  10.678 -0.1789  0.5816  1.5387
  173SAPI    HB19570   2.185   3.265  10.739  0.4760  0.9453 -1.6279
  173SAPI    C219571   2.161   3.242  10.514  0.1799  0.1491 -0.0143
  173SAPI    HS19572   2.225   3.333  10.510 -0.1733  0.3475 -1.0832
  173SAPI   O2119573   2.050   3.234  10.422  0.1313  0.6990  0.7261
  173SAPI   C2119574   1.963   3.324  10.428  0.2174 -0.4075 -0.8778
  173SAPI   O2219575   1.977   3.435  10.483 -0.0896  0.4367  0.1217
  173SAPI   C2219576   1.833   3.274  10.360 -0.5748 -0.0113 -0.6628
  173SAPI   H2R19577   1.839   3.165  10.338 -3.2391 -0.4791  0.8284
  173SAPI   H2S19578   1.763   3.279  10.446  0.7884 -1.7409  0.5857
  173SAPI    C319579   2.268   3.140  10.478  0.5766 -0.0053  0.0128
  173SAPI    HX19580   2.217   3.042  10.465 -2.5625  1.6296 -0.3571
  173SAPI    HY19581   2.322   3.120  10.573 -0.8245 -1.0568  0.6034
  173SAPI   O3119582   2.350   3.169  10.355 -0.2109  0.7639  0.1552
  173SAPI   C3119583   2.480   3.151  10.369 -0.0095 -0.5099 -0.4469
  173SAPI   O3219584   2.530   3.106  10.469  0.1753  0.1447  0.1643
  173SAPI   C3219585   2.553   3.202  10.248  0.2862 -0.7529 -0.1414
  173SAPI   H2X19586   2.660   3.178  10.270 -0.0851 -1.5349  0.8365
  173SAPI   H2Y19587   2.552   3.312  10.255  1.4964 -0.7305 -0.2033
  173SAPI   C2319588   1.798   3.367  10.239  0.1991  0.3070 -0.1303
  173SAPI   H3R19589   1.877   3.356  10.161  0.9602  1.0031  0.5298
  173SAPI   H3S19590   1.810   3.473  10.270  0.3619  0.7833 -1.7539
  173SAPI   C2419591   1.659   3.367  10.190 -0.9123 -0.2060 -0.4005
  173SAPI   H4R19592   1.664   3.466  10.139 -0.8922 -0.3796 -0.7340
  173SAPI   H4S19593   1.591   3.392  10.274 -1.0647 -0.4329 -0.4561
  173SAPI   C2519594   1.611   3.237  10.128 -0.4243 -0.1659  1.3001
  173SAPI   H5R19595   1.595   3.155  10.200 -1.5461 -0.4660  0.7199
  173SAPI   C2619596   1.575   3.212   9.997 -0.3758  0.1706  0.7622
  173SAPI   H6R19597   1.529   3.116   9.968 -1.5199  0.9981 -0.2151
  173SAPI   C2719598   1.570   3.318   9.894 -0.3410 -0.0749 -0.0920
  173SAPI   H7R19599   1.672   3.327   9.849  0.8611 -2.0504  2.1381
  173SAPI   H7S19600   1.553   3.420   9.934  1.3733 -0.4434  1.6671
  173SAPI   C2819601   1.479   3.296   9.782  0.1104 -1.1073  0.2454
  173SAPI   H8R19602   1.397   3.370   9.780  0.9181 -0.1328  1.6762
  173SAPI   C2919603   1.479   3.197   9.691 -0.2443 -0.1422  0.1336
  173SAPI   H9R19604   1.410   3.194   9.606  1.4696 -1.3439 -1.2553
  173SAPI  C21019605   1.582   3.084   9.681 -0.1359 -0.2785 -0.0594
  173SAPI  H10R19606   1.581   3.043   9.784 -0.8798  0.3175  0.1778
  173SAPI  H10S19607   1.678   3.130   9.651  0.4052  0.2792  2.4504
  173SAPI  C21119608   1.559   2.974   9.582  0.3423 -0.4802  0.4154
  173SAPI  H11R19609   1.519   3.018   9.489  0.4316  0.7397  0.9401
  173SAPI  C21219610   1.578   2.842   9.601  0.0680  0.7948 -0.1461
  173SAPI  H12R19611   1.545   2.769   9.525 -0.7166 -0.3377  1.2521
  173SAPI  C21319612   1.636   2.780   9.728 -0.6943 -0.2036 -0.2279
  173SAPI  H13R19613   1.701   2.855   9.779 -2.8984  1.9714 -0.5349
  173SAPI  H13S19614   1.714   2.704   9.706 -0.3959  0.0610 -0.0894
  173SAPI  C21419615   1.512   2.731   9.805 -0.2556  0.5755  0.3675
  173SAPI  H14R19616   1.443   2.681   9.735 -1.0692  1.5786  0.4335
  173SAPI  C21519617   1.486   2.751   9.934  0.1656 -0.2760 -0.1054
  173SAPI  H15R19618   1.398   2.701   9.977  0.6294  0.0436  1.2436
  173SAPI  C21619619   1.574   2.823  10.033  0.1460 -0.3613  0.4675
  173SAPI  H16R19620   1.587   2.928   9.998  1.3965  0.2485  2.6988
  173SAPI  H16S19621   1.679   2.786  10.026  0.3387  0.6962 -4.5560
  173SAPI  C21719622   1.515   2.825  10.175 -0.1354  0.0727  0.2892
  173SAPI  H17R19623   1.419   2.879  10.188  1.1902  1.8338  3.5007
  173SAPI  H17S19624   1.594   2.889  10.222  0.0118 -0.1009  0.2804
  173SAPI  C21819625   1.506   2.685  10.224 -0.2952 -0.0159 -0.0983
  173SAPI  H18R19626   1.587   2.618  10.189  1.5723  1.6135  0.9924
  173SAPI  H18S19627   1.413   2.634  10.189 -0.5482  0.3812 -0.0096
  173SAPI  C21919628   1.490   2.670  10.374  0.2885  0.8103  0.4816
  173SAPI  H19R19629   1.402   2.724  10.414  2.0015  2.2638  2.4319
  173SAPI  H19S19630   1.581   2.713  10.421 -0.2037  1.9975  0.3728
  173SAPI  C22019631   1.472   2.523  10.403 -0.6549  0.1470  0.5327
  173SAPI  H20R19632   1.550   2.464  10.351 -0.5468 -0.1420  1.0259
  173SAPI  H20S19633   1.377   2.474  10.371 -1.3867  1.2453  0.9796
  173SAPI  H20T19634   1.483   2.504  10.512  1.3397 -1.0912  0.1433
  173SAPI   C3319635   2.524   3.144  10.104 -0.1261 -0.0893  0.1445
  173SAPI   H3X19636   2.445   3.200  10.050  0.4808  0.4652 -0.1785
  173SAPI   H3Y19637   2.490   3.038  10.106  0.3535 -0.2380  0.7322
  173SAPI   C3419638   2.653   3.148  10.016 -1.0746 -0.6815  0.0868
  173SAPI   H4X19639   2.745   3.123  10.072 -1.1482 -2.3010 -0.4849
  173SAPI   H4Y19640   2.666   3.254   9.985 -0.3374  0.1442  3.0676
  173SAPI   C3519641   2.666   3.060   9.893  0.7497 -0.2385 -0.3576
  173SAPI   H5X19642   2.610   2.967   9.920  1.3464 -0.5204 -0.0730
  173SAPI   H5Y19643   2.769   3.031   9.861  1.2819  2.7207 -1.4479
  173SAPI   C3619644   2.609   3.123   9.764 -0.1258 -0.6211  1.0123
  173SAPI   H6X19645   2.657   3.222   9.748 -2.3671  0.2969 -0.3328
  173SAPI   H6Y19646   2.500   3.131   9.784 -0.2781  0.6405 -0.2333
  173SAPI   C3719647   2.625   3.040   9.631 -0.3529 -1.1260 -0.0058
  173SAPI   H7X19648   2.598   2.935   9.658  0.9144 -2.0963 -2.4313
  173SAPI   H7Y19649   2.735   3.041   9.618 -0.3359 -2.6385 -0.0749
  173SAPI   C3819650   2.558   3.103   9.509  0.2264  0.1383  0.0764
  173SAPI   H8X19651   2.449   3.107   9.529 -0.0668  1.1573 -1.6211
  173SAPI   H8Y19652   2.574   3.036   9.422 -0.3706 -0.1201  0.1658
  173SAPI   C3919653   2.585   3.253   9.483  0.1178 -0.4338  0.5203
  173SAPI   H9X19654   2.695   3.262   9.491  0.2236 -0.2938 -0.9874
  173SAPI   H9Y19655   2.554   3.318   9.568 -1.2600 -1.5839  0.9121
  173SAPI  C31019656   2.544   3.310   9.343 -0.1308 -0.0505 -1.2499
  173SAPI  H10X19657   2.594   3.242   9.271 -0.3819 -1.4735 -0.1092
  173SAPI  H10Y19658   2.597   3.408   9.345  0.2214 -0.2245 -1.9677
  173SAPI  C31119659   2.399   3.348   9.311  0.0368 -0.1842 -0.2148
  173SAPI  H11X19660   2.356   3.394   9.403 -2.9941 -1.9462 -0.7293
  173SAPI  H11Y19661   2.333   3.259   9.305  1.0596 -1.0494  1.0645
  173SAPI  C31219662   2.382   3.448   9.195  0.4568  0.7530  0.2708
  173SAPI  H12X19663   2.465   3.521   9.198  0.3798  0.8987 -0.8881
  173SAPI  H12Y19664   2.290   3.500   9.227  0.2921 -0.4898  1.8673
  173SAPI  C31319665   2.370   3.384   9.058  0.4030 -0.5058  0.2974
  173SAPI  H13X19666   2.289   3.308   9.061  2.0322 -2.2448  2.6789
  173SAPI  H13Y19667   2.463   3.324   9.055 -0.2676 -1.6084  0.9237
  173SAPI  C31419668   2.377   3.499   8.954 -0.2350 -0.5666  0.4901
  173SAPI  H14X19669   2.471   3.556   8.969  0.2191 -1.5879  1.7092
  173SAPI  H14Y19670   2.306   3.579   8.983 -0.0614 -0.8211  1.6266
  173SAPI  C31519671   2.358   3.434   8.816  0.5271  0.0953  0.3794
  173SAPI  H15X19672   2.272   3.364   8.818  1.1146 -0.6274  1.0446
  173SAPI  H15Y19673   2.454   3.379   8.799  0.8953 -0.0835  2.8651
  173SAPI  C31619674   2.340   3.528   8.692  1.1929  0.2764 -1.3857
  173SAPI  H16X19675   2.422   3.603   8.697  1.6672 -0.1935 -2.1410
  173SAPI  H16Y19676   2.245   3.585   8.706  1.5710  0.3137  1.1717
  173SAPI  C31719677   2.323   3.447   8.566 -0.3689  0.5501 -0.2545
  173SAPI  H17X19678   2.227   3.391   8.568  0.5241 -0.9984  0.0278
  173SAPI  H17Y19679   2.397   3.364   8.562 -1.7239 -0.7461  0.5419
  173SAPI  C31819680   2.339   3.526   8.439 -0.6932 -0.2858 -0.3847
  173SAPI  H18X19681   2.304   3.471   8.349  0.6122 -0.9822 -0.4686
  173SAPI  H18Y19682   2.442   3.565   8.427 -0.2716 -1.6394 -1.2198
  173SAPI  H18Z19683   2.279   3.618   8.455  1.1220  1.3455 -2.5922
  174SAPI   C1219684   5.180   4.018  10.820 -0.4428 -0.3405  0.4362
  174SAPI    H219685   5.194   4.117  10.772  1.2154 -1.2415 -1.0504
  174SAPI    O219686   5.098   3.946  10.730  0.4355  0.4450 -0.1271
  174SAPI   HO219687   5.138   3.948  10.643  2.3026 -0.7478  0.6599
  174SAPI   C1319688   5.313   3.960  10.822  0.1919  0.5738 -0.5618
  174SAPI    H319689   5.373   4.015  10.897 -0.0663 -0.0134  0.0754
  174SAPI    O319690   5.379   3.962  10.699  0.7467 -0.0851  0.6051
  174SAPI   HO319691   5.468   3.998  10.704  0.3165  0.8216  1.9298
  174SAPI   C1419692   5.303   3.818  10.870 -0.1216  0.0277  0.3599
  174SAPI    H419693   5.239   3.755  10.805  1.7040 -0.6963 -0.7586
  174SAPI    O419694   5.428   3.759  10.878  0.0066 -0.2022 -0.4802
  174SAPI   HO419695   5.416   3.683  10.935  1.6057  0.8069  1.2644
  174SAPI   C1519696   5.248   3.821  11.011 -0.4812  0.6312 -0.0627
  174SAPI    H519697   5.317   3.884  11.071  1.0449  0.0416 -1.1720
  174SAPI    O519698   5.239   3.686  11.065  0.1581 -0.2714  0.0000
  174SAPI   HO519699   5.283   3.688  11.150 -0.4537 -0.0683  0.3130
  174SAPI   C1619700   5.111   3.892  11.023 -0.0663 -0.0177  0.0090
  174SAPI    H619701   5.042   3.829  10.962 -0.1748 -1.5044  1.6394
  174SAPI    O619702   5.058   3.898  11.154 -0.0681 -0.3493 -0.1877
  174SAPI   HO619703   5.006   3.979  11.157 -1.1122 -0.9444 -1.5309
  174SAPI   C1119704   5.128   4.035  10.961 -0.2020 -0.0218 -0.4099
  174SAPI    H119705   5.207   4.088  11.018 -1.4665  1.1536  0.3024
  174SAPI     P19706   4.981   4.263  10.952  0.1094 -0.6683 -0.5258
  174SAPI   O1319707   5.071   4.328  11.055  0.8557 -0.1654  0.4075
  174SAPI   O1419708   4.837   4.296  10.965  0.9448  0.5368 -0.5371
  174SAPI   O1219709   5.002   4.098  10.966 -0.0666 -0.1637 -0.4196
  174SAPI   O1119710   5.033   4.301  10.804  0.3218 -0.0348 -0.3151
  174SAPI    C119711   4.951   4.261  10.697  0.1563  0.2148  0.4420
  174SAPI    HA19712   4.969   4.153  10.683  1.1762  0.5716 -1.0857
  174SAPI    HB19713   4.841   4.269  10.713 -0.1271 -3.6210  0.7741
  174SAPI    C219714   4.971   4.337  10.565  0.2347 -0.8639  0.2514
  174SAPI    HS19715   4.917   4.272  10.493  1.9530 -2.0789  0.0397
  174SAPI   O2119716   5.110   4.348  10.529  0.6236 -0.2196  0.2500
  174SAPI   C2119717   5.165   4.238  10.483  0.0226 -0.5807 -0.4804
  174SAPI   O2219718   5.103   4.137  10.464  0.2460  0.5155 -0.2857
  174SAPI   C2219719   5.323   4.252  10.486  0.1530  0.3239  0.0687
  174SAPI   H2R19720   5.343   4.349  10.538  1.2379 -0.8167  1.8412
  174SAPI   H2S19721   5.366   4.179  10.558 -0.0104 -0.3048 -0.4694
  174SAPI    C319722   4.902   4.478  10.570 -0.9517  0.3948  0.6901
  174SAPI    HX19723   4.972   4.537  10.632  1.6944 -0.6569 -1.1576
  174SAPI    HY19724   4.803   4.474  10.619 -0.2772 -0.2252  2.0423
  174SAPI   O3119725   4.884   4.521  10.436 -0.4739 -0.1760 -0.0780
  174SAPI   C3119726   4.945   4.617  10.380 -0.1722 -0.0159  0.4786
  174SAPI   O3219727   5.027   4.696  10.431  0.1822  0.4609 -0.5327
  174SAPI   C3219728   4.891   4.636  10.236 -0.1207  0.4261 -0.2720
  174SAPI   H2X19729   4.780   4.630  10.232 -0.3700  4.2100 -0.5364
  174SAPI   H2Y19730   4.928   4.544  10.185 -0.0623 -0.8068  1.9262
  174SAPI   C2319731   5.384   4.245  10.346  0.2440 -0.0432 -0.5313
  174SAPI   H3R19732   5.334   4.174  10.277  0.0317 -0.2174 -0.2016
  174SAPI   H3S19733   5.491   4.212  10.340 -0.0453 -0.7436 -2.2543
  174SAPI   C2419734   5.387   4.396  10.297  0.0151  0.4561 -0.4067
  174SAPI   H4R19735   5.451   4.452  10.368  1.7501 -1.2009 -0.6148
  174SAPI   H4S19736   5.281   4.430  10.307 -0.3242 -0.3601 -1.1595
  174SAPI   C2519737   5.423   4.388  10.148  0.1643  0.0053 -0.5067
  174SAPI   H5R19738   5.517   4.335  10.128 -0.9665 -1.6912 -1.4023
  174SAPI   C2619739   5.368   4.449  10.045 -0.0562  0.7661  0.3798
  174SAPI   H6R19740   5.419   4.439   9.948 -0.4976  1.9270  0.0115
  174SAPI   C2719741   5.241   4.530  10.030 -0.0854  0.7942 -0.1538
  174SAPI   H7R19742   5.214   4.584  10.123 -0.8876 -3.5273  2.2542
  174SAPI   H7S19743   5.163   4.456  10.002 -0.9583  1.7092 -0.1613
  174SAPI   C2819744   5.268   4.632   9.924 -0.3330 -0.5166 -0.9622
  174SAPI   H8R19745   5.353   4.696   9.949 -2.0769  1.2026  0.6560
  174SAPI   C2919746   5.198   4.652   9.808 -0.4834  0.7205 -0.3657
  174SAPI   H9R19747   5.243   4.724   9.738  0.3763  1.0027  0.4728
  174SAPI  C21019748   5.079   4.570   9.756 -0.5962  0.4256  0.5328
  174SAPI  H10R19749   4.998   4.640   9.727 -0.7354 -0.1833 -0.5761
  174SAPI  H10S19750   5.031   4.515   9.839  0.4696 -0.6844  0.4470
  174SAPI  C21119751   5.133   4.487   9.647  0.2976 -0.5973 -0.1080
  174SAPI  H11R19752   5.200   4.407   9.683  0.2998 -0.7747 -0.5068
  174SAPI  C21219753   5.113   4.515   9.518 -0.5252 -0.7103  0.6935
  174SAPI  H12R19754   5.159   4.456   9.437  1.0290  0.7273  0.5102
  174SAPI  C21319755   5.021   4.623   9.447  0.1462 -0.6765  0.6362
  174SAPI  H13R19756   4.938   4.651   9.514  0.2074 -0.2994  0.5541
  174SAPI  H13S19757   4.987   4.577   9.352 -2.7197  0.0413  1.2718
  174SAPI  C21419758   5.103   4.752   9.430 -0.2383 -0.1319  0.8674
  174SAPI  H14R19759   5.171   4.755   9.517  1.6117 -3.8702 -0.3501
  174SAPI  C21519760   5.104   4.854   9.331  0.1552 -0.1817 -0.4087
  174SAPI  H15R19761   5.190   4.922   9.338 -1.2006  1.5635 -0.4598
  174SAPI  C21619762   5.019   4.865   9.208  0.0188 -0.1668  0.2803
  174SAPI  H16R19763   4.922   4.911   9.237  0.0868  1.8085 -2.4543
  174SAPI  H16S19764   4.996   4.772   9.152  2.2261 -0.2861 -0.4826
  174SAPI  C21719765   5.087   4.961   9.105  0.8501  0.3203 -0.2739
  174SAPI  H17R19766   5.196   4.950   9.088  1.1778  1.8974  0.7285
  174SAPI  H17S19767   5.078   5.061   9.151 -1.7201 -0.6321  1.4207
  174SAPI  C21819768   5.022   4.955   8.962  0.0280 -0.7413  0.3637
  174SAPI  H18R19769   4.923   4.912   8.989 -0.0108  0.9058  3.0523
  174SAPI  H18S19770   5.066   4.882   8.891  2.2732  1.8221 -0.9672
  174SAPI  C21919771   4.990   5.094   8.899  0.3571  0.6020 -0.2396
  174SAPI  H19R19772   5.089   5.144   8.888  0.9296 -0.5076 -0.2598
  174SAPI  H19S19773   4.930   5.154   8.970 -0.1204 -0.7903  0.5547
  174SAPI  C22019774   4.927   5.084   8.762  0.0280 -0.0115 -0.6354
  174SAPI  H20R19775   4.902   5.191   8.740 -2.3402 -0.4150 -0.0965
  174SAPI  H20S19776   4.831   5.028   8.762  0.5585 -1.0734  3.7575
  174SAPI  H20T19777   5.000   5.054   8.684 -0.3028  2.6109 -2.0187
  174SAPI   C3319778   4.947   4.757  10.151 -0.0603 -0.8733 -0.1819
  174SAPI   H3X19779   4.973   4.722  10.049  0.3284  0.7180 -0.6415
  174SAPI   H3Y19780   5.046   4.788  10.189 -0.9126  0.8913  0.6571
  174SAPI   C3419781   4.855   4.878  10.137  0.0739  0.4313  1.2422
  174SAPI   H4X19782   4.922   4.966  10.127 -0.3938  0.6853  0.3358
  174SAPI   H4Y19783   4.830   4.900  10.243 -0.2615  0.8208  1.0827
  174SAPI   C3519784   4.738   4.889  10.041 -0.7095  0.2034  0.8991
  174SAPI   H5X19785   4.672   4.975  10.064 -2.3819 -0.8215  0.0102
  174SAPI   H5Y19786   4.678   4.795  10.040 -0.8990  0.3161 -1.5185
  174SAPI   C3619787   4.782   4.910   9.892 -0.2154 -0.2390  0.4469
  174SAPI   H6X19788   4.824   4.812   9.861  0.1623  0.2575 -0.6469
  174SAPI   H6Y19789   4.872   4.975   9.880 -1.2769  1.0142 -1.0318
  174SAPI   C3719790   4.669   4.953   9.794  0.6851 -0.7763  1.0742
  174SAPI   H7X19791   4.639   5.059   9.808 -1.6714 -1.2490 -0.2192
  174SAPI   H7Y19792   4.581   4.889   9.818 -0.2339  0.4257  0.9385
  174SAPI   C3819793   4.720   4.930   9.646 -0.3107 -0.3501  1.1609
  174SAPI   H8X19794   4.758   4.827   9.630  2.6344  0.7509  0.7396
  174SAPI   H8Y19795   4.799   5.001   9.615 -2.0910  0.9244 -0.6181
  174SAPI   C3919796   4.607   4.943   9.552  0.7472  0.4551 -0.5278
  174SAPI   H9X19797   4.534   5.026   9.568 -1.0356 -1.3568  0.9467
  174SAPI   H9Y19798   4.536   4.859   9.562  0.8431  0.4296 -0.0308
  174SAPI  C31019799   4.658   4.951   9.406  1.0275  0.2887  0.4191
  174SAPI  H10X19800   4.727   4.867   9.386  0.5102 -0.0183 -0.0844
  174SAPI  H10Y19801   4.712   5.043   9.375 -1.4069  0.7928 -2.5554
  174SAPI  C31119802   4.539   4.934   9.308  0.5921 -0.8197  0.4669
  174SAPI  H11X19803   4.454   4.993   9.349  0.2687 -0.9249 -0.0478
  174SAPI  H11Y19804   4.514   4.826   9.310 -1.8270 -0.3343 -1.2034
  174SAPI  C31219805   4.577   4.959   9.162  0.2414  0.0287 -0.1053
  174SAPI  H12X19806   4.659   4.891   9.131 -0.5415 -0.4227 -1.2318
  174SAPI  H12Y19807   4.599   5.067   9.150 -2.0331  0.0567 -5.9057
  174SAPI  C31319808   4.455   4.925   9.077  0.0680  0.4806 -0.2069
  174SAPI  H13X19809   4.368   4.963   9.133  0.1369 -0.5980  0.6441
  174SAPI  H13Y19810   4.438   4.815   9.075 -0.1838  0.5171  0.0285
  174SAPI  C31419811   4.484   4.966   8.924  0.3562 -0.7586  0.1680
  174SAPI  H14X19812   4.581   4.931   8.883  0.2462  0.0103 -0.7694
  174SAPI  H14Y19813   4.497   5.076   8.934  3.9113 -1.1177 -0.0823
  174SAPI  C31519814   4.360   4.933   8.836  0.9740 -0.0589  0.6309
  174SAPI  H15X19815   4.265   4.969   8.879 -0.2506 -2.3208 -0.1083
  174SAPI  H15Y19816   4.353   4.823   8.821  0.2114  0.1438 -0.5840
  174SAPI  C31619817   4.392   4.983   8.691  0.0904 -0.3257 -0.4335
  174SAPI  H16X19818   4.466   4.914   8.646 -0.1468 -0.0047 -1.3479
  174SAPI  H16Y19819   4.424   5.089   8.700 -0.9472 -0.1406  1.1763
  174SAPI  C31719820   4.274   4.972   8.585 -0.7583  0.1976 -0.2563
  174SAPI  H17X19821   4.257   4.863   8.570  1.2014 -0.1342 -0.2776
  174SAPI  H17Y19822   4.318   5.010   8.490  2.6904  0.7166  1.4814
  174SAPI  C31819823   4.143   5.048   8.624 -0.0080 -0.6541  0.4024
  174SAPI  H18X19824   4.162   5.158   8.628 -0.5011 -0.6203  1.9459
  174SAPI  H18Y19825   4.099   5.017   8.721 -1.3781  0.1310  0.0437
  174SAPI  H18Z19826   4.061   5.028   8.552 -1.4039  2.2247  1.1124
  175SAPI   C1219827   1.213   2.040   6.030  0.5170  0.9031  0.4248
  175SAPI    H219828   1.293   2.109   6.064  0.1738  0.6346  1.8277
  175SAPI    O219829   1.130   2.107   5.933  0.3072  0.0168  0.1894
  175SAPI   HO219830   1.077   2.179   5.968 -2.8216 -1.9249 -0.3556
  175SAPI   C1319831   1.272   1.907   5.974  0.1374  0.3339 -0.5651
  175SAPI    H319832   1.332   1.864   6.057 -3.3065  3.5941  3.9056
  175SAPI    O319833   1.358   1.929   5.863  0.4355  0.1640  0.0885
  175SAPI   HO319834   1.446   1.955   5.892 -0.6283  2.2572  1.5530
  175SAPI   C1419835   1.156   1.806   5.940 -0.4449 -0.0653 -0.8572
  175SAPI    H419836   1.087   1.849   5.865  0.5144 -0.6720 -2.1184
  175SAPI    O419837   1.202   1.690   5.872 -0.0187  0.0398  0.8063
  175SAPI   HO419838   1.124   1.636   5.860  0.8201 -0.7325 -1.4331
  175SAPI   C1519839   1.073   1.769   6.060  0.6998 -0.2940 -0.4071
  175SAPI    H519840   1.138   1.716   6.133  0.1815  0.1413  0.3705
  175SAPI    O519841   0.961   1.692   6.030 -0.7396 -0.3248 -0.4857
  175SAPI   HO519842   0.922   1.667   6.114 -0.3605 -0.3202 -0.3049
  175SAPI   C1619843   1.025   1.899   6.123 -0.1710  0.2004 -0.5715
  175SAPI    H619844   0.957   1.953   6.054  1.2337  2.2551 -0.3926
  175SAPI    O619845   0.962   1.870   6.254 -0.0508 -0.4905 -0.3880
  175SAPI   HO619846   1.028   1.852   6.321  1.2758 -0.8336 -1.7520
  175SAPI   C1119847   1.134   2.006   6.154  0.0345 -0.0997  0.2022
  175SAPI    H119848   1.196   1.961   6.235  0.8809  0.4782 -0.1216
  175SAPI     P19849   1.159   2.213   6.315 -0.0231 -0.1390  0.3133
  175SAPI   O1319850   1.132   2.353   6.287  0.1865 -0.2146 -0.1592
  175SAPI   O1419851   1.304   2.173   6.310 -0.3159 -0.0398 -0.3318
  175SAPI   O1219852   1.066   2.128   6.200 -0.1168  0.7459  0.1338
  175SAPI   O1119853   1.115   2.172   6.461 -0.1690  0.6087  0.3046
  175SAPI    C119854   0.989   2.125   6.487  0.3634  0.8858 -0.1761
  175SAPI    HA19855   0.911   2.188   6.440  0.4660  1.6826  0.7202
  175SAPI    HB19856   0.974   2.021   6.451 -0.4596  1.1804 -0.6978
  175SAPI    C219857   0.951   2.126   6.637 -0.4577 -0.5775  0.1504
  175SAPI    HS19858   0.852   2.080   6.654 -0.3920 -0.9887 -0.5397
  175SAPI   O2119859   0.952   2.258   6.690  0.7334 -0.0566  0.3990
  175SAPI   C2119860   0.837   2.339   6.666 -0.0513 -0.3480  0.1191
  175SAPI   O2219861   0.742   2.298   6.607 -0.3278 -0.3533  0.9791
  175SAPI   C2219862   0.856   2.489   6.720 -0.1044 -0.1074  0.5535
  175SAPI   H2R19863   0.893   2.488   6.824 -0.7287  1.4850  0.8026
  175SAPI   H2S19864   0.930   2.542   6.656 -1.5012  0.3233 -0.7391
  175SAPI    C319865   1.045   2.040   6.729  0.3982 -0.5804 -0.4522
  175SAPI    HX19866   1.156   2.052   6.729  0.2596  0.7777 -0.2247
  175SAPI    HY19867   1.022   1.942   6.682 -1.2964 -0.2058 -0.4193
  175SAPI   O3119868   1.005   2.041   6.872  0.6171 -0.1481 -0.1890
  175SAPI   C3119869   0.999   1.927   6.933 -0.1719  0.3657  0.9666
  175SAPI   O3219870   1.035   1.823   6.882 -0.7877  0.6066  0.5866
  175SAPI   C3219871   0.946   1.945   7.072  0.1748  0.2817 -0.0087
  175SAPI   H2X19872   0.844   1.985   7.055 -0.0498 -0.5041 -0.5501
  175SAPI   H2Y19873   1.003   2.028   7.119 -0.0253 -0.9488  2.5329
  175SAPI   C2319874   0.723   2.569   6.713  0.8041 -0.8070 -0.2767
  175SAPI   H3R19875   0.672   2.569   6.614 -0.4514 -0.7061  0.3593
  175SAPI   H3S19876   0.755   2.675   6.728 -1.5279 -0.0839 -0.1154
  175SAPI   C2419877   0.628   2.550   6.841  0.1483  0.1080 -0.1572
  175SAPI   H4R19878   0.693   2.567   6.929 -0.3187 -1.5051  0.5086
  175SAPI   H4S19879   0.604   2.442   6.844 -0.2481  0.2504  2.2522
  175SAPI   C2519880   0.506   2.631   6.831 -0.6783  0.6784  0.0941
  175SAPI   H5R19881   0.495   2.668   6.728  2.3769 -2.1167 -1.3242
  175SAPI   C2619882   0.409   2.658   6.928  0.5890  0.1510  0.1529
  175SAPI   H6R19883   0.320   2.718   6.906  1.0377  0.9946  0.5890
  175SAPI   C2719884   0.415   2.614   7.071  0.0852  0.5758  0.6691
  175SAPI   H7R19885   0.399   2.701   7.138 -1.3379 -0.9890  2.4628
  175SAPI   H7S19886   0.512   2.569   7.102  0.0339  1.5474  2.3030
  175SAPI   C2819887   0.310   2.508   7.094  0.2110  0.0149  0.1986
  175SAPI   H8R19888   0.290   2.451   7.003  2.0640  0.4233 -0.4872
  175SAPI   C2919889   0.252   2.477   7.213 -0.7188  0.2653  0.1720
  175SAPI   H9R19890   0.179   2.395   7.222 -0.1151 -0.0084  3.4384
  175SAPI  C21019891   0.286   2.543   7.343  0.6428  0.3981 -0.3257
  175SAPI  H10R19892   0.217   2.629   7.361 -3.0821 -2.4525 -0.4171
  175SAPI  H10S19893   0.383   2.597   7.350 -0.0738  1.4863  1.4028
  175SAPI  C21119894   0.285   2.441   7.456  0.0215  0.3005  0.2625
  175SAPI  H11R19895   0.369   2.371   7.445 -0.5625  0.0547 -3.2094
  175SAPI  C21219896   0.185   2.426   7.548 -0.2123 -0.0370 -0.1832
  175SAPI  H12R19897   0.199   2.345   7.621  1.3947 -0.3046 -0.7648
  175SAPI  C21319898   0.059   2.508   7.554 -0.3334 -0.5768 -0.2442
  175SAPI  H13R19899   0.026   2.542   7.454  0.1073 -1.3097 -0.6411
  175SAPI  H13S19900   0.070   2.610   7.597 -2.6917 -0.6021  0.5353
  175SAPI  C21419901  -0.060   2.428   7.605  0.1961  0.4593 -0.5544
  175SAPI  H14R19902  -0.138   2.423   7.527 -0.0210  0.1894 -0.3170
  175SAPI  C21519903  -0.070   2.357   7.723 -0.9636  0.8744 -0.0539
  175SAPI  H15R19904  -0.162   2.297   7.736  0.9195 -1.9779  0.6937
  175SAPI  C21619905   0.027   2.357   7.841  0.1479 -0.6862  0.0986
  175SAPI  H16R19906   0.081   2.454   7.848 -1.3902 -0.0169  4.0920
  175SAPI  H16S19907   0.109   2.282   7.841  0.0977 -0.7471 -0.9871
  175SAPI  C21719908  -0.056   2.350   7.973  0.4766  0.2176 -0.1336
  175SAPI  H17R19909  -0.132   2.431   7.974  0.1579 -0.0501 -1.3596
  175SAPI  H17S19910   0.016   2.372   8.055  0.3744 -1.8560  0.5176
  175SAPI  C21819911  -0.130   2.216   7.993 -0.1350  0.4025 -1.0486
  175SAPI  H18R19912  -0.073   2.122   7.972  0.1570 -0.1394  1.9202
  175SAPI  H18S19913  -0.219   2.218   7.926 -0.9518  0.9598  0.0362
  175SAPI  C21919914  -0.186   2.193   8.133 -0.6896  0.4150 -0.2959
  175SAPI  H19R19915  -0.257   2.277   8.151  0.3003  1.2977 -0.4285
  175SAPI  H19S19916  -0.099   2.195   8.203  0.2017 -0.0069 -1.3908
  175SAPI  C22019917  -0.262   2.063   8.151  0.1726  0.1409  0.2507
  175SAPI  H20R19918  -0.197   1.977   8.124  0.6041  0.8353 -0.9039
  175SAPI  H20S19919  -0.350   2.066   8.083 -1.0585  0.0110  1.8095
  175SAPI  H20T19920  -0.298   2.045   8.255 -0.4927  1.4779  0.2517
  175SAPI   C3319921   0.914   1.812   7.158 -0.2835 -0.3797 -0.5651
  175SAPI   H3X19922   1.011   1.760   7.142 -0.4997 -1.1211  0.4745
  175SAPI   H3Y19923   0.820   1.761   7.130 -2.1796  1.9561  1.4019
  175SAPI   C3419924   0.925   1.840   7.313  0.0326  0.2731 -0.7928
  175SAPI   H4X19925   0.872   1.761   7.370  0.1115  2.1048  1.9090
  175SAPI   H4Y19926   0.879   1.938   7.336  1.2273  0.6058  0.2265
  175SAPI   C3519927   1.067   1.832   7.373 -0.1356 -0.4440 -0.0715
  175SAPI   H5X19928   1.130   1.894   7.307  0.1581  1.5447  1.9929
  175SAPI   H5Y19929   1.118   1.735   7.359 -1.4862 -1.1300 -0.3905
  175SAPI   C3619930   1.078   1.870   7.522 -0.6366  0.5464  0.1616
  175SAPI   H6X19931   1.036   1.798   7.595  0.6243 -0.2302  0.1335
  175SAPI   H6Y19932   1.016   1.961   7.533  0.9186  1.8509 -1.5152
  175SAPI   C3719933   1.224   1.892   7.558  0.2999 -0.1859  0.2322
  175SAPI   H7X19934   1.275   1.945   7.475  1.4682  0.5845  1.4137
  175SAPI   H7Y19935   1.277   1.795   7.548 -2.6780 -1.9289  0.7303
  175SAPI   C3819936   1.260   1.972   7.687 -0.3074 -0.3826  0.1529
  175SAPI   H8X19937   1.176   2.041   7.710  1.3596  1.7916 -0.1919
  175SAPI   H8Y19938   1.346   2.036   7.661 -0.1577 -0.1342  1.2474
  175SAPI   C3919939   1.313   1.886   7.807  0.1560 -0.2246  0.0995
  175SAPI   H9X19940   1.367   1.796   7.771  0.5107 -0.2887  0.7838
  175SAPI   H9Y19941   1.219   1.849   7.852  1.4996 -1.4216  1.9847
  175SAPI  C31019942   1.397   1.954   7.918  0.1907  0.2265  0.3800
  175SAPI  H10X19943   1.498   1.973   7.876 -0.4366 -1.1847 -1.8449
  175SAPI  H10Y19944   1.409   1.897   8.012  0.1617 -1.1643 -0.4491
  175SAPI  C31119945   1.325   2.089   7.956  0.1847  0.4642  0.5008
  175SAPI  H11X19946   1.228   2.066   8.005  0.1332 -2.9305 -1.0762
  175SAPI  H11Y19947   1.313   2.161   7.873  1.1630 -0.6649 -0.6233
  175SAPI  C31219948   1.423   2.154   8.048 -0.1494  0.4851 -0.4157
  175SAPI  H12X19949   1.522   2.176   8.001 -0.1165 -1.8305 -1.5030
  175SAPI  H12Y19950   1.449   2.087   8.132  1.4450 -0.0630 -1.3197
  175SAPI  C31319951   1.382   2.286   8.104 -0.2343  0.5493  0.1082
  175SAPI  H13X19952   1.289   2.265   8.161  0.5770  1.4167  1.7811
  175SAPI  H13Y19953   1.353   2.364   8.031  1.0041  1.8625  0.9820
  175SAPI  C31419954   1.492   2.330   8.207  0.1799  0.0153  0.5970
  175SAPI  H14X19955   1.577   2.371   8.148  2.1485 -1.4659  2.3153
  175SAPI  H14Y19956   1.540   2.236   8.241 -0.6725 -1.3045 -1.7827
  175SAPI  C31519957   1.451   2.428   8.315 -0.0457 -0.2739  0.1097
  175SAPI  H15X19958   1.419   2.525   8.271  1.5561  0.4315  0.4616
  175SAPI  H15Y19959   1.540   2.439   8.380 -0.1330 -1.8444  0.5215
  175SAPI  C31619960   1.339   2.388   8.412  0.4019  0.0394  0.7158
  175SAPI  H16X19961   1.255   2.386   8.340  3.4751  1.9409 -3.1045
  175SAPI  H16Y19962   1.334   2.475   8.481  2.6655  0.8751 -0.1394
  175SAPI  C31719963   1.375   2.257   8.485 -0.2691  0.1252  0.3591
  175SAPI  H17X19964   1.483   2.270   8.508  0.0363  0.9928 -1.5015
  175SAPI  H17Y19965   1.359   2.178   8.409  0.0198 -1.4566  1.9150
  175SAPI  C31819966   1.287   2.217   8.607  0.4006 -0.6073  0.3624
  175SAPI  H18X19967   1.181   2.247   8.591  0.8939  3.0478  3.2791
  175SAPI  H18Y19968   1.323   2.278   8.692  2.5889  1.3735 -1.8736
  175SAPI  H18Z19969   1.291   2.108   8.628  2.0101 -0.7513 -0.6193
  176SAPI   C1219970   0.296   0.898   6.249  0.2410 -0.6167 -0.0777
  176SAPI    H219971   0.366   0.980   6.274 -0.4175 -0.4112  1.0971
  176SAPI    O219972   0.246   0.946   6.129 -0.3750  0.3662  0.2963
  176SAPI   HO219973   0.240   1.040   6.143 -0.0461  0.3638  0.4549
  176SAPI   C1319974   0.374   0.766   6.243 -0.2462 -0.7857  0.1283
  176SAPI    H319975   0.387   0.734   6.349 -1.3469  0.7843  0.7642
  176SAPI    O319976   0.500   0.789   6.183  0.2383  0.2944 -0.0985
  176SAPI   HO319977   0.498   0.842   6.102 -0.4112  1.1741  0.4786
  176SAPI   C1419978   0.292   0.660   6.170 -0.2701  0.4111  0.2551
  176SAPI    H419979   0.276   0.693   6.065 -2.9914 -0.4750  0.3540
  176SAPI    O419980   0.364   0.539   6.154 -0.0671  0.0069  0.3307
  176SAPI   HO419981   0.417   0.550   6.075  0.4641  3.0323  1.0206
  176SAPI   C1519982   0.160   0.639   6.255  0.2194 -0.4924 -0.3748
  176SAPI    H519983   0.191   0.588   6.349 -0.9321 -1.7973 -0.6767
  176SAPI    O519984   0.075   0.540   6.203 -0.5289 -0.2643  0.5098
  176SAPI   HO519985   0.100   0.460   6.250 -0.6403 -1.4274 -1.3814
  176SAPI   C1619986   0.084   0.768   6.292 -0.3381  0.5127 -0.6391
  176SAPI    H619987   0.043   0.805   6.196  1.6144 -1.8085 -2.4325
  176SAPI    O619988  -0.021   0.747   6.388 -0.2865 -0.3677 -0.1105
  176SAPI   HO619989  -0.085   0.819   6.389  0.0718 -0.0464  2.0030
  176SAPI   C1119990   0.177   0.878   6.343 -0.2138 -0.1251  0.3448
  176SAPI    H119991   0.217   0.841   6.440  2.3649  1.8608  0.0853
  176SAPI     P19992   0.156   1.099   6.487  0.3953 -0.0253 -0.1393
  176SAPI   O1319993   0.123   1.239   6.444 -0.0494 -0.3334 -0.5262
  176SAPI   O1419994   0.291   1.076   6.532 -0.1649 -0.6490 -0.5271
  176SAPI   O1219995   0.119   1.004   6.363 -0.2123  0.5305 -0.2874
  176SAPI   O1119996   0.051   1.043   6.593  0.3943 -0.7346  0.2904
  176SAPI    C119997   0.082   0.934   6.679 -0.9260 -0.2337 -0.5288
  176SAPI    HA19998  -0.012   0.875   6.677 -0.8851 -0.5196  3.2110
  176SAPI    HB19999   0.162   0.864   6.649  0.0966  1.3398 -1.5727
  176SAPI    C220000   0.109   0.989   6.829  0.5696  0.8519  0.0228
  176SAPI    HS20001   0.125   0.909   6.905 -1.3997  0.7262  0.3304
  176SAPI   O2120002   0.005   1.082   6.871 -0.2043  0.3486 -0.3013
  176SAPI   C2120003  -0.100   1.018   6.926  0.3996 -0.5142  0.3244
  176SAPI   O2220004  -0.107   0.897   6.935 -0.3839  0.1061 -0.0272
  176SAPI   C2220005  -0.201   1.118   6.954  0.5981  0.1753  0.0821
  176SAPI   H2R20006  -0.192   1.203   6.882  0.1149 -0.8276 -1.1690
  176SAPI   H2S20007  -0.304   1.079   6.945  0.4822  0.0361  1.9115
  176SAPI    C320008   0.251   1.058   6.839  0.3595 -0.0304  0.3564
  176SAPI    HX20009   0.261   1.147   6.773  0.4649  0.9016  1.6030
  176SAPI    HY20010   0.320   0.977   6.807 -1.5201 -1.6723  0.3986
  176SAPI   O3120011   0.293   1.105   6.970 -0.4058  0.3192 -0.1921
  176SAPI   C3120012   0.417   1.147   6.984 -0.0758 -0.0669  0.2908
  176SAPI   O3220013   0.511   1.123   6.906 -0.1409 -0.1991 -0.1003
  176SAPI   C3220014   0.427   1.252   7.098  0.4518 -0.0099 -0.2548
  176SAPI   H2X20015   0.320   1.274   7.119  1.2456  1.3707  2.5709
  176SAPI   H2Y20016   0.483   1.339   7.059  0.6855  0.6952  1.6067
  176SAPI   C2320017  -0.170   1.181   7.092 -0.0479 -0.1761  0.1149
  176SAPI   H3R20018  -0.243   1.263   7.111  0.8699  0.6585  0.0949
  176SAPI   H3S20019  -0.068   1.226   7.092  0.3883 -1.1208 -1.0850
  176SAPI   C2420020  -0.176   1.076   7.204  0.3298 -0.0524 -0.1212
  176SAPI   H4R20021  -0.081   1.020   7.192  0.1904  0.1915 -2.6962
  176SAPI   H4S20022  -0.255   1.004   7.173  1.2703 -0.2986 -2.0387
  176SAPI   C2520023  -0.196   1.140   7.340  0.0426  0.4256  0.1779
  176SAPI   H5R20024  -0.107   1.196   7.374  0.4155 -0.6152  0.9330
  176SAPI   C2620025  -0.305   1.121   7.412 -0.0650 -0.5608  0.1633
  176SAPI   H6R20026  -0.293   1.157   7.515 -2.1018  2.4978 -0.5967
  176SAPI   C2720027  -0.421   1.029   7.381  0.3362 -0.4820 -0.1789
  176SAPI   H7R20028  -0.441   0.964   7.469 -0.9837  0.6584  0.3794
  176SAPI   H7S20029  -0.383   0.960   7.303 -0.6583 -1.7560  0.4609
  176SAPI   C2820030  -0.550   1.105   7.330  0.8243 -0.4262 -0.9086
  176SAPI   H8R20031  -0.531   1.207   7.293 -3.1292  0.8131  0.2121
  176SAPI   C2920032  -0.676   1.056   7.350  0.2143  0.2953  0.4328
  176SAPI   H9R20033  -0.765   1.107   7.308  1.5310  2.4199  0.1818
  176SAPI  C21020034  -0.706   0.919   7.411  0.4975 -1.0882  0.5080
  176SAPI  H10R20035  -0.628   0.878   7.479  1.8160  0.8066  0.1977
  176SAPI  H10S20036  -0.706   0.842   7.331 -0.1038 -1.2464  0.6565
  176SAPI  C21120037  -0.838   0.921   7.472 -0.4233 -1.2789  0.3317
  176SAPI  H11R20038  -0.926   0.931   7.407 -0.2834 -1.1234  0.1660
  176SAPI  C21220039  -0.863   0.913   7.606 -0.2681  0.3235 -0.7307
  176SAPI  H12R20040  -0.965   0.927   7.645  0.0324 -0.0615  0.1915
  176SAPI  C21320041  -0.755   0.911   7.711 -0.6863  0.4042 -0.1654
  176SAPI  H13R20042  -0.694   0.824   7.681 -0.4533  0.7330 -0.6618
  176SAPI  H13S20043  -0.801   0.889   7.809 -0.8023 -0.5694 -0.4364
  176SAPI  C21420044  -0.686   1.046   7.727  0.9943  0.1178  0.8729
  176SAPI  H14R20045  -0.689   1.105   7.635 -2.5404 -2.5481 -0.8468
  176SAPI  C21520046  -0.610   1.070   7.837 -0.4217 -0.2002 -0.6877
  176SAPI  H15R20047  -0.562   1.167   7.852 -0.5449 -0.2929  0.3461
  176SAPI  C21620048  -0.575   0.973   7.958  0.0730 -0.5917  0.4973
  176SAPI  H16R20049  -0.469   0.993   7.982 -0.4125  1.5936  0.9173
  176SAPI  H16S20050  -0.596   0.868   7.928 -1.6346  0.2676 -1.4915
  176SAPI  C21720051  -0.664   1.003   8.079  1.0724 -0.5581 -0.0569
  176SAPI  H17R20052  -0.768   0.987   8.046  1.9071 -2.5686 -1.8594
  176SAPI  H17S20053  -0.657   1.110   8.107 -1.9655  0.2053 -1.9698
  176SAPI  C21820054  -0.635   0.911   8.194 -0.2476 -0.3100 -0.5707
  176SAPI  H18R20055  -0.655   0.810   8.151  0.5783 -0.1957 -1.2461
  176SAPI  H18S20056  -0.713   0.932   8.270  1.8229  0.0760  1.4898
  176SAPI  C21920057  -0.490   0.923   8.256  0.3970  0.5540  0.3446
  176SAPI  H19R20058  -0.410   0.920   8.178  3.0335  2.5671  2.8447
  176SAPI  H19S20059  -0.472   0.837   8.324 -2.9065  0.8720  1.6813
  176SAPI  C22020060  -0.461   1.047   8.342  0.3511  0.7231 -0.4896
  176SAPI  H20R20061  -0.357   1.051   8.380  0.2190 -0.4316  0.0213
  176SAPI  H20S20062  -0.521   1.043   8.436  0.1092  0.0526 -0.6671
  176SAPI  H20T20063  -0.497   1.140   8.293  0.7876  1.4470  0.5427
  176SAPI   C3320064   0.480   1.191   7.230  0.4447  0.3811 -0.7364
  176SAPI   H3X20065   0.584   1.164   7.203  0.5629 -0.8521  0.8989
  176SAPI   H3Y20066   0.431   1.097   7.263  0.7901  0.0640 -1.1173
  176SAPI   C3420067   0.488   1.301   7.342 -0.0796 -0.3501 -0.0856
  176SAPI   H4X20068   0.398   1.362   7.318 -0.5689 -0.9340  0.2593
  176SAPI   H4Y20069   0.572   1.371   7.320  0.3674 -0.7705  0.2624
  176SAPI   C3520070   0.491   1.244   7.480  0.5404  0.1272 -0.1445
  176SAPI   H5X20071   0.583   1.184   7.499 -0.4513 -1.2719  0.3236
  176SAPI   H5Y20072   0.414   1.165   7.493  1.5961 -0.9897 -0.5672
  176SAPI   C3620073   0.492   1.355   7.586  0.1408  0.6711  0.7293
  176SAPI   H6X20074   0.401   1.416   7.567 -0.0529  0.6552  1.6020
  176SAPI   H6Y20075   0.587   1.411   7.597 -1.7561  3.5253  3.2747
  176SAPI   C3720076   0.473   1.304   7.734 -0.0723  0.2680 -0.4376
  176SAPI   H7X20077   0.551   1.227   7.755 -1.3447 -1.1092 -0.6670
  176SAPI   H7Y20078   0.372   1.258   7.732  0.2593 -0.4467 -3.6433
  176SAPI   C3820079   0.459   1.418   7.833 -0.0703 -0.4294 -0.3347
  176SAPI   H8X20080   0.376   1.480   7.792 -0.3562 -0.7710 -0.2739
  176SAPI   H8Y20081   0.553   1.476   7.836 -0.9807  0.9990  1.4185
  176SAPI   C3920082   0.405   1.375   7.973 -0.1545 -0.8422  0.8305
  176SAPI   H9X20083   0.467   1.285   7.993 -0.2582 -0.8920  0.9345
  176SAPI   H9Y20084   0.298   1.343   7.963 -0.1721 -1.7681  3.4595
  176SAPI  C31020085   0.410   1.486   8.081  0.8910 -0.2673 -0.5074
  176SAPI  H10X20086   0.354   1.566   8.028  0.6234  0.2945  0.6096
  176SAPI  H10Y20087   0.514   1.522   8.087  1.2902 -0.9326 -2.9543
  176SAPI  C31120088   0.356   1.434   8.213  0.0249  0.0685 -0.5309
  176SAPI  H11X20089   0.421   1.356   8.259 -0.5374 -0.0786  0.0334
  176SAPI  H11Y20090   0.247   1.411   8.209 -0.1708  1.3373 -3.7304
  176SAPI  C31220091   0.355   1.561   8.306 -0.3005 -0.4826  0.7025
  176SAPI  H12X20092   0.288   1.629   8.250 -0.2935 -0.7156  0.4108
  176SAPI  H12Y20093   0.463   1.588   8.306 -0.0417 -1.5089  0.7517
  176SAPI  C31320094   0.300   1.535   8.448 -0.1925 -0.2638  0.6860
  176SAPI  H13X20095   0.374   1.462   8.486  0.2218 -0.8793 -1.2247
  176SAPI  H13Y20096   0.202   1.484   8.441 -1.3189  2.0384 -1.5049
  176SAPI  C31420097   0.289   1.666   8.533  0.6095 -0.1005  0.2482
  176SAPI  H14X20098   0.284   1.631   8.638  0.6076  1.3024  0.7186
  176SAPI  H14Y20099   0.189   1.713   8.515 -0.0949 -1.5469  0.2714
  176SAPI  C31520100   0.401   1.767   8.536  0.2875 -0.3371  0.0179
  176SAPI  H15X20101   0.419   1.796   8.431 -3.1760  3.5983  0.4092
  176SAPI  H15Y20102   0.489   1.705   8.566 -0.5233 -0.3150  2.5826
  176SAPI  C31620103   0.374   1.877   8.643 -0.1925 -0.9393  0.0748
  176SAPI  H16X20104   0.300   1.846   8.720 -0.4176  0.7873  0.5716
  176SAPI  H16Y20105   0.328   1.966   8.596 -0.5642  0.8978  3.7193
  176SAPI  C31720106   0.496   1.920   8.715 -0.3814 -0.2147 -0.3028
  176SAPI  H17X20107   0.538   1.844   8.784 -1.4290 -1.1139 -0.6423
  176SAPI  H17Y20108   0.463   2.009   8.774  0.1259  0.2004 -0.6451
  176SAPI  C31820109   0.611   1.964   8.620  0.3405 -0.1211 -0.0929
  176SAPI  H18X20110   0.646   1.882   8.553 -0.3219 -0.8448  0.4339
  176SAPI  H18Y20111   0.701   1.995   8.678  0.9825  0.0632 -1.1888
  176SAPI  H18Z20112   0.567   2.039   8.552  0.9160  0.3379  0.0288
  177SLPC     N20113   0.393   4.745  11.127  0.4086  0.1927  0.5644
  177SLPC   C1320114   0.452   4.882  11.122 -0.3178  0.2135  0.6090
  177SLPC  H13A20115   0.490   4.912  11.218 -0.6924 -0.0714  0.8479
  177SLPC  H13B20116   0.521   4.884  11.039  0.1116 -0.4824  0.9531
  177SLPC  H13C20117   0.377   4.959  11.107 -2.2885 -1.4085  1.9031
  177SLPC   C1420118   0.277   4.746  11.217 -0.0438  0.0968  0.2310
  177SLPC  H14A20119   0.231   4.648  11.215  2.3129 -1.0450 -2.3764
  177SLPC  H14B20120   0.288   4.775  11.320  0.2220 -1.6106  0.7027
  177SLPC  H14C20121   0.210   4.811  11.163  2.0373  2.9064  0.9410
  177SLPC   C1520122   0.500   4.652  11.171  0.1121 -0.0003  0.0042
  177SLPC  H15A20123   0.594   4.666  11.119  0.8607  0.9288  1.5600
  177SLPC  H15B20124   0.528   4.685  11.270 -0.5433  0.5190  0.0142
  177SLPC  H15C20125   0.466   4.550  11.185  2.4099 -0.9537 -1.0288
  177SLPC   C1220126   0.350   4.695  10.989 -0.0557  0.4771 -0.9036
  177SLPC  H12A20127   0.320   4.592  10.996  1.2835  0.1663  0.4167
  177SLPC  H12B20128   0.440   4.702  10.930  1.0498 -1.3174  0.5435
  177SLPC   C1120129   0.226   4.768  10.920  0.5126  0.0301  0.3806
  177SLPC  H11A20130   0.227   4.750  10.811  0.3027 -0.7051  0.5044
  177SLPC  H11B20131   0.239   4.878  10.935  1.0251  0.0245 -0.0048
  177SLPC     P20132   0.022   4.600  10.961 -0.3872 -0.0931 -0.1786
  177SLPC   O1320133   0.080   4.495  11.050  0.4162  0.7719  0.1980
  177SLPC   O1420134  -0.124   4.627  10.960  0.6254  0.0956  0.3792
  177SLPC   O1220135   0.101   4.739  10.991  0.0874 -0.2774  0.3198
  177SLPC   O1120136   0.070   4.555  10.810  0.7605 -0.2603 -1.0523
  177SLPC    C120137  -0.001   4.602  10.697 -0.1194 -0.2209 -0.2467
  177SLPC    HA20138  -0.101   4.553  10.699 -1.3242  2.1123 -1.1417
  177SLPC    HB20139  -0.022   4.708  10.722  1.7919 -0.4971  2.7713
  177SLPC    C220140   0.076   4.597  10.567  0.8573 -0.0224 -0.1053
  177SLPC    HS20141   0.130   4.500  10.564  0.7478 -0.0899  0.0974
  177SLPC   O2120142   0.163   4.712  10.565 -0.1187  0.0735  0.4975
  177SLPC   C2120143   0.286   4.700  10.528  0.9313  0.5601 -0.1906
  177SLPC   O2220144   0.342   4.594  10.493 -0.4984 -0.1285  0.3790
  177SLPC   C2220145   0.346   4.840  10.523  0.0061  0.4017 -0.3866
  177SLPC   H2R20146   0.264   4.913  10.507  2.0837  2.6675 -1.0832
  177SLPC   H2S20147   0.387   4.859  10.625  0.1015 -0.2389 -0.3032
  177SLPC    C320148  -0.022   4.601  10.449 -1.1256 -0.0326  0.3794
  177SLPC    HX20149  -0.090   4.686  10.472 -0.9354  0.1351  0.3267
  177SLPC    HY20150  -0.075   4.504  10.457 -0.2152 -0.6764 -1.1226
  177SLPC   O3120151   0.036   4.607  10.321  0.2378  0.0690  0.1318
  177SLPC   C3120152  -0.052   4.649  10.227 -0.5390  0.3813  0.1905
  177SLPC   O3220153  -0.169   4.678  10.252  0.2999 -0.2135 -0.2920
  177SLPC   C3220154   0.012   4.670  10.089  0.0157  0.1393  0.1596
  177SLPC   H2X20155   0.073   4.581  10.060 -2.1503 -1.6831  1.0454
  177SLPC   H2Y20156   0.084   4.754  10.098  0.2814 -0.2272  1.5138
  177SLPC   C2320157   0.439   4.870  10.411  0.9868  0.0228 -0.3100
  177SLPC   H3R20158   0.514   4.790  10.392  1.1730 -0.2739  1.5339
  177SLPC   H3S20159   0.500   4.957  10.446 -0.8131  2.0863 -2.1808
  177SLPC   C2420160   0.374   4.893  10.277 -0.5259 -0.0300 -0.0439
  177SLPC   H4R20161   0.316   4.987  10.270  0.9722  0.8771 -0.5671
  177SLPC   H4S20162   0.316   4.801  10.255 -0.8885  0.0684  0.4975
  177SLPC   C2520163   0.480   4.909  10.171  0.3247  0.0126 -0.6856
  177SLPC   H5R20164   0.531   4.811  10.162  2.0640  0.7343  0.8271
  177SLPC   H5S20165   0.546   4.992  10.205  2.1711 -1.6517 -0.0664
  177SLPC   C2620166   0.430   4.927  10.026 -0.2232 -0.4942 -0.5885
  177SLPC   H6R20167   0.356   5.010  10.035  0.3221 -0.0615 -0.1094
  177SLPC   H6S20168   0.371   4.837   9.998  0.0479 -0.3833 -1.5384
  177SLPC   C2720169   0.546   4.946   9.931 -0.4617 -0.4988 -0.0866
  177SLPC   H7R20170   0.620   4.867   9.958 -1.0237 -2.1618 -3.1455
  177SLPC   H7S20171   0.600   5.036   9.966 -0.0212  0.1507 -2.3118
  177SLPC   C2820172   0.511   4.965   9.781  0.1832 -0.1724 -0.5986
  177SLPC   H8R20173   0.609   4.981   9.731  0.1837 -1.0899 -0.9120
  177SLPC   H8S20174   0.455   5.056   9.749  0.2124  0.7136  1.8118
  177SLPC   C2920175   0.457   4.848   9.713 -0.4875 -0.0749 -0.3217
  177SLPC   H9R20176   0.482   4.755   9.766 -0.4424 -0.0947 -0.3764
  177SLPC  C21020177   0.391   4.842   9.593 -0.0631  0.0668 -0.5052
  177SLPC  H10R20178   0.363   4.746   9.548  1.0629  0.1950 -1.5128
  177SLPC  C21120179   0.371   4.964   9.510  0.1213 -0.2221 -0.5022
  177SLPC  H11R20180   0.279   5.022   9.531  0.4993  1.6115 -3.5892
  177SLPC  H11S20181   0.447   5.044   9.524 -0.0992 -0.1688  0.4043
  177SLPC  C21220182   0.360   4.922   9.368  0.2395 -0.6576  0.8028
  177SLPC  H12R20183   0.264   4.884   9.332  0.4044  1.0141 -1.4857
  177SLPC  C21320184   0.459   4.949   9.275  0.1171 -0.1556 -0.1284
  177SLPC  H13R20185   0.445   4.917   9.171  0.2048  0.3870 -0.3043
  177SLPC  C21420186   0.593   5.016   9.292 -0.2976 -0.0381  0.5348
  177SLPC  H14R20187   0.592   5.086   9.378 -0.4324 -1.5488  1.8007
  177SLPC  H14S20188   0.627   5.073   9.203  0.3173  1.3643  1.6494
  177SLPC  C21520189   0.692   4.897   9.315 -0.5465  0.3154 -0.1215
  177SLPC  H15R20190   0.713   4.832   9.226  1.2730 -0.2534  0.6930
  177SLPC  H15S20191   0.660   4.820   9.388 -0.9979 -0.9117 -1.5823
  177SLPC  C21620192   0.829   4.939   9.360 -0.7223  0.5343 -0.2042
  177SLPC  H16R20193   0.835   4.990   9.459 -0.9369  2.1857 -1.0238
  177SLPC  H16S20194   0.882   5.006   9.289  0.1713 -1.5493 -1.5317
  177SLPC  C21720195   0.923   4.824   9.368  1.2060 -0.3197  0.1064
  177SLPC  H17R20196   0.914   4.766   9.274 -1.4490 -0.2679  0.3000
  177SLPC  H17S20197   0.893   4.743   9.438 -0.7188 -1.4789 -1.9976
  177SLPC  C21820198   1.069   4.847   9.392 -0.6392  0.2486  1.1545
  177SLPC  H18R20199   1.106   4.906   9.306 -0.0479 -0.5043  0.8836
  177SLPC  H18S20200   1.126   4.752   9.408  1.9625  1.2246 -1.7914
  177SLPC  H18T20201   1.075   4.914   9.480  2.7119  0.8129  0.5712
  177SLPC   C3320202  -0.086   4.699   9.970 -0.3352  0.1163 -0.5861
  177SLPC   H3X20203  -0.128   4.800   9.991 -0.4084 -0.4191  2.0540
  177SLPC   H3Y20204  -0.168   4.624   9.969  1.2240 -1.6206 -0.8421
  177SLPC   C3420205  -0.012   4.697   9.832 -0.2339 -0.0879 -0.0090
  177SLPC   H4X20206   0.051   4.606   9.825 -1.8880 -1.1244 -1.6220
  177SLPC   H4Y20207   0.052   4.787   9.820  0.7829 -0.5171  1.9231
  177SLPC   C3520208  -0.104   4.701   9.704 -0.3619  0.9179  0.5914
  177SLPC   H5X20209  -0.176   4.783   9.724 -2.0929 -0.2366 -0.7189
  177SLPC   H5Y20210  -0.167   4.610   9.696  0.3864  0.4508 -0.0775
  177SLPC   C3620211  -0.023   4.700   9.571  0.5279 -0.2346 -0.0248
  177SLPC   H6X20212   0.047   4.614   9.568 -0.4529 -1.1046  1.4005
  177SLPC   H6Y20213   0.047   4.783   9.550 -0.1119 -0.1001 -1.7287
  177SLPC   C3720214  -0.117   4.697   9.450  0.1778 -0.8508  0.0203
  177SLPC   H7X20215  -0.181   4.787   9.438  1.7083  0.5743  2.0975
  177SLPC   H7Y20216  -0.197   4.622   9.469  0.8312 -1.6071 -0.1532
  177SLPC   C3820217  -0.029   4.668   9.321 -0.1030  0.1724 -0.7421
  177SLPC   H8X20218   0.044   4.587   9.344  2.0502  2.4815  0.8089
  177SLPC   H8Y20219   0.035   4.757   9.303  0.2321  0.3374  1.0885
  177SLPC   C3920220  -0.115   4.609   9.207  0.0079  0.0148 -0.1302
  177SLPC   H9X20221  -0.199   4.553   9.254 -0.3953  2.6800  2.4950
  177SLPC   H9Y20222  -0.052   4.535   9.152  0.6129  0.0300  0.5303
  177SLPC  C31020223  -0.181   4.707   9.116  0.3853  0.1859 -0.7564
  177SLPC  H10X20224  -0.249   4.775   9.172  3.3986  0.3701  2.8265
  177SLPC  H10Y20225  -0.251   4.652   9.049 -1.3283  0.9314  0.3900
  177SLPC  C31120226  -0.081   4.791   9.028  0.9052 -0.3083  0.1530
  177SLPC  H11X20227  -0.009   4.835   9.101  0.0008  0.2552  0.7061
  177SLPC  H11Y20228  -0.131   4.884   8.995 -1.8573 -1.2547  1.5668
  177SLPC  C31220229  -0.017   4.704   8.921 -0.1949 -0.3295 -0.7883
  177SLPC  H12X20230  -0.092   4.639   8.871 -1.3327  0.0688  0.3682
  177SLPC  H12Y20231   0.060   4.634   8.958 -0.5735 -0.8914 -1.0511
  177SLPC  C31320232   0.054   4.790   8.816 -0.0301  0.1270  0.2035
  177SLPC  H13X20233  -0.022   4.849   8.760  0.7377  0.8682 -0.0586
  177SLPC  H13Y20234   0.107   4.726   8.743 -1.0501 -0.6742  0.1494
  177SLPC  C31420235   0.149   4.890   8.878  0.0171 -0.0603 -0.0410
  177SLPC  H14X20236   0.220   4.841   8.948  0.0788  1.8209  1.2338
  177SLPC  H14Y20237   0.086   4.958   8.939 -0.8659 -1.6307  0.8293
  177SLPC  C31520238   0.229   4.961   8.766  0.0648 -0.4517 -1.1503
  177SLPC  H15X20239   0.153   5.018   8.709  0.2156 -1.0093 -1.9112
  177SLPC  H15Y20240   0.272   4.890   8.692  0.6032 -2.2243  0.8075
  177SLPC  C31620241   0.328   5.053   8.837  0.1208 -0.4740 -0.9141
  177SLPC  H16X20242   0.386   5.117   8.767 -1.7719  1.6637 -0.5849
  177SLPC  H16Y20243   0.397   5.003   8.908 -0.6760 -1.5181 -0.8674
  177SLPC  C31720244   0.262   5.161   8.923 -0.3346  0.3701  0.4371
  177SLPC  H17X20245   0.208   5.117   9.010  1.4829 -0.9075  0.9313
  177SLPC  H17Y20246   0.189   5.203   8.850 -0.4622  1.6724  1.2868
  177SLPC  C31820247   0.353   5.270   8.971  0.0602 -0.4096 -0.6343
  177SLPC  H18X20248   0.427   5.302   8.894  0.3759 -1.0218 -0.5820
  177SLPC  H18Y20249   0.395   5.254   9.072 -0.2780  1.0028 -0.2586
  177SLPC  H18Z20250   0.294   5.362   8.993 -0.1145 -1.1843  2.2635
  178SLPC     N20251   2.264   0.080  11.240 -0.5424  0.0287  0.8914
  178SLPC   C1320252   2.396   0.023  11.285 -0.3577 -0.4166 -0.5481
  178SLPC  H13A20253   2.462   0.105  11.311 -3.4201  1.0897  2.7681
  178SLPC  H13B20254   2.387  -0.049  11.364 -0.2157  0.3809  0.1999
  178SLPC  H13C20255   2.440  -0.041  11.209 -0.5103 -1.3015  0.1084
  178SLPC   C1420256   2.220   0.192  11.327  0.0949 -0.5388  0.3537
  178SLPC  H14A20257   2.219   0.167  11.432  0.1903 -2.7336 -0.1583
  178SLPC  H14B20258   2.279   0.281  11.312  0.9237 -1.2254 -0.4528
  178SLPC  H14C20259   2.117   0.221  11.309 -0.1290  0.0808  2.4529
  178SLPC   C1520260   2.154  -0.021  11.244  0.0918  0.2415 -1.0537
  178SLPC  H15A20261   2.167  -0.097  11.169  1.8447  1.3896 -1.9510
  178SLPC  H15B20262   2.158  -0.064  11.343 -0.7279  3.7652  0.5883
  178SLPC  H15C20263   2.054   0.019  11.241  0.1298  0.6378  1.6004
  178SLPC   C1220264   2.271   0.128  11.093 -0.0449 -0.5329 -0.4001
  178SLPC  H12A20265   2.295   0.038  11.037 -0.1605 -1.5436  1.1514
  178SLPC  H12B20266   2.357   0.193  11.096  0.9442 -1.8137 -0.3938
  178SLPC   C1120267   2.154   0.198  11.026  0.0392 -0.8560 -0.3146
  178SLPC  H11A20268   2.065   0.139  11.057  0.3381 -0.2911  1.6767
  178SLPC  H11B20269   2.167   0.188  10.916  0.3318 -0.4635 -0.3154
  178SLPC     P20270   2.233   0.449  11.029 -0.1018 -0.3824  0.0798
  178SLPC   O1320271   2.203   0.572  11.108  0.2822 -0.0586  0.1059
  178SLPC   O1420272   2.376   0.408  11.034  0.2947  0.4123  0.5040
  178SLPC   O1220273   2.134   0.336  11.076  0.2759  0.1840  0.1419
  178SLPC   O1120274   2.181   0.462  10.880  0.3040 -0.5320 -0.7244
  178SLPC    C120275   2.263   0.485  10.771 -0.2265  0.4017  0.0501
  178SLPC    HA20276   2.308   0.586  10.783  0.3280  0.2630 -0.8155
  178SLPC    HB20277   2.347   0.412  10.761 -0.8819 -0.5684  1.3743
  178SLPC    C220278   2.173   0.478  10.649  0.6049  0.3551  0.0659
  178SLPC    HS20279   2.137   0.374  10.635 -3.6559  1.8488 -0.7945
  178SLPC   O2120280   2.238   0.518  10.529  0.0973  0.1666  0.1566
  178SLPC   C2120281   2.327   0.431  10.481 -0.0621 -0.5576 -0.2633
  178SLPC   O2220282   2.342   0.319  10.530 -0.4267  0.4087  0.2285
  178SLPC   C2220283   2.389   0.483  10.355  0.5676  0.7870  0.8487
  178SLPC   H2R20284   2.435   0.583  10.370 -0.6122  1.4842 -0.1733
  178SLPC   H2S20285   2.470   0.415  10.319  0.0418  0.2471  0.6760
  178SLPC    C320286   2.041   0.562  10.673  0.9730  0.3762 -0.5980
  178SLPC    HX20287   2.073   0.639  10.746  1.6560 -0.8285  0.3950
  178SLPC    HY20288   1.969   0.503  10.734  3.6044 -0.3632  1.9251
  178SLPC   O3120289   1.979   0.624  10.560 -0.4127  0.2499 -0.4294
  178SLPC   C3120290   1.929   0.536  10.473 -1.1349  0.0273  1.3498
  178SLPC   O3220291   1.932   0.413  10.478 -0.0112  0.5136 -0.1868
  178SLPC   C3220292   1.863   0.616  10.356 -0.0791  0.0566  0.1657
  178SLPC   H2X20293   1.934   0.698  10.335  1.0588 -0.7924  0.6273
  178SLPC   H2Y20294   1.775   0.666  10.403 -1.2057 -0.1009 -1.7393
  178SLPC   C2320295   2.290   0.479  10.233 -0.3014 -0.0197 -0.1163
  178SLPC   H3R20296   2.195   0.511  10.280  0.2536  0.3681  0.7610
  178SLPC   H3S20297   2.270   0.381  10.184 -3.0957  0.9425 -0.9893
  178SLPC   C2420298   2.316   0.580  10.128  0.4712 -1.0357 -0.0718
  178SLPC   H4R20299   2.412   0.549  10.080  0.8384  0.3878 -0.2832
  178SLPC   H4S20300   2.330   0.675  10.185 -0.1425 -0.0199 -1.5870
  178SLPC   C2520301   2.207   0.582  10.026 -0.6276  0.2816  0.3146
  178SLPC   H5R20302   2.188   0.682   9.982 -0.7681 -0.7216 -1.9836
  178SLPC   H5S20303   2.117   0.552  10.085 -1.6205  0.5010 -1.0653
  178SLPC   C2620304   2.240   0.499   9.901 -0.5956  0.2287 -0.0539
  178SLPC   H6R20305   2.258   0.393   9.932  0.9528 -0.4280 -3.0150
  178SLPC   H6S20306   2.326   0.536   9.842 -0.4736 -0.2005 -0.1496
  178SLPC   C2720307   2.118   0.478   9.810 -0.3067  1.2881  0.7048
  178SLPC   H7R20308   2.019   0.467   9.858 -0.3674  2.9702  0.9819
  178SLPC   H7S20309   2.140   0.386   9.751  0.7761  2.6026 -1.0107
  178SLPC   C2820310   2.098   0.601   9.734 -0.1711 -0.4732  0.3652
  178SLPC   H8R20311   2.195   0.626   9.686  0.5785 -0.3663  1.9022
  178SLPC   H8S20312   2.075   0.691   9.796 -0.4998  0.1993 -0.7093
  178SLPC   C2920313   1.995   0.588   9.632  1.0047 -0.0172  0.5441
  178SLPC   H9R20314   1.894   0.603   9.672 -0.1716  0.9121 -2.5592
  178SLPC  C21020315   2.021   0.557   9.503  0.5217  0.7823  0.0273
  178SLPC  H10R20316   1.934   0.539   9.438 -0.3965 -1.2999  1.7686
  178SLPC  C21120317   2.159   0.541   9.437  0.0632  0.7190  0.2224
  178SLPC  H11R20318   2.247   0.554   9.503 -0.6718  0.6254  1.2470
  178SLPC  H11S20319   2.164   0.611   9.351 -3.6488  0.8217  0.0126
  178SLPC  C21220320   2.175   0.400   9.394  0.2618  0.2066 -0.2637
  178SLPC  H12R20321   2.231   0.342   9.468 -0.7860  2.0311  2.0239
  178SLPC  C21320322   2.136   0.339   9.279  0.5912  0.4692 -0.2588
  178SLPC  H13R20323   2.150   0.232   9.259  1.4672  0.6269 -0.5015
  178SLPC  C21420324   2.043   0.404   9.177 -0.0946  0.0412  0.3795
  178SLPC  H14R20325   2.006   0.502   9.215 -0.0447 -0.5953  2.0718
  178SLPC  H14S20326   1.947   0.350   9.159  1.1672 -1.0046 -3.8737
  178SLPC  C21520327   2.118   0.422   9.042 -0.1528 -0.1317  0.3164
  178SLPC  H15R20328   2.051   0.438   8.954  3.1227  2.0151 -1.8634
  178SLPC  H15S20329   2.174   0.331   9.012  0.7254  0.6507 -0.4434
  178SLPC  C21620330   2.223   0.532   9.033 -0.2742 -0.5332  0.2016
  178SLPC  H16R20331   2.316   0.478   9.058 -0.5524 -1.4206 -0.6455
  178SLPC  H16S20332   2.204   0.609   9.110  2.7098  0.6175 -0.1446
  178SLPC  C21720333   2.227   0.596   8.893 -0.1320  0.5210 -0.6352
  178SLPC  H17R20334   2.285   0.690   8.897  0.6777 -0.0278  3.5571
  178SLPC  H17S20335   2.124   0.624   8.862  0.1213  2.2710  0.0563
  178SLPC  C21820336   2.284   0.505   8.787  0.7839 -0.0642  0.0041
  178SLPC  H18R20337   2.220   0.416   8.799 -0.1707  0.5851 -0.2466
  178SLPC  H18S20338   2.391   0.480   8.805  1.3417  0.4601 -2.3668
  178SLPC  H18T20339   2.278   0.550   8.686 -0.3918 -1.1853 -0.4272
  178SLPC   C3320340   1.813   0.519  10.246 -0.2524  0.0382 -0.0214
  178SLPC   H3X20341   1.756   0.436  10.293  1.3421 -1.0979 -0.0707
  178SLPC   H3Y20342   1.898   0.470  10.193 -1.2386 -1.1864 -0.5009
  178SLPC   C3420343   1.734   0.592  10.146  0.4586 -0.0636 -0.6108
  178SLPC   H4X20344   1.792   0.684  10.120 -0.4969  1.7234  3.2651
  178SLPC   H4Y20345   1.638   0.628  10.187 -0.2256 -1.9340 -0.5260
  178SLPC   C3520346   1.693   0.525  10.017 -0.1588 -0.7181  0.3849
  178SLPC   H5X20347   1.623   0.441  10.037 -1.7472  0.5181  0.1475
  178SLPC   H5Y20348   1.785   0.475   9.980  0.2598  0.3662 -0.0447
  178SLPC   C3620349   1.640   0.628   9.914  0.2508 -0.0570  0.2419
  178SLPC   H6X20350   1.725   0.700   9.903  1.0430 -0.8439  1.1138
  178SLPC   H6Y20351   1.558   0.695   9.946  2.2872  0.7804  4.0637
  178SLPC   C3720352   1.630   0.567   9.776  0.2599  0.3932 -0.5278
  178SLPC   H7X20353   1.551   0.489   9.777 -0.3870  1.0457 -0.0887
  178SLPC   H7Y20354   1.726   0.516   9.756  1.2274  0.8918  2.5504
  178SLPC   C3820355   1.601   0.670   9.674 -0.3739 -0.5304 -0.3577
  178SLPC   H8X20356   1.671   0.756   9.677 -0.2296 -0.6882  1.3836
  178SLPC   H8Y20357   1.500   0.712   9.694 -0.4382 -0.9259  0.1436
  178SLPC   C3920358   1.599   0.617   9.531 -0.2589  0.5300 -0.4388
  178SLPC   H9X20359   1.542   0.523   9.543  1.9437 -0.6525  1.1278
  178SLPC   H9Y20360   1.703   0.595   9.500 -0.7334 -0.3165 -1.4597
  178SLPC  C31020361   1.524   0.697   9.431 -0.4799  0.7875  1.2392
  178SLPC  H10X20362   1.570   0.798   9.425 -2.2517  1.4759 -2.2560
  178SLPC  H10Y20363   1.418   0.707   9.463 -0.8409 -0.0351  0.3318
  178SLPC  C31120364   1.539   0.623   9.290 -0.3048 -0.6954  0.2040
  178SLPC  H11X20365   1.511   0.515   9.294  0.4597 -0.9397 -0.9082
  178SLPC  H11Y20366   1.647   0.619   9.266 -0.3063 -0.9471  0.2401
  178SLPC  C31220367   1.447   0.688   9.188  0.4103 -0.8260 -0.3931
  178SLPC  H12X20368   1.344   0.682   9.228  0.6832 -1.0369  0.3032
  178SLPC  H12Y20369   1.454   0.628   9.095 -1.8423  0.8186 -1.6808
  178SLPC  C31320370   1.491   0.824   9.166  0.2968  0.6354 -0.3148
  178SLPC  H13X20371   1.601   0.836   9.152  0.2326 -0.1174 -1.4661
  178SLPC  H13Y20372   1.455   0.879   9.256 -1.0427  0.4624 -0.7343
  178SLPC  C31420373   1.420   0.900   9.050 -0.2701  0.4326 -0.4183
  178SLPC  H14X20374   1.447   0.834   8.964  0.0972 -0.0494  0.0668
  178SLPC  H14Y20375   1.470   0.999   9.041 -0.8821  0.5397 -3.0816
  178SLPC  C31520376   1.274   0.921   9.067 -0.3621 -0.4170  0.5007
  178SLPC  H15X20377   1.219   0.825   9.076 -3.6297  1.4039  0.7582
  178SLPC  H15Y20378   1.264   0.970   9.167 -0.5140 -1.4520  1.0072
  178SLPC  C31620379   1.206   1.003   8.967  0.0890  0.0208  0.8224
  178SLPC  H16X20380   1.233   0.973   8.863 -1.3656  3.2503 -0.5528
  178SLPC  H16Y20381   1.247   1.106   8.964 -1.2980  0.5758 -4.3206
  178SLPC  C31720382   1.051   1.008   8.971 -0.3658  0.3247  0.6706
  178SLPC  H17X20383   1.015   1.043   9.071  0.3088  2.0764  0.3297
  178SLPC  H17Y20384   1.008   0.906   8.966 -3.6126  1.5408  1.9979
  178SLPC  C31820385   0.998   1.096   8.857 -0.2562  0.1097 -0.1478
  178SLPC  H18X20386   1.076   1.168   8.826  0.1160 -1.5704 -3.3140
  178SLPC  H18Y20387   0.909   1.155   8.889  0.4173 -0.4685  3.0007
  178SLPC  H18Z20388   0.966   1.036   8.769 -0.4467 -1.6291  1.0750
  179SLPC     N20389   3.863   3.789  10.822 -0.1528  0.0630 -0.1432
  179SLPC   C1320390   3.788   3.915  10.817 -0.0422  0.2382  0.0363
  179SLPC  H13A20391   3.721   3.905  10.732  0.9249 -1.2018 -0.5861
  179SLPC  H13B20392   3.728   3.908  10.906 -1.2391  1.1342 -0.6835
  179SLPC  H13C20393   3.855   3.999  10.811 -1.2893  1.1926 -0.8064
  179SLPC   C1420394   3.770   3.674  10.833  0.9105 -0.3312  0.3179
  179SLPC  H14A20395   3.691   3.680  10.759  0.2447  0.1108  1.0533
  179SLPC  H14B20396   3.829   3.584  10.827 -3.2445 -3.0543 -2.5474
  179SLPC  H14C20397   3.713   3.676  10.925  0.3032  0.7896 -0.0727
  179SLPC   C1520398   3.951   3.787  10.943 -0.9755 -0.0027 -0.0119
  179SLPC  H15A20399   4.012   3.877  10.938  0.1838 -0.8213 -0.7900
  179SLPC  H15B20400   3.892   3.771  11.032 -1.8165 -1.0358 -0.7537
  179SLPC  H15C20401   4.028   3.712  10.948 -2.0091 -1.0087  1.0457
  179SLPC   C1220402   3.959   3.781  10.708  0.3932  0.1997 -0.1733
  179SLPC  H12A20403   4.054   3.735  10.733  0.9299  1.2044 -0.3457
  179SLPC  H12B20404   3.996   3.881  10.693 -0.4219  0.8312  1.8505
  179SLPC   C1120405   3.907   3.721  10.574 -1.0518 -0.0560  0.5269
  179SLPC  H11A20406   3.869   3.617  10.583  0.5402 -0.8159 -1.1995
  179SLPC  H11B20407   3.993   3.708  10.505  0.1173  0.1882  1.9130
  179SLPC     P20408   3.855   3.937  10.419  0.3516  0.0795 -0.0318
  179SLPC   O1320409   3.777   4.047  10.471 -0.0285  0.4252 -0.1186
  179SLPC   O1420410   4.002   3.956  10.419  0.5779  0.0435  0.0642
  179SLPC   O1220411   3.808   3.805  10.506 -0.7057  0.3436 -0.4626
  179SLPC   O1120412   3.802   3.906  10.278 -0.4971 -0.7802  0.2666
  179SLPC    C120413   3.676   3.842  10.275 -0.1459 -0.6507  0.6630
  179SLPC    HA20414   3.674   3.732  10.287 -2.2871 -0.6599  0.3869
  179SLPC    HB20415   3.615   3.875  10.362 -0.5562  3.1828 -0.9890
  179SLPC    C220416   3.612   3.892  10.145  0.3746 -0.6718  0.3258
  179SLPC    HS20417   3.520   3.828  10.146 -0.0708 -0.0328  0.2832
  179SLPC   O2120418   3.700   3.879  10.030 -0.1400 -0.2066  0.0173
  179SLPC   C2120419   3.721   3.758   9.992 -0.4966 -0.0437  1.1757
  179SLPC   O2220420   3.678   3.654  10.043  0.1285  0.4210 -0.0198
  179SLPC   C2220421   3.808   3.764   9.862  0.0153 -0.5421  0.0183
  179SLPC   H2R20422   3.857   3.863   9.852 -1.6491  0.3404  0.4166
  179SLPC   H2S20423   3.878   3.681   9.885  0.8193  0.7623  2.4992
  179SLPC    C320424   3.551   4.036  10.151 -0.0526 -0.0671 -0.4831
  179SLPC    HX20425   3.637   4.107  10.149  1.2039 -1.5546 -0.2246
  179SLPC    HY20426   3.482   4.048  10.237  0.5192 -3.0688  0.4406
  179SLPC   O3120427   3.469   4.054  10.027  0.1823 -0.3050  0.6749
  179SLPC   C3120428   3.411   4.164  10.006 -0.2346  0.4066 -0.6774
  179SLPC   O3220429   3.415   4.261  10.081 -0.2606 -0.8333  0.0380
  179SLPC   C3220430   3.337   4.158   9.873  0.3400 -0.0050  0.0458
  179SLPC   H2X20431   3.256   4.083   9.887 -0.0024  0.3593  0.0418
  179SLPC   H2Y20432   3.418   4.122   9.806 -1.1074 -2.5160 -0.4203
  179SLPC   C2320433   3.714   3.753   9.747 -0.6505  0.0568  0.4979
  179SLPC   H3R20434   3.657   3.849   9.751 -1.4182 -0.4686  2.8807
  179SLPC   H3S20435   3.641   3.669   9.739 -1.7366  1.0876 -0.9576
  179SLPC   C2420436   3.794   3.757   9.620  0.0398 -0.8843  0.0580
  179SLPC   H4R20437   3.879   3.687   9.634  0.9236  0.2277  0.3245
  179SLPC   H4S20438   3.846   3.855   9.614 -0.2607 -0.7474 -0.3106
  179SLPC   C2520439   3.711   3.737   9.498  0.1349  0.3061 -0.8590
  179SLPC   H5R20440   3.631   3.815   9.493  0.6327  0.8787 -0.0814
  179SLPC   H5S20441   3.672   3.633   9.499  0.9161  0.0103  0.7213
  179SLPC   C2620442   3.793   3.752   9.363  0.0937  0.1053  0.1868
  179SLPC   H6R20443   3.885   3.691   9.375  1.8343  2.4403 -0.8071
  179SLPC   H6S20444   3.821   3.858   9.343  0.1718  0.4997  2.2374
  179SLPC   C2720445   3.704   3.718   9.244 -0.6732  1.1099  0.3666
  179SLPC   H7R20446   3.602   3.762   9.253 -1.0791  0.0598  1.1183
  179SLPC   H7S20447   3.696   3.608   9.232  1.9326  1.0551 -1.1407
  179SLPC   C2820448   3.769   3.759   9.107 -0.0792 -0.7338  0.4697
  179SLPC   H8R20449   3.874   3.721   9.106  0.5856  1.0818 -0.8469
  179SLPC   H8S20450   3.767   3.868   9.087 -0.2725 -1.1122 -1.6942
  179SLPC   C2920451   3.700   3.687   8.993 -0.8192 -0.3539  0.0310
  179SLPC   H9R20452   3.614   3.627   9.026 -0.4060 -0.0087  1.7996
  179SLPC  C21020453   3.742   3.686   8.864 -0.1661  0.5289 -0.0063
  179SLPC  H10R20454   3.679   3.631   8.793  1.9551 -0.0880 -1.4419
  179SLPC  C21120455   3.877   3.750   8.827  1.0131 -0.0764  0.5150
  179SLPC  H11R20456   3.951   3.719   8.904 -0.2591 -0.0242  1.7777
  179SLPC  H11S20457   3.864   3.860   8.827  0.5987 -0.1223  2.0115
  179SLPC  C21220458   3.913   3.705   8.686  0.2868 -0.4875 -0.6705
  179SLPC  H12R20459   3.895   3.598   8.667 -0.9570 -0.1773 -1.2732
  179SLPC  C21320460   3.964   3.774   8.582 -0.5947  0.0417  0.5997
  179SLPC  H13R20461   3.968   3.735   8.480 -0.3935  1.6078 -0.0037
  179SLPC  C21420462   3.994   3.926   8.578 -0.4352  0.3216 -0.3488
  179SLPC  H14R20463   3.952   3.973   8.669  0.9874 -1.8705  1.4939
  179SLPC  H14S20464   3.934   3.983   8.504 -1.2726  1.3128  1.0888
  179SLPC  C21520465   4.142   3.963   8.540  0.5569  0.3191 -0.5800
  179SLPC  H15R20466   4.200   3.916   8.622 -0.2749  1.3977  0.6537
  179SLPC  H15S20467   4.162   4.071   8.556  1.1677  0.0276  0.7420
  179SLPC  C21620468   4.192   3.903   8.408  0.4094 -0.3820 -0.0851
  179SLPC  H16R20469   4.202   3.792   8.411 -0.4309 -0.4626  0.0017
  179SLPC  H16S20470   4.293   3.941   8.382  0.4451 -1.9517 -2.3650
  179SLPC  C21720471   4.101   3.938   8.296 -0.0653 -0.2828 -0.2183
  179SLPC  H17R20472   3.997   3.913   8.324  0.3415  0.3472  1.9344
  179SLPC  H17S20473   4.127   3.882   8.204  1.7002 -0.4964  0.3875
  179SLPC  C21820474   4.103   4.093   8.264 -0.0827 -0.6144 -0.0686
  179SLPC  H18R20475   4.206   4.130   8.241 -0.3874 -0.3675 -1.0706
  179SLPC  H18S20476   4.060   4.163   8.339 -1.0838 -2.9764  1.6321
  179SLPC  H18T20477   4.046   4.119   8.173  1.4171 -0.8323 -1.0988
  179SLPC   C3320478   3.280   4.293   9.810 -0.0105  0.1092  0.1925
  179SLPC   H3X20479   3.361   4.344   9.755 -0.4135  0.5003 -0.0389
  179SLPC   H3Y20480   3.252   4.363   9.892  1.1845 -0.8224  1.4199
  179SLPC   C3420481   3.162   4.260   9.717  0.2068  0.2053  0.4784
  179SLPC   H4X20482   3.080   4.217   9.779 -1.5218 -0.5649 -2.2460
  179SLPC   H4Y20483   3.191   4.179   9.648  1.0370  0.2663  0.7509
  179SLPC   C3520484   3.117   4.382   9.633  0.0281 -0.3081 -0.1354
  179SLPC   H5X20485   3.121   4.460   9.712  0.5662 -0.8313  0.3589
  179SLPC   H5Y20486   3.013   4.376   9.596  0.8312 -0.1726 -2.5214
  179SLPC   C3620487   3.212   4.414   9.516 -0.4773  0.2156 -0.7088
  179SLPC   H6X20488   3.318   4.419   9.548 -0.4477 -0.2413 -0.7269
  179SLPC   H6Y20489   3.177   4.515   9.485 -1.8282 -0.0845 -0.1919
  179SLPC   C3720490   3.175   4.322   9.399  0.4795 -0.0645 -0.3763
  179SLPC   H7X20491   3.081   4.357   9.351  0.8067  2.0993  0.5041
  179SLPC   H7Y20492   3.171   4.220   9.444 -3.0119 -0.2673 -0.9941
  179SLPC   C3820493   3.283   4.324   9.292  0.1361 -0.8421 -0.5644
  179SLPC   H8X20494   3.273   4.223   9.247 -1.8201 -1.2881  0.7995
  179SLPC   H8Y20495   3.381   4.329   9.345 -0.6006 -1.4945  0.8726
  179SLPC   C3920496   3.273   4.430   9.183  0.0674 -0.1312  0.3836
  179SLPC   H9X20497   3.298   4.532   9.221 -1.5371  0.6738 -0.6419
  179SLPC   H9Y20498   3.170   4.431   9.143  0.9235  2.1658 -1.8692
  179SLPC  C31020499   3.378   4.408   9.070  0.6488  0.3415 -0.1977
  179SLPC  H10X20500   3.478   4.398   9.117  1.1224  1.6119 -0.9135
  179SLPC  H10Y20501   3.385   4.499   9.007  2.4272  1.0519  0.9849
  179SLPC  C31120502   3.352   4.297   8.969 -0.3357  0.7546 -0.7279
  179SLPC  H11X20503   3.244   4.285   8.947 -0.6052 -0.9198  1.2628
  179SLPC  H11Y20504   3.387   4.197   9.004  1.8998  2.1891  1.2412
  179SLPC  C31220505   3.423   4.330   8.841 -0.5335  0.3286  0.2367
  179SLPC  H12X20506   3.529   4.355   8.860 -0.4463  2.9541 -3.1917
  179SLPC  H12Y20507   3.387   4.425   8.798  0.1456 -0.5321 -2.2957
  179SLPC  C31320508   3.414   4.225   8.729  0.3341 -0.7639 -0.5677
  179SLPC  H13X20509   3.305   4.213   8.713  0.2212  0.3111 -0.6456
  179SLPC  H13Y20510   3.458   4.129   8.763  1.2725 -0.3436 -0.5989
  179SLPC  C31420511   3.494   4.256   8.603  0.0106 -0.0848  0.2819
  179SLPC  H14X20512   3.601   4.260   8.632  0.0342 -2.9928  0.7947
  179SLPC  H14Y20513   3.471   4.359   8.568  1.2163  0.5388  1.3129
  179SLPC  C31520514   3.478   4.162   8.482  0.9034 -0.0246  0.3489
  179SLPC  H15X20515   3.491   4.216   8.386 -0.6768 -1.4631 -0.7192
  179SLPC  H15Y20516   3.367   4.150   8.483  0.8664  0.0680  2.9474
  179SLPC  C31620517   3.544   4.028   8.484 -0.4331  0.1105 -0.3158
  179SLPC  H16X20518   3.527   3.989   8.586  1.7266 -2.0719 -0.7455
  179SLPC  H16Y20519   3.653   4.050   8.487 -0.1450 -0.9166 -2.5039
  179SLPC  C31720520   3.501   3.931   8.372  0.0075  0.3721 -0.0007
  179SLPC  H17X20521   3.552   3.964   8.279  2.5955 -1.8553  0.5599
  179SLPC  H17Y20522   3.391   3.933   8.359 -0.2331 -3.6147  0.7101
  179SLPC  C31820523   3.535   3.787   8.410 -0.8581 -0.5515 -0.3943
  179SLPC  H18X20524   3.644   3.789   8.432 -1.0627 -2.1683  0.8820
  179SLPC  H18Y20525   3.513   3.708   8.335  2.4891 -1.7454 -0.1951
  179SLPC  H18Z20526   3.487   3.752   8.504  2.3672 -2.6935  0.5214
  180SLPC     N20527   4.410   1.582  11.026  0.8139 -0.6606 -0.1192
  180SLPC   C1320528   4.299   1.533  10.943  0.0098 -0.1155  0.9693
  180SLPC  H13A20529   4.231   1.614  10.922  1.2988  0.1401 -2.4435
  180SLPC  H13B20530   4.334   1.490  10.850 -0.2318  0.6458  0.5248
  180SLPC  H13C20531   4.252   1.446  10.986 -0.7730 -0.8524 -1.3360
  180SLPC   C1420532   4.354   1.639  11.155  0.8692  0.2080  0.0375
  180SLPC  H14A20533   4.422   1.693  11.219  1.9084  1.6686 -2.2505
  180SLPC  H14B20534   4.281   1.714  11.131 -0.4040 -1.2615 -0.7765
  180SLPC  H14C20535   4.303   1.565  11.215  2.6679 -1.5998 -0.6166
  180SLPC   C1520536   4.490   1.675  10.946  0.2713  0.8607  0.3876
  180SLPC  H15A20537   4.540   1.620  10.867 -0.2062 -2.5129  2.3331
  180SLPC  H15B20538   4.428   1.753  10.904 -1.7777 -0.8698  0.1273
  180SLPC  H15C20539   4.558   1.729  11.011  2.8788 -2.2383  0.3618
  180SLPC   C1220540   4.496   1.470  11.070  0.3631 -0.3670  0.5126
  180SLPC  H12A20541   4.440   1.396  11.125 -1.4343 -0.3643 -1.2775
  180SLPC  H12B20542   4.567   1.511  11.141  0.2215  0.9839 -0.1324
  180SLPC   C1120543   4.573   1.381  10.963 -0.1084  0.4020 -0.0898
  180SLPC  H11A20544   4.504   1.327  10.895  1.8295 -1.1069 -0.8922
  180SLPC  H11B20545   4.627   1.305  11.022  1.2835  0.6958 -0.9781
  180SLPC     P20546   4.800   1.503  10.949 -0.0569 -0.2393 -0.1511
  180SLPC   O1320547   4.774   1.621  11.041  0.1937 -0.0641 -0.4063
  180SLPC   O1420548   4.872   1.385  11.004 -0.2112 -0.3069 -0.2041
  180SLPC   O1220549   4.662   1.458  10.885 -0.9593  0.1300  0.7719
  180SLPC   O1120550   4.887   1.553  10.818  0.1343 -0.8351 -0.4040
  180SLPC    C120551   4.883   1.468  10.704 -0.2888  0.4576  0.2063
  180SLPC    HA20552   4.988   1.438  10.681 -0.6879 -0.5298 -0.3208
  180SLPC    HB20553   4.832   1.370  10.711 -1.0688  0.6744 -1.9398
  180SLPC    C220554   4.821   1.529  10.576  0.0057  0.1174 -0.4299
  180SLPC    HS20555   4.896   1.599  10.533  0.5052 -1.7592 -2.6918
  180SLPC   O2120556   4.697   1.588  10.609 -0.2438  0.2636  0.2922
  180SLPC   C2120557   4.665   1.696  10.535 -0.2506 -0.7917 -0.3346
  180SLPC   O2220558   4.747   1.749  10.463  0.1654 -0.4314 -0.7864
  180SLPC   C2220559   4.519   1.736  10.548  0.1644 -0.3083  0.5608
  180SLPC   H2R20560   4.469   1.682  10.631 -2.5264  1.9426  0.4941
  180SLPC   H2S20561   4.520   1.845  10.573 -1.3924  0.3278 -1.9784
  180SLPC    C320562   4.794   1.417  10.470  0.4526  0.3950 -0.6941
  180SLPC    HX20563   4.707   1.359  10.508  1.0155  0.6062  0.9280
  180SLPC    HY20564   4.885   1.356  10.452  0.7821  0.4800  0.6928
  180SLPC   O3120565   4.769   1.472  10.335 -0.3961 -0.2728 -0.1155
  180SLPC   C3120566   4.698   1.395  10.254  0.7728 -1.1939  1.0259
  180SLPC   O3220567   4.636   1.297  10.286 -0.3165 -0.2664 -0.5116
  180SLPC   C3220568   4.704   1.461  10.109 -1.2792  0.2850 -0.6206
  180SLPC   H2X20569   4.802   1.433  10.066 -0.6282  2.9283 -0.9731
  180SLPC   H2Y20570   4.698   1.572  10.118  2.8125  0.5891 -0.5423
  180SLPC   C2320571   4.431   1.699  10.427  0.0195 -0.7747  0.6839
  180SLPC   H3R20572   4.324   1.718  10.446  0.0202 -1.5251  1.4731
  180SLPC   H3S20573   4.445   1.591  10.403 -2.0992 -0.6151 -1.4976
  180SLPC   C2420574   4.473   1.787  10.315  0.1249  0.0478 -0.4468
  180SLPC   H4R20575   4.583   1.789  10.303 -0.1435  1.3339 -2.9435
  180SLPC   H4S20576   4.438   1.890  10.338  0.1521  0.3655 -1.7987
  180SLPC   C2520577   4.415   1.750  10.184  0.3441 -0.2286  0.3455
  180SLPC   H5R20578   4.304   1.748  10.184  0.3469 -0.9330 -1.7390
  180SLPC   H5S20579   4.451   1.647  10.162  0.6499 -0.4404  1.7654
  180SLPC   C2620580   4.453   1.854  10.077 -0.0805  0.2403 -0.1782
  180SLPC   H6R20581   4.563   1.863  10.071 -0.1072 -0.2697 -1.5271
  180SLPC   H6S20582   4.411   1.948  10.119  1.4351  0.0432  1.8571
  180SLPC   C2720583   4.385   1.813   9.945  0.1300  0.0547  0.1932
  180SLPC   H7R20584   4.278   1.793   9.965  0.0687  0.5903  0.4084
  180SLPC   H7S20585   4.418   1.720   9.894 -1.2365 -0.3719  0.0643
  180SLPC   C2820586   4.392   1.933   9.842 -0.3377 -0.0256  0.1387
  180SLPC   H8R20587   4.500   1.958   9.827 -0.2444 -0.6030 -0.1655
  180SLPC   H8S20588   4.340   2.026   9.875  3.2534  0.9316  3.5100
  180SLPC   C2920589   4.351   1.901   9.704 -0.4421  0.0617 -0.3386
  180SLPC   H9R20590   4.418   1.827   9.659  0.2338 -0.1975  1.0450
  180SLPC  C21020591   4.249   1.948   9.635  0.5611 -0.3026  0.3497
  180SLPC  H10R20592   4.227   1.910   9.534  0.1962 -1.4586  0.8516
  180SLPC  C21120593   4.156   2.060   9.671  0.3977  1.6655  0.5817
  180SLPC  H11R20594   4.103   2.106   9.585  1.0932 -1.0156 -1.3066
  180SLPC  H11S20595   4.207   2.136   9.735  2.9772  0.0082  0.5593
  180SLPC  C21220596   4.047   2.003   9.756 -0.2304  0.5263 -0.5068
  180SLPC  H12R20597   4.052   2.025   9.864 -0.7295  1.0364 -0.5855
  180SLPC  C21320598   3.938   1.939   9.703 -0.4280 -0.1879  0.2993
  180SLPC  H13R20599   3.852   1.900   9.760 -0.7916  0.5118  0.2353
  180SLPC  C21420600   3.919   1.916   9.557 -0.4788 -0.0977 -0.1163
  180SLPC  H14R20601   3.892   1.810   9.537 -2.5736  0.0597  1.7340
  180SLPC  H14S20602   4.007   1.936   9.491 -1.9511  1.0352 -1.7820
  180SLPC  C21520603   3.810   2.015   9.506 -0.0462  0.8829  0.7968
  180SLPC  H15R20604   3.847   2.117   9.527 -0.8458  1.6732 -1.4957
  180SLPC  H15S20605   3.716   1.993   9.560  0.0842  0.9504  1.0492
  180SLPC  C21620606   3.787   2.002   9.352  0.5363  0.8431 -0.8774
  180SLPC  H16R20607   3.685   2.039   9.326 -0.2177 -1.5133 -1.4532
  180SLPC  H16S20608   3.781   1.898   9.314 -0.1858  0.7294 -0.4822
  180SLPC  C21720609   3.888   2.071   9.265 -0.1023  0.1984  0.0653
  180SLPC  H17R20610   3.981   2.013   9.282  1.1883  2.7319  2.0905
  180SLPC  H17S20611   3.901   2.176   9.301 -1.7333  0.4929 -0.1781
  180SLPC  C21820612   3.838   2.074   9.126 -0.8248 -0.5601 -0.3682
  180SLPC  H18R20613   3.734   2.113   9.135 -0.3324  0.7897 -0.4120
  180SLPC  H18S20614   3.842   1.975   9.076  1.4317 -1.2119  1.0773
  180SLPC  H18T20615   3.900   2.139   9.060 -1.1818 -1.5999 -1.7711
  180SLPC   C3320616   4.584   1.410  10.022  0.2468  0.1577 -0.4819
  180SLPC   H3X20617   4.491   1.470  10.034  1.3528  1.4858  1.8498
  180SLPC   H3Y20618   4.551   1.313  10.065 -1.5977  0.1366 -1.8418
  180SLPC   C3420619   4.609   1.392   9.868  0.1800 -0.2688  0.1989
  180SLPC   H4X20620   4.519   1.366   9.810  0.2688 -0.6996  0.2559
  180SLPC   H4Y20621   4.696   1.323   9.859 -0.2915 -0.8077 -0.2400
  180SLPC   C3520622   4.645   1.529   9.798 -0.3273  0.0312 -0.4321
  180SLPC   H5X20623   4.748   1.566   9.813  0.4230 -0.6311 -3.5222
  180SLPC   H5Y20624   4.575   1.611   9.827  1.3444  1.5437 -0.6134
  180SLPC   C3620625   4.613   1.516   9.649 -0.0247 -0.5371  0.2538
  180SLPC   H6X20626   4.504   1.505   9.635 -0.1049  0.6072 -0.1316
  180SLPC   H6Y20627   4.668   1.429   9.606 -0.5773 -0.3398 -0.8585
  180SLPC   C3720628   4.665   1.635   9.567 -0.1072 -0.7328  0.0168
  180SLPC   H7X20629   4.775   1.630   9.553 -0.1405  0.0938 -0.5201
  180SLPC   H7Y20630   4.644   1.734   9.612 -0.3493 -2.0370  2.9249
  180SLPC   C3820631   4.598   1.649   9.428  0.0603 -0.1723 -0.5411
  180SLPC   H8X20632   4.646   1.728   9.366  2.8633  0.1460  1.9493
  180SLPC   H8Y20633   4.488   1.666   9.434  0.2299  0.5653  0.7595
  180SLPC   C3920634   4.607   1.519   9.344 -0.3819 -0.5373 -0.6801
  180SLPC   H9X20635   4.541   1.441   9.389 -0.4618  0.1929  0.4945
  180SLPC   H9Y20636   4.716   1.501   9.346 -0.1575  0.8834 -0.1957
  180SLPC  C31020637   4.566   1.543   9.203 -0.4828  0.2749 -0.6560
  180SLPC  H10X20638   4.633   1.624   9.166  0.5252  0.8001  2.2279
  180SLPC  H10Y20639   4.464   1.585   9.194  0.4099  2.6735 -0.1728
  180SLPC  C31120640   4.578   1.416   9.121  0.2634  0.0791 -1.0154
  180SLPC  H11X20641   4.528   1.328   9.168  2.0173 -0.6383 -0.4684
  180SLPC  H11Y20642   4.683   1.389   9.099  0.5448 -1.2245  1.6888
  180SLPC  C31220643   4.510   1.429   8.984 -0.2048 -0.2082 -0.1852
  180SLPC  H12X20644   4.564   1.506   8.924 -1.6814 -0.6871 -2.1808
  180SLPC  H12Y20645   4.409   1.475   8.990  0.1897  0.7450 -0.7432
  180SLPC  C31320646   4.503   1.297   8.907 -0.6256 -0.0690  0.4654
  180SLPC  H13X20647   4.448   1.225   8.971 -0.8261  0.8618  1.3359
  180SLPC  H13Y20648   4.610   1.271   8.893 -0.5332  0.5730 -0.0436
  180SLPC  C31420649   4.433   1.298   8.771 -0.4441  0.7234 -0.0190
  180SLPC  H14X20650   4.467   1.377   8.701  1.0770  0.8172  0.8078
  180SLPC  H14Y20651   4.327   1.325   8.789 -0.6945 -0.6616  0.6426
  180SLPC  C31520652   4.429   1.163   8.703 -0.5171 -0.2476  0.4689
  180SLPC  H15X20653   4.375   1.093   8.770 -2.8369  0.2429 -0.8275
  180SLPC  H15Y20654   4.538   1.146   8.689 -1.0400 -1.0446 -3.0216
  180SLPC  C31620655   4.358   1.157   8.561  0.1394 -0.9102 -0.5878
  180SLPC  H16X20656   4.359   1.059   8.509 -1.5355 -1.0979 -0.3059
  180SLPC  H16Y20657   4.416   1.225   8.495  1.7182  2.4609  3.9953
  180SLPC  C31720658   4.217   1.212   8.566  0.2296 -0.2963 -0.3265
  180SLPC  H17X20659   4.221   1.313   8.612 -1.3953 -0.6985  0.7542
  180SLPC  H17Y20660   4.142   1.151   8.622 -1.0974  0.5533 -1.1620
  180SLPC  C31820661   4.172   1.224   8.424 -0.1130  0.1320 -0.0128
  180SLPC  H18X20662   4.075   1.278   8.430  0.7538  1.6988  0.1249
  180SLPC  H18Y20663   4.145   1.125   8.381  0.7696 -0.1285  0.0191
  180SLPC  H18Z20664   4.237   1.284   8.357  0.6657 -0.1964  0.4368
  181SLPC     N20665   1.255   4.843  10.987  0.2932  0.8219 -0.3292
  181SLPC   C1320666   1.309   4.759  10.878 -0.4837  0.3090  0.2185
  181SLPC  H13A20667   1.383   4.802  10.813  0.8010 -1.5291  0.4461
  181SLPC  H13B20668   1.348   4.668  10.921  0.6445  0.5998 -0.1615
  181SLPC  H13C20669   1.224   4.748  10.812 -0.3952  2.0756 -0.2285
  181SLPC   C1420670   1.217   4.970  10.938 -0.8564 -0.3875  0.2648
  181SLPC  H14A20671   1.176   5.031  11.017 -1.9640  0.2913 -0.8074
  181SLPC  H14B20672   1.306   5.015  10.895 -1.1716 -2.1602 -2.3206
  181SLPC  H14C20673   1.141   4.968  10.861 -0.4302 -3.5954 -0.1167
  181SLPC   C1520674   1.372   4.860  11.086 -0.2728 -0.4829 -0.5218
  181SLPC  H15A20675   1.323   4.899  11.174  0.4045 -0.3188 -0.2185
  181SLPC  H15B20676   1.418   4.765  11.108  0.9091  0.0517 -0.6607
  181SLPC  H15C20677   1.438   4.933  11.041  1.4487 -1.1243  0.8998
  181SLPC   C1220678   1.142   4.766  11.055 -1.0092  0.5117 -0.0862
  181SLPC  H12A20679   1.165   4.667  11.091  0.2482  0.7158 -0.2921
  181SLPC  H12B20680   1.077   4.747  10.971  1.2413  1.3402 -2.0668
  181SLPC   C1120681   1.059   4.838  11.165  0.7206  0.4470 -0.2086
  181SLPC  H11A20682   1.146   4.858  11.232  2.9353 -0.8443 -2.6236
  181SLPC  H11B20683   1.001   4.768  11.229  1.8481  1.4503  1.9821
  181SLPC     P20684   0.848   4.937  11.083 -0.1329 -0.1178  0.0635
  181SLPC   O1320685   0.844   4.852  10.959  0.0281  0.4323  0.5243
  181SLPC   O1420686   0.773   4.886  11.200 -0.2182  0.6578 -0.5854
  181SLPC   O1220687   0.997   4.960  11.122 -0.0639  0.5078 -0.6681
  181SLPC   O1120688   0.800   5.085  11.047 -0.2372  0.2646  0.2687
  181SLPC    C120689   0.888   5.164  10.967 -0.0654  0.1673  0.3509
  181SLPC    HA20690   0.969   5.214  11.025  0.2053  0.1916 -0.0454
  181SLPC    HB20691   0.922   5.108  10.876  0.6714  1.4973 -0.2200
  181SLPC    C220692   0.801   5.271  10.896  0.0370  0.4064  0.4483
  181SLPC    HS20693   0.745   5.318  10.980  0.7059 -1.4525  1.9555
  181SLPC   O2120694   0.705   5.213  10.800  0.3830 -0.3622  0.0111
  181SLPC   C2120695   0.578   5.193  10.826  0.1976  0.6836 -0.3645
  181SLPC   O2220696   0.522   5.222  10.927  0.4603  0.4271  0.3066
  181SLPC   C2220697   0.523   5.112  10.708 -0.3185  0.6721 -0.0512
  181SLPC   H2R20698   0.584   5.021  10.692 -1.4959 -0.0305 -0.6627
  181SLPC   H2S20699   0.421   5.076  10.734 -0.0432  0.9818  1.5565
  181SLPC    C320700   0.894   5.376  10.827  0.2164  0.1403  0.1653
  181SLPC    HX20701   0.959   5.422  10.904  0.2741 -0.1941  0.3182
  181SLPC    HY20702   0.826   5.455  10.787  1.2285 -0.3846 -2.6278
  181SLPC   O3120703   0.961   5.325  10.713  0.5030  0.6867  0.2750
  181SLPC   C3120704   1.084   5.292  10.728  0.1934  0.0599  0.1070
  181SLPC   O3220705   1.148   5.289  10.829  0.4577 -0.4545 -0.0783
  181SLPC   C3220706   1.142   5.250  10.591 -0.0737 -0.0782 -1.3325
  181SLPC   H2X20707   1.120   5.333  10.520 -1.3074  0.8638  0.1109
  181SLPC   H2Y20708   1.110   5.149  10.558 -1.4700  0.4049 -1.5169
  181SLPC   C2320709   0.512   5.197  10.581 -0.8999 -0.3420  0.6672
  181SLPC   H3R20710   0.478   5.302  10.598 -1.3955 -0.3162 -0.4093
  181SLPC   H3S20711   0.444   5.149  10.507 -1.9743  2.5058 -0.2765
  181SLPC   C2420712   0.650   5.205  10.511  0.4714  0.1295 -0.7996
  181SLPC   H4R20713   0.689   5.101  10.501  0.5640  0.2676 -1.9443
  181SLPC   H4S20714   0.720   5.270  10.568  1.8607 -0.6957 -1.5184
  181SLPC   C2520715   0.628   5.265  10.373  0.2445 -0.4697  0.3566
  181SLPC   H5R20716   0.598   5.372  10.387 -0.1285 -0.5785  0.4103
  181SLPC   H5S20717   0.552   5.206  10.318  2.5890 -4.1446  0.9307
  181SLPC   C2620718   0.760   5.269  10.292 -0.0870  0.2397 -0.0108
  181SLPC   H6R20719   0.805   5.168  10.295  1.7395  1.0461  0.0324
  181SLPC   H6S20720   0.831   5.344  10.330  2.0844 -0.3640 -2.7046
  181SLPC   C2720721   0.738   5.313  10.141  0.6536 -0.6659 -0.4352
  181SLPC   H7R20722   0.688   5.412  10.147  1.3622 -0.4796  4.4373
  181SLPC   H7S20723   0.684   5.232  10.088  0.2085  0.0219 -1.0396
  181SLPC   C2820724   0.868   5.330  10.060  0.1106 -0.0980 -0.7514
  181SLPC   H8R20725   0.930   5.404  10.116  1.4548 -0.5303 -1.6697
  181SLPC   H8S20726   0.834   5.387   9.971  0.5545 -0.6106 -1.2489
  181SLPC   C2920727   0.955   5.209  10.036  0.2824 -0.0365 -0.9679
  181SLPC   H9R20728   1.026   5.195  10.119 -0.3268  0.9428 -0.2587
  181SLPC  C21020729   0.961   5.142   9.918 -0.1282  0.2856 -0.3909
  181SLPC  H10R20730   1.020   5.050   9.914  1.2599  1.2286 -3.0667
  181SLPC  C21120731   0.876   5.168   9.795  0.3624 -1.0957  0.9648
  181SLPC  H11R20732   0.822   5.264   9.805  1.7257 -0.4050  1.9290
  181SLPC  H11S20733   0.812   5.079   9.780  0.1528 -0.6609 -0.8785
  181SLPC  C21220734   0.975   5.179   9.683 -0.0626 -0.3418  0.0074
  181SLPC  H12R20735   1.063   5.114   9.674 -0.1301 -0.6163  1.3295
  181SLPC  C21320736   0.967   5.263   9.577 -0.6289  0.0108  0.2589
  181SLPC  H13R20737   1.044   5.253   9.499 -3.0599  0.3833 -2.2479
  181SLPC  C21420738   0.866   5.370   9.541  0.2176 -0.2490 -0.4359
  181SLPC  H14R20739   0.919   5.467   9.547 -2.5645  1.2737  0.2885
  181SLPC  H14S20740   0.787   5.367   9.619  0.2464 -1.0906 -0.4310
  181SLPC  C21520741   0.787   5.343   9.401 -0.3040  0.0984 -0.7330
  181SLPC  H15R20742   0.710   5.423   9.391 -0.2242  0.1072 -1.3023
  181SLPC  H15S20743   0.736   5.244   9.405 -1.3222  0.6761  1.1468
  181SLPC  C21620744   0.880   5.366   9.272  1.6860  0.0183 -1.1291
  181SLPC  H16R20745   0.958   5.289   9.285  1.1654 -0.1205  1.6445
  181SLPC  H16S20746   0.909   5.473   9.264 -0.2331  1.1102  3.9890
  181SLPC  C21720747   0.799   5.351   9.139  0.1488 -0.0813  0.6728
  181SLPC  H17R20748   0.725   5.432   9.116  0.4995 -0.4766 -1.9522
  181SLPC  H17S20749   0.745   5.254   9.141  0.8740 -0.4866  4.2355
  181SLPC  C21820750   0.894   5.356   9.013  0.0324 -0.2178 -0.2326
  181SLPC  H18R20751   0.905   5.461   8.979  0.9849 -0.2823 -0.1532
  181SLPC  H18S20752   0.840   5.297   8.936  0.2897 -2.0113  0.9227
  181SLPC  H18T20753   0.996   5.313   9.027 -0.1836 -0.7882 -0.3692
  181SLPC   C3320754   1.295   5.252  10.597  0.2817  0.0304 -0.0474
  181SLPC   H3X20755   1.340   5.221  10.694 -2.1471 -0.1162  1.0753
  181SLPC   H3Y20756   1.322   5.359  10.582 -1.4830  0.6225  0.7937
  181SLPC   C3420757   1.372   5.164  10.495  0.3715 -0.1283 -0.0303
  181SLPC   H4X20758   1.356   5.058  10.523 -1.4171  0.2215  0.2997
  181SLPC   H4Y20759   1.481   5.185  10.503  0.6074 -1.6341  0.9421
  181SLPC   C3520760   1.328   5.176  10.350 -0.1174 -0.2253  0.6847
  181SLPC   H5X20761   1.339   5.285  10.331 -2.5146  0.2711  1.9580
  181SLPC   H5Y20762   1.218   5.157  10.346  0.1475 -1.7134  0.3791
  181SLPC   C3620763   1.409   5.085  10.259  0.6689 -0.0936  0.2619
  181SLPC   H6X20764   1.383   4.983  10.295  1.1390  0.0647  1.0667
  181SLPC   H6Y20765   1.517   5.100  10.280  1.6879 -3.3017 -2.1715
  181SLPC   C3720766   1.380   5.107  10.113  0.2393 -0.3246 -0.2693
  181SLPC   H7X20767   1.270   5.121  10.108  0.1770 -1.0955 -1.2101
  181SLPC   H7Y20768   1.406   5.018  10.052 -2.2997 -2.0764  1.1300
  181SLPC   C3820769   1.434   5.238  10.053 -0.3552  0.1271 -0.0012
  181SLPC   H8X20770   1.545   5.244  10.057 -0.4689  3.0502 -0.3239
  181SLPC   H8Y20771   1.408   5.316  10.128  0.8961 -1.6365  2.3481
  181SLPC   C3920772   1.385   5.265   9.910  0.1689 -0.5694 -0.1809
  181SLPC   H9X20773   1.418   5.368   9.883  0.3401 -0.4413  0.5145
  181SLPC   H9Y20774   1.276   5.247   9.899  0.1319  1.0913 -3.2278
  181SLPC  C31020775   1.459   5.174   9.807 -0.3407 -0.4915  0.0429
  181SLPC  H10X20776   1.444   5.068   9.840  0.7261 -0.8127 -0.4901
  181SLPC  H10Y20777   1.568   5.190   9.801 -0.5000  0.7803  0.6373
  181SLPC  C31120778   1.396   5.181   9.670  0.3941  0.8640  0.2680
  181SLPC  H11X20779   1.412   5.285   9.635  0.4306  1.2583  1.4573
  181SLPC  H11Y20780   1.286   5.162   9.670  1.0181 -3.4043 -0.9373
  181SLPC  C31220781   1.446   5.098   9.559 -0.2598 -0.3822  0.4795
  181SLPC  H12X20782   1.450   4.988   9.578  4.4455 -0.1892  1.1895
  181SLPC  H12Y20783   1.552   5.116   9.534 -0.3539  0.7409  0.8756
  181SLPC  C31320784   1.378   5.126   9.422  0.5559 -0.1520  0.0782
  181SLPC  H13X20785   1.378   5.232   9.390  1.7243 -0.1680 -0.0177
  181SLPC  H13Y20786   1.271   5.095   9.425  1.0946 -1.9277  1.8351
  181SLPC  C31420787   1.458   5.043   9.318  0.0450  0.3775 -0.2831
  181SLPC  H14X20788   1.450   4.942   9.364 -0.1660  1.4167  2.0751
  181SLPC  H14Y20789   1.561   5.081   9.297  0.6235 -0.9583  0.0801
  181SLPC  C31520790   1.387   5.050   9.182  0.4488 -0.5679  0.2245
  181SLPC  H15X20791   1.377   5.153   9.139 -0.4600 -0.0856  1.5663
  181SLPC  H15Y20792   1.279   5.026   9.198 -0.2088  0.2636 -2.6241
  181SLPC  C31620793   1.447   4.946   9.082  1.3278  0.1387 -0.0120
  181SLPC  H16X20794   1.467   4.850   9.133  0.4390 -0.1496 -0.1886
  181SLPC  H16Y20795   1.542   4.981   9.037  0.2867  0.6115 -1.9219
  181SLPC  C31720796   1.353   4.918   8.965 -0.2252  0.3374 -0.6215
  181SLPC  H17X20797   1.279   4.844   9.003  1.4466 -0.1746  1.8053
  181SLPC  H17Y20798   1.408   4.856   8.891  2.4404  0.5636  1.1256
  181SLPC  C31820799   1.291   5.038   8.899  0.0352 -0.1216 -0.5338
  181SLPC  H18X20800   1.250   5.111   8.971  1.5137  1.4368 -1.2512
  181SLPC  H18Y20801   1.213   4.999   8.830  0.4608 -0.8649 -0.6143
  181SLPC  H18Z20802   1.364   5.091   8.833  1.6776  0.5443  1.7516
  182SLPC     N20803   6.458   6.702  11.176 -0.6316  0.7083  0.5500
  182SLPC   C1320804   6.321   6.753  11.194 -0.3491 -0.5344 -0.7445
  182SLPC  H13A20805   6.272   6.741  11.098  1.2029 -1.5531 -1.4220
  182SLPC  H13B20806   6.269   6.701  11.273 -1.0154  0.0527 -0.7939
  182SLPC  H13C20807   6.318   6.860  11.207 -0.1681 -0.6891  0.5497
  182SLPC   C1420808   6.452   6.553  11.176  0.0157 -0.7214  0.4452
  182SLPC  H14A20809   6.547   6.508  11.199  0.0525 -1.5436 -1.3060
  182SLPC  H14B20810   6.384   6.510  11.249 -0.9800 -1.3892 -0.8500
  182SLPC  H14C20811   6.413   6.520  11.081  1.7383 -1.4922 -0.0082
  182SLPC   C1520812   6.542   6.743  11.300 -0.0882  0.1239 -0.0501
  182SLPC  H15A20813   6.574   6.846  11.292 -2.5239  0.8404 -1.1371
  182SLPC  H15B20814   6.475   6.725  11.382 -0.1776 -0.6616 -0.2965
  182SLPC  H15C20815   6.625   6.675  11.311 -0.6906 -0.7885 -0.9974
  182SLPC   C1220816   6.534   6.748  11.049 -0.2735 -0.7672 -0.7243
  182SLPC  H12A20817   6.639   6.729  11.065  0.1314  3.0217  1.6281
  182SLPC  H12B20818   6.527   6.855  11.046 -3.8418 -0.9718 -1.2486
  182SLPC   C1120819   6.498   6.688  10.911  0.1488 -0.3387 -0.1553
  182SLPC  H11A20820   6.544   6.586  10.906 -0.5165 -0.6288 -0.3845
  182SLPC  H11B20821   6.549   6.744  10.830 -0.0242 -1.5989 -1.1531
  182SLPC     P20822   6.286   6.595  10.786 -0.0341 -0.0175  0.3099
  182SLPC   O1320823   6.294   6.454  10.834  0.3079 -0.0778  0.2797
  182SLPC   O1420824   6.147   6.627  10.746  0.6633 -0.3236 -0.5915
  182SLPC   O1220825   6.357   6.692  10.891 -0.0455  0.1809  0.6666
  182SLPC   O1120826   6.365   6.599  10.657  0.1966 -0.3226  0.0434
  182SLPC    C120827   6.412   6.719  10.582  0.5039 -0.0705 -0.3379
  182SLPC    HA20828   6.426   6.810  10.644 -0.2368 -0.7714  0.8801
  182SLPC    HB20829   6.503   6.696  10.523 -0.3646  0.2699 -1.8668
  182SLPC    C220830   6.305   6.746  10.467  0.5470  0.2235  0.0068
  182SLPC    HS20831   6.201   6.737  10.503  0.6351 -0.6204  0.0700
  182SLPC   O2120832   6.332   6.656  10.358 -0.1540  0.0847  0.6222
  182SLPC   C2120833   6.249   6.560  10.333 -0.2707  0.4879  0.2966
  182SLPC   O2220834   6.146   6.539  10.394  0.0498 -0.1308 -0.5733
  182SLPC   C2220835   6.312   6.465  10.230  0.4262  0.5262  0.2496
  182SLPC   H2R20836   6.324   6.516  10.133  0.7611 -2.3752 -1.3071
  182SLPC   H2S20837   6.416   6.449  10.267  0.4059 -0.8286 -0.2639
  182SLPC    C320838   6.320   6.893  10.412 -0.5147  0.6891 -0.7218
  182SLPC    HX20839   6.425   6.914  10.384 -0.7948  1.6734 -1.0577
  182SLPC    HY20840   6.294   6.954  10.502 -0.2123  0.5166 -0.5154
  182SLPC   O3120841   6.233   6.917  10.300 -0.1162  0.5003  0.1893
  182SLPC   C3120842   6.148   7.019  10.316 -0.0629 -0.1127 -0.1569
  182SLPC   O3220843   6.149   7.086  10.415 -0.3476 -0.0626 -0.5825
  182SLPC   C3220844   6.065   7.042  10.194  0.7830 -0.4209 -0.0407
  182SLPC   H2X20845   6.115   7.115  10.126 -1.5477  0.1966 -1.1334
  182SLPC   H2Y20846   5.972   7.090  10.231  0.7115 -1.0769  0.6529
  182SLPC   C2320847   6.233   6.338  10.208  0.3325 -0.5170  0.0757
  182SLPC   H3R20848   6.220   6.279  10.301 -0.5039  1.4988  1.2629
  182SLPC   H3S20849   6.288   6.279  10.131  3.4923  1.4086  0.7541
  182SLPC   C2420850   6.099   6.359  10.130 -0.2802 -0.2744  0.0468
  182SLPC   H4R20851   6.138   6.394  10.032 -0.3966 -1.7339 -0.5354
  182SLPC   H4S20852   6.033   6.439  10.171 -0.5579 -0.2244 -0.4920
  182SLPC   C2520853   6.027   6.222  10.105 -0.8646  0.5743 -0.2676
  182SLPC   H5R20854   5.936   6.246  10.046 -1.1586  0.3095  0.0760
  182SLPC   H5S20855   5.987   6.195  10.205 -0.1175  1.4729  0.2942
  182SLPC   C2620856   6.107   6.112  10.047 -0.4570  0.2267 -0.3670
  182SLPC   H6R20857   6.057   6.013  10.052 -2.0124  1.0829  2.1182
  182SLPC   H6S20858   6.200   6.100  10.106 -0.8588  1.3797  0.5252
  182SLPC   C2720859   6.159   6.145   9.904  0.0902  0.2559 -0.0325
  182SLPC   H7R20860   6.243   6.214   9.926  1.9307 -2.1443  0.7151
  182SLPC   H7S20861   6.076   6.193   9.848 -0.9853  1.0701  2.2045
  182SLPC   C2820862   6.203   6.020   9.817  0.2832  0.0182  0.1902
  182SLPC   H8R20863   6.115   5.954   9.800 -0.1366 -0.0979  2.6764
  182SLPC   H8S20864   6.280   5.955   9.863  1.8769 -1.1727 -3.9211
  182SLPC   C2920865   6.252   6.069   9.675  0.1667 -0.0809 -0.2171
  182SLPC   H9R20866   6.351   6.115   9.685  0.3607 -0.1794 -1.6018
  182SLPC  C21020867   6.206   6.044   9.553 -0.1512 -0.1780 -0.5925
  182SLPC  H10R20868   6.257   6.100   9.473  0.4642  2.3889  1.5279
  182SLPC  C21120869   6.077   5.987   9.507  0.0215 -0.0288 -0.0826
  182SLPC  H11R20870   6.017   6.064   9.454  1.4502  0.8590 -0.4330
  182SLPC  H11S20871   6.018   5.969   9.599 -0.3301 -2.3899 -0.7255
  182SLPC  C21220872   6.090   5.856   9.431  0.2882 -0.0411  0.2935
  182SLPC  H12R20873   6.165   5.790   9.477  2.3778  0.3768 -2.3913
  182SLPC  C21320874   6.016   5.811   9.332 -0.6254  0.1300  0.2078
  182SLPC  H13R20875   6.027   5.712   9.286 -2.2514 -0.3138  0.7395
  182SLPC  C21420876   5.898   5.873   9.259  0.0124  1.0431 -0.5745
  182SLPC  H14R20877   5.866   5.959   9.321 -1.9421  0.2270 -0.4260
  182SLPC  H14S20878   5.816   5.800   9.245 -1.1578  1.9616  1.1835
  182SLPC  C21520879   5.931   5.941   9.118  0.1581  0.2023 -0.7617
  182SLPC  H15R20880   6.004   6.025   9.126  1.8686 -1.2993 -0.3717
  182SLPC  H15S20881   5.839   5.997   9.091 -0.6167 -0.7241 -0.0869
  182SLPC  C21620882   5.960   5.846   9.006  0.5589 -0.5369 -0.0894
  182SLPC  H16R20883   5.881   5.772   8.979  1.9544 -1.8935 -0.5478
  182SLPC  H16S20884   6.048   5.783   9.035 -0.1507 -0.9546  1.1912
  182SLPC  C21720885   5.987   5.935   8.882 -0.3207  0.5846 -0.4628
  182SLPC  H17R20886   6.069   6.005   8.908  1.0010 -1.2065  0.3788
  182SLPC  H17S20887   5.898   5.999   8.867 -0.4181  1.0809  1.9305
  182SLPC  C21820888   6.026   5.852   8.761 -0.9270  0.7670  0.2306
  182SLPC  H18R20889   6.084   5.762   8.790 -1.9275  1.0232  3.1867
  182SLPC  H18S20890   6.082   5.912   8.686 -1.1996  1.3102  0.4564
  182SLPC  H18T20891   5.929   5.817   8.720 -0.4155  1.4228 -1.5928
  182SLPC   C3320892   6.034   6.915  10.112  0.0416  0.2100  0.0752
  182SLPC   H3X20893   5.934   6.921  10.064  0.5675  1.8604 -0.8847
  182SLPC   H3Y20894   6.038   6.829  10.182 -0.0447  0.0493 -0.1160
  182SLPC   C3420895   6.140   6.879  10.003  0.1113 -1.0252 -0.0844
  182SLPC   H4X20896   6.244   6.882  10.043 -0.2521  0.6702  0.7496
  182SLPC   H4Y20897   6.133   6.953   9.920 -0.2726 -0.2936  0.6022
  182SLPC   C3520898   6.134   6.727   9.962 -0.2360  0.2288 -0.6019
  182SLPC   H5X20899   6.025   6.707   9.956 -0.2808 -0.1331  1.2425
  182SLPC   H5Y20900   6.186   6.661  10.035 -1.6319 -0.3189 -0.0855
  182SLPC   C3620901   6.188   6.697   9.819  0.0140 -0.2306  0.3816
  182SLPC   H6X20902   6.285   6.748   9.802  0.0184 -0.6995 -1.0694
  182SLPC   H6Y20903   6.117   6.733   9.741  1.6530  1.5489 -0.3077
  182SLPC   C3720904   6.207   6.543   9.801 -0.1979 -0.8590  0.4184
  182SLPC   H7X20905   6.115   6.481   9.815  0.5596 -1.9378  0.6344
  182SLPC   H7Y20906   6.273   6.507   9.882 -0.9284 -0.2509  1.2982
  182SLPC   C3820907   6.262   6.502   9.659  0.2182 -0.0321 -0.5373
  182SLPC   H8X20908   6.312   6.405   9.682 -0.1811 -0.1253 -0.0404
  182SLPC   H8Y20909   6.321   6.587   9.620  1.4137 -1.1703 -1.2407
  182SLPC   C3920910   6.141   6.480   9.561 -0.2254 -0.2543 -0.4136
  182SLPC   H9X20911   6.077   6.570   9.562 -0.3018 -0.3071 -0.7903
  182SLPC   H9Y20912   6.072   6.398   9.590  0.9106 -1.5177 -1.2177
  182SLPC  C31020913   6.187   6.431   9.418  0.8108 -0.5213 -0.1988
  182SLPC  H10X20914   6.157   6.511   9.347  1.0572 -0.8107 -0.6265
  182SLPC  H10Y20915   6.132   6.336   9.407 -1.9331  1.0672 -0.6308
  182SLPC  C31120916   6.337   6.413   9.393  0.5357 -0.2774  0.2066
  182SLPC  H11X20917   6.381   6.324   9.444 -0.0247 -0.1373  0.9455
  182SLPC  H11Y20918   6.377   6.507   9.436  0.0637 -0.0899  0.2288
  182SLPC  C31220919   6.378   6.406   9.245 -0.8681 -0.4493 -0.2153
  182SLPC  H12X20920   6.487   6.422   9.238 -1.0716  1.2331  0.1919
  182SLPC  H12Y20921   6.337   6.489   9.182  3.2465  1.1803 -0.9242
  182SLPC  C31320922   6.332   6.281   9.174 -0.6979 -0.8645  0.6015
  182SLPC  H13X20923   6.223   6.265   9.189 -1.0763 -0.9337 -2.0686
  182SLPC  H13Y20924   6.381   6.186   9.205  0.8837 -1.0086 -2.1366
  182SLPC  C31420925   6.361   6.302   9.022  0.1803  0.0600 -0.5340
  182SLPC  H14X20926   6.466   6.302   8.988 -0.1107  0.1111 -1.4519
  182SLPC  H14Y20927   6.309   6.394   8.987 -0.3137  1.0451  2.6186
  182SLPC  C31520928   6.277   6.199   8.941  0.0718  0.7044 -0.0467
  182SLPC  H15X20929   6.170   6.198   8.971 -0.0479 -0.1367 -0.4979
  182SLPC  H15Y20930   6.314   6.099   8.970 -2.2407 -0.0414  0.4489
  182SLPC  C31620931   6.286   6.212   8.790 -0.6651 -0.0618  0.3068
  182SLPC  H16X20932   6.278   6.111   8.744  1.1840 -0.0438 -0.0862
  182SLPC  H16Y20933   6.392   6.235   8.767 -1.3492  1.3458 -1.5885
  182SLPC  C31720934   6.193   6.313   8.725  1.0825 -0.1436  0.0992
  182SLPC  H17X20935   6.197   6.419   8.758  0.4001 -0.4682  1.2509
  182SLPC  H17Y20936   6.092   6.299   8.770  0.5036 -0.4628 -1.2561
  182SLPC  C31820937   6.206   6.305   8.575  0.3237 -0.0273 -0.5309
  182SLPC  H18X20938   6.136   6.367   8.516 -0.1010  1.7002  1.7059
  182SLPC  H18Y20939   6.198   6.202   8.535  1.1540  0.2554 -1.4497
  182SLPC  H18Z20940   6.303   6.350   8.543 -1.1555  2.4644 -1.6877
  183SLPC     N20941   0.863   0.256  11.200  0.4759  0.5146  0.0333
  183SLPC   C1320942   0.860   0.103  11.155  0.0354 -0.1364 -0.2613
  183SLPC  H13A20943   0.793   0.054  11.223 -0.5033  2.3115  1.0560
  183SLPC  H13B20944   0.828   0.094  11.053 -1.5136  0.4034  0.1675
  183SLPC  H13C20945   0.960   0.065  11.173 -0.5570 -1.5920  0.0225
  183SLPC   C1420946   0.946   0.269  11.322  0.6651  0.1651 -0.3674
  183SLPC  H14A20947   0.941   0.361  11.379 -0.7738  2.0095 -3.3622
  183SLPC  H14B20948   0.918   0.197  11.398 -0.5360  1.2266  0.2037
  183SLPC  H14C20949   1.049   0.266  11.290 -0.3774 -1.1569 -3.8476
  183SLPC   C1520950   0.725   0.302  11.224  0.6718 -0.4165  0.2443
  183SLPC  H15A20951   0.677   0.252  11.307  0.4167  0.5708  0.6952
  183SLPC  H15B20952   0.723   0.409  11.241  1.3795 -0.2129 -0.8791
  183SLPC  H15C20953   0.662   0.276  11.140 -0.0898  0.5150  0.5164
  183SLPC   C1220954   0.913   0.347  11.092 -0.5454 -0.4478  0.1201
  183SLPC  H12A20955   0.880   0.448  11.108 -1.8366 -0.9358  0.5948
  183SLPC  H12B20956   0.858   0.324  11.002  0.2971  1.0439 -0.7959
  183SLPC   C1120957   1.064   0.342  11.048 -0.5050  0.2153  0.0462
  183SLPC  H11A20958   1.112   0.244  11.065 -1.3381 -0.5948 -2.0607
  183SLPC  H11B20959   1.122   0.408  11.116  0.8725  0.8152 -1.6753
  183SLPC     P20960   1.094   0.543  10.883  0.0789  0.3764 -0.4125
  183SLPC   O1320961   1.163   0.612  10.992 -0.2990  0.4313  0.2277
  183SLPC   O1420962   1.144   0.566  10.751 -0.5257 -0.0059 -0.1413
  183SLPC   O1220963   1.082   0.388  10.916 -0.0181 -0.3805 -0.0309
  183SLPC   O1120964   0.944   0.581  10.892 -0.2625 -0.8764  0.5912
  183SLPC    C120965   0.890   0.710  10.862  0.1769 -0.3378 -0.0340
  183SLPC    HA20966   0.827   0.737  10.950  1.0180  0.9660  0.1880
  183SLPC    HB20967   0.969   0.788  10.856 -0.2228  0.0393 -0.4321
  183SLPC    C220968   0.798   0.699  10.739 -0.0492 -0.4133 -0.2334
  183SLPC    HS20969   0.722   0.623  10.768  1.2735 -0.9333  1.9752
  183SLPC   O2120970   0.875   0.657  10.628 -0.0559  0.4748  0.4038
  183SLPC   C2120971   0.839   0.552  10.562  0.7808 -0.4471 -0.1840
  183SLPC   O2220972   0.729   0.494  10.572 -0.4655 -0.4075  0.6173
  183SLPC   C2220973   0.946   0.528  10.459 -0.2022  0.5083 -0.5031
  183SLPC   H2R20974   0.989   0.623  10.421 -0.7900  0.4313 -1.3752
  183SLPC   H2S20975   1.033   0.475  10.504 -0.5945 -0.3168 -0.7055
  183SLPC    C320976   0.721   0.828  10.712 -0.1062 -0.3510  0.0372
  183SLPC    HX20977   0.796   0.907  10.690 -0.3060 -0.8093 -2.4999
  183SLPC    HY20978   0.688   0.862  10.812 -1.5847 -1.8459  0.0788
  183SLPC   O3120979   0.611   0.820  10.615  0.2354  0.5988 -0.8443
  183SLPC   C3120980   0.647   0.866  10.500 -0.6625  0.2364  0.1137
  183SLPC   O3220981   0.757   0.919  10.480 -0.3107 -0.1206  0.5417
  183SLPC   C3220982   0.536   0.847  10.401 -0.3590 -1.1590  0.8128
  183SLPC   H2X20983   0.453   0.914  10.431  2.2715  1.7771  1.8587
  183SLPC   H2Y20984   0.487   0.747  10.405 -0.5131 -1.2093 -1.6452
  183SLPC   C2320985   0.898   0.455  10.329 -0.1279  0.3038  0.0738
  183SLPC   H3R20986   0.837   0.528  10.271  0.9569 -0.2588 -1.8138
  183SLPC   H3S20987   0.825   0.377  10.358 -0.4127  1.2857  2.1475
  183SLPC   C2420988   1.006   0.408  10.236  0.2667  0.4827 -0.4046
  183SLPC   H4R20989   1.063   0.323  10.280  0.9385  0.5837 -1.0685
  183SLPC   H4S20990   1.080   0.491  10.226  1.8177 -0.8154 -0.0320
  183SLPC   C2520991   0.973   0.381  10.091 -0.3730 -0.1596  0.4399
  183SLPC   H5R20992   0.950   0.473  10.033  0.4220  0.2949  0.8530
  183SLPC   H5S20993   0.888   0.308  10.089 -0.7302  0.2602 -2.4787
  183SLPC   C2620994   1.092   0.323  10.016 -0.4048  0.2623  0.1864
  183SLPC   H6R20995   1.134   0.232  10.063  1.7618  0.1059 -1.9414
  183SLPC   H6S20996   1.176   0.395  10.006  1.1701 -1.4356  0.9561
  183SLPC   C2720997   1.058   0.275   9.870  0.5026 -0.5157 -0.0396
  183SLPC   H7R20998   0.975   0.203   9.882 -0.4574  0.6524  0.4812
  183SLPC   H7S20999   1.143   0.222   9.821  0.4115  0.6770 -1.5483
  183SLPC   C2821000   1.035   0.394   9.774  0.5803 -0.1856  0.2925
  183SLPC   H8R21001   1.127   0.451   9.750  1.8004 -1.4696  1.7920
  183SLPC   H8S21002   0.961   0.465   9.817  0.9039  0.6645 -0.5490
  183SLPC   C2921003   0.974   0.345   9.641 -0.7960  0.4053 -0.1400
  183SLPC   H9R21004   0.877   0.294   9.641  0.5497 -2.2897  2.1021
  183SLPC  C21021005   1.032   0.362   9.514  0.7034  0.3565  0.6951
  183SLPC  H10R21006   0.983   0.327   9.422  0.8488  0.9848  0.3724
  183SLPC  C21121007   1.160   0.442   9.485  0.9378  0.8587  0.3049
  183SLPC  H11R21008   1.214   0.472   9.578  1.2348  1.7673 -0.1628
  183SLPC  H11S21009   1.142   0.536   9.429  2.2437  1.4958  0.9175
  183SLPC  C21221010   1.265   0.368   9.410 -0.7907 -0.4818  1.5799
  183SLPC  H12R21011   1.361   0.346   9.460  1.2180  0.0948 -1.8911
  183SLPC  C21321012   1.264   0.331   9.278 -0.8644 -0.5674 -0.7742
  183SLPC  H13R21013   1.350   0.277   9.235 -0.7967 -2.6710  1.8961
  183SLPC  C21421014   1.154   0.361   9.188  0.4794  0.3295 -0.1078
  183SLPC  H14R21015   1.120   0.466   9.185  0.8627  0.4529 -0.1333
  183SLPC  H14S21016   1.069   0.302   9.229  1.0637 -1.1490 -0.9700
  183SLPC  C21521017   1.177   0.323   9.037 -0.7351  0.2905 -0.2964
  183SLPC  H15R21018   1.179   0.212   9.029 -0.3682  0.1931  0.9463
  183SLPC  H15S21019   1.277   0.366   9.014 -0.3185  0.0172  0.9425
  183SLPC  C21621020   1.071   0.384   8.946  0.7565 -0.6909  0.1242
  183SLPC  H16R21021   1.088   0.493   8.931  1.0066 -0.9771 -1.8187
  183SLPC  H16S21022   0.967   0.369   8.983  0.8003 -2.0079 -0.2687
  183SLPC  C21721023   1.092   0.313   8.812 -0.3748  0.2797 -0.4524
  183SLPC  H17R21024   1.004   0.337   8.749 -1.5298  0.5623  1.2130
  183SLPC  H17S21025   1.094   0.204   8.831  1.0739  0.6556  1.7329
  183SLPC  C21821026   1.214   0.360   8.738 -0.5539 -0.0997 -0.2140
  183SLPC  H18R21027   1.229   0.301   8.645  0.8494 -1.5528  0.9123
  183SLPC  H18S21028   1.305   0.336   8.797  1.1106  0.0177 -2.6634
  183SLPC  H18T21029   1.201   0.464   8.700  1.9056  0.1058 -0.5891
  183SLPC   C3321030   0.577   0.877  10.258 -0.2713  0.1475  0.0965
  183SLPC   H3X21031   0.484   0.849  10.206 -0.2443 -0.1923  0.2308
  183SLPC   H3Y21032   0.652   0.802  10.224 -0.4448 -1.0674  2.3015
  183SLPC   C3421033   0.608   1.017  10.208  0.4493 -0.0884  0.1276
  183SLPC   H4X21034   0.708   1.038  10.254  0.2115  0.1173  0.5554
  183SLPC   H4Y21035   0.529   1.086  10.244  0.9056  1.4138 -1.6977
  183SLPC   C3521036   0.604   1.035  10.055 -0.5250 -0.1436  0.9483
  183SLPC   H5X21037   0.509   0.994  10.015 -0.5789  1.3516 -0.5211
  183SLPC   H5Y21038   0.694   0.989  10.009  0.3935  1.5737  0.9993
  183SLPC   C3621039   0.617   1.180  10.015  0.0423  0.3231  0.1280
  183SLPC   H6X21040   0.708   1.227  10.058 -2.3684  2.8155  2.7743
  183SLPC   H6Y21041   0.529   1.234  10.057  0.2371  0.0540  0.8970
  183SLPC   C3721042   0.619   1.196   9.862 -0.1885  0.3371 -0.4049
  183SLPC   H7X21043   0.531   1.155   9.809  1.1007 -0.1968 -2.1475
  183SLPC   H7Y21044   0.707   1.140   9.826  0.5856  0.6220  0.9778
  183SLPC   C3821045   0.643   1.345   9.823  0.5542  0.5319  0.8513
  183SLPC   H8X21046   0.748   1.377   9.841  0.2631  0.4542  2.7720
  183SLPC   H8Y21047   0.595   1.406   9.903  0.8003 -0.6816  1.9336
  183SLPC   C3921048   0.583   1.372   9.683 -0.2179  0.4560 -0.0699
  183SLPC   H9X21049   0.589   1.481   9.664 -1.3954  0.3858 -0.9361
  183SLPC   H9Y21050   0.476   1.343   9.689 -0.4440  0.8953 -1.6904
  183SLPC  C31021051   0.659   1.315   9.561 -0.4865 -0.0908  0.0117
  183SLPC  H10X21052   0.665   1.205   9.577  2.1589 -0.1066 -0.9091
  183SLPC  H10Y21053   0.760   1.359   9.551 -0.9500  1.0961  0.4726
  183SLPC  C31121054   0.579   1.327   9.429 -0.2185  0.1337  0.3261
  183SLPC  H11X21055   0.544   1.432   9.420  0.2759  0.4587  2.1041
  183SLPC  H11Y21056   0.493   1.257   9.438 -0.5018  0.5115  0.5456
  183SLPC  C31221057   0.641   1.304   9.284 -0.0880  0.0457  0.6157
  183SLPC  H12X21058   0.730   1.370   9.281  0.0665 -0.1982 -0.4883
  183SLPC  H12Y21059   0.565   1.332   9.208 -0.5787  2.6137  2.0161
  183SLPC  C31321060   0.681   1.158   9.261  0.9460  0.0749 -0.5970
  183SLPC  H13X21061   0.634   1.099   9.343  1.7022  2.2927  1.5035
  183SLPC  H13Y21062   0.789   1.152   9.287  0.6862  0.7902  0.6803
  183SLPC  C31421063   0.668   1.102   9.127  0.1821  0.5854  0.3060
  183SLPC  H14X21064   0.737   1.155   9.058 -1.4360 -0.8750 -2.5115
  183SLPC  H14Y21065   0.570   1.127   9.082  1.3719  1.1908 -2.0333
  183SLPC  C31521066   0.684   0.950   9.120  0.6231  0.6786  0.5466
  183SLPC  H15X21067   0.603   0.906   9.183  0.0029 -0.1425 -0.7947
  183SLPC  H15Y21068   0.784   0.919   9.159  1.4882  1.1392 -1.2566
  183SLPC  C31621069   0.667   0.891   8.974  0.1960 -0.9215  0.1618
  183SLPC  H16X21070   0.748   0.934   8.912 -1.5072  1.0303 -0.7755
  183SLPC  H16Y21071   0.566   0.920   8.938  0.2713 -0.8298  0.0269
  183SLPC  C31721072   0.677   0.741   8.979 -0.4322 -0.3406 -0.0581
  183SLPC  H17X21073   0.637   0.702   8.883 -1.4089  1.1403 -0.2694
  183SLPC  H17Y21074   0.611   0.706   9.061  1.8002 -0.9826  1.5113
  183SLPC  C31821075   0.821   0.683   9.002 -0.3631 -0.5824 -0.2443
  183SLPC  H18X21076   0.848   0.719   9.104  0.3479 -5.1034  1.2597
  183SLPC  H18Y21077   0.889   0.725   8.925 -1.6375 -0.3108 -1.2343
  183SLPC  H18Z21078   0.812   0.573   9.008 -0.6926 -0.5604 -0.3127
  184SLPC     N21079   2.571   5.073  10.979  0.7944 -0.0506  0.1125
  184SLPC   C1321080   2.543   5.214  11.023 -0.0088 -0.3209 -0.1267
  184SLPC  H13A21081   2.457   5.255  10.973  1.3417  0.9945 -1.4345
  184SLPC  H13B21082   2.527   5.215  11.129  1.8771  2.3497  0.1853
  184SLPC  H13C21083   2.623   5.279  10.991 -0.3492  0.4112  0.5095
  184SLPC   C1421084   2.458   4.977  11.019  0.6091 -0.6001 -0.4037
  184SLPC  H14A21085   2.460   4.970  11.127  0.6083  1.0188 -0.2796
  184SLPC  H14B21086   2.363   5.014  10.983 -1.0901 -3.0448  1.3738
  184SLPC  H14C21087   2.470   4.875  10.985  1.7057 -0.3261 -0.8303
  184SLPC   C1521088   2.694   5.031  11.046 -0.2213 -0.2925  0.3180
  184SLPC  H15A21089   2.712   4.926  11.033  1.3323  0.1677 -1.6208
  184SLPC  H15B21090   2.776   5.091  11.009  1.5394 -2.1711  1.0510
  184SLPC  H15C21091   2.682   5.050  11.151 -2.2641  0.0390  0.0298
  184SLPC   C1221092   2.580   5.072  10.829 -0.5093  0.3128 -0.0031
  184SLPC  H12A21093   2.643   5.157  10.805  1.3161 -1.4541 -1.6627
  184SLPC  H12B21094   2.491   5.104  10.778  0.4831  2.7463 -0.2702
  184SLPC   C1121095   2.646   4.954  10.768  0.9198  0.0576 -0.4713
  184SLPC  H11A21096   2.580   4.866  10.784 -1.5956  1.7387 -1.3296
  184SLPC  H11B21097   2.745   4.944  10.817  0.9738  1.4299 -0.2838
  184SLPC     P21098   2.792   4.984  10.554 -0.2190 -0.1243 -0.0178
  184SLPC   O1321099   2.863   5.113  10.594  0.3462  0.5165 -0.1445
  184SLPC   O1421100   2.853   4.856  10.593  0.1555  0.1057 -0.0789
  184SLPC   O1221101   2.656   4.986  10.625 -0.8853 -0.1731 -0.4593
  184SLPC   O1121102   2.763   4.978  10.398  0.3775  0.3643 -0.1647
  184SLPC    C121103   2.679   5.079  10.335 -0.3758 -0.7470  0.6401
  184SLPC    HA21104   2.588   5.092  10.397  1.9806  0.1607  4.0875
  184SLPC    HB21105   2.744   5.169  10.325 -2.0107  0.4797  0.7918
  184SLPC    C221106   2.638   5.029  10.193 -0.6843  0.5915 -0.1702
  184SLPC    HS21107   2.649   4.919  10.197 -1.2817  0.5703  1.7212
  184SLPC   O2121108   2.728   5.079  10.097  0.6169 -0.5029 -0.1782
  184SLPC   C2121109   2.736   5.006   9.985  0.6027 -0.0525  0.4009
  184SLPC   O2221110   2.684   4.895   9.963  0.4233 -0.5077  0.2944
  184SLPC   C2221111   2.831   5.088   9.891 -0.5302  0.0853 -0.1414
  184SLPC   H2R21112   2.762   5.167   9.855 -1.1371  0.0113  0.8586
  184SLPC   H2S21113   2.914   5.140   9.944  0.1272  0.3466 -1.3889
  184SLPC    C321114   2.501   5.082  10.156 -0.5998  0.3626 -0.2710
  184SLPC    HX21115   2.505   5.193  10.161  1.2917  0.2968 -0.1211
  184SLPC    HY21116   2.424   5.054  10.231 -0.5556 -0.4353 -0.5202
  184SLPC   O3121117   2.453   5.045  10.024 -0.0540  0.5087 -0.1773
  184SLPC   C3121118   2.376   4.934  10.014 -0.4513 -0.6044 -0.4651
  184SLPC   O3221119   2.316   4.880  10.107  0.1772  0.4068 -0.2940
  184SLPC   C3221120   2.362   4.914   9.864 -0.2190  1.2070 -0.1201
  184SLPC   H2X21121   2.466   4.897   9.829  0.5708  0.0535  2.6705
  184SLPC   H2Y21122   2.340   5.013   9.819 -1.0248  2.0332  2.0340
  184SLPC   C2321123   2.901   5.008   9.776 -0.0369 -0.0857 -0.8521
  184SLPC   H3R21124   2.927   5.090   9.706 -0.4971  0.3005 -0.5756
  184SLPC   H3S21125   2.820   4.950   9.725 -2.9370  0.4945  2.8386
  184SLPC   C2421126   3.016   4.919   9.825  1.0671 -0.0904 -0.7862
  184SLPC   H4R21127   2.977   4.826   9.873  0.1666  0.1257 -1.0942
  184SLPC   H4S21128   3.068   4.972   9.907 -0.6424  0.1487  0.1826
  184SLPC   C2521129   3.096   4.869   9.706 -0.9729 -0.4372  0.1880
  184SLPC   H5R21130   3.167   4.791   9.740 -1.1796 -0.7186 -0.0285
  184SLPC   H5S21131   3.160   4.952   9.669 -1.2861 -0.7130 -0.9720
  184SLPC   C2621132   3.007   4.807   9.592 -0.1667 -0.9778  0.0920
  184SLPC   H6R21133   3.075   4.771   9.512  1.7380 -1.3985  1.8676
  184SLPC   H6S21134   2.948   4.883   9.537 -0.5996 -2.0205 -0.8913
  184SLPC   C2721135   2.911   4.700   9.647 -0.3975 -0.3291  0.5784
  184SLPC   H7R21136   2.836   4.754   9.709 -1.8928  0.1237 -1.5393
  184SLPC   H7S21137   2.978   4.637   9.709  0.3250  0.6431  0.7952
  184SLPC   C2821138   2.835   4.624   9.538  0.0710  0.3538 -0.3667
  184SLPC   H8R21139   2.778   4.538   9.579  1.9531  0.8378  3.5018
  184SLPC   H8S21140   2.913   4.590   9.467  0.1100 -0.4831  0.0709
  184SLPC   C2921141   2.727   4.705   9.467  0.5612  0.1965 -0.7037
  184SLPC   H9R21142   2.671   4.760   9.544 -0.3430 -1.0216 -0.4717
  184SLPC  C21021143   2.700   4.715   9.333 -0.2092 -0.5948 -0.5016
  184SLPC  H10R21144   2.614   4.780   9.308  1.2160  1.8001  0.7272
  184SLPC  C21121145   2.766   4.644   9.214  0.5475  0.3456  0.1921
  184SLPC  H11R21146   2.685   4.648   9.138  0.4763 -4.1359 -0.1070
  184SLPC  H11S21147   2.798   4.542   9.244  1.6397  1.1972  1.9364
  184SLPC  C21221148   2.887   4.717   9.160 -0.4864 -0.3038  0.8791
  184SLPC  H12R21149   2.938   4.787   9.227 -0.3725  0.8455 -0.3673
  184SLPC  C21321150   2.940   4.678   9.044 -0.0091  0.5597 -0.3597
  184SLPC  H13R21151   3.037   4.716   9.010  0.6626 -1.3680 -0.6153
  184SLPC  C21421152   2.890   4.569   8.952 -0.4453 -0.6564  0.1999
  184SLPC  H14R21153   2.811   4.514   9.008 -1.9510 -1.7336 -2.8412
  184SLPC  H14S21154   2.971   4.498   8.926 -1.9419 -2.5053  0.4502
  184SLPC  C21521155   2.827   4.623   8.823 -0.4694  0.2351  0.2648
  184SLPC  H15R21156   2.778   4.719   8.846 -0.9416 -0.0909  0.6231
  184SLPC  H15S21157   2.752   4.549   8.786 -0.4384  0.5552 -0.4549
  184SLPC  C21621158   2.940   4.644   8.721 -0.0371  0.1729 -0.5769
  184SLPC  H16R21159   2.982   4.544   8.698  0.5254  0.1215  0.6499
  184SLPC  H16S21160   3.019   4.706   8.769  0.4142 -2.0040  1.6053
  184SLPC  C21721161   2.906   4.712   8.589  0.0601 -0.2604  0.0879
  184SLPC  H17R21162   2.854   4.809   8.609  2.4107  1.4241 -1.6827
  184SLPC  H17S21163   2.831   4.653   8.533  1.3108 -0.6833 -1.1754
  184SLPC  C21821164   3.026   4.743   8.498 -0.5238 -0.8626 -0.0014
  184SLPC  H18R21165   3.092   4.654   8.490  3.2173  1.6774  1.2867
  184SLPC  H18S21166   3.082   4.825   8.548 -2.5409  0.5568 -0.0179
  184SLPC  H18T21167   2.995   4.790   8.403  1.5747  0.2922 -0.1283
  184SLPC   C3321168   2.262   4.806   9.817 -0.0858 -0.6480 -0.0041
  184SLPC   H3X21169   2.161   4.849   9.831  0.0290 -0.1836 -0.6126
  184SLPC   H3Y21170   2.262   4.727   9.896  0.3973 -0.5222  0.1240
  184SLPC   C3421171   2.295   4.733   9.689  0.1972  0.4131 -0.0570
  184SLPC   H4X21172   2.218   4.657   9.665  0.1619  1.0089 -1.8698
  184SLPC   H4Y21173   2.396   4.686   9.691  0.5461  1.1833  1.2798
  184SLPC   C3521174   2.277   4.820   9.559 -0.8216 -0.6545 -0.0314
  184SLPC   H5X21175   2.349   4.902   9.575 -0.4076 -0.8258 -0.9718
  184SLPC   H5Y21176   2.176   4.866   9.554 -1.0988 -1.3976 -1.9939
  184SLPC   C3621177   2.320   4.748   9.435 -0.3609 -0.6133  0.0384
  184SLPC   H6X21178   2.235   4.677   9.428 -1.3018  0.6531 -1.6705
  184SLPC   H6Y21179   2.420   4.699   9.429  0.1121  0.3422 -0.0901
  184SLPC   C3721180   2.313   4.829   9.305  0.0635  0.3371  0.6236
  184SLPC   H7X21181   2.388   4.910   9.315 -0.1517  0.4769  1.1697
  184SLPC   H7Y21182   2.215   4.880   9.289  0.6082  1.2252  0.0908
  184SLPC   C3821183   2.348   4.740   9.182  0.0880  0.5350  0.7540
  184SLPC   H8X21184   2.258   4.680   9.158 -0.2318  0.0406  3.0419
  184SLPC   H8Y21185   2.429   4.666   9.191 -0.1560  0.1746 -0.0054
  184SLPC   C3921186   2.392   4.827   9.067 -0.1761 -0.6744  0.6630
  184SLPC   H9X21187   2.432   4.759   8.989  2.2258 -1.2167  2.3230
  184SLPC   H9Y21188   2.480   4.889   9.095 -0.0180 -0.1546 -0.9637
  184SLPC  C31021189   2.292   4.932   9.017 -0.3840 -0.8851 -0.5080
  184SLPC  H10X21190   2.336   4.991   8.934 -2.7918  2.4906  0.5003
  184SLPC  H10Y21191   2.283   5.003   9.102 -3.5385  0.3454 -1.7909
  184SLPC  C31121192   2.149   4.874   8.982 -0.0174  0.3988 -0.5075
  184SLPC  H11X21193   2.104   4.818   9.067  1.3104 -1.3988 -0.9599
  184SLPC  H11Y21194   2.172   4.805   8.898 -1.8736 -1.1975  0.2399
  184SLPC  C31221195   2.056   4.982   8.927 -0.5577  1.0138 -0.0216
  184SLPC  H12X21196   2.109   5.041   8.850  0.8464  0.1969  0.3102
  184SLPC  H12Y21197   2.030   5.051   9.011 -0.0343  0.1761  0.8273
  184SLPC  C31321198   1.922   4.938   8.871  0.1478 -0.1976  0.4985
  184SLPC  H13X21199   1.846   4.916   8.949  2.4318 -2.5724  2.1561
  184SLPC  H13Y21200   1.932   4.842   8.814 -1.4400 -1.4807  2.3076
  184SLPC  C31421201   1.859   5.043   8.769  0.1176 -0.0885 -1.1162
  184SLPC  H14X21202   1.928   5.070   8.686 -1.4170 -1.5379 -2.9083
  184SLPC  H14Y21203   1.826   5.142   8.809 -0.7313  0.1668 -2.4169
  184SLPC  C31521204   1.743   4.972   8.695 -0.0583  0.5090 -0.8011
  184SLPC  H15X21205   1.684   4.937   8.782 -0.3247  3.5954  0.3138
  184SLPC  H15Y21206   1.784   4.884   8.641 -0.2631  0.2767 -0.5764
  184SLPC  C31621207   1.647   5.062   8.613 -0.3378  0.8066  0.0430
  184SLPC  H16X21208   1.628   5.140   8.690  0.3439 -1.1756  2.2543
  184SLPC  H16Y21209   1.553   5.007   8.590 -0.3224  0.0395  1.7511
  184SLPC  C31721210   1.707   5.101   8.474  0.3785 -0.6075  0.2337
  184SLPC  H17X21211   1.774   5.019   8.439  0.9396 -0.6308  1.3356
  184SLPC  H17Y21212   1.776   5.188   8.476 -0.4397  0.0667 -0.5232
  184SLPC  C31821213   1.607   5.119   8.365 -0.1189  0.1513  0.1210
  184SLPC  H18X21214   1.559   5.020   8.349  0.2403 -0.0602  0.3601
  184SLPC  H18Y21215   1.657   5.143   8.268 -1.5965 -1.4524 -1.0779
  184SLPC  H18Z21216   1.521   5.183   8.395 -0.9455 -1.4732  1.3180
  185SLPC     N21217   0.638   0.877   6.573 -0.7887  0.1847 -0.0755
  185SLPC   C1321218   0.493   0.856   6.595  0.1445 -0.3929  0.0401
  185SLPC  H13A21219   0.457   0.762   6.556  0.2318 -0.6350  0.5359
  185SLPC  H13B21220   0.471   0.848   6.701 -1.5048 -0.0759 -0.2597
  185SLPC  H13C21221   0.432   0.933   6.550  1.3820 -0.4086 -1.7070
  185SLPC   C1421222   0.703   0.755   6.627 -0.0548 -1.0223 -0.4857
  185SLPC  H14A21223   0.810   0.751   6.612  0.3433 -0.5807  2.1285
  185SLPC  H14B21224   0.675   0.733   6.729  1.0333 -0.7712 -0.1281
  185SLPC  H14C21225   0.664   0.673   6.567  0.6566 -0.2534 -2.0238
  185SLPC   C1521226   0.673   0.986   6.673 -0.3759 -0.3314  0.1453
  185SLPC  H15A21227   0.778   1.010   6.665 -0.1858 -1.9095 -2.6096
  185SLPC  H15B21228   0.613   1.070   6.641  0.0625 -0.7085 -1.7253
  185SLPC  H15C21229   0.657   0.975   6.779 -0.0364  3.2220  0.6276
  185SLPC   C1221230   0.676   0.918   6.435  0.6318 -0.5592 -0.0359
  185SLPC  H12A21231   0.653   0.840   6.363  1.7660 -0.8163 -0.1237
  185SLPC  H12B21232   0.782   0.938   6.433  0.3050  1.2013 -0.6436
  185SLPC   C1121233   0.614   1.060   6.392 -0.7141 -0.1490  0.3000
  185SLPC  H11A21234   0.505   1.046   6.408 -0.2094 -1.7647  2.5979
  185SLPC  H11B21235   0.632   1.079   6.284 -3.4586  3.1864  0.3408
  185SLPC     P21236   0.834   1.205   6.432 -0.2776  0.1781  0.1203
  185SLPC   O1321237   0.897   1.092   6.359 -0.0102  0.6806 -0.2275
  185SLPC   O1421238   0.833   1.339   6.369 -0.2191 -0.0747  0.6985
  185SLPC   O1221239   0.677   1.170   6.463  0.0228 -0.5405  0.2568
  185SLPC   O1121240   0.892   1.210   6.580  0.3713 -0.5317 -0.4616
  185SLPC    C121241   0.826   1.313   6.659  0.7648  0.7232  0.1860
  185SLPC    HA21242   0.870   1.409   6.624 -0.5214  1.8815  1.7052
  185SLPC    HB21243   0.715   1.316   6.654  0.5919 -1.2247  2.0715
  185SLPC    C221244   0.858   1.298   6.810  0.6010 -0.3757 -0.1806
  185SLPC    HS21245   0.962   1.338   6.807  0.0737  0.9775 -1.2885
  185SLPC   O2121246   0.843   1.155   6.847 -0.0206 -0.0128 -0.9253
  185SLPC   C2121247   0.919   1.113   6.945  0.0572 -0.5453 -0.8202
  185SLPC   O2221248   1.010   1.175   7.001 -0.2303  0.5074  0.1995
  185SLPC   C2221249   0.873   0.973   6.987  0.1779 -0.3671  0.0691
  185SLPC   H2R21250   0.766   0.967   6.957 -0.4423 -0.3410  2.1890
  185SLPC   H2S21251   0.926   0.892   6.934  0.8569 -1.1823  1.9494
  185SLPC    C321252   0.772   1.387   6.903  0.5690 -0.0412  0.3714
  185SLPC    HX21253   0.667   1.353   6.889  0.5235  0.3969 -0.4537
  185SLPC    HY21254   0.775   1.489   6.858 -0.5864 -0.0616  0.2312
  185SLPC   O3121255   0.812   1.367   7.044  0.0865 -0.1885  0.2289
  185SLPC   C3121256   0.906   1.453   7.074 -0.3621  0.4530 -0.4908
  185SLPC   O3221257   0.954   1.531   6.993 -0.2474 -0.3044 -0.2124
  185SLPC   C3221258   0.976   1.420   7.207  0.5179 -0.2779  0.4378
  185SLPC   H2X21259   1.038   1.506   7.239  0.4830  0.2743 -0.9513
  185SLPC   H2Y21260   1.047   1.337   7.187 -0.0668 -0.7461  0.2730
  185SLPC   C2321261   0.914   0.944   7.137 -0.1824 -0.3910  0.4580
  185SLPC   H3R21262   1.017   0.976   7.161  0.1251 -1.2931  0.3370
  185SLPC   H3S21263   0.916   0.834   7.146  2.9889 -0.4992 -0.9709
  185SLPC   C2421264   0.813   0.986   7.247 -0.5681 -0.5312  0.1405
  185SLPC   H4R21265   0.708   0.958   7.224 -0.4122 -0.4376 -0.7014
  185SLPC   H4S21266   0.831   1.095   7.239  1.9142 -1.1192 -3.1661
  185SLPC   C2521267   0.874   0.939   7.377  0.3154  0.3853 -0.6730
  185SLPC   H5R21268   0.983   0.959   7.370  0.4179  2.1886  4.2440
  185SLPC   H5S21269   0.870   0.828   7.387  0.5548  0.4248 -0.0626
  185SLPC   C2621270   0.801   1.004   7.496  0.1746 -0.0878  0.0840
  185SLPC   H6R21271   0.691   1.009   7.482 -0.2835 -1.8893  2.8024
  185SLPC   H6S21272   0.836   1.110   7.488  1.2741 -0.4181  0.4385
  185SLPC   C2721273   0.840   0.946   7.629 -0.2700 -0.6252 -0.4272
  185SLPC   H7R21274   0.950   0.945   7.649  0.0815 -0.6636 -2.2764
  185SLPC   H7S21275   0.824   0.836   7.630  2.5693 -1.0882  1.5474
  185SLPC   C2821276   0.760   1.004   7.737  0.0468 -0.3841  0.1112
  185SLPC   H8R21277   0.652   0.979   7.730  0.0983 -0.8644  0.9853
  185SLPC   H8S21278   0.764   1.115   7.731  2.1112 -0.3487  1.6062
  185SLPC   C2921279   0.789   0.959   7.877 -0.0386 -0.6310  0.6323
  185SLPC   H9R21280   0.789   0.851   7.900 -1.3550 -0.7411  0.1619
  185SLPC  C21021281   0.848   1.030   7.979  0.6526  0.1001 -0.5502
  185SLPC  H10R21282   0.878   0.981   8.073 -0.6620 -1.9834 -1.1809
  185SLPC  C21121283   0.895   1.175   7.982  0.6990  0.0837 -0.1712
  185SLPC  H11R21284   0.928   1.209   7.881 -0.7577  0.5108 -0.5305
  185SLPC  H11S21285   0.973   1.196   8.058 -1.1458  0.6801  1.6130
  185SLPC  C21221286   0.772   1.262   8.010  0.8372 -0.4600  0.2899
  185SLPC  H12R21287   0.710   1.298   7.926 -1.4719  1.9357  2.9302
  185SLPC  C21321288   0.732   1.281   8.138  0.2629 -0.6788  0.1546
  185SLPC  H13R21289   0.647   1.346   8.163  0.6019  0.5928 -1.8708
  185SLPC  C21421290   0.810   1.232   8.256 -0.2531 -0.2925 -0.1163
  185SLPC  H14R21291   0.849   1.317   8.317 -1.1945 -0.7500  1.1615
  185SLPC  H14S21292   0.890   1.158   8.237 -1.1440 -1.5976  1.0858
  185SLPC  C21521293   0.718   1.140   8.338 -0.3041 -0.0467 -0.4476
  185SLPC  H15R21294   0.677   1.058   8.276  0.0383 -0.1975 -0.4763
  185SLPC  H15S21295   0.636   1.198   8.386 -0.6863 -1.0399  0.1010
  185SLPC  C21621296   0.781   1.064   8.460  0.5538  0.3983 -0.0076
  185SLPC  H16R21297   0.837   1.128   8.532  0.8424 -0.3852  0.4697
  185SLPC  H16S21298   0.853   0.992   8.415 -1.3025  0.3717 -3.0462
  185SLPC  C21721299   0.671   0.982   8.531  0.1400 -0.3262 -0.6044
  185SLPC  H17R21300   0.590   0.953   8.461 -0.1891 -0.4771 -0.1638
  185SLPC  H17S21301   0.622   1.050   8.604 -0.0509 -0.5634 -0.5090
  185SLPC  C21821302   0.722   0.850   8.586  0.1103 -0.4665 -0.4068
  185SLPC  H18R21303   0.780   0.871   8.679  2.0811 -0.4194 -1.5987
  185SLPC  H18S21304   0.797   0.805   8.517 -1.4357 -0.6591 -1.9989
  185SLPC  H18T21305   0.645   0.774   8.612  1.3269 -0.9333  1.9917
  185SLPC   C3321306   0.884   1.385   7.325 -0.3330  0.1230  0.3949
  185SLPC   H3X21307   0.826   1.291   7.310  1.7826 -1.0737 -0.5821
  185SLPC   H3Y21308   0.808   1.466   7.330 -0.8092 -0.1195 -2.0705
  185SLPC   C3421309   0.963   1.387   7.454  0.1148  0.3789  0.2255
  185SLPC   H4X21310   1.047   1.460   7.443 -0.0251  0.5156  0.0603
  185SLPC   H4Y21311   0.999   1.283   7.465 -1.2610  0.0422  1.6965
  185SLPC   C3521312   0.882   1.434   7.577  0.6557  0.8920 -0.1407
  185SLPC   H5X21313   0.791   1.371   7.584  0.8811  0.7052  1.5106
  185SLPC   H5Y21314   0.841   1.533   7.550  1.2129  1.2166  0.1844
  185SLPC   C3621315   0.954   1.432   7.710 -0.2669  0.6269 -0.6849
  185SLPC   H6X21316   0.998   1.334   7.737 -2.7141 -0.0453  1.0800
  185SLPC   H6Y21317   0.879   1.458   7.788 -0.6429  2.8057 -1.7252
  185SLPC   C3721318   1.071   1.536   7.720 -0.0436 -0.0168 -0.7267
  185SLPC   H7X21319   1.029   1.638   7.724  0.2222  0.0151  2.9254
  185SLPC   H7Y21320   1.132   1.518   7.628 -0.0759  0.0851 -0.7684
  185SLPC   C3821321   1.171   1.484   7.821 -0.9071 -0.4441 -0.0682
  185SLPC   H8X21322   1.266   1.538   7.805  0.4348 -2.5007  0.8578
  185SLPC   H8Y21323   1.197   1.378   7.803  2.3939  0.5269 -1.3254
  185SLPC   C3921324   1.112   1.510   7.962  0.2734 -0.5414  0.4932
  185SLPC   H9X21325   1.019   1.450   7.969  1.1958 -1.8521  1.8524
  185SLPC   H9Y21326   1.087   1.618   7.964 -2.7786 -1.1005 -2.5576
  185SLPC  C31021327   1.200   1.451   8.069 -0.3563  0.4291 -0.0615
  185SLPC  H10X21328   1.297   1.506   8.061 -0.3122  0.3226 -0.2713
  185SLPC  H10Y21329   1.226   1.347   8.040  2.9780  1.4415 -0.9803
  185SLPC  C31121330   1.145   1.447   8.209  0.2888 -0.3744 -0.3437
  185SLPC  H11X21331   1.035   1.433   8.202  0.3005 -0.2905 -0.6997
  185SLPC  H11Y21332   1.147   1.548   8.254 -0.7857 -0.8173  0.7162
  185SLPC  C31221333   1.200   1.338   8.295  0.1561 -0.2474 -0.0308
  185SLPC  H12X21334   1.311   1.347   8.304  0.3714 -1.7341 -1.0346
  185SLPC  H12Y21335   1.192   1.237   8.250 -0.0496 -0.4743  0.5179
  185SLPC  C31321336   1.141   1.332   8.433 -0.0291  0.4372 -0.1232
  185SLPC  H13X21337   1.039   1.289   8.433  1.4149 -3.1607 -1.1216
  185SLPC  H13Y21338   1.135   1.438   8.465 -1.5150  0.5497 -0.7479
  185SLPC  C31421339   1.242   1.262   8.530  0.0218 -0.7684 -0.2509
  185SLPC  H14X21340   1.205   1.263   8.635  0.0172  0.1938 -0.2569
  185SLPC  H14Y21341   1.328   1.333   8.532 -1.2473  0.8195 -0.9716
  185SLPC  C31521342   1.293   1.127   8.488  0.2248  0.4103  1.2947
  185SLPC  H15X21343   1.326   1.126   8.382  0.1012 -3.0974  1.2359
  185SLPC  H15Y21344   1.204   1.062   8.482  1.3137 -0.8906 -2.5692
  185SLPC  C31621345   1.401   1.076   8.577 -0.1192  0.6220  0.1403
  185SLPC  H16X21346   1.367   1.092   8.682 -1.0992  0.4572 -0.1435
  185SLPC  H16Y21347   1.492   1.139   8.568 -1.0543  2.0083  0.1984
  185SLPC  C31721348   1.432   0.927   8.568 -0.2451 -0.3421  0.3013
  185SLPC  H17X21349   1.484   0.911   8.470  1.0741 -1.2370  1.1245
  185SLPC  H17Y21350   1.341   0.867   8.587 -0.4648 -0.5325 -1.2473
  185SLPC  C31821351   1.546   0.895   8.668 -0.2490  0.1898 -0.6828
  185SLPC  H18X21352   1.646   0.933   8.638 -0.0866 -1.1085 -1.8388
  185SLPC  H18Y21353   1.566   0.787   8.676 -1.9582  0.0330  1.9299
  185SLPC  H18Z21354   1.510   0.932   8.767  0.5301 -1.2500  0.1415
  186SLPC     N21355   1.426   3.171   6.126 -0.1174  1.3473 -0.2811
  186SLPC   C1321356   1.312   3.243   6.184  0.8621 -0.3523 -0.3618
  186SLPC  H13A21357   1.273   3.327   6.129 -0.5599 -0.4046  0.5396
  186SLPC  H13B21358   1.232   3.180   6.219  1.2484  0.1053  1.4250
  186SLPC  H13C21359   1.346   3.292   6.274 -1.5039  0.1229  0.3214
  186SLPC   C1421360   1.511   3.264   6.048 -0.0459 -0.3846  0.6586
  186SLPC  H14A21361   1.529   3.360   6.096 -2.4364 -0.0897  1.0206
  186SLPC  H14B21362   1.599   3.215   6.009 -1.1918 -0.4640 -1.9145
  186SLPC  H14C21363   1.454   3.293   5.962 -0.8740  1.2663  1.7299
  186SLPC   C1521364   1.382   3.073   6.026  0.4014 -0.1607 -0.0264
  186SLPC  H15A21365   1.464   3.027   5.973 -0.7894 -1.5147 -0.7168
  186SLPC  H15B21366   1.309   3.009   6.073 -0.8396  0.9409 -0.4006
  186SLPC  H15C21367   1.332   3.137   5.954  1.6315  1.2566  0.3329
  186SLPC   C1221368   1.502   3.101   6.234  0.1189  0.8434  0.0414
  186SLPC  H12A21369   1.595   3.076   6.187  0.6310 -0.0492  1.4935
  186SLPC  H12B21370   1.453   3.006   6.250  0.6379  0.8457  1.6982
  186SLPC   C1121371   1.522   3.169   6.371  0.3889 -0.1864  0.0337
  186SLPC  H11A21372   1.574   3.094   6.435  0.4305  0.5407  0.8492
  186SLPC  H11B21373   1.425   3.196   6.417  0.3753 -2.6051  1.5155
  186SLPC     P21374   1.749   3.294   6.330  0.2961  0.2480  0.0619
  186SLPC   O1321375   1.784   3.182   6.243 -0.4193 -0.3649 -0.2918
  186SLPC   O1421376   1.790   3.429   6.284  0.3224 -0.7899 -0.0509
  186SLPC   O1221377   1.591   3.291   6.350 -0.7004  0.0233  0.5539
  186SLPC   O1121378   1.814   3.285   6.473  0.3812 -0.0943  0.0290
  186SLPC    C121379   1.747   3.265   6.600 -0.1062 -0.2006 -0.9162
  186SLPC    HA21380   1.637   3.275   6.592 -0.3041  1.5692  3.2642
  186SLPC    HB21381   1.769   3.164   6.640  1.0010 -0.5525 -2.3589
  186SLPC    C221382   1.807   3.369   6.701  0.5382 -0.1568 -0.2806
  186SLPC    HS21383   1.915   3.359   6.677  0.7317 -3.7124  1.7536
  186SLPC   O2121384   1.782   3.321   6.828 -0.0048 -0.0207  0.0975
  186SLPC   C2121385   1.867   3.353   6.924 -0.0761 -0.0462 -0.3315
  186SLPC   O2221386   1.976   3.410   6.909  0.4663  0.4807  0.5352
  186SLPC   C2221387   1.805   3.330   7.060  0.8118  0.2746 -0.0475
  186SLPC   H2R21388   1.702   3.371   7.049 -0.2660 -2.2535  0.3595
  186SLPC   H2S21389   1.790   3.222   7.076 -2.8748  0.3222 -2.6759
  186SLPC    C321390   1.757   3.513   6.669 -0.8377  0.3190  0.0182
  186SLPC    HX21391   1.787   3.530   6.564  1.6786 -1.3657  0.4252
  186SLPC    HY21392   1.815   3.587   6.729  0.1899 -0.2962 -0.2118
  186SLPC   O3121393   1.614   3.513   6.689  0.1227  0.0617  0.1926
  186SLPC   C3121394   1.555   3.622   6.641  0.0125 -0.7584  0.6657
  186SLPC   O3221395   1.618   3.707   6.577 -0.7867  0.1201  0.6307
  186SLPC   C3221396   1.414   3.652   6.698  0.2013  0.2327  0.1814
  186SLPC   H2X21397   1.419   3.595   6.793  0.0328 -0.4208 -0.1923
  186SLPC   H2Y21398   1.335   3.612   6.631 -1.3103  0.4504  1.7843
  186SLPC   C2321399   1.861   3.403   7.187 -0.2048  0.1765  0.0176
  186SLPC   H3R21400   1.790   3.428   7.269  1.3669  0.9689  1.1753
  186SLPC   H3S21401   1.895   3.502   7.150  0.2359  0.3373  0.8328
  186SLPC   C2421402   1.962   3.318   7.258 -0.6804 -0.1830 -0.0078
  186SLPC   H4R21403   2.036   3.271   7.190 -0.4036 -1.3671  1.0964
  186SLPC   H4S21404   1.906   3.240   7.314 -1.0480  0.2601  0.2444
  186SLPC   C2521405   2.020   3.392   7.371  0.7002  0.5261 -0.7045
  186SLPC   H5R21406   2.086   3.475   7.337 -0.4773  1.6523 -0.2981
  186SLPC   H5S21407   2.082   3.321   7.428  0.1177  0.8686  0.3771
  186SLPC   C2621408   1.926   3.449   7.482  0.2007  0.0381 -0.1053
  186SLPC   H6R21409   1.849   3.371   7.501  0.3082 -0.0708 -0.1176
  186SLPC   H6S21410   1.888   3.545   7.441  0.2349  0.8721  1.7398
  186SLPC   C2721411   1.994   3.484   7.609 -0.3010  0.4524  0.0506
  186SLPC   H7R21412   2.058   3.574   7.594  0.2376  0.0952  0.2306
  186SLPC   H7S21413   2.064   3.402   7.635  0.0939 -0.3580 -3.3718
  186SLPC   C2821414   1.902   3.507   7.723  0.7601  0.5208  0.3821
  186SLPC   H8R21415   1.821   3.431   7.722  0.8551  0.4259 -0.5420
  186SLPC   H8S21416   1.848   3.604   7.722  0.5630  0.4104  0.1167
  186SLPC   C2921417   1.976   3.506   7.854  0.7974 -0.2793 -0.0019
  186SLPC   H9R21418   2.056   3.580   7.869  0.9375 -0.6612  1.2027
  186SLPC  C21021419   1.954   3.422   7.958  0.6917 -0.4079 -0.4064
  186SLPC  H10R21420   2.017   3.435   8.047  2.5707 -1.7098 -1.5112
  186SLPC  C21121421   1.848   3.317   7.966  0.7768  0.0597  0.0152
  186SLPC  H11R21422   1.884   3.238   8.035 -1.0023 -0.1187  0.7908
  186SLPC  H11S21423   1.843   3.256   7.874  2.5764 -0.3057  0.1499
  186SLPC  C21221424   1.711   3.368   8.005  0.0410  0.2309 -0.6316
  186SLPC  H12R21425   1.660   3.444   7.944 -0.0532  1.1800  0.6168
  186SLPC  C21321426   1.635   3.330   8.112  0.3283 -0.0635  0.3947
  186SLPC  H13R21427   1.541   3.383   8.132 -0.1282 -0.7708  0.1385
  186SLPC  C21421428   1.671   3.220   8.211 -0.0974 -0.4863  0.5266
  186SLPC  H14R21429   1.738   3.141   8.172  0.3769 -0.4104  1.1847
  186SLPC  H14S21430   1.574   3.172   8.235 -0.3523 -0.8539 -1.2134
  186SLPC  C21521431   1.732   3.283   8.333  0.0067 -0.3348  0.1396
  186SLPC  H15R21432   1.708   3.221   8.422  0.2749 -1.9072 -0.8696
  186SLPC  H15S21433   1.698   3.385   8.360 -1.0146 -0.4452 -0.7110
  186SLPC  C21621434   1.887   3.280   8.334  1.2853  0.7330 -0.5921
  186SLPC  H16R21435   1.916   3.340   8.244  1.9764  2.6303  0.8489
  186SLPC  H16S21436   1.913   3.173   8.319 -1.9454  0.0128 -1.3036
  186SLPC  C21721437   1.955   3.324   8.468 -0.1853  0.3005  0.7232
  186SLPC  H17R21438   2.061   3.296   8.454 -0.2969 -0.1825  0.8430
  186SLPC  H17S21439   1.915   3.260   8.549 -1.5916 -0.8768 -0.8720
  186SLPC  C21821440   1.924   3.474   8.490 -0.2882  0.1058 -0.7705
  186SLPC  H18R21441   1.816   3.491   8.509 -0.1471  2.0238 -1.6271
  186SLPC  H18S21442   1.942   3.522   8.392  0.0695  0.6934 -0.4227
  186SLPC  H18T21443   1.989   3.517   8.569 -3.5851  1.3685  1.3243
  186SLPC   C3321444   1.370   3.802   6.729 -0.0023 -0.0612 -0.3673
  186SLPC   H3X21445   1.265   3.783   6.759  0.8556 -2.6677  1.0941
  186SLPC   H3Y21446   1.353   3.845   6.627  2.4182 -2.8224 -2.0045
  186SLPC   C3421447   1.452   3.885   6.827  0.1958 -0.6613 -0.1775
  186SLPC   H4X21448   1.555   3.903   6.789  0.8524 -0.8795  1.4614
  186SLPC   H4Y21449   1.464   3.838   6.927 -0.2575 -1.7335 -0.6208
  186SLPC   C3521450   1.406   4.029   6.834  0.2166  0.0859  0.2907
  186SLPC   H5X21451   1.426   4.078   6.736 -4.0589  1.3294 -0.0280
  186SLPC   H5Y21452   1.475   4.079   6.905  1.8473 -0.8006 -0.6116
  186SLPC   C3621453   1.257   4.040   6.870 -0.1926  0.7779  0.2270
  186SLPC   H6X21454   1.197   4.004   6.783  3.3387 -0.5052 -1.7907
  186SLPC   H6Y21455   1.221   4.145   6.875  0.5478  1.1719 -1.9627
  186SLPC   C3721456   1.212   3.960   6.997 -0.1383 -1.1332 -0.8073
  186SLPC   H7X21457   1.247   3.855   7.001  2.5014 -0.3144 -1.3377
  186SLPC   H7Y21458   1.101   3.951   6.995 -0.0370 -2.2679 -2.5371
  186SLPC   C3821459   1.255   4.031   7.125 -0.1964 -0.1389 -0.3272
  186SLPC   H8X21460   1.244   4.140   7.112  2.1956  0.1074 -0.4764
  186SLPC   H8Y21461   1.366   4.027   7.129 -0.1484  1.5960  0.1168
  186SLPC   C3921462   1.190   3.977   7.250  0.4002 -0.4939 -0.5167
  186SLPC   H9X21463   1.249   3.893   7.291 -2.8713 -2.0762  1.1293
  186SLPC   H9Y21464   1.084   3.948   7.236 -0.6751  3.6668 -1.9319
  186SLPC  C31021465   1.181   4.083   7.358  0.6065  0.0684  1.1715
  186SLPC  H10X21466   1.105   4.161   7.335  2.6293  1.5627 -0.6736
  186SLPC  H10Y21467   1.273   4.131   7.398  1.4823 -1.2225  0.7578
  186SLPC  C31121468   1.134   4.004   7.485 -0.5854  0.2081 -0.4467
  186SLPC  H11X21469   1.212   3.935   7.522 -1.2843  0.6729  2.0525
  186SLPC  H11Y21470   1.052   3.933   7.460 -0.5891 -1.1939  3.1869
  186SLPC  C31221471   1.087   4.092   7.603 -0.0612  0.2277 -0.0303
  186SLPC  H12X21472   0.983   4.128   7.588 -0.1465 -0.2614 -0.6384
  186SLPC  H12Y21473   1.144   4.186   7.613 -1.0263  0.8119  0.0339
  186SLPC  C31321474   1.098   4.024   7.735 -0.4205  0.6610 -0.7390
  186SLPC  H13X21475   1.172   3.943   7.749 -0.1580  1.2302  1.3924
  186SLPC  H13Y21476   1.003   3.966   7.744  0.1610 -0.0762  0.7586
  186SLPC  C31421477   1.099   4.115   7.860  0.6499  0.0936  0.0085
  186SLPC  H14X21478   1.015   4.187   7.870  0.8621  0.4953 -0.9839
  186SLPC  H14Y21479   1.191   4.176   7.864  0.9700 -0.4834  2.2698
  186SLPC  C31521480   1.121   4.032   7.998 -0.6146  0.3462 -0.1103
  186SLPC  H15X21481   1.216   3.975   7.998 -1.3680 -0.9662  2.0410
  186SLPC  H15Y21482   1.034   3.964   8.012 -1.8283  1.9303  0.3070
  186SLPC  C31621483   1.135   4.120   8.124  0.4993 -0.9779  0.3676
  186SLPC  H16X21484   1.049   4.190   8.117 -0.7791 -2.5903 -0.3773
  186SLPC  H16Y21485   1.228   4.182   8.120 -0.3362  0.2225 -1.3179
  186SLPC  C31721486   1.136   4.049   8.256 -0.8820 -0.3083  0.5527
  186SLPC  H17X21487   1.039   3.998   8.277 -0.8068 -0.8160 -0.3063
  186SLPC  H17Y21488   1.129   4.130   8.332 -1.3760  1.1078 -0.9906
  186SLPC  C31821489   1.257   3.952   8.264 -0.0261 -0.2082 -0.4438
  186SLPC  H18X21490   1.251   3.861   8.201 -0.6305 -0.6593  0.2606
  186SLPC  H18Y21491   1.278   3.934   8.372 -1.4836 -0.1858 -0.1516
  186SLPC  H18Z21492   1.342   4.016   8.229  0.4549 -0.8185 -0.4040
  187SLPC     N21493   2.009   0.617   6.139 -0.1160 -0.0457  0.5844
  187SLPC   C1321494   1.936   0.700   6.031  0.7612  0.5675 -0.0859
  187SLPC  H13A21495   1.833   0.673   6.013  0.2993  2.2339 -0.0462
  187SLPC  H13B21496   1.912   0.801   6.060 -1.1880  0.0303  0.2510
  187SLPC  H13C21497   2.005   0.706   5.949  0.6930 -0.0522 -0.1907
  187SLPC   C1421498   2.144   0.684   6.161  0.0891  0.8293 -0.2038
  187SLPC  H14A21499   2.225   0.646   6.101 -0.5803 -0.8575 -0.0641
  187SLPC  H14B21500   2.136   0.790   6.139  1.2879  0.7555 -1.0764
  187SLPC  H14C21501   2.174   0.677   6.264 -1.0625  1.3352  0.1761
  187SLPC   C1521502   2.026   0.476   6.092 -0.0899 -0.5441  0.1906
  187SLPC  H15A21503   1.928   0.432   6.086 -1.2757  1.7727  1.6652
  187SLPC  H15B21504   2.083   0.478   6.000  2.1164  0.2527  1.5225
  187SLPC  H15C21505   2.079   0.420   6.167 -0.9565 -1.0326  0.4473
  187SLPC   C1221506   1.927   0.618   6.267  0.3986  0.1798 -0.3556
  187SLPC  H12A21507   1.829   0.578   6.246  0.3307 -0.1318  0.5323
  187SLPC  H12B21508   1.898   0.717   6.298  1.6518  0.2297  0.7155
  187SLPC   C1121509   1.995   0.545   6.385  0.5527  0.0141 -0.0587
  187SLPC  H11A21510   1.927   0.557   6.472  1.2855  0.5619  0.4481
  187SLPC  H11B21511   2.092   0.592   6.410 -0.4286  1.3147  1.3832
  187SLPC     P21512   2.121   0.319   6.425 -0.1172 -0.0260 -0.3314
  187SLPC   O1321513   2.101   0.181   6.384 -0.2902 -0.2851  0.4854
  187SLPC   O1421514   2.253   0.380   6.392  0.5334 -0.4877 -0.3800
  187SLPC   O1221515   2.006   0.403   6.368 -0.3329 -0.7481  0.6631
  187SLPC   O1121516   2.097   0.334   6.590 -0.3506 -0.2013  0.3554
  187SLPC    C121517   1.982   0.266   6.647  1.0631  0.3839 -0.1274
  187SLPC    HA21518   1.907   0.235   6.571  1.5875 -2.2683  0.4023
  187SLPC    HB21519   2.028   0.179   6.699 -1.7406 -0.7481  0.5228
  187SLPC    C221520   1.890   0.351   6.741 -0.4554 -0.3027  0.8118
  187SLPC    HS21521   1.863   0.442   6.683  0.2786  0.0445  1.0153
  187SLPC   O2121522   1.962   0.395   6.864 -0.1148  0.4417  0.1650
  187SLPC   C2121523   1.884   0.461   6.949  0.9142  0.9312 -0.1168
  187SLPC   O2221524   1.771   0.501   6.925 -0.1469  0.0091 -0.9124
  187SLPC   C2221525   1.963   0.500   7.074  0.0544  0.0276 -0.1869
  187SLPC   H2R21526   2.013   0.409   7.112 -0.5656 -0.7846 -1.2701
  187SLPC   H2S21527   2.044   0.568   7.041  1.6876 -1.6876  0.2240
  187SLPC    C321528   1.766   0.252   6.759  0.2036 -0.0183  0.2823
  187SLPC    HX21529   1.703   0.244   6.668 -0.6284 -0.0688  0.8528
  187SLPC    HY21530   1.692   0.290   6.832  0.0983 -0.8510  0.6149
  187SLPC   O3121531   1.813   0.118   6.789  0.3428 -0.6092 -0.1976
  187SLPC   C3121532   1.859   0.097   6.908 -0.3597  0.6042  0.4082
  187SLPC   O3221533   1.850   0.176   7.003  0.0773 -0.3447  0.2601
  187SLPC   C3221534   1.905  -0.048   6.918  0.4986  0.4760 -0.6302
  187SLPC   H2X21535   2.003  -0.054   6.868  1.8209 -0.5169  1.9937
  187SLPC   H2Y21536   1.841  -0.115   6.856  2.1692 -2.8642  1.0837
  187SLPC   C2321537   1.887   0.551   7.195  0.1629 -0.6531 -0.3638
  187SLPC   H3R21538   1.831   0.469   7.244  1.3043 -1.5526 -0.5311
  187SLPC   H3S21539   1.815   0.627   7.159 -0.5369 -0.7018  0.9134
  187SLPC   C2421540   1.985   0.611   7.293  0.4919 -0.1791  0.0308
  187SLPC   H4R21541   2.013   0.716   7.269 -0.2665  0.4818  1.9116
  187SLPC   H4S21542   2.079   0.554   7.308  1.4175  1.2930 -0.1019
  187SLPC   C2521543   1.920   0.619   7.432 -0.2320  1.0040  0.1616
  187SLPC   H5R21544   1.810   0.609   7.421  0.1273  0.2988 -3.4214
  187SLPC   H5S21545   1.927   0.723   7.470  0.5438  0.5759  1.2494
  187SLPC   C2621546   1.982   0.523   7.543  0.6863  0.2604 -0.6301
  187SLPC   H6R21547   2.082   0.562   7.573  0.2194  0.2601  1.0150
  187SLPC   H6S21548   1.992   0.422   7.498 -2.1135  0.3307 -1.5408
  187SLPC   C2721549   1.901   0.523   7.672  0.6365  0.5211  0.3376
  187SLPC   H7R21550   1.796   0.503   7.641  0.4173  1.5446  0.3932
  187SLPC   H7S21551   1.901   0.625   7.717  1.1944  1.1404 -1.0320
  187SLPC   C2821552   1.955   0.422   7.770 -0.2537  0.5808 -1.0790
  187SLPC   H8R21553   2.064   0.429   7.789 -0.5265  1.0671  0.4070
  187SLPC   H8S21554   1.922   0.322   7.736  1.4983 -2.0870  4.4203
  187SLPC   C2921555   1.879   0.431   7.897  0.6787 -0.1288  0.3919
  187SLPC   H9R21556   1.778   0.391   7.879 -0.2120  2.4377 -0.4960
  187SLPC  C21021557   1.909   0.472   8.019  0.1263 -0.2504  0.2220
  187SLPC  H10R21558   1.830   0.467   8.095  1.5967  2.6772  2.0153
  187SLPC  C21121559   2.038   0.523   8.074  0.1495  0.4936  0.5593
  187SLPC  H11R21560   2.004   0.622   8.111 -1.8462  0.6521 -1.6236
  187SLPC  H11S21561   2.119   0.544   8.002 -0.0446 -0.3929  0.0760
  187SLPC  C21221562   2.114   0.435   8.176  0.5057  0.2402  0.1585
  187SLPC  H12R21563   2.125   0.333   8.136  0.0785  1.3989 -3.0582
  187SLPC  C21321564   2.149   0.458   8.312 -0.5575  0.5587  0.1293
  187SLPC  H13R21565   2.209   0.381   8.363  0.0210  1.3527  0.6919
  187SLPC  C21421566   2.121   0.588   8.382  0.1627  0.8425 -0.0924
  187SLPC  H14R21567   2.077   0.664   8.315 -0.7582 -1.2953 -1.9979
  187SLPC  H14S21568   2.218   0.627   8.419  0.2852  0.5498 -0.0982
  187SLPC  C21521569   2.023   0.583   8.493  0.5677  0.4209  0.0927
  187SLPC  H15R21570   2.021   0.687   8.532  1.5644  0.1079  0.9925
  187SLPC  H15S21571   2.048   0.501   8.564  0.8071 -0.0856 -0.5682
  187SLPC  C21621572   1.880   0.546   8.432 -0.2549  0.3616 -0.5619
  187SLPC  H16R21573   1.882   0.439   8.404  1.3388  0.3545 -0.4857
  187SLPC  H16S21574   1.854   0.591   8.333 -1.4759 -2.2522 -1.4621
  187SLPC  C21721575   1.756   0.574   8.527 -0.4505 -0.2846 -0.1560
  187SLPC  H17R21576   1.748   0.684   8.529  0.0628 -0.2547  0.1824
  187SLPC  H17S21577   1.783   0.532   8.626  0.3230  0.6597  0.0384
  187SLPC  C21821578   1.628   0.510   8.464 -0.3343 -0.6536  0.4349
  187SLPC  H18R21579   1.646   0.401   8.456  0.9194 -0.4259  0.0528
  187SLPC  H18S21580   1.605   0.553   8.364  0.1837  0.3293  0.7292
  187SLPC  H18T21581   1.539   0.524   8.529 -0.0152  0.7274  0.5985
  187SLPC   C3321582   1.914  -0.111   7.063  0.1431 -0.2975 -0.0878
  187SLPC   H3X21583   1.823  -0.101   7.126 -0.2368 -1.0386 -0.5246
  187SLPC   H3Y21584   1.982  -0.054   7.130  0.2820 -2.0425  1.2751
  187SLPC   C3421585   1.966  -0.257   7.052 -0.3035  0.6618 -0.2642
  187SLPC   H4X21586   2.036  -0.258   6.966 -1.7936 -0.1755 -1.5086
  187SLPC   H4Y21587   1.882  -0.323   7.021  0.5437 -0.5206 -0.0450
  187SLPC   C3521588   2.028  -0.315   7.182  0.6612  0.3320  0.2809
  187SLPC   H5X21589   2.107  -0.249   7.223 -0.4185  2.1876 -0.5692
  187SLPC   H5Y21590   2.074  -0.414   7.163  3.2735  2.0702 -3.1073
  187SLPC   C3621591   1.925  -0.301   7.305  0.2513 -0.1624  0.3837
  187SLPC   H6X21592   1.827  -0.324   7.257  0.5714 -0.5583 -0.0852
  187SLPC   H6Y21593   1.931  -0.191   7.320  2.0651 -0.1510 -0.2990
  187SLPC   C3721594   1.960  -0.376   7.434 -0.3462 -0.4823  0.4238
  187SLPC   H7X21595   1.922  -0.480   7.441 -1.6891 -0.2116 -2.1543
  187SLPC   H7Y21596   2.069  -0.375   7.454 -0.6722  1.1583  2.2661
  187SLPC   C3821597   1.887  -0.318   7.559 -0.6049 -0.1003  0.1634
  187SLPC   H8X21598   1.785  -0.361   7.569  0.0444 -1.5636  0.6963
  187SLPC   H8Y21599   1.877  -0.208   7.562 -1.4879 -0.1846  0.3516
  187SLPC   C3921600   1.967  -0.353   7.689 -0.1942  0.1118 -0.5922
  187SLPC   H9X21601   1.932  -0.295   7.777  0.6139 -1.4293  0.7791
  187SLPC   H9Y21602   2.075  -0.331   7.686 -0.3357  0.7617 -1.1025
  187SLPC  C31021603   1.953  -0.507   7.712  0.1277 -0.3298  0.1636
  187SLPC  H10X21604   1.996  -0.559   7.623  0.7259 -1.3254  1.0266
  187SLPC  H10Y21605   1.844  -0.528   7.708  0.1636 -0.4306 -0.3110
  187SLPC  C31121606   2.025  -0.578   7.834 -0.3438 -0.4765  0.5417
  187SLPC  H11X21607   2.131  -0.554   7.810 -0.5074  0.7263  0.9642
  187SLPC  H11Y21608   2.003  -0.687   7.826 -0.2551 -0.4694  0.1925
  187SLPC  C31221609   1.993  -0.515   7.972  0.5708 -0.3497  0.3389
  187SLPC  H12X21610   1.893  -0.560   7.992 -0.9855  1.5691 -2.7793
  187SLPC  H12Y21611   1.988  -0.404   7.973  0.7240 -0.3477  1.1319
  187SLPC  C31321612   2.098  -0.561   8.073  0.4557 -0.8148  0.4294
  187SLPC  H13X21613   2.102  -0.672   8.067  0.8826 -0.9872  3.1707
  187SLPC  H13Y21614   2.052  -0.541   8.172 -0.2013 -0.2790  0.0139
  187SLPC  C31421615   2.236  -0.503   8.054  0.0868  0.2613 -0.8643
  187SLPC  H14X21616   2.225  -0.398   8.022  0.2656  0.0578 -1.6165
  187SLPC  H14Y21617   2.282  -0.556   7.967 -1.3291 -0.4929 -1.1729
  187SLPC  C31521618   2.317  -0.500   8.179  0.0018  0.0480 -1.0550
  187SLPC  H15X21619   2.261  -0.452   8.262 -0.5413  2.2873 -2.6535
  187SLPC  H15Y21620   2.407  -0.437   8.163  0.5235 -0.4736 -0.2115
  187SLPC  C31621621   2.367  -0.639   8.216 -0.0436 -0.5005  0.3195
  187SLPC  H16X21622   2.462  -0.655   8.161 -0.8200 -0.9139 -0.9016
  187SLPC  H16Y21623   2.306  -0.725   8.183  0.7695 -0.9727  0.0499
  187SLPC  C31721624   2.400  -0.654   8.357 -0.3215  0.1511 -0.8003
  187SLPC  H17X21625   2.455  -0.749   8.373  0.7152  0.6973 -1.1362
  187SLPC  H17Y21626   2.305  -0.654   8.415 -0.2374 -1.0719 -0.6482
  187SLPC  C31821627   2.484  -0.540   8.420 -0.3531  0.7356 -0.2822
  187SLPC  H18X21628   2.511  -0.553   8.526  0.2746 -1.3496 -0.6729
  187SLPC  H18Y21629   2.433  -0.441   8.415  0.6648  1.1997 -2.0003
  187SLPC  H18Z21630   2.576  -0.527   8.358  0.3604 -3.2684 -0.1861
  188SLPC     N21631   3.662   2.566   6.015  0.5965  0.1487 -0.4550
  188SLPC   C1321632   3.697   2.421   5.991  0.1201 -0.4082  0.3579
  188SLPC  H13A21633   3.677   2.397   5.888 -0.3288 -0.5355  0.4736
  188SLPC  H13B21634   3.803   2.406   6.002  0.4739  2.2602  0.8478
  188SLPC  H13C21635   3.637   2.355   6.052 -0.3558 -1.1704 -0.9289
  188SLPC   C1421636   3.510   2.579   6.002 -0.7020 -0.3338  0.5443
  188SLPC  H14A21637   3.443   2.536   6.074  1.4763 -1.3994  1.9874
  188SLPC  H14B21638   3.475   2.681   6.011 -0.7117 -0.3340  0.5075
  188SLPC  H14C21639   3.475   2.548   5.904  0.7555 -0.4596  0.0448
  188SLPC   C1521640   3.718   2.654   5.912 -0.4326  0.4159 -0.1843
  188SLPC  H15A21641   3.690   2.757   5.924  0.0035  0.4788  0.2824
  188SLPC  H15B21642   3.824   2.639   5.897 -0.3961  1.1344 -0.6699
  188SLPC  H15C21643   3.676   2.625   5.816 -0.3542 -0.3576  0.0096
  188SLPC   C1221644   3.717   2.613   6.156 -0.6413 -0.4969 -0.3655
  188SLPC  H12A21645   3.703   2.720   6.152 -0.0941 -0.4415 -0.7795
  188SLPC  H12B21646   3.823   2.601   6.140 -0.3981  0.4170  0.5002
  188SLPC   C1121647   3.665   2.546   6.289  0.5339  0.8231  0.4914
  188SLPC  H11A21648   3.564   2.592   6.284 -0.9300 -2.1803  1.7181
  188SLPC  H11B21649   3.710   2.575   6.386  1.3048  1.5465 -0.0659
  188SLPC     P21650   3.768   2.311   6.315  0.4509 -0.1473  0.1852
  188SLPC   O1321651   3.777   2.217   6.204 -0.3578 -0.3313  0.6368
  188SLPC   O1421652   3.886   2.394   6.348 -0.1832 -0.1110  0.0076
  188SLPC   O1221653   3.643   2.405   6.281  0.5069  0.1024  0.4516
  188SLPC   O1121654   3.731   2.235   6.440 -0.5329  0.4500 -0.7608
  188SLPC    C121655   3.594   2.208   6.469  0.2714 -0.5100 -0.3728
  188SLPC    HA21656   3.538   2.196   6.374 -2.6322 -0.7440  1.2991
  188SLPC    HB21657   3.587   2.110   6.523 -0.8170  0.2993  1.0015
  188SLPC    C221658   3.526   2.323   6.546 -0.1114 -0.4136  0.3970
  188SLPC    HS21659   3.512   2.402   6.469 -0.5554 -1.5906 -0.7518
  188SLPC   O2121660   3.615   2.355   6.647  0.0290  0.2798  0.4904
  188SLPC   C2121661   3.604   2.476   6.687  0.1815  0.4335 -0.6310
  188SLPC   O2221662   3.525   2.563   6.651 -0.1994  0.2054  0.5642
  188SLPC   C2221663   3.699   2.511   6.809  0.5294  0.3144 -0.0480
  188SLPC   H2R21664   3.769   2.426   6.824  0.4134  0.1121 -0.6662
  188SLPC   H2S21665   3.746   2.606   6.775 -0.8114  1.2806  0.7716
  188SLPC    C321666   3.392   2.273   6.603 -0.0344  0.1781  0.4574
  188SLPC    HX21667   3.415   2.191   6.675  0.5652  2.8133  3.3787
  188SLPC    HY21668   3.344   2.220   6.519 -1.2712  1.6401  0.2145
  188SLPC   O3121669   3.303   2.379   6.650 -0.8923 -0.3499  0.5563
  188SLPC   C3121670   3.192   2.333   6.707 -1.1823 -0.1741  1.0788
  188SLPC   O3221671   3.163   2.212   6.712 -0.3227 -0.2401  0.5072
  188SLPC   C3221672   3.114   2.455   6.765  0.4169 -0.1636  0.6831
  188SLPC   H2X21673   3.008   2.427   6.746 -0.0306  1.0204  1.3692
  188SLPC   H2Y21674   3.138   2.540   6.698 -0.7763 -1.3884 -1.3713
  188SLPC   C2321675   3.615   2.547   6.938 -0.1400 -0.7243 -0.2790
  188SLPC   H3R21676   3.568   2.454   6.977  0.2660  0.2815  2.7856
  188SLPC   H3S21677   3.525   2.603   6.904  0.5521  0.2617 -0.5089
  188SLPC   C2421678   3.696   2.603   7.051  0.4384  0.3012  0.2602
  188SLPC   H4R21679   3.741   2.701   7.025  2.2155 -0.6990 -0.5721
  188SLPC   H4S21680   3.779   2.535   7.079  1.5827  1.8306  0.6281
  188SLPC   C2521681   3.611   2.609   7.181 -0.1503 -0.5273  0.1985
  188SLPC   H5R21682   3.557   2.513   7.192 -0.9089 -0.0905  0.3243
  188SLPC   H5S21683   3.545   2.698   7.185  0.4532  0.0992 -2.5275
  188SLPC   C2621684   3.716   2.616   7.305 -0.2503  0.1153 -0.7994
  188SLPC   H6R21685   3.764   2.716   7.294  1.0940 -0.1898  1.8829
  188SLPC   H6S21686   3.786   2.531   7.294 -1.3110 -1.1125  1.6335
  188SLPC   C2721687   3.625   2.612   7.441 -0.4467  0.6088 -0.9576
  188SLPC   H7R21688   3.568   2.517   7.436 -2.1810  1.7235 -3.3017
  188SLPC   H7S21689   3.553   2.696   7.448  0.5495  1.3203  1.1140
  188SLPC   C2821690   3.708   2.614   7.572 -0.0369 -0.0225 -0.3256
  188SLPC   H8R21691   3.632   2.627   7.653 -0.4422  1.2888 -0.9044
  188SLPC   H8S21692   3.769   2.706   7.573  1.3469 -0.9143 -1.5341
  188SLPC   C2921693   3.789   2.486   7.593 -0.2462  0.0682 -0.0867
  188SLPC   H9R21694   3.821   2.447   7.495 -1.7418  0.4130 -0.7344
  188SLPC  C21021695   3.811   2.419   7.710 -0.3957 -0.8265  0.6289
  188SLPC  H10R21696   3.885   2.339   7.698  0.5186  0.0857  0.0847
  188SLPC  C21121697   3.768   2.443   7.851  0.4954 -0.4298  0.7154
  188SLPC  H11R21698   3.658   2.430   7.861 -0.0228  1.6539 -1.9053
  188SLPC  H11S21699   3.797   2.547   7.877 -0.0096  0.1961 -1.1673
  188SLPC  C21221700   3.849   2.359   7.949  0.6174  0.3769 -0.3346
  188SLPC  H12R21701   3.941   2.313   7.910  0.7169  0.6131 -0.3815
  188SLPC  C21321702   3.809   2.324   8.071  0.5765 -0.6198 -0.3348
  188SLPC  H13R21703   3.881   2.283   8.143 -0.6123 -1.4598  0.4098
  188SLPC  C21421704   3.686   2.359   8.140 -0.2133 -0.7236 -0.1195
  188SLPC  H14R21705   3.628   2.268   8.166 -0.6169 -0.5696 -0.4852
  188SLPC  H14S21706   3.610   2.417   8.084  1.5149  0.5093 -1.2339
  188SLPC  C21521707   3.694   2.444   8.271  0.0896  0.1230  1.2169
  188SLPC  H15R21708   3.738   2.383   8.352  1.5402  0.1921  0.5012
  188SLPC  H15S21709   3.592   2.471   8.305 -0.6866 -0.8109 -0.3237
  188SLPC  C21621710   3.782   2.570   8.257  0.4077  0.3643  0.2055
  188SLPC  H16R21711   3.730   2.646   8.195  2.0479  0.1273 -1.5161
  188SLPC  H16S21712   3.879   2.548   8.207 -0.2374 -0.4487 -0.7286
  188SLPC  C21721713   3.812   2.640   8.394  0.1043  0.6673  0.6026
  188SLPC  H17R21714   3.875   2.725   8.361  1.6717 -1.0830 -1.0681
  188SLPC  H17S21715   3.881   2.575   8.453  1.9535  2.5703  0.5746
  188SLPC  C21821716   3.694   2.694   8.474  0.2388  0.2338  0.4540
  188SLPC  H18R21717   3.641   2.602   8.508 -2.4492 -0.0573 -4.0873
  188SLPC  H18S21718   3.635   2.750   8.398  1.9543  0.5913 -0.6227
  188SLPC  H18T21719   3.724   2.760   8.558 -1.9631 -1.4873  2.6925
  188SLPC   C3321720   3.125   2.483   6.912 -0.3026  0.5816 -0.7499
  188SLPC   H3X21721   3.102   2.396   6.977 -0.0584  1.2884  0.3034
  188SLPC   H3Y21722   3.046   2.555   6.942  1.5225  2.4633 -0.3796
  188SLPC   C3421723   3.246   2.574   6.944 -0.6049  0.1147 -0.7250
  188SLPC   H4X21724   3.233   2.662   6.878  0.1342  0.0249 -0.9926
  188SLPC   H4Y21725   3.333   2.513   6.912 -1.2645 -1.8198  1.0800
  188SLPC   C3521726   3.227   2.620   7.082 -0.0552  0.4918  0.2986
  188SLPC   H5X21727   3.136   2.682   7.099  0.5714  1.0733  1.6062
  188SLPC   H5Y21728   3.306   2.696   7.103  0.7943  0.0720 -1.2974
  188SLPC   C3621729   3.227   2.507   7.186 -0.6969  0.6192  0.7462
  188SLPC   H6X21730   3.310   2.446   7.146 -1.0482  1.9231 -2.0628
  188SLPC   H6Y21731   3.133   2.450   7.173 -0.1774 -0.4698  1.6501
  188SLPC   C3721732   3.250   2.553   7.330 -0.3146  0.6888  0.4148
  188SLPC   H7X21733   3.333   2.627   7.336  1.9640 -1.6656 -1.1386
  188SLPC   H7Y21734   3.290   2.467   7.388  0.4019  0.4149 -0.4766
  188SLPC   C3821735   3.126   2.613   7.394 -0.3836 -0.0426 -0.7648
  188SLPC   H8X21736   3.046   2.536   7.388 -1.6095  1.2190 -0.6676
  188SLPC   H8Y21737   3.090   2.698   7.332 -2.8656 -1.0071 -0.7048
  188SLPC   C3921738   3.142   2.660   7.544  0.5647 -0.0475  0.0814
  188SLPC   H9X21739   3.044   2.667   7.596  0.3582 -1.4685 -0.0919
  188SLPC   H9Y21740   3.189   2.760   7.539  0.2231  0.0359 -2.0340
  188SLPC  C31021741   3.233   2.557   7.617  0.6726 -0.4234  0.2843
  188SLPC  H10X21742   3.338   2.568   7.584  0.5424 -3.2812 -1.1686
  188SLPC  H10Y21743   3.205   2.455   7.583 -0.6903 -0.2406  0.8120
  188SLPC  C31121744   3.222   2.564   7.768  1.0818  0.4886 -0.4614
  188SLPC  H11X21745   3.253   2.468   7.814 -2.3567 -0.7825 -0.6984
  188SLPC  H11Y21746   3.115   2.579   7.793  1.7457  3.1019  1.0427
  188SLPC  C31221747   3.303   2.674   7.834 -0.4221 -0.6517 -0.7218
  188SLPC  H12X21748   3.309   2.770   7.779 -0.2919 -1.5780 -2.3401
  188SLPC  H12Y21749   3.410   2.647   7.824  0.2905 -0.4942  4.7830
  188SLPC  C31321750   3.269   2.695   7.972  0.5326  0.4955  0.0139
  188SLPC  H13X21751   3.258   2.597   8.022 -2.8328  2.1371  2.7085
  188SLPC  H13Y21752   3.177   2.756   7.988 -0.3483 -0.3329 -1.7546
  188SLPC  C31421753   3.384   2.761   8.060  0.2524  0.4589  0.4894
  188SLPC  H14X21754   3.408   2.858   8.010  1.1659 -0.4842 -0.9467
  188SLPC  H14Y21755   3.464   2.685   8.052 -0.4510 -0.1412 -1.0305
  188SLPC  C31521756   3.368   2.794   8.203  0.3662  0.1779 -0.7332
  188SLPC  H15X21757   3.281   2.863   8.214 -0.1604 -0.4948 -0.6862
  188SLPC  H15Y21758   3.462   2.841   8.238  0.6213  0.6554 -2.0528
  188SLPC  C31621759   3.315   2.667   8.280  0.6633 -0.4860  0.1743
  188SLPC  H16X21760   3.404   2.600   8.280 -0.6581 -2.2803  0.3671
  188SLPC  H16Y21761   3.236   2.604   8.234  0.2162  1.1436 -1.3428
  188SLPC  C31721762   3.283   2.701   8.427  0.2893  0.0339 -0.5490
  188SLPC  H17X21763   3.183   2.749   8.422  1.4133  2.5398  0.3947
  188SLPC  H17Y21764   3.359   2.770   8.470 -0.8255  0.6662  0.4338
  188SLPC  C31821765   3.265   2.587   8.517 -0.8739  0.7170  0.1783
  188SLPC  H18X21766   3.243   2.612   8.623 -1.0081 -3.4181  1.2378
  188SLPC  H18Y21767   3.360   2.530   8.527 -1.0202  0.3425 -0.5614
  188SLPC  H18Z21768   3.185   2.528   8.467  1.7675 -1.2634 -1.8930
  189SLPC     N21769   5.131   3.964   6.270  0.7327 -0.3388 -0.1139
  189SLPC   C1321770   5.021   3.882   6.219  0.5038  0.0327 -0.7964
  189SLPC  H13A21771   5.035   3.781   6.254 -0.4641  0.1557 -0.0301
  189SLPC  H13B21772   4.929   3.917   6.262  0.9334  1.3956 -0.9589
  189SLPC  H13C21773   5.023   3.899   6.113 -3.0875  1.6126 -0.6656
  189SLPC   C1421774   5.096   4.029   6.400  0.1404  0.1321  0.0205
  189SLPC  H14A21775   5.085   3.957   6.481 -0.0235  1.4835  1.2156
  189SLPC  H14B21776   5.174   4.099   6.425  1.3315 -1.6680  1.4848
  189SLPC  H14C21777   5.006   4.087   6.389 -0.4928 -0.9241 -0.4555
  189SLPC   C1521778   5.154   4.080   6.168 -0.0285 -0.1055  1.1757
  189SLPC  H15A21779   5.155   4.033   6.071 -0.2717  0.3612  0.9433
  189SLPC  H15B21780   5.075   4.154   6.168  0.5476  0.5461 -0.8916
  189SLPC  H15C21781   5.253   4.116   6.194  0.1329 -0.4554  1.0546
  189SLPC   C1221782   5.260   3.884   6.285 -0.3472 -0.0693  0.3125
  189SLPC  H12A21783   5.270   3.816   6.202 -0.5822 -0.1138  0.3205
  189SLPC  H12B21784   5.262   3.827   6.377  1.5132  2.1599  1.7332
  189SLPC   C1121785   5.396   3.966   6.285 -0.3260 -0.6753  0.5713
  189SLPC  H11A21786   5.411   3.999   6.180 -1.6015 -0.6268  0.3968
  189SLPC  H11B21787   5.481   3.903   6.318 -0.5672 -0.5827  1.3636
  189SLPC     P21788   5.501   4.199   6.364 -0.0053 -0.4668  0.0391
  189SLPC   O1321789   5.634   4.151   6.335 -0.0646 -0.0761  0.0603
  189SLPC   O1421790   5.449   4.299   6.266 -0.1211 -0.0868 -0.5262
  189SLPC   O1221791   5.394   4.086   6.366 -0.3880  0.2689  0.2201
  189SLPC   O1121792   5.491   4.253   6.513 -0.4451  0.2543  0.1753
  189SLPC    C121793   5.374   4.302   6.581 -0.3635  0.6721  0.0118
  189SLPC    HA21794   5.380   4.406   6.619 -2.1117 -0.3334  3.3082
  189SLPC    HB21795   5.278   4.300   6.525 -0.7446  4.2524  0.4277
  189SLPC    C221796   5.342   4.227   6.714 -0.4331 -0.6376 -0.7527
  189SLPC    HS21797   5.237   4.249   6.745  0.7787  1.6600  1.9924
  189SLPC   O2121798   5.430   4.257   6.822 -0.2306 -0.9292 -0.3542
  189SLPC   C2121799   5.414   4.376   6.877 -0.1147 -0.2983  0.1499
  189SLPC   O2221800   5.325   4.454   6.845 -0.0047 -0.1125  0.3020
  189SLPC   C2221801   5.532   4.399   6.975  0.0621 -0.2898  0.2093
  189SLPC   H2R21802   5.621   4.342   6.941 -0.3212 -0.5861 -0.3176
  189SLPC   H2S21803   5.560   4.506   6.965 -0.0502 -0.3810 -1.3030
  189SLPC    C321804   5.348   4.078   6.678  0.0813  0.2773 -0.3381
  189SLPC    HX21805   5.454   4.046   6.669  0.3159  0.7862  0.5575
  189SLPC    HY21806   5.289   4.055   6.586 -1.4909  0.5400  0.5934
  189SLPC   O3121807   5.291   4.011   6.790 -0.2011 -0.3858 -0.3479
  189SLPC   C3121808   5.283   3.881   6.763 -0.4691 -0.2065 -0.0287
  189SLPC   O3221809   5.319   3.829   6.658 -0.2511  0.8347 -0.5864
  189SLPC   C3221810   5.242   3.801   6.887  0.2268  0.2364 -0.5906
  189SLPC   H2X21811   5.330   3.785   6.953 -0.0885 -0.5280 -0.3533
  189SLPC   H2Y21812   5.216   3.700   6.849  2.4293 -0.5250 -0.1840
  189SLPC   C2321813   5.485   4.371   7.116  0.0764  0.0333  0.4505
  189SLPC   H3R21814   5.450   4.266   7.120  4.1426 -1.4880 -0.6601
  189SLPC   H3S21815   5.407   4.438   7.156 -0.8072 -2.1455  2.5013
  189SLPC   C2421816   5.602   4.379   7.225 -0.7203  0.7316  0.2574
  189SLPC   H4R21817   5.645   4.479   7.204 -1.0723  0.6353 -0.9990
  189SLPC   H4S21818   5.680   4.301   7.212 -2.7253 -1.4676  1.1547
  189SLPC   C2521819   5.550   4.373   7.368 -0.5941 -0.1008 -0.5047
  189SLPC   H5R21820   5.481   4.287   7.384 -0.3865 -0.2997 -0.6723
  189SLPC   H5S21821   5.491   4.463   7.395 -1.7173 -1.3674  1.3943
  189SLPC   C2621822   5.655   4.365   7.486  0.0407 -0.0468 -0.2523
  189SLPC   H6R21823   5.732   4.443   7.471  0.9032 -1.0778 -1.3115
  189SLPC   H6S21824   5.687   4.260   7.473  1.7022 -0.0178  3.1172
  189SLPC   C2721825   5.595   4.381   7.625 -0.6808  0.1145  0.3720
  189SLPC   H7R21826   5.677   4.363   7.698 -1.1510 -0.4374  0.7670
  189SLPC   H7S21827   5.512   4.308   7.640  0.1442 -1.9009 -4.1322
  189SLPC   C2821828   5.544   4.521   7.659  0.5284 -0.6770 -0.4548
  189SLPC   H8R21829   5.484   4.512   7.752  0.6480 -0.6786 -0.3768
  189SLPC   H8S21830   5.483   4.568   7.579 -0.4938 -0.8824  0.1983
  189SLPC   C2921831   5.653   4.617   7.681 -0.3008 -0.1930 -0.2953
  189SLPC   H9R21832   5.715   4.632   7.591 -0.7774  0.0876 -0.5798
  189SLPC  C21021833   5.684   4.678   7.802  0.0039  0.2845  0.0883
  189SLPC  H10R21834   5.771   4.746   7.806 -0.8529  1.3936  0.1279
  189SLPC  C21121835   5.609   4.665   7.928  0.2381  0.5315  0.2817
  189SLPC  H11R21836   5.641   4.569   7.974  0.5167  1.0805  1.2505
  189SLPC  H11S21837   5.501   4.654   7.904  0.4162 -0.1206 -0.2304
  189SLPC  C21221838   5.619   4.771   8.038 -0.6181  0.4572 -0.2113
  189SLPC  H12R21839   5.649   4.873   8.009 -1.2595  1.3008  2.0352
  189SLPC  C21321840   5.606   4.749   8.171  0.3022  0.0151 -0.1525
  189SLPC  H13R21841   5.626   4.831   8.241  0.0417  1.1820 -1.4162
  189SLPC  C21421842   5.570   4.627   8.241  0.2089 -0.0576  0.1060
  189SLPC  H14R21843   5.586   4.631   8.351  0.7335 -1.6018  0.0991
  189SLPC  H14S21844   5.639   4.545   8.213  1.8410  0.2139  3.1415
  189SLPC  C21521845   5.425   4.575   8.218  0.0628 -0.6320  0.2473
  189SLPC  H15R21846   5.419   4.470   8.255  0.8881  0.0575  2.3766
  189SLPC  H15S21847   5.404   4.578   8.109  3.1434  2.9327 -0.3487
  189SLPC  C21621848   5.323   4.660   8.286 -0.3379  0.1992  0.0508
  189SLPC  H16R21849   5.228   4.603   8.290 -0.2718  0.1330  0.8234
  189SLPC  H16S21850   5.301   4.757   8.238  2.1090  0.0496 -1.4917
  189SLPC  C21721851   5.351   4.691   8.437  0.1596  0.4849  0.0807
  189SLPC  H17R21852   5.267   4.747   8.484 -0.6277 -1.3229  0.8869
  189SLPC  H17S21853   5.436   4.761   8.445 -1.3512  2.3083  0.6017
  189SLPC  C21821854   5.375   4.573   8.534  0.3459  0.2243  0.1304
  189SLPC  H18R21855   5.407   4.609   8.634 -2.3247  3.3406 -0.0668
  189SLPC  H18S21856   5.448   4.507   8.482  0.6428  1.7275 -1.4208
  189SLPC  H18T21857   5.280   4.520   8.554 -0.4456  1.1417 -1.1555
  189SLPC   C3321858   5.134   3.868   6.976  0.2193 -0.1355  0.0767
  189SLPC   H3X21859   5.051   3.881   6.904 -2.0137  0.4225  2.6572
  189SLPC   H3Y21860   5.154   3.971   7.013 -1.1360 -0.2647  1.1982
  189SLPC   C3421861   5.083   3.777   7.087 -0.1369  0.3286  0.3658
  189SLPC   H4X21862   5.073   3.675   7.044 -1.0625  0.1866  0.9106
  189SLPC   H4Y21863   4.976   3.799   7.103 -0.9321 -0.5760 -3.2802
  189SLPC   C3521864   5.155   3.775   7.223  0.4519  0.6447  0.9065
  189SLPC   H5X21865   5.172   3.882   7.246  0.6196  1.3714 -2.3827
  189SLPC   H5Y21866   5.258   3.732   7.216  0.7214  0.9863  2.6799
  189SLPC   C3621867   5.080   3.695   7.332 -0.4365 -0.4055  0.2209
  189SLPC   H6X21868   5.065   3.590   7.297  0.2123 -0.7672  1.0067
  189SLPC   H6Y21869   4.976   3.734   7.331 -0.2977  0.0120 -2.3710
  189SLPC   C3721870   5.135   3.716   7.466  0.0492 -0.1597  0.2043
  189SLPC   H7X21871   5.160   3.823   7.484  0.7696 -0.4693  1.0622
  189SLPC   H7Y21872   5.235   3.669   7.456  1.4988  2.5937  1.1422
  189SLPC   C3821873   5.032   3.664   7.567 -0.2178  0.5851  0.9581
  189SLPC   H8X21874   5.030   3.553   7.561 -1.5539  0.5708  1.5105
  189SLPC   H8Y21875   4.931   3.698   7.535  0.0646 -0.0537 -0.6717
  189SLPC   C3921876   5.039   3.732   7.698 -0.7093  0.3126 -0.3325
  189SLPC   H9X21877   5.015   3.840   7.690  0.5004  0.8563  2.7683
  189SLPC   H9Y21878   5.145   3.733   7.732 -1.2036 -0.2242  1.2564
  189SLPC  C31021879   4.963   3.656   7.807  0.8453 -0.0207 -0.4866
  189SLPC  H10X21880   5.015   3.558   7.812  1.8664  0.6666  3.3376
  189SLPC  H10Y21881   4.854   3.647   7.786  0.4345  1.8683  0.7392
  189SLPC  C31121882   4.983   3.728   7.944 -0.8617 -0.8991  1.0784
  189SLPC  H11X21883   4.893   3.698   8.002 -0.5010 -3.1532  0.5145
  189SLPC  H11Y21884   4.977   3.839   7.941 -1.4408 -0.8814  2.3663
  189SLPC  C31221885   5.108   3.685   8.023  0.5775  0.0598 -0.5559
  189SLPC  H12X21886   5.203   3.709   7.970  1.5847  0.5045  1.3877
  189SLPC  H12Y21887   5.099   3.574   8.029 -1.7877  0.3179  1.2624
  189SLPC  C31321888   5.119   3.755   8.159  0.1479 -0.7740  0.1703
  189SLPC  H13X21889   5.031   3.744   8.225 -1.6455 -0.4105 -2.0726
  189SLPC  H13Y21890   5.127   3.863   8.133 -1.2092 -0.2653  1.7786
  189SLPC  C31421891   5.245   3.715   8.236  0.4927 -0.1379 -0.1698
  189SLPC  H14X21892   5.340   3.718   8.178 -0.1274  0.3340 -1.1747
  189SLPC  H14Y21893   5.225   3.613   8.276 -3.2613  0.9515  0.9198
  189SLPC  C31521894   5.285   3.789   8.364 -0.0925 -0.6250 -1.0832
  189SLPC  H15X21895   5.210   3.770   8.443  0.7119 -1.3291 -0.4704
  189SLPC  H15Y21896   5.272   3.895   8.332 -0.5490 -0.0145  1.0630
  189SLPC  C31621897   5.431   3.756   8.409  0.2217  0.2593 -0.7192
  189SLPC  H16X21898   5.505   3.800   8.338 -0.2696 -0.8807 -1.9668
  189SLPC  H16Y21899   5.444   3.646   8.418 -1.1672  0.1753  0.3481
  189SLPC  C31721900   5.466   3.819   8.543  0.3553  1.1827  0.5088
  189SLPC  H17X21901   5.572   3.791   8.555  0.3012  0.4106 -0.7474
  189SLPC  H17Y21902   5.405   3.774   8.624  0.0470  1.2553  0.3167
  189SLPC  C31821903   5.451   3.969   8.525 -0.4108  0.4772 -0.3454
  189SLPC  H18X21904   5.494   4.020   8.613  1.1155 -1.1095 -0.1441
  189SLPC  H18Y21905   5.347   4.004   8.506 -2.2947 -3.4635  2.1754
  189SLPC  H18Z21906   5.510   3.990   8.433  1.0995 -0.8976  0.2944
  190SLPC     N21907   5.749   3.452   6.322 -0.4636  0.3250 -0.4555
  190SLPC   C1321908   5.791   3.594   6.309  0.2209  0.6443 -0.1307
  190SLPC  H13A21909   5.758   3.653   6.394 -0.8773 -1.7743  1.1678
  190SLPC  H13B21910   5.898   3.604   6.295  0.0601  1.3928 -0.8247
  190SLPC  H13C21911   5.749   3.651   6.228 -1.3566  2.3534  1.8415
  190SLPC   C1421912   5.802   3.364   6.219  0.1148  0.0867 -0.7535
  190SLPC  H14A21913   5.755   3.268   6.231 -1.9415  1.3162  1.2237
  190SLPC  H14B21914   5.780   3.402   6.120 -1.4375  0.2003 -0.3798
  190SLPC  H14C21915   5.909   3.352   6.227 -0.2441 -2.0653  1.2110
  190SLPC   C1521916   5.602   3.435   6.299  0.2186 -0.2921 -0.8785
  190SLPC  H15A21917   5.567   3.461   6.200  0.3876  0.8128 -0.6614
  190SLPC  H15B21918   5.577   3.331   6.312 -2.5134  0.8384  3.7709
  190SLPC  H15C21919   5.545   3.491   6.371  0.4809 -0.4185 -0.5718
  190SLPC   C1221920   5.783   3.408   6.460  0.4607  0.1394 -0.2323
  190SLPC  H12A21921   5.774   3.494   6.525  0.5967 -0.1119  0.1231
  190SLPC  H12B21922   5.888   3.384   6.463  0.2245 -0.9151 -0.0332
  190SLPC   C1121923   5.700   3.288   6.518  0.2043  0.7921 -0.4972
  190SLPC  H11A21924   5.591   3.307   6.523  0.0216 -0.3481 -0.0289
  190SLPC  H11B21925   5.733   3.296   6.624  1.0436  2.6018 -0.8610
  190SLPC     P21926   5.882   3.102   6.460 -0.1335 -0.0411 -0.4165
  190SLPC   O1321927   5.901   3.023   6.336 -0.6578  0.1362 -0.0149
  190SLPC   O1421928   5.975   3.213   6.488 -0.1972  0.2295 -0.0590
  190SLPC   O1221929   5.743   3.178   6.453  0.5242  0.5153  0.1378
  190SLPC   O1121930   5.871   3.015   6.589 -0.0018  0.9728  0.2229
  190SLPC    C121931   5.776   2.916   6.627  0.0657 -0.1267  0.0776
  190SLPC    HA21932   5.703   2.892   6.547 -0.6912  2.6120 -0.1125
  190SLPC    HB21933   5.832   2.821   6.641 -0.2884 -0.0063  2.5534
  190SLPC    C221934   5.699   2.961   6.753 -0.2052  0.5069  0.1574
  190SLPC    HS21935   5.642   3.052   6.727  2.6200  2.1782 -0.4331
  190SLPC   O2121936   5.799   2.985   6.855  0.5546  0.2469 -0.4168
  190SLPC   C2121937   5.779   3.087   6.938  0.0452 -0.4995  0.0462
  190SLPC   O2221938   5.679   3.161   6.928 -0.5675  0.2939 -0.7260
  190SLPC   C2221939   5.885   3.109   7.042  0.6769  0.3538  0.4514
  190SLPC   H2R21940   5.951   3.021   7.055  0.8205  0.7665  2.6361
  190SLPC   H2S21941   5.946   3.194   7.005 -0.3139  1.8771  2.2255
  190SLPC    C321942   5.598   2.848   6.797  0.1054  0.7011 -0.5638
  190SLPC    HX21943   5.664   2.765   6.832  0.7314  1.9559  1.3330
  190SLPC    HY21944   5.539   2.818   6.708  0.3467 -2.9270  0.4344
  190SLPC   O3121945   5.511   2.883   6.901 -0.5486 -0.1400  0.6710
  190SLPC   C3121946   5.551   2.875   7.032  0.7240 -0.0065 -1.1309
  190SLPC   O3221947   5.652   2.818   7.071  0.1809  0.3633 -0.4115
  190SLPC   C3221948   5.449   2.945   7.122  0.1058 -0.2917 -0.0410
  190SLPC   H2X21949   5.355   2.943   7.062 -0.8286  1.4019  1.2811
  190SLPC   H2Y21950   5.485   3.050   7.128 -0.5844  0.0010 -0.9400
  190SLPC   C2321951   5.831   3.155   7.175 -0.1334  0.0153 -1.0134
  190SLPC   H3R21952   5.918   3.171   7.242 -0.8548 -0.9991  0.1992
  190SLPC   H3S21953   5.770   3.073   7.218  1.9720 -0.4546  1.1758
  190SLPC   C2421954   5.757   3.289   7.176  1.0702  0.2227  0.3579
  190SLPC   H4R21955   5.667   3.286   7.110 -0.4667 -1.0945  2.4647
  190SLPC   H4S21956   5.833   3.364   7.143  0.0235  1.2470  0.2342
  190SLPC   C2521957   5.709   3.329   7.311 -0.8032 -0.0682 -0.2004
  190SLPC   H5R21958   5.659   3.237   7.348  1.5034 -0.5564  1.8204
  190SLPC   H5S21959   5.627   3.402   7.292 -0.3780  0.1945 -1.0416
  190SLPC   C2621960   5.820   3.370   7.402  0.1815  0.0246  0.0383
  190SLPC   H6R21961   5.844   3.472   7.364 -0.1978 -0.2722 -1.0088
  190SLPC   H6S21962   5.913   3.313   7.384 -0.7080 -0.5237 -3.0418
  190SLPC   C2721963   5.772   3.365   7.546 -0.7723  0.3857 -0.3707
  190SLPC   H7R21964   5.747   3.259   7.567 -1.2447  0.1288 -2.1123
  190SLPC   H7S21965   5.677   3.421   7.563 -2.3471 -2.0705 -0.8822
  190SLPC   C2821966   5.884   3.423   7.638 -0.0196 -0.1672 -0.6964
  190SLPC   H8R21967   5.905   3.528   7.610 -2.9650  1.0228  1.3148
  190SLPC   H8S21968   5.966   3.352   7.613 -0.8514 -1.5306  0.3613
  190SLPC   C2921969   5.858   3.413   7.783  0.4230 -0.2796  0.5095
  190SLPC   H9R21970   5.752   3.412   7.810 -0.7580  2.7267 -3.5191
  190SLPC  C21021971   5.947   3.408   7.886 -0.1303  0.5906  0.3630
  190SLPC  H10R21972   5.903   3.398   7.986 -0.4426 -0.2024  0.1475
  190SLPC  C21121973   6.097   3.408   7.874 -0.3428  0.1548  0.1082
  190SLPC  H11R21974   6.132   3.447   7.777  0.9522  1.4080  1.0761
  190SLPC  H11S21975   6.133   3.303   7.871  2.1084  0.9863 -0.4753
  190SLPC  C21221976   6.165   3.471   7.986 -1.0335  0.3964  0.5676
  190SLPC  H12R21977   6.236   3.409   8.044 -1.9241 -0.5944  0.6216
  190SLPC  C21321978   6.155   3.601   8.026 -0.1181 -0.3918  0.5342
  190SLPC  H13R21979   6.228   3.638   8.099  3.6810 -0.4850 -3.0687
  190SLPC  C21421980   6.066   3.705   7.963  0.2851  0.3190  0.1950
  190SLPC  H14R21981   5.986   3.664   7.897  2.3721  1.1623 -2.9691
  190SLPC  H14S21982   6.120   3.775   7.896  0.6504 -0.8239 -0.7353
  190SLPC  C21521983   5.996   3.780   8.080  0.2490  0.6199  0.0492
  190SLPC  H15R21984   5.926   3.852   8.033 -0.8458  0.6234  1.6382
  190SLPC  H15S21985   6.077   3.833   8.134  0.8281 -0.1171 -0.1014
  190SLPC  C21621986   5.929   3.684   8.179  0.6082  0.4170 -0.3372
  190SLPC  H16R21987   5.992   3.634   8.256 -0.2960  0.1709  0.2570
  190SLPC  H16S21988   5.880   3.603   8.120 -0.6142  0.1915  0.9269
  190SLPC  C21721989   5.815   3.745   8.266  0.2737  0.2168  0.2192
  190SLPC  H17R21990   5.783   3.672   8.344  0.0191  0.2525  0.1495
  190SLPC  H17S21991   5.727   3.764   8.202  0.4951  0.0149 -0.1487
  190SLPC  C21821992   5.858   3.868   8.343 -1.0804 -0.3331 -0.0717
  190SLPC  H18R21993   5.772   3.923   8.387 -1.1923  0.2258 -0.9620
  190SLPC  H18S21994   5.909   3.946   8.281  4.5045 -2.4118  1.6385
  190SLPC  H18T21995   5.928   3.833   8.422  0.4127 -1.6998 -1.9698
  190SLPC   C3321996   5.425   2.889   7.263  0.1546 -0.0088  0.3675
  190SLPC   H3X21997   5.438   2.779   7.266 -0.1095 -0.0631 -0.3321
  190SLPC   H3Y21998   5.321   2.912   7.295 -0.8782 -1.4975 -1.8059
  190SLPC   C3421999   5.531   2.947   7.369 -0.0120 -0.5667  0.1367
  190SLPC   H4X22000   5.487   3.047   7.390 -0.5923 -1.0259  1.1346
  190SLPC   H4Y22001   5.634   2.949   7.326 -0.3404  2.6110 -0.6402
  190SLPC   C3522002   5.528   2.857   7.489  1.1473  1.0998 -0.0999
  190SLPC   H5X22003   5.597   2.770   7.479 -0.3971 -0.1007 -0.4708
  190SLPC   H5Y22004   5.426   2.815   7.497  1.1415  1.3345  1.0681
  190SLPC   C3622005   5.563   2.940   7.614  0.1618  0.3666  0.2303
  190SLPC   H6X22006   5.504   3.034   7.618 -0.8718 -0.1092 -2.4893
  190SLPC   H6Y22007   5.667   2.977   7.598 -0.1566  1.6753  1.1134
  190SLPC   C3722008   5.555   2.856   7.746  0.1218 -0.3550  0.1726
  190SLPC   H7X22009   5.637   2.780   7.746  0.3293 -0.1466 -1.1941
  190SLPC   H7Y22010   5.458   2.806   7.770 -0.6330 -1.1148 -4.1219
  190SLPC   C3822011   5.579   2.951   7.861 -0.4828 -0.1697  0.3370
  190SLPC   H8X22012   5.501   3.030   7.858 -0.4638 -0.1145  1.1903
  190SLPC   H8Y22013   5.669   3.015   7.845  0.2516 -1.6432 -1.5844
  190SLPC   C3922014   5.593   2.895   8.001  0.6991 -0.2386  0.0635
  190SLPC   H9X22015   5.489   2.878   8.035  0.8227 -2.6877 -0.6700
  190SLPC   H9Y22016   5.631   2.975   8.068 -1.9791 -0.2869  1.7100
  190SLPC  C31022017   5.678   2.768   8.028 -0.6128  0.0059 -0.1404
  190SLPC  H10X22018   5.776   2.779   7.977 -0.5330 -0.9512 -0.2146
  190SLPC  H10Y22019   5.620   2.686   7.980 -0.9158  0.3241 -0.3174
  190SLPC  C31122020   5.711   2.740   8.174  0.0726 -0.0630 -0.1960
  190SLPC  H11X22021   5.621   2.741   8.239  0.0241  0.6833 -0.2740
  190SLPC  H11Y22022   5.759   2.832   8.214  0.9595 -0.6093  0.0050
  190SLPC  C31222023   5.793   2.612   8.204  0.3699 -0.0144 -0.3805
  190SLPC  H12X22024   5.893   2.624   8.157  0.5781  1.8138  0.4954
  190SLPC  H12Y22025   5.757   2.516   8.160 -0.3348 -0.4858  1.2033
  190SLPC  C31322026   5.801   2.589   8.351 -0.2824 -0.2158 -0.1621
  190SLPC  H13X22027   5.705   2.583   8.407 -0.5357 -2.0129 -0.7445
  190SLPC  H13Y22028   5.852   2.678   8.392  0.8111  0.0122 -1.9786
  190SLPC  C31422029   5.893   2.468   8.389 -0.4292 -0.8969 -0.5733
  190SLPC  H14X22030   5.991   2.503   8.351  0.2739 -1.4753  0.6753
  190SLPC  H14Y22031   5.852   2.383   8.331  0.3386 -0.9876 -0.9848
  190SLPC  C31522032   5.895   2.435   8.534 -1.1493  0.4782  0.3390
  190SLPC  H15X22033   5.796   2.393   8.561 -1.1605 -0.6436 -1.3894
  190SLPC  H15Y22034   5.902   2.532   8.587  2.2660  1.1426 -1.1914
  190SLPC  C31622035   6.020   2.347   8.566 -0.5520  0.0502  0.1006
  190SLPC  H16X22036   6.107   2.391   8.513  1.4739 -2.6608  1.0309
  190SLPC  H16Y22037   5.994   2.254   8.511  0.7686  0.3917 -1.1309
  190SLPC  C31722038   6.029   2.320   8.712  0.3847 -0.5938  0.2523
  190SLPC  H17X22039   6.098   2.234   8.726 -0.7872 -1.6732 -0.5410
  190SLPC  H17Y22040   5.929   2.287   8.746 -0.3812 -0.7018 -2.0318
  190SLPC  C31822041   6.073   2.440   8.806  0.3998  0.0558  0.3196
  190SLPC  H18X22042   6.038   2.418   8.910  0.3557  1.1944  0.5559
  190SLPC  H18Y22043   6.038   2.540   8.772  0.7963 -0.3540 -1.3290
  190SLPC  H18Z22044   6.184   2.439   8.808  0.4335 -2.1080 -1.0925
  191SLPC     N22045   5.152   5.647   5.695  0.3369  0.5275 -0.2907
  191SLPC   C1322046   5.008   5.651   5.721 -0.1834 -0.0320  0.3338
  191SLPC  H13A22047   4.965   5.744   5.688 -0.1428 -0.3068 -0.4834
  191SLPC  H13B22048   4.953   5.580   5.662 -0.1561  0.5285 -0.3667
  191SLPC  H13C22049   4.989   5.632   5.826 -2.8905  1.4349  0.1346
  191SLPC   C1422050   5.176   5.726   5.572  0.4695  0.3803  0.4373
  191SLPC  H14A22051   5.135   5.677   5.485  0.1263 -0.2330  0.9494
  191SLPC  H14B22052   5.115   5.815   5.581  0.2042  0.2852 -0.3716
  191SLPC  H14C22053   5.277   5.751   5.541  1.0607 -0.7234  1.4567
  191SLPC   C1522054   5.208   5.502   5.676  0.0787  0.5347 -0.3444
  191SLPC  H15A22055   5.201   5.464   5.777 -1.9129  0.4937 -0.4901
  191SLPC  H15B22056   5.145   5.442   5.612  0.6102 -0.7788  0.3484
  191SLPC  H15C22057   5.309   5.508   5.639  0.3252  0.1660  0.2632
  191SLPC   C1222058   5.222   5.711   5.813 -0.2096 -0.6511  0.1899
  191SLPC  H12A22059   5.185   5.811   5.831  2.5021  0.7850 -1.7352
  191SLPC  H12B22060   5.324   5.730   5.782 -1.0684  0.8349 -1.7976
  191SLPC   C1122061   5.222   5.645   5.952 -0.0431 -0.1136  0.2041
  191SLPC  H11A22062   5.312   5.681   6.006 -1.1247 -1.2136  2.8116
  191SLPC  H11B22063   5.232   5.535   5.948  0.4272 -0.0410 -0.7933
  191SLPC     P22064   5.078   5.831   6.074 -0.5764  0.2022  0.5108
  191SLPC   O1322065   5.178   5.920   6.013  0.5468  0.0892 -0.0231
  191SLPC   O1422066   4.939   5.864   6.030  0.4052  0.0299  0.6641
  191SLPC   O1222067   5.106   5.686   6.027 -0.2395 -0.0287  0.3176
  191SLPC   O1122068   5.092   5.829   6.232  0.3164  0.1158  0.2889
  191SLPC    C122069   5.128   5.708   6.301  0.6930  0.3690  0.0224
  191SLPC    HA22070   5.076   5.615   6.268 -1.3403  1.6870 -0.6339
  191SLPC    HB22071   5.238   5.694   6.301  0.7152  0.3681 -2.1325
  191SLPC    C222072   5.079   5.724   6.446  0.1545  0.0324 -0.1366
  191SLPC    HS22073   4.968   5.726   6.439  0.2583 -0.3454 -2.0063
  191SLPC   O2122074   5.144   5.844   6.497  0.5133  0.2716  0.0433
  191SLPC   C2122075   5.093   5.919   6.596  0.1687 -0.6322  0.2314
  191SLPC   O2222076   4.991   5.891   6.649  0.5187 -0.3938  0.0270
  191SLPC   C2222077   5.165   6.056   6.611 -1.0472 -0.4003 -0.8150
  191SLPC   H2R22078   5.251   6.058   6.541 -2.7403 -2.5326 -2.9934
  191SLPC   H2S22079   5.083   6.129   6.595  2.2024  3.7992  0.4570
  191SLPC    C322080   5.120   5.608   6.547  0.0243  0.6808  0.1659
  191SLPC    HX22081   5.230   5.598   6.553 -0.0711 -0.0791  0.6847
  191SLPC    HY22082   5.081   5.511   6.509 -2.5603  0.9848  1.8562
  191SLPC   O3122083   5.073   5.623   6.682 -0.0406 -0.0112 -0.3618
  191SLPC   C3122084   4.943   5.600   6.697  1.1974  0.7523  0.3132
  191SLPC   O3222085   4.869   5.558   6.609  0.4435 -0.6898  0.3465
  191SLPC   C3222086   4.905   5.620   6.847  0.0284 -1.0406 -0.6735
  191SLPC   H2X22087   4.959   5.714   6.871  1.3321 -1.1714 -2.9490
  191SLPC   H2Y22088   4.934   5.539   6.917 -0.1293 -1.1652 -0.7532
  191SLPC   C2322089   5.221   6.062   6.763  0.3738 -0.6142 -0.9884
  191SLPC   H3R22090   5.309   6.129   6.758  0.1479 -0.2176  0.1206
  191SLPC   H3S22091   5.257   5.969   6.811 -0.6870  0.2222  1.5429
  191SLPC   C2422092   5.124   6.133   6.862 -0.1546  0.7226 -0.7568
  191SLPC   H4R22093   5.031   6.072   6.872 -0.0021  0.5384 -0.4253
  191SLPC   H4S22094   5.100   6.230   6.815  1.7917 -0.0933 -3.5495
  191SLPC   C2522095   5.195   6.152   6.996 -0.3675  0.0835  0.0285
  191SLPC   H5R22096   5.269   6.234   6.991 -1.0088  0.7450  1.0241
  191SLPC   H5S22097   5.262   6.073   7.035  0.7968  2.0870  2.2123
  191SLPC   C2622098   5.101   6.191   7.118 -0.2568  0.3017 -0.1141
  191SLPC   H6R22099   5.160   6.193   7.212 -0.4180  2.6904 -0.0336
  191SLPC   H6S22100   5.026   6.110   7.115 -1.3947  1.2476  2.0338
  191SLPC   C2722101   5.016   6.313   7.111  0.1809 -0.5074 -0.7182
  191SLPC   H7R22102   4.959   6.298   7.017 -0.7030  0.2528 -0.3177
  191SLPC   H7S22103   5.078   6.405   7.097  0.1349  0.0306  2.3191
  191SLPC   C2822104   4.935   6.324   7.244  1.1715 -0.0313  0.0249
  191SLPC   H8R22105   4.886   6.422   7.257 -0.7155 -1.0404  0.7161
  191SLPC   H8S22106   5.007   6.328   7.329  1.5449 -0.5199 -0.2595
  191SLPC   C2922107   4.828   6.219   7.257  0.2407  0.4498 -0.2642
  191SLPC   H9R22108   4.779   6.209   7.160 -1.0591 -2.3485  0.6203
  191SLPC  C21022109   4.804   6.156   7.372  0.0542  0.2586 -0.4038
  191SLPC  H10R22110   4.721   6.083   7.370  0.4014 -0.1495 -0.0907
  191SLPC  C21122111   4.878   6.192   7.502 -0.1843 -0.5048  0.2748
  191SLPC  H11R22112   4.904   6.299   7.517 -1.1082 -0.3763  1.0202
  191SLPC  H11S22113   4.974   6.137   7.499 -1.4508 -2.8732  1.6023
  191SLPC  C21222114   4.805   6.144   7.628 -0.8028  0.0885 -0.1467
  191SLPC  H12R22115   4.842   6.054   7.679 -1.0426  0.2789  0.3630
  191SLPC  C21322116   4.718   6.214   7.697 -0.1724 -0.1442  1.3035
  191SLPC  H13R22117   4.668   6.164   7.781  2.2222 -0.0539  2.8157
  191SLPC  C21422118   4.664   6.356   7.662  0.3947  0.3363  0.4350
  191SLPC  H14R22119   4.553   6.353   7.671  0.2647  1.1338 -0.8702
  191SLPC  H14S22120   4.688   6.383   7.557 -2.5068 -1.5780 -0.7861
  191SLPC  C21522121   4.732   6.458   7.751 -0.0969  0.1861 -0.0200
  191SLPC  H15R22122   4.689   6.556   7.721  1.5553  0.7201 -0.6699
  191SLPC  H15S22123   4.841   6.465   7.730 -0.1497  0.2028 -0.2920
  191SLPC  C21622124   4.704   6.425   7.901  0.0997 -0.4069  0.2663
  191SLPC  H16R22125   4.743   6.325   7.932  0.4992  0.0899  1.3753
  191SLPC  H16S22126   4.597   6.420   7.932 -0.5288 -1.6220 -1.8897
  191SLPC  C21722127   4.783   6.521   7.992  0.2377 -0.1676 -0.1780
  191SLPC  H17R22128   4.723   6.613   8.010  1.4598  0.2847  1.7560
  191SLPC  H17S22129   4.879   6.546   7.941  0.5089 -1.4814 -0.3298
  191SLPC  C21822130   4.824   6.461   8.125  0.3562  0.4796 -0.0142
  191SLPC  H18R22131   4.858   6.536   8.199 -0.6038 -0.4982  1.4370
  191SLPC  H18S22132   4.885   6.369   8.129  0.8285  0.7843 -0.1153
  191SLPC  H18T22133   4.727   6.425   8.165  2.1505 -1.0465  3.0739
  191SLPC   C3322134   4.759   5.661   6.871  0.1418 -0.1303  0.0817
  191SLPC   H3X22135   4.685   5.578   6.868  0.0135 -0.0398  0.6946
  191SLPC   H3Y22136   4.738   5.735   6.790 -0.0389  1.7995  1.8283
  191SLPC   C3422137   4.736   5.738   7.004  0.2502  0.2287  0.1152
  191SLPC   H4X22138   4.631   5.776   7.011 -0.6503 -2.5030  2.2993
  191SLPC   H4Y22139   4.802   5.827   7.002  0.7819 -0.1780 -0.7124
  191SLPC   C3522140   4.775   5.657   7.127 -0.8719  0.0948 -0.4061
  191SLPC   H5X22141   4.873   5.604   7.124 -0.8874  0.1208 -1.5047
  191SLPC   H5Y22142   4.705   5.572   7.134 -0.2338 -0.5250 -1.5154
  191SLPC   C3622143   4.768   5.746   7.257 -1.2009 -0.0219  0.5042
  191SLPC   H6X22144   4.666   5.790   7.255 -1.4027 -0.5299 -1.1150
  191SLPC   H6Y22145   4.841   5.829   7.245 -0.8755 -0.3564  0.1730
  191SLPC   C3722146   4.788   5.672   7.389 -0.4600  0.3650  0.0681
  191SLPC   H7X22147   4.893   5.639   7.408 -0.5260 -1.4332 -2.4045
  191SLPC   H7Y22148   4.732   5.576   7.382  1.7039 -0.8377 -1.3374
  191SLPC   C3822149   4.730   5.762   7.497  0.4646 -0.0512  0.2030
  191SLPC   H8X22150   4.626   5.787   7.466  0.8883  1.1954 -0.2701
  191SLPC   H8Y22151   4.789   5.856   7.487  0.8331 -0.3414 -0.4261
  191SLPC   C3922152   4.720   5.701   7.630 -0.5911 -0.2683  0.3010
  191SLPC   H9X22153   4.820   5.716   7.675  1.3710 -2.5742 -3.0987
  191SLPC   H9Y22154   4.681   5.597   7.628 -0.7376 -0.2609  2.1960
  191SLPC  C31022155   4.617   5.771   7.728  0.3083 -0.0850  0.6630
  191SLPC  H10X22156   4.510   5.770   7.700  0.7189 -1.2953 -0.9129
  191SLPC  H10Y22157   4.641   5.880   7.732  1.6756 -0.3086 -0.9802
  191SLPC  C31122158   4.618   5.716   7.868 -0.4850 -0.8532 -0.4791
  191SLPC  H11X22159   4.577   5.800   7.929  0.8863 -1.0691  0.7770
  191SLPC  H11Y22160   4.723   5.706   7.903 -0.7321 -0.0112  0.5592
  191SLPC  C31222161   4.526   5.591   7.887  0.4962  0.2973  0.5445
  191SLPC  H12X22162   4.563   5.503   7.830  1.9931 -0.2072  2.2495
  191SLPC  H12Y22163   4.425   5.628   7.859  0.2348 -0.0724  1.0050
  191SLPC  C31322164   4.522   5.542   8.036  0.0640 -0.0994  0.2946
  191SLPC  H13X22165   4.474   5.620   8.099 -1.8426 -2.2278  1.5721
  191SLPC  H13Y22166   4.627   5.522   8.068  0.3456  0.3424 -0.3426
  191SLPC  C31422167   4.445   5.413   8.050 -0.0236 -0.4426 -0.0528
  191SLPC  H14X22168   4.471   5.353   8.140 -0.7688  0.1114  0.5266
  191SLPC  H14Y22169   4.479   5.347   7.967  1.2069 -0.2818  0.3148
  191SLPC  C31522170   4.296   5.435   8.044  0.9866  0.4378 -0.0952
  191SLPC  H15X22171   4.250   5.340   8.008  2.8023 -0.3911 -0.2468
  191SLPC  H15Y22172   4.280   5.525   7.982  2.0336  1.5411  1.2071
  191SLPC  C31622173   4.218   5.460   8.179 -0.2557 -0.4940  0.6551
  191SLPC  H16X22174   4.108   5.449   8.165  0.0622 -0.7619 -1.7652
  191SLPC  H16Y22175   4.235   5.562   8.218 -1.9154  0.6389 -1.4653
  191SLPC  C31722176   4.250   5.355   8.285  0.1461 -1.1113  0.1034
  191SLPC  H17X22177   4.357   5.369   8.312  0.7350 -4.2610 -0.4471
  191SLPC  H17Y22178   4.214   5.259   8.242  0.1591 -1.5284  0.9955
  191SLPC  C31822179   4.177   5.383   8.417  0.2643 -0.0554 -0.1196
  191SLPC  H18X22180   4.200   5.311   8.499 -2.7102 -0.9902 -0.0341
  191SLPC  H18Y22181   4.067   5.382   8.398  0.2424 -1.0120  0.0033
  191SLPC  H18Z22182   4.198   5.483   8.459 -0.8656  0.2122 -0.1864
  192SLPC     N22183   5.372   0.006   6.404  0.4370 -0.4136 -0.4028
  192SLPC   C1322184   5.252   0.084   6.456  0.2924  0.2009  0.2221
  192SLPC  H13A22185   5.290   0.173   6.503 -1.3385  0.4971  1.0049
  192SLPC  H13B22186   5.185   0.125   6.381  0.5618  0.6381  0.2183
  192SLPC  H13C22187   5.186   0.038   6.528 -0.5777  0.7575 -0.2155
  192SLPC   C1422188   5.462   0.094   6.320  0.4185  0.3788  0.4049
  192SLPC  H14A22189   5.515   0.157   6.390  1.4078  0.5123 -0.4485
  192SLPC  H14B22190   5.533   0.027   6.274 -0.8187 -0.4343 -0.3234
  192SLPC  H14C22191   5.417   0.159   6.246 -1.8306 -1.4795  0.0789
  192SLPC   C1522192   5.312  -0.092   6.301  0.4224  0.4246  0.3588
  192SLPC  H15A22193   5.385  -0.159   6.259  0.0028  0.4986 -0.4972
  192SLPC  H15B22194   5.231  -0.145   6.350 -1.0918  0.2365 -2.2647
  192SLPC  H15C22195   5.261  -0.044   6.219  0.6853  0.4300  0.1980
  192SLPC   C1222196   5.442  -0.058   6.525  0.4544 -0.3452 -0.4902
  192SLPC  H12A22197   5.360  -0.100   6.581  0.2210 -0.5531 -0.9763
  192SLPC  H12B22198   5.481   0.023   6.585 -0.1584 -0.0046 -0.5544
  192SLPC   C1122199   5.546  -0.165   6.479 -0.0572  0.5595 -0.4868
  192SLPC  H11A22200   5.620  -0.197   6.556  0.9419 -0.4660 -1.8440
  192SLPC  H11B22201   5.611  -0.125   6.398 -0.4425 -0.4094 -1.2749
  192SLPC     P22202   5.405  -0.380   6.523  0.2065 -0.3836  0.0127
  192SLPC   O1322203   5.258  -0.354   6.534  0.6463  0.3920  0.1513
  192SLPC   O1422204   5.434  -0.517   6.477  0.1306 -0.2963 -0.1585
  192SLPC   O1222205   5.467  -0.278   6.418 -0.4712  0.2434  0.3228
  192SLPC   O1122206   5.473  -0.348   6.656 -0.3797 -0.2250 -0.1066
  192SLPC    C122207   5.494  -0.445   6.758  0.0968  0.3331  0.2983
  192SLPC    HA22208   5.420  -0.456   6.839 -0.3868  3.0660  0.2761
  192SLPC    HB22209   5.500  -0.545   6.711  1.2502  0.8396 -0.6745
  192SLPC    C222210   5.633  -0.423   6.823  0.4155  0.1526 -0.2558
  192SLPC    HS22211   5.653  -0.488   6.911  1.3734 -1.1567 -1.4126
  192SLPC   O2122212   5.644  -0.284   6.871  0.0674  0.6348  0.5073
  192SLPC   C2122213   5.574  -0.262   6.973  0.3112  0.1195  0.3177
  192SLPC   O2222214   5.510  -0.342   7.045  0.1918  0.1371 -0.5266
  192SLPC   C2222215   5.582  -0.114   7.009 -0.0196 -0.2292  0.7166
  192SLPC   H2R22216   5.567  -0.037   6.930 -0.9847  0.5768  1.6641
  192SLPC   H2S22217   5.498  -0.102   7.082  0.4613 -1.9360  1.5786
  192SLPC    C322218   5.753  -0.448   6.731  0.4625 -0.5340 -0.6842
  192SLPC    HX22219   5.743  -0.372   6.650  0.2485  0.0050 -0.1541
  192SLPC    HY22220   5.739  -0.553   6.698 -1.2315 -0.9804  1.3847
  192SLPC   O3122221   5.879  -0.445   6.803  0.0480  0.1251  0.6265
  192SLPC   C3122222   5.946  -0.332   6.809 -0.4457 -0.0093  0.8297
  192SLPC   O3222223   5.923  -0.231   6.747 -0.0317 -0.1399 -0.2987
  192SLPC   C3222224   6.060  -0.356   6.905 -0.4217  0.3330 -0.0189
  192SLPC   H2X22225   6.152  -0.318   6.856  2.3370 -1.5395  3.4735
  192SLPC   H2Y22226   6.064  -0.464   6.932  0.9713 -0.3520 -2.7470
  192SLPC   C2322227   5.723  -0.082   7.069  0.6741 -0.0035  0.1873
  192SLPC   H3R22228   5.740   0.027   7.077 -0.8124  0.1955  0.8088
  192SLPC   H3S22229   5.797  -0.125   6.997  1.3421 -1.3946  1.6601
  192SLPC   C2422230   5.741  -0.135   7.207 -0.0607  0.6224  0.5047
  192SLPC   H4R22231   5.849  -0.126   7.232  0.5589 -0.7604 -1.5712
  192SLPC   H4S22232   5.723  -0.243   7.222  1.0383  0.5392  1.2947
  192SLPC   C2522233   5.651  -0.065   7.311 -1.0942 -0.4651 -0.0346
  192SLPC   H5R22234   5.549  -0.105   7.293 -1.0246 -1.5568  1.8214
  192SLPC   H5S22235   5.654   0.046   7.297  0.9641 -0.2257  1.9472
  192SLPC   C2622236   5.691  -0.091   7.457  0.3934  0.4559 -0.0862
  192SLPC   H6R22237   5.801  -0.079   7.468  0.8373 -2.9273 -0.1810
  192SLPC   H6S22238   5.675  -0.201   7.466  2.5851  0.0616 -0.6981
  192SLPC   C2722239   5.594  -0.034   7.566  0.6413 -1.0486  0.0132
  192SLPC   H7R22240   5.596  -0.095   7.659 -0.3877 -1.3543 -0.1661
  192SLPC   H7S22241   5.485  -0.033   7.549  0.9267 -0.1792 -1.9770
  192SLPC   C2822242   5.618   0.115   7.591 -0.2601 -0.3522  0.5823
  192SLPC   H8R22243   5.533   0.155   7.651  0.2987  1.4027  0.2507
  192SLPC   H8S22244   5.617   0.169   7.494 -2.5177 -1.8008 -0.2471
  192SLPC   C2922245   5.752   0.126   7.666 -0.0457 -0.5613 -0.4479
  192SLPC   H9R22246   5.841   0.116   7.601 -0.8297 -0.0328 -1.6111
  192SLPC  C21022247   5.769   0.140   7.796  0.5982  0.0017  0.0772
  192SLPC  H10R22248   5.867   0.147   7.847 -0.8152 -1.4016  3.1146
  192SLPC  C21122249   5.651   0.140   7.897  0.0471 -0.2390 -0.0431
  192SLPC  H11R22250   5.561   0.098   7.846  0.2000 -2.0492  1.1387
  192SLPC  H11S22251   5.629   0.244   7.929  0.1895 -0.1667 -0.1783
  192SLPC  C21222252   5.689   0.069   8.024  0.6506  0.3597  0.4129
  192SLPC  H12R22253   5.631  -0.024   8.036  0.9328  0.0322 -0.7354
  192SLPC  C21322254   5.776   0.091   8.124 -0.5636 -0.6919  0.1856
  192SLPC  H13R22255   5.786   0.022   8.209  0.4012  1.2723  1.7171
  192SLPC  C21422256   5.864   0.212   8.148  0.8917 -0.9526 -0.5039
  192SLPC  H14R22257   5.855   0.276   8.058  0.6180  0.2123  0.3528
  192SLPC  H14S22258   5.971   0.185   8.162  0.7609 -0.7680  0.9774
  192SLPC  C21522259   5.820   0.291   8.270  0.0628  0.6732 -0.0591
  192SLPC  H15R22260   5.710   0.301   8.272 -0.1002 -1.0433  0.2675
  192SLPC  H15S22261   5.871   0.390   8.266 -1.2631  1.3558 -0.4076
  192SLPC  C21622262   5.855   0.214   8.398  0.7467 -0.3726 -0.0056
  192SLPC  H16R22263   5.887   0.291   8.471 -0.6480  0.4931 -0.2792
  192SLPC  H16S22264   5.943   0.146   8.391 -1.2478 -3.1473  0.7864
  192SLPC  C21722265   5.738   0.128   8.448 -0.1884  0.2925  0.2118
  192SLPC  H17R22266   5.643   0.184   8.430 -0.2855  0.1403  0.2464
  192SLPC  H17S22267   5.725   0.032   8.393 -0.9045  0.2371  0.4688
  192SLPC  C21822268   5.736   0.092   8.597  0.9392 -0.2903 -0.0466
  192SLPC  H18R22269   5.822   0.022   8.609  0.1656 -1.4918 -1.3583
  192SLPC  H18S22270   5.645   0.038   8.631 -0.2857 -0.7510 -3.8756
  192SLPC  H18T22271   5.747   0.184   8.658 -3.4268  0.6291 -0.5392
  192SLPC   C3322272   6.050  -0.287   7.042 -0.2886 -0.5725 -0.2379
  192SLPC   H3X22273   5.961  -0.312   7.103  0.2522  0.4751  1.0115
  192SLPC   H3Y22274   6.047  -0.176   7.031 -0.2862 -0.6352 -0.9115
  192SLPC   C3422275   6.170  -0.325   7.130  0.0262 -0.0049 -0.1087
  192SLPC   H4X22276   6.264  -0.294   7.079 -0.6934  1.4445 -0.6026
  192SLPC   H4Y22277   6.183  -0.432   7.157  0.9137  0.1737  0.1728
  192SLPC   C3522278   6.157  -0.249   7.264 -0.0204  0.5384  0.0967
  192SLPC   H5X22279   6.058  -0.278   7.305  0.1331 -0.4350 -0.2105
  192SLPC   H5Y22280   6.159  -0.141   7.236 -0.0561  0.9647  1.7209
  192SLPC   C3622281   6.266  -0.285   7.364 -0.0207  0.6402 -0.5704
  192SLPC   H6X22282   6.366  -0.276   7.316  0.0174  1.6597 -0.3228
  192SLPC   H6Y22283   6.260  -0.388   7.403 -2.2631  0.7155 -0.6676
  192SLPC   C3722284   6.258  -0.184   7.485  0.6845 -0.0744  0.1203
  192SLPC   H7X22285   6.175  -0.226   7.547  1.3381 -2.5158 -0.6146
  192SLPC   H7Y22286   6.250  -0.076   7.459 -1.9806 -0.3102 -0.2665
  192SLPC   C3822287   6.380  -0.193   7.572  0.0057  0.8346  0.2167
  192SLPC   H8X22288   6.473  -0.164   7.519  0.7762  0.6332  1.4339
  192SLPC   H8Y22289   6.410  -0.293   7.611 -0.6607  0.2039 -0.8848
  192SLPC   C3922290   6.379  -0.099   7.690 -0.0995 -0.4294  0.5369
  192SLPC   H9X22291   6.292  -0.128   7.752  2.3060 -3.6819  2.5489
  192SLPC   H9Y22292   6.378   0.001   7.640  3.4118 -0.2601  0.7124
  192SLPC  C31022293   6.503  -0.099   7.769 -0.0943 -1.0885  0.1367
  192SLPC  H10X22294   6.580  -0.061   7.698  0.1142  0.3398  1.1206
  192SLPC  H10Y22295   6.539  -0.202   7.793  0.8846 -0.7305  0.2309
  192SLPC  C31122296   6.497  -0.015   7.898  0.1652  0.8146  0.2157
  192SLPC  H11X22297   6.419  -0.051   7.968 -1.6796 -0.6909 -2.5547
  192SLPC  H11Y22298   6.457   0.086   7.877 -0.4168  1.3924  3.7588
  192SLPC  C31222299   6.629   0.006   7.963 -0.5134 -0.7135  0.0901
  192SLPC  H12X22300   6.619   0.104   8.015 -1.4060 -2.3689  3.0995
  192SLPC  H12Y22301   6.709   0.013   7.886  0.3080 -1.6872  0.8572
  192SLPC  C31322302   6.676  -0.095   8.067  0.7227 -0.7395  0.3079
  192SLPC  H13X22303   6.770  -0.052   8.107 -0.6012  1.2508  1.3234
  192SLPC  H13Y22304   6.711  -0.185   8.012  2.0583 -0.0050 -0.0478
  192SLPC  C31422305   6.579  -0.117   8.189 -0.0293 -0.3097 -0.1303
  192SLPC  H14X22306   6.487  -0.166   8.152  0.7483 -0.3711 -2.0344
  192SLPC  H14Y22307   6.548  -0.016   8.222 -3.2034 -1.6841  1.2973
  192SLPC  C31522308   6.628  -0.197   8.308 -0.0285  0.0874  0.0981
  192SLPC  H15X22309   6.720  -0.147   8.346  0.8654 -0.5977 -1.1225
  192SLPC  H15Y22310   6.658  -0.297   8.271 -1.2471 -0.8239  1.5033
  192SLPC  C31622311   6.521  -0.197   8.418 -0.4738  0.0086 -0.5417
  192SLPC  H16X22312   6.431  -0.254   8.386 -0.4385 -0.9324  0.9833
  192SLPC  H16Y22313   6.499  -0.091   8.444 -0.6851 -0.4658  1.3043
  192SLPC  C31722314   6.566  -0.250   8.558 -0.7791  0.1152 -0.0334
  192SLPC  H17X22315   6.659  -0.205   8.600 -0.2281 -0.4156 -0.6666
  192SLPC  H17Y22316   6.586  -0.359   8.543 -1.0756 -0.4571  3.3596
  192SLPC  C31822317   6.452  -0.241   8.659 -0.2740  0.1641  0.6709
  192SLPC  H18X22318   6.494  -0.255   8.761 -1.1656 -0.3656  0.9613
  192SLPC  H18Y22319   6.370  -0.315   8.648 -0.2224 -0.1634  2.4419
  192SLPC  H18Z22320   6.404  -0.141   8.664  1.0906  1.0896 -2.7960
  193SOD    SOD22321   0.811   2.384   5.053 -0.3354 -0.2081 -0.2819
  194SOD    SOD22322   2.737   0.932   5.722 -0.3030 -0.1291  0.2178
  195SOD    SOD22323   5.376   5.239  12.561  0.3733  0.1183  0.7773
  196SOD    SOD22324   3.205   1.788   5.974  0.4719 -0.0076 -0.0710
  197SOD    SOD22325   2.343   4.537  12.675 -0.0595  0.0829 -0.6191
  198SOD    SOD22326   2.722   2.907  12.790 -0.2595 -0.1888  0.1828
  199SOD    SOD22327   0.674   0.076  15.480 -0.1654  0.2853 -0.4158
  200SOD    SOD22328   6.519   3.109  16.297  0.1588 -0.1795 -0.2229
  201SOD    SOD22329   1.074   3.026  14.384  0.3548 -0.0991  0.0627
  202SOD    SOD22330   5.433   5.002  16.289  0.0458 -0.5815  0.0845
  203SOD    SOD22331   3.860   3.722  11.916  0.3843  0.2715  0.2152
  204SOD    SOD22332   5.196   1.765   1.099 -0.1269  0.2639 -0.2175
  205SOD    SOD22333   5.303   2.595  13.417  0.4210  0.0612 -0.1926
  206SOD    SOD22334   6.207   4.773  14.561  0.1668 -0.2823 -0.2028
  207SOD    SOD22335   0.701   6.577  12.997  0.3330 -0.3879 -0.2479
  208SOD    SOD22336   1.686   5.353   0.022 -0.2275  0.1800 -0.3319
  209SOD    SOD22337   2.244   6.363  11.290  0.1476  0.3628  0.1256
  210SOD    SOD22338   6.407   2.214  12.163  0.0182  0.0557 -0.1829
  211SOD    SOD22339   1.820   4.478  14.136  0.4621 -0.1483 -0.1795
  212SOD    SOD22340   4.587   5.118   3.457 -0.0339 -0.0073 -0.1476
  213SOD    SOD22341   1.141   1.348   3.958  0.6203  0.2442 -0.2398
  214SOD    SOD22342   0.568   2.159   6.585 -0.2409 -0.0254 -0.0340
  215SOD    SOD22343   1.700   1.190  13.374 -0.1747 -0.3612  0.2318
  216SOD    SOD22344   2.082   6.566  12.641  0.2438 -0.0844  0.0995
  217SOD    SOD22345   3.156   5.155  11.102  0.4479  0.2127  0.3323
  218SOD    SOD22346   1.859   5.823   6.342 -0.1231 -0.1897 -0.1387
  219SOD    SOD22347   3.293   2.473  13.389  0.7352  0.1325  0.1941
  220SOD    SOD22348   0.863   6.459  11.540  0.0742  0.4980  0.3923
  221SOD    SOD22349   4.881   3.886   3.863 -0.1046 -0.1590  0.3118
  222SOD    SOD22350   3.711   5.726  17.285 -0.1132  0.5469 -0.3826
  223SOD    SOD22351   5.166   6.270  11.150 -0.3484 -0.1243  0.1570
  224SOD    SOD22352   1.655   2.662   5.148  0.1294 -0.6322  0.1924
  225SOD    SOD22353   2.430   5.196   2.815  0.1321  0.0522 -0.1912
  226SOD    SOD22354   4.305   6.019   4.892  0.1922  0.1955 -0.4261
  227SOD    SOD22355   0.650   5.123  17.263  0.8664  0.1526  0.9329
  228SOD    SOD22356   3.528   4.340  13.482  0.5323  0.3785  0.3701
  229SOD    SOD22357   4.788   0.571   0.857 -0.2176 -0.0197  0.1797
  230SOD    SOD22358   2.324   4.975  16.465  0.2023  0.1006  0.3619
  231SOD    SOD22359   4.809   4.634   2.810 -0.0579 -0.2293  0.5002
  232SOD    SOD22360   0.422   4.289   5.626  0.2280 -0.1595  0.3355
  233SOD    SOD22361   5.229   1.694  11.074 -0.3015 -0.3054  0.0962
  234SOD    SOD22362   6.238   1.099   3.716 -0.6159  0.0369  0.0346
  235SOD    SOD22363   1.396   0.266   2.790  0.2985 -0.2263 -0.1000
  236SOD    SOD22364   4.819   4.258   0.377 -0.3894 -0.2557  0.0818
  237SOD    SOD22365   5.858   6.600  12.959 -0.2808  0.4251  0.2875
  238SOD    SOD22366   6.479   0.452   5.975  0.0366  0.3268  0.1768
  239SOD    SOD22367   2.997   2.921   6.340 -0.2973  0.2321 -0.1865
  240SOD    SOD22368   2.150   5.666  13.688  0.0313 -0.1424 -0.3175
  241SOD    SOD22369   2.132   3.552   2.877 -0.6282 -0.0999  0.0410
  242SOD    SOD22370   5.557   2.077   5.875 -0.1014  0.1185  0.0243
  243SOD    SOD22371   1.120   6.387   0.685 -0.6165  0.0092  0.1256
  244SOD    SOD22372   6.382   6.181  16.935 -0.2317  0.3485  0.0071
  245SOD    SOD22373   6.516   3.236  14.110 -0.6942  0.0970 -0.0699
  246SOD    SOD22374   0.821   4.303   2.935  0.2383  0.0937  0.4977
  247SOD    SOD22375   3.611   1.405   3.161 -0.3396  0.4362 -0.3792
  248SOD    SOD22376   6.230   4.183  11.199 -0.0929  0.1042 -0.2205
  249SOD    SOD22377   3.686   3.533   1.603  1.0989 -0.0898  0.1482
  250SOD    SOD22378   2.931   6.179   3.315  0.5582 -0.3502  0.1622
  251SOD    SOD22379   2.336   5.102   5.768 -0.5313  0.0500  0.4431
  252SOD    SOD22380   0.991   3.297  11.634 -0.0908 -0.2322  0.1120
  253SOD    SOD22381   5.052   5.331   1.292 -0.0162 -0.0660  0.2775
  254SOD    SOD22382   4.157   5.159  11.002 -0.5280 -0.2318  0.2340
  255SOD    SOD22383   1.815   6.572   5.933 -0.1837  0.0708 -0.4501
  256SOD    SOD22384   2.860   2.471   0.571  0.5669 -0.2139 -0.2991
  257SOD    SOD22385   5.139   6.671  14.528 -0.4208  0.2264 -0.3623
  258SOD    SOD22386   3.710   2.521   3.302  0.3221  0.2465 -0.4614
  259SOD    SOD22387   3.555   3.910  15.922  0.0963  0.4050 -0.5700
  260SOD    SOD22388   4.434   2.071   6.015 -0.1232 -0.2644 -0.0346
  261SOD    SOD22389   3.178   1.166   3.776  0.0845  0.0191  0.2390
  262SOD    SOD22390   3.398   1.880   2.832 -0.3317  0.4820  0.3717
  263SOD    SOD22391   6.614   5.615   4.528  1.0105  0.6139 -0.2082
  264SOD    SOD22392   1.596   1.128   6.222  0.6176 -0.2368 -0.4784
  265SOD    SOD22393   2.660   2.942   2.364 -0.0551  0.4613  0.2100
  266CLA    CLA22394   2.838   0.433  16.156 -0.3532  0.1807 -0.0920
  267CLA    CLA22395   2.478   2.735  14.248 -0.2860  0.4706  0.0487
  268CLA    CLA22396   3.570   0.148  12.224 -0.1154  0.7191  0.3053
  269CLA    CLA22397   4.026   2.636   5.764 -0.1297 -0.5095  0.1321
  270CLA    CLA22398   2.711   6.450  14.938 -0.3534 -0.0450  0.0292
  271CLA    CLA22399   2.062   4.752   3.739  0.3173  0.2942 -0.0935
  272CLA    CLA22400   1.141   6.658   2.025 -0.2498  0.1825  0.6109
  273CLA    CLA22401   2.354   3.995   2.651 -0.0421 -0.1576 -0.0396
  274CLA    CLA22402   2.922   1.401   3.114 -0.2067 -0.2066 -0.1199
  275CLA    CLA22403   1.828   3.382   5.024  0.0313 -0.1251 -0.0112
  276CLA    CLA22404   3.380   0.763   5.196  0.3031  0.0349  0.0754
  277CLA    CLA22405   0.377   5.934   2.668  0.3536 -0.2395  0.0637
  278CLA    CLA22406   6.024   5.481  16.178 -0.2587  0.0136 -0.0247
  279CLA    CLA22407   3.090   2.234   0.883  0.3098 -0.3497 -0.5394
  280CLA    CLA22408   4.311   1.034   5.311 -0.2474 -0.0816 -0.4546
  281CLA    CLA22409   0.120   1.622   2.312  0.0773  0.2036  0.0094
  282CLA    CLA22410   5.064   2.282  13.191  0.1722 -0.1369 -0.1972
  283CLA    CLA22411   3.010   5.267   3.746 -0.0870 -0.2769  0.1241
  284CLA    CLA22412   5.435   5.005   2.918 -0.2658 -0.1147 -0.1028
  285CLA    CLA22413   2.869   6.308   2.578  0.2370  0.0487  0.1243
  286CLA    CLA22414   1.843   1.728   6.098  0.3682  0.0884 -0.1256
  287CLA    CLA22415   0.193   1.378   4.389  0.2928 -0.7159  0.4543
  288CLA    CLA22416   4.600   5.287  12.224 -0.0858 -0.4229 -0.5359
  289CLA    CLA22417   0.274   0.620   0.879 -0.0681 -0.0130 -0.5650
  290CLA    CLA22418   4.324   6.791  14.206 -0.3326  0.0976 -0.3326
  291CLA    CLA22419   2.952   5.121  13.408  0.2762  0.0801 -0.2507
  292CLA    CLA22420   0.647   5.066  13.854  0.8142 -0.0542  0.1813
  293CLA    CLA22421   1.572   4.778  15.994  0.5053  0.3187  0.1922
  294CLA    CLA22422   2.818   3.209  15.289 -0.1392  0.1016  0.2417
  295CLA    CLA22423   5.910   5.773  17.160 -0.1053  0.0092  0.3656
  296CLA    CLA22424   4.966   5.190  12.883  0.0122 -0.0999 -0.2000
  297CLA    CLA22425   4.178   5.255   4.032 -0.1622  0.1037  0.2608
  298CLA    CLA22426   0.094   6.222  15.895 -0.2509  0.0462 -0.2633
  299CLA    CLA22427   4.539   0.576  15.464 -0.2426 -0.0998 -0.3686
  300CLA    CLA22428   1.048   4.762  16.452  0.1247 -0.0774 -0.4219
  301CLA    CLA22429   1.601   1.185   4.900  0.1802  0.0777  0.0799
  302CLA    CLA22430   0.789   0.190  13.323 -0.1196 -0.3892  0.3882
  303CLA    CLA22431   0.139   2.971  16.313  0.0809 -0.0849 -0.0797
  304CLA    CLA22432   3.798   5.173   0.972  0.1002  0.1368 -0.0023
  305CLA    CLA22433   3.775   0.628   1.006  0.1026 -0.1139 -0.3150
  306CLA    CLA22434   1.798   2.637  14.431  0.1510 -0.1960  0.5779
  307CLA    CLA22435   4.818   4.079  11.328  0.1018  0.1772  0.1584
  308CLA    CLA22436   5.042   0.450   1.281  0.3957 -0.5456 -0.2639
  309CLA    CLA22437   4.659   2.588  16.256  0.1480 -0.1551 -0.2124
  310CLA    CLA22438   1.183   6.259   3.804 -0.2158  0.2705  0.3783
  311CLA    CLA22439   4.501   1.943   3.841  0.1132  0.2606  0.1225
  312CLA    CLA22440   2.906   4.607  15.554  0.4115  0.0031  0.1520
  313CLA    CLA22441   2.789   3.366   0.747  0.2505  0.2013  0.0631
  314CLA    CLA22442   2.767   5.808   5.748  0.0875  0.2001 -0.3718
  315CLA    CLA22443   4.872   3.747   0.487 -0.3751 -0.4147  0.5551
  316CLA    CLA22444   5.903   3.664   3.103 -0.2428  0.3115  0.6616
  317CLA    CLA22445   0.168   1.220   5.822 -0.1921  0.1660  0.3250
  318CLA    CLA22446   4.694   2.244  11.819  0.2333 -0.2562 -0.3989
  319TIP3   OH222447   6.718   0.460   1.523  0.2327  0.3146  0.0644
  319TIP3    H122448   6.704   0.454   1.429  0.8641  1.6924 -0.1332
  319TIP3    H222449   6.641   0.507   1.556 -0.9757 -1.9367  0.5318
  320TIP3   OH222450   0.871   3.477   3.001 -0.5968 -1.0129 -0.1850
  320TIP3    H122451   0.796   3.461   3.058  0.7183 -1.9897  1.2834
  320TIP3    H222452   0.930   3.403   3.016  1.4672  0.6131 -0.0243
  321TIP3   OH222453   6.398   5.812   5.198  0.3294  0.1332  0.1504
  321TIP3    H122454   6.387   5.809   5.293 -0.7645 -0.6709  0.0012
  321TIP3    H222455   6.312   5.838   5.164  0.9245  1.1784 -0.5706
  322TIP3   OH222456   4.003   4.979   2.098 -0.0365 -0.8126 -0.2322
  322TIP3    H122457   4.070   5.035   2.135 -1.4771  1.0394 -0.3684
  322TIP3    H222458   3.954   4.946   2.174 -1.2627  0.7817 -0.3145
  323TIP3   OH222459   4.336   0.286  12.900 -0.4987  0.0048  0.0695
  323TIP3    H122460   4.325   0.300  12.805 -0.6057 -1.2519 -0.1171
  323TIP3    H222461   4.383   0.203  12.906  1.2391  1.0420  1.0929
  324TIP3   OH222462   2.137   6.616  14.908  0.2420  0.4337  0.0658
  324TIP3    H122463   2.169   6.658  14.987  1.4613 -0.1096 -0.1366
  324TIP3    H222464   2.152   6.680  14.838 -1.4548  1.1880  0.3489
  325TIP3   OH222465   3.004   5.985  14.268  0.6023 -0.3833  0.3577
  325TIP3    H122466   3.079   5.945  14.312 -0.5877 -2.5150  0.4844
  325TIP3    H222467   2.958   6.032  14.338  0.5538 -0.9848  0.7333
  326TIP3   OH222468   3.656   4.614   3.534  0.4108  0.5248 -0.2415
  326TIP3    H122469   3.573   4.615   3.487 -0.8690  0.6901  2.0026
  326TIP3    H222470   3.642   4.555   3.608  1.6080  2.1709  1.3376
  327TIP3   OH222471   2.713   2.055   0.735  0.3356 -0.0765 -0.8481
  327TIP3    H122472   2.746   1.965   0.743 -1.7246 -0.9733 -2.1370
  327TIP3    H222473   2.723   2.076   0.642 -2.3273 -0.2414 -1.2041
  328TIP3   OH222474   4.956   1.913  11.426 -0.0984 -0.2780  0.3410
  328TIP3    H122475   4.945   1.893  11.333  1.6293 -0.7929  0.2390
  328TIP3    H222476   4.866   1.917  11.460 -0.7828  0.5830 -1.4740
  329TIP3   OH222477   2.879   1.320   5.624 -0.0740 -0.5444 -0.0236
  329TIP3    H122478   2.832   1.247   5.665 -0.4713 -0.5287 -0.4566
  329TIP3    H222479   2.863   1.309   5.530 -1.4832  1.0443  0.0149
  330TIP3   OH222480   6.305   2.262  10.801  0.1369  0.7439  0.3884
  330TIP3    H122481   6.325   2.175  10.766 -1.6905 -0.3777  2.0549
  330TIP3    H222482   6.387   2.291  10.840  0.6283 -0.4614  0.2782
  331TIP3   OH222483   4.879   5.423   2.612  0.1014 -0.0051  0.5806
  331TIP3    H122484   4.843   5.432   2.524  1.0956 -2.6397 -0.1336
  331TIP3    H222485   4.802   5.421   2.669 -0.5352  1.9023 -0.1703
  332TIP3   OH222486   6.414   2.880  12.350  0.0760  0.0642  0.3871
  332TIP3    H122487   6.496   2.929  12.355 -0.2092  0.5403  0.3639
  332TIP3    H222488   6.413   2.827  12.430  0.1190  0.4973  0.6738
  333TIP3   OH222489   5.377   2.002   2.085 -0.4032 -0.5995 -0.1149
  333TIP3    H122490   5.446   1.940   2.108  0.1510 -0.0090 -0.1504
  333TIP3    H222491   5.300   1.972   2.133  0.3286 -0.2819  1.2998
  334TIP3   OH222492   1.544   0.695   3.407 -0.3445 -0.0726  0.1940
  334TIP3    H122493   1.526   0.701   3.501  1.1200 -0.6924  0.5293
  334TIP3    H222494   1.629   0.738   3.396 -0.8145  0.5842 -0.9471
  335TIP3   OH222495   2.549   3.936  13.857 -0.7370 -0.3649  0.7967
  335TIP3    H122496   2.477   3.933  13.794 -0.9425  1.7167  0.9080
  335TIP3    H222497   2.613   3.873  13.823 -1.2484  0.0469 -0.9835
  336TIP3   OH222498   4.523   1.962   4.613  0.0902 -0.2979 -0.4591
  336TIP3    H122499   4.593   1.900   4.631  1.6419  1.4742 -0.2102
  336TIP3    H222500   4.532   1.983   4.520 -2.7533 -3.1942 -1.4623
  337TIP3   OH222501   0.887   2.977   3.069 -0.9497 -0.3266 -0.4329
  337TIP3    H122502   0.932   3.019   3.142 -0.4444 -0.4396 -0.6767
  337TIP3    H222503   0.912   2.885   3.075  0.5910 -0.0191 -1.8390
  338TIP3   OH222504   1.298   0.586  13.279 -0.4022 -0.2407 -0.0314
  338TIP3    H122505   1.280   0.610  13.370 -0.8852 -0.3197 -0.1052
  338TIP3    H222506   1.216   0.603  13.233 -0.0948  0.0017 -0.4958
  339TIP3   OH222507   6.063   3.033   3.221  0.4174  0.0459 -0.6692
  339TIP3    H122508   6.086   2.970   3.289  0.9127 -1.0582 -1.8619
  339TIP3    H222509   6.119   3.012   3.147  1.0506  2.2800 -0.8838
  340TIP3   OH222510   2.969   0.920  12.442 -0.3614  0.7942  0.5135
  340TIP3    H122511   2.911   0.880  12.507 -0.3975 -0.8120 -0.4955
  340TIP3    H222512   3.037   0.964  12.494  0.4423 -1.6988  1.6218
  341TIP3   OH222513   4.549   4.473  13.846 -0.0323 -0.4433 -0.2330
  341TIP3    H122514   4.613   4.435  13.906 -0.6717 -0.3086  0.5411
  341TIP3    H222515   4.527   4.557  13.884 -3.6200 -2.1171  1.6772
  342TIP3   OH222516   4.694   3.998  14.175  0.0619 -0.1684 -0.9687
  342TIP3    H122517   4.681   3.905  14.191  0.0209  0.0719  0.5366
  342TIP3    H222518   4.787   4.007  14.158  0.7261 -0.0514  2.4183
  343TIP3   OH222519   2.518   0.476  16.199 -0.0736 -0.2649 -0.1081
  343TIP3    H122520   2.519   0.512  16.288 -0.8103 -0.8861  0.1513
  343TIP3    H222521   2.610   0.457  16.180  0.0515 -0.3897  0.6203
  344TIP3   OH222522   4.276   4.876   0.339 -0.0393 -0.0450  0.2598
  344TIP3    H122523   4.309   4.797   0.383  1.9461 -0.2586 -1.5145
  344TIP3    H222524   4.241   4.844   0.256 -1.3146  0.6794  0.5169
  345TIP3   OH222525   0.478   1.646   3.953 -0.1432 -0.2256 -0.2030
  345TIP3    H122526   0.403   1.616   4.004  0.2764  1.7221  1.6262
  345TIP3    H222527   0.443   1.717   3.899  0.3732  0.7698  0.7449
  346TIP3   OH222528   0.775   3.815   4.138 -0.4423 -0.8999 -0.0960
  346TIP3    H122529   0.745   3.729   4.168 -0.8560 -0.5873  0.3925
  346TIP3    H222530   0.799   3.801   4.046  0.9137 -1.8933  0.3808
  347TIP3   OH222531   0.523   2.572  13.613 -0.1178  0.2896 -0.7005
  347TIP3    H122532   0.512   2.590  13.520 -0.2770 -1.4965 -1.0536
  347TIP3    H222533   0.585   2.638  13.644  3.0387 -1.4934 -2.9460
  348TIP3   OH222534   1.228   1.702  12.235  0.5397  0.2517  0.1825
  348TIP3    H122535   1.159   1.687  12.299  0.7573 -0.3056  0.2875
  348TIP3    H222536   1.254   1.794  12.248 -2.2240  1.4153 -1.8340
  349TIP3   OH222537   3.304   6.433   3.971 -0.4752  0.0660 -0.1655
  349TIP3    H122538   3.382   6.484   3.995 -0.9262  0.8289 -0.2829
  349TIP3    H222539   3.275   6.394   4.054  0.2416 -0.5153 -0.1888
  350TIP3   OH222540   2.296   4.842  15.372 -0.0558 -0.7738 -0.2373
  350TIP3    H122541   2.371   4.871  15.320  0.1685  0.0218  0.5080
  350TIP3    H222542   2.280   4.752  15.344 -1.0536  0.2047 -2.9402
  351TIP3   OH222543   1.585   3.119   0.903 -0.3153 -0.1949 -0.5203
  351TIP3    H122544   1.618   3.090   0.988 -0.5576  2.3035  0.4858
  351TIP3    H222545   1.490   3.105   0.908 -0.3691  0.2504 -0.2372
  352TIP3   OH222546   1.272   3.005  14.500  0.0554 -0.0851  0.1842
  352TIP3    H122547   1.279   3.023  14.594 -0.2604  0.5358  0.0918
  352TIP3    H222548   1.356   3.033  14.464  0.5820 -1.3067  0.4255
  353TIP3   OH222549   4.548   3.125  16.482 -0.0613  0.4485  0.1734
  353TIP3    H122550   4.508   3.138  16.568 -0.1737  1.3779 -0.0066
  353TIP3    H222551   4.616   3.193  16.477 -1.0145  1.3503 -1.0305
  354TIP3   OH222552   5.516   4.301   6.016  0.2363  0.3149  0.6906
  354TIP3    H122553   5.507   4.311   6.110  1.1550  1.1885  0.6994
  354TIP3    H222554   5.610   4.287   6.002  0.3292  1.6830 -0.2015
  355TIP3   OH222555   2.846   0.496   0.059  0.0288 -0.4327 -0.4037
  355TIP3    H122556   2.808   0.417   0.099  0.6745 -0.5204  0.0344
  355TIP3    H222557   2.931   0.468   0.026 -0.0784 -0.1120 -0.9587
  356TIP3   OH222558   5.361   4.951  16.830  0.0675 -0.2999  0.1520
  356TIP3    H122559   5.292   5.016  16.821  0.1013 -0.1378  1.0179
  356TIP3    H222560   5.416   4.984  16.901 -0.0336 -1.3531  0.7437
  357TIP3   OH222561   2.102   0.025  16.086  0.0656 -0.5028  0.0167
  357TIP3    H122562   2.132  -0.044  16.146  1.8346 -0.0220 -0.2884
  357TIP3    H222563   2.070   0.094  16.143  0.7743 -0.4832  0.3981
  358TIP3   OH222564   0.971   5.460   0.416 -0.1880  0.2568  0.1232
  358TIP3    H122565   0.884   5.483   0.450 -0.2516 -0.8226  0.7240
  358TIP3    H222566   1.002   5.540   0.375 -1.2012  0.8480  0.4722
  359TIP3   OH222567   5.509   1.611   4.462  0.2437  0.3540 -0.6538
  359TIP3    H122568   5.463   1.632   4.543 -0.1751 -1.1168 -0.5014
  359TIP3    H222569   5.602   1.615   4.486  0.1695  1.5482 -0.5228
  360TIP3   OH222570   2.942   6.438  11.692 -0.4801 -0.2672 -0.0166
  360TIP3    H122571   3.003   6.400  11.628 -0.9702 -1.1879  0.0622
  360TIP3    H222572   2.982   6.421  11.777 -0.5048 -0.2526 -0.0015
  361TIP3   OH222573   5.857   1.861  13.333 -0.0773 -0.1942 -0.4518
  361TIP3    H122574   5.792   1.829  13.270  0.1827 -1.1039 -0.2694
  361TIP3    H222575   5.869   1.953  13.310 -0.6345 -0.2946 -1.1755
  362TIP3   OH222576   6.378   3.684   3.193 -0.1811 -0.1330  0.6773
  362TIP3    H122577   6.372   3.699   3.287 -2.4462  0.8502  0.3944
  362TIP3    H222578   6.310   3.619   3.174 -1.9372  2.0336 -0.7350
  363TIP3   OH222579   4.854   6.654  11.005  0.1965  0.2192 -0.2057
  363TIP3    H122580   4.866   6.564  10.977 -2.0772 -0.2161  0.0982
  363TIP3    H222581   4.923   6.703  10.960 -0.0355 -1.3048 -2.2993
  364TIP3   OH222582   6.006   6.089  13.544 -0.3445 -0.5984  0.2709
  364TIP3    H122583   5.969   6.089  13.632 -2.0005  1.2548 -0.3977
  364TIP3    H222584   5.940   6.043  13.491  0.1624 -0.7752 -0.2135
  365TIP3   OH222585   4.094   3.415  15.072  0.0156  0.3325  0.5178
  365TIP3    H122586   4.100   3.414  14.976 -1.2196 -0.3235  0.4371
  365TIP3    H222587   4.147   3.490  15.098  1.0939 -0.0015 -0.6208
  366TIP3   OH222588   4.273   0.389  14.603 -0.3104  0.0725 -0.8861
  366TIP3    H122589   4.288   0.329  14.530  0.1002 -0.8796 -0.0377
  366TIP3    H222590   4.361   0.420  14.626 -0.3221 -0.4127 -0.1568
  367TIP3   OH222591   6.153   0.437  16.758 -0.5497 -0.8408 -0.2733
  367TIP3    H122592   6.232   0.464  16.805 -1.3908  0.9544  0.1245
  367TIP3    H222593   6.163   0.472  16.670 -0.6363 -1.1140 -0.3935
  368TIP3   OH222594   0.081   2.005   3.106 -0.0384  0.0756  0.3153
  368TIP3    H122595   0.160   2.059   3.114  0.0286  0.1088 -0.5414
  368TIP3    H222596   0.113   1.920   3.075 -0.2937 -0.0350  0.3542
  369TIP3   OH222597   5.158   0.399  10.718  0.6942  0.4263 -0.5419
  369TIP3    H122598   5.178   0.395  10.812 -0.7659  2.7200 -0.0869
  369TIP3    H222599   5.209   0.474  10.687  2.2546 -1.1568 -1.8996
  370TIP3   OH222600   6.471   3.134   4.471 -0.3830 -0.4538  0.2885
  370TIP3    H122601   6.458   3.184   4.551 -3.2004  1.3068 -1.1692
  370TIP3    H222602   6.386   3.093   4.454 -0.0078 -0.3048 -2.0949
  371TIP3   OH222603   5.606   4.135  10.759  0.2331  0.1833 -0.4557
  371TIP3    H122604   5.579   4.207  10.816  1.1865 -1.3794  2.0579
  371TIP3    H222605   5.652   4.178  10.686 -1.4815  2.2609 -0.3545
  372TIP3   OH222606   0.154   1.644   5.214 -0.6798  0.3569 -0.3424
  372TIP3    H122607   0.120   1.713   5.158  2.7876  1.7252 -0.8881
  372TIP3    H222608   0.112   1.564   5.182 -1.3546  1.5859 -2.6338
  373TIP3   OH222609   2.883   0.761   2.816 -0.4522 -0.6162  0.2596
  373TIP3    H122610   2.928   0.764   2.732 -1.2552  1.4400 -0.1164
  373TIP3    H222611   2.880   0.852   2.845 -0.0088 -1.3311  2.6092
  374TIP3   OH222612   2.833   3.868   0.954  0.0470 -0.0587  0.4536
  374TIP3    H122613   2.823   3.924   0.877 -1.4980 -0.8444  0.0559
  374TIP3    H222614   2.813   3.780   0.922 -1.9178 -0.2192  2.0167
  375TIP3   OH222615   1.755   1.925   3.074 -0.1714 -0.0425  0.0587
  375TIP3    H122616   1.813   1.896   3.144 -1.2105  1.4995  1.6056
  375TIP3    H222617   1.668   1.893   3.100 -0.5043  0.2075 -0.7136
  376TIP3   OH222618   6.411   6.308  11.612 -0.6195  0.4737 -0.1290
  376TIP3    H122619   6.485   6.349  11.567  0.1342  0.2779  0.8984
  376TIP3    H222620   6.449   6.275  11.694 -1.0257 -2.8491 -1.1954
  377TIP3   OH222621   6.748   4.256  12.500  0.0150 -0.2868 -0.4374
  377TIP3    H122622   6.695   4.198  12.445 -0.6913 -0.5854  0.5416
  377TIP3    H222623   6.753   4.338  12.451 -1.1173 -0.3460 -0.6742
  378TIP3   OH222624   3.723   5.906  12.471  0.5138 -0.5398  0.2020
  378TIP3    H122625   3.667   5.844  12.426 -0.5915 -0.3274  1.2489
  378TIP3    H222626   3.798   5.854  12.501  0.0202 -1.1848  0.3222
  379TIP3   OH222627   4.179   4.621  12.592 -0.0043 -0.5957 -0.3344
  379TIP3    H122628   4.129   4.542  12.572 -0.8723 -0.4430  1.1616
  379TIP3    H222629   4.135   4.690  12.543 -1.6482 -0.3610  1.4013
  380TIP3   OH222630   5.553   6.502  15.144  0.3150 -0.2664 -0.0122
  380TIP3    H122631   5.538   6.578  15.200 -0.7858 -0.9916  0.6826
  380TIP3    H222632   5.522   6.428  15.195  0.2333 -1.0532 -1.1851
  381TIP3   OH222633   1.353   3.014   2.154 -0.1062  0.0099  0.2576
  381TIP3    H122634   1.408   3.091   2.170 -0.2710 -0.1711  1.7262
  381TIP3    H222635   1.278   3.024   2.212 -0.3101 -1.0919  0.2075
  382TIP3   OH222636   6.580   1.263   1.219 -0.2338  0.3276  0.3282
  382TIP3    H122637   6.534   1.181   1.234  2.5075 -1.2019  0.7658
  382TIP3    H222638   6.600   1.295   1.307 -0.0958  0.7599  0.1399
  383TIP3   OH222639   2.380   5.917  10.615  0.1734 -0.6702 -0.4595
  383TIP3    H122640   2.464   5.963  10.617  0.1462 -0.6298  2.1258
  383TIP3    H222641   2.328   5.962  10.548  1.3646  0.8399 -0.3774
  384TIP3   OH222642   6.589   4.681  17.248 -0.2670  0.2017 -0.4845
  384TIP3    H122643   6.626   4.595  17.231  1.1510  0.3290  1.7769
  384TIP3    H222644   6.522   4.666  17.314 -1.0408  0.6417 -1.1539
  385TIP3   OH222645   6.103   1.638  11.783 -0.5608  0.1094  0.0138
  385TIP3    H122646   6.123   1.547  11.758 -0.1118 -0.1619  1.3116
  385TIP3    H222647   6.009   1.637  11.799 -0.7999  0.2087 -1.2985
  386TIP3   OH222648   5.455   6.356   6.051 -0.0249 -0.0557 -0.8824
  386TIP3    H122649   5.505   6.286   6.091  0.2413  1.4195  1.4440
  386TIP3    H222650   5.365   6.342   6.083  0.4467  1.9328  1.4619
  387TIP3   OH222651   1.110   4.561   5.533 -0.1660 -0.2010  0.3056
  387TIP3    H122652   1.135   4.621   5.463 -0.6552 -0.1046  0.2093
  387TIP3    H222653   1.025   4.594   5.563  0.6242  0.5033  1.7918
  388TIP3   OH222654   0.312   1.933   1.911 -0.3953 -0.5161 -0.0249
  388TIP3    H122655   0.382   1.868   1.906 -1.2185 -1.3793 -0.4497
  388TIP3    H222656   0.334   1.985   1.989 -0.6335 -2.3750  1.3226
  389TIP3   OH222657   3.624   0.143   3.204  0.0224 -0.3010 -0.1837
  389TIP3    H122658   3.705   0.112   3.245 -0.3734 -0.3966  0.5142
  389TIP3    H222659   3.650   0.225   3.161  0.6471 -0.6799 -0.5305
  390TIP3   OH222660   4.880   1.650   4.415  0.4482  0.1086  0.2917
  390TIP3    H122661   4.928   1.716   4.365 -0.8364 -0.1070 -1.2647
  390TIP3    H222662   4.797   1.640   4.368 -0.6353 -0.3849  2.2467
  391TIP3   OH222663   6.714   2.609   5.354 -0.0860  0.6758 -0.2700
  391TIP3    H122664   6.735   2.685   5.299 -0.6836 -0.5643 -2.2520
  391TIP3    H222665   6.654   2.644   5.420  1.3778  2.3880  0.2178
  392TIP3   OH222666   2.745   4.496  17.164 -0.1288 -0.1442 -0.1845
  392TIP3    H122667   2.717   4.470  17.076  0.2113  0.9644 -0.6289
  392TIP3    H222668   2.671   4.546  17.199 -1.5728 -3.2073  1.4103
  393TIP3   OH222669   4.201   3.628   3.656 -0.2400 -0.6532  0.2997
  393TIP3    H122670   4.150   3.671   3.724  1.8137 -1.0692  2.1537
  393TIP3    H222671   4.149   3.639   3.576 -1.8179  1.4425  1.5666
  394TIP3   OH222672   2.596   0.526  10.880 -0.1194 -0.4043  0.1421
  394TIP3    H122673   2.545   0.485  10.950  1.0859 -0.9779  0.7095
  394TIP3    H222674   2.611   0.615  10.911 -0.5035 -0.3400  0.1343
  395TIP3   OH222675   5.162   1.334  10.415  0.4943  0.4701 -0.4136
  395TIP3    H122676   5.219   1.318  10.490  2.1705  1.2471 -1.4928
  395TIP3    H222677   5.184   1.423  10.386 -1.7733  1.0657 -0.4187
  396TIP3   OH222678   1.466   0.338   0.267 -0.0009  1.0790 -0.2729
  396TIP3    H122679   1.388   0.290   0.295  1.1866 -0.7379 -0.0058
  396TIP3    H222680   1.449   0.359   0.175 -0.1273 -0.7357 -0.6781
  397TIP3   OH222681   3.578   6.436   0.971 -0.4656 -0.1768 -0.1988
  397TIP3    H122682   3.642   6.381   0.925 -0.2665 -0.5505  0.5251
  397TIP3    H222683   3.549   6.382   1.045  0.2787  0.9686  0.9411
  398TIP3   OH222684   2.718   5.165   6.134  0.1500  0.0896 -0.2746
  398TIP3    H122685   2.667   5.193   6.058 -0.2367  1.8425  0.6164
  398TIP3    H222686   2.794   5.224   6.135 -0.9878  1.5806  1.9709
  399TIP3   OH222687   1.768   2.875  17.080  0.1265  0.1422  0.1904
  399TIP3    H122688   1.760   2.780  17.080  0.6309  0.0944  0.9368
  399TIP3    H222689   1.778   2.898  16.987  0.9936 -0.6202  0.0805
  400TIP3   OH222690   0.977   2.314   3.110  0.4580 -0.0543 -0.0375
  400TIP3    H122691   1.031   2.351   3.180  0.5652 -0.6776  0.2077
  400TIP3    H222692   1.039   2.298   3.039  0.1987  1.4515 -0.6289
  401TIP3   OH222693   1.141   6.092  11.791 -0.5347 -0.6286  0.0392
  401TIP3    H122694   1.091   6.166  11.824  0.4169 -0.0658  0.2563
  401TIP3    H222695   1.139   6.102  11.696  0.7082  0.4450  0.1104
  402TIP3   OH222696   4.321   6.328   3.568 -0.1468 -0.4777 -0.3069
  402TIP3    H122697   4.361   6.334   3.655 -1.8246  0.5302  0.4285
  402TIP3    H222698   4.392   6.300   3.511  1.0929 -0.7369  1.3152
  403TIP3   OH222699   5.300   0.125  16.140 -0.0973 -0.0420  0.3495
  403TIP3    H122700   5.311   0.031  16.128 -0.7393 -0.5884  3.4356
  403TIP3    H222701   5.388   0.161  16.131  0.2547 -1.0167 -0.1768
  404TIP3   OH222702   0.186   6.408   5.098 -0.4183 -0.1854 -0.0414
  404TIP3    H122703   0.093   6.423   5.114 -0.3226 -0.1281  0.4868
  404TIP3    H222704   0.224   6.496   5.089 -0.0579 -0.1094  1.8821
  405TIP3   OH222705   6.783   0.047  14.013 -0.5249 -0.4945 -0.0428
  405TIP3    H122706   6.705   0.005  13.977  0.5778 -2.6908  0.0310
  405TIP3    H222707   6.751   0.098  14.087 -2.4356  1.8882 -2.3874
  406TIP3   OH222708   6.656   0.335  12.225 -0.0408 -0.1378 -0.2304
  406TIP3    H122709   6.716   0.394  12.271 -0.8922 -1.4077  2.6152
  406TIP3    H222710   6.706   0.253  12.215 -0.0278 -0.0207 -1.1676
  407TIP3   OH222711   1.246   4.574   3.103 -0.6008  0.0530  0.3223
  407TIP3    H122712   1.289   4.552   3.186  0.2060 -0.0539 -0.1261
  407TIP3    H222713   1.163   4.613   3.130 -0.4579 -0.2087  1.1815
  408TIP3   OH222714   1.716   0.133  11.952  0.0274 -0.2255 -0.0067
  408TIP3    H122715   1.810   0.122  11.962  0.3191  1.8524 -0.2604
  408TIP3    H222716   1.683   0.138  12.042  0.1565 -0.8955  0.0825
  409TIP3   OH222717   2.582   5.732  16.331  0.1659 -0.0627 -0.9129
  409TIP3    H122718   2.592   5.819  16.291  1.0042  1.2849  2.1243
  409TIP3    H222719   2.671   5.704  16.351 -0.2268 -0.8147 -0.1920
  410TIP3   OH222720   5.234   2.506   1.854  0.6676 -0.4589  0.2414
  410TIP3    H122721   5.292   2.571   1.893 -0.5910  1.8320 -1.5992
  410TIP3    H222722   5.285   2.466   1.784 -0.3016  2.3987 -2.1632
  411TIP3   OH222723   3.881   4.006   3.996  0.6361 -0.4128  0.2284
  411TIP3    H122724   3.832   3.927   4.016 -0.4932  0.1356 -0.3031
  411TIP3    H222725   3.900   3.999   3.903 -1.1877  0.8499 -0.2681
  412TIP3   OH222726   6.229   6.357   5.765  0.1093  0.4763 -0.3449
  412TIP3    H122727   6.262   6.383   5.678  0.6197  1.1171  0.0388
  412TIP3    H222728   6.258   6.267   5.775  1.7704  1.0279 -0.0231
  413TIP3   OH222729   5.669   2.621  13.520  0.3149 -0.1608 -0.1519
  413TIP3    H122730   5.691   2.681  13.591 -0.0045 -0.0292 -0.1678
  413TIP3    H222731   5.691   2.534  13.555  1.6849  0.0451 -0.4762
  414TIP3   OH222732   1.111   6.665   3.608  0.9231  0.2864  0.1206
  414TIP3    H122733   1.077   6.611   3.680 -0.4976  1.8552  0.6688
  414TIP3    H222734   1.046   6.656   3.539 -0.1009  2.4123  0.7590
  415TIP3   OH222735   3.007   6.661   2.878 -0.2521  0.0084  0.0173
  415TIP3    H122736   2.973   6.702   2.798  0.3348  1.4331  0.4808
  415TIP3    H222737   3.096   6.634   2.855 -0.5134 -0.6935 -0.1786
  416TIP3   OH222738   3.067   1.318   4.063  0.2883 -0.4541 -0.2000
  416TIP3    H122739   3.016   1.372   4.123  0.2629  0.2878 -0.8761
  416TIP3    H222740   3.005   1.297   3.992  0.7105 -0.1577 -0.6609
  417TIP3   OH222741   5.253   1.699  15.464  1.0734 -0.7090 -0.1436
  417TIP3    H122742   5.303   1.778  15.442 -0.8645  0.9320  1.1745
  417TIP3    H222743   5.320   1.634  15.486  2.6800  1.6146  2.1982
  418TIP3   OH222744   2.329   0.981   4.973 -0.0584 -0.1734 -0.4752
  418TIP3    H122745   2.331   0.950   4.882  0.1572 -1.5633 -0.0092
  418TIP3    H222746   2.420   1.003   4.993 -0.2184  0.8089 -0.8201
  419TIP3   OH222747   4.510   3.144   1.994  0.3773  0.2713 -0.4308
  419TIP3    H122748   4.581   3.207   1.979  1.1544  0.0884  2.2826
  419TIP3    H222749   4.553   3.059   1.993  0.0469  0.0955  0.2829
  420TIP3   OH222750   4.855   0.404   6.362 -0.3739  0.3680 -0.8051
  420TIP3    H122751   4.864   0.314   6.394  0.7901  0.7485 -0.0284
  420TIP3    H222752   4.770   0.433   6.394 -1.2849 -0.8592 -2.0758
  421TIP3   OH222753   1.050   4.903  11.661 -0.1095 -0.0838 -0.3623
  421TIP3    H122754   0.979   4.883  11.601  0.1348  0.4087 -0.8263
  421TIP3    H222755   1.046   4.998  11.672  1.6850  0.2109 -1.9410
  422TIP3   OH222756   4.616   5.368   6.156 -0.4464  0.1805 -0.0543
  422TIP3    H122757   4.649   5.321   6.233 -0.5912 -1.1073 -0.7739
  422TIP3    H222758   4.524   5.385   6.176 -0.7193 -0.9496 -0.3120
  423TIP3   OH222759   4.141   2.162  11.385 -0.7810  0.1817 -0.1790
  423TIP3    H122760   4.104   2.182  11.299 -0.8651 -1.8121 -0.6273
  423TIP3    H222761   4.210   2.097  11.367 -1.5881 -1.1373  1.3746
  424TIP3   OH222762   2.227   2.303   1.816  0.3191  0.0089  0.2436
  424TIP3    H122763   2.265   2.261   1.893  1.3884  1.6504  0.6492
  424TIP3    H222764   2.233   2.237   1.747  2.3210 -0.3832  0.7516
  425TIP3   OH222765   4.353   0.093  17.282 -0.4082  0.8828 -0.0366
  425TIP3    H122766   4.410   0.170  17.278 -0.4639  0.8710 -1.3581
  425TIP3    H222767   4.358   0.064  17.373  0.2799  1.9469  0.2781
  426TIP3   OH222768   0.976   4.966  14.579  0.0773 -0.1310 -0.0439
  426TIP3    H122769   1.053   4.956  14.636  0.4242  2.7087  0.0269
  426TIP3    H222770   0.904   4.931  14.631  0.4866  1.8419  1.9319
  427TIP3   OH222771   3.455   6.649  14.718 -0.0786  0.0850 -0.9759
  427TIP3    H122772   3.469   6.740  14.744  1.1031  0.3808 -2.5843
  427TIP3    H222773   3.540   6.620  14.684 -0.3900 -1.6901 -0.3162
  428TIP3   OH222774   2.803   4.324  14.094  0.1780 -0.4663 -0.2070
  428TIP3    H122775   2.726   4.295  14.046 -0.1953  0.1464  0.0252
  428TIP3    H222776   2.784   4.414  14.120  1.7204  0.3131 -1.7004
  429TIP3   OH222777   5.399   2.897   0.605  0.4899  0.5847  0.3908
  429TIP3    H122778   5.405   2.992   0.601  0.2725  0.6702  1.8027
  429TIP3    H222779   5.307   2.879   0.623  0.5596  0.1083  0.2875
  430TIP3   OH222780   5.327   6.071  16.434 -0.7177  0.6961  0.3312
  430TIP3    H122781   5.319   6.019  16.354  0.6127  0.0198  0.6206
  430TIP3    H222782   5.302   6.160  16.408 -0.9917  0.3304 -0.6609
  431TIP3   OH222783   4.787   2.532  12.719  0.0305  0.6437 -0.6340
  431TIP3    H122784   4.824   2.468  12.779 -0.2974  0.2696 -0.8310
  431TIP3    H222785   4.857   2.596  12.706  0.3198  0.3842 -0.3547
  432TIP3   OH222786   2.960   5.876  15.308  0.4845 -0.2590 -0.3208
  432TIP3    H122787   2.990   5.914  15.390  1.0470 -0.3587 -0.4739
  432TIP3    H222788   2.948   5.951  15.250  1.2757 -0.2818 -0.5230
  433TIP3   OH222789   0.746   0.149   3.364 -0.4919  0.0861  0.1935
  433TIP3    H122790   0.785   0.096   3.294 -1.3281 -0.3440  0.0516
  433TIP3    H222791   0.750   0.239   3.330 -0.3190 -0.0443 -0.1366
  434TIP3   OH222792   0.831   2.754   1.331 -0.3028 -0.1867  0.2749
  434TIP3    H122793   0.858   2.696   1.259 -1.3260 -1.7220  1.0940
  434TIP3    H222794   0.906   2.756   1.390 -0.1522 -0.4405  0.0923
  435TIP3   OH222795   1.619   0.912   1.576 -0.3106 -0.1960 -0.8461
  435TIP3    H122796   1.528   0.884   1.562  0.1402 -1.5035 -1.2969
  435TIP3    H222797   1.628   0.992   1.524 -1.1570 -0.1534 -0.9335
  436TIP3   OH222798   0.969   5.983  15.442 -0.1398  0.2049  0.0868
  436TIP3    H122799   0.955   6.008  15.350  0.9086  0.0009 -0.1339
  436TIP3    H222800   0.895   6.022  15.488 -1.7809 -1.3948 -1.1241
  437TIP3   OH222801   5.809   2.213  16.351 -0.5312 -0.3421  0.2455
  437TIP3    H122802   5.722   2.173  16.347 -1.2068  1.1487 -0.6462
  437TIP3    H222803   5.803   2.288  16.291  1.1491  0.1963  0.7299
  438TIP3   OH222804   0.336   5.866   6.271  0.0950 -0.0621  0.4371
  438TIP3    H122805   0.249   5.831   6.248 -1.0984  2.7675  0.5003
  438TIP3    H222806   0.338   5.862   6.366 -1.2254  2.6599  0.6238
  439TIP3   OH222807   1.405   5.475  11.113 -0.2858 -0.5658  0.5219
  439TIP3    H122808   1.490   5.514  11.092 -0.6377  0.3992  0.9012
  439TIP3    H222809   1.374   5.439  11.030 -1.2557  2.4213 -0.4641
  440TIP3   OH222810   4.326   4.764   1.157  0.3128 -0.0952 -0.0544
  440TIP3    H122811   4.253   4.708   1.185  1.2811 -0.8351  1.0059
  440TIP3    H222812   4.284   4.833   1.105 -1.1830 -0.3382  0.8031
  441TIP3   OH222813   2.167   0.485  11.812 -0.2867  0.7101 -0.4521
  441TIP3    H122814   2.214   0.531  11.743  1.2224  0.3381  0.2995
  441TIP3    H222815   2.223   0.493  11.889 -0.5033 -1.4710 -0.0413
  442TIP3   OH222816   2.950   0.054   4.562 -0.0226  0.6179 -0.5884
  442TIP3    H122817   3.015  -0.010   4.589  1.0731  1.5740 -0.9070
  442TIP3    H222818   2.974   0.077   4.472  0.8980  3.0505  0.2376
  443TIP3   OH222819   3.441   6.339  12.263  0.4340 -0.1885  0.2774
  443TIP3    H122820   3.350   6.320  12.288  0.5608 -0.0906  0.8220
  443TIP3    H222821   3.439   6.431  12.235  0.3373 -0.2259  0.1612
  444TIP3   OH222822   3.590   5.387  16.059 -0.4545  0.8341 -0.0150
  444TIP3    H122823   3.500   5.401  16.087  0.1619  1.5532  1.6768
  444TIP3    H222824   3.585   5.376  15.964 -2.4437 -0.1883  0.1878
  445TIP3   OH222825   6.683   0.828  12.548 -0.1281 -0.7222  0.0305
  445TIP3    H122826   6.638   0.898  12.595  1.6780  0.4850  0.0369
  445TIP3    H222827   6.653   0.748  12.589  0.2792  0.2340  2.2699
  446TIP3   OH222828   4.786   6.076   3.891 -0.0937 -0.2201  0.1699
  446TIP3    H122829   4.787   6.093   3.985  1.8405 -2.5872  0.6385
  446TIP3    H222830   4.701   6.035   3.875 -1.2827  2.0359  0.4751
  447TIP3   OH222831   0.462   3.864   2.053 -0.8855  0.4911 -0.2934
  447TIP3    H122832   0.526   3.912   2.106 -2.1891  0.5657  1.2614
  447TIP3    H222833   0.500   3.862   1.965  0.4575  1.9728  0.2303
  448TIP3   OH222834   3.086   0.152   3.474  0.3521  0.1274  0.1677
  448TIP3    H122835   3.084   0.057   3.482  0.4678 -0.0084 -1.3442
  448TIP3    H222836   3.015   0.174   3.415  0.5039  0.9670  0.2775
  449TIP3   OH222837   1.520   0.884  15.081  0.0988  0.1664  0.1255
  449TIP3    H122838   1.584   0.868  15.150  0.3542  0.1781 -0.1072
  449TIP3    H222839   1.475   0.800  15.070  1.2898 -0.3405 -0.9402
  450TIP3   OH222840   1.591   2.930  15.514  0.5730  0.1448 -0.2345
  450TIP3    H122841   1.599   3.025  15.513 -0.9914  0.2917 -1.6253
  450TIP3    H222842   1.619   2.904  15.602 -2.0117  2.2014  1.2668
  451TIP3   OH222843   2.726   2.892   3.273  0.3162  0.4320  0.0486
  451TIP3    H122844   2.727   2.956   3.202  0.6674  0.1529 -0.1998
  451TIP3    H222845   2.729   2.945   3.353 -1.1338  0.7827 -0.1118
  452TIP3   OH222846   3.769   2.430  13.227  0.3931 -0.1483 -0.2064
  452TIP3    H122847   3.700   2.384  13.179  1.2214 -0.7693 -0.8388
  452TIP3    H222848   3.844   2.370  13.222  1.1454  0.7744 -0.0440
  453TIP3   OH222849   5.225   4.597  16.120  0.0796  0.3399  0.2753
  453TIP3    H122850   5.207   4.503  16.122  0.3390  0.3035  1.8326
  453TIP3    H222851   5.237   4.621  16.212  3.5735  1.2065 -0.3354
  454TIP3   OH222852   5.133   2.314  13.711  0.2997 -0.3811  0.3110
  454TIP3    H122853   5.086   2.382  13.759 -0.0572  0.0947 -0.6974
  454TIP3    H222854   5.138   2.348  13.621  0.7380 -1.3672 -0.0372
  455TIP3   OH222855   1.959   5.627  12.126 -0.2687  0.3578 -0.4570
  455TIP3    H122856   1.890   5.595  12.184  0.6728 -0.7715  0.0526
  455TIP3    H222857   2.001   5.697  12.175 -0.7891  0.7821 -0.6092
  456TIP3   OH222858   5.815   6.770  12.794 -0.0495 -0.3735  0.0736
  456TIP3    H122859   5.789   6.788  12.703  0.3946  0.2440  0.0732
  456TIP3    H222860   5.782   6.844  12.844 -1.8511 -1.5633  0.7019
  457TIP3   OH222861   0.137   0.498  12.118 -0.2944 -0.6954 -0.3660
  457TIP3    H122862   0.057   0.472  12.072 -1.2644  0.9624  0.3497
  457TIP3    H222863   0.116   0.489  12.211 -0.0575  0.9269 -0.1484
  458TIP3   OH222864   5.024   4.611   2.649  0.4825 -0.0242 -0.0341
  458TIP3    H122865   5.105   4.585   2.693 -0.4532 -0.3073  1.5688
  458TIP3    H222866   5.032   4.706   2.637  0.2488  0.2755  1.9076
  459TIP3   OH222867   2.154   2.008   2.815 -0.0733  0.1697  0.0750
  459TIP3    H122868   2.188   1.965   2.736  1.4645  1.5563 -0.0455
  459TIP3    H222869   2.060   2.015   2.800 -0.2758 -2.6232 -0.1428
  460TIP3   OH222870   3.843   4.580  15.109 -0.2275  0.0453  0.2227
  460TIP3    H122871   3.823   4.520  15.037 -1.3185  1.8383 -1.0126
  460TIP3    H222872   3.787   4.551  15.181  0.6037 -1.5405  0.2549
  461TIP3   OH222873   1.009   2.784   3.420  0.2584 -0.4699 -0.7045
  461TIP3    H122874   1.097   2.799   3.455  0.8401 -1.8113 -1.5562
  461TIP3    H222875   1.019   2.793   3.326 -0.8840  1.0762 -0.6958
  462TIP3   OH222876   0.350   6.588  15.210  0.0197 -0.1194 -0.1188
  462TIP3    H122877   0.410   6.650  15.168  0.9746 -0.3038  0.9295
  462TIP3    H222878   0.398   6.506  15.213 -1.0845 -0.8089 -1.1195
  463TIP3   OH222879   3.394   1.040   3.870  0.0375 -0.5997 -0.2591
  463TIP3    H122880   3.375   0.948   3.849  0.2587 -0.5823 -0.5351
  463TIP3    H222881   3.479   1.057   3.828  0.7029 -0.7022  1.0196
  464TIP3   OH222882   4.607   4.294   1.506 -0.6406 -0.1328 -0.7706
  464TIP3    H122883   4.556   4.350   1.565 -0.0853  0.6285 -1.0197
  464TIP3    H222884   4.698   4.309   1.530 -0.3563  0.8486 -2.4102
  465TIP3   OH222885   3.318   0.159   2.618 -0.2749  0.6494  0.1779
  465TIP3    H122886   3.229   0.193   2.609 -0.3589  0.3732 -0.0451
  465TIP3    H222887   3.313   0.101   2.695 -0.3824  0.3297 -0.0691
  466TIP3   OH222888   5.951   0.898  14.604  0.2604  0.2662 -0.5458
  466TIP3    H122889   5.932   0.805  14.599 -1.8972  0.5701  1.4668
  466TIP3    H222890   5.940   0.930  14.514  0.9430 -1.3817 -1.2230
  467TIP3   OH222891   3.783   2.600  12.876 -0.1817  0.5616 -0.3198
  467TIP3    H122892   3.825   2.657  12.940 -0.2302 -1.4679  1.5956
  467TIP3    H222893   3.829   2.516  12.885 -1.9688 -0.5227 -1.0555
  468TIP3   OH222894   4.346   0.458  11.937 -0.1816  0.4689  0.1134
  468TIP3    H122895   4.415   0.409  11.982 -0.8400 -0.7303 -0.1455
  468TIP3    H222896   4.327   0.532  11.994  1.0805  0.6136  0.3493
  469TIP3   OH222897   0.513   0.293  16.498 -0.0845  0.1783  0.7732
  469TIP3    H122898   0.596   0.285  16.450  1.0252 -0.4639  2.7550
  469TIP3    H222899   0.458   0.224  16.462  0.7748 -0.3704  0.4915
  470TIP3   OH222900   2.665   0.412   5.263 -0.0005 -0.0793 -0.5307
  470TIP3    H122901   2.611   0.490   5.277 -0.6829 -0.6816  0.2803
  470TIP3    H222902   2.625   0.345   5.319 -0.0954 -1.3265 -2.0630
  471TIP3   OH222903   4.549   0.039  15.623 -0.1590 -0.4106 -0.5668
  471TIP3    H122904   4.456   0.062  15.621 -0.1404 -0.3544 -0.7678
  471TIP3    H222905   4.595   0.123  15.618 -0.0874 -0.5028 -1.5766
  472TIP3   OH222906   3.431   5.439   3.772 -0.0004 -0.3627 -0.9267
  472TIP3    H122907   3.451   5.348   3.748 -1.3284 -1.7164  2.8391
  472TIP3    H222908   3.339   5.450   3.749 -0.7073 -1.0116  1.4683
  473TIP3   OH222909   6.042   1.299   4.163 -0.8802 -0.5985  0.3696
  473TIP3    H122910   6.132   1.305   4.195 -1.1141  0.9580  0.7789
  473TIP3    H222911   6.010   1.216   4.198  1.4807 -2.9223 -2.6683
  474TIP3   OH222912   2.078   3.479   3.711  0.0648  0.1005  0.4202
  474TIP3    H122913   1.989   3.465   3.679  0.0355 -0.2105  0.6302
  474TIP3    H222914   2.127   3.508   3.634 -0.8031  2.8710  0.8805
  475TIP3   OH222915   5.221   3.589   0.838  0.5927  0.1736 -0.1168
  475TIP3    H122916   5.163   3.548   0.775 -0.1252  0.9151  0.0483
  475TIP3    H222917   5.163   3.622   0.907  1.2883  0.1104  0.5148
  476TIP3   OH222918   0.430   1.107  13.625  0.0845 -0.3666  0.7287
  476TIP3    H122919   0.472   1.193  13.614 -0.9199  0.0553  0.1785
  476TIP3    H222920   0.497   1.053  13.667  0.6266  0.7709  1.3426
  477TIP3   OH222921   4.791   4.020  14.672  0.1832  0.2863  0.1191
  477TIP3    H122922   4.699   4.023  14.697 -0.6642 -2.6674 -2.3502
  477TIP3    H222923   4.830   3.956  14.732  0.2165  0.0909 -0.1121
  478TIP3   OH222924   3.356   2.078   0.131 -0.3789  0.4359 -1.0096
  478TIP3    H122925   3.311   2.160   0.113  0.3179  1.0558  0.0383
  478TIP3    H222926   3.285   2.015   0.147 -0.8892  1.2592  0.0341
  479TIP3   OH222927   3.430   6.604  12.206  0.5313 -0.2801 -0.0196
  479TIP3    H122928   3.489   6.605  12.281  0.1539  1.4812  0.2652
  479TIP3    H222929   3.472   6.660  12.141  0.7991 -1.7018 -1.1061
  480TIP3   OH222930   5.949   2.085   4.571 -0.1514 -0.2266  0.0997
  480TIP3    H122931   5.907   2.171   4.565  1.0732  0.5188  2.0280
  480TIP3    H222932   5.882   2.029   4.608  0.5081  0.9920  3.2867
  481TIP3   OH222933   4.255   4.549   0.995  0.2375  0.0732  0.6867
  481TIP3    H122934   4.250   4.512   1.083  0.4684  0.3149  0.8030
  481TIP3    H222935   4.310   4.627   1.005  1.4060 -0.6636  0.0751
  482TIP3   OH222936   5.663   2.464  12.275 -0.3002 -0.1929  0.1058
  482TIP3    H122937   5.629   2.494  12.359  0.1219 -2.3026  1.0557
  482TIP3    H222938   5.756   2.448  12.292  0.2340  1.2869 -1.3088
  483TIP3   OH222939   2.507   1.355   5.728 -1.1714  0.0208 -0.5811
  483TIP3    H122940   2.502   1.290   5.798  0.7780 -0.7406 -1.1109
  483TIP3    H222941   2.464   1.432   5.765 -3.1742 -1.4112  0.2008
  484TIP3   OH222942   6.166   2.986  11.345 -0.2169 -0.5029 -0.3327
  484TIP3    H122943   6.138   2.923  11.412  0.6279 -0.3818  0.1534
  484TIP3    H222944   6.184   2.932  11.268  0.9260 -0.9262  0.2146
  485TIP3   OH222945   2.017   2.874   2.485 -0.6463  0.2873 -0.4010
  485TIP3    H122946   1.997   2.787   2.450  0.3718 -0.6481  1.2703
  485TIP3    H222947   1.944   2.929   2.456 -2.1863 -1.5175 -0.0756
  486TIP3   OH222948   2.617   6.448  10.600  0.1259  0.1668 -0.3279
  486TIP3    H122949   2.634   6.535  10.563 -0.8160 -0.3249 -1.9763
  486TIP3    H222950   2.534   6.421  10.560 -1.6426  0.1138  3.1196
  487TIP3   OH222951   3.137   1.053  15.574  0.5240  0.2793  0.3177
  487TIP3    H122952   3.113   1.037  15.666  1.2496  2.3037  0.8727
  487TIP3    H222953   3.101   0.977  15.527  0.0096 -0.7066  2.2417
  488TIP3   OH222954   4.352   3.046   5.910  0.5814  0.4799  0.0555
  488TIP3    H122955   4.364   2.996   5.991  1.1919  0.6209  0.0512
  488TIP3    H222956   4.317   2.982   5.848 -1.4064  0.7437  0.8751
  489TIP3   OH222957   6.577   3.620  12.468  0.1628 -0.1567  0.0582
  489TIP3    H122958   6.499   3.655  12.426  0.9332 -1.4442 -2.5421
  489TIP3    H222959   6.556   3.528  12.486 -0.3632  0.4936  3.1214
  490TIP3   OH222960   1.018   3.925   0.481 -0.3735 -0.3844 -0.4528
  490TIP3    H122961   0.929   3.902   0.453 -0.2458  0.8960 -1.9360
  490TIP3    H222962   1.036   4.009   0.439  1.6177 -0.7024 -0.2810
  491TIP3   OH222963   0.451   5.462  11.406  0.7780 -0.3717  0.0234
  491TIP3    H122964   0.381   5.401  11.428  2.1086 -1.8401  0.2394
  491TIP3    H222965   0.525   5.407  11.384  1.6532  1.1673 -0.9626
  492TIP3   OH222966   1.464   4.391  13.785 -0.3329  0.2139  0.0687
  492TIP3    H122967   1.550   4.383  13.744 -1.1010 -0.1207 -1.4991
  492TIP3    H222968   1.427   4.471  13.748 -1.0758 -0.1449  0.0217
  493TIP3   OH222969   1.749   4.279  11.982 -0.4991 -0.4009  0.5457
  493TIP3    H122970   1.668   4.239  11.952 -0.9585  0.0264  1.1979
  493TIP3    H222971   1.728   4.313  12.069 -0.1712  1.3415 -0.0243
  494TIP3   OH222972   6.389   1.333   1.566  0.5272 -0.3314 -0.1346
  494TIP3    H122973   6.363   1.302   1.653 -0.3829 -1.1852 -0.7037
  494TIP3    H222974   6.478   1.299   1.554  0.9474  0.4278  0.7624
  495TIP3   OH222975   0.242   3.284  16.809 -0.0830  0.1554  0.0694
  495TIP3    H122976   0.259   3.339  16.885 -0.6596 -0.9518  1.0027
  495TIP3    H222977   0.237   3.195  16.843 -1.3926 -0.2424 -1.0911
  496TIP3   OH222978   3.497   0.559   2.719  0.7068  0.0912 -0.0651
  496TIP3    H122979   3.483   0.631   2.658 -0.1089 -0.6243 -0.7292
  496TIP3    H222980   3.411   0.542   2.756  0.8452 -0.7016 -0.0951
  497TIP3   OH222981   6.783   6.602   3.276  0.9440 -0.4803  0.1634
  497TIP3    H122982   6.850   6.665   3.301  1.6837 -0.7965 -0.9814
  497TIP3    H222983   6.831   6.521   3.258  0.4662 -0.3007 -2.1627
  498TIP3   OH222984   6.074   1.181   6.013  0.2304 -0.4626  1.0281
  498TIP3    H122985   6.102   1.244   6.079  0.8180  0.0707  0.2923
  498TIP3    H222986   6.137   1.193   5.941  0.9506 -2.5731  1.2838
  499TIP3   OH222987   6.099   0.985   4.704  0.0935 -0.3173 -0.1465
  499TIP3    H122988   6.028   0.998   4.767 -1.3630 -1.2912 -1.5378
  499TIP3    H222989   6.111   0.890   4.701  0.9915 -0.2021 -0.4345
  500TIP3   OH222990   1.589   1.231   0.316 -0.0133  0.0786 -0.1351
  500TIP3    H122991   1.577   1.139   0.340  1.5630  0.0153  0.4887
  500TIP3    H222992   1.518   1.249   0.255 -0.8773 -1.3040  0.4232
  501TIP3   OH222993   3.520   4.288   4.373  0.4291  0.1227 -0.6290
  501TIP3    H122994   3.511   4.283   4.277  0.4870  2.6174 -0.7901
  501TIP3    H222995   3.432   4.307   4.405  0.6626  0.6669 -0.3014
  502TIP3   OH222996   3.018   0.098  16.685  0.6202 -0.4567  0.0070
  502TIP3    H122997   2.972   0.150  16.751  2.3163  1.4844 -0.3072
  502TIP3    H222998   3.108   0.130  16.688  1.0897 -1.5471 -2.0528
  503TIP3   OH222999   2.937   0.072   1.356  0.3656 -0.4104 -0.1246
  503TIP3    H123000   2.963  -0.011   1.315  1.5004 -0.6219  1.0057
  503TIP3    H223001   2.847   0.056   1.385  0.3268 -1.0013 -0.5472
  504TIP3   OH223002   1.975   5.919   1.657  0.0224  0.3675 -0.7923
  504TIP3    H123003   2.002   5.967   1.579 -0.5957  1.3851 -0.3785
  504TIP3    H223004   1.896   5.963   1.687 -0.8013 -1.1854 -0.6620
  505TIP3   OH223005   0.385   3.465   1.393  0.7224 -0.1629 -0.0737
  505TIP3    H123006   0.362   3.532   1.457  0.6868 -1.8961  1.7742
  505TIP3    H223007   0.326   3.481   1.320  3.4353  4.3905 -1.5158
  506TIP3   OH223008   4.835   3.875  15.829 -0.2516  0.2441 -0.5792
  506TIP3    H123009   4.762   3.935  15.814  0.4024  0.6179 -2.4335
  506TIP3    H223010   4.906   3.910  15.774  0.4986 -1.5828 -0.8028
  507TIP3   OH223011   1.577   5.008  14.605 -0.1177  0.3746 -0.1397
  507TIP3    H123012   1.629   5.081  14.573  0.6846  0.3447  1.0730
  507TIP3    H223013   1.627   4.930  14.580 -0.4709  0.2804 -0.5505
  508TIP3   OH223014   5.323   0.850  13.081 -0.0454  0.1568  0.4844
  508TIP3    H123015   5.395   0.888  13.031 -1.7654  1.9074 -0.7266
  508TIP3    H223016   5.339   0.878  13.171  0.2941  1.2898  0.0805
  509TIP3   OH223017   1.017   4.080  13.575  0.0150 -0.1463  0.1190
  509TIP3    H123018   1.094   4.065  13.520  0.1605  0.9641  0.0196
  509TIP3    H223019   0.967   4.147  13.529 -0.9988 -0.8323  0.2052
  510TIP3   OH223020   3.916   0.024   5.055  0.0467 -0.0439 -0.2855
  510TIP3    H123021   3.995  -0.023   5.082 -0.3216  0.6165  2.0134
  510TIP3    H223022   3.945   0.114   5.041 -0.0352 -0.0893 -0.7463
  511TIP3   OH223023   3.396   1.859  13.698 -0.0431  0.4291 -0.4027
  511TIP3    H123024   3.388   1.774  13.742  2.8474  0.4117  0.1886
  511TIP3    H223025   3.306   1.889  13.687 -1.0673 -2.2793  0.2370
  512TIP3   OH223026   6.327   6.184  13.937  0.0967 -0.0366 -1.0218
  512TIP3    H123027   6.360   6.095  13.952  0.8656  0.1914 -1.3265
  512TIP3    H223028   6.268   6.200  14.011  0.5956 -0.4974 -0.5180
  513TIP3   OH223029   3.745   0.180   4.340  0.5662 -0.1825  0.6641
  513TIP3    H123030   3.830   0.168   4.298  0.6365  0.9583  0.4697
  513TIP3    H223031   3.687   0.210   4.269  0.6577  1.6389  1.3440
  514TIP3   OH223032   1.848   5.771  16.865  0.8669  0.3680  0.5250
  514TIP3    H123033   1.883   5.684  16.851 -2.0534 -1.0443  1.5409
  514TIP3    H223034   1.819   5.800  16.778  1.2598  0.0584  0.2920
  515TIP3   OH223035   6.426   4.998  11.359 -0.4457 -0.3877 -0.3893
  515TIP3    H123036   6.395   4.958  11.278 -1.1167 -0.1042 -0.2707
  515TIP3    H223037   6.490   4.936  11.393  0.6713  0.0013 -1.7092
  516TIP3   OH223038   1.621   6.501  11.099  0.1706 -0.0788 -0.0269
  516TIP3    H123039   1.565   6.571  11.132  0.5595  1.8411 -3.3119
  516TIP3    H223040   1.702   6.508  11.150 -0.3368  0.8775  0.6578
  517TIP3   OH223041   0.256   2.414   0.067  0.2737 -0.2982 -0.0956
  517TIP3    H123042   0.298   2.487   0.113 -0.4719  0.2936 -0.3453
  517TIP3    H223043   0.289   2.336   0.111  0.5688  0.2121  0.6001
  518TIP3   OH223044   1.021   0.926   0.108  0.4091 -0.2629 -0.4901
  518TIP3    H123045   1.026   0.967   0.194 -2.5483  1.4506 -1.0658
  518TIP3    H223046   0.987   0.838   0.126  0.5475 -0.1848  0.1789
  519TIP3   OH223047   0.931   3.354   2.677  0.2609 -0.0820  0.3120
  519TIP3    H123048   0.900   3.292   2.743 -1.0653 -1.3301 -1.4061
  519TIP3    H223049   0.866   3.425   2.678  0.0317 -0.2854  0.1168
  520TIP3   OH223050   2.069   3.148  15.110  0.0966  0.8823  0.2370
  520TIP3    H123051   2.081   3.054  15.109 -1.0371  0.7366 -0.9184
  520TIP3    H223052   2.035   3.169  15.023 -2.2568  1.9802  1.3648
  521TIP3   OH223053   6.268   6.427   1.992 -0.0525 -0.1597  0.1738
  521TIP3    H123054   6.277   6.489   2.065  1.1143  0.3988 -0.4337
  521TIP3    H223055   6.356   6.389   1.983 -0.4654 -1.0195 -0.2486
  522TIP3   OH223056   5.431   5.402  12.737  0.6026  0.3095  0.0634
  522TIP3    H123057   5.388   5.414  12.821  1.3427  2.3400  0.1683
  522TIP3    H223058   5.391   5.467  12.679  1.3753  0.1469 -0.6712
  523TIP3   OH223059   6.545   4.544  13.694 -0.1681 -0.1218 -0.0862
  523TIP3    H123060   6.485   4.479  13.657 -1.3909  0.2835  1.1293
  523TIP3    H223061   6.527   4.624  13.644  1.3562 -0.6920 -1.5997
  524TIP3   OH223062   6.230   5.866  16.068 -0.0556 -0.0628  0.4846
  524TIP3    H123063   6.273   5.793  16.024  1.1366  0.4442  0.7950
  524TIP3    H223064   6.199   5.923  15.997 -2.1049 -1.4701  0.2023
  525TIP3   OH223065   3.585   3.372   0.300  0.4635 -0.5360  0.3899
  525TIP3    H123066   3.512   3.426   0.330 -0.9635 -1.7863 -0.7390
  525TIP3    H223067   3.658   3.395   0.358  0.0625  2.9615 -0.3914
  526TIP3   OH223068   1.309   2.198  11.494 -0.3988 -0.1013 -0.5445
  526TIP3    H123069   1.397   2.230  11.478  0.6059 -0.9048  2.9498
  526TIP3    H223070   1.293   2.135  11.423  0.8064  1.8609 -2.6338
  527TIP3   OH223071   3.329   3.473   5.163 -0.3991 -0.0860  0.2129
  527TIP3    H123072   3.380   3.397   5.138  0.7482  0.4949  0.7500
  527TIP3    H223073   3.359   3.543   5.105 -0.9680  0.1261  0.1695
  528TIP3   OH223074   3.341   6.360   5.050  0.1189  0.2374 -0.5218
  528TIP3    H123075   3.260   6.412   5.057  0.4774  0.7846 -0.4052
  528TIP3    H223076   3.387   6.399   4.976  0.4660  0.1935 -0.3289
  529TIP3   OH223077   5.291   0.265   5.673 -0.5436 -0.3948  0.8647
  529TIP3    H123078   5.210   0.267   5.622  0.2796 -0.4448 -0.4850
  529TIP3    H223079   5.271   0.313   5.753 -1.9923 -0.6756  0.6889
  530TIP3   OH223080   3.204   2.621   5.852  0.3627 -0.3595 -0.7604
  530TIP3    H123081   3.209   2.700   5.907 -0.8561  0.0730 -1.2573
  530TIP3    H223082   3.184   2.653   5.765  0.1364 -1.1981 -1.0253
  531TIP3   OH223083   5.607   1.547   0.881 -0.3854 -0.2532 -0.2501
  531TIP3    H123084   5.669   1.566   0.810 -0.2084  1.0278  0.2355
  531TIP3    H223085   5.654   1.484   0.937 -0.2676 -0.7540 -0.9032
  532TIP3   OH223086   2.745   4.003   0.714 -0.2724  0.2023  0.4416
  532TIP3    H123087   2.813   4.037   0.656  0.2846  0.0428  0.9945
  532TIP3    H223088   2.729   3.914   0.683  0.4029 -0.0679  0.8579
  533TIP3   OH223089   5.673   2.315  15.299  0.0908  0.0309 -0.5217
  533TIP3    H123090   5.698   2.315  15.207  1.7847  0.2727 -0.0759
  533TIP3    H223091   5.719   2.391  15.336 -0.9622  0.2130  0.4171
  534TIP3   OH223092   6.516   6.412  13.695  0.2906  0.0505  0.2288
  534TIP3    H123093   6.421   6.400  13.697  0.0804  0.9401 -2.1184
  534TIP3    H223094   6.541   6.425  13.786 -1.4072 -3.2428  1.2515
  535TIP3   OH223095   3.658   1.801  11.303  0.0191 -0.6866 -0.1625
  535TIP3    H123096   3.701   1.723  11.336 -1.9336 -1.6962  0.0729
  535TIP3    H223097   3.607   1.834  11.376 -2.7013 -1.7735 -1.4868
  536TIP3   OH223098   0.679   0.819   1.676 -0.2143  0.4426  0.1427
  536TIP3    H123099   0.631   0.738   1.693 -0.3964  0.4471 -0.3291
  536TIP3    H223100   0.625   0.865   1.611 -0.0124  0.8497  0.2604
  537TIP3   OH223101   1.233   3.711  12.097 -0.0112 -0.4033 -0.2083
  537TIP3    H123102   1.170   3.744  12.161 -0.7923 -1.4752 -0.4081
  537TIP3    H223103   1.317   3.714  12.142 -0.3988 -0.1783  0.5101
  538TIP3   OH223104   5.202   2.588  14.075  0.0431 -0.4514  0.5318
  538TIP3    H123105   5.217   2.644  13.998 -1.9743 -0.9808 -0.2834
  538TIP3    H223106   5.110   2.562  14.068  0.6886 -3.1126  1.3952
  539TIP3   OH223107   6.011   6.575  14.777  0.2993 -0.2270  0.1564
  539TIP3    H123108   5.980   6.643  14.718 -1.6910 -1.0808  0.1845
  539TIP3    H223109   6.104   6.594  14.789 -0.1375  2.2507 -0.1421
  540TIP3   OH223110   3.754   3.139  12.497  0.7470 -0.1105 -0.6374
  540TIP3    H123111   3.743   3.119  12.404  1.4858  2.1109 -1.2325
  540TIP3    H223112   3.842   3.108  12.518 -0.3550 -2.9894  0.0248
  541TIP3   OH223113   3.422   1.439  11.339  0.0572  0.5288 -0.1179
  541TIP3    H123114   3.379   1.461  11.257 -1.0183  1.8411  0.7666
  541TIP3    H223115   3.356   1.388  11.387  0.6335 -0.1233 -0.0049
  542TIP3   OH223116   2.761   2.824   0.678  0.4863 -0.5256 -0.2120
  542TIP3    H123117   2.809   2.763   0.622  1.1719 -1.4766  1.3672
  542TIP3    H223118   2.698   2.769   0.725  0.8143  0.0248  0.9088
  543TIP3   OH223119   5.572   3.987  11.333  0.0775 -0.0627  0.8931
  543TIP3    H123120   5.657   4.027  11.318  0.4534 -1.1367  0.0656
  543TIP3    H223121   5.510   4.043  11.287  0.7278 -1.0175 -1.2288
  544TIP3   OH223122   6.289   1.682  16.818  0.0094 -0.0808 -0.0773
  544TIP3    H123123   6.250   1.746  16.876 -1.5032 -0.1372 -0.9996
  544TIP3    H223124   6.362   1.644  16.868  0.7983  2.1992  0.5356
  545TIP3   OH223125   1.659   3.946  11.143 -0.4518 -0.4066  0.7077
  545TIP3    H123126   1.755   3.951  11.150 -0.3454 -2.3526  0.9806
  545TIP3    H223127   1.638   4.001  11.067  0.6889  1.4960  1.7298
  546TIP3   OH223128   0.498   1.197   0.091  0.1925 -0.2608 -0.7900
  546TIP3    H123129   0.454   1.254   0.155 -2.0150 -3.0186  0.2215
  546TIP3    H223130   0.452   1.214   0.009  0.1683  0.1038 -0.7030
  547TIP3   OH223131   1.122   2.898  13.649  0.3836  0.1481  0.0097
  547TIP3    H123132   1.213   2.924  13.635 -0.2316  1.2207 -2.0853
  547TIP3    H223133   1.091   2.868  13.564 -0.6549 -2.1892  1.1353
  548TIP3   OH223134   1.656   6.091  16.099 -0.3385 -0.3758  0.0107
  548TIP3    H123135   1.681   6.014  16.048 -0.0479 -1.2710  1.4724
  548TIP3    H223136   1.618   6.056  16.179  0.4571  0.9898  1.0125
  549TIP3   OH223137   0.364   6.368  12.808 -0.4090  0.0749 -0.2157
  549TIP3    H123138   0.320   6.312  12.743 -0.1327  1.3132 -1.4767
  549TIP3    H223139   0.292   6.399  12.864 -0.8913  0.5254 -1.0788
  550TIP3   OH223140   0.687   4.163  13.880 -0.1487  0.2820 -0.4243
  550TIP3    H123141   0.596   4.187  13.896 -0.8830  1.1004 -4.8904
  550TIP3    H223142   0.733   4.247  13.876  0.4672 -0.0284  0.1117
  551TIP3   OH223143   0.263   0.958  13.799  0.5479  0.1682 -0.2388
  551TIP3    H123144   0.259   0.873  13.756  1.0440 -0.0882  0.2339
  551TIP3    H223145   0.254   1.021  13.727 -2.9158 -0.2910 -0.2863
  552TIP3   OH223146   0.487   3.086  13.005 -0.3688 -0.3839 -0.6992
  552TIP3    H123147   0.402   3.104  13.044 -0.2218 -1.4846  0.1436
  552TIP3    H223148   0.550   3.122  13.067 -0.0697 -3.6435  0.9987
  553TIP3   OH223149   0.188   1.043   1.934 -0.1031  0.5040  0.3186
  553TIP3    H123150   0.234   1.088   2.005 -0.3592  1.2958 -0.0157
  553TIP3    H223151   0.254   1.037   1.865 -0.2571  0.9248  0.1339
  554TIP3   OH223152   4.946   1.383   4.726  0.0636 -0.1165 -0.3442
  554TIP3    H123153   4.852   1.388   4.708 -0.2681 -0.9298  1.0684
  554TIP3    H223154   4.966   1.463   4.774  0.0131 -0.1284 -0.3027
  555TIP3   OH223155   6.557   3.275  12.594 -0.4866 -0.1590  0.2968
  555TIP3    H123156   6.553   3.197  12.539 -0.1343  0.3644 -0.4788
  555TIP3    H223157   6.474   3.274  12.642  0.3137 -2.0351  1.7361
  556TIP3   OH223158   6.809   3.112   2.957 -0.0017 -0.3667  0.1895
  556TIP3    H123159   6.783   3.162   3.034 -0.8776  0.3803 -0.5835
  556TIP3    H223160   6.823   3.023   2.989 -1.3038 -0.2741  1.0456
  557TIP3   OH223161   6.055   2.433  17.207  0.3189 -0.8751  0.4783
  557TIP3    H123162   6.116   2.430  17.281  1.0571  1.0796 -0.0412
  557TIP3    H223163   6.104   2.396  17.134  0.3862 -0.6557  0.4111
  558TIP3   OH223164   2.926   1.576   4.637  0.2018 -0.3078  0.3925
  558TIP3    H123165   2.870   1.630   4.581 -0.8074 -1.4424  0.3060
  558TIP3    H223166   2.986   1.638   4.678 -1.7816  1.0332  1.2962
  559TIP3   OH223167   5.293   0.607   4.463 -0.0484  0.0517 -0.2506
  559TIP3    H123168   5.297   0.605   4.368  0.7185 -1.0806 -0.2038
  559TIP3    H223169   5.206   0.641   4.483  0.0795  1.0650 -1.3499
  560TIP3   OH223170   0.175   6.457  16.716  0.3643  0.2367  0.3232
  560TIP3    H123171   0.159   6.368  16.748  1.5544  0.5989  2.0112
  560TIP3    H223172   0.271   6.463  16.710  0.2088  0.7164 -1.8214
  561TIP3   OH223173   0.836   4.611  14.225  0.3732 -0.7512 -0.1684
  561TIP3    H123174   0.846   4.546  14.294  1.1547  1.2214  1.6331
  561TIP3    H223175   0.910   4.596  14.166  1.7646 -0.1453  1.3952
  562TIP3   OH223176   6.294   2.691  11.313  0.2892  0.2994 -0.3074
  562TIP3    H123177   6.304   2.609  11.263 -2.1470  0.4068 -1.0556
  562TIP3    H223178   6.300   2.663  11.405 -2.0028 -1.0023 -0.5048
  563TIP3   OH223179   3.296   6.532  16.166  0.6177 -0.2378 -0.6595
  563TIP3    H123180   3.220   6.475  16.168  0.7792 -0.4681 -0.9472
  563TIP3    H223181   3.290   6.585  16.246  0.0906 -0.1639 -0.7536
  564TIP3   OH223182   2.100   4.636  17.088  0.1841  0.3694  0.5061
  564TIP3    H123183   2.161   4.570  17.056 -0.1215  0.6252 -0.6094
  564TIP3    H223184   2.113   4.711  17.032  0.4317  1.2310  1.6963
  565TIP3   OH223185   6.369   5.630   1.550  0.4903  0.1594  0.0524
  565TIP3    H123186   6.389   5.667   1.636  0.7850  0.8394 -0.3068
  565TIP3    H223187   6.453   5.596   1.518  0.7319  1.4030 -0.6778
  566TIP3   OH223188   3.091   0.611  14.297 -0.0645 -0.0989  0.0459
  566TIP3    H123189   3.007   0.633  14.256  0.2722  0.2459 -0.4688
  566TIP3    H223190   3.087   0.652  14.384 -0.7313 -0.7260  0.3070
  567TIP3   OH223191   2.439   3.400   3.820  0.1389 -0.4678 -0.8605
  567TIP3    H123192   2.397   3.484   3.842  0.7242 -0.2898 -0.3973
  567TIP3    H223193   2.528   3.409   3.854  0.7283 -0.6268 -2.3419
  568TIP3   OH223194   4.428   5.149  15.637 -0.5130 -0.4694 -0.0702
  568TIP3    H123195   4.362   5.115  15.698  0.3305 -0.2842  0.9626
  568TIP3    H223196   4.512   5.132  15.681  0.1193 -0.5120 -1.2716
  569TIP3   OH223197   1.109   0.925   1.945 -0.3110  0.4502 -0.3325
  569TIP3    H123198   1.014   0.930   1.929 -0.4574  1.8430  0.8689
  569TIP3    H223199   1.132   0.834   1.927 -1.6923  0.3420 -1.6525
  570TIP3   OH223200   0.488   1.351  12.599 -0.1961  0.1515  0.4495
  570TIP3    H123201   0.431   1.275  12.585 -0.2080  0.4833 -1.3565
  570TIP3    H223202   0.431   1.416  12.640 -0.6927 -0.1235  0.2046
  571TIP3   OH223203   3.617   3.580   2.460 -0.5690 -0.2728  0.1941
  571TIP3    H123204   3.611   3.571   2.364 -0.0265 -0.9382  0.2223
  571TIP3    H223205   3.544   3.638   2.482 -1.2703 -0.8461 -0.5306
  572TIP3   OH223206   6.140   2.320  14.676  1.0807  0.1828 -0.1541
  572TIP3    H123207   6.120   2.365  14.593  0.0613  0.4794  0.2363
  572TIP3    H223208   6.222   2.359  14.705  0.4836  1.4353 -0.0911
  573TIP3   OH223209   0.753   5.287   3.568 -0.0105 -0.2950  0.2123
  573TIP3    H123210   0.766   5.203   3.612  0.0101 -1.1192 -1.3378
  573TIP3    H223211   0.834   5.335   3.582  0.4936 -1.0714 -0.0426
  574TIP3   OH223212   4.801   3.170  12.525 -0.3964 -0.1291 -0.3155
  574TIP3    H123213   4.726   3.120  12.556 -0.5804 -0.2633 -0.9802
  574TIP3    H223214   4.829   3.220  12.602 -0.6535 -0.7000  0.1565
  575TIP3   OH223215   3.816   2.024   4.975  0.0925  0.3199  0.2321
  575TIP3    H123216   3.777   2.076   5.046  0.1716 -1.1217  1.3562
  575TIP3    H223217   3.910   2.024   4.994  0.0095 -0.8740  0.6819
  576TIP3   OH223218   4.754   3.791   1.566 -0.1508  0.1825  0.0940
  576TIP3    H123219   4.690   3.862   1.577  0.4467  0.9080 -1.1147
  576TIP3    H223220   4.777   3.766   1.656 -0.3469  1.5351  0.5311
  577TIP3   OH223221   3.128   0.623   1.222  0.3590 -0.1841 -0.1801
  577TIP3    H123222   3.163   0.573   1.296 -0.7986 -0.2820  0.3064
  577TIP3    H223223   3.177   0.592   1.146 -0.2430 -1.9544  0.1468
  578TIP3   OH223224   4.053   3.867   0.736 -0.2700 -0.0234  0.0659
  578TIP3    H123225   4.035   3.918   0.814  1.9177  0.4132  0.2912
  578TIP3    H223226   4.051   3.931   0.664 -0.0971 -0.0646  0.0249
  579TIP3   OH223227   4.732   0.615   6.675 -0.5296 -0.1481 -0.7596
  579TIP3    H123228   4.768   0.529   6.653 -1.0494 -0.4291 -0.5204
  579TIP3    H223229   4.668   0.632   6.606 -1.8984 -0.8661  0.3092
  580TIP3   OH223230   0.096   5.010  12.097 -0.2512 -0.6884  0.2390
  580TIP3    H123231   0.098   4.945  12.027  0.8987 -0.7585  0.3235
  580TIP3    H223232   0.003   5.028  12.110 -0.4795 -0.6519 -1.3202
  581TIP3   OH223233   2.505   5.426   2.866 -0.5192  0.5401 -0.0583
  581TIP3    H123234   2.590   5.434   2.909  0.1193 -1.6793 -0.8654
  581TIP3    H223235   2.451   5.494   2.906  1.5035  1.6840  0.7699
  582TIP3   OH223236   1.600   5.770  11.880  0.3876 -0.0321  0.5041
  582TIP3    H123237   1.513   5.744  11.849 -0.5657  0.6435  2.5193
  582TIP3    H223238   1.654   5.692  11.869 -0.2445 -0.1975 -1.5739
  583TIP3   OH223239   1.802   0.789  14.293  0.3601  0.0300 -0.1329
  583TIP3    H123240   1.880   0.845  14.294  0.3339  0.0655 -0.1075
  583TIP3    H223241   1.811   0.735  14.372  0.5278 -0.1934 -0.3030
  584TIP3   OH223242   5.462   0.633   5.641 -0.0946 -0.1482  0.3504
  584TIP3    H123243   5.457   0.677   5.726 -0.3301 -2.6865  1.7129
  584TIP3    H223244   5.380   0.656   5.597 -0.4344  0.3549  1.2393
  585TIP3   OH223245   1.090   1.998  15.841 -0.0643  0.0432 -0.3385
  585TIP3    H123246   1.104   1.997  15.936 -0.6892 -1.2737 -0.2568
  585TIP3    H223247   0.996   1.978  15.830 -0.9791  4.2645 -1.0652
  586TIP3   OH223248   4.574   0.728   4.406  0.4356  0.0423  0.6472
  586TIP3    H123249   4.641   0.740   4.474  1.8908  0.1846 -0.7692
  586TIP3    H223250   4.572   0.812   4.360  0.1798 -0.3717 -0.1084
  587TIP3   OH223251   3.993   0.565  13.978 -0.5173 -0.2912 -0.6971
  587TIP3    H123252   3.908   0.585  13.938  0.2328  0.9860 -1.7032
  587TIP3    H223253   4.024   0.649  14.012  0.2529 -0.7843 -0.1777
  588TIP3   OH223254   6.394   3.455   2.693  0.3485  0.0263 -0.5032
  588TIP3    H123255   6.438   3.388   2.640 -0.8178 -0.2038 -1.2025
  588TIP3    H223256   6.301   3.435   2.684  0.0051  1.5447 -0.4483
  589TIP3   OH223257   5.844   0.037  14.398 -0.3231 -0.1244 -0.4972
  589TIP3    H123258   5.828  -0.028  14.329 -2.5025  0.2295 -0.3633
  589TIP3    H223259   5.775   0.102  14.386  1.5660  1.9543 -0.3381
  590TIP3   OH223260   1.783   2.654  13.994 -0.0230  0.2837 -0.2239
  590TIP3    H123261   1.841   2.677  14.067 -0.0770 -2.5580  0.7629
  590TIP3    H223262   1.720   2.593  14.032 -0.3423 -0.8776 -2.5669
  591TIP3   OH223263   5.252   5.520   4.045  0.1597  0.1318 -0.1293
  591TIP3    H123264   5.233   5.432   4.076 -1.1069  0.9842  1.6745
  591TIP3    H223265   5.204   5.577   4.106  0.2450  2.0222 -1.7802
  592TIP3   OH223266   2.320   1.247  15.345  0.0682 -0.3843  0.2912
  592TIP3    H123267   2.326   1.342  15.329 -1.7709 -0.3558 -0.3003
  592TIP3    H223268   2.374   1.209  15.275 -0.6900  0.1515 -0.6088
  593TIP3   OH223269   2.705   2.493  11.234 -0.2124  0.2262  0.9805
  593TIP3    H123270   2.651   2.487  11.313 -1.2085 -1.2606  0.2241
  593TIP3    H223271   2.756   2.412  11.233  0.2387  0.5103  0.4082
  594TIP3   OH223272   6.347   5.464  14.015 -0.7043  0.6430 -0.3332
  594TIP3    H123273   6.388   5.542  13.977 -0.7996  0.2051 -1.3587
  594TIP3    H223274   6.300   5.424  13.942 -2.4562  0.8092  0.6905
  595TIP3   OH223275   4.248   1.961  10.555 -0.0718 -0.2814  0.1295
  595TIP3    H123276   4.300   2.026  10.506 -1.4528  0.1842 -0.7344
  595TIP3    H223277   4.291   1.957  10.641  1.3876  0.1076 -0.5567
  596TIP3   OH223278   3.843   4.228  11.871  0.3150  0.2991  0.1247
  596TIP3    H123279   3.882   4.315  11.874 -1.1756  1.0005 -0.3896
  596TIP3    H223280   3.884   4.186  11.795 -0.3423  1.2370 -0.7674
  597TIP3   OH223281   5.019   1.164   0.764 -0.7159 -0.3717 -0.1600
  597TIP3    H123282   4.962   1.089   0.781  0.0411 -0.7598  0.6576
  597TIP3    H223283   5.108   1.130   0.773 -0.3708  0.9572  1.6930
  598TIP3   OH223284   5.504   3.606  15.709 -0.4715 -0.1570 -0.5578
  598TIP3    H123285   5.514   3.566  15.623 -0.5739 -0.4452 -0.4404
  598TIP3    H223286   5.427   3.563  15.746  0.0203 -0.6015 -0.0194
  599TIP3   OH223287   2.849   3.481  16.344  0.3373  0.1936  0.4905
  599TIP3    H123288   2.771   3.445  16.302  1.2886 -1.9203  0.4508
  599TIP3    H223289   2.921   3.454  16.286  1.4164 -0.6901  2.2076
  600TIP3   OH223290   3.933   1.475   4.782  0.3523  0.1912  0.5533
  600TIP3    H123291   3.929   1.562   4.741 -1.1724  1.1947  2.7462
  600TIP3    H223292   3.845   1.440   4.771 -0.3520  0.8420  3.6610
  601TIP3   OH223293   3.358   1.699  14.198  0.9822 -0.0073 -0.2273
  601TIP3    H123294   3.273   1.696  14.154  0.4829  0.9792  0.6454
  601TIP3    H223295   3.392   1.786  14.176  1.4908 -0.1726 -0.0811
  602TIP3   OH223296   4.490   1.434  15.105  0.1373 -0.0282 -0.4590
  602TIP3    H123297   4.394   1.439  15.106  0.1136 -0.3644  0.7035
  602TIP3    H223298   4.510   1.358  15.159  1.0605  0.0709 -0.6572
  603TIP3   OH223299   6.750   4.569  15.484 -0.5167 -0.3275  0.0163
  603TIP3    H123300   6.835   4.612  15.479 -1.0663  0.5548 -4.4008
  603TIP3    H223301   6.765   4.481  15.449 -1.4585  0.0003 -1.2707
  604TIP3   OH223302   2.042   5.850   5.402  0.2670  0.5715 -0.4642
  604TIP3    H123303   2.002   5.877   5.319  2.0906 -0.1800 -1.6347
  604TIP3    H223304   2.090   5.770   5.381  0.0013 -0.1487  1.5443
  605TIP3   OH223305   4.996   1.632   4.837  0.1656 -0.1102 -0.0862
  605TIP3    H123306   5.001   1.637   4.932  1.8507 -0.3044 -0.1603
  605TIP3    H223307   4.974   1.721   4.809  1.7312  0.4215  0.3518
  606TIP3   OH223308   5.128   3.510  13.796 -0.0510  0.5413 -0.2535
  606TIP3    H123309   5.122   3.421  13.831 -1.1117 -0.4538 -2.8615
  606TIP3    H223310   5.069   3.562  13.851 -0.1968 -0.5592  0.6428
  607TIP3   OH223311   0.752   4.833  14.357 -0.7320  0.1848 -0.4893
  607TIP3    H123312   0.747   4.808  14.450 -1.4840  0.8305 -0.3577
  607TIP3    H223313   0.766   4.750  14.311  0.0410 -0.0954  0.2300
  608TIP3   OH223314   0.366   0.683  12.465 -0.5499 -0.1022  0.1089
  608TIP3    H123315   0.327   0.659  12.549 -1.8668  1.7294  0.0479
  608TIP3    H223316   0.296   0.726  12.418  0.5866  0.1274 -1.3959
  609TIP3   OH223317   0.095   0.858  13.548 -0.0812 -0.1801  0.5573
  609TIP3    H123318   0.125   0.899  13.467 -1.4055  0.7837  0.5408
  609TIP3    H223319   0.169   0.803  13.575  1.7711  2.2436  0.6075
  610TIP3   OH223320   2.298   0.755   2.152 -0.0960 -0.5334  0.0088
  610TIP3    H123321   2.226   0.813   2.178 -1.1996 -2.3128  1.0069
  610TIP3    H223322   2.313   0.775   2.060 -2.6148 -0.9029 -0.5142
  611TIP3   OH223323   3.287   0.788   3.858 -0.2687 -0.0800  0.1961
  611TIP3    H123324   3.288   0.756   3.948  1.9307 -1.2732 -0.2303
  611TIP3    H223325   3.288   0.710   3.804 -0.9084  0.6430 -0.8960
  612TIP3   OH223326   3.056   1.660  13.004 -0.1064 -0.0031 -0.0843
  612TIP3    H123327   3.011   1.588  13.049  0.1500 -0.0136  0.1531
  612TIP3    H223328   2.995   1.733  13.009 -0.1366 -0.0450  0.1527
  613TIP3   OH223329   5.671   0.598  14.464  0.4794 -0.2257  0.3454
  613TIP3    H123330   5.625   0.574  14.544  1.7565 -1.8818  0.6224
  613TIP3    H223331   5.602   0.627  14.405 -0.5610  0.2966  1.7849
  614TIP3   OH223332   6.369   5.397   5.988 -0.1387  0.6478  0.5199
  614TIP3    H123333   6.303   5.457   5.952 -0.1188  1.9603  2.5846
  614TIP3    H223334   6.375   5.327   5.924 -1.0974  2.2210 -1.3522
  615TIP3   OH223335   0.195   6.724  16.174 -0.0432  0.2762  0.1242
  615TIP3    H123336   0.182   6.631  16.190  0.6551  0.0349 -0.6733
  615TIP3    H223337   0.266   6.728  16.110 -0.5296  1.3299 -0.3692
  616TIP3   OH223338   5.732   5.925  10.997 -0.5149 -0.6338  0.0581
  616TIP3    H123339   5.677   5.953  11.070 -1.6625 -0.2023 -0.9508
  616TIP3    H223340   5.736   6.001  10.939 -0.7507 -1.4092 -0.9947
  617TIP3   OH223341   6.525   4.827  15.746  0.1899 -0.3991  0.2684
  617TIP3    H123342   6.434   4.827  15.774 -0.2016 -2.2342 -0.9095
  617TIP3    H223343   6.524   4.786  15.659  2.1703 -0.8670  0.4327
  618TIP3   OH223344   1.198   1.660   1.078 -0.3735  0.3337 -0.2759
  618TIP3    H123345   1.160   1.729   1.133 -0.4249 -0.4037  0.6343
  618TIP3    H223346   1.266   1.620   1.133 -1.9909 -1.9385  0.1436
  619TIP3   OH223347   1.359   0.893   1.479 -0.2523  0.4633  0.6264
  619TIP3    H123348   1.285   0.920   1.534 -0.8916  2.0328 -0.9443
  619TIP3    H223349   1.325   0.899   1.389  0.4868 -2.9128  0.0633
  620TIP3   OH223350   1.869   0.848   2.660  0.0579  0.1523 -0.1357
  620TIP3    H123351   1.792   0.823   2.711 -0.3180 -0.9420 -1.2266
  620TIP3    H223352   1.943   0.820   2.713 -0.3296 -0.8298 -0.1103
  621TIP3   OH223353   6.345   5.083  12.034 -0.3987 -0.3313  0.5479
  621TIP3    H123354   6.335   5.149  12.103  0.8229 -2.0131  2.3697
  621TIP3    H223355   6.278   5.018  12.054 -0.4794 -0.5025 -0.2596
  622TIP3   OH223356   5.539   2.869  11.239 -0.2406 -0.1523 -0.3599
  622TIP3    H123357   5.444   2.861  11.236 -0.3803  1.6235 -1.8553
  622TIP3    H223358   5.563   2.904  11.153  1.8977 -1.7251 -0.4472
  623TIP3   OH223359   5.480   0.666   2.285  0.1768 -0.5591  0.3603
  623TIP3    H123360   5.461   0.596   2.222  2.0586 -1.5115  0.8274
  623TIP3    H223361   5.574   0.659   2.302  0.1407  1.2126  1.4726
  624TIP3   OH223362   0.664   3.874  11.757 -0.3213  0.8852  0.1105
  624TIP3    H123363   0.607   3.948  11.735  0.0709  1.4589  1.0027
  624TIP3    H223364   0.719   3.863  11.679 -0.3143  1.5947  0.0081
  625TIP3   OH223365   2.036   1.440   4.168  0.5137  0.3308 -0.1877
  625TIP3    H123366   1.965   1.501   4.146  0.7453  0.0578 -1.7359
  625TIP3    H223367   2.030   1.371   4.102  0.8795 -0.8227  0.9696
  626TIP3   OH223368   6.642   1.719   2.311 -0.6853  0.0582 -0.0348
  626TIP3    H123369   6.735   1.701   2.296 -0.6479  1.1618 -1.2992
  626TIP3    H223370   6.641   1.776   2.387 -0.3396 -0.1611  0.1331
  627TIP3   OH223371   5.775   0.924  17.235 -0.2083 -0.3392 -0.6127
  627TIP3    H123372   5.856   0.882  17.265 -0.8826 -1.2149  0.0379
  627TIP3    H223373   5.743   0.867  17.165 -0.1770  0.0840 -0.9686
  628TIP3   OH223374   5.331   1.658   1.518 -1.0813  0.3026 -0.0364
  628TIP3    H123375   5.279   1.581   1.496  1.7430 -2.2150  1.6740
  628TIP3    H223376   5.329   1.712   1.439 -2.5323 -1.8780 -1.5449
  629TIP3   OH223377   2.171   0.678  15.102  0.1363  0.1070  0.4283
  629TIP3    H123378   2.100   0.660  15.163  1.1074 -0.4180  1.4281
  629TIP3    H223379   2.147   0.630  15.022 -1.4471  1.3187  0.1605
  630TIP3   OH223380   3.379   2.666  16.004  0.1758  0.2676  0.4124
  630TIP3    H123381   3.441   2.646  16.074 -0.0382 -1.7231  0.0576
  630TIP3    H223382   3.293   2.652  16.043  0.0729 -1.6132 -0.4651
  631TIP3   OH223383   3.457   5.124  14.143 -0.0618  0.3578 -0.2934
  631TIP3    H123384   3.551   5.103  14.141 -0.4012 -1.1433 -1.4551
  631TIP3    H223385   3.433   5.136  14.052 -1.2718 -0.5757 -0.1157
  632TIP3   OH223386   3.036   3.441   1.614  0.0501 -0.4050  0.1583
  632TIP3    H123387   2.996   3.411   1.696  3.0952 -0.9771  1.5043
  632TIP3    H223388   3.060   3.532   1.631  3.0044 -1.2703  0.8684
  633TIP3   OH223389   2.613   1.496  12.918  0.1415  0.3663  0.1223
  633TIP3    H123390   2.589   1.526  12.831  0.9402  0.4555 -0.0733
  633TIP3    H223391   2.580   1.563  12.977  2.1104  1.7660 -0.3251
  634TIP3   OH223392   3.891   0.249  12.543  0.0176 -0.9086 -0.4561
  634TIP3    H123393   3.975   0.294  12.543 -1.0413  1.2172 -3.0148
  634TIP3    H223394   3.838   0.295  12.608  0.5602 -1.7523  0.5960
  635TIP3   OH223395   2.526   2.831  12.104  0.1708 -0.0250  0.0269
  635TIP3    H123396   2.545   2.880  12.024  0.6910 -1.0454 -0.4804
  635TIP3    H223397   2.519   2.898  12.172  0.8245  0.7541 -0.6614
  636TIP3   OH223398   1.077   1.985   5.096  0.1105  0.0601  0.2521
  636TIP3    H123399   1.021   1.918   5.137  0.8094 -0.9596 -0.4263
  636TIP3    H223400   1.155   1.987   5.151  0.1045  0.2906  0.2503
  637TIP3   OH223401   1.872   5.644  15.377  0.6564  0.1325 -0.0835
  637TIP3    H123402   1.779   5.624  15.389  0.3837  1.0696 -0.5515
  637TIP3    H223403   1.885   5.724  15.428  0.6396  1.3460 -1.9176
  638TIP3   OH223404   6.399   3.678   4.095 -0.0580 -0.5014 -0.4454
  638TIP3    H123405   6.450   3.661   4.016 -0.9275 -1.0262 -0.8983
  638TIP3    H223406   6.335   3.744   4.069  1.2749  1.2015  0.4911
  639TIP3   OH223407   5.386   4.072   1.874 -0.3917  0.2026  0.1823
  639TIP3    H123408   5.403   4.020   1.952 -0.4921 -1.4457 -0.8696
  639TIP3    H223409   5.429   4.156   1.891 -0.6751 -0.0332  2.1177
  640TIP3   OH223410   5.239   0.767  12.118 -0.1983 -0.1689  0.3014
  640TIP3    H123411   5.205   0.815  12.043 -0.4335 -0.1546  0.4163
  640TIP3    H223412   5.231   0.827  12.192 -0.6685 -0.4463  0.4812
  641TIP3   OH223413   2.449   0.229   0.635 -0.0291  0.3902 -0.1357
  641TIP3    H123414   2.378   0.282   0.601 -1.7110 -0.1156  2.4490
  641TIP3    H223415   2.431   0.141   0.603 -0.6101  0.2482  0.5815
  642TIP3   OH223416   5.605   2.656   5.168  0.1921  0.0294 -0.2419
  642TIP3    H123417   5.520   2.613   5.175  0.1606 -0.1289 -1.5398
  642TIP3    H223418   5.585   2.750   5.171  0.1832 -0.0077  1.6819
  643TIP3   OH223419   3.045   0.614   6.080 -0.2867 -0.3697 -0.2494
  643TIP3    H123420   3.137   0.586   6.080 -0.6447 -1.6405 -1.4765
  643TIP3    H223421   3.041   0.687   6.142  1.1629 -1.5617  1.2680
  644TIP3   OH223422   2.643   4.148  13.721  0.1925 -0.1709  0.0907
  644TIP3    H123423   2.621   4.074  13.777 -0.8848  0.0566 -0.0223
  644TIP3    H223424   2.580   4.143  13.649  0.1443  0.8272  0.0552
  645TIP3   OH223425   3.579   4.136  15.971 -0.6433  0.4905  0.4567
  645TIP3    H123426   3.652   4.198  15.978 -0.2329  0.2414 -1.4173
  645TIP3    H223427   3.513   4.170  16.031  1.0400  0.6678  2.2519
  646TIP3   OH223428   4.300   6.573   1.465 -0.1425 -0.5110  0.4175
  646TIP3    H123429   4.377   6.528   1.502 -1.2713 -2.4978  0.3872
  646TIP3    H223430   4.326   6.666   1.464  1.8823 -1.0219  1.3320
  647TIP3   OH223431   1.290   6.371   5.914 -0.0200  0.7515  0.3957
  647TIP3    H123432   1.274   6.280   5.938  1.9746  0.5091  0.9384
  647TIP3    H223433   1.358   6.400   5.975  0.8338  1.9677 -1.0850
  648TIP3   OH223434   3.242   5.492   0.245  0.5073 -0.3383 -0.1728
  648TIP3    H123435   3.224   5.493   0.151 -0.2899 -2.5047 -0.0714
  648TIP3    H223436   3.308   5.424   0.256  2.3860  1.5375  0.5852
  649TIP3   OH223437   0.939   6.195   2.959  0.5018  0.1064  0.0625
  649TIP3    H123438   1.000   6.170   3.029 -0.4650  0.5937  1.0993
  649TIP3    H223439   0.860   6.224   3.006  0.4577  2.0717 -1.1797
  650TIP3   OH223440   3.940   4.713   1.161 -0.0186 -0.2322 -0.2116
  650TIP3    H123441   3.893   4.779   1.212  0.1416 -1.5726  1.7177
  650TIP3    H223442   3.909   4.725   1.071 -1.7117  0.9512  0.5165
  651TIP3   OH223443   0.656   1.491   5.299  0.3325  0.0508  0.2997
  651TIP3    H123444   0.684   1.439   5.224 -0.7066  3.1227 -2.2863
  651TIP3    H223445   0.608   1.429   5.355 -0.8782 -1.7787 -2.6632
  652TIP3   OH223446   1.609   6.285  16.918 -0.2538 -0.2457  0.2503
  652TIP3    H123447   1.590   6.379  16.922  0.0113 -0.1120 -1.0930
  652TIP3    H223448   1.671   6.277  16.844 -0.2362 -1.4623  0.3926
  653TIP3   OH223449   4.381   2.397  12.824 -0.6037  0.6884  0.9754
  653TIP3    H123450   4.302   2.343  12.822 -0.1216 -0.0473  1.4748
  653TIP3    H223451   4.423   2.381  12.740 -0.8877  0.9280  0.7893
  654TIP3   OH223452   6.684   0.914  13.023 -0.3894 -0.1284 -0.0554
  654TIP3    H123453   6.729   0.832  13.044 -0.8739 -0.2738  0.4394
  654TIP3    H223454   6.591   0.895  13.039 -0.6198  0.2066 -0.9424
  655TIP3   OH223455   0.320   2.782   4.017 -0.0319  0.1555 -0.3059
  655TIP3    H123456   0.301   2.752   3.928 -0.0280  2.0856 -0.9811
  655TIP3    H223457   0.239   2.825   4.046  0.0915 -0.1392  0.4809
  656TIP3   OH223458   3.404   3.112  12.219 -0.1155 -0.4068  0.9820
  656TIP3    H123459   3.438   3.042  12.164 -3.1331 -0.6958 -0.5711
  656TIP3    H223460   3.317   3.082  12.246 -0.2594  1.4620  2.7369
  657TIP3   OH223461   6.544   2.608   4.032 -0.2071 -0.8234 -0.1253
  657TIP3    H123462   6.461   2.635   4.069  0.0829  0.8111 -0.6099
  657TIP3    H223463   6.594   2.573   4.106 -0.0572  1.3382  0.8507
  658TIP3   OH223464   1.961   0.016   4.905 -0.2385 -0.0729  0.5279
  658TIP3    H123465   1.998   0.096   4.941 -0.3230 -0.7575  2.2110
  658TIP3    H223466   1.866   0.028   4.913 -0.2483 -0.3793  0.8588
  659TIP3   OH223467   1.144   0.538   0.373  0.3100 -0.2115  0.5229
  659TIP3    H123468   1.085   0.576   0.438 -1.4818 -1.8926 -0.0739
  659TIP3    H223469   1.217   0.502   0.424 -0.0471  0.2973  1.4009
  660TIP3   OH223470   0.050   1.984   4.807  0.3704  0.2364 -0.9985
  660TIP3    H123471   0.075   2.048   4.740  0.5121  0.6732 -0.5396
  660TIP3    H223472   0.117   1.916   4.802  0.8086  0.6509 -0.7837
  661TIP3   OH223473   6.002   0.820   1.609  0.4595 -0.0952 -0.1007
  661TIP3    H123474   6.068   0.753   1.627 -0.6775 -1.0696  0.5617
  661TIP3    H223475   5.994   0.869   1.690  0.9376  0.5312 -0.4322
  662TIP3   OH223476   2.514   4.976  17.128 -0.4789 -0.4209 -0.0530
  662TIP3    H123477   2.497   5.004  17.218 -0.3461 -1.5738  0.3392
  662TIP3    H223478   2.449   5.023  17.076 -1.5725 -0.9176  0.8384
  663TIP3   OH223479   0.911   1.547  13.222 -0.0270  0.3623 -0.4791
  663TIP3    H123480   0.858   1.626  13.207  2.6160  1.6988 -3.3378
  663TIP3    H223481   0.904   1.498  13.140  3.8329  1.0831 -1.3554
  664TIP3   OH223482   5.943   0.631  14.527 -0.4902  0.0693  0.1023
  664TIP3    H123483   5.988   0.595  14.449  0.1253 -0.4739  0.6974
  664TIP3    H223484   5.851   0.634  14.502 -0.5364 -1.7477 -0.0592
  665TIP3   OH223485   0.219   6.362   5.677 -0.4058 -0.3547  0.0735
  665TIP3    H123486   0.167   6.321   5.746 -2.6731 -0.3302 -1.5686
  665TIP3    H223487   0.264   6.435   5.720 -1.2739 -0.7416  1.6546
  666TIP3   OH223488   5.561   5.868   4.452  0.4132  0.6456 -0.3787
  666TIP3    H123489   5.530   5.958   4.441 -0.0003  0.6690  0.8345
  666TIP3    H223490   5.510   5.817   4.389  0.6201  1.2530 -1.0408
  667TIP3   OH223491   6.034   4.244   3.064 -0.2804  0.2867 -0.2487
  667TIP3    H123492   6.097   4.307   3.099 -1.0770  0.5801  0.6624
  667TIP3    H223493   6.089   4.177   3.023  0.6069  0.9208 -0.1247
  668TIP3   OH223494   5.211   3.573   5.953  0.2617 -0.4402  0.1673
  668TIP3    H123495   5.248   3.526   5.878  1.6065  0.6489  0.1168
  668TIP3    H223496   5.125   3.602   5.924  0.8381  0.1235 -1.0349
  669TIP3   OH223497   4.149   4.381  15.255  0.1598  0.1148 -0.0583
  669TIP3    H123498   4.149   4.476  15.241 -0.0015 -0.2631 -2.9526
  669TIP3    H223499   4.056   4.358  15.258  0.2017 -0.0896 -0.3579
  670TIP3   OH223500   4.659   1.905  15.817  0.2071  0.4517  0.1127
  670TIP3    H123501   4.642   1.901  15.911  1.4263 -1.1603  0.2941
  670TIP3    H223502   4.742   1.952  15.809  0.5728 -0.2180 -0.0836
  671TIP3   OH223503   4.504   1.575   1.584  0.3907  0.4352 -0.2921
  671TIP3    H123504   4.493   1.668   1.564  1.5866  0.6937  0.2265
  671TIP3    H223505   4.559   1.542   1.513 -0.3189  0.0385 -0.6644
  672TIP3   OH223506   5.297   5.559   2.484 -0.6412 -0.0916 -0.1645
  672TIP3    H123507   5.222   5.619   2.482 -0.3466  0.2778 -0.2425
  672TIP3    H223508   5.279   5.501   2.558 -0.4020  0.7971  0.6080
  673TIP3   OH223509   4.816   2.462  16.678  0.7141  0.4555 -0.0878
  673TIP3    H123510   4.728   2.427  16.681  0.6281  0.6710 -0.1101
  673TIP3    H223511   4.815   2.524  16.605  0.2714  2.1133  1.2891
  674TIP3   OH223512   2.653   5.449  14.868 -0.1190 -0.1927  0.0930
  674TIP3    H123513   2.605   5.453  14.950  1.9364 -2.2132  1.4815
  674TIP3    H223514   2.593   5.406  14.807 -0.5473 -1.5663  1.4497
  675TIP3   OH223515   4.046   6.601  12.458  0.2844 -0.1899 -0.4552
  675TIP3    H123516   4.130   6.622  12.498 -0.7967  1.4008  1.1050
  675TIP3    H223517   4.012   6.528  12.510 -0.0788  0.3286  0.0371
  676TIP3   OH223518   3.191   4.563  12.298  0.6201  0.4846 -0.0181
  676TIP3    H123519   3.193   4.485  12.243  2.0349  0.5204 -0.0446
  676TIP3    H223520   3.145   4.535  12.377  0.1947 -0.0772 -0.4550
  677TIP3   OH223521   0.435   4.760  16.586 -0.2947 -0.4376  0.3635
  677TIP3    H123522   0.439   4.763  16.681  1.2527  0.1899  0.2957
  677TIP3    H223523   0.460   4.670  16.563  1.1156 -0.0835  0.4823
  678TIP3   OH223524   5.265   3.019   5.033  0.7893 -0.2980  0.3307
  678TIP3    H123525   5.264   3.115   5.040  1.1223 -0.3719  1.6424
  678TIP3    H223526   5.175   2.996   5.009  0.6289  0.3306  0.3073
  679TIP3   OH223527   5.782   5.886   3.394 -0.0883 -0.2306 -0.1429
  679TIP3    H123528   5.807   5.976   3.415  0.2261 -0.1894 -0.6809
  679TIP3    H223529   5.695   5.876   3.433  0.3355 -0.0406  0.8456
  680TIP3   OH223530   4.077   0.883  12.019 -0.2359  0.1545  0.0394
  680TIP3    H123531   4.083   0.893  11.924  1.5366  0.1820  0.1339
  680TIP3    H223532   4.143   0.943  12.054 -0.8041  0.0732  1.2920
  681TIP3   OH223533   1.823   3.576  15.825  0.4003  0.3892 -0.4880
  681TIP3    H123534   1.731   3.589  15.801  0.6471  0.1250 -1.5970
  681TIP3    H223535   1.826   3.488  15.863 -0.0515  0.9315  0.8168
  682TIP3   OH223536   2.094   5.716   2.678  0.0265 -0.3361  0.2182
  682TIP3    H123537   2.086   5.680   2.590  0.4477 -2.2358  0.9397
  682TIP3    H223538   2.164   5.665   2.719  0.1086  0.7940  1.5309
  683TIP3   OH223539   3.178   4.737   4.189 -0.4178  0.0565 -0.1163
  683TIP3    H123540   3.184   4.808   4.125 -1.4202  0.9374  0.7398
  683TIP3    H223541   3.126   4.670   4.145 -0.5065  0.3608 -0.4837
  684TIP3   OH223542   1.769   2.239   4.871  0.4079 -0.1577 -0.3192
  684TIP3    H123543   1.701   2.306   4.878  0.2179 -0.4970  1.2891
  684TIP3    H223544   1.770   2.216   4.778 -0.1806  1.3878 -0.7223
  685TIP3   OH223545   0.054   6.369   3.784  0.3452 -0.0615 -0.3541
  685TIP3    H123546   0.087   6.420   3.858 -0.3535 -0.6590  0.3777
  685TIP3    H223547   0.103   6.402   3.708  1.3732  0.2641  0.4392
  686TIP3   OH223548   4.607   6.790   2.145  0.1337  0.0014  0.0159
  686TIP3    H123549   4.584   6.702   2.174  0.4802  0.2123  0.9281
  686TIP3    H223550   4.693   6.806   2.183 -1.1670  1.8481  2.2496
  687TIP3   OH223551   2.835   4.781  15.835 -0.6876  0.2266 -0.7162
  687TIP3    H123552   2.869   4.754  15.750  1.0696 -1.8468  0.5608
  687TIP3    H223553   2.756   4.728  15.847  0.8166 -1.8691  0.2640
  688TIP3   OH223554   0.382   1.902  14.535  0.0926  0.2025  0.2760
  688TIP3    H123555   0.419   1.977  14.488 -2.4600 -0.2115 -2.5336
  688TIP3    H223556   0.437   1.828  14.508  0.6737  0.5270  0.5583
  689TIP3   OH223557   5.941   0.713  12.587 -0.2584 -0.4146 -0.0703
  689TIP3    H123558   5.908   0.730  12.499 -0.1568  0.4406  0.0472
  689TIP3    H223559   5.882   0.763  12.644  0.5197  0.1776  0.2295
  690TIP3   OH223560   4.226   2.111   0.282  0.1312 -0.4913 -0.9244
  690TIP3    H123561   4.171   2.148   0.213  0.1821 -0.1008 -0.7524
  690TIP3    H223562   4.165   2.093   0.354  0.4145  1.0016 -0.3062
  691TIP3   OH223563   4.411   4.584   4.632 -0.7376  0.2613  0.3514
  691TIP3    H123564   4.456   4.499   4.633 -0.3479  0.4367 -1.0902
  691TIP3    H223565   4.439   4.627   4.713  0.3708 -0.3098  0.2854
  692TIP3   OH223566   1.893   1.908   5.492 -0.3721 -0.6386  0.2122
  692TIP3    H123567   1.926   1.985   5.446 -0.5978 -1.6389 -1.7012
  692TIP3    H223568   1.966   1.878   5.546  1.2465 -1.6850 -2.4694
  693TIP3   OH223569   0.092   5.848  10.595 -0.0010 -0.1233 -0.3110
  693TIP3    H123570   0.152   5.911  10.555 -1.2507  1.3680  0.1268
  693TIP3    H223571   0.102   5.862  10.689 -0.0565 -0.8119 -0.1986
  694TIP3   OH223572   4.476   5.691  13.848  0.2416  0.2086  0.2453
  694TIP3    H123573   4.415   5.619  13.832  0.3779  0.3615 -1.0116
  694TIP3    H223574   4.435   5.742  13.918 -0.2886 -0.5929  0.5217
  695TIP3   OH223575   4.094   1.285   0.152  0.1217 -0.5315 -0.0703
  695TIP3    H123576   4.050   1.250   0.075 -0.5096  1.1775 -0.4999
  695TIP3    H223577   4.024   1.327   0.202  0.6375 -1.0629  1.1246
  696TIP3   OH223578   4.993   5.322   1.080 -0.1533  0.3601  0.3880
  696TIP3    H123579   4.981   5.408   1.042 -0.3054  1.0688  2.0120
  696TIP3    H223580   4.923   5.269   1.043 -0.3410  1.0483 -0.2440
  697TIP3   OH223581   4.401   4.345   4.377  0.1402  0.3586  0.3909
  697TIP3    H123582   4.347   4.383   4.446 -1.8739 -0.3540 -0.7559
  697TIP3    H223583   4.399   4.250   4.395  0.1445  0.2308 -0.2840
  698TIP3   OH223584   3.923   4.525   3.510 -0.2007 -0.3461  0.4236
  698TIP3    H123585   3.958   4.575   3.583  1.4376  0.2093 -0.7238
  698TIP3    H223586   3.833   4.558   3.499  0.2566  1.0545  0.8295
  699TIP3   OH223587   2.564   4.313  16.958 -0.2698 -0.4211  0.0445
  699TIP3    H123588   2.510   4.334  16.882 -0.9477  1.6500  1.0590
  699TIP3    H223589   2.503   4.284  17.025  0.2168 -1.2485  0.1388
  700TIP3   OH223590   1.842   2.335  12.925 -0.1239 -0.8143  0.0767
  700TIP3    H123591   1.859   2.410  12.981  0.0816 -0.2266 -0.7567
  700TIP3    H223592   1.782   2.368  12.858  0.1317 -1.3326 -0.4144
  701TIP3   OH223593   3.447   2.810   6.692  0.1778 -0.3579 -0.2968
  701TIP3    H123594   3.352   2.804   6.676 -0.0321  1.8999 -0.0979
  701TIP3    H223595   3.478   2.720   6.687 -1.9711 -1.1190 -0.4887
  702TIP3   OH223596   2.755   5.155  17.188  0.0337 -0.2283  0.9611
  702TIP3    H123597   2.688   5.214  17.154 -0.6409 -1.2298  0.5308
  702TIP3    H223598   2.771   5.094  17.116  0.2617 -0.9577  1.6329
  703TIP3   OH223599   2.351   1.860   5.145  0.3657  0.0214 -0.1865
  703TIP3    H123600   2.291   1.826   5.078 -2.0133  1.6868  1.0335
  703TIP3    H223601   2.438   1.848   5.107 -0.8723  0.2248 -3.2694
  704TIP3   OH223602   2.075   0.129   5.493 -0.6199 -0.0205 -0.0889
  704TIP3    H123603   2.124   0.085   5.562 -0.7372  0.6604  0.4397
  704TIP3    H223604   1.990   0.147   5.532 -0.9602 -0.3520 -0.6833
  705TIP3   OH223605   5.313   0.401   5.247 -0.5133  0.2744 -0.2807
  705TIP3    H123606   5.363   0.372   5.323 -1.2205 -0.7767 -0.2061
  705TIP3    H223607   5.317   0.496   5.250  0.9853  0.2083  0.0531
  706TIP3   OH223608   3.810   5.871  10.865  0.7003  0.3967  0.0516
  706TIP3    H123609   3.832   5.865  10.772 -2.3675  0.7522 -0.7657
  706TIP3    H223610   3.816   5.782  10.898 -0.7151 -0.1418 -1.1233
  707TIP3   OH223611   0.011   0.255   5.664 -0.5485 -0.1093 -0.4094
  707TIP3    H123612  -0.082   0.261   5.643 -1.1085  1.1476  2.2431
  707TIP3    H223613   0.037   0.346   5.681  0.5334 -0.7383  1.3915
  708TIP3   OH223614   4.135   1.575  15.570 -0.3250 -0.3975  0.2682
  708TIP3    H123615   4.145   1.600  15.661  2.2733 -3.3322  0.9116
  708TIP3    H223616   4.211   1.614  15.526 -1.1193  0.3228 -0.4778
  709TIP3   OH223617   2.662   3.829  14.712  0.3029 -0.5527  0.2432
  709TIP3    H123618   2.749   3.861  14.688 -0.8112  1.2459 -1.5025
  709TIP3    H223619   2.673   3.793  14.800  2.3063  1.7499  0.9752
  710TIP3   OH223620   5.766   5.288  15.254 -0.2285  0.0467 -0.5197
  710TIP3    H123621   5.802   5.245  15.332  0.1043 -0.6751 -1.0588
  710TIP3    H223622   5.837   5.342  15.221 -0.6122  0.9449  0.0963
  711TIP3   OH223623   3.462   5.068  16.033 -1.0518  0.4907  0.3843
  711TIP3    H123624   3.536   5.084  15.974 -0.2988 -1.0573  0.8764
  711TIP3    H223625   3.474   5.131  16.104  1.5774 -1.7448  2.0280
  712TIP3   OH223626   3.766   2.830   0.428  0.6698 -0.1726  0.0239
  712TIP3    H123627   3.815   2.857   0.351 -0.1601  0.5865 -0.2379
  712TIP3    H223628   3.780   2.900   0.492  2.9683 -1.7116  1.2918
  713TIP3   OH223629   2.679   4.865  13.093 -0.2507  0.3302 -0.2142
  713TIP3    H123630   2.736   4.929  13.049  1.4833  0.1392  1.6692
  713TIP3    H223631   2.593   4.907  13.096  0.5408  1.9783 -0.2770
  714TIP3   OH223632   0.024   5.229  11.914  0.7357  0.8160  0.6651
  714TIP3    H123633  -0.024   5.186  11.986  0.4019  1.6847  0.9607
  714TIP3    H223634  -0.044   5.256  11.853  1.2304 -3.8951 -2.2611
  715TIP3   OH223635   5.308   0.761  13.680  0.8329  0.1036 -0.3258
  715TIP3    H123636   5.248   0.786  13.609  0.6031 -0.7109 -0.4237
  715TIP3    H223637   5.261   0.693  13.728  0.6242  1.2422  1.1398
  716TIP3   OH223638   6.318   6.036   3.194  0.0946 -0.2296  0.1976
  716TIP3    H123639   6.305   6.108   3.257 -2.5126  0.5291 -1.1510
  716TIP3    H223640   6.241   5.981   3.204  0.9245 -1.5577 -0.5072
  717TIP3   OH223641   0.427   1.587  16.021 -0.2821 -0.8611  0.1567
  717TIP3    H123642   0.428   1.499  16.060  0.5728 -0.9054  0.0434
  717TIP3    H223643   0.337   1.618  16.033 -0.4715 -1.5774  0.5887
  718TIP3   OH223644   4.247   4.111   0.697 -0.4991 -0.0607 -0.1285
  718TIP3    H123645   4.288   4.186   0.741  1.0476 -0.5646 -0.6791
  718TIP3    H223646   4.252   4.040   0.760 -0.0853 -0.2570 -0.3855
  719TIP3   OH223647   6.768   1.498  14.857 -0.3775 -0.0496  0.7204
  719TIP3    H123648   6.696   1.439  14.835 -0.0258  0.0060 -0.6646
  719TIP3    H223649   6.834   1.441  14.896  0.4575 -0.8454 -1.7118
  720TIP3   OH223650   5.464   0.877   4.813 -0.5307  0.0979  0.5831
  720TIP3    H123651   5.500   0.960   4.780  0.5539 -0.6437 -0.1427
  720TIP3    H223652   5.372   0.897   4.833 -0.2024  1.5477  0.6950
  721TIP3   OH223653   1.517   1.822  15.878  0.0680 -0.7002  0.2750
  721TIP3    H123654   1.482   1.738  15.849 -0.4058  0.3397 -2.2511
  721TIP3    H223655   1.461   1.846  15.952  0.4132 -2.7163  1.2461
  722TIP3   OH223656   6.455   6.457   5.588  0.3199  0.2381 -0.0312
  722TIP3    H123657   6.459   6.523   5.657 -0.0918  1.7054 -1.3962
  722TIP3    H223658   6.546   6.441   5.564  0.4508 -0.1274  0.6966
  723TIP3   OH223659   3.022   1.843   3.385  0.2268  0.8772  0.3398
  723TIP3    H123660   3.007   1.830   3.291 -0.3744  2.0741  0.2641
  723TIP3    H223661   3.113   1.870   3.392  0.1444  1.2296  0.0547
  724TIP3   OH223662   3.810   4.604  13.128  0.2288  0.3366 -0.0017
  724TIP3    H123663   3.787   4.662  13.055  1.7776  1.0467  0.0511
  724TIP3    H223664   3.888   4.558  13.097 -0.9587 -1.6938 -0.0240
  725TIP3   OH223665   3.784   2.476   3.060  0.1957 -0.3187 -0.4747
  725TIP3    H123666   3.827   2.478   2.974 -1.2933 -1.7478 -1.2581
  725TIP3    H223667   3.762   2.385   3.074 -0.7379  0.1030  0.8608
  726TIP3   OH223668   4.868   0.323   2.878  0.5587 -0.3738 -0.4126
  726TIP3    H123669   4.922   0.244   2.870  0.0300 -0.6514 -1.3302
  726TIP3    H223670   4.790   0.305   2.825 -1.2155 -0.6156  2.1679
  727TIP3   OH223671   5.004   5.242   6.411  0.4182  0.4575  0.1622
  727TIP3    H123672   4.957   5.322   6.386  0.8705  1.8517  3.4608
  727TIP3    H223673   5.086   5.274   6.449  0.3284 -1.5386  2.1016
  728TIP3   OH223674   6.806   0.099  13.248  0.0740  0.3551 -0.2409
  728TIP3    H123675   6.891   0.054  13.248  1.2755  2.5197 -1.7370
  728TIP3    H223676   6.744   0.034  13.280  2.2029 -1.4768  0.2482
  729TIP3   OH223677   3.984   0.244  14.203 -0.1050  0.7905 -0.0715
  729TIP3    H123678   4.039   0.307  14.250  0.6017  1.4990 -1.8186
  729TIP3    H223679   3.961   0.288  14.122  0.3794 -1.1893 -1.3197
  730TIP3   OH223680   0.599   3.929   3.080  0.5066 -0.6234  0.7598
  730TIP3    H123681   0.597   3.839   3.113  0.1817 -0.2348  1.8098
  730TIP3    H223682   0.545   3.978   3.141 -0.0207  0.1361 -0.2969
  731TIP3   OH223683   5.240   1.273   5.406 -0.2769  0.2869  0.7996
  731TIP3    H123684   5.212   1.255   5.316 -1.5661  0.6364  1.1331
  731TIP3    H223685   5.303   1.203   5.425 -0.5259 -0.2018 -0.1317
  732TIP3   OH223686   4.092   4.957  16.145 -0.3336  0.1683 -0.0747
  732TIP3    H123687   4.170   4.912  16.177 -0.6992 -0.1849  0.3174
  732TIP3    H223688   4.038   4.970  16.222 -0.4223  0.9001 -0.2616
  733TIP3   OH223689   3.602   1.722   5.323 -0.6774 -0.6877  0.4692
  733TIP3    H123690   3.572   1.791   5.264 -1.3512 -0.3956  1.1415
  733TIP3    H223691   3.598   1.642   5.271  0.0144 -0.2364 -0.2862
  734TIP3   OH223692   0.953   6.189  15.247 -0.1602 -0.1612  0.5835
  734TIP3    H123693   0.894   6.241  15.302 -0.4955  0.1395 -0.0553
  734TIP3    H223694   1.023   6.249  15.223 -0.5478 -0.0007 -0.1537
  735TIP3   OH223695   1.382   0.457   0.534  0.8556 -0.1375 -0.7233
  735TIP3    H123696   1.406   0.547   0.514  1.4635  0.0369  0.7411
  735TIP3    H223697   1.453   0.425   0.590  0.0581 -1.1415 -0.2625
  736TIP3   OH223698   2.122   5.457   6.395  0.1890  0.1057 -0.3922
  736TIP3    H123699   2.048   5.462   6.456  0.8698 -1.3901  0.5896
  736TIP3    H223700   2.138   5.363   6.384  0.7068  0.3764 -2.1345
  737TIP3   OH223701   5.907   4.601   5.149 -0.0980 -0.3145 -0.4482
  737TIP3    H123702   5.961   4.658   5.203 -0.3420 -0.0613 -0.4710
  737TIP3    H223703   5.841   4.567   5.209 -1.5275  1.4549 -0.9947
  738TIP3   OH223704   5.727   0.472   3.041  0.4122 -0.2511 -0.3743
  738TIP3    H123705   5.800   0.427   2.998 -0.2735  0.3926 -2.2342
  738TIP3    H223706   5.652   0.458   2.983 -0.5145  0.7046  0.5749
  739TIP3   OH223707   1.832   3.791   4.808  0.1950 -0.0219  0.2492
  739TIP3    H123708   1.866   3.703   4.792  1.0122  0.5162 -1.0338
  739TIP3    H223709   1.876   3.819   4.888 -1.2923 -1.3875  1.5931
  740TIP3   OH223710   3.032   4.799   2.379  0.0972 -0.3005 -0.0459
  740TIP3    H123711   2.941   4.819   2.358 -0.5366 -1.2818  1.6506
  740TIP3    H223712   3.077   4.800   2.294 -0.7347  3.7616 -0.5116
  741TIP3   OH223713   2.999   3.999  11.743 -0.0767  0.3012 -0.0087
  741TIP3    H123714   3.055   3.937  11.697 -1.4426  0.6440 -2.2284
  741TIP3    H223715   3.059   4.057  11.789  1.2582 -1.6515  0.7884
  742TIP3   OH223716   3.662   0.922   1.800  0.6778  0.2713  0.0241
  742TIP3    H123717   3.691   0.836   1.830  0.3249 -0.2969 -1.2209
  742TIP3    H223718   3.629   0.965   1.879  0.6663 -0.8123  0.6229
  743TIP3   OH223719   0.072   6.301  13.487  0.8195  0.0966  0.8297
  743TIP3    H123720   0.087   6.227  13.428  1.5451  0.3816  0.6572
  743TIP3    H223721   0.013   6.266  13.555 -1.4339  0.2264 -0.9972
  744TIP3   OH223722   5.148   2.957  11.994  0.5096  0.3606 -0.5807
  744TIP3    H123723   5.066   2.912  12.016  1.1065  0.3406  1.7394
  744TIP3    H223724   5.120   3.031  11.940 -1.0624  0.3540  0.1826
  745TIP3   OH223725   5.737   5.898   1.962 -0.2723 -0.4592 -0.1074
  745TIP3    H123726   5.752   5.980   2.010 -0.7477 -0.6449  0.3476
  745TIP3    H223727   5.824   5.876   1.927 -0.3708  0.8744 -1.2412
  746TIP3   OH223728   1.031   0.568  15.259  0.2698  0.8972 -0.2433
  746TIP3    H123729   1.112   0.594  15.304 -0.4428  1.3753  0.7878
  746TIP3    H223730   0.993   0.501  15.317 -0.2030  0.8531 -0.6022
  747TIP3   OH223731   3.756   6.007  15.285 -0.7108 -0.2749 -0.0755
  747TIP3    H123732   3.704   6.086  15.301  0.2884  0.4631 -0.3890
  747TIP3    H223733   3.843   6.040  15.262 -0.4209 -1.4599 -0.7366
  748TIP3   OH223734   1.292   4.563   1.309  0.0691  0.1350 -0.0580
  748TIP3    H123735   1.214   4.589   1.358  0.3710  0.3317  0.3135
  748TIP3    H223736   1.280   4.469   1.293 -0.0710  0.0898  0.3107
  749TIP3   OH223737   5.051   3.610   5.251 -0.3304 -0.0625  0.3648
  749TIP3    H123738   5.044   3.515   5.259 -0.7587 -0.0002  0.7800
  749TIP3    H223739   4.972   3.635   5.203 -1.1598  0.2749  1.8797
  750TIP3   OH223740   3.249   0.472   1.409  0.8367  0.7002 -0.2595
  750TIP3    H123741   3.277   0.461   1.500 -2.8019 -1.0195  0.7455
  750TIP3    H223742   3.246   0.383   1.374 -2.3339  0.9058 -0.5883
  751TIP3   OH223743   3.866   2.677   0.993  0.0054  0.5087 -0.1038
  751TIP3    H123744   3.845   2.586   0.974 -0.9830  0.7085 -0.0007
  751TIP3    H223745   3.803   2.728   0.942  0.5301  1.1378 -0.1415
  752TIP3   OH223746   4.260   4.165   1.476  0.1306 -0.1431  0.3970
  752TIP3    H123747   4.179   4.119   1.496 -1.0215  1.2507 -0.9508
  752TIP3    H223748   4.326   4.096   1.472 -1.7327 -1.8750 -2.5613
  753TIP3   OH223749   0.843   5.566  12.527 -0.0674 -0.2218  0.4300
  753TIP3    H123750   0.760   5.522  12.509 -0.3524  0.5809 -0.3101
  753TIP3    H223751   0.823   5.660  12.517  1.2593 -0.0773 -1.2912
  754TIP3   OH223752   2.673   0.956   2.494 -0.2297  0.4941  0.4723
  754TIP3    H123753   2.583   0.923   2.487 -0.2691  0.1773  2.1097
  754TIP3    H223754   2.664   1.051   2.485 -0.5214  0.3432 -0.9673
  755TIP3   OH223755   5.752   1.221   3.565 -0.3674 -0.0331  0.1171
  755TIP3    H123756   5.708   1.284   3.508  1.5605  0.6716 -0.6284
  755TIP3    H223757   5.834   1.263   3.590 -0.0495 -1.3598  1.3766
  756TIP3   OH223758   1.772   4.757  13.551 -0.0553  0.2111 -0.3496
  756TIP3    H123759   1.799   4.755  13.459 -0.5916 -1.5750 -0.4829
  756TIP3    H223760   1.840   4.708  13.597 -0.0174  0.7318  0.1465
  757TIP3   OH223761   3.056   3.498  14.283  0.9757  0.3666  0.2861
  757TIP3    H123762   2.970   3.495  14.241  0.1639 -0.6489  1.9531
  757TIP3    H223763   3.057   3.582  14.330  1.6408  1.2210 -1.2339
  758TIP3   OH223764   6.091   0.647   2.801 -0.0366 -0.4137  0.4668
  758TIP3    H123765   6.015   0.655   2.742 -0.0709 -2.4160  0.1745
  758TIP3    H223766   6.102   0.734   2.839 -1.9278  0.1358 -0.1789
  759TIP3   OH223767   0.504   0.187   1.995 -0.0838  0.3393  0.4929
  759TIP3    H123768   0.576   0.215   2.051  0.1050 -0.3491  0.5958
  759TIP3    H223769   0.546   0.161   1.913 -0.1021 -1.0458  0.9102
  760TIP3   OH223770   1.811   0.487   0.192 -0.0470 -0.2835  0.3777
  760TIP3    H123771   1.838   0.433   0.117 -0.1158  0.2736 -0.0488
  760TIP3    H223772   1.781   0.569   0.153 -3.4533 -1.2779  0.6920
  761TIP3   OH223773   0.539   2.523   6.262  0.3159 -0.0627  0.3164
  761TIP3    H123774   0.627   2.555   6.282  0.9007 -0.8162 -0.9899
  761TIP3    H223775   0.530   2.534   6.167 -0.0724 -2.2473  0.0658
  762TIP3   OH223776   1.168   4.172  16.983 -0.2342  0.2526  0.2145
  762TIP3    H123777   1.142   4.093  16.935 -1.1969  0.5848  0.1763
  762TIP3    H223778   1.131   4.244  16.932 -0.5169  0.6537  0.9857
  763TIP3   OH223779   2.160   0.797  11.612  0.4805 -0.4243 -0.2010
  763TIP3    H123780   2.237   0.741  11.623  2.0675  1.4986 -1.2906
  763TIP3    H223781   2.145   0.798  11.517 -1.4527 -1.4665  0.0447
  764TIP3   OH223782   1.727   0.310  17.185 -0.0628 -0.8672  0.5922
  764TIP3    H123783   1.726   0.267  17.270  1.7144  2.2269  2.2618
  764TIP3    H223784   1.819   0.311  17.159 -0.7018 -2.8251 -1.9810
  765TIP3   OH223785   5.442   2.176   4.674  0.1318  0.1216 -0.3417
  765TIP3    H123786   5.438   2.266   4.640  0.8377  0.3398  0.1247
  765TIP3    H223787   5.454   2.122   4.596 -0.2119  0.4442 -0.6219
  766TIP3   OH223788   1.761   4.688   1.138 -0.1079  0.3336 -0.2813
  766TIP3    H123789   1.685   4.644   1.176  1.1642 -0.3969  1.4459
  766TIP3    H223790   1.807   4.618   1.091  0.3396  0.4576 -0.0192
  767TIP3   OH223791   6.530   0.894  14.359 -0.0017  0.2812  0.0177
  767TIP3    H123792   6.587   0.820  14.379 -0.6638 -1.0626 -2.7633
  767TIP3    H223793   6.590   0.967  14.343  0.8471 -0.5402 -0.6129
  768TIP3   OH223794   0.972   1.880  16.559 -0.3687  0.3080 -0.3195
  768TIP3    H123795   0.921   1.841  16.488  0.8129  1.7482 -1.9804
  768TIP3    H223796   1.051   1.826  16.565 -0.2422  0.4786 -0.4364
  769TIP3   OH223797   3.349   4.352  16.848  0.2135 -0.3153 -0.1876
  769TIP3    H123798   3.322   4.271  16.804 -0.4777 -0.0831 -0.1960
  769TIP3    H223799   3.283   4.365  16.916  1.4590 -0.8558  1.1482
  770TIP3   OH223800   4.752   1.266  14.312  0.0446 -0.4490 -0.3363
  770TIP3    H123801   4.830   1.298  14.357  0.1473  0.1191 -0.9110
  770TIP3    H223802   4.679   1.309  14.356  0.2760  1.8876 -2.1725
  771TIP3   OH223803   3.705   4.895  13.418  0.5520  0.2434  0.2782
  771TIP3    H123804   3.715   4.933  13.331 -0.3338  1.5726  0.7343
  771TIP3    H223805   3.614   4.866  13.421  0.3999  0.7778  0.9725
  772TIP3   OH223806   0.570   2.147  14.757  0.0524 -0.4887 -0.3479
  772TIP3    H123807   0.659   2.114  14.774 -0.4231 -1.1162  0.9822
  772TIP3    H223808   0.574   2.240  14.781  0.0208 -0.8129  0.9406
  773TIP3   OH223809   5.365   2.929   2.505 -0.0538  0.2281 -0.2855
  773TIP3    H123810   5.343   2.897   2.418  1.1514 -0.4650 -0.3511
  773TIP3    H223811   5.393   3.020   2.491  1.0728 -0.1856 -0.7639
  774TIP3   OH223812   0.685   6.778  10.877  0.0029 -0.7629  0.1181
  774TIP3    H123813   0.767   6.823  10.854 -0.0784  0.2044  1.6138
  774TIP3    H223814   0.623   6.805  10.809  0.8094 -1.1627 -0.7840
  775TIP3   OH223815   4.135   1.721   1.015 -0.1700 -0.2239  0.0030
  775TIP3    H123816   4.230   1.725   1.012 -0.1419 -1.0012 -0.1483
  775TIP3    H223817   4.114   1.670   1.093 -0.4497 -0.3888 -0.1751
  776TIP3   OH223818   0.925   6.798   0.928 -0.2796 -0.0916 -0.5887
  776TIP3    H123819   0.945   6.776   0.837  0.7756 -1.9605  0.0705
  776TIP3    H223820   0.857   6.736   0.953 -1.6453  1.3765 -0.5054
  777TIP3   OH223821   3.837   1.934  16.065 -0.2670  0.0598  0.3681
  777TIP3    H123822   3.818   1.888  15.984 -3.6026 -1.2354  1.8162
  777TIP3    H223823   3.893   1.874  16.115  1.8707  0.9005 -0.9498
  778TIP3   OH223824   4.787   3.120   0.734  0.0571  0.0867 -0.1830
  778TIP3    H123825   4.844   3.083   0.666 -0.0261  1.0171 -0.7646
  778TIP3    H223826   4.729   3.048   0.759  0.4852 -0.4275 -0.6640
  779TIP3   OH223827   0.845   6.782  12.914  0.0740 -0.6303  0.5686
  779TIP3    H123828   0.876   6.867  12.946  2.8683 -0.9507 -1.1028
  779TIP3    H223829   0.796   6.803  12.835 -0.2593 -0.4742  0.8164
  780TIP3   OH223830   3.751   2.105  11.063 -0.1014 -0.0281  0.1707
  780TIP3    H123831   3.699   2.073  10.989  0.7915  0.7020 -0.7691
  780TIP3    H223832   3.833   2.135  11.024 -0.0178  1.2900  1.3349
  781TIP3   OH223833   0.748   1.407   6.117 -0.7642  0.5989  0.3230
  781TIP3    H123834   0.729   1.501   6.125 -1.5996  0.4225  0.3726
  781TIP3    H223835   0.779   1.382   6.204 -3.0019  0.2646  1.0351
  782TIP3   OH223836   3.079   4.348  14.107 -0.4606  0.1607  0.7165
  782TIP3    H123837   2.993   4.307  14.115  0.0327 -1.0840 -0.0994
  782TIP3    H223838   3.069   4.412  14.037 -0.8350  0.3245  0.9193
  783TIP3   OH223839   1.921   3.184  12.804 -0.4677 -0.1739 -0.1741
  783TIP3    H123840   1.910   3.155  12.894 -3.1196 -0.1900 -0.4661
  783TIP3    H223841   1.964   3.269  12.812  1.2829 -1.1472  0.9869
  784TIP3   OH223842   6.698   3.842  15.161  0.0432 -0.3881 -0.2431
  784TIP3    H123843   6.744   3.894  15.227 -0.2259  0.5328 -0.7691
  784TIP3    H223844   6.736   3.755  15.169  1.1845  0.1109  0.0193
  785TIP3   OH223845   6.671   1.765  16.943  0.2442 -0.5958 -0.2439
  785TIP3    H123846   6.661   1.840  17.001 -0.6070 -0.0201 -1.1337
  785TIP3    H223847   6.745   1.788  16.887 -0.3793 -0.1845 -0.8927
  786TIP3   OH223848   4.002   6.673  15.311  0.1914 -0.0049 -0.1768
  786TIP3    H123849   4.088   6.674  15.269  0.0951 -0.5776 -0.3828
  786TIP3    H223850   4.009   6.740  15.380  1.3651 -1.2296  0.9343
  787TIP3   OH223851   4.334   4.321   0.843 -0.6313 -0.4546  0.5031
  787TIP3    H123852   4.358   4.267   0.918 -3.1656 -1.9177  0.3190
  787TIP3    H223853   4.296   4.400   0.882  3.3753  1.4552  0.7759
  788TIP3   OH223854   5.535   4.294   4.392 -0.0018 -0.4358  0.6570
  788TIP3    H123855   5.558   4.257   4.307 -0.1746  2.0060 -0.5065
  788TIP3    H223856   5.440   4.282   4.398 -0.0655 -0.1531  0.2577
  789TIP3   OH223857   2.882   0.695  12.915 -0.2740  0.5361 -0.0745
  789TIP3    H123858   2.975   0.676  12.904 -0.2228  0.1367  0.9480
  789TIP3    H223859   2.838   0.632  12.858  0.0373 -0.1481  0.4354
  790TIP3   OH223860   2.316   2.454   0.156  0.0396 -0.3329 -0.0325
  790TIP3    H123861   2.255   2.488   0.091  1.2715 -1.1738 -1.6732
  790TIP3    H223862   2.321   2.360   0.138 -0.2513 -0.7334  1.8451
  791TIP3   OH223863   0.060   0.159  12.676  0.5881  0.4760 -0.0758
  791TIP3    H123864   0.020   0.234  12.720  1.3821  0.3014  0.9516
  791TIP3    H223865   0.004   0.085  12.700 -0.9018  0.9112 -2.0692
  792TIP3   OH223866   5.484   4.088   0.207  0.4919  0.1743  0.2053
  792TIP3    H123867   5.405   4.061   0.254 -0.0780  1.7275  0.1686
  792TIP3    H223868   5.467   4.066   0.116 -1.1746  3.2618 -0.2763
  793TIP3   OH223869   0.691   4.309  16.834  0.3451  0.5058  0.5766
  793TIP3    H123870   0.641   4.269  16.763  1.2836  1.3753 -0.5950
  793TIP3    H223871   0.670   4.256  16.911 -1.5187  0.1986 -0.1091
  794TIP3   OH223872   5.010   5.918   0.029 -0.3293 -0.3342 -0.1644
  794TIP3    H123873   4.991   5.858  -0.043  1.2079 -0.5678 -0.3932
  794TIP3    H223874   5.013   6.004  -0.011 -1.4027 -0.2339 -0.0349
  795TIP3   OH223875   5.842   4.126  13.432 -0.6751 -0.0510  0.3370
  795TIP3    H123876   5.863   4.045  13.386 -1.8821 -0.2574  0.1182
  795TIP3    H223877   5.906   4.190  13.400 -0.1486 -0.7445 -0.0004
  796TIP3   OH223878   1.791   4.699   1.969 -0.9733  0.0104  0.2012
  796TIP3    H123879   1.765   4.768   2.030 -0.0398  1.7812 -1.3558
  796TIP3    H223880   1.808   4.744   1.886 -0.4604 -2.0984 -0.9048
  797TIP3   OH223881   2.580   2.318  12.314  0.1176  0.3013 -0.5706
  797TIP3    H123882   2.627   2.274  12.385  0.4859  1.2649 -0.2199
  797TIP3    H223883   2.507   2.259  12.294  1.8148 -1.5379 -1.5706
  798TIP3   OH223884   4.499   0.823  16.118 -0.3380  0.1462  0.0854
  798TIP3    H123885   4.510   0.731  16.093 -1.5420  0.3274 -1.1967
  798TIP3    H223886   4.511   0.824  16.212 -2.2612 -1.6625  0.3957
  799TIP3   OH223887   0.716   6.383  16.502  0.0551 -0.5405  0.6736
  799TIP3    H123888   0.625   6.377  16.533  0.7987 -0.7539  2.8936
  799TIP3    H223889   0.714   6.345  16.414 -2.0105 -0.5173  0.6864
  800TIP3   OH223890   4.022   1.329  12.150  0.4032  0.4242 -0.2301
  800TIP3    H123891   3.976   1.370  12.077 -0.9637 -1.2713 -0.3667
  800TIP3    H223892   3.953   1.283  12.199  1.9291 -2.2723 -0.5054
  801TIP3   OH223893   2.614   1.187  11.307 -0.3140 -0.2469 -0.3855
  801TIP3    H123894   2.597   1.109  11.360 -1.3714  0.6307  0.5677
  801TIP3    H223895   2.528   1.228  11.296  0.0762  0.2226 -1.7838
  802TIP3   OH223896   1.342   4.459   4.203  0.2589 -0.0410  0.6842
  802TIP3    H123897   1.295   4.513   4.266  0.8414 -0.2866  1.3401
  802TIP3    H223898   1.419   4.428   4.251  2.5373  2.4925 -1.1583
  803TIP3   OH223899   4.945   0.249   2.265 -0.2037 -0.3842  0.4320
  803TIP3    H123900   4.888   0.314   2.224 -0.3641 -0.9156 -0.1878
  803TIP3    H223901   4.894   0.168   2.266  0.9918 -1.1787 -1.2966
  804TIP3   OH223902   2.727   2.029   0.039  0.3620 -0.2158  0.9436
  804TIP3    H123903   2.809   1.979   0.039  0.9978  0.8020 -1.7109
  804TIP3    H223904   2.668   1.976   0.094  2.3162 -1.7088  1.6828
  805TIP3   OH223905   0.579   5.361   1.473  0.2324 -0.3409  0.6732
  805TIP3    H123906   0.494   5.377   1.516 -0.9055  0.2680 -1.7110
  805TIP3    H223907   0.591   5.436   1.415  0.5162 -2.3101 -1.9060
  806TIP3   OH223908   2.139   0.374   1.498 -0.5075 -0.3216  0.4539
  806TIP3    H123909   2.095   0.295   1.527  2.3260 -2.0052  0.4067
  806TIP3    H223910   2.110   0.386   1.407 -1.3326 -1.0064  0.6232
  807TIP3   OH223911   6.746   3.035   3.387 -0.6072  0.1565  0.2019
  807TIP3    H123912   6.828   2.987   3.374 -0.8240 -0.2548  0.3250
  807TIP3    H223913   6.737   3.088   3.308  1.0881  2.1979  1.3269
  808TIP3   OH223914   5.991   1.672   4.587  0.2168  0.6248 -0.1706
  808TIP3    H123915   6.038   1.752   4.564 -2.4765  1.6310 -2.4417
  808TIP3    H223916   6.025   1.606   4.527 -0.7979  1.2118 -1.4217
  809TIP3   OH223917   6.277   2.967  10.392  0.4788  0.7177  0.2023
  809TIP3    H123918   6.337   3.034  10.361  0.3031  1.9110  2.3353
  809TIP3    H223919   6.323   2.884  10.376  1.4863  1.4500 -0.7299
  810TIP3   OH223920   0.556   6.729   1.508 -0.0816 -0.0963 -0.4316
  810TIP3    H123921   0.637   6.699   1.466 -0.5690  0.3829 -1.7437
  810TIP3    H223922   0.510   6.777   1.439 -0.8800  0.7484  0.6845
  811TIP3   OH223923   5.335   3.052   3.307 -0.3454  0.0744 -0.5384
  811TIP3    H123924   5.411   3.043   3.249  0.5028  0.6356  0.4658
  811TIP3    H223925   5.368   3.103   3.381 -1.2132 -1.2940  0.8050
  812TIP3   OH223926   0.596   5.927  17.270 -0.0406 -0.1825  0.1055
  812TIP3    H123927   0.509   5.966  17.259 -0.0874 -0.6661 -1.3198
  812TIP3    H223928   0.655   6.002  17.269 -0.2872  0.0113 -0.8567
  813TIP3   OH223929   6.067   6.590  14.108 -0.0967 -0.1068 -0.1711
  813TIP3    H123930   6.152   6.633  14.092 -0.4571  0.8661  0.4947
  813TIP3    H223931   6.013   6.615  14.033 -0.3189  0.6345  0.2361
  814TIP3   OH223932   5.073   3.222   3.355  0.0567  0.7200 -0.3041
  814TIP3    H123933   5.121   3.294   3.396 -1.5235  1.0710  1.0033
  814TIP3    H223934   5.095   3.228   3.262  2.8265  0.6042  0.2934
  815TIP3   OH223935   1.751   2.092  15.423 -0.3007  0.1826 -0.0511
  815TIP3    H123936   1.757   1.997  15.422 -0.0778  0.1835  0.8388
  815TIP3    H223937   1.657   2.110  15.434 -0.2071  0.0499  1.0220
  816TIP3   OH223938   0.095   4.001  16.339  0.0459  1.0903  0.1898
  816TIP3    H123939   0.009   3.991  16.298  0.1248 -1.3448  0.5026
  816TIP3    H223940   0.149   4.044  16.273 -0.3220 -1.1270 -1.6333
  817TIP3   OH223941   0.960   3.656  16.434  0.1847 -0.0853  0.1676
  817TIP3    H123942   0.876   3.615  16.453 -0.9001  0.7012 -2.7244
  817TIP3    H223943   1.023   3.605  16.485 -1.7286 -2.1974  0.5156
  818TIP3   OH223944   1.916   2.086   5.134  0.2077  0.0073 -0.0661
  818TIP3    H123945   1.822   2.081   5.115 -0.2432  0.1931  1.9562
  818TIP3    H223946   1.949   2.000   5.111 -0.5686 -0.2287 -0.3303
  819TIP3   OH223947   5.560   5.306  11.158  0.1908 -0.4779 -0.8101
  819TIP3    H123948   5.631   5.258  11.114 -0.3090 -1.6061 -0.4194
  819TIP3    H223949   5.507   5.237  11.198 -0.1566  0.4625  0.3509
  820TIP3   OH223950   3.923   5.553   6.126  0.0573  0.1374 -0.3767
  820TIP3    H123951   3.840   5.599   6.138  0.5029  2.0954 -4.2436
  820TIP3    H223952   3.974   5.575   6.204 -2.6989 -0.4281  1.6606
  821TIP3   OH223953   1.257   2.171  10.524 -0.0535  0.1902 -0.0626
  821TIP3    H123954   1.259   2.264  10.547  0.1441  0.0274  0.6011
  821TIP3    H223955   1.167   2.154  10.497 -0.2439  0.4364  0.4097
  822TIP3   OH223956   0.982   0.592   1.707  0.3835  0.7586  0.0504
  822TIP3    H123957   0.997   0.555   1.794 -0.5341  0.7101  0.1894
  822TIP3    H223958   0.887   0.603   1.701  0.1032 -2.0587 -2.0985
  823TIP3   OH223959   0.070   1.610  13.584 -0.6700  0.0495  0.0985
  823TIP3    H123960  -0.016   1.649  13.595 -0.5757  0.7998 -1.7569
  823TIP3    H223961   0.061   1.551  13.509  0.8354  1.3951 -1.1869
  824TIP3   OH223962   1.254   5.098   0.132 -0.1893  0.0346 -0.3059
  824TIP3    H123963   1.314   5.024   0.144  2.8358  2.5113  0.3749
  824TIP3    H223964   1.214   5.110   0.219  1.1629  0.7227  0.2313
  825TIP3   OH223965   6.370   0.147  12.210  0.0476  0.0609  0.2549
  825TIP3    H123966   6.421   0.187  12.281 -0.5643 -0.8475  1.2334
  825TIP3    H223967   6.355   0.057  12.239 -0.0169 -0.3881 -1.1523
  826TIP3   OH223968   3.240   2.595   0.697  0.2912 -0.1805  0.4639
  826TIP3    H123969   3.266   2.533   0.765 -1.7653 -0.2483  1.2222
  826TIP3    H223970   3.322   2.621   0.655  1.4489 -1.1649  2.0811
  827TIP3   OH223971   1.622   3.871  14.269 -0.5094  0.5042  0.6230
  827TIP3    H123972   1.535   3.895  14.238 -0.8491 -0.3302  0.8958
  827TIP3    H223973   1.682   3.909  14.205 -1.0628  1.3181  0.5859
  828TIP3   OH223974   3.890   6.402   4.085 -0.5632  0.0018  0.1334
  828TIP3    H123975   3.962   6.448   4.043 -0.5323 -0.4946 -0.3775
  828TIP3    H223976   3.924   6.314   4.103 -1.0267 -0.2286 -0.0866
  829TIP3   OH223977   6.735   3.640  11.347  0.0495 -0.3854  0.0470
  829TIP3    H123978   6.677   3.636  11.271  2.0603 -3.5907 -1.4637
  829TIP3    H223979   6.795   3.712  11.328  0.0905 -0.7144 -1.1052
  830TIP3   OH223980   1.473   6.482   6.088  0.1367  0.2296 -0.7966
  830TIP3    H123981   1.474   6.511   6.179 -3.4118  0.3513 -0.7151
  830TIP3    H223982   1.565   6.482   6.062  1.2687 -0.0102  2.8302
  831TIP3   OH223983   3.119   5.646   0.930  0.1483 -0.6169 -0.1619
  831TIP3    H123984   3.048   5.679   0.875  0.4695  0.1504 -0.1293
  831TIP3    H223985   3.184   5.717   0.929 -0.3682 -0.0644  2.2006
  832TIP3   OH223986   3.712   6.251   6.577  0.1530 -0.4990 -0.0897
  832TIP3    H123987   3.739   6.260   6.486  0.2381  1.0338  0.0689
  832TIP3    H223988   3.680   6.338   6.601 -0.4444 -1.0515  1.1572
  833TIP3   OH223989   6.106   5.676   2.300  0.6512  0.4826  0.4378
  833TIP3    H123990   6.201   5.679   2.300  0.6484  1.7213 -1.3208
  833TIP3    H223991   6.079   5.756   2.347  0.5120  1.5061 -1.3221
  834TIP3   OH223992   0.165   2.718  10.423  0.5347 -0.1018 -0.2706
  834TIP3    H123993   0.194   2.692  10.511  0.6841 -0.7913 -0.5218
  834TIP3    H223994   0.072   2.697  10.422  0.5200 -0.0384 -0.2612
  835TIP3   OH223995   3.725   3.966   2.108 -0.1109  0.5557  0.1131
  835TIP3    H123996   3.727   4.011   2.193  0.0060  0.7299  0.0166
  835TIP3    H223997   3.815   3.939   2.093 -0.2349  0.0202  0.3147
  836TIP3   OH223998   2.001   6.323  14.287 -0.2254 -0.3452  0.6664
  836TIP3    H123999   1.943   6.339  14.213 -2.2269  3.4049  2.9117
  836TIP3    H224000   2.062   6.396  14.286  0.3838 -0.8114  2.1430
  837TIP3   OH224001   2.896   6.229   1.859 -0.1352 -0.8144 -0.4478
  837TIP3    H124002   2.888   6.145   1.813 -0.2016 -1.5606  0.8987
  837TIP3    H224003   2.864   6.210   1.947  2.4068 -0.0572  0.6672
  838TIP3   OH224004   0.870   0.970   5.674  0.2810 -0.1903  0.2623
  838TIP3    H124005   0.933   1.002   5.739  0.2957  1.7230 -0.6391
  838TIP3    H224006   0.788   1.016   5.696 -0.1799 -0.8741 -0.0080
  839TIP3   OH224007   1.730   1.884   1.605  0.3298 -0.1581  0.3865
  839TIP3    H124008   1.761   1.947   1.669  2.4583 -1.8350  1.0675
  839TIP3    H224009   1.707   1.937   1.528  1.5875  1.4701  1.1080
  840TIP3   OH224010   4.700   3.144   0.290 -0.1318  0.3761  0.3881
  840TIP3    H124011   4.690   3.084   0.216 -0.2732  1.2162 -0.2751
  840TIP3    H224012   4.790   3.175   0.284  0.4641 -1.0509  1.7144
  841TIP3   OH224013   1.781   5.955   2.979 -0.6795  0.2269 -0.2960
  841TIP3    H124014   1.831   5.910   2.911 -0.0262  0.6086 -0.0654
  841TIP3    H224015   1.690   5.932   2.960 -0.3104 -1.7350  0.2035
  842TIP3   OH224016   2.546   2.689  14.790 -0.4517  0.2351  0.2269
  842TIP3    H124017   2.599   2.763  14.759  1.5357 -0.7375  1.2321
  842TIP3    H224018   2.533   2.635  14.712  0.0510  0.4785 -0.0297
  843TIP3   OH224019   2.465   6.313  11.775  0.5794  0.4911  0.0794
  843TIP3    H124020   2.534   6.254  11.743 -0.2465 -0.6405  0.3452
  843TIP3    H224021   2.386   6.259  11.775  0.3668  0.7275  3.1557
  844TIP3   OH224022   3.929   5.869  15.902 -0.0731 -0.1085 -0.1584
  844TIP3    H124023   3.900   5.785  15.938 -1.5528  0.2860 -0.4020
  844TIP3    H224024   3.867   5.888  15.832  0.5533  0.9579 -0.4391
  845TIP3   OH224025   3.258   5.853  14.786  0.6269  0.5476 -0.0401
  845TIP3    H124026   3.226   5.824  14.872 -0.1624 -0.1351 -0.5610
  845TIP3    H224027   3.354   5.854  14.796  0.5040  1.3729  1.1263
  846TIP3   OH224028   4.589   0.987  14.406  0.2038 -0.9155  0.1335
  846TIP3    H124029   4.546   1.065  14.372 -0.3258  0.0421  2.9242
  846TIP3    H224030   4.682   1.000  14.384 -0.0222 -0.0180 -0.3112
  847TIP3   OH224031   6.644   1.532   0.966 -0.3260  0.0356 -0.2306
  847TIP3    H124032   6.716   1.472   0.947 -1.2095 -0.6838 -1.4128
  847TIP3    H224033   6.630   1.581   0.885 -2.0681 -0.8258 -0.4867
  848TIP3   OH224034   4.981   6.516   5.405 -0.2571  0.0821 -0.5338
  848TIP3    H124035   4.909   6.510   5.342 -0.8388  0.7722  0.0598
  848TIP3    H224036   4.940   6.548   5.485  1.0288  2.2551 -0.7142
  849TIP3   OH224037   1.307   1.635   1.492 -0.0784  0.2133  0.3839
  849TIP3    H124038   1.231   1.606   1.441 -1.6262  1.7211  1.7412
  849TIP3    H224039   1.273   1.644   1.581  1.5916  1.3850  0.9192
  850TIP3   OH224040   6.693   2.213   5.620  0.3164  0.4612  0.4370
  850TIP3    H124041   6.639   2.135   5.615  0.7393  0.2301 -0.7389
  850TIP3    H224042   6.643   2.274   5.675  0.5670 -1.0810  2.4169
  851TIP3   OH224043   5.211   6.010  13.145  0.0989  0.4956 -0.6534
  851TIP3    H124044   5.206   5.915  13.148  2.0141  0.4102  1.8918
  851TIP3    H224045   5.123   6.038  13.120 -0.8458 -1.8871 -0.1585
  852TIP3   OH224046   5.135   0.474   3.947  0.0001  0.3093  0.1054
  852TIP3    H124047   5.150   0.456   3.854  2.9970  2.3566  0.1152
  852TIP3    H224048   5.201   0.422   3.993 -0.0598  0.9537  0.9419
  853TIP3   OH224049   3.632   6.253  13.980 -0.6481 -0.6503 -0.2015
  853TIP3    H124050   3.689   6.307  14.034 -1.5440  0.4925 -0.3737
  853TIP3    H224051   3.620   6.304  13.899 -1.0402 -1.3679 -0.6034
  854TIP3   OH224052   5.201   4.135  17.156 -0.0545 -0.4980 -0.6856
  854TIP3    H124053   5.109   4.146  17.131 -0.4760  1.5729  1.5825
  854TIP3    H224054   5.198   4.085  17.237  0.8438 -0.5044 -0.6483
  855TIP3   OH224055   1.022   1.863  14.056 -0.1583  0.0490 -0.5051
  855TIP3    H124056   1.018   1.885  13.963  0.4271  1.2258 -0.2596
  855TIP3    H224057   1.103   1.903  14.087 -1.4849  1.6303  1.0307
  856TIP3   OH224058   2.521   5.707  15.998 -0.3716  0.3537  0.1446
  856TIP3    H124059   2.515   5.793  16.039 -1.3426  0.3498  0.0071
  856TIP3    H224060   2.603   5.670  16.032  0.6044  1.7505 -0.6160
  857TIP3   OH224061   3.365   5.354   4.250 -0.3687 -0.0149 -0.7161
  857TIP3    H124062   3.338   5.285   4.311  0.2310 -0.1564 -0.6022
  857TIP3    H224063   3.313   5.430   4.275 -0.4854 -0.2129 -0.3439
  858TIP3   OH224064   3.191   6.710  16.361 -0.2237 -0.0616 -0.1990
  858TIP3    H124065   3.145   6.745  16.437 -1.0724  0.8571 -1.1123
  858TIP3    H224066   3.218   6.788  16.312  0.4971 -0.6393 -0.7232
  859TIP3   OH224067   2.093   2.011  15.416 -1.0711  0.0684  0.1936
  859TIP3    H124068   2.039   2.087  15.398 -1.0077 -0.2141 -1.1924
  859TIP3    H224069   2.052   1.939  15.368  0.6877 -0.0837 -1.1609
  860TIP3   OH224070   3.187   1.014  12.567 -0.0339 -0.2403 -0.7473
  860TIP3    H124071   3.259   0.951  12.564 -0.1900 -0.3712 -1.9813
  860TIP3    H224072   3.162   1.017  12.659  0.0092 -1.9369 -0.6635
  861TIP3   OH224073   3.014   6.067   0.529 -0.0165  0.3603  0.0432
  861TIP3    H124074   2.996   6.115   0.448 -1.3215 -0.5139 -0.2087
  861TIP3    H224075   3.054   5.985   0.500 -1.8994 -0.6298  0.1527
  862TIP3   OH224076   2.757   6.615  11.592  0.1732 -0.7558 -0.1477
  862TIP3    H124077   2.819   6.543  11.606 -0.8904 -1.6099  0.3430
  862TIP3    H224078   2.686   6.596  11.653 -0.5846  0.1847 -0.7280
  863TIP3   OH224079   6.041   5.953   2.170 -0.2406 -0.1524  0.2518
  863TIP3    H124080   6.015   5.946   2.261 -0.6622  1.7467  0.3049
  863TIP3    H224081   6.136   5.940   2.171 -0.3913 -1.2179  0.8145
  864TIP3   OH224082   3.170   3.033  12.335 -0.4505 -0.3354 -0.2946
  864TIP3    H124083   3.099   3.096  12.347  0.5078  1.4690 -3.4389
  864TIP3    H224084   3.130   2.948  12.355 -2.9480  0.8238 -0.1042
  865TIP3   OH224085   6.265   1.877  11.369  0.5324  0.7813 -0.1971
  865TIP3    H124086   6.361   1.887  11.370  0.5194  0.8707  1.5032
  865TIP3    H224087   6.243   1.853  11.459 -1.0985  1.1726 -0.4859
  866TIP3   OH224088   1.903   5.824   5.638  0.7123  0.3401  0.6907
  866TIP3    H124089   1.945   5.856   5.558  0.0171 -0.5476 -0.0368
  866TIP3    H224090   1.811   5.846   5.627  0.6372  0.3643  1.3287
  867TIP3   OH224091   0.875   1.618   5.445 -0.3696 -0.1101  0.4744
  867TIP3    H124092   0.834   1.698   5.477 -0.5767 -0.0514  0.0697
  867TIP3    H224093   0.802   1.561   5.422 -0.2217 -0.5960  1.2030
  868TIP3   OH224094   3.330   0.535  14.181  0.7291  0.1533 -0.0901
  868TIP3    H124095   3.237   0.556  14.192  0.7282 -0.4497  1.0582
  868TIP3    H224096   3.366   0.611  14.134  0.2468  1.6729  1.9600
  869TIP3   OH224097   3.591   5.826  15.147 -0.6854 -0.4018  0.3490
  869TIP3    H124098   3.652   5.872  15.205 -1.5106 -0.0696  0.9519
  869TIP3    H224099   3.537   5.895  15.109 -1.8292 -0.8651  1.1367
  870TIP3   OH224100   4.676   3.142   1.182  0.0375  0.0018  0.1974
  870TIP3    H124101   4.755   3.129   1.131  0.0063 -2.0804  0.6377
  870TIP3    H224102   4.643   3.054   1.198 -1.6998  0.7824  1.0704
  871TIP3   OH224103   1.353   1.849  13.869 -0.5443 -0.1999 -0.1592
  871TIP3    H124104   1.360   1.813  13.781 -1.1014  2.0293 -1.1444
  871TIP3    H224105   1.366   1.774  13.927  0.6708 -1.5290 -2.1224
  872TIP3   OH224106   6.353   6.438   3.419 -0.2209  0.2236 -0.7988
  872TIP3    H124107   6.371   6.446   3.513  0.1681 -0.7453 -0.7812
  872TIP3    H224108   6.401   6.511   3.379 -2.0485  1.8722 -0.0669
  873TIP3   OH224109   2.492   6.030  11.519  0.3554 -0.1040 -0.0432
  873TIP3    H124110   2.546   6.077  11.583  1.3212 -1.5367  0.2229
  873TIP3    H224111   2.551   5.966  11.481 -1.4031 -2.4291  1.0124
  874TIP3   OH224112   2.597   1.081   1.826 -0.1897 -0.0063  0.4540
  874TIP3    H124113   2.570   1.098   1.917 -1.0827  2.1042 -0.1682
  874TIP3    H224114   2.543   1.141   1.774  1.4054 -0.0946 -1.3405
  875TIP3   OH224115   2.261   5.136  12.835 -0.2810 -0.9625 -0.5513
  875TIP3    H124116   2.310   5.218  12.847 -1.2410 -0.1071 -2.3122
  875TIP3    H224117   2.186   5.144  12.894  0.1871 -1.0639  0.0715
  876TIP3   OH224118   5.709   5.544   0.031 -0.1503  0.1551 -0.1133
  876TIP3    H124119   5.707   5.488  -0.046 -1.8878 -0.1876  0.1545
  876TIP3    H224120   5.770   5.614   0.008 -1.2742  0.5132 -2.1233
  877TIP3   OH224121   6.726   2.879   5.967 -0.0183 -0.1967 -0.0351
  877TIP3    H124122   6.780   2.819   6.018 -0.0767 -0.7678 -0.6361
  877TIP3    H224123   6.737   2.964   6.010  2.0911 -0.1233 -0.6710
  878TIP3   OH224124   5.587   3.234   1.295  0.3658  0.3015 -0.2444
  878TIP3    H124125   5.502   3.272   1.272  0.4162  1.3193  1.2238
  878TIP3    H224126   5.577   3.206   1.386  0.9228 -1.5538 -0.7409
  879TIP3   OH224127   5.359   3.363  12.717  0.4537 -0.4063 -0.2354
  879TIP3    H124128   5.302   3.346  12.642  0.6894  0.4890 -0.6288
  879TIP3    H224129   5.336   3.296  12.781 -0.1936 -0.7867 -0.8653
  880TIP3   OH224130   3.476   0.578  16.831  0.3862  0.2045  0.3203
  880TIP3    H124131   3.383   0.558  16.841  0.1425  0.6568 -0.9317
  880TIP3    H224132   3.520   0.493  16.830  0.0629  0.0113  1.5206
  881TIP3   OH224133   1.604   2.762   2.028 -0.1442 -0.5790  0.5890
  881TIP3    H124134   1.564   2.836   1.983 -0.0617 -0.3749  0.8534
  881TIP3    H224135   1.632   2.797   2.113 -0.5130 -1.0177  0.8950
  882TIP3   OH224136   5.187   0.869  11.539  0.0952  0.2183  0.3298
  882TIP3    H124137   5.281   0.851  11.546 -0.1614 -1.0624  0.6545
  882TIP3    H224138   5.149   0.823  11.614 -0.6766  1.6003  0.7988
  883TIP3   OH224139   1.021   5.791  14.192  0.4038 -0.6495 -0.0044
  883TIP3    H124140   1.078   5.729  14.238  0.3833 -0.0293  0.8617
  883TIP3    H224141   0.939   5.742  14.179  0.1888 -0.6183  1.1860
  884TIP3   OH224142   2.580   4.397   0.905  0.2250 -0.2368  0.6538
  884TIP3    H124143   2.640   4.322   0.898  1.8985  1.0608  0.5947
  884TIP3    H224144   2.493   4.361   0.889  0.8505 -2.4016  1.9649
  885TIP3   OH224145   4.643   4.603  11.877  0.5544 -0.4857  0.4665
  885TIP3    H124146   4.680   4.556  11.802 -0.7325 -1.9005  0.6741
  885TIP3    H224147   4.711   4.598  11.944  1.2135 -0.3280 -0.1894
  886TIP3   OH224148   0.624   4.227   4.569 -0.1559  0.2177 -0.0545
  886TIP3    H124149   0.539   4.269   4.555 -0.1576  0.0104 -0.6590
  886TIP3    H224150   0.678   4.256   4.496 -0.2382 -1.0466 -0.6307
  887TIP3   OH224151   1.723   1.767   4.901  0.2600  0.0178 -0.2171
  887TIP3    H124152   1.706   1.857   4.928  1.4532  0.0553  0.4347
  887TIP3    H224153   1.674   1.713   4.963 -1.4699  0.2276 -1.3621
  888TIP3   OH224154   5.792   6.258   4.879  0.4706 -0.1843 -1.0630
  888TIP3    H124155   5.874   6.226   4.841  0.3332 -1.6426 -0.2009
  888TIP3    H224156   5.802   6.243   4.974 -1.3217 -1.7431 -1.0777
  889TIP3   OH224157   4.538   0.063  10.320  0.0967  0.0487 -0.2830
  889TIP3    H124158   4.585  -0.000  10.265  1.2408  0.3814  0.2980
  889TIP3    H224159   4.476   0.009  10.370  0.0142 -0.4259 -0.8899
  890TIP3   OH224160   0.296   4.003  11.594  0.7014  0.4498  0.9468
  890TIP3    H124161   0.234   3.967  11.658 -0.3870 -2.6916 -1.7306
  890TIP3    H224162   0.242   4.053  11.534  1.3089  0.9389  0.8032
  891TIP3   OH224163   4.899   0.758  15.007  1.0406 -0.1831 -0.1760
  891TIP3    H124164   4.865   0.752  15.097 -0.0036  1.3102 -0.4481
  891TIP3    H224165   4.820   0.754  14.952  1.4908  0.9773 -0.9264
  892TIP3   OH224166   1.716   1.938  10.614 -0.3705  0.7116 -0.0348
  892TIP3    H124167   1.751   2.026  10.603 -1.0810  1.0328  0.2335
  892TIP3    H224168   1.634   1.939  10.564 -0.3695  0.2025 -0.0427
  893TIP3   OH224169   0.775   3.600   4.381  0.2719 -0.0826  0.5117
  893TIP3    H124170   0.774   3.658   4.457 -0.7554  0.3675  0.1717
  893TIP3    H224171   0.854   3.547   4.392  1.0131  1.1036  1.0265
  894TIP3   OH224172   3.532   2.783  10.729  0.4183 -0.4260  0.0511
  894TIP3    H124173   3.490   2.732  10.798 -0.8097  0.8136  0.2319
  894TIP3    H224174   3.556   2.866  10.771 -1.0456  0.6554 -1.1722
  895TIP3   OH224175   4.894   4.606  13.797 -0.2431 -0.1974  0.6755
  895TIP3    H124176   4.877   4.597  13.891  0.2200  0.5468  0.8386
  895TIP3    H224177   4.878   4.699  13.778 -2.7072 -0.8227 -0.4855
  896TIP3   OH224178   3.304   5.409  16.729  0.5316 -0.0386 -0.4395
  896TIP3    H124179   3.384   5.450  16.697  1.5753 -1.1950  0.6218
  896TIP3    H224180   3.284   5.454  16.811  0.7389 -0.4910 -0.1345
  897TIP3   OH224181   0.233   0.407   5.230  0.3890 -0.4554 -0.3170
  897TIP3    H124182   0.151   0.428   5.275 -0.1965 -0.3892 -1.4070
  897TIP3    H224183   0.236   0.312   5.230  1.6339 -0.4594  2.0761
  898TIP3   OH224184   3.813   4.811  15.525  0.1884  0.2191  0.1199
  898TIP3    H124185   3.877   4.741  15.538 -0.3064 -0.3510 -0.5030
  898TIP3    H224186   3.817   4.829  15.431 -0.9971 -0.2249 -0.0112
  899TIP3   OH224187   2.621   0.414   5.687  0.4730 -0.1218  0.1990
  899TIP3    H124188   2.671   0.338   5.658  0.4204 -0.5182  1.1245
  899TIP3    H224189   2.612   0.402   5.782  0.0026  0.7618  0.2710
  900TIP3   OH224190   3.685   1.619   3.673 -0.1885  0.1296 -0.1273
  900TIP3    H124191   3.626   1.607   3.747  0.0412 -1.7717 -0.2173
  900TIP3    H224192   3.761   1.564   3.694 -0.1085 -0.3914 -1.7498
  901TIP3   OH224193   6.072   0.979  16.568 -0.3804 -0.0358 -0.3713
  901TIP3    H124194   6.057   0.895  16.526  0.0134  0.7121 -2.0361
  901TIP3    H224195   6.126   0.958  16.645 -1.2939 -1.4287 -0.0854
  902TIP3   OH224196   1.831   4.817   4.502 -0.3892 -0.3571 -0.2292
  902TIP3    H124197   1.867   4.767   4.576 -0.8810 -2.5939 -1.4477
  902TIP3    H224198   1.778   4.885   4.543  1.7190  0.3108  1.5100
  903TIP3   OH224199   2.095   3.923   5.619 -0.0616 -0.3617 -0.5352
  903TIP3    H124200   2.136   3.934   5.704  0.8740 -1.4264 -0.8340
  903TIP3    H224201   2.143   3.982   5.561 -0.1767 -0.2166 -0.4803
  904TIP3   OH224202   4.913   1.405   5.455 -0.2996  0.1644  0.0753
  904TIP3    H124203   4.884   1.314   5.464 -1.9156  0.8069  1.6273
  904TIP3    H224204   4.891   1.429   5.366  1.8643 -1.5315 -0.9688
  905TIP3   OH224205   4.451   3.289   5.809 -0.3497  0.1826 -0.0715
  905TIP3    H124206   4.406   3.210   5.839  0.9297 -0.3146  0.5383
  905TIP3    H224207   4.503   3.318   5.884  0.8139  0.4194 -0.9633
  906TIP3   OH224208   2.357   1.217  13.784  0.0978 -0.5070 -0.0401
  906TIP3    H124209   2.301   1.143  13.806  0.4353 -0.7823 -0.1054
  906TIP3    H224210   2.378   1.257  13.868  0.8281 -1.1517  0.0899
  907TIP3   OH224211   1.363   6.573  13.660  0.5226 -0.0542 -0.6089
  907TIP3    H124212   1.307   6.649  13.646 -0.0515  0.1265  2.2944
  907TIP3    H224213   1.321   6.524  13.731  3.6066 -0.3021  1.1845
  908TIP3   OH224214   5.868   5.982  12.651  0.6196 -0.0654 -0.5858
  908TIP3    H124215   5.832   5.973  12.563  0.9152 -1.0293 -0.6146
  908TIP3    H224216   5.882   5.892  12.680  2.3547  0.2902 -0.3043
  909TIP3   OH224217   6.190   5.184   1.899 -0.2865 -0.5039 -0.2727
  909TIP3    H124218   6.159   5.142   1.980 -0.8961  1.6236  0.6250
  909TIP3    H224219   6.256   5.246   1.929 -0.6810  0.4653 -1.4115
  910TIP3   OH224220   3.805   0.390  12.783  0.0701 -0.3665  0.0157
  910TIP3    H124221   3.710   0.381  12.795 -0.2222  2.7523  0.5261
  910TIP3    H224222   3.835   0.435  12.862  1.9070 -0.8879 -0.3599
  911TIP3   OH224223   1.512   0.408   6.204 -0.3370 -0.7640  0.3607
  911TIP3    H124224   1.586   0.385   6.260  0.0957 -1.0919 -0.3344
  911TIP3    H224225   1.447   0.340   6.222 -0.2340 -0.8203  0.5271
  912TIP3   OH224226   5.560   2.758  11.840  0.8805  0.0857  0.0141
  912TIP3    H124227   5.512   2.834  11.871  0.8091  0.5600 -1.2195
  912TIP3    H224228   5.581   2.708  11.919 -0.0027  0.8348  0.7243
  913TIP3   OH224229   0.612   6.502   5.413  0.3656  0.0114 -0.3222
  913TIP3    H124230   0.524   6.494   5.374  0.0904 -0.8812  0.4472
  913TIP3    H224231   0.632   6.595   5.409 -0.1089  0.0750 -1.6108
  914TIP3   OH224232   3.753   3.090  11.845 -0.3046  0.7904 -0.2077
  914TIP3    H124233   3.788   3.001  11.848 -0.8203  0.5720 -0.4644
  914TIP3    H224234   3.705   3.094  11.762 -0.8309  1.0961  0.1037
  915TIP3   OH224235   6.549   1.547  14.241 -0.3550  0.1779  0.1420
  915TIP3    H124236   6.600   1.494  14.301 -0.9390 -2.6083 -1.7181
  915TIP3    H224237   6.471   1.494  14.222 -1.0624  1.7818 -1.5926
  916TIP3   OH224238   4.735   3.702   3.425  0.0319 -0.1625  0.0563
  916TIP3    H124239   4.739   3.607   3.414  1.1265  0.0068 -1.1406
  916TIP3    H224240   4.803   3.735   3.367  0.9248  1.2519  1.8711
  917TIP3   OH224241   4.629   4.387   1.159 -0.2460 -0.9795  0.4570
  917TIP3    H124242   4.670   4.358   1.241  0.7920  2.2346  1.1339
  917TIP3    H224243   4.670   4.472   1.140 -3.1282  0.0423 -1.4581
  918TIP3   OH224244   3.565   1.410  15.778 -0.6890  0.1627 -0.1559
  918TIP3    H124245   3.498   1.397  15.711 -1.2227 -1.7494  0.7343
  918TIP3    H224246   3.516   1.425  15.859 -0.0400  0.4420  0.1908
  919TIP3   OH224247   5.760   2.081   0.796 -0.2658 -0.7520 -0.2201
  919TIP3    H124248   5.784   2.163   0.839 -1.3750 -0.1195 -0.7844
  919TIP3    H224249   5.774   2.014   0.862  1.7778 -0.2688 -0.1074
  920TIP3   OH224250   6.587   5.186   1.923  0.2481 -0.5359  0.7316
  920TIP3    H124251   6.614   5.144   2.005 -0.6825 -2.7947 -0.0788
  920TIP3    H224252   6.655   5.164   1.860 -1.0292 -2.2348 -0.1019
  921TIP3   OH224253   6.600   3.246  11.993  0.2451 -0.1700 -0.2629
  921TIP3    H124254   6.543   3.170  12.008  1.8540 -1.4454 -0.4056
  921TIP3    H224255   6.569   3.284  11.911  0.2441 -1.4692 -0.8784
  922TIP3   OH224256   4.646   0.560  12.333  0.2084  0.8251 -0.6406
  922TIP3    H124257   4.714   0.561  12.266 -0.0124 -1.4971 -0.9529
  922TIP3    H224258   4.602   0.475  12.321 -1.4748  1.4635  0.7970
  923TIP3   OH224259   5.468   2.295   5.577 -0.2308  0.3935  0.0473
  923TIP3    H124260   5.535   2.270   5.513 -2.1096 -0.6833 -1.5786
  923TIP3    H224261   5.423   2.213   5.598  0.0944  0.7989  2.4848
  924TIP3   OH224262   2.819   6.268  10.575  0.3072 -0.0959 -0.5862
  924TIP3    H124263   2.897   6.309  10.538  0.2861  1.6400  1.2247
  924TIP3    H224264   2.762   6.341  10.598 -1.5348 -1.3127 -1.1367
  925TIP3   OH224265   4.581   0.030  14.368  0.1634  0.1780  0.0948
  925TIP3    H124266   4.494   0.032  14.328 -0.0586 -3.4342  0.2154
  925TIP3    H224267   4.567  -0.009  14.454  2.0944 -2.0176 -0.5313
  926TIP3   OH224268   2.301   6.268   2.083 -0.0519 -0.2315  0.0422
  926TIP3    H124269   2.327   6.224   2.164  1.3236  0.2332 -0.1383
  926TIP3    H224270   2.382   6.305   2.048 -0.5380 -0.8618 -1.8324
  927TIP3   OH224271   6.253   3.032  16.866 -0.2303 -0.3286 -0.0039
  927TIP3    H124272   6.319   3.043  16.934  0.7441  2.2515 -1.2855
  927TIP3    H224273   6.295   2.974  16.802 -0.7432 -1.8823  1.0303
  928TIP3   OH224274   0.513   0.811   0.683 -0.5469  0.3664 -0.1745
  928TIP3    H124275   0.488   0.904   0.689 -2.3239 -0.0682 -0.5458
  928TIP3    H224276   0.440   0.764   0.723 -0.4199 -0.9672 -1.4742
  929TIP3   OH224277   3.411   0.390   0.760 -0.1668  0.7212 -0.3795
  929TIP3    H124278   3.468   0.315   0.775  0.5426  1.3643  0.2173
  929TIP3    H224279   3.458   0.445   0.698 -1.4861 -0.1731 -2.2283
  930TIP3   OH224280   6.715   2.967   1.379  0.0778  0.2844 -0.5492
  930TIP3    H124281   6.637   3.022   1.389 -0.3455 -0.3610 -0.3445
  930TIP3    H224282   6.742   2.946   1.468  0.5429  0.5793 -0.6165
  931TIP3   OH224283   4.120   0.668   5.174 -0.2723  0.0462  0.6471
  931TIP3    H124284   4.207   0.699   5.148  0.6770  0.3577  3.9841
  931TIP3    H224285   4.136   0.581   5.212 -1.5020 -0.1730  0.6818
  932TIP3   OH224286   1.072   6.140  14.729 -0.2449  0.3456  0.2166
  932TIP3    H124287   1.103   6.101  14.647  0.6559  0.5244  0.4742
  932TIP3    H224288   1.046   6.229  14.704 -2.2310 -0.3558 -0.3505
  933TIP3   OH224289   1.662   4.181  12.311  0.5403 -0.1682  0.1418
  933TIP3    H124290   1.640   4.271  12.288  1.7221  0.5485  1.6967
  933TIP3    H224291   1.581   4.132  12.295 -0.1509  1.1854 -0.6208
  934TIP3   OH224292   4.440   3.530   1.121 -0.2261 -0.3020  0.1492
  934TIP3    H124293   4.492   3.603   1.086  1.2948 -1.3848  0.1382
  934TIP3    H224294   4.438   3.545   1.215 -1.8447  0.9902 -0.0599
  935TIP3   OH224295   4.395   5.108   1.315 -0.2261 -0.3101 -0.2318
  935TIP3    H124296   4.371   5.098   1.223 -0.5515 -1.7272 -0.0076
  935TIP3    H224297   4.312   5.112   1.361 -0.0664 -1.7926  0.2098
  936TIP3   OH224298   5.623   5.907  17.032  0.0375  0.0812  0.1294
  936TIP3    H124299   5.623   5.853  17.111  1.0737 -1.7246 -1.0777
  936TIP3    H224300   5.711   5.944  17.028  0.2272 -0.4339 -0.5661
  937TIP3   OH224301   3.266   4.505   4.588 -0.4654  0.1517  0.3635
  937TIP3    H124302   3.358   4.515   4.564 -0.8066 -1.4121 -1.6597
  937TIP3    H224303   3.219   4.565   4.530 -1.0300 -1.6131 -1.0382
  938TIP3   OH224304   1.225   0.073   4.202  0.2285 -0.1195  0.4254
  938TIP3    H124305   1.204   0.145   4.261  2.7020  2.1020 -1.3012
  938TIP3    H224306   1.164   0.083   4.129  0.1509 -0.1653  0.4838
  939TIP3   OH224307   6.735   5.158  13.057 -0.3435  0.6106  0.6744
  939TIP3    H124308   6.697   5.158  12.969  0.5057 -2.4079  0.2377
  939TIP3    H224309   6.661   5.169  13.116 -1.3081 -0.3383 -0.3296
  940TIP3   OH224310   0.380   1.927   4.697 -0.3619 -0.6604  0.2967
  940TIP3    H124311   0.314   1.883   4.750  0.8413 -0.1739  2.2761
  940TIP3    H224312   0.436   1.856   4.664 -0.0168 -0.8286  1.2352
  941TIP3   OH224313   0.011   6.572   2.357 -1.0874 -0.8184  0.2210
  941TIP3    H124314   0.013   6.480   2.382 -1.4302 -0.9932 -0.3901
  941TIP3    H224315   0.100   6.591   2.328 -1.0631 -1.0132  0.1655
  942TIP3   OH224316   6.216   4.892  12.362 -0.2855 -0.3177  0.2855
  942TIP3    H124317   6.172   4.915  12.280 -0.2346 -1.0982  0.0425
  942TIP3    H224318   6.245   4.802  12.350  0.0588 -0.3089  1.0202
  943TIP3   OH224319   1.555   1.318   2.915 -0.1464  0.4437 -0.7155
  943TIP3    H124320   1.524   1.343   2.828  2.6918  0.4604 -1.7868
  943TIP3    H224321   1.607   1.239   2.900  1.3006  1.0774  0.7995
  944TIP3   OH224322   0.128   0.407   2.719  0.1787 -0.0258  0.3436
  944TIP3    H124323   0.203   0.421   2.660  1.6167  0.4116  2.2141
  944TIP3    H224324   0.058   0.376   2.662  0.5932  3.2756 -2.0960
  945TIP3   OH224325   2.591   5.034  14.895  0.1706  0.0462 -0.0660
  945TIP3    H124326   2.680   5.062  14.915  0.6091 -1.0976 -0.3974
  945TIP3    H224327   2.575   4.959  14.953 -0.5182  0.1438 -0.1171
  946TIP3   OH224328   4.602   1.729   0.719  0.3848  0.0657  0.1826
  946TIP3    H124329   4.620   1.806   0.664 -1.2884  0.7732  0.5929
  946TIP3    H224330   4.675   1.670   0.701  0.2468  0.5668 -2.2936
  947TIP3   OH224331   1.739   4.755  15.728 -0.4834 -0.0775  0.1095
  947TIP3    H124332   1.814   4.814  15.725 -0.3784 -0.3021 -2.1254
  947TIP3    H224333   1.728   4.736  15.821  1.8447  0.4243  0.5208
  948TIP3   OH224334   0.910   0.877   1.233  0.2119  0.0335 -0.1448
  948TIP3    H124335   0.985   0.935   1.218 -0.8626  1.4011 -0.3793
  948TIP3    H224336   0.931   0.798   1.183  0.6644  1.1291 -1.7397
  949TIP3   OH224337   4.394   1.064  15.153 -0.1340  0.4912  0.0371
  949TIP3    H124338   4.319   1.122  15.156 -0.9159 -0.5465  1.1231
  949TIP3    H224339   4.438   1.076  15.237 -0.7837 -1.0960  0.6200
  950TIP3   OH224340   6.704   5.776  14.627  0.1285  0.0750  0.4092
  950TIP3    H124341   6.642   5.848  14.615 -1.1616 -0.9177  0.9692
  950TIP3    H224342   6.788   5.819  14.646 -0.4310  1.4320 -0.1599
  951TIP3   OH224343   2.804   5.663   3.068 -0.0301 -0.0112  0.6468
  951TIP3    H124344   2.732   5.671   3.131  0.7749 -0.2973  1.6113
  951TIP3    H224345   2.838   5.752   3.058 -0.5621  0.1383  0.1272
  952TIP3   OH224346   1.623   0.097  15.688  0.2315 -0.3759  0.2090
  952TIP3    H124347   1.711   0.119  15.718  0.4857  1.3567 -1.6224
  952TIP3    H224348   1.637   0.041  15.612 -0.2152  0.2938 -0.3756
  953TIP3   OH224349   2.196   6.357  14.936 -0.8547  0.5949  0.2253
  953TIP3    H124350   2.279   6.371  14.890 -2.4355  0.0074 -2.9502
  953TIP3    H224351   2.147   6.438  14.921 -1.3931  0.3974  0.9105
  954TIP3   OH224352   3.182   1.530   4.346  0.3584  0.1162 -0.0525
  954TIP3    H124353   3.204   1.454   4.400  0.6282 -0.1839 -0.5698
  954TIP3    H224354   3.209   1.606   4.397 -0.3062 -0.1204  0.6563
  955TIP3   OH224355   6.384   0.322   2.971 -0.0590  0.1784  0.2850
  955TIP3    H124356   6.298   0.312   2.929  0.5161  1.6209 -1.2559
  955TIP3    H224357   6.416   0.407   2.942  1.1423  0.4369  2.2681
  956TIP3   OH224358   1.567   1.387  13.407 -0.1738  0.1509  0.0065
  956TIP3    H124359   1.488   1.396  13.354 -0.1057  1.3239  0.0873
  956TIP3    H224360   1.592   1.477  13.429  1.5960 -0.1547 -0.6436
  957TIP3   OH224361   5.530   5.802  15.150 -0.4161  0.0600 -0.4308
  957TIP3    H124362   5.518   5.832  15.241 -2.5058  0.9350 -0.9631
  957TIP3    H224363   5.603   5.741  15.155 -2.3985 -2.2395  2.3881
  958TIP3   OH224364   2.086   0.988   0.255  0.8586  0.0958  0.2301
  958TIP3    H124365   1.997   0.960   0.234  0.9178  0.6584 -0.8213
  958TIP3    H224366   2.133   0.982   0.171  1.4804  1.0023  0.5067
  959TIP3   OH224367   0.486   0.859   5.907 -0.2288 -0.1210 -0.1099
  959TIP3    H124368   0.575   0.880   5.933 -0.0092 -0.9602 -0.1831
  959TIP3    H224369   0.449   0.943   5.878  1.1887 -0.1248 -2.0038
  960TIP3   OH224370   5.134   2.816   0.618  1.0620 -0.0252  0.2089
  960TIP3    H124371   5.099   2.781   0.537  2.2838  0.4425 -0.5294
  960TIP3    H224372   5.088   2.899   0.631 -0.1846 -0.7876  0.7716
  961TIP3   OH224373   5.345   0.054   1.949  0.3470  0.4723 -0.3907
  961TIP3    H124374   5.292  -0.022   1.928  0.1668  0.2649  0.7989
  961TIP3    H224375   5.426   0.041   1.900  0.4368 -0.6350  0.0403
  962TIP3   OH224376   2.178   0.302   0.278  0.1373 -0.1927  0.4472
  962TIP3    H124377   2.256   0.355   0.293 -0.8905  1.3384  0.4446
  962TIP3    H224378   2.114   0.335   0.341 -1.4720  0.5724 -1.5550
  963TIP3   OH224379   0.172   3.463   6.751  0.1593 -0.2138 -0.7430
  963TIP3    H124380   0.188   3.518   6.674  0.0155 -0.3258 -0.8514
  963TIP3    H224381   0.258   3.456   6.793  0.2246 -0.0969 -0.8573
  964TIP3   OH224382   1.708   1.789  12.821 -0.1500 -0.1604  0.1937
  964TIP3    H124383   1.618   1.764  12.797 -0.8281  1.1681  1.2702
  964TIP3    H224384   1.700   1.879  12.851  1.7792  0.4231 -0.9296
  965TIP3   OH224385   2.463   3.907  11.851 -0.9739  1.0057 -0.2417
  965TIP3    H124386   2.370   3.884  11.854 -1.2182  1.7905 -1.5024
  965TIP3    H224387   2.492   3.877  11.765  0.9957 -3.0996  1.7080
  966TIP3   OH224388   0.602   2.762   4.624 -0.0531  0.5245 -0.0804
  966TIP3    H124389   0.528   2.730   4.677 -1.0793  2.5546 -0.2617
  966TIP3    H224390   0.566   2.769   4.535  0.5804  0.8202 -0.3089
  967TIP3   OH224391   0.353   5.519  16.052  0.1526  0.0165  0.2920
  967TIP3    H124392   0.397   5.452  16.105  1.4094  0.4841 -0.1552
  967TIP3    H224393   0.420   5.550  15.991 -0.2516  2.1155  0.8778
  968TIP3   OH224394   5.638   3.785  16.217  0.2266 -0.0564 -0.3587
  968TIP3    H124395   5.560   3.823  16.258  0.2527  0.2029 -0.5448
  968TIP3    H224396   5.705   3.791  16.285  0.1617 -0.0039 -0.2991
  969TIP3   OH224397   4.422   2.718   5.534 -0.1032 -0.6369 -0.4101
  969TIP3    H124398   4.380   2.766   5.463  0.2908  1.5009  0.7347
  969TIP3    H224399   4.349   2.676   5.581 -0.7272  0.8329 -0.0240
  970TIP3   OH224400   0.813   1.136   0.304 -0.4159  0.6861 -0.3874
  970TIP3    H124401   0.826   1.120   0.398 -1.1199 -0.9493 -0.5502
  970TIP3    H224402   0.799   1.049   0.267  2.2577  1.0764 -2.4110
  971TIP3   OH224403   1.590   5.537  15.363  0.1358 -0.0414 -0.6953
  971TIP3    H124404   1.499   5.514  15.384  0.1334  0.9040  0.3701
  971TIP3    H224405   1.590   5.632  15.361  1.4819  0.0268  1.1215
  972TIP3   OH224406   0.865   4.963  16.655  0.0671  0.1274  0.3700
  972TIP3    H124407   0.920   4.887  16.634  0.5753  0.3296  0.9802
  972TIP3    H224408   0.865   5.015  16.574  0.4728 -0.0524  0.2534
  973TIP3   OH224409   5.302   6.669  16.111 -0.5860 -0.0812 -0.0674
  973TIP3    H124410   5.315   6.663  16.206 -1.1861  1.2198  0.1079
  973TIP3    H224411   5.217   6.628  16.096 -0.8266  0.3770  0.0490
  974TIP3   OH224412   2.163   2.812   5.117 -0.2621  0.1477 -0.2150
  974TIP3    H124413   2.151   2.825   5.023  0.6760 -0.4050 -0.4130
  974TIP3    H224414   2.229   2.743   5.124  0.4263  0.9113  0.8582
  975TIP3   OH224415   4.320   3.300   3.272 -0.3688 -0.3434  0.4282
  975TIP3    H124416   4.390   3.235   3.267 -0.6969 -1.0508  3.7589
  975TIP3    H224417   4.356   3.370   3.325 -1.6799 -0.0527  0.9571
  976TIP3   OH224418   2.396   1.427  13.980  0.0956 -0.3159  0.7969
  976TIP3    H124419   2.382   1.511  13.935  1.4759 -0.8325 -0.6447
  976TIP3    H224420   2.438   1.451  14.063  1.7304  0.3574 -0.1876
  977TIP3   OH224421   6.521   3.128  13.474  0.0626 -0.2147  0.4244
  977TIP3    H124422   6.549   3.103  13.386 -0.2988 -2.3167  0.8702
  977TIP3    H224423   6.426   3.123  13.472  0.0662 -0.7087  1.0287
  978TIP3   OH224424   6.492   3.400  14.262  0.0728 -0.1049 -0.6726
  978TIP3    H124425   6.417   3.434  14.311  1.4937  1.9158  0.1493
  978TIP3    H224426   6.569   3.440  14.303  1.6549 -2.4165 -1.2594
  979TIP3   OH224427   2.887   4.761  11.089  0.3488  0.2542  0.3213
  979TIP3    H124428   2.878   4.751  10.995  4.0261 -1.2918  0.0300
  979TIP3    H224429   2.812   4.713  11.126 -1.2629  1.1137 -1.7862
  980TIP3   OH224430   6.508   4.512  14.765  0.4804 -0.5582 -0.1205
  980TIP3    H124431   6.418   4.516  14.731  1.3116  1.3603 -2.2112
  980TIP3    H224432   6.561   4.490  14.689  1.9518 -0.1323  0.7636
  981TIP3   OH224433   5.056   4.344   2.045 -0.1098 -0.4615  0.0968
  981TIP3    H124434   5.006   4.424   2.028  0.3196  0.1932  1.7760
  981TIP3    H224435   5.120   4.340   1.974  0.3583  1.1150  0.4095
  982TIP3   OH224436   1.579   0.589   5.970  0.1285  0.2342  0.1738
  982TIP3    H124437   1.491   0.624   5.954 -0.0424 -0.6398 -0.8326
  982TIP3    H224438   1.577   0.563   6.062 -0.9825 -0.6329 -0.0763
  983TIP3   OH224439   4.567   2.647  12.664  0.3619 -0.3866  0.1277
  983TIP3    H124440   4.526   2.671  12.747 -0.2624 -1.1463  0.0471
  983TIP3    H224441   4.646   2.600  12.689  1.8817  2.1376  0.2927
  984TIP3   OH224442   1.073   1.898   2.952 -0.3919 -0.5399  0.0211
  984TIP3    H124443   1.165   1.902   2.925 -0.4466 -1.5689 -0.3295
  984TIP3    H224444   1.048   1.807   2.937 -0.9442 -0.6983  1.8154
  985TIP3   OH224445   2.338   2.387  14.379  0.2795  0.1573  0.3852
  985TIP3    H124446   2.340   2.456  14.312  2.5054  0.2417  0.5122
  985TIP3    H224447   2.265   2.331  14.352 -1.8222  2.7098  0.4862
  986TIP3   OH224448   1.945   6.226  12.351 -0.0846  0.8357 -0.2551
  986TIP3    H124449   1.993   6.192  12.426  0.9055  1.0983 -0.7533
  986TIP3    H224450   1.853   6.204  12.368 -0.0212  1.8822  1.5609
  987TIP3   OH224451   5.065   6.569  12.674  0.0622  0.0544 -0.0763
  987TIP3    H124452   5.135   6.504  12.667  0.4023  0.3045  1.0250
  987TIP3    H224453   5.070   6.600  12.764 -0.3559  1.3247 -0.4912
  988TIP3   OH224454   6.252   3.770  13.749 -0.3841 -0.4801 -0.2549
  988TIP3    H124455   6.163   3.804  13.738 -1.0603 -1.8256  0.8073
  988TIP3    H224456   6.250   3.727  13.835  1.4253 -0.1306 -0.0192
  989TIP3   OH224457   3.413   0.595   3.147  0.1364  0.3125 -0.0070
  989TIP3    H124458   3.375   0.538   3.080  1.8090  0.3063 -1.0000
  989TIP3    H224459   3.341   0.651   3.176 -0.9843 -0.7618 -0.6662
  990TIP3   OH224460   5.294   4.057   5.376 -0.3934 -1.1955 -0.4486
  990TIP3    H124461   5.204   4.030   5.355 -0.1974 -1.3290 -1.1450
  990TIP3    H224462   5.345   4.027   5.301  0.0257  0.0288 -0.6514
  991TIP3   OH224463   2.121   1.071  14.439  0.1016  0.6094  1.0096
  991TIP3    H124464   2.028   1.051  14.443  0.0173  1.2931  2.7620
  991TIP3    H224465   2.162   0.993  14.400 -1.1320  0.1485  0.6327
  992TIP3   OH224466   5.875   5.390  11.324  0.5451 -0.1863 -0.3793
  992TIP3    H124467   5.962   5.353  11.338  0.8604 -0.5532 -3.0836
  992TIP3    H224468   5.816   5.316  11.332  0.7171 -0.3778 -0.8290
  993TIP3   OH224469   5.491   5.198  15.016 -0.3776 -0.3679  0.5042
  993TIP3    H124470   5.406   5.176  15.055 -1.0083  0.5232 -0.3490
  993TIP3    H224471   5.503   5.290  15.038 -0.1973 -0.1731 -0.4296
  994TIP3   OH224472   6.227   3.003  15.006 -0.3593 -0.1048  0.3206
  994TIP3    H124473   6.189   3.058  15.075  0.6990  0.0091  0.8189
  994TIP3    H224474   6.160   2.936  14.989 -0.1529 -0.8316  2.2740
  995TIP3   OH224475   2.826   3.029  13.150  0.1953  0.2136  0.8596
  995TIP3    H124476   2.910   3.034  13.197  0.2085  1.2819  0.7407
  995TIP3    H224477   2.828   2.944  13.106  2.1919  1.1457 -0.9318
  996TIP3   OH224478   0.530   5.775  16.646  0.0191  0.4725 -0.1043
  996TIP3    H124479   0.460   5.751  16.707  0.8239  2.0386  1.4740
  996TIP3    H224480   0.489   5.771  16.560 -1.3373 -1.0469  0.5824
  997TIP3   OH224481   0.200   1.061  17.265 -0.0135  0.6580 -0.0168
  997TIP3    H124482   0.200   1.155  17.283  0.7398  0.2438  2.3546
  997TIP3    H224483   0.135   1.025  17.326  1.9364 -0.7020  1.3241
  998TIP3   OH224484   2.842   4.326   0.173 -0.0644 -0.6158  0.1978
  998TIP3    H124485   2.751   4.355   0.180  0.3985  1.0694 -0.3921
  998TIP3    H224486   2.892   4.391   0.223  0.9189 -0.8685 -0.4289
  999TIP3   OH224487   2.134   4.956   3.024 -0.0830 -0.1797  0.3147
  999TIP3    H124488   2.066   4.954   3.091 -0.4045 -0.9723 -0.0302
  999TIP3    H224489   2.121   5.039   2.978 -2.0668 -1.2125 -1.0418
 1000TIP3   OH224490   3.005   3.025  11.597  0.4014 -0.0570 -0.4734
 1000TIP3    H124491   3.077   3.037  11.535  0.3614 -0.2735 -0.5589
 1000TIP3    H224492   2.956   2.950  11.564 -0.8413  1.1212 -1.3332
 1001TIP3   OH224493   1.292   4.779   6.004 -0.2601  0.0186 -0.2495
 1001TIP3    H124494   1.226   4.837   5.966  1.2252  0.7312 -1.8024
 1001TIP3    H224495   1.252   4.692   6.002 -2.9033  1.0347  3.0075
 1002TIP3   OH224496   0.340   0.904  14.348  0.3851  0.3358 -0.1370
 1002TIP3    H124497   0.260   0.935  14.307  0.0488  0.1116  0.3447
 1002TIP3    H224498   0.404   0.973  14.331  0.1567  0.4040 -0.7306
 1003TIP3   OH224499   3.968   2.289   2.170 -0.1470  0.6854  0.1728
 1003TIP3    H124500   3.936   2.275   2.081 -1.2155  2.5796  0.2504
 1003TIP3    H224501   3.953   2.381   2.188  0.0090  0.3230  2.3488
 1004TIP3   OH224502   5.783   5.952  16.758 -0.3651 -1.1651  0.2686
 1004TIP3    H124503   5.775   6.047  16.744  0.2072 -0.8861  1.7130
 1004TIP3    H224504   5.693   5.920  16.752 -0.3905 -0.8037 -1.9345
 1005TIP3   OH224505   0.470   0.643   4.154 -0.0773 -0.2202 -0.2142
 1005TIP3    H124506   0.447   0.586   4.228  0.6212  0.8524  0.8698
 1005TIP3    H224507   0.497   0.583   4.085 -0.9664 -1.2603  0.3248
 1006TIP3   OH224508   2.049   4.332   2.276 -0.0234  0.1754 -0.2767
 1006TIP3    H124509   2.017   4.352   2.188 -2.3519 -3.4072 -0.3537
 1006TIP3    H224510   2.115   4.265   2.263  0.8449  0.8474  0.6092
 1007TIP3   OH224511   6.778   5.110  15.266  0.3572 -0.3812 -0.0530
 1007TIP3    H124512   6.775   5.025  15.308  0.4782 -0.4967 -0.2780
 1007TIP3    H224513   6.870   5.121  15.241  0.0660 -0.8258 -1.3494
 1008TIP3   OH224514   2.668   5.903  13.623 -0.1267 -0.6161 -0.2661
 1008TIP3    H124515   2.743   5.910  13.682 -1.7117  1.1522  1.6377
 1008TIP3    H224516   2.688   5.961  13.550  0.0477  0.3890  0.5798
 1009TIP3   OH224517   2.572   2.256  16.165  0.2877 -0.3079  0.1355
 1009TIP3    H124518   2.590   2.315  16.239  0.2269  1.0429 -0.9016
 1009TIP3    H224519   2.554   2.171  16.206  0.6982  0.3087  1.6487
 1010TIP3   OH224520   6.381   1.409   1.007  0.1494 -0.1507 -0.2449
 1010TIP3    H124521   6.358   1.473   1.075 -1.5629 -0.2099 -0.7498
 1010TIP3    H224522   6.466   1.440   0.974  0.2924  0.7208  0.8881
 1011TIP3   OH224523   4.429   1.453  16.080  0.0097 -0.5377 -0.7046
 1011TIP3    H124524   4.336   1.430  16.086 -0.0740  0.3857  2.1564
 1011TIP3    H224525   4.445   1.510  16.155  2.5103  0.7223 -2.1332
 1012TIP3   OH224526   1.314   3.585   5.540  0.1894  0.1033 -1.0200
 1012TIP3    H124527   1.270   3.502   5.557  0.6235 -0.0217 -0.4768
 1012TIP3    H224528   1.264   3.650   5.589  1.3326 -0.2291  0.6562
 1013TIP3   OH224529   4.406   0.820   3.113  0.1205  0.2251  0.0759
 1013TIP3    H124530   4.378   0.876   3.040 -1.7918 -1.4533 -0.5268
 1013TIP3    H224531   4.355   0.851   3.188 -0.1354  0.0125 -0.0081
 1014TIP3   OH224532   6.021   2.808  15.011 -0.1414  0.0647  0.0337
 1014TIP3    H124533   5.981   2.845  15.090  0.3269 -1.0304  0.7863
 1014TIP3    H224534   5.951   2.758  14.969 -0.0838 -0.2797  0.3478
 1015TIP3   OH224535   3.520   1.603   3.924 -0.4784 -0.5458  0.2003
 1015TIP3    H124536   3.517   1.628   4.016  0.4091  0.3538 -0.0149
 1015TIP3    H224537   3.506   1.508   3.926  2.5213 -1.0365  1.5200
 1016TIP3   OH224538   2.035   5.721   2.157  0.5651  0.1599  0.3318
 1016TIP3    H124539   2.107   5.783   2.155  0.2291  0.5302 -0.3441
 1016TIP3    H224540   2.061   5.651   2.097  1.5199 -1.0235  2.0459
 1017TIP3   OH224541   0.115   2.001  14.897 -0.2502  0.0803 -0.1106
 1017TIP3    H124542   0.157   2.062  14.957 -0.1344 -0.1228  0.0184
 1017TIP3    H224543   0.188   1.960  14.850 -0.2374 -0.9929  0.8140
 1018TIP3   OH224544   5.924   1.179  13.932 -0.1067 -0.0099 -0.0060
 1018TIP3    H124545   5.868   1.234  13.988  1.9982 -0.7876  2.9708
 1018TIP3    H224546   5.878   1.096  13.928  0.4332 -0.4262  1.8621
 1019TIP3   OH224547   2.041   4.786  10.987 -0.2113  0.4639 -0.4351
 1019TIP3    H124548   1.958   4.821  11.018 -0.0728  1.1339 -0.8215
 1019TIP3    H224549   2.019   4.698  10.955 -1.0973  1.2410 -2.0448
 1020TIP3   OH224550   0.249   6.340   2.331 -0.0036 -1.0387  0.0175
 1020TIP3    H124551   0.192   6.301   2.266 -1.5962 -0.6357  1.1336
 1020TIP3    H224552   0.250   6.277   2.404  0.4002 -0.7087  0.3058
 1021TIP3   OH224553   2.954   3.951  15.681  0.6501 -0.6461  0.3893
 1021TIP3    H124554   3.008   4.006  15.625  2.2904 -2.9064 -0.3334
 1021TIP3    H224555   2.873   3.937  15.631  0.8831 -0.2175 -0.1094
 1022TIP3   OH224556   3.366   2.385   6.278  0.3870  0.8626 -0.5213
 1022TIP3    H124557   3.374   2.312   6.216  2.7551 -0.7011  1.5188
 1022TIP3    H224558   3.449   2.432   6.270  0.7822  0.5553  1.5360
 1023TIP3   OH224559   4.267   4.292  11.798  0.4389  0.1301 -0.1757
 1023TIP3    H124560   4.340   4.318  11.855 -0.1357 -0.8214  1.0193
 1023TIP3    H224561   4.228   4.374  11.770  0.2167  0.6135  1.5014
 1024TIP3   OH224562   4.272   0.918   0.103  0.0361 -0.1728 -0.5391
 1024TIP3    H124563   4.210   0.988   0.118 -0.0460 -0.4075  0.2237
 1024TIP3    H224564   4.255   0.890   0.013 -1.5086 -0.7733 -0.0744
 1025TIP3   OH224565   5.121   3.894  12.175 -0.6558  0.5830  0.3213
 1025TIP3    H124566   5.134   3.969  12.116  0.7968  0.8527  0.9668
 1025TIP3    H224567   5.106   3.820  12.116 -0.9505  1.1602 -0.3471
 1026TIP3   OH224568   4.962   6.679   1.223  0.0348 -0.1622 -0.3961
 1026TIP3    H124569   5.050   6.685   1.261 -1.2235 -2.5903  3.0596
 1026TIP3    H224570   4.952   6.762   1.176  3.2014  1.2550  1.2327
 1027TIP3   OH224571   0.311   6.768  17.007 -0.2496  0.4963 -0.0009
 1027TIP3    H124572   0.359   6.718  17.073 -2.3420  0.8454  1.8636
 1027TIP3    H224573   0.358   6.851  17.002  0.6107  0.0245  0.2066
 1028TIP3   OH224574   0.597   5.641  15.914  0.0339  0.0266  1.0919
 1028TIP3    H124575   0.548   5.652  15.832 -1.9419 -0.3537  2.1755
 1028TIP3    H224576   0.640   5.725  15.927  2.5534 -0.7498 -1.6703
 1029TIP3   OH224577   3.102   4.262   4.671  0.1790  0.2566  0.4764
 1029TIP3    H124578   3.009   4.288   4.669 -0.4511 -1.9006 -2.3349
 1029TIP3    H224579   3.148   4.338   4.635 -0.2367  2.0766  3.6375
 1030TIP3   OH224580   1.816   2.477  12.482 -0.4517  0.4070  0.1435
 1030TIP3    H124581   1.863   2.421  12.419 -0.4975  0.2643  0.2359
 1030TIP3    H224582   1.803   2.559  12.435 -0.2017  0.4110  0.0809
 1031TIP3   OH224583   2.521   1.990  16.225  0.1764 -0.1792  0.0941
 1031TIP3    H124584   2.454   1.967  16.161 -0.4118  1.0220  0.2675
 1031TIP3    H224585   2.474   2.035  16.295  0.7543 -1.8101  1.5730
 1032TIP3   OH224586   5.707   0.044  16.297 -0.7643  0.0914 -0.1241
 1032TIP3    H124587   5.671   0.127  16.265  0.9033  2.2786  3.3557
 1032TIP3    H224588   5.630  -0.012  16.307 -2.0159  1.4063 -1.9112
 1033TIP3   OH224589   1.004   2.887   4.654  0.0850 -0.4349  0.6163
 1033TIP3    H124590   1.086   2.911   4.612  0.1091 -0.2629  0.7624
 1033TIP3    H224591   0.964   2.824   4.594 -0.0248  0.0453  0.1868
 1034TIP3   OH224592   2.416   6.181   0.110 -0.1519  0.4522  0.1564
 1034TIP3    H124593   2.437   6.090   0.127  0.6778  1.0126  2.2836
 1034TIP3    H224594   2.409   6.187   0.015  0.3201 -1.6929 -0.0331
 1035TIP3   OH224595   6.062   1.558  12.659 -0.9407 -0.1153 -0.5457
 1035TIP3    H124596   6.004   1.490  12.692  1.2972 -1.3368  1.0402
 1035TIP3    H224597   6.142   1.512  12.634 -0.3982  1.5893 -2.1170
 1036TIP3   OH224598   6.166   1.985  13.498  0.1966 -0.1264 -0.6163
 1036TIP3    H124599   6.239   1.946  13.545  0.6853  0.6136 -0.7469
 1036TIP3    H224600   6.092   1.926  13.515  0.4103  0.0120  0.9281
 1037TIP3   OH224601   2.378   2.837   0.367  0.3056 -0.0867  0.0717
 1037TIP3    H124602   2.296   2.839   0.417  0.0457  0.6880 -0.3709
 1037TIP3    H224603   2.350   2.850   0.276  0.8995 -0.0718 -0.1069
 1038TIP3   OH224604   1.897   0.413  11.873  0.1726 -0.1167  0.1778
 1038TIP3    H124605   1.992   0.427  11.870  0.1302  0.4949  1.2698
 1038TIP3    H224606   1.864   0.459  11.796  0.4819  2.2247  1.3756
 1039TIP3   OH224607   5.674   3.250  12.856  0.4593  0.2120  0.4235
 1039TIP3    H124608   5.646   3.315  12.921  2.5767  3.7031 -2.0124
 1039TIP3    H224609   5.665   3.295  12.772  1.4228 -2.9016 -1.3988
 1040TIP3   OH224610   6.393   0.259  13.727 -0.7193 -0.1099 -0.6567
 1040TIP3    H124611   6.446   0.331  13.694 -0.7935  0.1598 -0.1885
 1040TIP3    H224612   6.311   0.265  13.677 -1.4905  1.3278  0.7450
 1041TIP3   OH224613   0.225   6.692   4.496  0.1609 -0.3517  0.2276
 1041TIP3    H124614   0.190   6.728   4.414  0.3063 -0.0899  0.2801
 1041TIP3    H224615   0.149   6.688   4.555  0.2375  0.3128  0.3745
 1042TIP3   OH224616   0.908   6.458   2.482 -0.2368  0.6306  0.2086
 1042TIP3    H124617   0.983   6.509   2.513  1.4628 -1.7876  0.2491
 1042TIP3    H224618   0.843   6.466   2.552 -0.0168  2.7237  0.1956
 1043TIP3   OH224619   5.999   1.219  16.495  0.1510 -1.0114  0.5681
 1043TIP3    H124620   6.017   1.137  16.540 -1.2047 -0.3673  2.3269
 1043TIP3    H224621   5.910   1.241  16.520  0.2103  0.5948 -0.5491
 1044TIP3   OH224622   6.718   2.053  16.732 -0.0992  0.0063 -0.3148
 1044TIP3    H124623   6.623   2.044  16.739 -0.3363  2.5456  0.1912
 1044TIP3    H224624   6.733   2.079  16.641 -0.0683  1.4502  0.0932
 1045TIP3   OH224625   2.431   0.034   1.991 -0.3215  0.1952  0.3037
 1045TIP3    H124626   2.455   0.102   1.929 -1.0073 -0.4983 -0.7442
 1045TIP3    H224627   2.442   0.074   2.077 -0.8604  1.6640 -0.3045
 1046TIP3   OH224628   1.755   6.035   4.805  0.1372  0.5852 -0.1192
 1046TIP3    H124629   1.778   5.990   4.723  1.1761  1.1236 -0.1300
 1046TIP3    H224630   1.659   6.034   4.807  0.1322 -2.9473  0.6176
 1047TIP3   OH224631   1.682   6.152  10.459 -0.6357 -0.3720  0.2982
 1047TIP3    H124632   1.629   6.172  10.536 -0.4720  0.3166  0.2388
 1047TIP3    H224633   1.669   6.227  10.401  2.3672  1.0363  1.3411
 1048TIP3   OH224634   0.288   1.313  16.678  0.6852 -0.2281  0.3435
 1048TIP3    H124635   0.368   1.365  16.673 -0.0702  0.8300 -1.0061
 1048TIP3    H224636   0.319   1.222  16.671  1.6345  0.2350 -2.4542
 1049TIP3   OH224637   1.924   6.730  14.297 -0.1488 -0.2798  0.2559
 1049TIP3    H124638   1.951   6.768  14.213 -2.1249 -0.1503 -0.3566
 1049TIP3    H224639   1.966   6.644  14.299 -0.8093 -0.6680 -1.3177
 1050TIP3   OH224640   3.995   0.469   5.851 -0.0482  0.7633 -0.0485
 1050TIP3    H124641   3.963   0.559   5.866  1.1710  1.2530 -0.3224
 1050TIP3    H224642   3.992   0.428   5.937 -1.5044  0.7729 -0.0859
 1051TIP3   OH224643   3.732   5.476   6.348 -0.7094 -0.5579 -0.7322
 1051TIP3    H124644   3.814   5.515   6.379 -0.4761 -2.0403  0.5059
 1051TIP3    H224645   3.759   5.415   6.279 -0.8122 -0.8043 -0.5518
 1052TIP3   OH224646   4.142   0.876  12.392 -0.0236  0.5085  0.5775
 1052TIP3    H124647   4.143   0.791  12.436 -0.0226  0.7177  0.9867
 1052TIP3    H224648   4.050   0.890  12.369  0.0426  0.1967  0.1123
 1053TIP3   OH224649   5.214   0.750  16.158 -0.5672 -0.2443 -0.8549
 1053TIP3    H124650   5.192   0.830  16.111  1.0035  0.4054 -0.5155
 1053TIP3    H224651   5.169   0.758  16.243  0.2619  0.6698 -0.4966
 1054TIP3   OH224652   6.278   6.045  14.908  0.1149 -0.0668 -0.5098
 1054TIP3    H124653   6.212   6.106  14.939 -0.4666 -0.0125 -1.8161
 1054TIP3    H224654   6.231   5.963  14.896  0.8638 -0.7471  1.1079
 1055TIP3   OH224655   1.084   0.861   1.532 -0.8074 -0.2231 -0.3854
 1055TIP3    H124656   1.098   0.769   1.510  0.3293  0.1216 -1.1870
 1055TIP3    H224657   0.990   0.874   1.523 -1.0616 -1.4458  0.3295
 1056TIP3   OH224658   5.615   5.556  14.307  0.3287 -0.1715  0.1229
 1056TIP3    H124659   5.573   5.613  14.372 -0.1625 -1.5441  1.0543
 1056TIP3    H224660   5.544   5.529  14.249  0.6684  0.6298 -0.6664
 1057TIP3   OH224661   0.565   1.264   5.506  0.2845  0.3156  0.1798
 1057TIP3    H124662   0.484   1.290   5.551 -0.0036 -1.4425  0.7137
 1057TIP3    H224663   0.633   1.273   5.573  0.1465 -0.5228  0.4357
 1058TIP3   OH224664   0.615   3.540   5.517  0.1280 -0.2953  0.2385
 1058TIP3    H124665   0.544   3.573   5.461  0.5967 -1.5687 -1.1241
 1058TIP3    H224666   0.694   3.553   5.465  0.9012  0.9252  1.6839
 1059TIP3   OH224667   4.310   0.368   3.096 -0.4625  0.0247  0.2595
 1059TIP3    H124668   4.346   0.301   3.039 -1.8847  0.0342 -0.6853
 1059TIP3    H224669   4.386   0.419   3.125  0.1842  0.7787 -2.6251
 1060TIP3   OH224670   0.643   5.257  12.948 -0.0796  0.0927  0.1637
 1060TIP3    H124671   0.601   5.315  13.011 -1.3237  0.2697 -0.8191
 1060TIP3    H224672   0.737   5.276  12.957 -0.4809  2.4435 -0.3150
 1061TIP3   OH224673   4.124   5.135  16.714  0.5896  0.5480  0.3253
 1061TIP3    H124674   4.028   5.129  16.718  0.7474 -2.3647  0.2550
 1061TIP3    H224675   4.143   5.149  16.622  0.1874  2.5412  0.5266
 1062TIP3   OH224676   0.607   4.759  14.127 -0.2185  1.0090  0.1425
 1062TIP3    H124677   0.688   4.716  14.153 -0.0852  1.5962  0.7014
 1062TIP3    H224678   0.576   4.802  14.206 -1.9661 -0.6132  0.3866
 1063TIP3   OH224679   2.413   5.503  14.334 -0.1329  0.1231  0.4326
 1063TIP3    H124680   2.508   5.501  14.348 -0.1849 -2.4796  0.5502
 1063TIP3    H224681   2.402   5.489  14.240 -0.4256  0.1504  0.4626
 1064TIP3   OH224682   1.921   6.466  13.751 -0.3106 -0.1215  0.3127
 1064TIP3    H124683   1.844   6.409  13.755 -0.6855  0.4104  0.8420
 1064TIP3    H224684   1.898   6.540  13.807 -0.0778  0.8393 -0.8460
 1065TIP3   OH224685   3.896   3.560  11.184 -0.1705  0.0663  0.0980
 1065TIP3    H124686   3.906   3.522  11.096  0.1967 -1.0765  0.6190
 1065TIP3    H224687   3.805   3.541  11.208  0.1336 -0.8881  0.5303
 1066TIP3   OH224688   4.532   4.174  11.442  0.0118 -0.8255  0.1957
 1066TIP3    H124689   4.553   4.219  11.524 -0.5067  1.0970 -0.7051
 1066TIP3    H224690   4.617   4.147  11.407  0.3170 -0.6879  0.8238
 1067TIP3   OH224691   4.443   5.322   6.400 -0.3739  0.4132 -0.0277
 1067TIP3    H124692   4.491   5.243   6.425  1.5015  0.8655 -2.0272
 1067TIP3    H224693   4.390   5.295   6.325 -2.0262  0.3459  1.1339
 1068TIP3   OH224694   1.524   3.736  14.485  0.0595  0.5263 -0.3763
 1068TIP3    H124695   1.541   3.782  14.404 -1.9116  1.2273 -0.4100
 1068TIP3    H224696   1.502   3.804  14.548  2.3896  0.0664  0.9899
 1069TIP3   OH224697   4.252   0.817  11.300 -0.2490 -0.0125 -0.5952
 1069TIP3    H124698   4.294   0.802  11.215 -1.3286  1.3316 -1.3912
 1069TIP3    H224699   4.240   0.912  11.304 -0.7009 -0.1126  0.8357
 1070TIP3   OH224700   5.790   5.327  15.792  0.4874 -0.0213  0.0748
 1070TIP3    H124701   5.821   5.237  15.801  1.5399  0.2117 -1.0690
 1070TIP3    H224702   5.704   5.318  15.750  0.3312 -0.5167  0.4895
 1071TIP3   OH224703   1.161   2.886  13.125  0.2613 -0.0375  0.1861
 1071TIP3    H124704   1.216   2.923  13.057 -1.5988  0.2299 -1.2287
 1071TIP3    H224705   1.072   2.894  13.090 -0.5608 -1.5918  1.8534
 1072TIP3   OH224706   3.745   0.214  15.863 -0.5142 -0.4265  0.4859
 1072TIP3    H124707   3.673   0.240  15.806 -1.2576 -0.2970  1.4700
 1072TIP3    H224708   3.706   0.210  15.951  0.9665  0.8922  1.2349
 1073TIP3   OH224709   4.662   4.362   2.341  0.1850  0.0532  0.0275
 1073TIP3    H124710   4.734   4.400   2.392  0.6589  2.0958 -2.1077
 1073TIP3    H224711   4.705   4.314   2.270 -0.5315 -0.2820 -0.1860
 1074TIP3   OH224712   4.979   4.653   0.838  0.2616 -0.0799 -0.5149
 1074TIP3    H124713   4.964   4.748   0.838  1.3078  0.0921  0.6863
 1074TIP3    H224714   5.072   4.643   0.854  0.0046 -1.3325  0.2647
 1075TIP3   OH224715   1.096   1.362  11.609  0.2002  0.1840  0.0067
 1075TIP3    H124716   1.089   1.416  11.530 -0.4743 -0.8583 -0.6534
 1075TIP3    H224717   1.082   1.424  11.681 -2.9871  0.5318 -0.8180
 1076TIP3   OH224718   0.423   4.399  16.316 -0.3618 -0.1751  0.1071
 1076TIP3    H124719   0.366   4.386  16.240 -1.0739 -1.0681  0.7755
 1076TIP3    H224720   0.362   4.410  16.389  0.3132  1.0465  0.4937
 1077TIP3   OH224721   4.599   4.746  12.851 -0.6698 -0.7796  0.5565
 1077TIP3    H124722   4.624   4.828  12.808 -1.4756 -1.4091 -1.1670
 1077TIP3    H224723   4.550   4.773  12.929 -2.1459  0.4051 -0.7439
 1078TIP3   OH224724   6.596   4.451   5.604  0.4634  0.7114  0.3810
 1078TIP3    H124725   6.617   4.423   5.693  0.6642 -0.3856 -0.0114
 1078TIP3    H224726   6.559   4.373   5.561  1.3920  0.9159 -0.8285
 1079TIP3   OH224727   6.795   0.670  13.099 -0.3166 -0.6400 -0.7582
 1079TIP3    H124728   6.806   0.650  13.192 -2.3609 -0.0807 -0.3667
 1079TIP3    H224729   6.735   0.602  13.067 -1.2826  0.3870 -1.1641
 1080TIP3   OH224730   3.295   5.867   0.855 -0.7075  0.2117  0.2159
 1080TIP3    H124731   3.278   5.890   0.946 -0.2779  1.3062  0.0365
 1080TIP3    H224732   3.389   5.847   0.853 -0.3243  1.9231 -0.3060
 1081TIP3   OH224733   3.009   2.703   3.229 -0.0965 -0.2582 -0.0091
 1081TIP3    H124734   3.070   2.765   3.269  0.8014  1.3505 -3.6807
 1081TIP3    H224735   2.938   2.758   3.195 -0.3211 -1.4501 -1.4977
 1082TIP3   OH224736   4.389   2.825   4.099 -0.3064  0.6035 -0.1911
 1082TIP3    H124737   4.485   2.831   4.098 -0.1959 -0.7908  0.7914
 1082TIP3    H224738   4.367   2.778   4.019 -0.1380  0.5469 -0.2038
 1083TIP3   OH224739   1.273   4.323  14.314 -0.2874  0.2597 -0.1117
 1083TIP3    H124740   1.325   4.327  14.394 -1.5058 -0.4269  0.7271
 1083TIP3    H224741   1.214   4.398  14.319 -0.8221 -0.1627 -0.0372
 1084TIP3   OH224742   4.113   6.726  14.967 -0.0074 -0.1946 -0.5564
 1084TIP3    H124743   4.111   6.632  14.984 -1.1436 -0.0683  0.0213
 1084TIP3    H224744   4.082   6.735  14.877 -0.2344 -0.3439 -0.4932
 1085TIP3   OH224745   0.671   2.975   4.108 -0.3272  0.1438 -0.1481
 1085TIP3    H124746   0.645   2.891   4.144  0.3314  0.1487  0.3616
 1085TIP3    H224747   0.755   2.994   4.151  1.4234 -0.7279 -3.0495
 1086TIP3   OH224748   4.228   5.200  14.920 -0.1727 -0.2848 -0.3662
 1086TIP3    H124749   4.250   5.291  14.897 -3.3929  1.7036  3.7469
 1086TIP3    H224750   4.312   5.158  14.935  1.3055  2.8666  0.6180
 1087TIP3   OH224751   1.588   0.271   5.478  1.1792 -0.3791  0.8687
 1087TIP3    H124752   1.609   0.242   5.389 -0.4377 -1.2613  0.7543
 1087TIP3    H224753   1.627   0.359   5.485 -1.4125  1.0529 -1.8106
 1088TIP3   OH224754   3.478   2.576  11.337 -0.0834 -0.3425  0.7962
 1088TIP3    H124755   3.510   2.622  11.259  0.7497 -1.1971  0.6232
 1088TIP3    H224756   3.438   2.645  11.390  1.0356  0.5779  0.4839
 1089TIP3   OH224757   4.086   0.259   1.205 -0.2381  0.0841  0.0080
 1089TIP3    H124758   4.149   0.274   1.276 -1.1646  2.0781  0.4522
 1089TIP3    H224759   4.070   0.346   1.169 -2.9898 -0.3582  0.1029
 1090TIP3   OH224760   4.936   2.581   2.550 -0.0609  0.4624  0.4322
 1090TIP3    H124761   5.019   2.627   2.563 -0.2934  0.9256  0.2675
 1090TIP3    H224762   4.892   2.628   2.480 -0.9555  0.9069  1.2740
 1091TIP3   OH224763   6.598   0.163   4.882  0.2165 -0.0118 -0.0566
 1091TIP3    H124764   6.546   0.239   4.854  1.7337  1.1244  0.1132
 1091TIP3    H224765   6.578   0.152   4.975  0.4022  0.5433  0.0519
 1092TIP3   OH224766   2.253   1.588   1.206 -0.8394 -0.0827 -0.4164
 1092TIP3    H124767   2.243   1.647   1.280 -1.5158 -0.5039 -0.1733
 1092TIP3    H224768   2.235   1.501   1.241 -0.1433 -0.4040 -0.8428
 1093TIP3   OH224769   2.547   1.215  12.939  0.8677  0.4002  0.7840
 1093TIP3    H124770   2.588   1.295  12.904  0.5970 -0.0944 -0.6742
 1093TIP3    H224771   2.579   1.210  13.029 -0.0255  2.7771  1.2732
 1094TIP3   OH224772   5.736   0.228   6.043 -0.3251 -0.1991  0.7416
 1094TIP3    H124773   5.760   0.151   6.094  3.1574 -0.5245 -1.2098
 1094TIP3    H224774   5.741   0.301   6.105  0.1042 -1.0598  1.7376
 1095TIP3   OH224775   4.274   4.325   4.135  0.5512 -0.1591  0.1950
 1095TIP3    H124776   4.181   4.313   4.152  0.3763 -0.4315 -0.9432
 1095TIP3    H224777   4.313   4.337   4.222 -0.6121  0.4718  0.6341
 1096TIP3   OH224778   0.339   1.044  10.777  0.6725 -0.3769 -0.1746
 1096TIP3    H124779   0.334   0.948  10.775 -0.6154 -0.3077 -0.7300
 1096TIP3    H224780   0.419   1.063  10.827  1.0151 -1.7369 -0.1834
 1097TIP3   OH224781   2.308   5.062   4.512  0.2385 -0.1229 -0.0013
 1097TIP3    H124782   2.342   5.149   4.490 -0.1402  0.2260  0.7658
 1097TIP3    H224783   2.367   5.001   4.467  2.9523  0.4138  2.6333
 1098TIP3   OH224784   0.051   6.013  13.475  0.2435  0.2350  0.4402
 1098TIP3    H124785   0.067   5.972  13.560 -0.7871  0.2547  0.6429
 1098TIP3    H224786  -0.043   6.025  13.471  0.1472 -1.0182 -1.3129
 1099TIP3   OH224787   5.582   0.383   3.254  0.3425 -0.2511  0.5748
 1099TIP3    H124788   5.648   0.365   3.321  2.0514  1.3543 -0.6040
 1099TIP3    H224789   5.627   0.367   3.171 -0.3160  2.1334 -0.2933
 1100TIP3   OH224790   3.131   4.718   2.996  0.2833 -0.1625  0.0677
 1100TIP3    H124791   3.068   4.762   2.940  0.5261  0.4124  0.2301
 1100TIP3    H224792   3.118   4.625   2.981  0.0675 -0.0194 -0.6272
 1101TIP3   OH224793   5.870   2.697  10.926  0.1204  0.2273 -0.1193
 1101TIP3    H124794   5.886   2.697  10.831  2.1129 -1.0184  0.1866
 1101TIP3    H224795   5.888   2.786  10.953  0.2588  0.4091 -0.7970
 1102TIP3   OH224796   5.816   4.155  14.767 -0.3472  0.2765  0.4731
 1102TIP3    H124797   5.738   4.111  14.732 -0.2754  1.0219 -0.6573
 1102TIP3    H224798   5.880   4.086  14.777 -0.4788 -0.0108 -0.5916
 1103TIP3   OH224799   1.585   0.475  15.403  0.1212  0.4038  0.0865
 1103TIP3    H124800   1.590   0.462  15.308 -0.6976  0.2337  0.0677
 1103TIP3    H224801   1.578   0.570  15.413 -0.1532  0.3991 -0.0427
 1104TIP3   OH224802   3.051   5.305  10.966  0.0259  0.2883  0.4554
 1104TIP3    H124803   2.977   5.357  10.997 -2.1153 -1.1909 -2.0666
 1104TIP3    H224804   3.097   5.364  10.905 -0.0898  0.5989  0.6641
 1105TIP3   OH224805   1.153   5.328  15.347  0.4398  0.6742 -0.1525
 1105TIP3    H124806   1.155   5.310  15.252  3.0918 -0.8955  0.1360
 1105TIP3    H224807   1.088   5.266  15.381 -0.2415  0.9698 -0.8838
 1106TIP3   OH224808   0.990   2.602  11.663 -0.4904 -0.5074  0.4014
 1106TIP3    H124809   0.930   2.582  11.735 -1.3813  0.2462 -0.1194
 1106TIP3    H224810   1.019   2.692  11.681 -0.1671 -0.5689  0.1926
 1107TIP3   OH224811   1.846   5.789   0.931  0.0459  0.0078  0.2429
 1107TIP3    H124812   1.859   5.715   0.871 -0.6694 -0.1791  0.3087
 1107TIP3    H224813   1.932   5.830   0.937  0.1947 -0.1506 -0.6737
 1108TIP3   OH224814   0.006   4.238  12.994  0.0916  0.4235  0.4722
 1108TIP3    H124815   0.085   4.186  12.978  0.1424  0.6389  0.0180
 1108TIP3    H224816  -0.035   4.196  13.070  0.2306 -0.1655  0.2273
 1109TIP3   OH224817   6.022   2.590   2.388 -0.3812 -0.1271 -0.4728
 1109TIP3    H124818   6.063   2.661   2.339  2.5784 -1.4911 -0.0506
 1109TIP3    H224819   5.977   2.633   2.461  0.1151  1.4123 -1.0745
 1110TIP3   OH224820   5.012   6.254   1.109 -0.1763 -0.5333 -0.0171
 1110TIP3    H124821   4.966   6.173   1.131 -0.7437 -0.0165  0.7482
 1110TIP3    H224822   5.078   6.263   1.177 -0.2263 -0.2730 -0.0011
 1111TIP3   OH224823   2.950   5.687   1.880 -0.0115  0.3059  0.1042
 1111TIP3    H124824   2.904   5.698   1.797 -0.7086  2.1665  0.7202
 1111TIP3    H224825   3.003   5.766   1.889 -0.0402  0.1795  1.4946
 1112TIP3   OH224826   5.319   0.624   4.177 -0.0688 -0.0543 -0.7336
 1112TIP3    H124827   5.325   0.704   4.124  0.5589 -0.2340 -0.9374
 1112TIP3    H224828   5.335   0.553   4.116 -0.1581 -0.3113 -0.4593
 1113TIP3   OH224829   6.071   4.556  16.588  0.0263  0.2026 -0.3700
 1113TIP3    H124830   6.139   4.506  16.543  1.7250  2.2914 -0.2156
 1113TIP3    H224831   6.047   4.625  16.526 -1.7171 -0.3101 -0.2847
 1114TIP3   OH224832   1.145   3.686   5.723 -0.1104 -0.7657 -0.2159
 1114TIP3    H124833   1.061   3.644   5.742 -0.1500 -0.4091  0.4108
 1114TIP3    H224834   1.122   3.777   5.704  0.1276 -0.6922 -0.1490
 1115TIP3   OH224835   2.590   4.740   5.956  0.0853  0.3231  0.0253
 1115TIP3    H124836   2.608   4.807   5.890  1.9053  0.2790  0.4552
 1115TIP3    H224837   2.549   4.787   6.028  0.3958  0.7958 -0.1065
 1116TIP3   OH224838   4.940   3.945   3.650 -0.2371 -0.6628 -0.0227
 1116TIP3    H124839   5.016   4.000   3.669  0.0467 -0.6102 -1.2491
 1116TIP3    H224840   4.930   3.950   3.555 -3.2395  1.2701  0.3198
 1117TIP3   OH224841   6.472   3.592  13.412  0.3328 -0.4958  0.3887
 1117TIP3    H124842   6.422   3.525  13.459  0.1670 -1.3897 -1.0230
 1117TIP3    H224843   6.445   3.675  13.452  0.7020 -1.2866  2.3004
 1118TIP3   OH224844   3.787   1.488   2.042 -0.0233 -0.5400  0.1795
 1118TIP3    H124845   3.830   1.436   2.110  0.9457 -1.3950 -1.0507
 1118TIP3    H224846   3.833   1.572   2.043  1.8567 -1.5161 -1.2547
 1119TIP3   OH224847   5.806   1.107   5.948  0.2861 -0.1064 -0.2493
 1119TIP3    H124848   5.785   1.129   6.039 -0.4516 -1.1743 -0.1663
 1119TIP3    H224849   5.899   1.132   5.939  1.0082 -2.0772  1.4453
 1120TIP3   OH224850   3.211   1.551   4.724  0.3612 -0.0913 -0.1141
 1120TIP3    H124851   3.161   1.496   4.664  0.9729 -0.9425  0.1489
 1120TIP3    H224852   3.284   1.496   4.753  0.0006  0.2620  1.5269
 1121TIP3   OH224853   2.944   4.106  12.940  0.3384  0.1063  0.2203
 1121TIP3    H124854   2.906   4.138  13.021  1.9900  2.9743 -0.0669
 1121TIP3    H224855   2.870   4.098  12.880 -0.8764 -1.9364  1.9273
 1122TIP3   OH224856   1.782   6.734  15.542  0.3004 -1.1124 -0.4346
 1122TIP3    H124857   1.843   6.791  15.495  0.3231 -0.0223  0.8585
 1122TIP3    H224858   1.824   6.649  15.543  0.8994 -0.8323 -1.2398
 1123TIP3   OH224859   2.200   1.906   1.977 -0.1397 -0.7396 -0.2265
 1123TIP3    H124860   2.174   1.947   2.060  2.0869  1.4432 -0.5626
 1123TIP3    H224861   2.125   1.919   1.919 -0.3720  0.7534  0.4068
 1124TIP3   OH224862   4.252   1.357   0.704 -0.2685  0.1861 -0.2538
 1124TIP3    H124863   4.279   1.356   0.795 -1.4782  1.0774  0.1367
 1124TIP3    H224864   4.269   1.447   0.675 -0.4684  0.0741 -0.7252
 1125TIP3   OH224865   6.129   2.938  15.914 -0.4308  0.4670 -0.2964
 1125TIP3    H124866   6.158   2.850  15.939 -1.0932  0.1070 -0.7687
 1125TIP3    H224867   6.045   2.924  15.870 -0.0084  1.2177 -1.3856
 1126TIP3   OH224868   5.212   2.306  15.475 -0.1059 -0.3338 -0.3941
 1126TIP3    H124869   5.301   2.269  15.478  0.7471  1.3791 -2.5893
 1126TIP3    H224870   5.162   2.252  15.536  2.6563 -0.7246  1.6665
 1127TIP3   OH224871   3.611   3.695   2.915  0.5220 -0.1390  0.6367
 1127TIP3    H124872   3.682   3.631   2.921 -1.3554 -2.2754  0.6567
 1127TIP3    H224873   3.572   3.695   3.003 -0.7573 -0.4677  0.0723
 1128TIP3   OH224874   5.281   0.171   4.397  0.5955  0.0163  0.4806
 1128TIP3    H124875   5.360   0.203   4.352  0.6496  2.3667  2.1172
 1128TIP3    H224876   5.305   0.173   4.490 -0.4412 -2.0285  0.8085
 1129TIP3   OH224877   0.698   0.395  12.112  0.1140  0.4100  0.3871
 1129TIP3    H124878   0.716   0.487  12.091  1.5108  0.1277  0.3127
 1129TIP3    H224879   0.643   0.364  12.040  0.8773  0.7762 -0.3616
 1130TIP3   OH224880   3.392   0.817   5.708 -0.1783 -0.1547  0.1931
 1130TIP3    H124881   3.450   0.768   5.766 -0.6244 -1.5452 -0.5017
 1130TIP3    H224882   3.406   0.778   5.622 -0.5128  0.9865 -0.3858
 1131TIP3   OH224883   3.088   5.867  13.195  0.3072  0.2099 -0.1367
 1131TIP3    H124884   2.995   5.881  13.178  0.0485 -1.4512 -0.2518
 1131TIP3    H224885   3.095   5.773  13.213  2.1588  0.0823 -1.3460
 1132TIP3   OH224886   0.700   3.823   2.831 -0.3145 -0.0163  0.1069
 1132TIP3    H124887   0.779   3.827   2.884 -0.4835  3.3355  0.2083
 1132TIP3    H224888   0.637   3.879   2.878 -1.5198  0.3423 -1.8946
 1133TIP3   OH224889   4.854   1.062   3.900 -0.0556 -0.3840 -0.0175
 1133TIP3    H124890   4.881   1.055   3.808 -2.0150 -1.5820 -0.5568
 1133TIP3    H224891   4.922   1.016   3.949 -0.2806 -1.9921 -1.1610
 1134TIP3   OH224892   1.783   0.048  13.434  0.0704 -0.0039  0.2356
 1134TIP3    H124893   1.741  -0.036  13.454  1.7804 -0.8513  0.3206
 1134TIP3    H224894   1.711   0.104  13.406 -1.2940 -1.0960  1.4492
 1135TIP3   OH224895   4.832   2.209  15.012  0.2758  0.0605 -0.2575
 1135TIP3    H124896   4.826   2.208  15.107 -0.8527  0.8840 -0.3062
 1135TIP3    H224897   4.877   2.127  14.989  2.3400  0.7753  1.0832
 1136TIP3   OH224898   0.360   2.222   0.228 -0.1978  0.4276 -0.4864
 1136TIP3    H124899   0.380   2.136   0.265 -0.3468  0.8834  0.7005
 1136TIP3    H224900   0.289   2.256   0.284  0.7762  1.8735 -0.0874
 1137TIP3   OH224901   4.835   6.473   0.276  0.2727 -0.4332  1.0121
 1137TIP3    H124902   4.820   6.387   0.316 -3.3120 -0.1222  0.5127
 1137TIP3    H224903   4.840   6.456   0.182  1.7007 -0.3332  1.0640
 1138TIP3   OH224904   5.064   3.227  17.108 -0.1278 -0.1170  0.0494
 1138TIP3    H124905   5.108   3.245  17.025 -0.1017  1.3216  0.3532
 1138TIP3    H224906   5.129   3.181  17.160  0.9679  1.7758  0.4042
 1139TIP3   OH224907   4.345   4.338   0.352 -0.0196 -0.3361  0.5397
 1139TIP3    H124908   4.401   4.345   0.429  1.1053  0.5859 -0.3440
 1139TIP3    H224909   4.377   4.261   0.306  2.3031  1.6604 -1.3262
 1140TIP3   OH224910   3.899   6.468  11.742  0.5989  0.1756  0.6343
 1140TIP3    H124911   3.974   6.492  11.797  0.3916  2.3654  0.0200
 1140TIP3    H224912   3.823   6.479  11.800  0.4981  1.1320  0.3323
 1141TIP3   OH224913   1.349   5.171  17.160  0.0319  0.0215 -0.7604
 1141TIP3    H124914   1.333   5.166  17.255 -0.5405 -1.1518 -0.9030
 1141TIP3    H224915   1.435   5.212  17.153  0.1632 -0.0453  0.2907
 1142TIP3   OH224916   0.492   4.187   3.614 -0.1339 -0.4067 -0.3524
 1142TIP3    H124917   0.456   4.276   3.624  0.0974 -0.2974 -0.4791
 1142TIP3    H224918   0.431   4.131   3.662 -0.7305 -0.2822 -0.9632
 1143TIP3   OH224919   6.330   5.418   2.006  0.3239  0.2228  0.0584
 1143TIP3    H124920   6.327   5.450   2.096 -1.4410  0.1675  0.0384
 1143TIP3    H224921   6.255   5.458   1.963 -0.1466 -1.4820 -0.7818
 1144TIP3   OH224922   4.737   3.397   3.221 -0.7405  0.2390 -0.1801
 1144TIP3    H124923   4.789   3.332   3.267 -0.0045  0.7728 -0.2487
 1144TIP3    H224924   4.676   3.431   3.287 -0.7296 -0.0977  0.0035
 1145TIP3   OH224925   0.645   2.576  15.728  0.1125 -0.0606  0.4008
 1145TIP3    H124926   0.598   2.644  15.776 -1.6096 -1.4108  0.6540
 1145TIP3    H224927   0.598   2.495  15.747  1.2838 -1.1176 -1.0325
 1146TIP3   OH224928   0.980   2.116   3.671 -0.4787  0.0516 -0.3037
 1146TIP3    H124929   0.977   2.209   3.652  1.1195 -0.0616 -1.1911
 1146TIP3    H224930   0.890   2.093   3.695 -1.0639  1.6204 -0.9665
 1147TIP3   OH224931   1.214   3.937   3.535  0.5647  0.0905  0.0374
 1147TIP3    H124932   1.263   3.963   3.457 -0.6175  2.8901  0.1379
 1147TIP3    H224933   1.137   3.995   3.534  0.6147  0.2875  3.3391
 1148TIP3   OH224934   4.891   1.497  16.424  0.4585 -0.3220 -0.1849
 1148TIP3    H124935   4.904   1.480  16.517  1.3076 -1.8217 -0.5578
 1148TIP3    H224936   4.802   1.466  16.406 -0.5394  1.9796  0.5562
 1149TIP3   OH224937   2.615   5.153   4.471  0.1584  0.0348 -0.1024
 1149TIP3    H124938   2.683   5.109   4.522  1.4799  1.0560 -0.9472
 1149TIP3    H224939   2.562   5.082   4.435  1.5126 -0.8281 -0.4221
 1150TIP3   OH224940   5.925   3.105  14.229 -0.3581  0.4625  0.0491
 1150TIP3    H124941   5.847   3.161  14.224 -0.7381 -0.1460 -0.9378
 1150TIP3    H224942   5.896   3.027  14.275  0.1704  1.0570  1.4083
 1151TIP3   OH224943   0.414   1.031   1.771 -0.1910  0.0808 -0.4315
 1151TIP3    H124944   0.454   1.035   1.684 -3.0435 -0.1072 -1.7953
 1151TIP3    H224945   0.475   0.978   1.822  3.0521  2.6610 -1.4150
 1152TIP3   OH224946   0.580   3.276  13.215  0.2435  0.6449  0.0326
 1152TIP3    H124947   0.563   3.283  13.309  1.5739  2.1643  0.1914
 1152TIP3    H224948   0.676   3.271  13.209  0.1120 -0.4239 -1.1840
 1153TIP3   OH224949   6.262   3.571   4.797  0.1418 -0.0959  0.1791
 1153TIP3    H124950   6.192   3.535   4.742  0.8360  1.1605 -1.5763
 1153TIP3    H224951   6.315   3.495   4.821 -1.3173 -0.9414  0.8200
 1154TIP3   OH224952   3.784   5.902  15.667  0.3749 -0.5506  0.0419
 1154TIP3    H124953   3.850   5.960  15.630  0.0262 -0.2462 -0.1072
 1154TIP3    H224954   3.718   5.892  15.598  0.0523 -0.5074  0.3391
 1155TIP3   OH224955   5.963   0.420   1.018  0.0602 -0.3020  0.6892
 1155TIP3    H124956   6.038   0.419   1.078 -0.3766 -1.0171  1.2479
 1155TIP3    H224957   5.995   0.462   0.939  0.7077  0.4833  1.3648
 1156TIP3   OH224958   6.397   4.414  14.277 -0.0503 -0.6247 -0.1555
 1156TIP3    H124959   6.346   4.333  14.268  1.7089 -1.6834 -0.8434
 1156TIP3    H224960   6.486   4.389  14.251  1.2447  0.7305  2.7418
 1157TIP3   OH224961   4.182   4.432   0.588  0.0620  0.2479  0.1901
 1157TIP3    H124962   4.262   4.387   0.615  0.4406  0.5342 -0.4509
 1157TIP3    H224963   4.164   4.400   0.500 -0.4364  0.3045  0.2709
 1158TIP3   OH224964   4.947   4.457  12.657  0.4550  0.0445 -0.8086
 1158TIP3    H124965   4.853   4.472  12.663  0.6165  1.1587 -0.8241
 1158TIP3    H224966   4.962   4.377  12.706 -0.2777  0.7902  0.6878
 1159TIP3   OH224967   1.646   0.455  15.113 -0.1359 -0.4683  0.9068
 1159TIP3    H124968   1.571   0.512  15.092  0.6505  0.3078  0.2035
 1159TIP3    H224969   1.662   0.406  15.033  0.2734 -0.4489  0.9760
 1160TIP3   OH224970   2.529   5.276  11.674  0.8317 -0.3540  0.2976
 1160TIP3    H124971   2.480   5.334  11.616 -0.1954 -1.3373  0.1567
 1160TIP3    H224972   2.514   5.188  11.638  2.4060 -0.7110  0.4684
 1161TIP3   OH224973   6.473   4.793  13.023 -0.2404  0.4995 -0.2066
 1161TIP3    H124974   6.395   4.832  13.061 -0.3790 -1.0244  1.1253
 1161TIP3    H224975   6.539   4.797  13.092 -0.1014 -1.1134 -0.2312
 1162TIP3   OH224976   0.903   3.402  13.774  0.2136 -0.4711 -0.2512
 1162TIP3    H124977   0.962   3.328  13.787 -1.8128 -1.8989  1.0336
 1162TIP3    H224978   0.928   3.465  13.842 -0.0182 -1.2460  0.5566
 1163TIP3   OH224979   5.186   0.536   4.976  0.4006  0.3989 -0.0324
 1163TIP3    H124980   5.272   0.539   4.936  0.4150  0.4648  0.0026
 1163TIP3    H224981   5.147   0.455   4.944  0.5351  0.2924  0.0728
 1164TIP3   OH224982   0.394   1.241  11.789  0.1093  0.3852  0.4407
 1164TIP3    H124983   0.367   1.150  11.799  0.1799  0.3256  0.0995
 1164TIP3    H224984   0.338   1.275  11.719  2.6328 -0.4653 -2.0995
 1165TIP3   OH224985   5.175   3.793  12.757  0.2183 -0.2965 -0.2164
 1165TIP3    H124986   5.237   3.722  12.775 -1.2726 -1.5333  0.1860
 1165TIP3    H224987   5.186   3.854  12.830 -1.8449 -2.5305  2.0910
 1166TIP3   OH224988   2.326   6.088   2.574  0.5295  0.0309  0.3038
 1166TIP3    H124989   2.269   6.139   2.631  2.4102  1.7860  0.7206
 1166TIP3    H224990   2.347   6.009   2.624 -2.0546 -0.9589 -0.1488
 1167TIP3   OH224991   1.222   5.135   2.513 -0.0657 -0.3770  0.4767
 1167TIP3    H124992   1.130   5.134   2.537  0.7586 -0.4171  3.8984
 1167TIP3    H224993   1.261   5.202   2.569  2.2835 -1.5859  0.3532
 1168TIP3   OH224994   2.793   3.789   4.392  0.3868  0.1201  0.1341
 1168TIP3    H124995   2.777   3.717   4.453 -0.2500  1.1047  1.1436
 1168TIP3    H224996   2.721   3.850   4.408  0.6798  0.7743 -1.0221
 1169TIP3   OH224997   5.656   4.303   4.742  0.0150  0.3300 -0.4786
 1169TIP3    H124998   5.681   4.387   4.703  1.2075 -0.3819 -1.2809
 1169TIP3    H224999   5.605   4.327   4.819  0.1191  1.7959 -0.8457
 1170TIP3   OH225000   6.625   5.018  16.915 -0.1891 -0.1505 -0.0629
 1170TIP3    H125001   6.585   5.014  16.829 -1.3734 -2.2398  0.5376
 1170TIP3    H225002   6.645   4.927  16.936  1.0730  0.4457  1.4098
 1171TIP3   OH225003   3.143   3.889   2.430  0.1094 -1.0527  0.4878
 1171TIP3    H125004   3.050   3.877   2.411  0.5908 -1.6413 -1.6329
 1171TIP3    H225005   3.167   3.967   2.379  0.6922 -0.6542  1.3621
 1172TIP3   OH225006   2.518   6.385  16.174 -0.0138 -0.5632 -0.4105
 1172TIP3    H125007   2.448   6.377  16.239  0.3993 -0.5193  0.0381
 1172TIP3    H225008   2.474   6.420  16.096 -0.6173 -1.1545 -0.3425
 1173TIP3   OH225009   1.481   0.932   0.811  0.2672  0.3188  0.5682
 1173TIP3    H125010   1.473   0.972   0.724 -0.3778 -0.8302  0.0951
 1173TIP3    H225011   1.549   0.984   0.854  0.4470  1.0378 -0.5367
 1174TIP3   OH225012   2.118   6.648   3.628 -0.0087  0.0619  0.3915
 1174TIP3    H125013   2.182   6.719   3.631 -0.2011  0.2263  0.7160
 1174TIP3    H225014   2.097   6.631   3.720 -0.3084 -0.1014  0.2937
 1175TIP3   OH225015   6.404   6.321  15.335 -0.6054  0.0200 -0.3185
 1175TIP3    H125016   6.389   6.411  15.306 -0.5203 -0.9443 -3.5310
 1175TIP3    H225017   6.388   6.267  15.257 -1.7896 -2.8731  1.8337
 1176TIP3   OH225018   6.283   1.481  11.462 -0.3703 -0.6012  0.0474
 1176TIP3    H125019   6.312   1.445  11.546 -1.3916  0.3780  0.8292
 1176TIP3    H225020   6.364   1.510  11.419  0.0636 -0.1272  1.1608
 1177TIP3   OH225021   3.675   6.463   3.451  0.1293  0.1947 -0.5437
 1177TIP3    H125022   3.738   6.534   3.439 -1.1471  1.3893 -0.3103
 1177TIP3    H225023   3.662   6.457   3.545 -1.9344  1.6303 -0.6958
 1178TIP3   OH225024   4.777   0.827   4.614 -0.1588 -0.0674  0.3102
 1178TIP3    H125025   4.863   0.806   4.650 -0.2365 -1.8641 -0.5209
 1178TIP3    H225026   4.748   0.903   4.665  1.6575  0.1978  0.9850
 1179TIP3   OH225027   2.033   5.725  13.029 -0.3060 -1.0434  0.0529
 1179TIP3    H125028   1.999   5.814  13.036  2.1783 -0.1353  1.3709
 1179TIP3    H225029   2.010   5.683  13.112 -0.3670 -1.2147 -0.0497
 1180TIP3   OH225030   5.944   0.775   4.465 -0.2082  0.1938 -0.0342
 1180TIP3    H125031   6.000   0.810   4.395 -0.0132  1.6417  0.8100
 1180TIP3    H225032   5.998   0.782   4.544 -1.4267  1.2182  0.7227
 1181TIP3   OH225033   2.919   2.126  13.873 -0.2442 -0.0852  0.5050
 1181TIP3    H125034   2.903   2.218  13.894 -0.8596  0.1306 -0.8681
 1181TIP3    H225035   2.832   2.088  13.859 -0.0779 -1.1758  2.1808
 1182TIP3   OH225036   2.289   4.699   1.464 -0.3056 -0.6234 -0.0780
 1182TIP3    H125037   2.364   4.680   1.520 -0.8236 -0.8714  0.5363
 1182TIP3    H225038   2.262   4.614   1.430 -1.3411 -0.7531  1.0300
 1183TIP3   OH225039   6.057   0.080  11.429  0.3621 -0.1366 -0.0867
 1183TIP3    H125040   6.096   0.001  11.465  1.5753 -0.3897 -1.8695
 1183TIP3    H225041   5.969   0.053  11.401  0.3135 -0.5358  0.4563
 1184TIP3   OH225042   3.068   6.013   2.754  0.0643  0.3181  0.0286
 1184TIP3    H125043   3.076   6.043   2.663 -0.2007 -1.4461 -0.6022
 1184TIP3    H225044   2.997   6.066   2.790 -0.0864  0.7716 -0.9057
 1185TIP3   OH225045   6.342   2.750   5.686  0.9258  0.3629 -0.3039
 1185TIP3    H125046   6.283   2.675   5.691 -0.8138  1.7406  0.7665
 1185TIP3    H225047   6.388   2.750   5.770 -1.6451  2.4530  1.2006
 1186TIP3   OH225048   5.997   6.626   3.490 -0.3948  0.0473  0.2107
 1186TIP3    H125049   6.011   6.685   3.416  1.0348  0.3114  0.6758
 1186TIP3    H225050   6.051   6.663   3.561  0.9072 -2.0850  0.3653
 1187TIP3   OH225051   2.513   2.997  16.264 -0.3783  0.3148  0.0633
 1187TIP3    H125052   2.520   3.054  16.187  0.5998 -1.7046 -1.3701
 1187TIP3    H225053   2.571   3.039  16.329  0.1158  1.1008 -0.8671
 1188TIP3   OH225054   1.659   1.908  14.496 -0.3981  0.5024 -0.2918
 1188TIP3    H125055   1.694   1.862  14.573 -1.0747 -0.2201 -0.4121
 1188TIP3    H225056   1.581   1.858  14.472  0.4425  0.0689 -2.1381
 1189TIP3   OH225057   4.341   1.259   2.539  0.3540 -0.3033 -0.2871
 1189TIP3    H125058   4.414   1.313   2.510  0.6247 -0.5478 -0.0725
 1189TIP3    H225059   4.355   1.249   2.633  0.0829 -0.4102 -0.2579
 1190TIP3   OH225060   6.341   0.520   2.660 -0.2696  0.4694 -0.0675
 1190TIP3    H125061   6.316   0.570   2.738  0.4556  0.1879  0.3485
 1190TIP3    H225062   6.310   0.573   2.586  0.9325  1.7765  0.3529
 1191TIP3   OH225063   2.520   4.621  13.607  0.3635  0.3974 -0.4722
 1191TIP3    H125064   2.427   4.631  13.588  0.2076  0.4979  0.3099
 1191TIP3    H225065   2.555   4.570  13.534 -0.5018 -0.4808 -0.2695
 1192TIP3   OH225066   4.535   1.870   5.940  0.1886  0.0429  0.2818
 1192TIP3    H125067   4.494   1.812   5.876 -0.3023  0.2522  0.4094
 1192TIP3    H225068   4.619   1.828   5.959 -0.5606 -1.1257  1.0900
 1193TIP3   OH225069   3.595   4.295   2.854  0.3562  0.2079 -0.4634
 1193TIP3    H125070   3.589   4.210   2.898  0.5792  0.6847  0.5075
 1193TIP3    H225071   3.652   4.279   2.778  1.6028 -0.1898  0.5306
 1194TIP3   OH225072   2.985   5.370   2.345 -0.3937 -0.2046 -0.5195
 1194TIP3    H125073   2.988   5.385   2.440  0.3799 -0.9454 -0.4219
 1194TIP3    H225074   3.076   5.354   2.320 -0.6815 -0.7251 -1.2680
 1195TIP3   OH225075   1.695   2.623   1.823 -0.1663 -0.0418 -0.2568
 1195TIP3    H125076   1.769   2.564   1.838 -0.7393 -0.8827 -0.7279
 1195TIP3    H225077   1.674   2.657   1.910  0.6159  0.0199 -0.0868
 1196TIP3   OH225078   4.840   3.045   3.647 -0.0026 -0.4359 -0.4551
 1196TIP3    H125079   4.878   3.043   3.559  0.6722 -2.2810 -0.1583
 1196TIP3    H225080   4.818   2.953   3.665 -2.9526  0.3331  0.1119
 1197TIP3   OH225081   1.033   1.239  16.273  0.0566  0.0117 -0.2334
 1197TIP3    H125082   1.039   1.207  16.363  0.5781  0.9461  0.0700
 1197TIP3    H225083   1.123   1.235  16.240  0.1175  1.1018 -0.2090
 1198TIP3   OH225084   0.257   6.032  14.564 -0.0554  0.2328  0.0970
 1198TIP3    H125085   0.229   5.958  14.618  0.9201  0.9869  1.6868
 1198TIP3    H225086   0.227   6.011  14.476 -0.3296 -1.7627  0.6503
 1199TIP3   OH225087   0.834   4.247   2.711  0.4051 -0.0968  0.8424
 1199TIP3    H125088   0.914   4.196   2.705  0.0995 -0.4891  0.0390
 1199TIP3    H225089   0.773   4.205   2.650  0.3078  1.4960 -0.1977
 1200TIP3   OH225090   6.530   4.973  16.631  0.2048 -0.2291  0.0241
 1200TIP3    H125091   6.492   4.945  16.548 -0.4110  0.8131 -0.0602
 1200TIP3    H225092   6.567   5.059  16.613  0.0738  0.0029  0.8199
 1201TIP3   OH225093   2.441   3.525  14.446 -0.3137  0.1680  0.6541
 1201TIP3    H125094   2.457   3.432  14.466 -1.9439  0.0313  1.4111
 1201TIP3    H225095   2.519   3.552  14.398 -0.5710 -2.0770 -1.1318
 1202TIP3   OH225096   5.017   1.779   1.222 -0.2328  0.4574 -0.2483
 1202TIP3    H125097   4.939   1.828   1.195  0.2015  1.8910  1.0544
 1202TIP3    H225098   4.993   1.743   1.307  0.4553  0.7130  0.0502
 1203TIP3   OH225099   4.148   4.607   1.488  0.2866  0.9239 -0.3107
 1203TIP3    H125100   4.099   4.690   1.487  1.4230  1.6224  0.3321
 1203TIP3    H225101   4.154   4.585   1.581 -0.6248 -0.2750 -0.5167
 1204TIP3   OH225102   6.584   2.758   2.363  0.3429  0.1665 -0.1093
 1204TIP3    H125103   6.562   2.673   2.402 -0.8821  0.3233 -0.4407
 1204TIP3    H225104   6.550   2.753   2.274 -2.3512  2.0612  0.7461
 1205TIP3   OH225105   0.208   0.389   5.972 -0.1438 -0.1808 -0.1872
 1205TIP3    H125106   0.156   0.414   6.049  0.2336 -0.3154  0.1117
 1205TIP3    H225107   0.230   0.473   5.931 -1.1565 -0.1474 -0.6913
 1206TIP3   OH225108   3.628   3.389   0.962 -0.4120  0.1205  0.2615
 1206TIP3    H125109   3.569   3.333   0.912 -0.8714  0.1774  0.7401
 1206TIP3    H225110   3.673   3.441   0.895  0.1381 -0.9264 -0.1946
 1207TIP3   OH225111   2.137   3.082   4.667 -0.3827  0.2658 -0.1868
 1207TIP3    H125112   2.095   3.097   4.752 -0.3231  2.3975 -0.4928
 1207TIP3    H225113   2.068   3.043   4.613 -1.5266  2.2448 -0.2026
 1208TIP3   OH225114   5.417   2.999  13.946  0.0257  0.1630  0.2911
 1208TIP3    H125115   5.336   3.040  13.976 -2.2271 -2.1770 -2.2949
 1208TIP3    H225116   5.442   3.050  13.869 -0.6698 -0.8996 -0.6590
 1209TIP3   OH225117   2.597   2.086  13.128  0.1777  0.9828  0.1644
 1209TIP3    H125118   2.553   2.106  13.046 -1.5698  0.0777  0.8555
 1209TIP3    H225119   2.688   2.112  13.114  0.2200 -0.5375 -2.5295
 1210TIP3   OH225120   4.489   2.167   3.616  0.2616  0.0309 -0.1308
 1210TIP3    H125121   4.555   2.152   3.549 -0.4637  0.6656 -1.0046
 1210TIP3    H225122   4.513   2.109   3.688  3.2728  2.1033  0.6214
 1211TIP3   OH225123   3.146   0.862  12.219 -0.4586  0.7417 -0.8926
 1211TIP3    H125124   3.225   0.913  12.233 -0.2527  0.2339 -0.1289
 1211TIP3    H225125   3.087   0.888  12.291  0.5143 -1.7245  0.8911
 1212TIP3   OH225126   5.997   5.596   3.040  0.5555 -0.3859 -0.0831
 1212TIP3    H125127   5.968   5.672   2.990  1.9327 -0.5846 -1.2104
 1212TIP3    H225128   5.920   5.570   3.091 -0.5631  0.4657 -1.3140
 1213TIP3   OH225129   3.671   0.151  10.507 -0.4606 -0.4670 -0.5811
 1213TIP3    H125130   3.709   0.091  10.443 -0.2465 -0.8680 -0.0817
 1213TIP3    H225131   3.594   0.187  10.463 -0.8188 -1.4121 -0.7473
 1214TIP3   OH225132   2.333   5.803  11.966 -0.4699 -0.0691 -0.1459
 1214TIP3    H125133   2.325   5.775  12.057  0.6016  1.7731  0.5556
 1214TIP3    H225134   2.321   5.723  11.915 -2.0794 -0.9566  1.5600
 1215TIP3   OH225135   1.184   0.362  15.717  0.0259  0.1493  0.0020
 1215TIP3    H125136   1.098   0.402  15.708 -0.2671 -0.5163 -0.2091
 1215TIP3    H225137   1.168   0.268  15.707  0.5914 -0.0907  1.2024
 1216TIP3   OH225138   0.866   5.864   1.185  0.2953  0.1646 -0.2728
 1216TIP3    H125139   0.799   5.815   1.234 -0.6568  0.4581 -1.2550
 1216TIP3    H225140   0.817   5.909   1.117  1.3703  1.3021 -0.3041
 1217TIP3   OH225141   0.589   2.486   4.326  0.2737 -0.1508  0.1385
 1217TIP3    H125142   0.589   2.579   4.300 -1.3560 -0.6345 -1.7703
 1217TIP3    H225143   0.503   2.454   4.298  2.2305 -3.1949 -2.8057
 1218TIP3   OH225144   0.693   2.247  12.822 -0.5137 -0.0335 -0.4435
 1218TIP3    H125145   0.728   2.313  12.882 -2.2007 -0.8754  1.5602
 1218TIP3    H225146   0.692   2.289  12.737  2.8346  0.8897 -0.0831
 1219TIP3   OH225147   2.833   6.554   4.371 -0.4053  0.0232  0.1723
 1219TIP3    H125148   2.788   6.614   4.312  0.0314  0.8441  0.6642
 1219TIP3    H225149   2.924   6.584   4.371  0.0775 -1.4017 -0.5425
 1220TIP3   OH225150   4.525   3.402   2.314 -0.4887  0.2709 -0.7077
 1220TIP3    H125151   4.548   3.421   2.223  2.4157 -0.6778 -0.1995
 1220TIP3    H225152   4.532   3.306   2.321  1.7470  0.5379  1.1233
 1221TIP3   OH225153   2.593   3.553  15.597 -0.1311  0.2460  0.2047
 1221TIP3    H125154   2.616   3.479  15.540 -0.2051  1.5627 -1.6038
 1221TIP3    H225155   2.497   3.556  15.594 -0.1944 -0.3074  1.2660
 1222TIP3   OH225156   0.382   3.481   0.648  0.3488 -0.1012 -0.2430
 1222TIP3    H125157   0.419   3.545   0.708  0.0055  0.1873 -0.3449
 1222TIP3    H225158   0.458   3.429   0.620  0.8171  1.0207 -1.0897
 1223TIP3   OH225159   2.032   2.221  13.743 -0.7452 -0.0717  0.0705
 1223TIP3    H125160   2.047   2.305  13.698  1.1003  0.0019  0.7418
 1223TIP3    H225161   1.962   2.239  13.805  0.4122  1.3363  1.0179
 1224TIP3   OH225162   6.692   0.640   6.829  0.5260 -0.4911 -0.4509
 1224TIP3    H125163   6.741   0.714   6.865  0.5250 -0.6530 -0.1185
 1224TIP3    H225164   6.642   0.678   6.756  1.3254 -0.3708 -0.9442
 1225TIP3   OH225165   0.425   0.733   5.632  0.2561  0.4767  0.3687
 1225TIP3    H125166   0.457   0.814   5.672  1.3383  0.5708 -0.6846
 1225TIP3    H225167   0.348   0.760   5.582  1.9437  1.2652 -1.8434
 1226TIP3   OH225168   6.015   2.632   3.750  0.0073  0.3832 -0.0173
 1226TIP3    H125169   6.056   2.552   3.784  0.4896 -0.7153 -3.0303
 1226TIP3    H225170   5.927   2.604   3.726  0.4275  0.5442 -1.7885
 1227TIP3   OH225171   6.625   6.143   4.358 -0.1818 -0.4777 -0.3389
 1227TIP3    H125172   6.658   6.171   4.443 -0.7730 -0.9260  0.0381
 1227TIP3    H225173   6.704   6.122   4.307  0.1944  0.3851 -0.1137
 1228TIP3   OH225174   4.291   1.987  16.776 -0.5212  0.4861  0.1401
 1228TIP3    H125175   4.362   2.050  16.777 -0.6912  0.7327 -2.0339
 1228TIP3    H225176   4.278   1.964  16.868  2.5020  0.2612  0.5494
 1229TIP3   OH225177   5.176   1.605   5.318  0.6927  0.6617  0.4508
 1229TIP3    H125178   5.164   1.510   5.316  0.1460  0.7521 -0.9136
 1229TIP3    H225179   5.252   1.618   5.374  0.4318 -0.5467  1.1072
 1230TIP3   OH225180   1.794   4.035   3.655 -0.2075 -0.1929  0.1379
 1230TIP3    H125181   1.852   3.962   3.677  1.4068  1.3900  1.2530
 1230TIP3    H225182   1.784   4.083   3.737 -2.1411  0.2417 -0.3304
 1231TIP3   OH225183   4.734   5.691   6.428  0.4059 -0.3768  0.1233
 1231TIP3    H125184   4.720   5.778   6.465  1.3861  0.0021 -0.3690
 1231TIP3    H225185   4.794   5.649   6.489  1.8580  0.1741 -0.8941
 1232TIP3   OH225186   4.475   3.396   5.557  0.2810  0.1413  0.1658
 1232TIP3    H125187   4.456   3.358   5.643 -1.4803  0.0591 -0.2431
 1232TIP3    H225188   4.565   3.427   5.564  0.8454 -1.6932  1.3786
 1233TIP3   OH225189   3.385   4.058  12.282 -0.5443  0.1287 -0.3410
 1233TIP3    H125190   3.383   4.152  12.264 -0.8891  0.2321  0.2406
 1233TIP3    H225191   3.359   4.017  12.199 -0.0438  0.5303 -0.7019
 1234TIP3   OH225192   3.277   3.655  15.620 -0.3153  0.1061 -0.5013
 1234TIP3    H125193   3.292   3.721  15.552 -1.1265 -0.0474 -0.8391
 1234TIP3    H225194   3.364   3.620  15.640  0.0216  0.7349 -0.8755
 1235TIP3   OH225195   1.753   0.476   5.459 -0.4893  0.1079 -0.1608
 1235TIP3    H125196   1.809   0.420   5.406 -0.4291 -0.6473  0.6803
 1235TIP3    H225197   1.807   0.552   5.481 -0.1072 -0.1778 -0.1244
 1236TIP3   OH225198   1.851   5.767   1.889 -0.1271  0.1983 -0.2521
 1236TIP3    H125199   1.917   5.714   1.934  0.2188  1.8544  1.2316
 1236TIP3    H225200   1.891   5.787   1.804  0.2001 -0.9651 -0.3879
 1237TIP3   OH225201   6.216   3.997   4.733  0.1631  0.5040 -0.0001
 1237TIP3    H125202   6.268   4.049   4.794 -0.4764 -0.1110  1.0917
 1237TIP3    H225203   6.274   3.981   4.659  1.0669  0.9653  0.6026
 1238TIP3   OH225204   2.543   6.278   0.401 -0.2200 -0.6156 -0.0692
 1238TIP3    H125205   2.570   6.190   0.430 -1.5041 -0.4871  1.6179
 1238TIP3    H225206   2.576   6.285   0.312  3.9911 -1.0478  1.3190
 1239TIP3   OH225207   2.511   6.458  13.581 -0.2365 -0.9922  0.1581
 1239TIP3    H125208   2.588   6.429  13.629  1.3390 -1.6095 -2.6798
 1239TIP3    H225209   2.450   6.384  13.586 -0.0747 -1.0618  1.1590
 1240TIP3   OH225210   0.716   6.762   6.175 -0.2007  0.3293  0.2973
 1240TIP3    H125211   0.681   6.764   6.087  0.0607  4.3805  0.1826
 1240TIP3    H225212   0.640   6.763   6.232 -0.3604  1.1494  0.0774
 1241TIP3   OH225213   6.680   3.529   4.947  0.8761  0.1764 -0.3126
 1241TIP3    H125214   6.672   3.434   4.942  1.8042  0.0306  0.9503
 1241TIP3    H225215   6.649   3.560   4.861  2.2076 -1.3601 -1.3668
 1242TIP3   OH225216   0.889   1.933   1.665 -0.3188 -0.5970  0.4393
 1242TIP3    H125217   0.888   2.020   1.625 -1.4148 -0.3792  0.9327
 1242TIP3    H225218   0.838   1.942   1.745  1.4423 -1.1622  1.6505
 1243TIP3   OH225219   6.712   2.804  16.139  0.1325  0.1801  0.4010
 1243TIP3    H125220   6.691   2.745  16.211  0.8784  0.0228  0.5017
 1243TIP3    H225221   6.785   2.857  16.173  2.4816 -1.8721 -1.2288
 1244TIP3   OH225222   2.524   0.466  11.434  0.1149 -0.4097 -1.1353
 1244TIP3    H125223   2.545   0.442  11.524  1.3278  2.9037 -0.4404
 1244TIP3    H225224   2.545   0.388  11.383  1.0544 -1.7787  1.2555
 1245TIP3   OH225225   0.748   3.845   0.408  0.4794  0.1737  0.3972
 1245TIP3    H125226   0.766   3.824   0.500  1.1556 -0.6773  0.0819
 1245TIP3    H225227   0.722   3.761   0.370  0.9473  0.3692 -0.3536
 1246TIP3   OH225228   6.002   1.195   4.455 -0.6621 -0.1285 -0.0140
 1246TIP3    H125229   5.963   1.129   4.512  0.0861 -0.3172  0.2851
 1246TIP3    H225230   6.093   1.168   4.445 -0.2363  1.0764  0.4544
 1247TIP3   OH225231   5.170   2.780  13.456  0.0095 -0.0726 -0.4534
 1247TIP3    H125232   5.110   2.807  13.386 -0.6009  0.0912  0.1259
 1247TIP3    H225233   5.174   2.856  13.513 -0.5594 -0.6826  0.4063
 1248TIP3   OH225234   3.231   6.153   1.179  0.4159 -0.4738 -0.3043
 1248TIP3    H125235   3.188   6.153   1.093 -1.0791  0.4027  0.4178
 1248TIP3    H225236   3.171   6.202   1.236  1.2773 -1.2395  1.2985
 1249TIP3   OH225237   2.376   0.223  13.720 -0.0031  0.6825 -0.4682
 1249TIP3    H125238   2.467   0.253  13.726 -0.1628  1.0534  0.0596
 1249TIP3    H225239   2.344   0.225  13.810  0.1503 -1.5921 -0.3249
 1250TIP3   OH225240   0.768   5.641   0.718  0.6815  0.1378  0.1198
 1250TIP3    H125241   0.813   5.708   0.769  0.6312  0.7646 -0.6500
 1250TIP3    H225242   0.752   5.682   0.633  0.8684 -0.9282 -0.4469
 1251TIP3   OH225243   1.827   1.586   3.072  0.2008 -0.0455  0.2613
 1251TIP3    H125244   1.835   1.653   3.005 -0.2032 -0.0578  0.1994
 1251TIP3    H225245   1.892   1.610   3.138  0.4082  0.1190 -0.0032
 1252TIP3   OH225246   3.111   5.169  15.346  0.3620  0.0433 -0.5201
 1252TIP3    H125247   3.037   5.202  15.295 -0.3764 -0.1458  0.4268
 1252TIP3    H225248   3.114   5.225  15.423 -0.4005 -1.5832  0.7169
 1253TIP3   OH225249   2.418   3.628  10.737  0.2603 -0.5208 -0.2556
 1253TIP3    H125250   2.416   3.707  10.791  0.7636 -1.1656  0.6990
 1253TIP3    H225251   2.332   3.626  10.696  0.5888  1.0822 -1.0968
 1254TIP3   OH225252   0.534   0.870  16.526  0.5281 -0.1205  0.4768
 1254TIP3    H125253   0.464   0.893  16.586  0.4068  0.4035  0.1441
 1254TIP3    H225254   0.490   0.834  16.449  0.7502 -2.0348  1.2260
 1255TIP3   OH225255   1.903   2.496   6.634  0.1074 -0.2705 -0.4119
 1255TIP3    H125256   1.991   2.497   6.595  0.0709 -1.3485 -0.5363
 1255TIP3    H225257   1.852   2.555   6.580  0.6540  0.0372 -0.5983
 1256TIP3   OH225258   5.175   1.243   4.302  0.3685  0.1771  0.1291
 1256TIP3    H125259   5.260   1.247   4.346 -0.5148  1.6993  1.8094
 1256TIP3    H225260   5.112   1.266   4.371 -1.2670  0.5761 -1.4654
 1257TIP3   OH225261   3.588   5.493  15.202 -0.0255  0.3122  0.0929
 1257TIP3    H125262   3.551   5.582  15.200 -0.5446  0.0920 -0.3938
 1257TIP3    H225263   3.513   5.436  15.183  0.3582 -0.2093  0.1482
 1258TIP3   OH225264   4.908   4.314  13.245  0.3814  0.3107 -0.4730
 1258TIP3    H125265   4.919   4.380  13.176  1.0685  1.3274  0.5814
 1258TIP3    H225266   4.863   4.361  13.315 -1.0556 -0.9384 -0.5451
 1259TIP3   OH225267   5.393   5.110   3.403  0.8013  0.4784 -0.2091
 1259TIP3    H125268   5.470   5.153   3.366  0.9562 -1.0580 -1.7420
 1259TIP3    H225269   5.319   5.154   3.363  0.8818  1.4300  0.6661
 1260TIP3   OH225270   1.077   5.315   2.249  0.6276 -0.3715  0.0725
 1260TIP3    H125271   0.982   5.326   2.251  0.2918 -2.9370  0.8676
 1260TIP3    H225272   1.106   5.366   2.174 -1.4698 -0.1277 -0.6104
 1261TIP3   OH225273   1.655   5.071  16.102 -0.4629  0.5086 -0.4148
 1261TIP3    H125274   1.627   4.981  16.088 -0.3272  0.5756 -1.1152
 1261TIP3    H225275   1.608   5.098  16.181  0.6739 -0.6736  0.6865
 1262TIP3   OH225276   2.545   2.815  11.378 -0.5204 -0.1139 -0.5600
 1262TIP3    H125277   2.480   2.779  11.319 -1.4880  0.8325 -0.0844
 1262TIP3    H225278   2.570   2.899  11.338 -0.5354  0.1194 -0.0812
 1263TIP3   OH225279   1.097   4.127   2.725 -0.4426  0.1810  0.0851
 1263TIP3    H125280   1.186   4.142   2.695 -0.7505 -0.1044 -0.9693
 1263TIP3    H225281   1.103   4.050   2.782  0.4964  1.9635  2.5045
 1264TIP3   OH225282   2.457   4.800   1.816 -0.0860 -0.2557 -0.0787
 1264TIP3    H125283   2.396   4.733   1.846  0.3174 -0.6514 -0.1405
 1264TIP3    H225284   2.428   4.880   1.859  0.2681 -0.7423  1.0792
 1265TIP3   OH225285   1.848   5.404   6.720  0.1019  0.2142 -0.2685
 1265TIP3    H125286   1.825   5.422   6.629  0.8356  0.4350 -0.4149
 1265TIP3    H225287   1.913   5.334   6.715  0.2690  0.3414  0.0677
 1266TIP3   OH225288   1.315   1.906   4.754 -0.1473 -0.2874 -0.4148
 1266TIP3    H125289   1.391   1.950   4.792 -0.1188 -1.1609  0.5483
 1266TIP3    H225290   1.351   1.829   4.711 -0.5065 -0.8519  0.2775
 1267TIP3   OH225291   1.355   2.634  14.020 -0.9954 -0.3668  0.1770
 1267TIP3    H125292   1.320   2.594  14.099 -0.8964  0.0775  0.4483
 1267TIP3    H225293   1.361   2.727  14.041  1.2825 -0.5401  0.4932
 1268TIP3   OH225294   0.427   2.704   3.756 -0.8352  0.1553 -0.0692
 1268TIP3    H125295   0.425   2.796   3.731 -0.4364  0.5134  1.1611
 1268TIP3    H225296   0.490   2.700   3.828 -1.4322 -0.9492  0.4132
 1269TIP3   OH225297   6.474   0.232   1.587  0.8338  0.0475  0.6492
 1269TIP3    H125298   6.549   0.175   1.572  0.2413 -0.4763 -0.3367
 1269TIP3    H225299   6.421   0.224   1.508 -0.6027 -0.1094  1.6037
 1270TIP3   OH225300   2.972   1.055  11.640 -0.3059 -0.0368 -0.1080
 1270TIP3    H125301   2.920   0.980  11.666 -0.7647  0.5419  0.6766
 1270TIP3    H225302   2.943   1.125  11.698 -1.6545  1.4222 -2.4528
 1271TIP3   OH225303   0.485   4.513  14.988  0.1785 -0.1251  0.2583
 1271TIP3    H125304   0.579   4.499  14.980  0.2074 -0.0263  0.4266
 1271TIP3    H225305   0.446   4.433  14.953  0.2907  0.6157 -1.6144
 1272TIP3   OH225306   5.543   3.296   4.662 -0.5351  0.5645  0.1621
 1272TIP3    H125307   5.579   3.344   4.587  1.7111  1.0528  1.5453
 1272TIP3    H225308   5.507   3.364   4.719 -2.7448  0.1550 -0.6863
 1273TIP3   OH225309   4.914   4.110  17.158 -0.2305  0.5646  0.4125
 1273TIP3    H125310   4.836   4.162  17.139 -1.3390 -0.7629  1.1452
 1273TIP3    H225311   4.900   4.028  17.112  1.7611  1.0947 -1.1927
 1274TIP3   OH225312   5.446   5.887   5.183  0.2596  0.1893  0.4668
 1274TIP3    H125313   5.461   5.826   5.256 -1.0887  0.8546  1.3093
 1274TIP3    H225314   5.363   5.929   5.203  0.6137  1.4791 -0.7073
 1275TIP3   OH225315   3.260   0.574   2.869 -0.6874 -0.1143 -0.4823
 1275TIP3    H125316   3.176   0.606   2.903 -1.5554 -2.6298 -0.1911
 1275TIP3    H225317   3.254   0.479   2.873  1.8608 -0.3662 -1.2875
 1276TIP3   OH225318   4.984   4.597  14.422  0.0756 -0.9856  0.3322
 1276TIP3    H125319   4.955   4.636  14.504  0.4442 -0.6825  0.3223
 1276TIP3    H225320   5.037   4.522  14.448  3.0015  1.0599  0.4702
 1277TIP3   OH225321   6.396   0.547  11.251 -0.7762 -0.0126 -0.0332
 1277TIP3    H125322   6.336   0.620  11.265 -1.0283  0.3161 -2.6286
 1277TIP3    H225323   6.341   0.477  11.215 -0.1270 -0.7119  0.3139
 1278TIP3   OH225324   1.641   0.081  12.750  0.0942 -0.2370  0.7706
 1278TIP3    H125325   1.579   0.027  12.800  0.1711 -1.0860 -0.0534
 1278TIP3    H225326   1.594   0.105  12.671  0.4253  0.0630  0.6640
 1279TIP3   OH225327   4.967   5.482  13.918  0.8905 -0.4401 -0.0208
 1279TIP3    H125328   4.969   5.576  13.932  4.6779 -0.3004 -0.9522
 1279TIP3    H225329   4.936   5.446  14.002 -0.5629  1.5870  0.3503
 1280TIP3   OH225330   4.320   5.191   5.507  0.1377  0.0536 -0.1854
 1280TIP3    H125331   4.363   5.106   5.498 -0.7598 -0.3776 -0.4486
 1280TIP3    H225332   4.283   5.190   5.595  1.6329  0.8846  0.4734
 1281TIP3   OH225333   5.347   1.964  14.811  0.1414 -0.3561  0.2084
 1281TIP3    H125334   5.389   1.983  14.727 -0.5064  2.7779  0.5360
 1281TIP3    H225335   5.283   2.035  14.823 -1.9827 -2.4636  1.8950
 1282TIP3   OH225336   3.349   5.173  10.957 -0.2891  0.6648 -0.3848
 1282TIP3    H125337   3.392   5.255  10.980 -0.1631  0.6570 -0.6029
 1282TIP3    H225338   3.412   5.126  10.904  0.3135 -0.3198  1.1613
 1283TIP3   OH225339   6.031   6.205  11.954 -0.0507  0.6829  0.0580
 1283TIP3    H125340   5.947   6.192  11.908 -0.7641  0.6327  1.3518
 1283TIP3    H225341   6.006   6.222  12.045  1.3435  0.9438  0.4011
 1284TIP3   OH225342   5.750   6.397  10.402  0.8593 -0.3091  0.4076
 1284TIP3    H125343   5.780   6.345  10.327 -1.7494 -0.1780 -0.7730
 1284TIP3    H225344   5.676   6.348  10.437 -0.1629  1.4132  0.7256
 1285TIP3   OH225345   2.528   0.385  11.715 -0.0011  0.4173  0.3153
 1285TIP3    H125346   2.620   0.359  11.718  0.0504  0.7267  1.8070
 1285TIP3    H225347   2.495   0.366  11.803 -1.0979  1.2613  0.0912
 1286TIP3   OH225348   1.560   5.596  11.602  0.1790  0.2641  0.1540
 1286TIP3    H125349   1.599   5.662  11.544  3.3984 -0.0118  1.9014
 1286TIP3    H225350   1.564   5.515  11.551  3.8307 -0.1659  0.9902
 1287TIP3   OH225351   1.606   6.692  13.617  0.1209 -0.3474  0.1602
 1287TIP3    H125352   1.523   6.649  13.641 -0.1268 -0.9018 -1.5706
 1287TIP3    H225353   1.648   6.629  13.558  0.8433  0.7888 -0.5445
 1288TIP3   OH225354   2.167   0.762  14.513  0.0418  0.2264  0.3369
 1288TIP3    H125355   2.243   0.812  14.544 -0.7673  0.8715  1.2891
 1288TIP3    H225356   2.204   0.680  14.480  1.3254  1.1915 -0.6854
 1289TIP3   OH225357   4.101   1.151  15.365 -0.0617 -0.5150 -1.1667
 1289TIP3    H125358   4.146   1.207  15.428 -0.2145  0.4069 -1.8685
 1289TIP3    H225359   4.110   1.063  15.401  0.7735 -0.1271 -0.3982
 1290TIP3   OH225360   1.424   3.140  16.077  0.6852  0.0038  0.1030
 1290TIP3    H125361   1.346   3.165  16.127  1.3847 -1.1706  1.8771
 1290TIP3    H225362   1.441   3.214  16.019 -2.4336 -0.2124 -1.1873
 1291TIP3   OH225363   1.030   4.341  12.971 -0.3431  0.1956 -0.2921
 1291TIP3    H125364   1.069   4.308  12.890 -1.0586 -1.4691  0.0131
 1291TIP3    H225365   0.942   4.367  12.946  0.2546  2.0388 -0.5525
 1292TIP3   OH225366   2.793   2.391  12.778  0.4695  0.5204 -0.0217
 1292TIP3    H125367   2.870   2.444  12.796 -0.5441  1.7846  0.7131
 1292TIP3    H225368   2.780   2.400  12.683  0.1126  1.8865  0.1452
 1293TIP3   OH225369   2.754   1.556  12.409  0.3369  0.4183 -0.3407
 1293TIP3    H125370   2.797   1.546  12.494  0.8209 -0.2938 -0.6572
 1293TIP3    H225371   2.711   1.641  12.413 -2.9371 -1.2486  2.0634
 1294TIP3   OH225372   2.918   3.861  13.078 -0.3428 -0.3091 -0.0140
 1294TIP3    H125373   2.923   3.945  13.032 -1.1759 -1.1522 -1.6677
 1294TIP3    H225374   3.005   3.822  13.066 -0.1775  0.0085  0.1560
 1295TIP3   OH225375   2.320   1.067  11.791  0.3681 -0.4645 -0.0066
 1295TIP3    H125376   2.282   1.155  11.786 -0.7243 -1.0016 -1.3887
 1295TIP3    H225377   2.294   1.025  11.709  1.7470 -1.7381  0.1891
 1296TIP3   OH225378   0.603   1.711  12.856 -0.1107  0.2362 -0.2761
 1296TIP3    H125379   0.511   1.714  12.830  0.2137  2.5806 -1.2660
 1296TIP3    H225380   0.632   1.802  12.852  2.4833 -0.5853 -0.8489
 1297TIP3   OH225381   5.425   1.542   5.456  0.2610  0.1988 -0.1908
 1297TIP3    H125382   5.384   1.556   5.542  0.5092  1.6176 -0.2929
 1297TIP3    H225383   5.458   1.452   5.460  1.7058  0.7789  1.8096
 1298TIP3   OH225384   4.069   5.584  11.745 -0.1969 -0.0739 -0.1604
 1298TIP3    H125385   4.116   5.666  11.728 -2.8714  1.0966 -2.4119
 1298TIP3    H225386   4.131   5.530  11.794  1.5117  3.4224  1.7526
 1299TIP3   OH225387   3.959   3.205   0.475  0.1843 -0.0046  0.2308
 1299TIP3    H125388   3.983   3.217   0.384  0.6057  0.1600  0.3624
 1299TIP3    H225389   3.909   3.123   0.477  2.0770 -1.1673  0.2008
 1300TIP3   OH225390   1.506   1.562  16.391 -0.1126  0.1046 -0.4098
 1300TIP3    H125391   1.562   1.622  16.440  0.9728  0.6459 -2.2397
 1300TIP3    H225392   1.429   1.615  16.368 -1.5561 -0.7367  2.3897
 1301TIP3   OH225393   0.889   4.496   4.572  0.1543 -0.8006 -0.2315
 1301TIP3    H125394   0.898   4.463   4.482 -0.3053  0.6146 -0.8085
 1301TIP3    H225395   0.819   4.443   4.610  0.2071 -1.2661 -0.7762
 1302TIP3   OH225396   4.143   3.898   5.342  0.8145 -0.2224  0.4448
 1302TIP3    H125397   4.050   3.884   5.326  1.0493 -0.6793 -0.5281
 1302TIP3    H225398   4.165   3.835   5.411  0.1155  0.8007  1.6201
 1303TIP3   OH225399   1.087   5.245  11.490 -0.0993 -0.4037 -0.3373
 1303TIP3    H125400   1.005   5.293  11.482 -0.4913 -1.0977 -0.5282
 1303TIP3    H225401   1.141   5.300  11.548 -0.6843  0.0663 -0.2280
 1304TIP3   OH225402   1.028   0.330  12.763 -0.8214 -0.1929  0.7607
 1304TIP3    H125403   0.939   0.302  12.741 -0.8800 -1.4623  2.4356
 1304TIP3    H225404   1.016   0.394  12.833 -0.4671  0.7206 -0.0055
 1305TIP3   OH225405   4.089   4.499  12.889  0.4818  0.1313 -0.7175
 1305TIP3    H125406   4.134   4.426  12.846 -0.5654 -0.2013 -1.2483
 1305TIP3    H225407   4.160   4.552  12.926  1.2534 -1.0522 -0.4834
 1306TIP3   OH225408   1.136   0.655  13.747 -0.0462 -0.2539 -0.2979
 1306TIP3    H125409   1.224   0.664  13.711  0.4635 -2.5505  0.3325
 1306TIP3    H225410   1.122   0.736  13.797  1.2110  0.6710 -1.4023
 1307TIP3   OH225411   1.839   0.675   2.443 -0.6045 -0.1297  0.0401
 1307TIP3    H125412   1.826   0.738   2.371  0.8188  0.3637  0.1988
 1307TIP3    H225413   1.858   0.730   2.519 -2.5506 -0.6408  0.9096
 1308TIP3   OH225414   2.574   3.427   2.766 -0.3259  0.0476 -0.1750
 1308TIP3    H125415   2.649   3.370   2.781 -0.2574 -0.0478 -0.8349
 1308TIP3    H225416   2.596   3.474   2.685 -0.8523  0.2310 -0.2126
 1309TIP3   OH225417   6.430   2.520  14.959  0.0599 -0.2241 -0.8732
 1309TIP3    H125418   6.427   2.553  14.869  1.7885 -0.1063 -0.9142
 1309TIP3    H225419   6.491   2.447  14.956  1.9364  1.2251  0.6228
 1310TIP3   OH225420   0.671   3.355  15.231  0.5644 -0.1974  0.3172
 1310TIP3    H125421   0.631   3.437  15.202 -0.8267 -0.3691  1.6633
 1310TIP3    H225422   0.596   3.295  15.242  1.4566 -1.3097  0.3964
 1311TIP3   OH225423   0.381   5.471   6.024 -0.2366 -0.1920  0.1392
 1311TIP3    H125424   0.360   5.454   6.116 -0.5514 -0.4912  0.0134
 1311TIP3    H225425   0.428   5.555   6.025 -2.9806  1.4137  0.2621
 1312TIP3   OH225426   4.171   0.344   0.910  0.3169 -0.1261  0.7011
 1312TIP3    H125427   4.096   0.310   0.861 -0.7799  0.0696  2.1947
 1312TIP3    H225428   4.134   0.410   0.969  1.9157  1.1957  0.2866
 1313TIP3   OH225429   4.311   4.179  17.129 -0.1949 -0.9333  0.1184
 1313TIP3    H125430   4.376   4.175  17.060 -0.3303 -1.3692  0.0096
 1313TIP3    H225431   4.306   4.089  17.162 -0.0705 -0.7089  0.7486
 1314TIP3   OH225432   4.482   3.419   4.477 -0.1485 -0.4879 -0.3241
 1314TIP3    H125433   4.441   3.422   4.564  0.1517  0.9314 -0.2246
 1314TIP3    H225434   4.575   3.415   4.495 -0.0987 -0.4676 -0.5810
 1315TIP3   OH225435   0.808   6.251   6.342  0.2081 -0.3951  1.1786
 1315TIP3    H125436   0.742   6.221   6.404 -1.7240  2.3567  0.5669
 1315TIP3    H225437   0.841   6.333   6.379 -0.7126  1.1068 -1.1527
 1316TIP3   OH225438   4.888   2.756   5.795 -0.2667  0.3297 -0.0766
 1316TIP3    H125439   4.858   2.721   5.879  2.1644  1.4344  1.3145
 1316TIP3    H225440   4.859   2.691   5.731  0.0360 -1.8749  1.9165
 1317TIP3   OH225441   6.762   2.193  12.063  0.1251 -0.3812  0.2832
 1317TIP3    H125442   6.706   2.138  12.118 -0.6699 -0.8483 -0.9643
 1317TIP3    H225443   6.849   2.153  12.070 -0.1957 -1.0772  0.3560
 1318TIP3   OH225444   2.267   1.503   1.538 -0.9339 -0.0979 -0.0853
 1318TIP3    H125445   2.284   1.492   1.444  0.7568  0.3903  0.1311
 1318TIP3    H225446   2.209   1.579   1.543  0.3385  0.9347 -0.6544
 1319TIP3   OH225447   1.660   6.287   4.914  0.4316  0.6699  0.5620
 1319TIP3    H125448   1.715   6.364   4.896  0.8138  0.0084 -1.1306
 1319TIP3    H225449   1.677   6.228   4.841 -1.5347 -0.1002  0.7120
 1320TIP3   OH225450   6.264   5.720   3.156 -0.3179 -0.2465 -0.1455
 1320TIP3    H125451   6.250   5.646   3.216 -0.5398 -1.0463 -1.1755
 1320TIP3    H225452   6.209   5.790   3.191  1.8041  0.2816  2.3113
 1321TIP3   OH225453   1.568   6.008   2.071  0.3886 -1.0194 -0.7376
 1321TIP3    H125454   1.590   5.938   2.132  0.0644  0.3348  0.9774
 1321TIP3    H225455   1.496   6.055   2.113 -1.1395 -1.1871 -3.0431
 1322TIP3   OH225456   0.166   6.556  11.710 -0.1855 -1.0996  0.3983
 1322TIP3    H125457   0.181   6.573  11.617  0.9517  0.3341  0.8239
 1322TIP3    H225458   0.122   6.471  11.713 -0.4017 -1.0614 -1.4542
 1323TIP3   OH225459   0.053   6.279   0.812 -0.3394 -0.4701 -0.2055
 1323TIP3    H125460   0.049   6.192   0.851 -0.2267 -0.4774 -0.2105
 1323TIP3    H225461   0.037   6.339   0.885  0.2899 -0.4661 -0.0733
 1324TIP3   OH225462   6.337   4.069  14.703  0.0425  0.5745  0.0199
 1324TIP3    H125463   6.366   4.113  14.783 -0.8036  0.8795  0.1713
 1324TIP3    H225464   6.245   4.048  14.720  0.6426 -2.0295  0.2939
 1325TIP3   OH225465   4.084   3.451   2.642  0.2861 -0.0166 -0.4692
 1325TIP3    H125466   4.094   3.477   2.551  1.4213  0.2690 -0.2607
 1325TIP3    H225467   3.995   3.478   2.665  0.4378  1.0537 -1.1140
 1326TIP3   OH225468   0.699   4.211  11.873 -0.3867  0.2095 -0.2021
 1326TIP3    H125469   0.670   4.288  11.825  2.5152  1.2583 -0.3805
 1326TIP3    H225470   0.729   4.150  11.806  2.2055  1.0586  0.1064
 1327TIP3   OH225471   3.319   1.665   2.867  0.9987  0.3441  0.5761
 1327TIP3    H125472   3.367   1.596   2.913  0.3310  0.4244  1.4145
 1327TIP3    H225473   3.236   1.671   2.914  0.1805  0.2307 -0.8333
 1328TIP3   OH225474   0.367   4.178  13.101  0.3452 -0.0305 -0.2753
 1328TIP3    H125475   0.313   4.118  13.153 -2.8065  2.7862 -0.1127
 1328TIP3    H225476   0.343   4.158  13.010 -0.8235  1.0301 -0.2152
 1329TIP3   OH225477   0.691   3.450   4.878  0.2337 -0.2158  0.7849
 1329TIP3    H125478   0.768   3.429   4.930 -0.2897 -1.0690  1.2226
 1329TIP3    H225479   0.664   3.536   4.909  1.1474  0.2022  0.4572
 1330TIP3   OH225480   0.226   1.020  16.581 -0.2446  0.1809  0.6189
 1330TIP3    H125481   0.135   1.047  16.568 -0.1837  1.0842  1.8921
 1330TIP3    H225482   0.274   1.058  16.507 -0.5446  1.6314  1.1615
 1331TIP3   OH225483   5.471   1.073   5.754 -0.0934 -0.8830 -0.2298
 1331TIP3    H125484   5.452   1.109   5.667  0.0214 -1.2057 -0.3925
 1331TIP3    H225485   5.450   0.980   5.746 -3.8277 -0.2213  1.2078
 1332TIP3   OH225486   2.417   6.324  10.471 -0.7808 -0.6464  0.1939
 1332TIP3    H125487   2.402   6.315  10.377  0.7848 -0.1202 -0.1260
 1332TIP3    H225488   2.395   6.239  10.508 -1.3203 -0.8815 -0.6631
 1333TIP3   OH225489   3.940   0.972   2.678 -0.1364 -0.4192 -0.0723
 1333TIP3    H125490   3.886   0.894   2.688 -0.4015 -0.4008 -1.2856
 1333TIP3    H225491   3.884   1.034   2.632  1.2755 -0.7900 -2.3637
 1334TIP3   OH225492   2.112   1.961   0.573 -0.0756  0.1665  0.4937
 1334TIP3    H125493   2.127   2.021   0.646 -1.2169  0.4084  0.5370
 1334TIP3    H225494   2.139   2.010   0.496  1.5613 -0.2518  0.7917
 1335TIP3   OH225495   2.647   6.606  15.398  0.6600  0.4909 -0.6493
 1335TIP3    H125496   2.649   6.662  15.321  0.8348  0.7494 -0.4588
 1335TIP3    H225497   2.733   6.563  15.399  0.2313 -0.3889 -1.2411
 1336TIP3   OH225498   3.343   4.633  15.513 -0.3579 -0.1882 -0.9556
 1336TIP3    H125499   3.257   4.649  15.476 -1.2785 -1.6597  0.4861
 1336TIP3    H225500   3.338   4.668  15.602 -0.2533 -2.3930 -0.0546
 1337TIP3   OH225501   4.894   4.217   0.148 -0.1332  0.0316 -0.2106
 1337TIP3    H125502   4.885   4.172   0.064  2.2400  2.3173 -1.7858
 1337TIP3    H225503   4.982   4.195   0.178 -0.3296  0.6237  0.8224
 1338TIP3   OH225504   4.780   4.994  10.793  0.2565 -0.0126 -0.3641
 1338TIP3    H125505   4.798   4.940  10.716 -0.5880  0.5938 -0.9943
 1338TIP3    H225506   4.685   4.994  10.801  0.2796  0.9489 -0.0451
 1339TIP3   OH225507   1.310   4.255   1.459  0.2856  0.2331  1.1701
 1339TIP3    H125508   1.282   4.272   1.368  0.4829  1.1379  1.2744
 1339TIP3    H225509   1.229   4.260   1.510  0.2885  0.4805  1.1490
 1340TIP3   OH225510   1.760   1.130  15.225 -0.1002  0.4477  0.2179
 1340TIP3    H125511   1.758   1.034  15.227 -0.7580  0.4593  0.3299
 1340TIP3    H225512   1.721   1.153  15.141  1.1844  0.5925 -0.3395
 1341TIP3   OH225513   2.454   1.974  11.770  0.0912 -0.3206 -0.1932
 1341TIP3    H125514   2.506   1.906  11.727  1.0467  0.3804 -0.1615
 1341TIP3    H225515   2.441   1.941  11.859  2.5781  0.5678  0.5542
 1342TIP3   OH225516   1.290   3.861   3.186  0.4223  0.3139  0.6317
 1342TIP3    H125517   1.242   3.782   3.209  0.9786  0.2981  1.7771
 1342TIP3    H225518   1.377   3.850   3.225  1.8130 -0.1960 -2.4183
 1343TIP3   OH225519   4.063   0.625  12.104  1.2166  0.0598 -0.0571
 1343TIP3    H125520   3.971   0.597  12.098  1.1255  0.1209  0.8853
 1343TIP3    H225521   4.069   0.700  12.045  0.4216  0.6261  0.5563
 1344TIP3   OH225522   2.740   6.331   3.855  0.5066  0.1896 -0.2960
 1344TIP3    H125523   2.828   6.326   3.818  0.7329  0.3508  0.2221
 1344TIP3    H225524   2.716   6.241   3.873  0.1961  0.0631 -1.3000
 1345TIP3   OH225525   1.960   6.037   3.430 -0.3829  0.1902 -0.2268
 1345TIP3    H125526   1.988   5.953   3.395  0.0029  0.4411 -0.5212
 1345TIP3    H225527   2.000   6.041   3.517 -2.1213 -0.8502  0.6507
 1346TIP3   OH225528   0.711   0.462   4.982 -0.1346  0.2534  0.0953
 1346TIP3    H125529   0.660   0.530   5.027 -1.1717 -0.0331 -0.6402
 1346TIP3    H225530   0.645   0.404   4.944  0.7327  0.3550 -1.6039
 1347TIP3   OH225531   1.861   1.514  16.884  0.4593  0.1324 -0.5390
 1347TIP3    H125532   1.900   1.445  16.830 -0.0985 -0.4741 -0.1623
 1347TIP3    H225533   1.845   1.473  16.968 -0.1476  0.6431 -0.4040
 1348TIP3   OH225534   0.074   6.317   4.334  0.4135 -0.2759 -0.1628
 1348TIP3    H125535   0.080   6.392   4.276  0.5606 -0.6623 -0.6474
 1348TIP3    H225536  -0.000   6.337   4.391  0.2439  0.0834 -0.5078
 1349TIP3   OH225537   0.424   2.410  16.884  0.0927 -0.0173 -0.6109
 1349TIP3    H125538   0.479   2.461  16.943 -0.1192  0.6703 -1.0090
 1349TIP3    H225539   0.394   2.336  16.938  1.3280 -0.3636 -0.3688
 1350TIP3   OH225540   2.906   1.571  11.824  0.1988 -0.2446  0.0508
 1350TIP3    H125541   2.948   1.497  11.868  0.5053  1.7628  3.2368
 1350TIP3    H225542   2.960   1.585  11.745  1.1638 -2.2815  0.3137
 1351TIP3   OH225543   5.559   4.180  12.537  0.4809  0.3615  0.2546
 1351TIP3    H125544   5.476   4.220  12.565  1.9243  2.6775  1.3507
 1351TIP3    H225545   5.541   4.085  12.538 -2.9248  0.8659 -2.0849
 1352TIP3   OH225546   4.823   2.178   1.049  0.4086  0.0485 -0.3113
 1352TIP3    H125547   4.749   2.138   1.094  1.8799 -1.0629  1.1597
 1352TIP3    H225548   4.855   2.245   1.110  0.9178  0.2044 -0.7419
 1353TIP3   OH225549   2.775   0.182   2.579 -0.3268  0.0294  0.3437
 1353TIP3    H125550   2.814   0.212   2.496 -1.0279 -0.3906 -0.1476
 1353TIP3    H225551   2.683   0.207   2.571  0.2863  3.3034  2.5395
 1354TIP3   OH225552   4.148   4.755   2.515 -0.5188  0.7317  0.1831
 1354TIP3    H125553   4.213   4.812   2.557 -1.2135  0.9912  0.9318
 1354TIP3    H225554   4.107   4.810   2.448 -0.5226  0.8210  0.2583
 1355TIP3   OH225555   6.002   6.820   1.619 -0.7449  0.3593  0.1759
 1355TIP3    H125556   5.924   6.874   1.622 -0.6873  0.6551 -2.3553
 1355TIP3    H225557   5.970   6.730   1.630 -1.1834  0.6348  1.1931
 1356TIP3   OH225558   3.612   1.077   3.727  0.4801  0.1938  0.7654
 1356TIP3    H125559   3.587   1.031   3.647  0.6396  0.6861  0.4324
 1356TIP3    H225560   3.673   1.144   3.699  1.2286 -0.2030  1.4241
 1357TIP3   OH225561   4.233   2.389   0.004  0.0333 -0.5069  0.5692
 1357TIP3    H125562   4.227   2.294  -0.001 -1.5617 -0.3935  0.1363
 1357TIP3    H225563   4.226   2.419  -0.087  0.3170  0.0439  0.7223
 1358TIP3   OH225564   3.363   1.068   0.651  0.1217  0.3312  0.1390
 1358TIP3    H125565   3.369   0.973   0.665  1.1982  0.1061 -1.6982
 1358TIP3    H225566   3.286   1.079   0.596 -0.8559  0.6951  1.5314
 1359TIP3   OH225567   0.972   3.605  11.302 -0.2915  0.0709 -0.1462
 1359TIP3    H125568   1.029   3.665  11.254 -0.7371  1.9840  1.6199
 1359TIP3    H225569   0.890   3.606  11.252 -0.9363  2.4761  0.8756
 1360TIP3   OH225570   0.324   2.831  11.981 -0.2977  0.0828  0.5022
 1360TIP3    H125571   0.417   2.850  11.965  0.0221  0.0420  2.1846
 1360TIP3    H225572   0.286   2.819  11.894  1.1789  0.5737 -0.2203
 1361TIP3   OH225573   4.039   0.489   5.409 -0.4423  0.2167 -0.0865
 1361TIP3    H125574   3.978   0.530   5.470 -2.0784 -1.0134 -0.8541
 1361TIP3    H225575   4.042   0.397   5.435  1.5257  0.3634  0.2700
 1362TIP3   OH225576   4.477   5.812  13.092 -0.0444  0.2173 -0.5146
 1362TIP3    H125577   4.414   5.883  13.086  0.5429  0.6465 -1.6867
 1362TIP3    H225578   4.560   5.855  13.116  0.3019 -0.0738 -1.1789
 1363TIP3   OH225579   2.647   6.670   4.578  0.5294 -0.2587 -0.2322
 1363TIP3    H125580   2.726   6.617   4.570  0.2279 -0.6552 -0.6017
 1363TIP3    H225581   2.636   6.712   4.493  0.5582  0.1041 -0.0592
 1364TIP3   OH225582   4.554   4.142  16.668  0.7888 -0.8581  0.0704
 1364TIP3    H125583   4.496   4.066  16.665 -0.1204 -0.2497  1.7796
 1364TIP3    H225584   4.635   4.109  16.708 -0.0519 -0.6549  1.9664
 1365TIP3   OH225585   2.296   5.788   3.271  0.1335  0.2492  0.2181
 1365TIP3    H125586   2.210   5.826   3.290 -0.2683 -0.4201 -0.2324
 1365TIP3    H225587   2.331   5.765   3.357  1.2532  3.4467  0.6660
 1366TIP3   OH225588   2.974   3.399   2.854  0.2884 -0.0318  0.0781
 1366TIP3    H125589   3.030   3.386   2.930 -0.8070  1.8677  1.2332
 1366TIP3    H225590   3.017   3.469   2.804 -0.2235  0.3310  0.1465
 1367TIP3   OH225591   1.232   1.877  15.424 -0.7880  0.0263  0.2157
 1367TIP3    H125592   1.220   1.860  15.330  0.3742  0.2432  0.0154
 1367TIP3    H225593   1.198   1.799  15.467  1.0789 -1.2404 -0.5231
 1368TIP3   OH225594   2.185   3.718   2.257 -0.5275  0.2826  0.3147
 1368TIP3    H125595   2.109   3.738   2.203 -0.0164  0.9854 -0.1575
 1368TIP3    H225596   2.260   3.729   2.199 -0.0573 -0.3958  0.7761
 1369TIP3   OH225597   5.851   6.545  12.446  0.5327  0.0471 -0.7828
 1369TIP3    H125598   5.878   6.498  12.525  0.5391  0.3768 -0.5847
 1369TIP3    H225599   5.845   6.637  12.474 -2.3316 -0.2018 -0.4114
 1370TIP3   OH225600   6.112   0.338  11.551 -0.6347  0.3661 -0.1507
 1370TIP3    H125601   6.095   0.256  11.505 -0.3554 -0.2073  0.7520
 1370TIP3    H225602   6.110   0.405  11.483  0.3111 -0.5304 -1.0704
 1371TIP3   OH225603   0.817   6.714  11.482  0.0091 -0.0163 -0.1634
 1371TIP3    H125604   0.782   6.707  11.393 -0.9950  0.3196  0.1965
 1371TIP3    H225605   0.779   6.794  11.517 -0.8676 -0.9687  1.1184
 1372TIP3   OH225606   3.793   3.463   0.467 -0.2202 -0.5510 -0.5652
 1372TIP3    H125607   3.873   3.418   0.437  1.2294  0.8277  1.1062
 1372TIP3    H225608   3.790   3.444   0.561 -2.1247 -0.9319 -0.6954
 1373TIP3   OH225609   3.871   5.846  11.539  0.0350 -0.1032 -0.0742
 1373TIP3    H125610   3.897   5.901  11.464  1.4899  0.4122  0.7973
 1373TIP3    H225611   3.782   5.875  11.560  1.0693  2.4995  0.8807
 1374TIP3   OH225612   5.506   0.028   2.544 -0.3211  0.3451  0.2278
 1374TIP3    H125613   5.529  -0.058   2.507  1.1420  0.9532 -0.2945
 1374TIP3    H225614   5.422   0.049   2.504 -0.8663 -0.9864  0.6140
 1375TIP3   OH225615   1.429   6.695   3.948  0.2363 -0.2507 -0.3222
 1375TIP3    H125616   1.339   6.672   3.972 -0.1654  2.0394  0.5506
 1375TIP3    H225617   1.481   6.673   4.026 -0.1549  1.6317  0.5277
 1376TIP3   OH225618   3.915   5.348  11.377  0.2124 -0.3148  0.1042
 1376TIP3    H125619   4.011   5.354  11.376  0.2182 -0.5072 -0.7555
 1376TIP3    H225620   3.887   5.422  11.430  0.7605  0.8302 -1.1937
 1377TIP3   OH225621   5.911   6.008   4.895  0.2264  0.1240 -0.4663
 1377TIP3    H125622   5.836   6.011   4.955 -0.6268  0.6779 -1.5421
 1377TIP3    H225623   5.980   5.964   4.945  0.2749  2.5390  1.7432
 1378TIP3   OH225624   3.135   3.097  12.033  0.1483 -0.2550 -0.4987
 1378TIP3    H125625   3.228   3.074  12.026 -0.3022 -1.6179 -2.7471
 1378TIP3    H225626   3.131   3.189  12.007  0.6698 -0.7244 -2.3792
 1379TIP3   OH225627   6.115   0.993  15.058  0.0502  0.9148  0.4721
 1379TIP3    H125628   6.063   0.914  15.069  1.2573  0.0291 -0.1567
 1379TIP3    H225629   6.108   1.014  14.965 -0.2837  1.5831  0.6367
 1380TIP3   OH225630   2.229   1.257  14.195 -0.5789 -0.0942 -0.9419
 1380TIP3    H125631   2.320   1.230  14.182 -0.7303 -0.4337 -1.3150
 1380TIP3    H225632   2.179   1.176  14.185 -0.7799 -0.1985  0.8595
 1381TIP3   OH225633   5.917   0.097   4.028  0.8700  0.4193  0.6311
 1381TIP3    H125634   5.832   0.056   4.040  1.7697 -1.1916  1.6962
 1381TIP3    H225635   5.931   0.149   4.107  0.5242  1.3597  0.0843
 1382TIP3   OH225636   5.030   2.259   2.493  0.3188 -0.1717  0.1342
 1382TIP3    H125637   4.936   2.270   2.503  0.6321  3.7942 -0.3977
 1382TIP3    H225638   5.067   2.285   2.578  0.9657 -1.9672  0.4346
 1383TIP3   OH225639   0.444   5.757  13.977 -0.6485  0.7982  0.3154
 1383TIP3    H125640   0.486   5.692  14.034 -0.8141  0.6024  0.2147
 1383TIP3    H225641   0.393   5.811  14.036 -1.7280 -0.1037  0.2292
 1384TIP3   OH225642   3.582   2.868  16.634  0.3305  0.0621 -0.1312
 1384TIP3    H125643   3.613   2.953  16.605 -2.0374  0.5905 -1.2985
 1384TIP3    H225644   3.558   2.880  16.726  0.0763  0.6435 -0.2727
 1385TIP3   OH225645   4.405   3.043   6.215  0.1211 -1.0497 -0.2221
 1385TIP3    H125646   4.478   3.084   6.169  0.1171 -0.7885  0.0040
 1385TIP3    H225647   4.330   3.099   6.198  0.5108  0.0617  1.6124
 1386TIP3   OH225648   2.644   1.550  11.805  0.2116 -0.0970  0.1272
 1386TIP3    H125649   2.643   1.525  11.713 -0.1014 -0.4592  0.2244
 1386TIP3    H225650   2.736   1.548  11.830  0.3304  0.3640 -0.2758
 1387TIP3   OH225651   4.122   5.410  14.316 -0.3718 -0.1456  0.6709
 1387TIP3    H125652   4.178   5.351  14.366  0.3476 -1.0633 -1.1639
 1387TIP3    H225653   4.146   5.497  14.348 -0.2122 -0.7171  2.1774
 1388TIP3   OH225654   4.157   3.293   4.897  0.5633 -0.3329  0.3373
 1388TIP3    H125655   4.117   3.266   4.815 -0.9493 -0.9193  1.2494
 1388TIP3    H225656   4.126   3.382   4.912  1.1722 -0.0727  0.0732
 1389TIP3   OH225657   4.448   1.329  11.322  0.4967  0.3201 -0.4637
 1389TIP3    H125658   4.483   1.379  11.396 -1.3785 -1.5966  1.7835
 1389TIP3    H225659   4.516   1.264  11.302 -0.0764 -0.8500  1.3126
 1390TIP3   OH225660   0.455   3.005  12.214 -0.3223  0.2823  0.1867
 1390TIP3    H125661   0.514   2.946  12.167 -0.1747  0.1280  0.5581
 1390TIP3    H225662   0.394   3.037  12.148  2.0087  2.8006 -0.8140
 1391TIP3   OH225663   3.329   0.131  14.762 -0.0682 -0.2554  0.0634
 1391TIP3    H125664   3.259   0.066  14.750  1.0596 -1.4750 -0.0015
 1391TIP3    H225665   3.284   0.207  14.799 -1.1805 -1.5870  1.5207
 1392TIP3   OH225666   5.694   5.226  14.309  0.0243 -0.5582  0.4465
 1392TIP3    H125667   5.725   5.282  14.238  2.5377 -1.9060  0.4165
 1392TIP3    H225668   5.699   5.281  14.388 -1.1183  0.3952 -0.1320
 1393TIP3   OH225669   6.736   3.641   4.684  0.4429  0.1356  0.5051
 1393TIP3    H125670   6.827   3.653   4.660  0.4345  1.7858  1.2090
 1393TIP3    H225671   6.693   3.610   4.605  1.2722  1.0951 -0.3267
 1394TIP3   OH225672   3.640   1.954   3.266  0.3216  0.1360 -0.8023
 1394TIP3    H125673   3.721   1.978   3.313 -0.2529 -0.6635  0.6333
 1394TIP3    H225674   3.595   1.894   3.326 -0.0950 -1.4907 -2.7024
 1395TIP3   OH225675   6.426   0.731  15.015 -0.4713  0.3291  0.3739
 1395TIP3    H125676   6.500   0.692  14.968 -0.2908  0.0844  0.8528
 1395TIP3    H225677   6.356   0.734  14.951  0.9114  3.5896 -1.0714
 1396TIP3   OH225678   6.348   3.869  13.116  0.5015  0.5722 -0.4557
 1396TIP3    H125679   6.308   3.955  13.105  0.6301  0.5395 -1.1939
 1396TIP3    H225680   6.280   3.807  13.090  0.1949  0.4275  0.6899
 1397TIP3   OH225681   5.416   1.151   1.846 -0.1122 -0.0193  0.4260
 1397TIP3    H125682   5.441   1.220   1.907 -0.6531  0.0577  0.5595
 1397TIP3    H225683   5.477   1.161   1.773  0.6103 -0.1853  1.0019
 1398TIP3   OH225684   6.085   0.217   6.387 -0.4661  0.1467 -0.5638
 1398TIP3    H125685   6.135   0.157   6.332  0.1768 -0.1078  0.2780
 1398TIP3    H225686   6.141   0.231   6.463 -1.9406 -0.6224  0.6960
 1399TIP3   OH225687   2.049   6.431   4.604 -0.4897 -0.1656  0.1540
 1399TIP3    H125688   2.117   6.371   4.634  0.3903  0.0672 -1.2631
 1399TIP3    H225689   2.057   6.507   4.661 -0.1822 -0.5237  0.5915
 1400TIP3   OH225690   5.369   2.030  10.224 -0.5413 -0.6542 -0.3744
 1400TIP3    H125691   5.363   2.098  10.291  0.3980 -2.1726  1.2818
 1400TIP3    H225692   5.408   2.075  10.148  0.0497  0.6599  0.6789
 1401TIP3   OH225693   4.079   2.282   3.398  0.0953 -0.3081  0.3728
 1401TIP3    H125694   4.119   2.256   3.481  0.3041 -0.2165  0.3013
 1401TIP3    H225695   4.106   2.214   3.336  2.4874  1.2343 -0.3331
 1402TIP3   OH225696   2.537   0.665  13.219 -0.0736 -0.0274 -0.4678
 1402TIP3    H125697   2.453   0.671  13.264  0.1312  3.0612 -0.3716
 1402TIP3    H225698   2.566   0.756  13.210  3.4133 -1.0454 -0.2350
 1403TIP3   OH225699   4.874   4.520  17.049  0.0120  0.2640 -0.3466
 1403TIP3    H125700   4.791   4.553  17.082  0.0979  1.6446 -1.4300
 1403TIP3    H225701   4.928   4.507  17.127 -0.9403  0.1562  0.2926
 1404TIP3   OH225702   1.959   0.022   2.559 -0.2558 -0.4558  0.2010
 1404TIP3    H125703   2.027  -0.039   2.531 -0.2984 -0.0681 -0.7726
 1404TIP3    H225704   2.006   0.090   2.607 -0.0511 -0.5998  0.2064
 1405TIP3   OH225705   1.725   4.264   5.952 -0.3688 -0.4216 -0.1888
 1405TIP3    H125706   1.667   4.319   5.899  0.8367  0.1746 -0.9156
 1405TIP3    H225707   1.689   4.270   6.040  1.0044  3.4553  0.2311
 1406TIP3   OH225708   5.448   0.635  14.299 -0.5713 -0.6337  0.0783
 1406TIP3    H125709   5.451   0.543  14.326 -2.6232 -0.7483 -0.0264
 1406TIP3    H225710   5.357   0.661  14.311  0.4229  2.0943  2.3782
 1407TIP3   OH225711   0.812   0.797   0.301  0.6014  0.5826  0.0087
 1407TIP3    H125712   0.763   0.733   0.354  1.6630 -0.9912 -0.8530
 1407TIP3    H225713   0.744   0.848   0.257 -0.2974 -1.5957 -1.1982
 1408TIP3   OH225714   3.880   3.759   0.319  0.0057  0.4322  0.1941
 1408TIP3    H125715   3.827   3.680   0.332  0.6078 -0.2684 -1.5554
 1408TIP3    H225716   3.849   3.795   0.236  1.1952  0.8782 -0.0648
 1409TIP3   OH225717   4.842   0.438   4.300  0.1066 -0.2167  0.3202
 1409TIP3    H125718   4.808   0.398   4.380  0.6152  1.1224  1.2326
 1409TIP3    H225719   4.910   0.378   4.270  0.4546 -0.3518  1.3466
 1410TIP3   OH225720   0.109   2.919  14.662 -0.0623  0.0774 -0.5596
 1410TIP3    H125721   0.201   2.896  14.656 -0.1935 -0.7522  0.4799
 1410TIP3    H225722   0.090   2.919  14.756 -0.8279  1.4223 -0.7003
 1411TIP3   OH225723   6.061   3.144  15.191 -0.3349 -0.4567  0.0023
 1411TIP3    H125724   6.094   3.103  15.271 -0.9019 -1.1420 -0.1045
 1411TIP3    H225725   5.966   3.136  15.199 -0.3824 -0.8102 -0.8799
 1412TIP3   OH225726   6.215   5.964  11.298  0.3154 -0.0120  0.1095
 1412TIP3    H125727   6.298   5.930  11.262  2.0750  4.5192 -0.4401
 1412TIP3    H225728   6.205   5.918  11.381  3.5249 -0.5061  0.2910
 1413TIP3   OH225729   2.594   6.637   3.940 -0.5663 -0.4625  0.5542
 1413TIP3    H125730   2.592   6.548   3.976 -0.1027 -1.1900 -1.1528
 1413TIP3    H225731   2.503   6.654   3.915 -0.9329  0.1343  2.2292
 1414TIP3   OH225732   0.629   0.954   0.197  0.5079  0.8051  0.0692
 1414TIP3    H125733   0.628   1.050   0.189  0.9345  0.7082 -1.4219
 1414TIP3    H225734   0.571   0.924   0.126  1.8513 -0.0917 -0.6743
 1415TIP3   OH225735   5.063   3.538  12.665  0.3539  0.3678 -0.0907
 1415TIP3    H125736   5.133   3.592  12.700  0.5567  0.2776 -0.3598
 1415TIP3    H225737   4.985   3.566  12.713  0.6643  0.1018  0.5693
 1416TIP3   OH225738   0.860   1.635   1.615  0.2421 -0.3497  0.0129
 1416TIP3    H125739   0.788   1.597   1.565 -0.2044  0.7416 -0.1935
 1416TIP3    H225740   0.842   1.730   1.615  2.5791  0.1318 -1.5174
 1417TIP3   OH225741   6.295   2.056  15.305 -0.8994  0.3757 -0.0378
 1417TIP3    H125742   6.343   2.132  15.271 -0.5232  0.2568  0.2308
 1417TIP3    H225743   6.360   1.986  15.310 -0.8775  0.4666  1.1888
 1418TIP3   OH225744   2.499   4.836   0.695 -0.3762 -0.8012 -0.0664
 1418TIP3    H125745   2.508   4.802   0.606 -0.5210  1.7455 -1.0877
 1418TIP3    H225746   2.588   4.863   0.719 -0.5809 -0.2155  0.0371
 1419TIP3   OH225747   6.783   4.058   5.890  0.0006 -0.4677 -0.5198
 1419TIP3    H125748   6.710   4.071   5.950 -0.2667  1.1463 -1.1531
 1419TIP3    H225749   6.828   4.143   5.888  2.0835 -1.5285  0.0990
 1420TIP3   OH225750   0.816   4.008   5.424 -0.4438  0.3632 -0.2426
 1420TIP3    H125751   0.853   3.974   5.343 -1.5189  1.2174 -1.1008
 1420TIP3    H225752   0.805   4.102   5.408 -3.1280  0.1209 -0.0843
 1421TIP3   OH225753   1.136   0.448   5.384 -0.1092  0.0861  0.4892
 1421TIP3    H125754   1.223   0.452   5.425  0.5506  0.5670 -0.9388
 1421TIP3    H225755   1.121   0.536   5.351 -0.8246 -0.1896  0.0636
 1422TIP3   OH225756   4.837   2.819  11.539 -0.1144  0.1820 -0.5004
 1422TIP3    H125757   4.766   2.798  11.479  0.6348 -2.8018 -0.4285
 1422TIP3    H225758   4.879   2.735  11.557  2.2646  1.6104  0.9295
 1423TIP3   OH225759   4.329   2.724  11.899  0.0205 -0.1206 -0.4539
 1423TIP3    H125760   4.356   2.671  11.974 -0.6866 -0.0357 -0.1327
 1423TIP3    H225761   4.235   2.738  11.912 -0.4011 -1.3320 -2.1350
 1424TIP3   OH225762   2.886   2.291  14.864 -0.2140  0.2380 -0.0212
 1424TIP3    H125763   2.929   2.302  14.779 -0.5532  0.4432 -0.1645
 1424TIP3    H225764   2.953   2.317  14.928 -0.1247  0.5661 -0.2467
 1425TIP3   OH225765   4.386   2.426   4.703 -0.4790 -0.3171  0.8687
 1425TIP3    H125766   4.373   2.347   4.754  0.0180  0.6864  2.6079
 1425TIP3    H225767   4.436   2.484   4.760 -1.7392  1.6593  0.0616
 1426TIP3   OH225768   5.824   5.723   5.137  0.3902  0.9154  0.0136
 1426TIP3    H125769   5.806   5.794   5.197 -2.4957 -0.6931  1.1343
 1426TIP3    H225770   5.861   5.654   5.192  1.3330  0.8279 -0.7224
 1427TIP3   OH225771   4.506   1.389   3.291  0.1005 -0.2063 -0.0856
 1427TIP3    H125772   4.595   1.390   3.326 -0.3532 -1.8403  1.1929
 1427TIP3    H225773   4.456   1.337   3.354 -1.5843 -0.0000 -1.2138
 1428TIP3   OH225774   3.419   0.906   4.645  0.9736  0.3126  0.2690
 1428TIP3    H125775   3.350   0.908   4.711  0.7845 -2.4979  0.2356
 1428TIP3    H225776   3.472   0.830   4.669  2.9386  1.3146 -0.8135
 1429TIP3   OH225777   0.635   2.114   3.915 -0.2041 -0.2559  0.0026
 1429TIP3    H125778   0.683   2.053   3.972 -0.7535 -0.5486  0.1585
 1429TIP3    H225779   0.655   2.084   3.827  0.2003 -0.1448  0.0532
 1430TIP3   OH225780   0.740   3.562  11.152  0.7024  0.5106 -0.2945
 1430TIP3    H125781   0.751   3.471  11.123  2.1096  1.0395 -1.4621
 1430TIP3    H225782   0.696   3.605  11.078 -0.5343  0.6511  0.5054
 1431TIP3   OH225783   2.562   6.329  12.041 -0.1658 -0.0277  0.3828
 1431TIP3    H125784   2.524   6.241  12.049  0.8323 -0.4907  0.1744
 1431TIP3    H225785   2.521   6.366  11.962 -0.9736 -0.1068  0.7647
 1432TIP3   OH225786   5.076   6.739  11.923 -0.3863  0.1272  0.2882
 1432TIP3    H125787   5.005   6.694  11.969 -3.0864  0.5133 -3.2887
 1432TIP3    H225788   5.094   6.816  11.976 -1.2933 -0.9831  2.2704
 1433TIP3   OH225789   1.040   0.709   6.442 -0.0100 -0.5902  0.0514
 1433TIP3    H125790   1.129   0.734   6.418  0.3687 -2.5259 -0.6658
 1433TIP3    H225791   1.051   0.637   6.504 -1.0777 -1.3493 -0.6262
 1434TIP3   OH225792   3.772   3.257   3.170 -0.2923 -0.1580 -0.7449
 1434TIP3    H125793   3.765   3.167   3.202 -2.2762 -0.0237 -0.6932
 1434TIP3    H225794   3.862   3.266   3.140 -0.1619 -2.2595 -1.0264
 1435TIP3   OH225795   1.003   6.165   0.782  0.2638  0.0933  0.6342
 1435TIP3    H125796   0.964   6.185   0.867 -3.0280 -1.2484 -0.5234
 1435TIP3    H225797   1.009   6.070   0.779  3.8300  0.2287  0.8018
 1436TIP3   OH225798   1.754   5.498   2.035  0.2644 -0.4055  0.4480
 1436TIP3    H125799   1.735   5.418   2.084 -0.2832 -0.6711 -0.1882
 1436TIP3    H225800   1.736   5.568   2.097  1.1418 -0.7839  1.1406
 1437TIP3   OH225801   5.701   0.281   0.185  0.7364  0.2907 -0.2460
 1437TIP3    H125802   5.676   0.234   0.105  1.3589 -0.4427 -0.0172
 1437TIP3    H225803   5.697   0.374   0.160 -1.1404  0.1530 -0.5073
 1438TIP3   OH225804   2.552   0.950  15.642  0.1986 -0.2592 -0.1605
 1438TIP3    H125805   2.516   0.903  15.567  0.4921  0.8485 -1.0109
 1438TIP3    H225806   2.632   0.991  15.609 -0.6563  1.7938  0.2327
 1439TIP3   OH225807   4.996   0.906  15.273 -0.0042  0.6204  0.2950
 1439TIP3    H125808   5.065   0.841  15.269 -0.9488 -0.4580  1.1948
 1439TIP3    H225809   5.040   0.989  15.255  1.0599 -0.3418 -1.6480
 1440TIP3   OH225810   0.681   2.969   3.315  0.3271 -0.0818 -0.4585
 1440TIP3    H125811   0.606   2.913   3.294  0.7238 -0.8911  0.2561
 1440TIP3    H225812   0.740   2.960   3.240 -0.7891  1.4531 -1.5532
 1441TIP3   OH225813   3.024   3.565  11.852  0.0106 -0.7663  0.2143
 1441TIP3    H125814   2.998   3.473  11.847 -2.5594 -0.0606 -0.3825
 1441TIP3    H225815   2.943   3.612  11.873  1.5482  1.2359  1.9785
 1442TIP3   OH225816   0.891   5.524  12.801  0.4024  0.5631  1.0211
 1442TIP3    H125817   0.890   5.516  12.706  1.9714  1.8226  0.8815
 1442TIP3    H225818   0.903   5.434  12.832  2.5980  0.4229 -0.0685
 1443TIP3   OH225819   1.657   3.569   6.062  0.0802  0.0631 -0.0477
 1443TIP3    H125820   1.695   3.506   6.124  0.8428 -0.5255 -1.1038
 1443TIP3    H225821   1.564   3.571   6.084  0.2088 -0.7534  0.5833
 1444TIP3   OH225822   1.503   4.291   4.741  0.3660 -0.3168  0.3069
 1444TIP3    H125823   1.441   4.230   4.700  0.4146  0.1235 -0.4508
 1444TIP3    H225824   1.587   4.247   4.736  0.4104 -0.1739 -0.2884
 1445TIP3   OH225825   1.458   4.220   2.955 -0.3612 -0.0903  0.8014
 1445TIP3    H125826   1.467   4.208   3.050  0.2124 -1.9222  0.5418
 1445TIP3    H225827   1.442   4.313   2.944  1.8146  0.5299  2.5545
 1446TIP3   OH225828   4.057   1.329  14.070 -0.0699  0.8079  0.4925
 1446TIP3    H125829   4.069   1.351  14.163  0.8251 -0.3086  0.6577
 1446TIP3    H225830   3.965   1.349  14.052 -0.7117 -0.6165  2.0876
 1447TIP3   OH225831   6.544   5.463   4.139  0.1216 -0.3497  0.5397
 1447TIP3    H125832   6.454   5.477   4.108  0.7422  0.3214 -1.0085
 1447TIP3    H225833   6.579   5.395   4.081  0.7794 -0.2423  0.8106
 1448TIP3   OH225834   2.931   1.465  16.165 -0.4890 -0.4159 -0.5500
 1448TIP3    H125835   2.908   1.466  16.072 -1.1076 -1.0989 -0.4097
 1448TIP3    H225836   2.857   1.421  16.208  0.7865 -2.0972 -0.0263
 1449TIP3   OH225837   2.475   2.861  13.961  0.2756 -0.5264  0.3813
 1449TIP3    H125838   2.497   2.828  14.048  2.8845 -0.4554 -0.2129
 1449TIP3    H225839   2.479   2.956  13.969 -2.8617 -0.3849  0.9831
 1450TIP3   OH225840   5.875   3.984  11.510 -0.1173  0.0975 -0.7167
 1450TIP3    H125841   5.795   3.969  11.560  0.3631 -1.4218 -0.3674
 1450TIP3    H225842   5.945   3.984  11.575  0.4482 -1.2951 -1.2995
 1451TIP3   OH225843   3.214   2.080   4.397 -0.1664 -1.1883 -0.0660
 1451TIP3    H125844   3.186   1.991   4.414  1.6690 -1.3836  2.2877
 1451TIP3    H225845   3.310   2.074   4.389 -0.0854  0.4464 -0.6003
 1452TIP3   OH225846   1.769   2.044  14.258 -0.3407  0.4230 -0.2221
 1452TIP3    H125847   1.744   2.004  14.341 -0.5522  1.5645  0.2739
 1452TIP3    H225848   1.783   1.970  14.199 -0.1584 -0.4012  0.8323
 1453TIP3   OH225849   5.490   2.100   4.412 -0.4522 -0.2910  0.1928
 1453TIP3    H125850   5.534   2.019   4.387  0.3063  0.2747 -0.3564
 1453TIP3    H225851   5.531   2.167   4.357 -1.0824  0.4562  0.6240
 1454TIP3   OH225852   0.709   3.532   2.772  0.7202 -0.2460  0.3543
 1454TIP3    H125853   0.671   3.618   2.787 -0.7962 -0.9380  0.6117
 1454TIP3    H225854   0.780   3.525   2.836  0.2614  0.4387  0.9378
 1455TIP3   OH225855   1.335   4.229  13.046 -0.4996  0.3374 -0.0162
 1455TIP3    H125856   1.281   4.292  13.095 -2.7159 -0.9248 -0.7834
 1455TIP3    H225857   1.305   4.238  12.955 -1.0132 -1.9864 -0.0972
 1456TIP3   OH225858   4.675   2.796  10.598 -0.1425 -0.8880  0.1053
 1456TIP3    H125859   4.610   2.741  10.554  0.4767 -0.5535 -1.2661
 1456TIP3    H225860   4.654   2.885  10.568  0.3538 -0.6653  0.4212
 1457TIP3   OH225861   5.112   2.645  11.118  0.1715 -0.7377 -0.2793
 1457TIP3    H125862   5.162   2.632  11.037 -0.6677 -0.6994 -0.8154
 1457TIP3    H225863   5.021   2.643  11.090 -0.0999  2.9061  0.1155
 1458TIP3   OH225864   5.757   5.161  15.007 -0.0043  0.2595  0.0866
 1458TIP3    H125865   5.662   5.162  15.020  0.0319  0.1556  0.3532
 1458TIP3    H225866   5.794   5.171  15.094  0.2343 -0.0843  0.0250
 1459TIP3   OH225867   2.575   0.415   3.114  0.2153 -0.0916  0.3936
 1459TIP3    H125868   2.561   0.328   3.152 -2.1368  0.3626  0.6414
 1459TIP3    H225869   2.667   0.434   3.130  0.4667 -2.0603  1.3549
 1460TIP3   OH225870   1.694   5.112  10.696  0.1133  0.3954 -0.6183
 1460TIP3    H125871   1.778   5.069  10.710 -1.1189 -1.2719  2.1000
 1460TIP3    H225872   1.716   5.200  10.666  2.7671 -0.6127 -1.7393
 1461TIP3   OH225873   1.273   5.038   3.876 -0.1154 -0.2390 -0.9295
 1461TIP3    H125874   1.341   5.043   3.943 -1.4344 -2.4304  0.6522
 1461TIP3    H225875   1.194   5.070   3.919 -0.7065 -0.4812 -1.8124
 1462TIP3   OH225876   0.511   3.154  16.695 -0.0873 -0.4749  0.1387
 1462TIP3    H125877   0.424   3.130  16.662 -0.5460  0.8683  0.3360
 1462TIP3    H225878   0.496   3.180  16.786  0.6907 -1.2361  0.4864
 1463TIP3   OH225879   6.615   0.076  16.152 -0.0265 -0.7730 -0.0244
 1463TIP3    H125880   6.583  -0.004  16.193 -0.3308 -0.9690 -0.6406
 1463TIP3    H225881   6.568   0.081  16.068  0.0203  0.0203 -0.0149
 1464TIP3   OH225882   3.240   1.177   3.276 -0.4622 -0.4171  0.1817
 1464TIP3    H125883   3.262   1.269   3.265  1.5117 -0.5304  2.6621
 1464TIP3    H225884   3.311   1.130   3.233 -1.8168 -0.8198 -1.6796
 1465TIP3   OH225885   1.186   0.476   2.069 -0.4657 -0.0021 -0.7662
 1465TIP3    H125886   1.255   0.439   2.014 -0.5619  0.1938 -1.0159
 1465TIP3    H225887   1.219   0.563   2.093  1.2680 -1.4693  2.5055
 1466TIP3   OH225888   4.246   4.971   3.941  0.2090  0.2798 -0.2451
 1466TIP3    H125889   4.219   5.042   3.999  3.1791 -0.4708  2.2085
 1466TIP3    H225890   4.278   4.902   4.000 -1.2855 -2.5683 -2.6069
 1467TIP3   OH225891   0.241   3.308   6.504 -0.0747  0.2171  0.3734
 1467TIP3    H125892   0.229   3.274   6.592  0.4273  2.0008  1.1667
 1467TIP3    H225893   0.202   3.396   6.507 -0.1471  0.2447 -1.2000
 1468TIP3   OH225894   6.171   0.784   5.059 -0.5524 -0.3229  0.3312
 1468TIP3    H125895   6.256   0.768   5.019 -1.0448  0.3609 -1.0329
 1468TIP3    H225896   6.147   0.872   5.030 -2.5396 -1.1981 -0.8527
 1469TIP3   OH225897   3.111   0.020  13.004  0.0659 -0.6974 -0.0506
 1469TIP3    H125898   3.122   0.042  13.096 -3.2001 -1.4954  0.5961
 1469TIP3    H225899   3.049  -0.053  13.004  1.4370 -1.9434 -2.7994
 1470TIP3   OH225900   5.861   5.015   6.362 -0.0928  0.1139  0.6832
 1470TIP3    H125901   5.865   4.926   6.327  1.3434  0.3786  0.1570
 1470TIP3    H225902   5.770   5.042   6.346  0.2729 -0.1418 -1.9368
 1471TIP3   OH225903   1.753   1.191  15.972 -0.0842 -0.1293 -0.1978
 1471TIP3    H125904   1.699   1.257  15.928 -1.2507 -0.3417  0.8821
 1471TIP3    H225905   1.819   1.167  15.907 -1.5443 -0.1746 -1.6886
 1472TIP3   OH225906   6.442   1.098  16.697  0.5960  0.3721  0.6983
 1472TIP3    H125907   6.408   1.009  16.695  0.3193  0.4613  1.2529
 1472TIP3    H225908   6.391   1.144  16.631 -0.3678  0.4973  1.5046
 1473TIP3   OH225909   5.287   4.620   2.272  0.3152  0.3709 -0.3961
 1473TIP3    H125910   5.336   4.699   2.247 -0.8828  1.0161 -0.7716
 1473TIP3    H225911   5.244   4.644   2.355  0.0412  0.0746 -0.4514
 1474TIP3   OH225912   5.988   1.456   1.181  0.3987  0.1371  0.7132
 1474TIP3    H125913   6.019   1.432   1.268  1.4810 -2.0991 -0.2645
 1474TIP3    H225914   6.015   1.384   1.125 -1.2552  1.0313 -1.2884
 1475TIP3   OH225915   3.659   1.485  12.219 -0.1438 -0.3575 -0.0114
 1475TIP3    H125916   3.652   1.580  12.229 -1.0918 -0.4785  0.5270
 1475TIP3    H225917   3.699   1.455  12.301 -1.6303 -0.6225  0.6307
 1476TIP3   OH225918   2.019   4.455  15.980  0.1653  0.0507 -0.1555
 1476TIP3    H125919   2.047   4.364  15.979  0.6411  0.1968 -0.4253
 1476TIP3    H225920   1.928   4.453  15.951  0.4655 -0.2393 -1.0830
 1477TIP3   OH225921   6.478   5.061  12.494 -0.2597 -0.7298 -0.0863
 1477TIP3    H125922   6.506   5.022  12.577  2.3165  1.5874  0.2176
 1477TIP3    H225923   6.435   5.142  12.520  2.0396  0.8578 -0.9968
 1478TIP3   OH225924   1.431   1.355  16.578 -0.2832  0.1300 -0.2119
 1478TIP3    H125925   1.455   1.430  16.524  2.0013 -0.5828 -0.2241
 1478TIP3    H225926   1.511   1.333  16.626 -1.3165 -1.4223  0.8421
 1479TIP3   OH225927   4.846   1.464   0.218 -0.6022  0.1497  0.2121
 1479TIP3    H125928   4.808   1.377   0.233  0.4261 -0.4201 -0.3994
 1479TIP3    H225929   4.840   1.508   0.302  1.5710 -1.6008  1.3438
 1480TIP3   OH225930   1.995   4.836  13.048  1.1209 -0.3818 -0.7779
 1480TIP3    H125931   1.911   4.844  13.094  2.1433  0.4601  0.9749
 1480TIP3    H225932   1.970   4.825  12.956 -0.9361 -1.4616 -0.1280
 1481TIP3   OH225933   4.168   3.374   2.896  0.0029 -0.2168  0.2473
 1481TIP3    H125934   4.130   3.391   2.810 -0.1904  1.7714  0.7037
 1481TIP3    H225935   4.260   3.354   2.878 -0.2091 -0.5605 -0.4791
 1482TIP3   OH225936   0.904   6.195  12.524  0.0544 -0.3450 -0.5977
 1482TIP3    H125937   0.960   6.215  12.599  1.6565 -0.0356 -1.8374
 1482TIP3    H225938   0.958   6.138  12.468 -1.4636 -1.3512 -1.0488
 1483TIP3   OH225939   0.211   0.559  11.835  0.7565  0.2027  0.3995
 1483TIP3    H125940   0.124   0.524  11.853  0.9026  0.1710  1.0601
 1483TIP3    H225941   0.196   0.645  11.796  0.4446  0.5321  1.2421
 1484TIP3   OH225942   3.618   4.445   3.743 -0.4309  0.5059  0.4364
 1484TIP3    H125943   3.589   4.502   3.814 -0.3752  2.0541 -0.7403
 1484TIP3    H225944   3.679   4.383   3.783 -2.7504 -0.6348  2.3165
 1485TIP3   OH225945   5.558   0.253  16.157 -0.6259 -0.0690 -0.1939
 1485TIP3    H125946   5.628   0.257  16.093  0.7247 -2.1652  1.0814
 1485TIP3    H225947   5.538   0.344  16.178  0.1591  0.5831 -2.2159
 1486TIP3   OH225948   4.905   2.902   2.609  0.0293 -0.1078 -0.0801
 1486TIP3    H125949   4.816   2.878   2.633  0.2732 -1.3710 -0.3812
 1486TIP3    H225950   4.913   2.874   2.518  0.2296  1.4582 -0.5683
 1487TIP3   OH225951   6.324   3.841  14.153 -1.3070 -0.2147  0.7289
 1487TIP3    H125952   6.369   3.776  14.100 -0.5149  0.2357  0.8453
 1487TIP3    H225953   6.236   3.845  14.116 -1.3908 -1.4149  0.7796
 1488TIP3   OH225954   2.773   0.807  15.787  0.3437  0.7132 -0.6406
 1488TIP3    H125955   2.717   0.884  15.777 -0.0442  0.3152 -1.5653
 1488TIP3    H225956   2.784   0.798  15.882 -0.2315  1.4607 -0.4976
 1489TIP3   OH225957   0.635   5.228   4.306  0.0258  0.3517 -0.2312
 1489TIP3    H125958   0.697   5.267   4.369 -2.4774  0.0884  2.5220
 1489TIP3    H225959   0.553   5.275   4.322 -1.2302 -1.2635 -1.7864
 1490TIP3   OH225960   0.794   4.758   0.092 -0.1544  0.4468  0.6038
 1490TIP3    H125961   0.797   4.692   0.023  0.6640  0.9656  0.1283
 1490TIP3    H225962   0.874   4.809   0.079 -0.1364  0.7205  1.7680
 1491TIP3   OH225963   4.444   5.236  17.209  0.3820 -0.4409  0.4806
 1491TIP3    H125964   4.399   5.185  17.276 -0.9580  1.8068  1.3257
 1491TIP3    H225965   4.537   5.230  17.231  0.1486 -1.6940  1.1229
 1492TIP3   OH225966   5.591   5.982  11.241  0.4858  0.2001  0.3485
 1492TIP3    H125967   5.638   5.968  11.324 -0.0989  0.8040  0.7901
 1492TIP3    H225968   5.543   5.900  11.227  1.3327 -0.2638  0.1089
 1493TIP3   OH225969   3.965   1.630   0.795 -0.1268  0.1456 -0.2543
 1493TIP3    H125970   3.942   1.545   0.833  0.8312 -0.0193 -0.0095
 1493TIP3    H225971   4.025   1.669   0.859 -1.0357  1.2734 -0.0867
 1494TIP3   OH225972   3.127   4.368   4.095 -0.5260  0.4798  0.4949
 1494TIP3    H125973   3.080   4.436   4.046 -0.0711  1.1182  0.9278
 1494TIP3    H225974   3.077   4.359   4.176 -0.4795  0.4369  0.5180
 1495TIP3   OH225975   1.814   2.442  11.363  0.0324 -0.4113  0.1194
 1495TIP3    H125976   1.795   2.367  11.306 -0.3275  0.3865 -0.8320
 1495TIP3    H225977   1.727   2.472  11.392  0.2193 -0.8939  1.2041
 1496TIP3   OH225978   1.964   2.555   3.207  0.4092  0.1062 -0.1777
 1496TIP3    H125979   1.891   2.566   3.146 -0.2672  0.5600  0.6939
 1496TIP3    H225980   1.958   2.631   3.264  0.1803 -1.0074  1.3196
 1497TIP3   OH225981   5.381   1.750  15.169 -0.0315  0.0565 -0.9369
 1497TIP3    H125982   5.419   1.802  15.239 -0.9261 -2.6910  1.6698
 1497TIP3    H225983   5.297   1.792  15.150 -0.8115 -0.4728  1.2385
 1498TIP3   OH225984   4.290   1.033  13.841  0.2671  0.2684  0.2899
 1498TIP3    H125985   4.266   0.977  13.914 -3.8925  1.9338  0.3312
 1498TIP3    H225986   4.306   1.119  13.880 -0.8769  0.8965 -0.5721
 1499TIP3   OH225987   3.593   5.766   4.006  0.0937  0.6083  0.5460
 1499TIP3    H125988   3.550   5.681   3.997 -0.7555  1.0197  0.7299
 1499TIP3    H225989   3.668   5.748   4.064 -0.7173  0.2182  1.4872
 1500TIP3   OH225990   5.436   5.641   1.943 -0.1518 -0.3121 -0.1914
 1500TIP3    H125991   5.458   5.550   1.922  0.7108 -0.2807  0.5287
 1500TIP3    H225992   5.386   5.636   2.024 -0.7683 -0.1932 -0.5579
 1501TIP3   OH225993   6.588   6.233   1.029 -0.0960 -0.1549  0.1118
 1501TIP3    H125994   6.599   6.300   0.962  0.8741 -0.6033 -0.2021
 1501TIP3    H225995   6.514   6.180   0.998 -0.1922  0.1430 -0.1731
 1502TIP3   OH225996   6.700   3.555   2.740  0.0218  0.2539  0.1717
 1502TIP3    H125997   6.637   3.521   2.803  0.6338  0.9238  1.1628
 1502TIP3    H225998   6.761   3.483   2.726 -1.3819 -0.6579 -1.3769
 1503TIP3   OH225999   3.610   0.492  17.218  0.0826 -0.3509 -0.2011
 1503TIP3    H126000   3.626   0.586  17.228  1.1161 -0.5238 -0.1574
 1503TIP3    H226001   3.671   0.450  17.279 -0.5753 -1.0407 -0.0055
 1504TIP3   OH226002   2.744   5.716  11.216  0.1710 -0.0838  0.2300
 1504TIP3    H126003   2.767   5.801  11.179  0.2527  0.3683  1.3261
 1504TIP3    H226004   2.817   5.659  11.191  0.7597  0.4855  0.6377
 1505TIP3   OH226005   6.092   5.214   0.082  0.0558 -0.4529 -0.0660
 1505TIP3    H126006   6.044   5.143   0.123 -1.6231 -1.2560 -3.2340
 1505TIP3    H226007   6.027   5.285   0.073  1.1377  0.7185  1.1442
 1506TIP3   OH226008   2.800   0.330  10.532 -0.3094  0.1262  0.0629
 1506TIP3    H126009   2.878   0.380  10.555 -0.9836  2.1149 -1.7768
 1506TIP3    H226010   2.727   0.385  10.559 -1.0605 -0.4473 -0.7587
 1507TIP3   OH226011   3.494   1.118  14.464 -0.4009  0.6111  0.4851
 1507TIP3    H126012   3.574   1.163  14.492 -0.0278 -0.1246  0.6283
 1507TIP3    H226013   3.519   1.026  14.463 -1.4727  0.3108  1.2626
 1508TIP3   OH226014   0.571   3.298   2.855  0.0937 -0.2103 -0.0938
 1508TIP3    H126015   0.642   3.234   2.849  2.0232  1.7008  1.5483
 1508TIP3    H226016   0.612   3.381   2.831 -0.7294  1.4609  3.9408
 1509TIP3   OH226017   0.840   2.713   2.496  0.1070 -0.1422 -0.2258
 1509TIP3    H126018   0.892   2.741   2.421  0.4169 -1.7870 -0.6349
 1509TIP3    H226019   0.794   2.635   2.466  0.5238 -1.0371  1.3916
 1510TIP3   OH226020   4.733   4.437  11.454  0.9700 -0.4186 -0.3681
 1510TIP3    H126021   4.738   4.532  11.439  1.1497 -0.4837 -0.7194
 1510TIP3    H226022   4.699   4.402  11.372  1.5658 -0.7366 -0.4760
 1511TIP3   OH226023   2.315   2.212   6.077 -0.1461 -0.4730  1.2465
 1511TIP3    H126024   2.349   2.301   6.092 -0.7246 -0.2220  1.0754
 1511TIP3    H226025   2.345   2.162   6.153  0.5115 -0.2289  1.1527
 1512TIP3   OH226026   0.760   3.895   0.683  0.5245  0.3936  0.8024
 1512TIP3    H126027   0.670   3.926   0.698 -0.3640 -2.2195  1.1336
 1512TIP3    H226028   0.815   3.971   0.702 -1.6746  2.3820 -0.5610
 1513TIP3   OH226029   5.586   4.999  16.652 -0.2061 -0.3771 -0.0252
 1513TIP3    H126030   5.660   5.042  16.693  0.0808 -0.0728 -0.8558
 1513TIP3    H226031   5.538   4.959  16.724 -0.5235  1.4024  0.7593
 1514TIP3   OH226032   4.340   2.359  15.782  0.8195  0.4828 -0.0424
 1514TIP3    H126033   4.299   2.378  15.698 -0.6028  0.7852  0.6917
 1514TIP3    H226034   4.379   2.442  15.809  0.8471  0.5127 -0.1757
 1515TIP3   OH226035   0.087   4.853   1.793  0.6951 -0.8172  0.0178
 1515TIP3    H126036   0.119   4.875   1.880  2.5411  0.0811 -0.8742
 1515TIP3    H226037   0.035   4.774   1.807 -1.4152  0.8987  2.3621
 1516TIP3   OH226038   0.800   6.510   6.226 -0.5409 -0.6432  0.5760
 1516TIP3    H126039   0.847   6.498   6.308 -0.7577  0.5549  0.8809
 1516TIP3    H226040   0.775   6.602   6.226  1.5753  0.0130 -1.9196
 1517TIP3   OH226041   3.156   4.890  16.262 -0.5571 -0.3532  0.6229
 1517TIP3    H126042   3.166   4.898  16.167 -2.5442 -0.8695  0.3597
 1517TIP3    H226043   3.151   4.796  16.278  1.5792 -0.3627  1.4609
 1518TIP3   OH226044   6.476   3.025  11.634 -0.3748  0.3721 -0.4638
 1518TIP3    H126045   6.424   3.106  11.626 -1.0795 -0.0764 -0.4886
 1518TIP3    H226046   6.457   2.976  11.554  1.5500  1.0215 -1.3484
 1519TIP3   OH226047   4.351   6.367   4.440 -0.5937 -0.1345  0.4495
 1519TIP3    H126048   4.404   6.408   4.508  2.0003 -1.1704 -0.8446
 1519TIP3    H226049   4.273   6.422   4.433  1.2396  2.6657  1.0502
 1520TIP3   OH226050   5.563   0.210   4.325 -0.3380  0.0884  0.2501
 1520TIP3    H126051   5.624   0.178   4.392 -1.0917  0.6986  1.2449
 1520TIP3    H226052   5.580   0.304   4.322  1.8770 -0.3504 -2.6628
 1521TIP3   OH226053   3.128   2.953   3.687  0.0011  0.0570  0.4861
 1521TIP3    H126054   3.068   2.958   3.762  0.9083 -2.5219  1.4605
 1521TIP3    H226055   3.214   2.973   3.724  0.2198  0.4665 -0.2335
 1522TIP3   OH226056   2.777   1.345  16.353 -0.1857  0.0804 -0.1460
 1522TIP3    H126057   2.724   1.415  16.391  0.3766  0.3606  0.1217
 1522TIP3    H226058   2.772   1.274  16.417  1.2529  0.7705  0.7471
 1523TIP3   OH226059   2.130   5.725   4.210  0.0551 -0.0614  0.3822
 1523TIP3    H126060   2.175   5.779   4.145 -0.0647 -1.1995 -0.6683
 1523TIP3    H226061   2.184   5.646   4.218 -0.2540 -0.1915  1.2030
 1524TIP3   OH226062   3.721   5.170  14.070 -0.5310  0.1563  0.3729
 1524TIP3    H126063   3.796   5.136  14.020 -0.7791  0.3766 -0.1530
 1524TIP3    H226064   3.747   5.258  14.095 -1.2431  0.8267 -1.1797
 1525TIP3   OH226065   2.153   6.181  12.555  0.1007 -0.0802 -0.1747
 1525TIP3    H126066   2.145   6.103  12.500 -1.4504  0.4553 -0.7416
 1525TIP3    H226067   2.139   6.148  12.644 -1.0681 -0.3832 -0.4587
 1526TIP3   OH226068   2.174   2.558  13.001 -0.0995  0.3154  0.5320
 1526TIP3    H126069   2.238   2.496  13.036 -1.0340 -1.2522 -0.4899
 1526TIP3    H226070   2.226   2.617  12.947  0.6430 -0.3220  0.5359
 1527TIP3   OH226071   4.178   4.070  13.437 -0.9009  0.0068  0.3658
 1527TIP3    H126072   4.222   4.130  13.498  0.5735  0.2342 -0.9256
 1527TIP3    H226073   4.201   3.983  13.468  0.4789  0.1238 -0.3112
 1528TIP3   OH226074   5.190   1.251   5.678 -0.5725 -0.0105 -0.0093
 1528TIP3    H126075   5.174   1.284   5.589 -2.4786 -1.9808 -0.4458
 1528TIP3    H226076   5.217   1.328   5.728  0.8443  1.0660 -2.3579
 1529TIP3   OH226077   1.246   2.885  13.916 -1.0021  0.4043  0.4528
 1529TIP3    H126078   1.294   2.967  13.907  1.3315 -0.7326  2.0806
 1529TIP3    H226079   1.266   2.837  13.837 -1.8170  1.0918 -0.1862
 1530TIP3   OH226080   2.545   5.747   0.722 -0.2537  0.7461  0.5703
 1530TIP3    H126081   2.469   5.737   0.778 -0.4898  2.5382  0.6246
 1530TIP3    H226082   2.558   5.662   0.681 -0.2890 -0.4718  3.0650
 1531TIP3   OH226083   5.686   2.867   6.272  0.0889  0.2973 -0.0478
 1531TIP3    H126084   5.665   2.882   6.180  0.3066  0.0101 -0.1435
 1531TIP3    H226085   5.758   2.927   6.290 -1.3569  1.8985  0.5063
 1532TIP3   OH226086   5.907   1.821   5.538  0.1084  0.1466 -0.2137
 1532TIP3    H126087   5.891   1.915   5.528  0.0312  0.2547  0.9215
 1532TIP3    H226088   5.900   1.787   5.449  0.2049  1.2234 -0.6470
 1533TIP3   OH226089   3.828   3.934  15.289  0.5783  0.1199  0.2220
 1533TIP3    H126090   3.775   3.860  15.260  2.2467 -0.8871 -0.3123
 1533TIP3    H226091   3.841   3.987  15.210 -0.0691  0.6536  0.4661
 1534TIP3   OH226092   1.665   2.047   5.038 -0.1988 -0.3392  0.2109
 1534TIP3    H126093   1.679   2.140   5.020  1.2646 -0.7471 -0.8716
 1534TIP3    H226094   1.573   2.041   5.063  0.1276  1.6882  2.1506
 1535TIP3   OH226095   6.312   2.234  12.555 -0.7534 -0.0132 -0.1050
 1535TIP3    H126096   6.244   2.182  12.598 -2.1596  1.3116 -0.6573
 1535TIP3    H226097   6.303   2.214  12.462 -1.3227  1.2115 -0.3234
 1536TIP3   OH226098   2.757   0.304  11.599 -0.2332  0.0573 -0.1316
 1536TIP3    H126099   2.806   0.331  11.521  0.8343 -1.9369 -0.1869
 1536TIP3    H226100   2.747   0.209  11.589  1.1589 -0.4521  2.8188
 1537TIP3   OH226101   2.984   3.368  10.860 -0.0312  0.1625 -0.0162
 1537TIP3    H126102   3.059   3.312  10.881 -0.0895  0.1655  0.2041
 1537TIP3    H226103   3.017   3.457  10.870 -0.3163  0.1573  0.9769
 1538TIP3   OH226104   3.019   2.531  15.700  0.2963 -0.1231 -0.2337
 1538TIP3    H126105   2.955   2.569  15.640  0.0609 -1.5515 -0.8957
 1538TIP3    H226106   3.101   2.575  15.679 -0.2280  0.9317 -0.1183
 1539TIP3   OH226107   4.661   6.714   5.386 -0.0085  0.4038  1.0913
 1539TIP3    H126108   4.729   6.775   5.357  0.2909  0.2527  1.4771
 1539TIP3    H226109   4.635   6.746   5.473  2.0419 -1.5693  2.4581
 1540TIP3   OH226110   4.439   5.927   6.434  0.0415 -0.0241  0.2439
 1540TIP3    H126111   4.530   5.918   6.462 -0.4586 -0.8781  1.6168
 1540TIP3    H226112   4.387   5.912   6.513 -1.3053  0.1922 -0.5761
 1541TIP3   OH226113   5.999   3.969   5.349 -0.6105  0.2256  0.5213
 1541TIP3    H126114   5.993   3.880   5.384 -1.2921 -0.6303 -1.6652
 1541TIP3    H226115   6.093   3.983   5.336 -0.4666  0.0048  1.2846
 1542TIP3   OH226116   0.526   2.331  15.359  0.1731  0.1409  0.7457
 1542TIP3    H126117   0.512   2.411  15.411 -3.3662  0.1242 -0.0385
 1542TIP3    H226118   0.522   2.360  15.268  1.2732 -0.5947  0.4543
 1543TIP3   OH226119   0.778   6.804  15.280 -0.1189  0.1365 -0.3855
 1543TIP3    H126120   0.700   6.779  15.231 -1.4400  2.7743  0.3143
 1543TIP3    H226121   0.850   6.792  15.219 -1.3420  0.0363 -1.8340
 1544TIP3   OH226122   0.759   2.340   0.422  0.4650 -0.1864  0.4704
 1544TIP3    H126123   0.719   2.304   0.343  1.7656  1.6892 -1.1010
 1544TIP3    H226124   0.828   2.277   0.445  1.1398  0.0472 -0.8527
 1545TIP3   OH226125   6.695   3.556  14.395  0.0476 -0.8155 -0.3003
 1545TIP3    H126126   6.618   3.612  14.404  0.8504  0.3011 -0.3443
 1545TIP3    H226127   6.750   3.601  14.331  1.6325 -0.6076  1.1846
 1546TIP3   OH226128   3.642   0.481  14.146 -0.4784  0.0756  0.0297
 1546TIP3    H126129   3.705   0.548  14.170  1.9756 -2.1671  0.0806
 1546TIP3    H226130   3.583   0.476  14.222 -1.0258  2.4755 -0.1959
 1547TIP3   OH226131   5.800   3.745   2.682  0.2943  0.6256 -0.2654
 1547TIP3    H126132   5.789   3.680   2.612 -0.5996 -0.1604  0.5953
 1547TIP3    H226133   5.725   3.803   2.673  1.2652  1.7669 -1.2416
 1548TIP3   OH226134   0.198   0.577  12.690 -0.7277 -0.4408  0.0645
 1548TIP3    H126135   0.197   0.496  12.741 -0.2073 -0.5853 -0.1464
 1548TIP3    H226136   0.212   0.646  12.755  1.4513 -0.7565 -0.0329
 1549TIP3   OH226137   2.372   5.436   0.218 -0.2977 -0.1154 -0.0589
 1549TIP3    H126138   2.396   5.394   0.301  2.0489 -0.1558 -0.7306
 1549TIP3    H226139   2.428   5.513   0.213 -0.4089 -0.1260 -1.6358
 1550TIP3   OH226140   0.097   5.467  12.788  0.2419  0.5876 -0.1494
 1550TIP3    H126141   0.138   5.397  12.839  1.5647  1.0327 -0.5684
 1550TIP3    H226142   0.003   5.456  12.801  0.4960 -0.5887  0.6744
 1551TIP3   OH226143   3.131   0.633  11.436  0.1254 -0.0328 -0.2548
 1551TIP3    H126144   3.125   0.727  11.456  1.1186  0.1739 -0.9083
 1551TIP3    H226145   3.213   0.624  11.389  0.0764 -1.2608 -0.1048
 1552TIP3   OH226146   6.414   6.027  17.112 -0.2498  0.5232 -0.3750
 1552TIP3    H126147   6.415   6.032  17.207  2.7009 -2.7039 -0.1755
 1552TIP3    H226148   6.347   5.961  17.092  1.6297 -1.4069 -0.3565
 1553TIP3   OH226149   4.375   0.651  16.382 -0.3606  0.4768  0.4049
 1553TIP3    H126150   4.468   0.661  16.405 -0.8306 -0.5757  2.8963
 1553TIP3    H226151   4.339   0.739  16.392  0.3436  0.8733 -0.4887
 1554TIP3   OH226152   6.178   0.253  13.498  0.2269  1.0461  0.5392
 1554TIP3    H126153   6.138   0.168  13.480  0.4479  0.8778  0.8390
 1554TIP3    H226154   6.112   0.300  13.548 -0.3087  1.4389 -0.5127
 1555TIP3   OH226155   3.403   3.010  13.831  0.2896 -0.0089  0.7499
 1555TIP3    H126156   3.442   3.066  13.763  0.6056  0.0193  0.9529
 1555TIP3    H226157   3.326   3.059  13.861  1.4500  1.0721  2.0394
 1556TIP3   OH226158   1.956   5.153   2.143 -0.3537  0.0304 -0.0764
 1556TIP3    H126159   1.887   5.130   2.080  0.5353 -1.3229 -0.5817
 1556TIP3    H226160   1.988   5.069   2.175  2.0945  0.5817 -0.9898
 1557TIP3   OH226161   5.726   5.285  17.153 -0.3562  0.2020 -0.1435
 1557TIP3    H126162   5.638   5.293  17.116 -0.8201 -2.7834  0.1531
 1557TIP3    H226163   5.775   5.238  17.086  0.9077  1.5046 -0.1398
 1558TIP3   OH226164   5.288   5.294  13.549  0.5494 -0.4951  0.1011
 1558TIP3    H126165   5.234   5.299  13.628  1.7257 -0.1965  0.9075
 1558TIP3    H226166   5.265   5.372  13.498 -0.5355 -0.9222 -0.0591
 1559TIP3   OH226167   4.502   5.519   1.579 -0.0223  0.1796  0.1747
 1559TIP3    H126168   4.531   5.606   1.551  1.0103 -1.0754 -2.8512
 1559TIP3    H226169   4.520   5.462   1.504 -1.2645 -2.5436  1.8578
 1560TIP3   OH226170   2.171   4.384  14.905  0.0974 -0.0383  0.4343
 1560TIP3    H126171   2.080   4.388  14.935  0.0716  0.8931  0.2583
 1560TIP3    H226172   2.176   4.303  14.853  0.1562 -1.6910  2.9453
 1561TIP3   OH226173   3.897   1.795  15.849 -0.0036 -0.0216  0.4260
 1561TIP3    H126174   3.849   1.712  15.846 -2.4026  1.3179  0.5242
 1561TIP3    H226175   3.979   1.777  15.802 -0.9271 -2.1683 -0.4341
 1562TIP3   OH226176   0.207   2.462   6.668 -0.0659 -0.7059 -0.1604
 1562TIP3    H126177   0.195   2.405   6.592  1.7983 -0.2543 -0.8223
 1562TIP3    H226178   0.191   2.406   6.744  4.8708 -2.9969 -0.6863
 1563TIP3   OH226179   3.956   6.080  12.921  0.3979 -0.1040 -0.1746
 1563TIP3    H126180   3.893   6.134  12.969  0.2568 -1.5996  1.3469
 1563TIP3    H226181   3.955   5.996  12.966  1.0859 -1.1922 -2.1363
 1564TIP3   OH226182   3.823   0.352  16.444  0.1135  0.1432 -0.1565
 1564TIP3    H126183   3.887   0.281  16.448  0.6735  0.5030 -2.1998
 1564TIP3    H226184   3.876   0.431  16.432 -0.6025  0.7119  0.4142
 1565TIP3   OH226185   3.639   6.620  14.020 -0.3532 -0.5344 -0.2606
 1565TIP3    H126186   3.681   6.539  14.047  1.2840  0.5433  0.5235
 1565TIP3    H226187   3.695   6.653  13.949 -0.8441  0.0459 -0.3771
 1566TIP3   OH226188   0.561   3.565   3.370  0.0355  0.2354 -0.1897
 1566TIP3    H126189   0.486   3.546   3.426  1.6110  0.3426  2.0171
 1566TIP3    H226190   0.580   3.481   3.327 -0.1389 -0.2922  0.7373
 1567TIP3   OH226191   4.973   6.261  12.680  0.5111  0.0298  0.2537
 1567TIP3    H126192   4.950   6.350  12.656  0.3366 -0.4748 -1.4820
 1567TIP3    H226193   5.057   6.245  12.638 -0.2272 -1.1699 -0.8056
 1568TIP3   OH226194   4.199   5.651   6.297  0.1695  0.4443 -0.5057
 1568TIP3    H126195   4.199   5.721   6.232  2.1321  1.0363  0.0720
 1568TIP3    H226196   4.286   5.656   6.337 -0.6686 -0.4935  1.5305
 1569TIP3   OH226197   3.097   1.043  16.617  0.5523 -0.1784  0.1022
 1569TIP3    H126198   3.133   1.120  16.661  0.9150 -0.3326  0.0784
 1569TIP3    H226199   3.112   1.059  16.524 -0.2833  0.1818  0.0229
 1570TIP3   OH226200   1.570   6.607  15.430 -0.2938 -0.4699  0.0829
 1570TIP3    H126201   1.634   6.669  15.465 -0.8252  1.9108 -2.9709
 1570TIP3    H226202   1.615   6.565  15.356 -1.5598 -0.1582 -0.8904
 1571TIP3   OH226203   2.968   2.335  11.696 -0.6404 -0.3984  0.0924
 1571TIP3    H126204   2.946   2.242  11.697  0.7352 -0.7423 -0.6945
 1571TIP3    H226205   2.973   2.360  11.788 -0.7974 -1.1507  0.3099
 1572TIP3   OH226206   0.906   4.122   3.057  1.0254  0.2958  0.1801
 1572TIP3    H126207   0.896   4.027   3.061 -2.6118  0.6603  2.5580
 1572TIP3    H226208   0.936   4.146   3.145  1.6492  1.3575 -0.3214
 1573TIP3   OH226209   0.208   6.504  12.225  0.7930  0.2281  0.3627
 1573TIP3    H126210   0.207   6.575  12.289 -0.2835  0.2364  0.3442
 1573TIP3    H226211   0.250   6.542  12.148 -0.4247  1.0707  0.1006
 1574TIP3   OH226212   3.038   5.186  11.311 -0.9302  0.0269 -0.7122
 1574TIP3    H126213   3.024   5.278  11.332  1.1766 -0.5626  3.8702
 1574TIP3    H226214   2.951   5.146  11.320 -0.9236  0.6622  2.8205
 1575TIP3   OH226215   2.068   4.179  15.918  0.2493  0.4297 -0.0336
 1575TIP3    H126216   1.992   4.158  15.863  1.1411  1.2554 -1.6059
 1575TIP3    H226217   2.109   4.095  15.935  0.5381  0.2521 -1.4996
 1576TIP3   OH226218   4.657   2.979  14.443 -0.4377 -0.6515  0.4286
 1576TIP3    H126219   4.681   3.002  14.533 -0.8910  0.0236  0.3761
 1576TIP3    H226220   4.730   3.011  14.390  0.7476 -2.7156  0.7199
 1577TIP3   OH226221   3.130   0.800   2.094  0.8230  0.4849 -0.4331
 1577TIP3    H126222   3.165   0.757   2.016 -0.8635 -1.2603 -0.2588
 1577TIP3    H226223   3.037   0.813   2.075  0.2089 -0.7550  1.6082
 1578TIP3   OH226224   6.035   5.162   4.456  0.2313  0.4272 -0.3733
 1578TIP3    H126225   6.068   5.117   4.378  1.5769 -0.9674  0.9824
 1578TIP3    H226226   5.956   5.114   4.480  0.8126 -0.2696  0.1647
 1579TIP3   OH226227   4.701   5.175  11.064 -0.0068  0.2510  0.3600
 1579TIP3    H126228   4.704   5.125  10.983  0.7891 -0.4542  0.8123
 1579TIP3    H226229   4.622   5.229  11.057 -0.0586  0.0306 -0.7772
 1580TIP3   OH226230   4.434   4.192   1.065  0.3944  0.0139 -0.0400
 1580TIP3    H126231   4.419   4.144   1.147 -2.0669  2.2695  0.9068
 1580TIP3    H226232   4.511   4.245   1.082 -1.0513  1.7022  1.4587
 1581TIP3   OH226233   0.848   3.300   1.561  0.3555  0.3842 -0.2053
 1581TIP3    H126234   0.804   3.250   1.630  1.1826  0.0592  0.1027
 1581TIP3    H226235   0.785   3.304   1.490  0.7825 -2.3133 -0.7866
 1582TIP3   OH226236   1.564   1.444   3.882  0.2741  0.0625 -0.5790
 1582TIP3    H126237   1.601   1.532   3.881  1.3264 -0.3356  1.1989
 1582TIP3    H226238   1.639   1.386   3.897 -0.4790 -1.0849 -1.1836
 1583TIP3   OH226239   5.800   6.093  14.649  0.8747  0.2576  0.6304
 1583TIP3    H126240   5.849   6.159  14.699  1.5132 -0.3686  0.8357
 1583TIP3    H226241   5.712   6.131  14.640  0.9816  0.7352  1.5263
 1584TIP3   OH226242   1.225   5.011  14.711  0.3915  0.2002  0.1026
 1584TIP3    H126243   1.221   5.107  14.717  0.4059  0.1623  0.6972
 1584TIP3    H226244   1.216   4.981  14.801 -1.0371 -0.4169 -0.2430
 1585TIP3   OH226245   0.849   4.447   2.431  0.2325  0.3520 -0.2944
 1585TIP3    H126246   0.819   4.447   2.522  0.6945  0.0428 -0.1361
 1585TIP3    H226247   0.924   4.508   2.431 -0.2344  0.9304 -0.6285
 1586TIP3   OH226248   4.535   3.870   5.088 -0.4265  0.0305  0.1911
 1586TIP3    H126249   4.539   3.922   5.168  1.7590  0.4227 -0.1503
 1586TIP3    H226250   4.460   3.905   5.040  0.8269  2.6825  0.1044
 1587TIP3   OH226251   6.241   5.894   1.171 -0.2067 -0.3013 -0.3635
 1587TIP3    H126252   6.322   5.921   1.215 -0.3045 -0.4494 -0.0888
 1587TIP3    H226253   6.271   5.850   1.091 -0.0262 -0.0689 -0.4248
 1588TIP3   OH226254   5.913   6.679  11.616 -0.7436 -0.3710  0.2394
 1588TIP3    H126255   5.961   6.608  11.659 -0.4256 -0.4145 -0.1943
 1588TIP3    H226256   5.928   6.755  11.672 -1.0524 -0.6295  0.6872
 1589TIP3   OH226257   6.437   4.725  12.039 -0.4079 -0.4797 -0.1925
 1589TIP3    H126258   6.498   4.752  11.971 -0.1787 -0.2611  0.0975
 1589TIP3    H226259   6.351   4.753  12.006 -0.0625  1.6932  0.6086
 1590TIP3   OH226260   5.638   5.231   3.365 -0.6271 -0.2346 -0.6393
 1590TIP3    H126261   5.621   5.215   3.458 -1.5540 -0.0803 -0.7747
 1590TIP3    H226262   5.622   5.324   3.353  2.0646  0.2897 -0.4293
 1591TIP3   OH226263   0.563   1.120  12.850 -0.1315  0.8912  0.5746
 1591TIP3    H126264   0.484   1.119  12.796  0.9241 -2.1388 -1.0102
 1591TIP3    H226265   0.536   1.079  12.933 -0.3612  0.4075  0.2609
 1592TIP3   OH226266   1.965   0.271   2.363 -0.6365 -0.5417 -0.6530
 1592TIP3    H126267   2.044   0.217   2.359 -0.6509 -0.5926 -0.3068
 1592TIP3    H226268   1.993   0.357   2.333 -0.3610 -0.4625 -0.1762
 1593TIP3   OH226269   3.547   1.097   5.722  0.2012 -0.2447  0.3115
 1593TIP3    H126270   3.557   1.006   5.693 -1.3447 -0.7116  1.1486
 1593TIP3    H226271   3.454   1.104   5.745  0.6537  1.0762  1.8151
 1594TIP3   OH226272   3.649   4.626   0.539  0.6250 -0.0185 -0.0837
 1594TIP3    H126273   3.723   4.687   0.536  1.3115 -0.8426 -0.1357
 1594TIP3    H226274   3.678   4.555   0.595 -0.2352 -0.2263  0.1129
 1595TIP3   OH226275   3.744   0.302   4.639  0.8228  0.0522 -0.3632
 1595TIP3    H126276   3.784   0.310   4.726  0.2185 -1.3797  0.0661
 1595TIP3    H226277   3.654   0.276   4.657  0.3045  1.1368 -1.3886
 1596TIP3   OH226278   5.121   0.337   6.296 -0.3271 -0.3021  0.4406
 1596TIP3    H126279   5.197   0.369   6.346 -0.3895  1.9328 -0.8153
 1596TIP3    H226280   5.045   0.377   6.340 -0.5229  0.1173 -0.2735
 1597TIP3   OH226281   6.279   2.478   0.398  0.2670  0.1091 -0.3900
 1597TIP3    H126282   6.198   2.514   0.433 -0.2469 -1.6197  0.2061
 1597TIP3    H226283   6.340   2.479   0.473 -0.5233 -2.6265  0.3249
 1598TIP3   OH226284   4.488   4.971   5.564 -0.4841 -0.3265 -0.7290
 1598TIP3    H126285   4.439   4.925   5.632  1.5106  1.3581  1.9431
 1598TIP3    H226286   4.558   4.911   5.539 -0.1470 -0.2364  0.0052
 1599TIP3   OH226287   0.598   6.566  14.645  0.2706  0.4119 -0.3793
 1599TIP3    H126288   0.639   6.527  14.568  0.2566  0.0519 -0.2066
 1599TIP3    H226289   0.519   6.609  14.611 -1.7228 -2.8588 -0.0852
 1600TIP3   OH226290   4.846   4.174  14.442  0.2180 -0.1599 -0.5226
 1600TIP3    H126291   4.814   4.098  14.490 -0.8366  1.4288  1.3904
 1600TIP3    H226292   4.940   4.160  14.435 -0.2172 -2.5865 -1.9856
 1601TIP3   OH226293   1.795   0.843   2.233  0.0267  0.1912  0.2606
 1601TIP3    H126294   1.768   0.775   2.171 -0.4766  1.0520 -0.4934
 1601TIP3    H226295   1.740   0.918   2.211  0.3749  0.7485  1.2650
 1602TIP3   OH226296   6.804   2.425  12.748 -0.2976  0.1360  0.3595
 1602TIP3    H126297   6.762   2.393  12.828  0.3842 -0.4465  0.4875
 1602TIP3    H226298   6.876   2.481  12.778  0.3596 -0.5938  0.1698
 1603TIP3   OH226299   0.318   6.170  12.635 -0.0501 -0.0687  0.1506
 1603TIP3    H126300   0.256   6.098  12.622 -1.2839  1.2533 -1.5332
 1603TIP3    H226301   0.333   6.204  12.547  1.7679  0.7362  0.7461
 1604TIP3   OH226302   2.614   2.215  12.879 -0.2187  0.3758  0.0684
 1604TIP3    H126303   2.666   2.281  12.833 -0.7600  0.6800 -0.1099
 1604TIP3    H226304   2.628   2.134  12.829  1.8607 -0.0670  1.3115
 1605TIP3   OH226305   5.181   0.508   0.865 -0.4277  0.1035  0.3751
 1605TIP3    H126306   5.167   0.533   0.774 -2.2387  1.4342  0.9873
 1605TIP3    H226307   5.093   0.502   0.903  0.3278  0.5785  2.2800
 1606TIP3   OH226308   3.316   6.816   2.836 -0.4756  0.0335  0.0401
 1606TIP3    H126309   3.239   6.804   2.781  0.6282  0.0364 -1.5452
 1606TIP3    H226310   3.324   6.734   2.886 -0.1609 -0.9108 -1.5274
 1607TIP3   OH226311   3.391   5.287   5.753 -0.2729  0.2916  0.4900
 1607TIP3    H126312   3.480   5.295   5.786 -0.6773  0.4027  1.5775
 1607TIP3    H226313   3.377   5.367   5.702 -0.0797  0.7378  1.1322
 1608TIP3   OH226314   0.364   3.199   3.255 -0.1431  0.2094  0.0946
 1608TIP3    H126315   0.326   3.112   3.265 -0.8859  0.5994  0.7285
 1608TIP3    H226316   0.323   3.234   3.175 -1.4843  0.8032  1.0224
 1609TIP3   OH226317   2.030   6.196   5.621 -0.4724  0.1611 -0.3336
 1609TIP3    H126318   1.952   6.150   5.591  0.0712 -0.8190 -0.2410
 1609TIP3    H226319   2.039   6.170   5.713 -0.5396  0.9738 -0.0892
 1610TIP3   OH226320   6.130   0.085  14.098 -0.7922 -0.1005  0.1715
 1610TIP3    H126321   6.038   0.085  14.072 -0.3372  0.3264 -1.5186
 1610TIP3    H226322   6.170   0.153  14.043  0.3819  0.2617  1.4397
 1611TIP3   OH226323   1.955   6.575  16.711  0.5877  0.2483 -0.2705
 1611TIP3    H126324   2.024   6.600  16.649  0.2352  1.6871 -0.0998
 1611TIP3    H226325   1.890   6.530  16.657  0.0929  1.8445 -1.0508
 1612TIP3   OH226326   0.029   1.506   3.027  0.3058  0.3639  0.1250
 1612TIP3    H126327   0.017   1.417   2.993  1.1103  0.2234  0.2007
 1612TIP3    H226328   0.085   1.549   2.962  0.4128  0.6283  0.3898
 1613TIP3   OH226329   4.107   2.992   0.342 -0.2023 -0.0694  0.8342
 1613TIP3    H126330   4.075   2.901   0.342  0.7912 -0.4244  1.9152
 1613TIP3    H226331   4.163   2.997   0.419 -2.7898  2.3669  2.6633
 1614TIP3   OH226332   4.170   3.051  14.519  0.1493  0.0906  0.1469
 1614TIP3    H126333   4.195   3.117  14.455  0.5434 -0.0942  0.1025
 1614TIP3    H226334   4.198   2.968  14.479 -0.8977 -0.1577 -0.0719
 1615TIP3   OH226335   0.055   2.680   2.455 -0.3193 -1.0498  0.1989
 1615TIP3    H126336  -0.020   2.729   2.491  0.0907 -0.2120 -0.0704
 1615TIP3    H226337   0.029   2.661   2.365 -0.7898 -1.9867  0.5250
 1616TIP3   OH226338   5.409   1.235  11.459  0.3037  0.6504 -0.1964
 1616TIP3    H126339   5.391   1.184  11.380 -0.0081 -2.0172  1.5188
 1616TIP3    H226340   5.504   1.244  11.460  0.3223  0.5529 -0.8051
 1617TIP3   OH226341   1.409   1.772  12.488  0.3572 -0.1091 -0.0961
 1617TIP3    H126342   1.387   1.708  12.420  0.2491 -0.3671  0.1822
 1617TIP3    H226343   1.347   1.844  12.473 -1.0901 -1.0880  1.0507
 1618TIP3   OH226344   3.988   1.388   1.500  0.4174  1.0333  0.0427
 1618TIP3    H126345   4.055   1.345   1.447 -0.4361  0.4969 -0.6122
 1618TIP3    H226346   3.920   1.412   1.438 -1.6690 -1.6947  1.1920
 1619TIP3   OH226347   6.773   3.754   1.406  0.6354  0.9390  0.1267
 1619TIP3    H126348   6.709   3.750   1.336 -1.4677 -1.5327  2.1160
 1619TIP3    H226349   6.796   3.847   1.412 -0.9269  1.5096 -2.2140
 1620TIP3   OH226350   1.982   6.767  17.152  0.1616  0.4826  0.5546
 1620TIP3    H126351   2.018   6.689  17.194  1.9657  0.3901 -1.0980
 1620TIP3    H226352   2.008   6.840  17.208 -0.0749  0.0755  1.1972
 1621TIP3   OH226353   4.567   1.524   4.046  0.3172  0.1551  0.2604
 1621TIP3    H126354   4.490   1.567   4.009  1.2065  0.4666 -1.2812
 1621TIP3    H226355   4.552   1.430   4.031  0.2315  0.2159 -0.0373
 1622TIP3   OH226356   5.862   6.393   4.137  0.6397 -0.2936 -0.5191
 1622TIP3    H126357   5.957   6.382   4.142  0.2040 -3.5388  1.7306
 1622TIP3    H226358   5.837   6.425   4.223 -0.3411  0.3552 -1.0431
 1623TIP3   OH226359   2.589   6.020   5.250  0.1285  0.1618 -0.0010
 1623TIP3    H126360   2.683   6.038   5.258  0.5398 -1.1952 -1.4957
 1623TIP3    H226361   2.567   6.051   5.162 -0.8016  0.3550  0.2990
 1624TIP3   OH226362   2.620   3.710   3.477  0.2542  0.8460 -0.2242
 1624TIP3    H126363   2.633   3.623   3.514 -0.6814  0.8638  0.1491
 1624TIP3    H226364   2.558   3.696   3.405 -0.1528  1.2650  0.0535
 1625TIP3   OH226365   4.433   1.053   4.549 -0.2437 -0.4268  0.5114
 1625TIP3    H126366   4.392   1.015   4.472 -0.4396 -1.1719  0.9682
 1625TIP3    H226367   4.527   1.044   4.533 -0.2686  0.5281 -0.1709
 1626TIP3   OH226368   2.986   2.639  15.128 -0.7987 -0.5567  0.3287
 1626TIP3    H126369   2.912   2.666  15.183 -1.1826  0.7164 -0.7983
 1626TIP3    H226370   2.967   2.674  15.042  0.1241 -1.9927 -0.4956
 1627TIP3   OH226371   0.099   6.131   3.504  0.1556  0.3208  0.1155
 1627TIP3    H126372   0.167   6.174   3.556 -1.1844 -0.3065  2.4621
 1627TIP3    H226373   0.113   6.164   3.415  1.8905  2.2113  1.0272
 1628TIP3   OH226374   3.913   4.952  16.962  0.1362 -0.0291  0.5417
 1628TIP3    H126375   4.005   4.960  16.987  0.3918  0.0539 -0.4069
 1628TIP3    H226376   3.881   5.042  16.961  0.0821 -0.0465  0.7377
 1629TIP3   OH226377   4.161   3.542  12.980 -0.3398 -0.6168  0.0521
 1629TIP3    H126378   4.204   3.476  12.926  0.6583 -0.3692  0.5299
 1629TIP3    H226379   4.127   3.606  12.918 -0.4568 -1.0768 -0.3571
 1630TIP3   OH226380   3.810   0.119   5.313 -0.5404 -0.5916  0.0667
 1630TIP3    H126381   3.816   0.064   5.235 -1.0291 -1.4349  0.6028
 1630TIP3    H226382   3.842   0.205   5.285  0.6070 -1.2445 -0.6933
 1631TIP3   OH226383   6.426   5.142   2.263  0.0220  0.4320  0.0580
 1631TIP3    H126384   6.494   5.202   2.293  0.1407  0.4034 -0.1530
 1631TIP3    H226385   6.347   5.169   2.311 -0.0775  1.1769 -0.5313
 1632TIP3   OH226386   2.381   1.371  16.208  0.2546  0.1328  0.2814
 1632TIP3    H126387   2.296   1.332  16.184 -0.2607  1.4362 -0.0604
 1632TIP3    H226388   2.358   1.443  16.267  1.2051 -0.1608  1.0147
 1633TIP3   OH226389   6.095   6.656   4.496  0.2589  0.1404  0.0971
 1633TIP3    H126390   6.179   6.639   4.538 -0.4570  1.4480  2.1072
 1633TIP3    H226391   6.111   6.734   4.442  0.5428 -0.1049 -0.1770
 1634TIP3   OH226392   5.153   0.354   2.917 -0.0568  0.3000 -0.1265
 1634TIP3    H126393   5.058   0.346   2.914  0.0686 -0.6042 -3.1217
 1634TIP3    H226394   5.174   0.422   2.853  1.3166  0.5295  0.5452
 1635TIP3   OH226395   3.150   5.560   3.761  0.0681 -0.3387  0.2802
 1635TIP3    H126396   3.088   5.628   3.786  0.4178 -0.4152  1.4228
 1635TIP3    H226397   3.097   5.481   3.750 -0.5187  0.4060 -2.3825
 1636TIP3   OH226398   4.318   6.702  11.273 -0.4143 -0.0881 -0.0324
 1636TIP3    H126399   4.304   6.642  11.200 -1.4009 -1.1199  0.9793
 1636TIP3    H226400   4.247   6.766  11.266 -0.1184  0.2107 -0.3557
 1637TIP3   OH226401   6.053   1.992  14.126 -0.1931 -0.1119  0.0280
 1637TIP3    H126402   6.041   1.978  14.032  1.1549  1.2556 -0.3742
 1637TIP3    H226403   6.135   1.948  14.147 -1.0878 -1.4476  0.8424
 1638TIP3   OH226404   4.774   5.073   3.593 -0.1907  0.2998  0.0698
 1638TIP3    H126405   4.836   5.133   3.634  0.6600 -1.0998  0.8806
 1638TIP3    H226406   4.779   4.994   3.646 -1.7269 -0.2928 -0.6342
 1639TIP3   OH226407   5.554   5.644  16.659  0.1341  0.2126  0.2134
 1639TIP3    H126408   5.599   5.633  16.743  0.3017  1.4055  0.2986
 1639TIP3    H226409   5.527   5.736  16.659  0.7138  0.3852 -1.3271
 1640TIP3   OH226410   3.009   3.036   5.722  0.0971 -0.7216  0.3314
 1640TIP3    H126411   3.088   3.012   5.771  0.4560 -1.3785 -0.5652
 1640TIP3    H226412   2.981   2.955   5.680 -1.1449 -0.5286  0.7519
 1641TIP3   OH226413   0.553   5.883   3.481  0.2865  0.3501  0.3785
 1641TIP3    H126414   0.526   5.883   3.573 -2.7316  0.2608 -0.4710
 1641TIP3    H226415   0.523   5.967   3.447  0.3969 -0.0875 -0.8269
 1642TIP3   OH226416   3.248   2.249  17.117  0.6601  0.1219 -0.5439
 1642TIP3    H126417   3.325   2.193  17.130  0.1673 -0.2714  0.7526
 1642TIP3    H226418   3.234   2.290  17.203 -0.7735 -0.0481 -0.6925
 1643TIP3   OH226419   1.854   5.394   5.692 -0.1376 -0.1473 -0.2261
 1643TIP3    H126420   1.894   5.325   5.744  3.0878  1.6772 -0.1512
 1643TIP3    H226421   1.822   5.457   5.756  1.6863  0.9519 -0.3843
 1644TIP3   OH226422   3.681   6.744   1.183  0.0858 -0.1809  0.0724
 1644TIP3    H126423   3.762   6.792   1.164 -1.1687  1.3643 -1.5872
 1644TIP3    H226424   3.667   6.759   1.276  0.0987  2.1735 -0.2567
 1645TIP3   OH226425   2.647   0.826   0.634  0.0177 -0.4810  0.1712
 1645TIP3    H126426   2.669   0.909   0.675 -1.4482  0.6154 -1.2217
 1645TIP3    H226427   2.552   0.820   0.641 -0.0850 -1.0720 -1.5364
 1646TIP3   OH226428   6.237   3.160   1.080 -0.2193  0.1524  0.6952
 1646TIP3    H126429   6.325   3.137   1.112  0.2884 -0.1225 -0.8672
 1646TIP3    H226430   6.240   3.255   1.068  1.3255 -0.3400 -3.5390
 1647TIP3   OH226431   0.443   4.052   2.415 -0.0812  0.3932 -0.2590
 1647TIP3    H126432   0.376   4.119   2.426  0.0621  1.0966 -3.3327
 1647TIP3    H226433   0.526   4.100   2.420  0.0092  0.6283 -3.1710
 1648TIP3   OH226434   3.003   1.822   3.801 -0.0268 -0.2677 -0.0782
 1648TIP3    H126435   2.913   1.848   3.816  0.4740 -0.3399  3.5397
 1648TIP3    H226436   3.050   1.905   3.785 -0.4158 -0.0781 -0.2383
 1649TIP3   OH226437   5.712   3.269  14.082  0.7554 -0.2065 -0.5796
 1649TIP3    H126438   5.725   3.350  14.032 -2.5268 -0.3190 -1.7508
 1649TIP3    H226439   5.617   3.263  14.093  1.1663 -2.1651  2.4391
 1650TIP3   OH226440   1.637   3.219  16.405 -0.1219  0.6643 -0.1476
 1650TIP3    H126441   1.718   3.175  16.379 -0.9313 -0.4047 -0.9172
 1650TIP3    H226442   1.661   3.311  16.414  1.2186  0.3264 -0.1948
 1651TIP3   OH226443   2.292   1.186   2.977  0.0286 -0.8219  0.2039
 1651TIP3    H126444   2.351   1.247   3.021  0.8467  0.9348 -3.2384
 1651TIP3    H226445   2.343   1.105   2.967  0.6347 -0.4505  0.3098
 1652TIP3   OH226446   4.361   1.610   0.704 -0.2363  0.0550  0.4391
 1652TIP3    H126447   4.303   1.676   0.667  0.1266 -0.0960 -0.4196
 1652TIP3    H226448   4.446   1.653   0.711 -0.1564 -0.1123  0.5098
 1653TIP3   OH226449   6.417   5.944   4.016  0.2233  0.3642  0.2610
 1653TIP3    H126450   6.506   5.914   4.033  0.1767 -0.1411 -0.3654
 1653TIP3    H226451   6.397   6.001   4.090  0.8578  0.0334  0.6999
 1654TIP3   OH226452   5.677   3.134   0.616  0.0426  0.5503  0.5188
 1654TIP3    H126453   5.599   3.181   0.646 -0.2073 -0.4669  1.5109
 1654TIP3    H226454   5.735   3.132   0.692  0.3391 -0.1192  0.2810
 1655TIP3   OH226455   3.180   5.414  13.134 -0.3326 -0.8130 -0.1429
 1655TIP3    H126456   3.127   5.452  13.204 -0.6126 -2.2609  0.4709
 1655TIP3    H226457   3.177   5.320  13.151  0.9085 -1.0598 -1.1918
 1656TIP3   OH226458   2.058   2.737  15.248  0.0307  0.4372  0.7216
 1656TIP3    H126459   2.049   2.648  15.284  0.6749 -0.4267 -1.1710
 1656TIP3    H226460   1.998   2.738  15.174 -0.2464  1.7288  0.9628
 1657TIP3   OH226461   0.834   2.958   5.082  0.4408 -0.4955  0.1295
 1657TIP3    H126462   0.797   3.044   5.103  0.6259 -0.7933  1.7928
 1657TIP3    H226463   0.781   2.926   5.009 -0.8188  0.2567  0.6937
 1658TIP3   OH226464   0.398   5.122   2.185 -0.3424 -0.3657 -0.4051
 1658TIP3    H126465   0.463   5.060   2.154 -0.3348 -0.3299 -0.4596
 1658TIP3    H226466   0.398   5.111   2.280 -0.7826 -0.8941 -0.4619
 1659TIP3   OH226467   5.361   5.825  11.693 -0.9018  0.0344  0.3013
 1659TIP3    H126468   5.289   5.817  11.631 -1.2718  1.8186  0.4730
 1659TIP3    H226469   5.433   5.860  11.642 -0.3938 -0.9583  0.3176
 1660TIP3   OH226470   5.063   2.123  14.093  0.6045  0.3602 -0.5666
 1660TIP3    H126471   4.992   2.059  14.098  0.2282  0.7128 -1.3915
 1660TIP3    H226472   5.094   2.117  14.002  1.8193  0.0026 -0.1481
 1661TIP3   OH226473   5.552   5.499  10.756 -0.0919  0.1557  0.1288
 1661TIP3    H126474   5.570   5.422  10.702 -4.9801 -0.7628 -0.3692
 1661TIP3    H226475   5.516   5.464  10.837 -0.5279  1.8466  0.6951
 1662TIP3   OH226476   5.813   5.201  10.692 -0.2550  0.0771  0.0655
 1662TIP3    H126477   5.857   5.144  10.755  1.5503  0.7208 -0.5679
 1662TIP3    H226478   5.880   5.220  10.627 -1.4969  1.1017 -0.9307
 1663TIP3   OH226479   0.806   5.134   0.375 -0.0466 -0.6232 -0.1730
 1663TIP3    H126480   0.797   5.182   0.457 -1.2570 -0.9553 -0.1024
 1663TIP3    H226481   0.837   5.047   0.401 -1.2142 -0.9939  0.0219
 1664TIP3   OH226482   2.057   1.459  17.075 -0.1736 -0.4416 -0.4433
 1664TIP3    H126483   2.071   1.553  17.067 -1.3026 -0.1482  0.8641
 1664TIP3    H226484   2.144   1.423  17.094 -0.2062  0.6665  1.8882
 1665TIP3   OH226485   0.236   4.940   3.255  0.6421 -0.2874  0.3167
 1665TIP3    H126486   0.243   4.993   3.175 -2.6783 -1.5459 -0.8839
 1665TIP3    H226487   0.288   4.988   3.320  2.5230  1.3362 -2.2751
 1666TIP3   OH226488   0.200   6.099   6.303  0.7990  0.0998 -0.4050
 1666TIP3    H126489   0.255   6.021   6.304  1.1552  0.3590  0.4832
 1666TIP3    H226490   0.250   6.164   6.253  0.0649 -0.5394 -2.0180
 1667TIP3   OH226491   0.537   4.247  14.182  0.2029  0.2221 -0.2561
 1667TIP3    H126492   0.628   4.244  14.154 -0.5173 -1.6147 -2.5323
 1667TIP3    H226493   0.501   4.323  14.136  0.4877  0.7383  0.3673
 1668TIP3   OH226494   5.543   5.729   5.415 -0.0672 -0.5475  0.8820
 1668TIP3    H126495   5.631   5.693   5.432 -0.3214 -1.1710  0.8876
 1668TIP3    H226496   5.552   5.823   5.434  1.2902 -0.1175 -1.6801
 1669TIP3   OH226497   1.483   2.826  12.799 -0.1260 -0.3643 -0.0257
 1669TIP3    H126498   1.559   2.771  12.818  0.8452  0.9180 -0.0680
 1669TIP3    H226499   1.484   2.893  12.868 -2.0874 -1.1947  0.8328
 1670TIP3   OH226500   3.985   1.633   6.672  0.1138 -0.7568 -0.0730
 1670TIP3    H126501   3.931   1.638   6.751  1.6986 -1.4494  1.0709
 1670TIP3    H226502   3.930   1.670   6.603 -1.5275 -0.7364  1.2268
 1671TIP3   OH226503   4.188   1.954   3.840  0.4251  0.4999 -0.2293
 1671TIP3    H126504   4.283   1.954   3.851  0.2476  2.8222  1.5830
 1671TIP3    H226505   4.158   2.031   3.888 -2.3976 -0.2764 -0.6659
 1672TIP3   OH226506   6.594   5.149  13.954 -0.1243 -0.4665 -0.2365
 1672TIP3    H126507   6.541   5.093  14.012  0.4193 -0.0175  0.6996
 1672TIP3    H226508   6.684   5.138  13.986 -0.2679  2.6852  1.4048
 1673TIP3   OH226509   1.895   1.621   3.820  0.0662 -0.1076  0.6770
 1673TIP3    H126510   1.962   1.685   3.797 -1.2911  1.2962  0.4843
 1673TIP3    H226511   1.852   1.600   3.737 -1.5902  1.2122  1.1549
 1674TIP3   OH226512   1.490   2.435  15.435  0.3851  0.3273 -0.5953
 1674TIP3    H126513   1.477   2.523  15.469 -0.2578  0.3509 -0.8990
 1674TIP3    H226514   1.490   2.380  15.514 -0.8872  0.4103 -0.5178
 1675TIP3   OH226515   5.274   0.097  12.136 -0.2540 -0.1881 -0.0828
 1675TIP3    H126516   5.190   0.102  12.181  0.2923  1.6713  0.7759
 1675TIP3    H226517   5.320   0.024  12.177  0.2124  1.4475  2.4029
 1676TIP3   OH226518   4.728   4.452  14.382  0.2340  0.0505 -0.5349
 1676TIP3    H126519   4.775   4.520  14.333 -0.2532 -0.1152 -1.2357
 1676TIP3    H226520   4.795   4.387  14.402  1.0437  1.4484  1.4728
 1677TIP3   OH226521   2.798   5.296   6.438  0.2229  0.1578 -0.2701
 1677TIP3    H126522   2.735   5.364   6.413  1.5946  1.7605  0.5997
 1677TIP3    H226523   2.788   5.287   6.532 -0.3050 -1.2330 -0.4448
 1678TIP3   OH226524   4.334   5.442   6.157 -0.1128  0.0119  0.1145
 1678TIP3    H126525   4.270   5.478   6.218 -1.1099  0.6384 -1.2682
 1678TIP3    H226526   4.282   5.410   6.083  1.1711  0.6894 -1.1248
 1679TIP3   OH226527   5.012   2.879   5.056  0.1323  0.1774 -0.2608
 1679TIP3    H126528   4.928   2.925   5.051 -0.1902 -0.3768  0.0367
 1679TIP3    H226529   5.023   2.858   5.149  1.3364  1.5900 -0.0625
 1680TIP3   OH226530   3.289   1.421   6.831  0.0778 -0.2972  0.2905
 1680TIP3    H126531   3.199   1.406   6.858  0.1807 -0.3677  0.5994
 1680TIP3    H226532   3.286   1.423   6.736 -0.4485  0.9040  0.3236
 1681TIP3   OH226533   4.835   2.103   1.354  0.0487 -0.3020  0.5193
 1681TIP3    H126534   4.848   2.182   1.407  2.1240 -0.9787  1.0598
 1681TIP3    H226535   4.741   2.101   1.337 -0.5356  0.4838  3.3310
 1682TIP3   OH226536   6.521   5.599  16.783 -0.5750  0.0079 -0.0463
 1682TIP3    H126537   6.559   5.517  16.815  0.4124  0.7137  0.6245
 1682TIP3    H226538   6.553   5.666  16.844 -3.0573  0.6100  0.6745
 1683TIP3   OH226539   6.340   5.015  16.300  0.6333 -0.0276 -0.1580
 1683TIP3    H126540   6.370   4.998  16.211  4.0716  3.7973  0.1297
 1683TIP3    H226541   6.288   5.095  16.294  1.8574  0.9260  1.3893
 1684TIP3   OH226542   5.836   6.143  16.439  0.6758  0.2886  0.2014
 1684TIP3    H126543   5.888   6.099  16.372 -0.2784  0.1295 -0.4300
 1684TIP3    H226544   5.759   6.088  16.451 -0.6679  1.9062 -0.7944
 1685TIP3   OH226545   1.568   1.895  15.077 -0.5421  0.2883  0.3835
 1685TIP3    H126546   1.613   1.885  14.992 -1.4006 -0.1077 -0.0276
 1685TIP3    H226547   1.604   1.825  15.132  2.4736  2.5611  1.4318
 1686TIP3   OH226548   6.266   4.507   0.888  0.3643 -0.0027 -0.3746
 1686TIP3    H126549   6.247   4.593   0.851  0.2079  0.0923 -0.0707
 1686TIP3    H226550   6.358   4.491   0.867  0.0598 -0.2920 -1.5044
 1687TIP3   OH226551   0.609   1.520   1.192 -0.2298  0.1485  0.2639
 1687TIP3    H126552   0.586   1.580   1.262  0.6737 -0.8365  1.4236
 1687TIP3    H226553   0.531   1.465   1.179  0.0867 -0.6069  1.4921
 1688TIP3   OH226554   1.700   3.813   4.568  0.1837  0.1011  0.1772
 1688TIP3    H126555   1.765   3.807   4.637 -1.6951 -0.5658  1.9395
 1688TIP3    H226556   1.646   3.735   4.579  0.3586 -0.4596 -2.5982
 1689TIP3   OH226557   2.594   4.178   2.556  0.7596 -0.3847 -0.1470
 1689TIP3    H126558   2.646   4.181   2.637  0.9569 -0.7697 -0.2584
 1689TIP3    H226559   2.532   4.108   2.571 -0.5092  0.8412  0.4476
 1690TIP3   OH226560   0.166   4.408  16.055 -0.1373 -0.3434  0.0561
 1690TIP3    H126561   0.103   4.467  16.013 -0.4448 -1.3128 -0.8733
 1690TIP3    H226562   0.172   4.334  15.995  0.5231 -1.0863  1.0364
 1691TIP3   OH226563   3.285   2.997   5.696 -0.3423  0.3481 -0.2293
 1691TIP3    H126564   3.265   3.060   5.627  0.5633  1.3771  0.4123
 1691TIP3    H226565   3.257   2.913   5.661 -0.1290  0.8877 -1.7436
 1692TIP3   OH226566   5.269   4.595   4.331  0.2972  0.0378  0.8873
 1692TIP3    H126567   5.180   4.624   4.351 -0.0596  0.3133 -1.0133
 1692TIP3    H226568   5.325   4.644   4.391 -0.8852 -0.8597  2.7882
 1693TIP3   OH226569   3.574   4.466   1.453  0.1172  0.6372  0.7779
 1693TIP3    H126570   3.541   4.555   1.449  0.0569  0.5461 -1.4362
 1693TIP3    H226571   3.506   4.417   1.500 -0.5542  1.4445  0.6567
 1694TIP3   OH226572   3.927   4.553   0.343 -0.5734  0.9199  0.2197
 1694TIP3    H126573   3.896   4.509   0.264 -0.3896  0.6295  0.3069
 1694TIP3    H226574   3.883   4.507   0.415  0.1811  0.4049  0.3513
 1695TIP3   OH226575   2.388   3.023  12.447 -0.8282 -0.0621  0.5206
 1695TIP3    H126576   2.310   2.979  12.480 -0.3262 -1.7989 -0.5287
 1695TIP3    H226577   2.371   3.037  12.354 -1.0137  2.0828  0.8508
 1696TIP3   OH226578   3.055   6.216   3.122  0.5181 -0.1582 -0.0514
 1696TIP3    H126579   3.148   6.196   3.133  0.8908  0.7004 -1.5577
 1696TIP3    H226580   3.050   6.261   3.038 -1.0553  1.1292  0.7042
 1697TIP3   OH226581   6.499   6.324  10.963  0.1987 -0.2164 -0.1355
 1697TIP3    H126582   6.564   6.374  11.014 -0.8777 -1.0370  2.1202
 1697TIP3    H226583   6.461   6.388  10.903  1.5315  0.7883  0.0736
 1698TIP3   OH226584   5.699   4.325  17.149  0.0959 -0.4077 -0.0701
 1698TIP3    H126585   5.615   4.284  17.128  0.9681 -1.4000 -1.7233
 1698TIP3    H226586   5.753   4.309  17.072  2.0893 -0.5569  1.3163
 1699TIP3   OH226587   0.665   0.858  16.216  0.0835 -0.2374 -0.0916
 1699TIP3    H126588   0.760   0.859  16.207 -0.0199 -0.9086 -1.3514
 1699TIP3    H226589   0.646   0.922  16.285  1.4916 -0.6031  0.6422
 1700TIP3   OH226590   6.616   2.041   3.737 -0.0638 -0.2014  0.5539
 1700TIP3    H126591   6.590   2.061   3.827 -1.2112  2.0244 -0.2487
 1700TIP3    H226592   6.675   2.112   3.712 -0.9638  0.0299 -0.9629
 1701TIP3   OH226593   2.968   3.841   6.005 -0.2094 -0.4548 -0.4134
 1701TIP3    H126594   2.927   3.922   5.975  2.0605  0.7471 -0.4359
 1701TIP3    H226595   2.992   3.859   6.096  2.8959  0.0448 -1.2489
 1702TIP3   OH226596   6.170   6.152   6.050  0.2309  0.1321 -0.0356
 1702TIP3    H126597   6.086   6.187   6.020  0.0482  0.0353  0.3618
 1702TIP3    H226598   6.195   6.208   6.123  0.9190  0.6720 -0.6774
 1703TIP3   OH226599   2.521   5.322  16.260 -0.3024  0.1782  0.0814
 1703TIP3    H126600   2.599   5.299  16.210 -0.8364 -0.1761 -0.6024
 1703TIP3    H226601   2.539   5.290  16.349 -0.2386 -1.1752 -0.4049
 1704TIP3   OH226602   2.149   5.645   5.639  0.3738 -0.1106  0.5495
 1704TIP3    H126603   2.085   5.716   5.647  1.9693  1.5169 -0.6938
 1704TIP3    H226604   2.151   5.626   5.545  1.2779 -0.5448  0.6520
 1705TIP3   OH226605   4.154   6.649   1.991 -0.5538 -0.6325  0.1013
 1705TIP3    H126606   4.206   6.569   1.979  1.9237  0.5619  2.2022
 1705TIP3    H226607   4.143   6.684   1.902  2.8658 -0.6056 -0.3820
 1706TIP3   OH226608   1.915   4.718  15.415  0.3546 -0.2160 -0.1558
 1706TIP3    H126609   1.958   4.691  15.496 -0.4474 -0.4771  0.1909
 1706TIP3    H226610   1.941   4.809  15.403 -1.4404  0.5708  1.6968
 1707TIP3   OH226611   6.287   1.118  17.070  0.1344  0.3341  0.4832
 1707TIP3    H126612   6.341   1.191  17.100  0.2825  0.1491  0.6573
 1707TIP3    H226613   6.200   1.136  17.106 -0.5900  2.0262 -1.9284
 1708TIP3   OH226614   0.792   0.876   3.091 -0.0345  0.0647  0.2938
 1708TIP3    H126615   0.840   0.804   3.133 -0.7993 -0.2401  0.6579
 1708TIP3    H226616   0.858   0.943   3.074  0.6638 -0.6839  0.0495
 1709TIP3   OH226617   1.029   0.838   0.688 -0.1271  0.3185  0.8641
 1709TIP3    H126618   0.940   0.813   0.713  0.4609 -1.5941  1.1060
 1709TIP3    H226619   1.073   0.755   0.668  1.1669  1.3467 -0.7483
 1710TIP3   OH226620   0.794   5.720   4.955  0.1855  0.3540 -0.4989
 1710TIP3    H126621   0.711   5.756   4.924  0.3203  1.0514 -0.0756
 1710TIP3    H226622   0.778   5.627   4.965 -0.9435  0.6654  0.7939
 1711TIP3   OH226623   6.410   5.669   2.468 -0.4405 -0.3846  0.0046
 1711TIP3    H126624   6.395   5.748   2.520 -0.4701 -0.2583 -0.1934
 1711TIP3    H226625   6.505   5.656   2.471 -0.6981 -1.9348  2.3504
 1712TIP3   OH226626   4.686   5.680  12.402 -0.0560 -0.1623 -0.2455
 1712TIP3    H126627   4.664   5.725  12.321  0.1465 -1.1329 -0.8521
 1712TIP3    H226628   4.727   5.746  12.457 -1.3726  0.8286 -0.4226
 1713TIP3   OH226629   3.418   2.878  15.456  0.6639  0.6661 -0.4237
 1713TIP3    H126630   3.397   2.935  15.382 -1.0602 -1.0255 -1.2846
 1713TIP3    H226631   3.385   2.925  15.532  1.8554  2.1253 -0.7889
 1714TIP3   OH226632   3.636   4.248   0.211  0.1588 -0.4616 -0.1708
 1714TIP3    H126633   3.608   4.333   0.246 -0.1296 -0.3230 -0.7334
 1714TIP3    H226634   3.683   4.207   0.283  1.2465  0.6243 -0.2488
 1715TIP3   OH226635   0.121   6.529   1.288 -0.1991 -0.3278  0.0373
 1715TIP3    H126636   0.092   6.604   1.237 -1.3720 -0.4546  0.4828
 1715TIP3    H226637   0.216   6.538   1.294 -0.4160  1.6983  0.9760
 1716TIP3   OH226638   4.005   5.609   3.978  0.3029 -0.5886  0.1627
 1716TIP3    H126639   3.942   5.672   3.942  0.4196  0.3232  1.5280
 1716TIP3    H226640   3.953   5.551   4.033  0.5648 -0.1712  0.8569
 1717TIP3   OH226641   3.679   6.552  14.599  0.3452  1.0256 -0.3633
 1717TIP3    H126642   3.660   6.518  14.511 -0.1401  3.7507 -1.3488
 1717TIP3    H226643   3.759   6.603  14.588  0.9332  0.4385  1.0499
 1718TIP3   OH226644   4.670   2.813  13.201  0.1700  0.1052  0.4748
 1718TIP3    H126645   4.646   2.861  13.280 -0.3087  0.9987 -0.2032
 1718TIP3    H226646   4.589   2.774  13.170 -0.3147  2.4462 -1.3609
 1719TIP3   OH226647   1.053   5.820  15.182  0.3302 -0.0653  0.0563
 1719TIP3    H126648   1.074   5.877  15.108  0.4810 -0.0502  0.1117
 1719TIP3    H226649   0.968   5.782  15.159  0.8101 -0.7712 -0.5411
 1720TIP3   OH226650   3.566   6.655   5.814  0.6524  0.2871 -0.2699
 1720TIP3    H126651   3.631   6.587   5.798  0.4803  0.1017 -0.1886
 1720TIP3    H226652   3.548   6.649   5.908 -0.6957 -0.7706 -0.5807
 1721TIP3   OH226653   2.474   0.698   4.778  0.5900  0.6317  0.2740
 1721TIP3    H126654   2.415   0.669   4.847 -0.8862 -1.5212 -1.8112
 1721TIP3    H226655   2.552   0.643   4.789 -0.7250 -1.6395 -1.3790
 1722TIP3   OH226656   3.138   2.553  12.963  0.2365 -0.1501 -0.1573
 1722TIP3    H126657   3.110   2.464  12.942 -1.3153  0.7801 -2.2168
 1722TIP3    H226658   3.184   2.582  12.885  1.0438  0.7411  0.6463
 1723TIP3   OH226659   5.770   5.115   0.901 -0.2614 -0.4405 -0.1914
 1723TIP3    H126660   5.823   5.176   0.953  1.4574 -0.8451 -1.3962
 1723TIP3    H226661   5.763   5.037   0.956 -0.7591  0.1085  0.5341
 1724TIP3   OH226662   2.337   0.488  12.019 -0.1295 -0.1073  0.8579
 1724TIP3    H126663   2.422   0.476  12.062  0.5292  1.5435  0.0714
 1724TIP3    H226664   2.283   0.417  12.053  1.2944 -0.6540  2.0610
 1725TIP3   OH226665   0.203   0.393  16.153  0.2798 -0.4257 -0.6241
 1725TIP3    H126666   0.267   0.331  16.186  1.7090  1.0595 -0.5465
 1725TIP3    H226667   0.125   0.340  16.134  1.5314 -2.2555 -0.7518
 1726TIP3   OH226668   2.525   0.271   0.089 -0.1992  0.2582 -0.1340
 1726TIP3    H126669   2.619   0.259   0.101 -0.4977 -3.0818 -0.5119
 1726TIP3    H226670   2.498   0.329   0.159  1.8720 -0.1970  1.0722
 1727TIP3   OH226671   2.571   4.595  12.718 -0.7469 -0.5216 -0.0904
 1727TIP3    H126672   2.624   4.520  12.690 -0.9200 -1.2268  1.4244
 1727TIP3    H226673   2.614   4.671  12.678 -0.3692 -1.3917 -1.3549
 1728TIP3   OH226674   6.624   0.482   6.506 -0.6279 -0.2504 -0.3777
 1728TIP3    H126675   6.642   0.572   6.479  1.9526 -0.2327  1.1574
 1728TIP3    H226676   6.529   0.475   6.505 -0.9717  3.0297  1.1005
 1729TIP3   OH226677   6.155   3.678   5.380 -0.1392  0.0017 -0.1596
 1729TIP3    H126678   6.148   3.636   5.465 -0.8116  0.3480 -0.0399
 1729TIP3    H226679   6.250   3.685   5.364 -0.0173 -0.6454  0.2633
 1730TIP3   OH226680   1.512   1.438   2.336  0.4459  0.3843 -0.4584
 1730TIP3    H126681   1.591   1.465   2.290  1.0182 -2.0125 -0.9862
 1730TIP3    H226682   1.466   1.382   2.274  0.6213 -1.9350  1.3955
 1731TIP3   OH226683   6.573   2.117   4.592 -0.0145  0.2673  0.4120
 1731TIP3    H126684   6.494   2.170   4.594  0.1793  0.5348  1.6931
 1731TIP3    H226685   6.595   2.110   4.499 -2.9723 -1.9972 -0.1788
 1732TIP3   OH226686   1.403   2.498   0.198 -0.0714 -0.0213 -0.0057
 1732TIP3    H126687   1.416   2.522   0.106 -0.1363 -0.5189 -0.1445
 1732TIP3    H226688   1.485   2.521   0.241  0.5017 -1.1982 -0.4737
 1733TIP3   OH226689   3.066   4.588   3.459  0.0927  0.0235 -0.1618
 1733TIP3    H126690   3.008   4.644   3.511 -0.3243  0.5183 -1.1385
 1733TIP3    H226691   3.122   4.545   3.523 -1.3019 -0.3936  0.8062
 1734TIP3   OH226692   2.817   4.308   4.000  0.5689 -0.1097 -0.2640
 1734TIP3    H126693   2.877   4.382   3.988  0.2994  0.0120 -0.8965
 1734TIP3    H226694   2.768   4.304   3.918  0.7489 -1.1388 -0.3215
 1735TIP3   OH226695   3.661   3.879  12.572  0.4698  0.4195 -0.5153
 1735TIP3    H126696   3.683   3.971  12.563  0.6011  0.5274  0.8525
 1735TIP3    H226697   3.567   3.879  12.590  1.0339  0.4922  2.6503
 1736TIP3   OH226698   5.237   5.141   3.143 -0.5659 -0.3232  0.0229
 1736TIP3    H126699   5.266   5.081   3.075 -2.5024 -0.0656 -1.0541
 1736TIP3    H226700   5.280   5.224   3.122 -0.8771 -0.3379 -0.6855
 1737TIP3   OH226701   3.299   3.492  15.086 -0.1614 -0.0036  0.1414
 1737TIP3    H126702   3.281   3.399  15.074  0.0999 -0.1124  0.5768
 1737TIP3    H226703   3.395   3.498  15.086 -0.1791  0.3836 -0.7776
 1738TIP3   OH226704   4.565   3.091  10.767 -0.2764 -0.2016 -0.3670
 1738TIP3    H126705   4.539   3.079  10.676  1.6592  0.0361 -0.9657
 1738TIP3    H226706   4.660   3.083  10.767 -0.2516 -0.2646  1.6485
 1739TIP3   OH226707   2.799   2.227   4.191 -0.3036  0.3410 -0.0901
 1739TIP3    H126708   2.877   2.204   4.142 -0.0945  1.1426 -0.1414
 1739TIP3    H226709   2.768   2.308   4.151 -0.5013  0.6528  0.6706
 1740TIP3   OH226710   0.491   1.873   5.443 -0.1805 -0.0328  0.5531
 1740TIP3    H126711   0.563   1.830   5.490 -0.0210  0.4838  0.7889
 1740TIP3    H226712   0.466   1.810   5.375  1.1949  0.2063 -0.2018
 1741TIP3   OH226713   6.281   2.058  10.310  0.3824 -0.3660 -0.5403
 1741TIP3    H126714   6.309   2.040  10.400 -1.5385  0.5997  0.2835
 1741TIP3    H226715   6.253   1.973  10.277 -1.8669 -0.2449  0.8857
 1742TIP3   OH226716   1.635   2.740   4.576 -0.2824 -0.2916  0.1227
 1742TIP3    H126717   1.594   2.826   4.577  0.8852  0.3071 -2.2270
 1742TIP3    H226718   1.580   2.687   4.519 -0.5146 -0.8844  0.8773
 1743TIP3   OH226719   2.064   1.432   2.050  0.3914 -0.6209 -0.2921
 1743TIP3    H126720   2.017   1.499   2.001 -0.4583  0.3196  1.7206
 1743TIP3    H226721   2.010   1.354   2.041 -1.7123  0.4605  2.0361
 1744TIP3   OH226722   3.505   2.705   2.680  0.6057 -0.5357  0.4875
 1744TIP3    H126723   3.588   2.665   2.706  0.6106  0.2811  1.7930
 1744TIP3    H226724   3.526   2.797   2.667  0.0118 -0.4214  0.3150
 1745TIP3   OH226725   5.985   5.434   4.448 -0.1354  0.8088  0.4008
 1745TIP3    H126726   5.966   5.431   4.541  2.6120  0.0989  0.9694
 1745TIP3    H226727   5.982   5.343   4.419 -1.2825  1.0524 -0.2886
 1746TIP3   OH226728   6.375   5.669  15.942  0.3670  0.2371  0.9538
 1746TIP3    H126729   6.446   5.614  15.977 -0.4630 -0.9074  0.8890
 1746TIP3    H226730   6.350   5.626  15.860  1.3890  2.1523 -0.4031
 1747TIP3   OH226731   5.737   3.366   4.327 -0.1344 -0.4711 -0.3711
 1747TIP3    H126732   5.644   3.345   4.325 -0.2629 -0.0948  1.0431
 1747TIP3    H226733   5.741   3.459   4.305 -0.0734 -0.5214 -0.5776
 1748TIP3   OH226734   1.451   5.910   4.523  0.6930  0.1215  0.3803
 1748TIP3    H126735   1.408   5.865   4.596 -1.9328  1.8777 -0.0277
 1748TIP3    H226736   1.384   5.916   4.456  2.1651  1.3051 -1.0079
 1749TIP3   OH226737   2.270   5.584  13.071  0.0478 -0.3592 -0.5065
 1749TIP3    H126738   2.209   5.645  13.111 -1.1763 -1.5545 -0.5078
 1749TIP3    H226739   2.325   5.555  13.144 -0.6829 -0.7840 -0.1155
 1750TIP3   OH226740   3.180   0.140  15.135  0.1246 -0.5829  0.2962
 1750TIP3    H126741   3.160   0.075  15.067 -0.2765 -0.6322  0.4651
 1750TIP3    H226742   3.102   0.143  15.189  0.9817 -1.6013  1.6236
 1751TIP3   OH226743   2.873   1.197   2.210 -0.2262 -0.7981  0.0712
 1751TIP3    H126744   2.814   1.237   2.275  1.3619 -0.0576  1.0915
 1751TIP3    H226745   2.956   1.185   2.257  0.8226 -0.6658 -1.7000
 1752TIP3   OH226746   2.838   1.201  11.818  0.3727 -0.4987  0.2569
 1752TIP3    H126747   2.880   1.192  11.903 -0.2153  3.8773  1.1358
 1752TIP3    H226748   2.758   1.251  11.835 -2.0506 -3.2575 -2.2974
 1753TIP3   OH226749   1.565   5.886  14.323 -0.0334 -0.2922  0.2173
 1753TIP3    H126750   1.520   5.904  14.240  0.8162 -3.2116 -0.9723
 1753TIP3    H226751   1.495   5.883  14.388 -0.9906 -0.0414 -0.7840
 1754TIP3   OH226752   3.376   0.727  13.312 -0.0352 -0.0847 -0.0956
 1754TIP3    H126753   3.423   0.785  13.252  0.6421 -2.8074 -2.3088
 1754TIP3    H226754   3.283   0.743  13.293  0.0281  2.6052  1.6486
 1755TIP3   OH226755   6.311   4.361  16.475 -0.1913 -0.0412  0.3449
 1755TIP3    H126756   6.375   4.289  16.465  0.3942  0.7122 -1.6108
 1755TIP3    H226757   6.359   4.429  16.521 -0.0322 -0.0166  0.1420
 1756TIP3   OH226758   4.984   4.046   1.185  0.0859 -0.2775 -0.2211
 1756TIP3    H126759   5.003   3.983   1.255  0.0977  0.0173  0.0430
 1756TIP3    H226760   4.905   4.012   1.143 -0.8750  0.4113  0.9913
 1757TIP3   OH226761   2.861   0.746   5.447  0.2538 -0.0381  0.0461
 1757TIP3    H126762   2.886   0.657   5.473  1.3298  0.3420  0.3347
 1757TIP3    H226763   2.940   0.783   5.407 -0.3236  0.6355 -0.5002
 1758TIP3   OH226764   3.106   5.888   4.650  0.3508  0.0105 -0.1609
 1758TIP3    H126765   3.108   5.838   4.731  1.3372 -0.6823 -0.6019
 1758TIP3    H226766   3.101   5.979   4.679  0.7066 -0.2305  0.6874
 1759TIP3   OH226767   2.314   5.526   4.269  0.6833  0.2338 -0.0893
 1759TIP3    H126768   2.381   5.510   4.335  0.7802 -0.9260 -0.4732
 1759TIP3    H226769   2.340   5.474   4.194 -0.8472 -0.5464 -0.1063
 1760TIP3   OH226770   4.949   4.065  14.051  0.6070 -0.0634 -0.1835
 1760TIP3    H126771   4.976   4.155  14.035 -0.7287  0.0967 -1.6832
 1760TIP3    H226772   4.996   4.014  13.984  0.4161 -0.3234 -0.1194
 1761TIP3   OH226773   1.901   5.023   0.790  0.0524 -0.0760 -0.2827
 1761TIP3    H126774   1.895   4.998   0.882 -3.8989 -1.6420 -0.8491
 1761TIP3    H226775   1.941   4.948   0.747  1.5181  0.4912  0.0636
 1762TIP3   OH226776   6.224   2.415  12.103  0.0154 -0.3266 -0.4259
 1762TIP3    H126777   6.177   2.411  12.020  1.6143 -0.7029 -1.3400
 1762TIP3    H226778   6.270   2.499  12.100 -0.8789  0.2113  0.6223
 1763TIP3   OH226779   3.551   0.365   3.757 -0.1136  0.0720  0.0330
 1763TIP3    H126780   3.487   0.299   3.733  1.0704 -1.4498  0.9185
 1763TIP3    H226781   3.630   0.315   3.778  1.4089  1.8916 -1.1614
 1764TIP3   OH226782   5.636   0.058  17.056 -0.0912 -0.0882  0.3183
 1764TIP3    H126783   5.604   0.142  17.089 -2.5281 -0.7192 -0.3274
 1764TIP3    H226784   5.592  -0.008  17.110 -0.8415 -1.0263 -1.3988
 1765TIP3   OH226785   6.099   5.522  12.369 -0.0968  0.4759  0.3002
 1765TIP3    H126786   6.027   5.564  12.322 -0.5956  0.8238  1.3473
 1765TIP3    H226787   6.178   5.551  12.323 -0.7014 -1.9239 -2.4296
 1766TIP3   OH226788   2.410   3.830  12.609 -0.1947  0.0610 -0.4314
 1766TIP3    H126789   2.454   3.878  12.539  0.8910 -3.1017 -2.0611
 1766TIP3    H226790   2.317   3.833  12.586  0.2440 -1.7555 -2.6398
 1767TIP3   OH226791   4.937   4.532   5.471 -0.0826 -0.1416  0.3598
 1767TIP3    H126792   5.002   4.577   5.417  1.3812 -0.8716  1.4963
 1767TIP3    H226793   4.943   4.575   5.556 -0.8504 -0.4509  0.5716
 1768TIP3   OH226794   0.249   5.255  11.478 -0.3464  0.0104 -0.2133
 1768TIP3    H126795   0.156   5.233  11.477 -0.3238 -0.1785  1.5426
 1768TIP3    H226796   0.294   5.171  11.469 -0.3174  0.2177 -2.5046
 1769TIP3   OH226797   4.879   5.141   4.165  0.0141  0.0243 -0.5278
 1769TIP3    H126798   4.901   5.164   4.256  0.1901  1.4230 -0.9202
 1769TIP3    H226799   4.846   5.051   4.171 -0.5459  0.3114  1.0115
 1770TIP3   OH226800   2.611   5.640   4.043  0.1300 -0.0363  0.0686
 1770TIP3    H126801   2.604   5.727   4.081  1.7658 -0.8548  2.3588
 1770TIP3    H226802   2.690   5.603   4.081 -0.3708 -2.4267 -1.0816
 1771TIP3   OH226803   6.736   1.934  15.115  0.3660  0.7642  0.2608
 1771TIP3    H126804   6.765   1.843  15.118  2.1213  1.3707  2.5519
 1771TIP3    H226805   6.773   1.968  15.034 -1.7834 -0.9827 -1.5450
 1772TIP3   OH226806   2.584   4.562   0.298 -0.6568  0.7603  1.0341
 1772TIP3    H126807   2.529   4.623   0.248 -0.0120 -0.4448 -1.2117
 1772TIP3    H226808   2.531   4.481   0.303  0.6348 -0.2209 -0.6559
 1773TIP3   OH226809   1.721   1.051  16.402 -0.1627 -0.0760 -0.2150
 1773TIP3    H126810   1.760   1.130  16.437  1.6849 -1.2738  0.4985
 1773TIP3    H226811   1.770   1.033  16.322 -0.2474 -0.7450 -0.1239
 1774TIP3   OH226812   2.539   0.753  16.162 -0.2826  0.3130  0.5437
 1774TIP3    H126813   2.514   0.661  16.153 -2.4667  0.4375  4.3260
 1774TIP3    H226814   2.493   0.797  16.091 -2.8451 -0.8923  1.4168
 1775TIP3   OH226815   3.085   1.501   5.020 -0.2718 -0.3606 -0.4100
 1775TIP3    H126816   3.119   1.562   5.086 -0.1617 -0.6895 -0.1647
 1775TIP3    H226817   3.146   1.510   4.946  0.6218 -1.2926  0.2019
 1776TIP3   OH226818   1.258   6.589  12.149 -0.2212 -0.1686  0.1650
 1776TIP3    H126819   1.229   6.661  12.092 -1.1954 -0.4013  0.3607
 1776TIP3    H226820   1.353   6.597  12.151 -0.1755 -0.1298 -1.4775
 1777TIP3   OH226821   5.778   4.282   3.871 -0.2435  0.1802 -0.1284
 1777TIP3    H126822   5.684   4.296   3.867 -0.4038 -1.1622 -1.2910
 1777TIP3    H226823   5.795   4.209   3.812  1.5386  0.4482  0.0035
 1778TIP3   OH226824   6.358   1.378  12.168 -0.6845  0.2210  0.3165
 1778TIP3    H126825   6.316   1.440  12.228 -2.8094  0.7824 -1.7210
 1778TIP3    H226826   6.448   1.372  12.201 -1.3163  1.8606  2.5047
 1779TIP3   OH226827   5.979   1.292   5.302  0.1112 -0.3016 -0.0398
 1779TIP3    H126828   5.905   1.232   5.312  0.1426 -0.1364  1.1711
 1779TIP3    H226829   6.047   1.257   5.359  0.2981  0.6133  0.3108
 1780TIP3   OH226830   4.381   5.518   4.519 -0.3217  0.0062  0.3617
 1780TIP3    H126831   4.457   5.464   4.543 -0.3700 -0.0436  0.4029
 1780TIP3    H226832   4.329   5.462   4.462 -0.8930 -0.3704  1.2347
 1781TIP3   OH226833   2.141   2.750   6.414 -0.4799 -0.1113  0.0732
 1781TIP3    H126834   2.189   2.698   6.349 -0.4818  0.6207 -0.5272
 1781TIP3    H226835   2.052   2.757   6.377 -0.6786 -0.3045  0.5123
 1782TIP3   OH226836   4.941   4.286  11.522  0.0191 -0.6708 -0.1072
 1782TIP3    H126837   4.917   4.231  11.447  0.5709 -0.0879 -0.7160
 1782TIP3    H226838   4.865   4.343  11.536  0.5448  0.3169 -1.2391
 1783TIP3   OH226839   0.088   6.085   3.823  0.7900  0.2859  0.0952
 1783TIP3    H126840   0.033   6.163   3.816 -0.1055 -0.3147  0.3774
 1783TIP3    H226841   0.177   6.119   3.828  0.4848  1.2435 -0.9164
 1784TIP3   OH226842   3.282   2.419   5.545 -0.0481  0.2017 -0.0877
 1784TIP3    H126843   3.212   2.370   5.588  0.8828  0.4802  1.7655
 1784TIP3    H226844   3.255   2.422   5.453 -0.9946 -2.2693  0.0557
 1785TIP3   OH226845   2.925   4.953   1.528  0.3243 -0.2415  0.1223
 1785TIP3    H126846   2.866   4.931   1.600 -0.7232  1.7257 -0.0950
 1785TIP3    H226847   2.952   4.869   1.492 -2.2952 -1.1874  0.2627
 1786TIP3   OH226848   3.917   4.352   3.824  0.2209  0.3444 -0.3102
 1786TIP3    H126849   3.930   4.383   3.914 -1.3377  1.0292 -0.2997
 1786TIP3    H226850   3.948   4.424   3.770  0.8391  0.0719 -0.3179
 1787TIP3   OH226851   5.929   6.726  16.392 -0.2255  0.2422 -0.1348
 1787TIP3    H126852   5.999   6.764  16.339  0.2908 -0.1782  0.2556
 1787TIP3    H226853   5.849   6.764  16.355  0.2095  0.8104 -0.5037
 1788TIP3   OH226854   1.870   2.950   5.048  0.0935 -0.3549 -0.0882
 1788TIP3    H126855   1.861   3.025   5.106  0.4379  0.2983 -0.8811
 1788TIP3    H226856   1.839   2.876   5.101  0.5830  0.1984  0.9888
 1789TIP3   OH226857   2.525   1.884  12.826 -0.4706 -0.3510 -0.1476
 1789TIP3    H126858   2.493   1.859  12.740 -0.7928 -0.1362 -0.0902
 1789TIP3    H226859   2.447   1.909  12.875 -0.1999  0.4333 -0.0977
 1790TIP3   OH226860   3.614   2.270  16.978 -0.5424 -0.3196  0.1997
 1790TIP3    H126861   3.579   2.188  17.010 -1.3005  0.7827  2.2799
 1790TIP3    H226862   3.705   2.272  17.008 -0.2000 -0.8557 -0.7668
 1791TIP3   OH226863   3.049   3.145   6.079  0.3005  0.0810 -0.6258
 1791TIP3    H126864   3.055   3.222   6.136  1.2760  1.2556 -2.2506
 1791TIP3    H226865   2.966   3.155   6.033  0.9935  0.8471 -1.7447
 1792TIP3   OH226866   5.974   1.742   1.221  0.3954 -0.3124 -0.0687
 1792TIP3    H126867   6.032   1.746   1.145  2.7786 -1.6940  1.5892
 1792TIP3    H226868   5.975   1.649   1.246  1.0842  0.4123  2.6970
 1793TIP3   OH226869   2.965   5.756   3.897 -0.7438  0.1180  0.3146
 1793TIP3    H126870   3.022   5.804   3.957 -0.4153  1.2711 -0.8995
 1793TIP3    H226871   2.930   5.684   3.950  0.5023  0.3874  1.5353
 1794TIP3   OH226872   3.551   3.816   2.684  0.4003 -0.0932 -0.6467
 1794TIP3    H126873   3.566   3.749   2.751 -1.2684  2.0170  1.9615
 1794TIP3    H226874   3.473   3.785   2.637 -0.1945 -0.1628  0.3623
 1795TIP3   OH226875   4.670   2.574  13.430  0.5756 -0.6225  0.1484
 1795TIP3    H126876   4.689   2.565  13.336 -0.6540 -0.4976 -0.1107
 1795TIP3    H226877   4.575   2.567  13.437  0.6473 -0.5363  1.3819
 1796TIP3   OH226878   0.548   1.405  12.968 -0.2935 -0.1167  0.6197
 1796TIP3    H126879   0.500   1.365  12.895 -0.8479 -1.0819  1.5026
 1796TIP3    H226880   0.637   1.415  12.935 -0.6500 -0.1186 -0.3531
 1797TIP3   OH226881   3.746   2.611  15.903 -0.7647 -0.0302 -0.3385
 1797TIP3    H126882   3.690   2.685  15.926  0.8145  0.3410  2.6040
 1797TIP3    H226883   3.720   2.542  15.964  1.6027 -0.0195  0.7227
 1798TIP3   OH226884   5.469   3.631  15.422  0.0601  0.3661  1.0134
 1798TIP3    H126885   5.420   3.657  15.344  0.3849 -1.5008  0.1354
 1798TIP3    H226886   5.541   3.693  15.427 -0.9179  1.5430  0.8194
 1799TIP3   OH226887   5.613   0.180  12.696 -0.0752 -0.1518 -0.8593
 1799TIP3    H126888   5.619   0.102  12.641 -0.0987 -0.2676 -0.6981
 1799TIP3    H226889   5.527   0.216  12.677  0.3634  0.4516 -1.7582
 1800TIP3   OH226890   2.809   3.371  11.100 -0.9253  0.1435 -0.0013
 1800TIP3    H126891   2.717   3.352  11.083 -0.4215 -1.4320 -1.0080
 1800TIP3    H226892   2.848   3.382  11.014 -0.2461  1.2450  0.4330
 1801TIP3   OH226893   1.901   2.011   1.006  0.5084  0.6664 -0.2118
 1801TIP3    H126894   1.817   2.009   1.052  0.9606  1.6588  0.6663
 1801TIP3    H226895   1.878   2.035   0.916 -0.1943  0.4706 -0.0908
 1802TIP3   OH226896   1.754   1.532   2.213  0.2878 -0.1382  0.4036
 1802TIP3    H126897   1.764   1.538   2.118 -1.0078  0.5808  0.2919
 1802TIP3    H226898   1.795   1.613   2.246  1.2076 -0.6401  0.5033
 1803TIP3   OH226899   1.752   2.033  11.885 -0.2080  0.4131  0.2064
 1803TIP3    H126900   1.814   2.038  11.812 -0.1997 -0.3423  0.1478
 1803TIP3    H226901   1.796   1.980  11.951 -0.5375  0.4006  0.4220
 1804TIP3   OH226902   4.121   3.763  14.669  0.1654  0.3230 -0.2474
 1804TIP3    H126903   4.165   3.847  14.682  0.6816  0.1364 -0.7470
 1804TIP3    H226904   4.037   3.786  14.630  0.9274  0.5387 -1.8352
 1805TIP3   OH226905   5.467   1.075  14.732  0.2707  0.2113  0.6653
 1805TIP3    H126906   5.546   1.030  14.761  1.0458  0.9015 -0.3108
 1805TIP3    H226907   5.435   1.022  14.659  1.0001  1.0228 -0.2705
 1806TIP3   OH226908   5.865   3.122  13.008 -0.1414 -0.4241 -0.3876
 1806TIP3    H126909   5.815   3.173  13.071 -1.0770 -0.7002 -0.8998
 1806TIP3    H226910   5.821   3.136  12.924 -0.3962 -2.0145 -0.5452
 1807TIP3   OH226911   1.201   2.892   1.072  0.1526  0.1352 -0.0407
 1807TIP3    H126912   1.238   2.920   0.988 -0.4763 -0.7195 -0.6196
 1807TIP3    H226913   1.119   2.849   1.048 -0.8844  1.4054  1.1588
 1808TIP3   OH226914   6.760   4.988  15.987 -0.0308 -0.0388 -0.2709
 1808TIP3    H126915   6.852   5.008  16.005 -0.3535  0.0615  1.3984
 1808TIP3    H226916   6.718   5.074  15.980 -0.8392  0.0225  3.7725
 1809TIP3   OH226917   2.205   6.759  15.144  0.2389 -0.1918  0.6534
 1809TIP3    H126918   2.276   6.816  15.115 -0.8147  0.1963 -1.2634
 1809TIP3    H226919   2.222   6.744  15.237  2.9672 -0.3410  0.1548
 1810TIP3   OH226920   6.388   1.252  11.311  0.2420 -0.0015  0.0067
 1810TIP3    H126921   6.348   1.328  11.354  0.1972 -0.1021  0.1414
 1810TIP3    H226922   6.435   1.289  11.237 -1.4999 -0.0537 -1.1530
 1811TIP3   OH226923   0.758   3.992  14.719 -0.6398 -0.0351 -0.2262
 1811TIP3    H126924   0.789   4.032  14.638  1.6330 -1.3585 -0.0512
 1811TIP3    H226925   0.689   3.932  14.691  0.6861 -1.0874 -1.3138
 1812TIP3   OH226926   5.889   3.758  16.752 -0.5912 -0.3269 -0.1993
 1812TIP3    H126927   5.828   3.830  16.733  0.0290  0.1970 -0.2053
 1812TIP3    H226928   5.899   3.759  16.847 -1.9391 -1.5245 -0.0216
 1813TIP3   OH226929   3.750   3.030  15.778  0.1111  0.4285 -0.6160
 1813TIP3    H126930   3.681   3.080  15.734 -0.1359  1.0146  0.4131
 1813TIP3    H226931   3.703   2.965  15.830  0.3328  0.8758  0.1439
 1814TIP3   OH226932   4.930   5.118   2.835  0.2504 -0.2014 -0.2749
 1814TIP3    H126933   4.863   5.172   2.877 -0.2391 -1.7675  1.0325
 1814TIP3    H226934   5.013   5.163   2.853 -0.1582  0.1495  0.7499
 1815TIP3   OH226935   0.230   1.579   5.460  0.2407  0.3967  0.1144
 1815TIP3    H126936   0.173   1.650   5.490 -1.3211 -0.7024 -0.1619
 1815TIP3    H226937   0.229   1.587   5.365 -0.1621 -0.1540  0.0694
 1816TIP3   OH226938   1.014   0.758   3.442 -0.0481  0.3096 -0.2789
 1816TIP3    H126939   0.992   0.747   3.534 -0.4201 -1.0969 -0.5175
 1816TIP3    H226940   1.085   0.822   3.442  0.6328 -0.4214  1.0654
 1817TIP3   OH226941   2.643   4.583   4.446 -0.5570  0.2496  0.2172
 1817TIP3    H126942   2.552   4.587   4.474 -0.6463  1.2430 -0.1759
 1817TIP3    H226943   2.690   4.639   4.508  0.1420 -1.8841  1.6815
 1818TIP3   OH226944   5.607   4.325   3.070 -0.5944 -0.0054  0.4084
 1818TIP3    H126945   5.523   4.317   3.115 -0.3150  0.8099  1.1021
 1818TIP3    H226946   5.659   4.383   3.127  1.3212 -2.5230  1.2963
 1819TIP3   OH226947   4.095   0.048  14.712 -0.0298  0.0477 -0.4993
 1819TIP3    H126948   4.066   0.138  14.723 -0.3078 -0.1668  0.5879
 1819TIP3    H226949   4.047   0.015  14.636  0.6983  1.0733 -1.4091
 1820TIP3   OH226950   5.180   6.357   4.025  0.3288 -0.4324  0.0013
 1820TIP3    H126951   5.258   6.304   4.043  1.3025  1.1464  0.5343
 1820TIP3    H226952   5.162   6.342   3.932  1.7969 -0.1217 -0.3415
 1821TIP3   OH226953   2.636   1.770  15.701 -0.4928 -0.2257 -0.2128
 1821TIP3    H126954   2.717   1.734  15.663 -0.9155 -1.9660  0.4859
 1821TIP3    H226955   2.654   1.863  15.711  1.8091 -0.7341  0.7946
 1822TIP3   OH226956   1.950   0.058  15.141 -0.0089 -0.1443 -0.2081
 1822TIP3    H126957   1.958   0.113  15.218 -0.3041  0.8079 -0.8504
 1822TIP3    H226958   2.032   0.008  15.138  0.8594  1.2935 -0.4180
 1823TIP3   OH226959   2.137   2.494  17.277 -0.6622 -0.0594  0.0913
 1823TIP3    H126960   2.116   2.401  17.273 -0.2163 -0.2063  0.9820
 1823TIP3    H226961   2.093   2.532  17.201  2.6057 -1.6400 -2.7059
 1824TIP3   OH226962   4.562   3.510  12.982 -0.3261  0.0084 -0.4488
 1824TIP3    H126963   4.545   3.595  12.941 -1.9029  0.2100  0.6091
 1824TIP3    H226964   4.482   3.460  12.967  0.0571 -0.8029  0.1966
 1825TIP3   OH226965   0.136   4.280   5.907  0.5891 -0.1312 -0.7773
 1825TIP3    H126966   0.190   4.350   5.944  0.3285 -1.4331  2.1155
 1825TIP3    H226967   0.051   4.288   5.951  0.7095 -2.5643 -0.0149
 1826TIP3   OH226968   3.172   0.548   6.592 -0.3035 -0.1062 -0.1831
 1826TIP3    H126969   3.213   0.625   6.552 -1.2499 -0.6594 -2.2817
 1826TIP3    H226970   3.245   0.494   6.622  0.3962  0.8260 -0.1899
 1827TIP3   OH226971   1.255   5.816  14.754  0.2143 -0.3662  0.4217
 1827TIP3    H126972   1.336   5.766  14.756 -1.1430 -2.7747 -1.3217
 1827TIP3    H226973   1.189   5.755  14.788 -1.0336  1.2275  0.9342
 1828TIP3   OH226974   6.092   3.675   2.666  0.3501 -0.3321 -0.4331
 1828TIP3    H126975   6.120   3.614   2.734 -0.8730 -0.4793 -0.0416
 1828TIP3    H226976   5.998   3.687   2.682 -0.0914 -0.8230 -2.4186
 1829TIP3   OH226977   0.124   6.331   2.046  0.0298  0.4363 -0.4819
 1829TIP3    H126978   0.134   6.410   1.994  0.8847  0.6094 -0.0689
 1829TIP3    H226979   0.064   6.276   1.996 -3.9080  3.0088  1.1422
 1830TIP3   OH226980   4.809   0.266  12.642 -0.3698  0.4947 -0.3500
 1830TIP3    H126981   4.903   0.268  12.662 -0.2325  0.1928 -0.9637
 1830TIP3    H226982   4.800   0.315  12.560 -0.9205  1.6331  0.3769
 1831TIP3   OH226983   0.640   0.674  13.733 -0.8135 -0.0940  0.3661
 1831TIP3    H126984   0.726   0.666  13.776 -0.6121 -1.1876 -0.2275
 1831TIP3    H226985   0.582   0.621  13.787 -1.0278  0.3040  0.5259
 1832TIP3   OH226986   2.397   2.230   5.113  0.0375 -0.2041  0.3425
 1832TIP3    H126987   2.378   2.193   5.200  0.1333  0.4977  0.6643
 1832TIP3    H226988   2.490   2.253   5.117 -0.0647  0.2239  0.1911
 1833TIP3   OH226989   5.065   5.235  14.459 -0.1192  0.0023 -0.0721
 1833TIP3    H126990   4.996   5.283  14.506 -0.0042 -0.5315  0.6511
 1833TIP3    H226991   5.143   5.290  14.469 -0.4236  0.5640 -0.8165
 1834TIP3   OH226992   4.886   5.444   4.204 -0.1150 -0.3725 -0.1155
 1834TIP3    H126993   4.819   5.510   4.218 -1.0154 -1.2712 -0.1482
 1834TIP3    H226994   4.840   5.371   4.162  1.4623  0.1898 -2.9580
 1835TIP3   OH226995   4.612   1.706   5.081  0.2021  0.7595  0.4273
 1835TIP3    H126996   4.663   1.759   5.020  0.2643  0.9568  0.6513
 1835TIP3    H226997   4.650   1.723   5.166 -0.1734  0.8323  0.5826
 1836TIP3   OH226998   2.674   2.720   5.002 -0.1624 -0.7205  0.3488
 1836TIP3    H126999   2.592   2.672   5.013 -0.0271 -0.5661  2.1998
 1836TIP3    H227000   2.653   2.810   5.026 -0.1488 -0.0640 -2.0371
 1837TIP3   OH227001   4.714   6.170   4.979 -0.3970 -0.0706 -0.0307
 1837TIP3    H127002   4.634   6.166   4.927 -0.1908 -0.7452 -0.3029
 1837TIP3    H227003   4.687   6.207   5.063 -0.9968 -0.3283 -0.1111
 1838TIP3   OH227004   2.061   5.514  11.583 -0.5454  1.0642  0.2815
 1838TIP3    H127005   2.005   5.440  11.602 -1.8752  1.2742 -2.6016
 1838TIP3    H227006   2.025   5.552  11.503  2.6097  2.3054 -0.6248
 1839TIP3   OH227007   4.529   3.623   4.195  0.3024 -0.1530  0.0605
 1839TIP3    H127008   4.509   3.531   4.177 -0.5357 -0.3334  1.8477
 1839TIP3    H227009   4.488   3.671   4.123 -1.3931 -0.9892  0.4590
 1840TIP3   OH227010   4.046   5.006  13.657  0.4498 -0.5807 -0.2995
 1840TIP3    H127011   4.074   5.083  13.608  1.6578  1.3422  3.2010
 1840TIP3    H227012   4.126   4.973  13.698 -0.6531 -1.4849  1.1844
 1841TIP3   OH227013   2.579   2.635   5.738 -0.4841 -0.2655  0.3212
 1841TIP3    H127014   2.538   2.680   5.664 -0.1216 -0.8610 -0.2536
 1841TIP3    H227015   2.513   2.573   5.768 -0.0509 -1.1591 -0.5443
 1842TIP3   OH227016   0.659   3.574   3.682  0.2286 -0.3246  0.6491
 1842TIP3    H127017   0.722   3.596   3.613 -0.2333 -0.5960  0.1378
 1842TIP3    H227018   0.699   3.501   3.728 -0.2654 -1.3037 -0.4486
 1843TIP3   OH227019   5.041   3.383   2.718 -0.1496  0.4742  0.3634
 1843TIP3    H127020   4.987   3.307   2.744 -0.0262  0.5132  0.7356
 1843TIP3    H227021   5.130   3.359   2.743 -0.4753  1.8633  3.0467
 1844TIP3   OH227022   6.168   1.574   3.794  0.6846  0.1901  0.0179
 1844TIP3    H127023   6.196   1.483   3.807  2.5255  1.0029  2.1786
 1844TIP3    H227024   6.076   1.575   3.822  0.6451 -1.0155 -0.0428
 1845TIP3   OH227025   2.041   3.488  10.849 -0.0011 -0.1405  0.2180
 1845TIP3    H127026   1.954   3.451  10.838  0.6907 -1.1736 -2.0812
 1845TIP3    H227027   2.091   3.418  10.892 -0.6017  0.9413  2.8000
 1846TIP3   OH227028   1.599   6.406   0.010  0.0555 -0.1732 -0.4609
 1846TIP3    H127029   1.649   6.375  -0.066  0.8295 -1.0937  0.3968
 1846TIP3    H227030   1.645   6.484   0.039  0.8001 -0.8042  0.0969
 1847TIP3   OH227031   5.174   4.956   1.537  0.0832  0.8986  0.2788
 1847TIP3    H127032   5.126   5.001   1.606 -0.7126  2.9631 -1.5421
 1847TIP3    H227033   5.265   4.979   1.551  0.0349  0.5814  1.1388
 1848TIP3   OH227034   6.322   1.813   2.398 -0.2219  0.0396 -0.0161
 1848TIP3    H127035   6.346   1.741   2.455 -0.6215 -1.2608 -1.4542
 1848TIP3    H227036   6.282   1.771   2.322 -0.0427  1.7453 -1.0807
 1849TIP3   OH227037   2.514   2.051   4.884  0.2289 -0.4238  0.3992
 1849TIP3    H127038   2.466   2.059   4.967 -0.7556  0.9167 -0.3006
 1849TIP3    H227039   2.580   2.121   4.887  0.3122 -0.4900  0.1197
 1850TIP3   OH227040   6.332   0.585  13.533 -0.1719  0.1315 -0.1080
 1850TIP3    H127041   6.291   0.622  13.611 -2.2310 -1.4819 -0.3880
 1850TIP3    H227042   6.407   0.536  13.566 -0.0947  0.7685  0.6866
 1851TIP3   OH227043   0.834   5.650  14.542 -0.2055 -0.3914  0.1220
 1851TIP3    H127044   0.806   5.673  14.631  2.3468 -2.6550  1.5989
 1851TIP3    H227045   0.871   5.731  14.507 -0.8597  0.4274  1.2714
 1852TIP3   OH227046   0.801   6.347  14.193 -0.3955 -0.1345  0.2454
 1852TIP3    H127047   0.761   6.280  14.138 -0.1150 -0.5366  0.5263
 1852TIP3    H227048   0.838   6.410  14.131 -2.7985  1.0566 -0.0013
 1853TIP3   OH227049   5.108   4.826   4.856  0.5447  0.3298 -0.0753
 1853TIP3    H127050   5.111   4.876   4.937  0.2229 -0.2623  0.3047
 1853TIP3    H227051   5.038   4.866   4.805  0.9163  0.8642 -0.1676
 1854TIP3   OH227052   6.419   0.858  13.103  0.2370 -0.2762  0.1113
 1854TIP3    H127053   6.389   0.796  13.169 -0.5060  1.1613  1.1669
 1854TIP3    H227054   6.345   0.870  13.044 -0.7795  2.0736  1.8082
 1855TIP3   OH227055   5.047   4.486  14.766  0.0700  0.1536  0.3200
 1855TIP3    H127056   4.982   4.418  14.748  0.6660 -0.4726  0.5297
 1855TIP3    H227057   5.042   4.500  14.861  1.3119 -0.9801  0.5563
 1856TIP3   OH227058   1.629   1.222   1.817  0.1685 -0.3212  0.2633
 1856TIP3    H127059   1.668   1.258   1.738 -2.0287 -0.2985 -0.8527
 1856TIP3    H227060   1.662   1.277   1.888  0.5161  0.9513 -0.8718
 1857TIP3   OH227061   4.661   5.060   1.329  0.7669 -0.2167 -0.0443
 1857TIP3    H127062   4.681   4.977   1.373  1.3441  0.5812  1.2484
 1857TIP3    H227063   4.572   5.049   1.297 -0.1569 -0.3966  2.4650
 1858TIP3   OH227064   1.103   5.120  12.167  0.4285 -0.5319  0.4054
 1858TIP3    H127065   1.105   5.144  12.260  3.1086 -1.5098  0.6309
 1858TIP3    H227066   1.175   5.169  12.128 -0.7985  0.0152 -1.2406
 1859TIP3   OH227067   2.672   5.362  14.437  0.1562  0.1738 -0.7237
 1859TIP3    H127068   2.712   5.433  14.388  2.1215 -0.7968 -0.5915
 1859TIP3    H227069   2.642   5.300  14.371 -2.2929  1.4540 -0.8749
 1860TIP3   OH227070   4.247   1.465   3.176  0.5071  0.1144  0.0323
 1860TIP3    H127071   4.252   1.559   3.162  1.4512 -0.1357 -1.3632
 1860TIP3    H227072   4.336   1.439   3.201  0.1210 -0.3261  1.0046
 1861TIP3   OH227073   1.171   0.864  10.679  0.0908 -0.4626 -0.0260
 1861TIP3    H127074   1.219   0.870  10.762  0.7444  0.2744 -0.4495
 1861TIP3    H227075   1.154   0.771  10.667  2.2771 -0.8417 -0.3487
 1862TIP3   OH227076   5.398   5.004  10.859  0.3756 -0.0427 -0.0067
 1862TIP3    H127077   5.457   5.071  10.823  1.2334  0.4568  2.2709
 1862TIP3    H227078   5.320   5.009  10.803  1.0206  1.8102 -0.8000
 1863TIP3   OH227079   5.358   3.989  15.343  0.2546  0.3131  0.5139
 1863TIP3    H127080   5.278   3.969  15.293  1.0590  0.0463 -0.6939
 1863TIP3    H227081   5.425   3.932  15.304  1.4950  1.9794  0.1720
 1864TIP3   OH227082   1.311   3.296  12.122  0.3946 -0.5202  0.2763
 1864TIP3    H127083   1.311   3.366  12.188 -2.3478  0.9283 -1.1733
 1864TIP3    H227084   1.259   3.226  12.161  3.8442 -2.2108  2.0819
 1865TIP3   OH227085   1.699   3.760   1.217 -0.5530 -0.2477  0.0914
 1865TIP3    H127086   1.633   3.801   1.272  0.2323 -2.8250  3.1301
 1865TIP3    H227087   1.655   3.745   1.133 -2.6353  1.3446  0.8503
 1866TIP3   OH227088   1.359   6.799  15.493  0.1109 -0.0593  0.3789
 1866TIP3    H127089   1.406   6.874  15.457 -0.6051 -0.3929 -1.3190
 1866TIP3    H227090   1.408   6.723  15.462  0.8273 -0.3115  2.0822
 1867TIP3   OH227091   4.112   5.660  15.193  0.3977 -0.0121 -0.2734
 1867TIP3    H127092   4.037   5.608  15.163  1.2514 -1.0862 -0.5809
 1867TIP3    H227093   4.128   5.720  15.120  0.8208 -0.8496 -0.8855
 1868TIP3   OH227094   1.305   1.149  13.869  0.4895 -0.5023 -0.3530
 1868TIP3    H127095   1.308   1.122  13.961 -0.4577 -1.2011 -0.5209
 1868TIP3    H227096   1.275   1.240  13.872 -2.4533 -1.4023 -0.0919
 1869TIP3   OH227097   0.867   3.361   3.566 -0.0833 -0.3749  0.0977
 1869TIP3    H127098   0.897   3.272   3.584  1.2982 -0.2488 -1.4493
 1869TIP3    H227099   0.782   3.350   3.523  0.1043 -0.9500 -0.1266
 1870TIP3   OH227100   0.249   6.309   0.613  0.0566 -0.1628  0.3244
 1870TIP3    H127101   0.168   6.283   0.658 -0.9662 -1.1290 -1.9354
 1870TIP3    H227102   0.234   6.400   0.588  0.1109 -0.0108  0.8433
 1871TIP3   OH227103   3.202   3.498  17.261  0.3129 -0.6057  0.1310
 1871TIP3    H127104   3.263   3.526  17.330 -1.4477  1.4115  0.9169
 1871TIP3    H227105   3.254   3.501  17.180  1.3297  0.8433  0.8245
 1872TIP3   OH227106   0.778   4.186  16.367  0.0023 -0.1169  0.2618
 1872TIP3    H127107   0.737   4.127  16.431 -2.2541  1.3333  0.1825
 1872TIP3    H227108   0.868   4.195  16.399 -0.1450 -2.0702  1.3477
 1873TIP3   OH227109   0.931   6.477  15.176  0.6441 -0.1931 -0.1303
 1873TIP3    H127110   1.017   6.453  15.143  0.9149  0.3595  0.1642
 1873TIP3    H227111   0.896   6.538  15.110  1.2507  1.0358  0.6571
 1874TIP3   OH227112   3.809   3.461   1.415 -0.3867 -0.3982  0.2410
 1874TIP3    H127113   3.894   3.417   1.420 -1.1468 -1.8601  0.7405
 1874TIP3    H227114   3.779   3.443   1.326 -0.5232 -0.5682  0.3210
 1875TIP3   OH227115   5.710   0.548   6.023 -0.8250 -0.2448 -0.3629
 1875TIP3    H127116   5.623   0.580   5.999 -0.2204  0.4150 -1.7422
 1875TIP3    H227117   5.721   0.573   6.115 -2.0787 -0.3284 -0.1898
 1876TIP3   OH227118   3.155   6.733  12.191 -0.4174 -0.2986  0.4751
 1876TIP3    H127119   3.079   6.680  12.166 -0.1491 -1.1626  1.4771
 1876TIP3    H227120   3.231   6.682  12.163 -0.2005  1.3266 -2.0462
 1877TIP3   OH227121   4.869   5.190   5.172  0.4369  0.1135 -0.3800
 1877TIP3    H127122   4.775   5.173   5.181  0.3788  0.2129 -0.7788
 1877TIP3    H227123   4.885   5.264   5.230  0.2494  0.1516 -0.3752
 1878TIP3   OH227124   3.455   5.530   0.692  0.8320  0.5370  0.2398
 1878TIP3    H127125   3.447   5.471   0.767 -0.5726  1.2932  0.7016
 1878TIP3    H227126   3.509   5.482   0.629 -0.8492 -1.5310  0.3237
 1879TIP3   OH227127   6.036   5.720   4.562  0.7886  0.2299  0.1278
 1879TIP3    H127128   6.046   5.629   4.535  1.6170  0.4189 -0.2253
 1879TIP3    H227129   5.944   5.728   4.589  0.0423 -0.0551 -2.2656
 1880TIP3   OH227130   5.035   5.737  12.200  1.1030  0.1139 -0.4885
 1880TIP3    H127131   5.005   5.647  12.214 -1.2333  0.9806  0.1459
 1880TIP3    H227132   4.978   5.771  12.132  0.0269  2.0825  1.3615
 1881TIP3   OH227133   6.203   2.536  16.446 -0.5727  0.5329 -0.2389
 1881TIP3    H127134   6.177   2.603  16.509 -0.5793  0.1204  0.1999
 1881TIP3    H227135   6.185   2.453  16.491 -0.8605  0.2374 -0.9006
 1882TIP3   OH227136   0.047   4.648   5.504  0.0142 -0.0582 -0.0689
 1882TIP3    H127137   0.074   4.643   5.596  1.2886 -1.5672 -0.5059
 1882TIP3    H227138  -0.032   4.594   5.500  1.0899 -1.6450 -0.2488
 1883TIP3   OH227139   5.462   6.485  15.475  0.1075 -0.1502  0.2423
 1883TIP3    H127140   5.390   6.463  15.535  0.7835  0.8703  1.4445
 1883TIP3    H227141   5.535   6.507  15.532  0.7657  0.8684 -0.9654
 1884TIP3   OH227142   0.383   2.209   0.649  0.2966 -0.3879  0.0199
 1884TIP3    H127143   0.378   2.158   0.569  0.3634 -0.5839  0.1397
 1884TIP3    H227144   0.297   2.199   0.689 -0.9309  2.5648 -1.7532
 1885TIP3   OH227145   3.324   5.236  11.552  0.1892  0.0508  0.1174
 1885TIP3    H127146   3.365   5.318  11.525  1.2154 -0.1131  1.1147
 1885TIP3    H227147   3.230   5.254  11.551  0.4488  1.5985  1.4294
 1886TIP3   OH227148   0.108   0.105   6.995  0.3705 -0.4009  0.0238
 1886TIP3    H127149   0.059   0.146   6.923  0.0713 -1.3874 -0.3451
 1886TIP3    H227150   0.112   0.013   6.971 -1.6466 -1.1492  2.3155
 1887TIP3   OH227151   0.781   1.824   2.654  0.4817  0.4855  0.0730
 1887TIP3    H127152   0.823   1.778   2.726 -0.3507  0.3918  0.5011
 1887TIP3    H227153   0.714   1.764   2.623 -0.6327  1.4174  0.6527
 1888TIP3   OH227154   6.241   5.624  11.474 -0.6664  0.2293 -0.0904
 1888TIP3    H127155   6.283   5.703  11.506 -0.3903  0.2835 -0.5778
 1888TIP3    H227156   6.313   5.565  11.452 -0.8886 -0.8101  1.8658
 1889TIP3   OH227157   2.480   3.330  11.292 -0.2933  0.4167  0.3858
 1889TIP3    H127158   2.527   3.247  11.278 -1.2059 -0.0873  0.2033
 1889TIP3    H227159   2.503   3.383  11.216  1.7047  1.0207  1.3845
 1890TIP3   OH227160   6.678   2.727  14.713 -0.6016 -0.0075 -0.5215
 1890TIP3    H127161   6.586   2.701  14.711 -0.3948 -0.7467 -0.5414
 1890TIP3    H227162   6.676   2.822  14.718 -1.3838 -0.1095  1.3320
 1891TIP3   OH227163   3.347   1.347   1.472 -0.5787 -0.3831 -0.3135
 1891TIP3    H127164   3.383   1.404   1.541  2.8059 -3.5055  0.6795
 1891TIP3    H227165   3.340   1.261   1.514 -0.6864 -1.8315 -3.2104
 1892TIP3   OH227166   6.486   4.156  16.951 -0.4203 -0.0839  0.4413
 1892TIP3    H127167   6.433   4.087  16.911  0.1734 -0.1342 -0.2748
 1892TIP3    H227168   6.426   4.230  16.959 -0.7233 -0.2842  0.0567
 1893TIP3   OH227169   1.983   5.766  17.094  0.0167  0.1508 -0.4858
 1893TIP3    H127170   1.932   5.776  17.014  0.2017  0.2590 -0.5896
 1893TIP3    H227171   1.919   5.779  17.165  0.1044  1.3077 -0.6157
 1894TIP3   OH227172   4.009   4.121  11.662  0.1865 -0.0597 -0.2762
 1894TIP3    H127173   4.090   4.105  11.614 -0.5351  0.3967 -1.6829
 1894TIP3    H227174   3.942   4.072  11.613 -0.4623 -0.1070  0.6382
 1895TIP3   OH227175   1.222   4.441   0.551 -0.0623  0.2967 -0.3745
 1895TIP3    H127176   1.143   4.459   0.500 -0.3947 -0.7150 -0.2316
 1895TIP3    H227177   1.288   4.416   0.485 -0.0411  0.5336 -0.4421
 1896TIP3   OH227178   2.048   2.811   1.856  0.1982 -0.0191 -0.3775
 1896TIP3    H127179   1.961   2.842   1.882 -0.1698 -0.2523 -1.2986
 1896TIP3    H227180   2.109   2.861   1.910 -0.5234 -0.0849  0.5080
 1897TIP3   OH227181   5.961   5.943   4.417 -0.2383  0.3701  0.1006
 1897TIP3    H127182   6.018   5.886   4.469 -0.1724 -0.0619 -0.4420
 1897TIP3    H227183   5.873   5.910   4.433 -0.4642  1.5849  1.6458
 1898TIP3   OH227184   4.128   1.051  17.034 -0.3745  0.4261 -0.1938
 1898TIP3    H127185   4.184   0.975  17.046 -0.1548  0.6106 -0.0605
 1898TIP3    H227186   4.162   1.093  16.955  1.3562  2.0191  1.3543
 1899TIP3   OH227187   1.406   1.652   4.677  0.4871 -0.2055  0.5206
 1899TIP3    H127188   1.402   1.626   4.585  2.2744  0.2294  0.3078
 1899TIP3    H227189   1.480   1.603   4.713 -0.5238 -0.7714  1.8641
 1900TIP3   OH227190   1.281   2.241  12.249  0.6686  0.5113 -0.0236
 1900TIP3    H127191   1.195   2.238  12.292 -0.0622 -0.7662 -1.5039
 1900TIP3    H227192   1.316   2.327  12.272 -0.4127  0.5058  1.7307
 1901TIP3   OH227193   1.116   3.009   3.757  0.5162 -0.1145 -0.2004
 1901TIP3    H127194   1.154   3.044   3.838  0.4526  1.3861 -0.7909
 1901TIP3    H227195   1.190   2.973   3.709  0.6816 -0.2503  0.1545
 1902TIP3   OH227196   4.360   5.615  12.918  0.1501 -0.3928 -0.3363
 1902TIP3    H127197   4.412   5.536  12.930  0.2403 -0.4231 -0.8887
 1902TIP3    H227198   4.401   5.681  12.973  0.8687 -0.3727 -0.8887
 1903TIP3   OH227199   2.295   6.195  15.508  0.1332 -0.1969  0.5418
 1903TIP3    H127200   2.349   6.267  15.539 -2.0850  1.5181  0.5746
 1903TIP3    H227201   2.330   6.117  15.551  0.8319  1.2704  2.6764
 1904TIP3   OH227202   2.632   0.514  12.134 -0.0776 -0.1485 -0.1516
 1904TIP3    H127203   2.653   0.555  12.050 -0.4107 -2.2969 -1.3249
 1904TIP3    H227204   2.715   0.512  12.181  0.7108 -1.4271 -1.5617
 1905TIP3   OH227205   3.534   4.675   3.931 -0.4301 -0.0428  0.2731
 1905TIP3    H127206   3.612   4.678   3.985 -0.7818 -1.4208  0.8653
 1905TIP3    H227207   3.526   4.764   3.896  2.9608 -0.5523 -2.0815
 1906TIP3   OH227208   1.740   4.264   1.008 -0.1346  0.4696  0.9068
 1906TIP3    H127209   1.743   4.207   0.931 -2.3136 -1.7353  2.3786
 1906TIP3    H227210   1.720   4.351   0.972 -0.7467 -0.4351 -1.0455
 1907TIP3   OH227211   2.176   2.875  13.134 -0.5337  0.7447 -0.2389
 1907TIP3    H127212   2.243   2.942  13.127  1.2022 -0.7463  1.5461
 1907TIP3    H227213   2.122   2.903  13.208 -0.7171  0.9386 -0.4449
 1908TIP3   OH227214   0.466   5.090  15.767 -0.0471  0.2291 -0.0405
 1908TIP3    H127215   0.531   5.025  15.791  0.2689  0.7838  0.6149
 1908TIP3    H227216   0.476   5.160  15.832 -0.6708  0.7340 -0.4775
 1909TIP3   OH227217   5.711   3.804  13.792 -0.3577  0.3755 -0.2640
 1909TIP3    H127218   5.686   3.876  13.735  1.2682  1.1870  0.0159
 1909TIP3    H227219   5.802   3.784  13.768 -0.4773 -0.9485  0.3053
 1910TIP3   OH227220   1.513   5.097   4.858  0.5983 -0.0414 -0.2888
 1910TIP3    H127221   1.520   5.110   4.952 -1.2385 -2.6559  0.2784
 1910TIP3    H227222   1.420   5.110   4.839  0.7488 -0.6970 -1.5325
 1911TIP3   OH227223   1.981   5.873  15.495  0.4271  0.2824 -0.2955
 1911TIP3    H127224   1.956   5.889  15.586  0.1057  1.5475 -0.5981
 1911TIP3    H227225   1.916   5.921  15.444  0.6819 -0.3182 -1.2023
 1912TIP3   OH227226   6.450   6.371   4.839  0.4227 -0.5939  0.7310
 1912TIP3    H127227   6.446   6.276   4.828  0.1708 -0.5851  0.7461
 1912TIP3    H227228   6.506   6.384   4.916 -0.7243 -0.7922  1.6160
 1913TIP3   OH227229   3.888   4.922   4.726 -0.1274  0.2522  0.5516
 1913TIP3    H127230   3.809   4.953   4.771 -0.6774  2.2503 -1.6618
 1913TIP3    H227231   3.884   4.963   4.640  1.6026 -2.3584 -0.8412
 1914TIP3   OH227232   3.806   5.746   3.829  0.0522  0.2357  0.1099
 1914TIP3    H127233   3.789   5.686   3.756  0.8696  0.6058 -0.3927
 1914TIP3    H227234   3.719   5.774   3.858 -0.2710  0.3851 -0.9799
 1915TIP3   OH227235   0.096   1.823  14.475  0.4048 -0.3013 -0.5146
 1915TIP3    H127236   0.084   1.810  14.381  1.0746  0.4247 -0.7017
 1915TIP3    H227237   0.187   1.799  14.492 -0.0697 -1.6811  0.1801
 1916TIP3   OH227238   3.027   3.641   4.461 -0.3761 -0.1429  0.7142
 1916TIP3    H127239   2.990   3.648   4.549  2.0258  1.9621  1.6132
 1916TIP3    H227240   2.977   3.704   4.409 -0.1708  0.4039  1.1716
 1917TIP3   OH227241   6.682   6.011   6.173  0.0124 -0.0800 -0.0005
 1917TIP3    H127242   6.595   5.976   6.157 -0.1922  0.1808  0.5301
 1917TIP3    H227243   6.711   5.967   6.254 -0.1170  0.7178  0.4865
 1918TIP3   OH227244   5.834   4.097   3.217 -0.1956  0.6333  0.4210
 1918TIP3    H127245   5.743   4.085   3.187  0.2009  0.1440 -0.6228
 1918TIP3    H227246   5.871   4.160   3.156  1.4050 -2.3549 -1.8283
 1919TIP3   OH227247   5.809   4.192  10.559 -0.2813 -0.1512 -0.5197
 1919TIP3    H127248   5.832   4.269  10.506  1.0118  0.4209  0.8449
 1919TIP3    H227249   5.751   4.141  10.502 -0.2166  1.2450 -1.8850
 1920TIP3   OH227250   6.336   3.401  16.676  0.1605  0.4125  0.2555
 1920TIP3    H127251   6.413   3.369  16.630  0.3391  0.7203  0.3423
 1920TIP3    H227252   6.281   3.439  16.607 -0.3892 -0.7325  0.0554
 1921TIP3   OH227253   2.920   5.533  12.231 -0.1051 -0.1485 -0.0316
 1921TIP3    H127254   2.968   5.601  12.279  0.6762 -1.2682  0.7910
 1921TIP3    H227255   2.918   5.566  12.141  1.5142  0.3168  0.0793
 1922TIP3   OH227256   3.407   4.390  14.464  0.2826 -0.5060  0.9035
 1922TIP3    H127257   3.463   4.416  14.390  0.3657  0.9457  1.4656
 1922TIP3    H227258   3.366   4.308  14.435  0.1436  0.1631 -0.8471
 1923TIP3   OH227259   6.137   0.885   3.664  0.2327  0.0524  0.4818
 1923TIP3    H127260   6.094   0.837   3.735  0.2858 -1.0767 -0.2290
 1923TIP3    H227261   6.120   0.832   3.586  0.2023  1.2605 -0.3450
 1924TIP3   OH227262   2.377   5.196  15.774 -0.0482 -0.4297 -0.1258
 1924TIP3    H127263   2.409   5.282  15.746 -1.9675  0.6696  0.8857
 1924TIP3    H227264   2.416   5.134  15.713 -0.6586  1.4276 -2.4742
 1925TIP3   OH227265   0.020   5.424   2.423 -0.8481  0.2441  0.0906
 1925TIP3    H127266   0.069   5.423   2.505 -0.0726 -0.5056 -0.3706
 1925TIP3    H227267  -0.050   5.361   2.435  0.6961 -1.6729 -0.6582
 1926TIP3   OH227268   5.058   2.080  15.296  0.0945 -0.0326  0.1688
 1926TIP3    H127269   4.965   2.068  15.312  0.2724 -0.5032  0.8765
 1926TIP3    H227270   5.067   2.172  15.269 -0.3956  0.3693  1.3749
 1927TIP3   OH227271   4.041   1.190   5.222 -0.6900  0.4591  0.1054
 1927TIP3    H127272   4.109   1.135   5.261 -1.0194 -1.2739 -1.6925
 1927TIP3    H227273   3.963   1.136   5.221 -0.8335  0.6374 -2.4023
 1928TIP3   OH227274   3.570   1.972   5.183 -0.4411 -0.5935  0.1302
 1928TIP3    H127275   3.507   2.036   5.215 -1.1337 -1.8801  1.3694
 1928TIP3    H227276   3.532   1.941   5.100 -0.0038  0.7105 -0.5799
 1929TIP3   OH227277   5.876   0.807   2.124 -0.2780 -0.1449  0.4817
 1929TIP3    H127278   5.883   0.891   2.170 -2.1168  0.4490 -0.2606
 1929TIP3    H227279   5.846   0.746   2.191  0.0645  0.0240  0.7894
 1930TIP3   OH227280   6.274   3.294   4.701  0.1440 -0.0723 -0.0424
 1930TIP3    H127281   6.367   3.287   4.678  0.4156  0.2939  0.9279
 1930TIP3    H227282   6.229   3.302   4.617  0.8085 -2.2268 -0.6229
 1931TIP3   OH227283   3.488   4.037  14.035  0.2354  0.1070 -0.4810
 1931TIP3    H127284   3.491   3.956  13.984 -0.5119 -2.1896  2.9057
 1931TIP3    H227285   3.421   4.021  14.101 -0.0575  3.6128  0.1861
 1932TIP3   OH227286   2.731   1.496   1.658 -0.0979 -0.1993 -0.7460
 1932TIP3    H127287   2.656   1.508   1.716  0.6879  0.6034  0.1258
 1932TIP3    H227288   2.763   1.408   1.679 -0.5799 -0.4133 -0.8824
 1933TIP3   OH227289   5.382   0.583  13.353 -0.0388 -0.1280 -0.5277
 1933TIP3    H127290   5.384   0.537  13.437 -1.1224  1.2406  0.2667
 1933TIP3    H227291   5.339   0.522  13.293 -1.2053 -0.2817  0.4444
 1934TIP3   OH227292   0.228   2.953   0.202 -0.5034  0.1154  0.2032
 1934TIP3    H127293   0.231   2.886   0.270  1.5257  0.9330  0.9729
 1934TIP3    H227294   0.176   3.024   0.240  0.4975  0.5065  0.8663
 1935TIP3   OH227295   1.543   3.521   1.894  0.3975  0.3492 -0.1167
 1935TIP3    H127296   1.469   3.533   1.835  0.4875  1.2762 -0.0445
 1935TIP3    H227297   1.597   3.599   1.881  1.5333 -0.4673 -0.4122
 1936TIP3   OH227298   5.302   5.235  14.777  0.4544 -0.1567  0.0629
 1936TIP3    H127299   5.380   5.238  14.832  0.7058  0.0918 -0.3044
 1936TIP3    H227300   5.274   5.327  14.769 -2.7657 -0.6182  4.2650
 1937TIP3   OH227301   6.364   4.900   2.127 -0.1564  0.4987 -0.5402
 1937TIP3    H127302   6.364   4.994   2.143 -1.8244  0.7463 -1.9058
 1937TIP3    H227303   6.287   4.867   2.173 -0.8222  0.1440 -1.8713
 1938TIP3   OH227304   2.486   0.376   0.372 -0.4919  0.3432  0.1900
 1938TIP3    H127305   2.487   0.387   0.467  1.3798  1.0364  0.1102
 1938TIP3    H227306   2.463   0.463   0.339 -0.8000  0.1869 -0.0059
 1939TIP3   OH227307   1.294   1.295  14.467  0.2303  0.1819 -0.2183
 1939TIP3    H127308   1.282   1.329  14.556 -2.0762  1.9206 -1.1302
 1939TIP3    H227309   1.379   1.252  14.469 -0.2930 -0.8750  3.1633
 1940TIP3   OH227310   5.518   6.240   5.255  0.8218 -0.1418  0.1502
 1940TIP3    H127311   5.466   6.172   5.299  0.0541 -0.7184 -1.6097
 1940TIP3    H227312   5.491   6.322   5.298 -0.3210 -0.6310  0.3918
 1941TIP3   OH227313   1.434   6.024  13.812 -0.1431 -0.2015 -0.0123
 1941TIP3    H127314   1.459   6.113  13.790  1.4833 -0.3595  1.1508
 1941TIP3    H227315   1.356   6.034  13.867 -0.2182  0.4678 -0.2313
 1942TIP3   OH227316   5.862   2.784  10.668  0.2746 -0.4645  0.4001
 1942TIP3    H127317   5.862   2.879  10.678  0.3470 -0.4467  0.2266
 1942TIP3    H227318   5.910   2.768  10.587 -0.7179 -0.5840 -0.1792
 1943TIP3   OH227319   3.162   4.338   1.767  0.3940  0.2005  0.0163
 1943TIP3    H127320   3.185   4.340   1.860 -0.8263  0.0387  0.3353
 1943TIP3    H227321   3.071   4.369   1.765  0.2652 -0.2383 -1.0711
 1944TIP3   OH227322   4.685   6.399  12.190  0.0869  0.3573 -0.4951
 1944TIP3    H127323   4.688   6.402  12.095  0.2996 -0.2821 -0.5102
 1944TIP3    H227324   4.594   6.378  12.211  0.7390 -2.8544 -0.6616
 1945TIP3   OH227325   3.288   2.573   6.455 -0.1063 -0.1494  0.3844
 1945TIP3    H127326   3.310   2.534   6.540 -0.4219  0.1427  0.5979
 1945TIP3    H227327   3.312   2.505   6.392  0.4649 -0.2312  0.6813
 1946TIP3   OH227328   1.960   5.597  12.473  0.2107 -0.9902 -0.9470
 1946TIP3    H127329   1.979   5.588  12.566  2.6094  0.4426 -1.2517
 1946TIP3    H227330   1.865   5.609  12.468  0.3477  1.6506  1.5436
 1947TIP3   OH227331   3.234   5.418   0.601 -0.2017 -0.2574 -0.7356
 1947TIP3    H127332   3.294   5.492   0.598  0.5954 -0.9051 -1.3077
 1947TIP3    H227333   3.265   5.365   0.674  0.0922 -0.7319 -1.2007
 1948TIP3   OH227334   0.292   4.301  13.431 -0.3448  0.5543 -0.5238
 1948TIP3    H127335   0.317   4.216  13.396  2.0060  0.3691  1.4493
 1948TIP3    H227336   0.322   4.300  13.522 -3.4586  2.1739  0.6121
 1949TIP3   OH227337   4.541   6.079   5.624  0.3024  0.3780  0.1462
 1949TIP3    H127338   4.559   6.171   5.607 -1.1345  0.5285 -0.6156
 1949TIP3    H227339   4.446   6.071   5.617  0.1328 -0.6041  3.0254
 1950TIP3   OH227340   1.111   2.457   2.673 -0.0569 -0.0651 -0.3865
 1950TIP3    H127341   1.144   2.434   2.586 -0.6721 -0.1717 -0.5967
 1950TIP3    H227342   1.021   2.424   2.674  0.2572 -0.9281  0.6457
 1951TIP3   OH227343   2.357   1.001   4.302 -0.2090  0.3582  0.2979
 1951TIP3    H127344   2.300   0.962   4.368  1.0655  1.8191  2.3420
 1951TIP3    H227345   2.310   1.080   4.273 -1.1251 -0.7008 -1.1488
 1952TIP3   OH227346   2.561   5.858  10.935 -0.0126  0.0041 -0.1430
 1952TIP3    H127347   2.642   5.842  10.888 -0.7215 -0.6134 -1.1650
 1952TIP3    H227348   2.568   5.949  10.964  0.9644  0.0061 -0.3709
 1953TIP3   OH227349   6.797   4.311   1.458 -0.1638  0.3864 -0.3246
 1953TIP3    H127350   6.794   4.363   1.539  1.7405  2.2335 -1.3906
 1953TIP3    H227351   6.876   4.258   1.466 -0.1829  0.2836 -0.8113
 1954TIP3   OH227352   5.990   5.342  12.710 -0.3818 -0.2690 -0.0830
 1954TIP3    H127353   6.053   5.311  12.646 -0.6915 -0.0591 -0.4948
 1954TIP3    H227354   5.908   5.351  12.661 -0.7782 -0.7079  0.4824
 1955TIP3   OH227355   3.538   0.293  14.940 -0.6055  0.5679  0.0073
 1955TIP3    H127356   3.507   0.206  14.914 -0.6999  0.6380 -0.1174
 1955TIP3    H227357   3.620   0.276  14.986 -0.3839  0.4427 -0.4261
 1956TIP3   OH227358   2.499   6.449  13.305  0.2226 -0.2163 -0.0527
 1956TIP3    H127359   2.507   6.461  13.399  0.5895 -3.2612  0.3733
 1956TIP3    H227360   2.512   6.536  13.268  2.4099  0.6534  2.5840
 1957TIP3   OH227361   0.771   4.867   1.861 -0.4551 -0.0185  0.8448
 1957TIP3    H127362   0.846   4.816   1.830 -0.8572  0.1486 -0.4304
 1957TIP3    H227363   0.790   4.957   1.834 -0.8966  0.1000  0.9175
 1958TIP3   OH227364   3.236   0.459  16.566 -0.5136  0.2370 -0.1536
 1958TIP3    H127365   3.198   0.465  16.654 -1.4040  1.0675 -0.5756
 1958TIP3    H227366   3.249   0.366  16.552  0.5748  0.1569  1.2427
 1959TIP3   OH227367   0.269   0.468  13.767 -0.0871 -0.0219  0.2187
 1959TIP3    H127368   0.277   0.394  13.828  1.6547 -0.0949 -0.0773
 1959TIP3    H227369   0.311   0.541  13.812  1.6866 -0.2030 -1.0602
 1960TIP3   OH227370   1.136   2.176   2.305 -0.4497 -0.4243 -0.1739
 1960TIP3    H127371   1.141   2.164   2.399 -0.9753 -1.7536 -0.3136
 1960TIP3    H227372   1.102   2.093   2.271  1.7106 -0.7478 -1.7153
 1961TIP3   OH227373   0.410   4.145  17.090 -0.1215 -0.1548 -0.3341
 1961TIP3    H127374   0.444   4.195  17.164  1.2072 -0.9263 -0.4227
 1961TIP3    H227375   0.486   4.100  17.053 -0.8322 -0.0825 -1.9416
 1962TIP3   OH227376   5.026   5.579  12.574 -0.2528 -0.0955  0.2323
 1962TIP3    H127377   4.954   5.518  12.592  0.5067 -0.9411  0.4377
 1962TIP3    H227378   4.989   5.642  12.512 -1.2158 -0.4352  0.4529
 1963TIP3   OH227379   0.796   1.573   0.311 -0.3906  0.1786  0.2684
 1963TIP3    H127380   0.853   1.545   0.382 -0.0847 -1.6952 -0.6805
 1963TIP3    H227381   0.707   1.554   0.342 -0.2537 -0.6834  0.1509
 1964TIP3   OH227382   2.816   5.616  16.428  0.0318  0.3740  0.4451
 1964TIP3    H127383   2.840   5.538  16.477 -3.8893  0.8959  3.4319
 1964TIP3    H227384   2.882   5.682  16.451  0.4140 -0.5334  1.9413
 1965TIP3   OH227385   2.683   2.976   5.091 -0.1988 -0.4550  0.0169
 1965TIP3    H127386   2.738   3.029   5.147 -0.8459  0.6437 -0.3701
 1965TIP3    H227387   2.614   3.036   5.060  0.1779 -1.0059 -1.9969
 1966TIP3   OH227388   3.742   5.158  10.451 -0.1831  0.3340  0.2770
 1966TIP3    H127389   3.770   5.250  10.445 -0.7862  0.4795 -0.4589
 1966TIP3    H227390   3.779   5.127  10.534  0.1939  1.1844  0.4370
 1967TIP3   OH227391   5.753   5.642  15.138 -0.1834 -0.6583 -0.4100
 1967TIP3    H127392   5.721   5.569  15.189  1.8787 -1.4055 -0.1586
 1967TIP3    H227393   5.778   5.604  15.054  1.0553 -0.2763 -0.2212
 1968TIP3   OH227394   2.003   0.283   4.953  0.1339 -0.1377  0.4925
 1968TIP3    H127395   2.071   0.344   4.924  0.1427  0.1036  1.0156
 1968TIP3    H227396   1.941   0.337   5.002 -0.0389 -0.4903  0.6650
 1969TIP3   OH227397   2.575   4.245  14.621  0.2566  0.2737 -0.0395
 1969TIP3    H127398   2.609   4.302  14.552  0.6754  0.6989  0.5146
 1969TIP3    H227399   2.589   4.157  14.588 -1.8599  0.4891 -1.6117
 1970TIP3   OH227400   5.266   5.730  12.406 -0.4007  0.5447 -0.3025
 1970TIP3    H127401   5.347   5.699  12.365 -1.6685 -3.4814  0.0641
 1970TIP3    H227402   5.200   5.725  12.337 -0.9998  0.7725  0.2458
 1971TIP3   OH227403   0.526   3.232   4.540  0.7446 -0.2634 -0.4540
 1971TIP3    H127404   0.518   3.207   4.448 -0.3149 -1.6371 -0.0245
 1971TIP3    H227405   0.620   3.229   4.559  0.7455 -3.3693 -0.6319
 1972TIP3   OH227406   4.354   2.940   4.343  0.5590  0.2745 -0.0157
 1972TIP3    H127407   4.416   2.903   4.406 -0.2662  0.3094  0.8447
 1972TIP3    H227408   4.388   2.914   4.257  0.8766 -1.1185  0.5096
 1973TIP3   OH227409   0.823   3.140   2.841  0.3433  0.6324  0.5847
 1973TIP3    H127410   0.793   3.066   2.787  0.2063  1.3588 -0.3529
 1973TIP3    H227411   0.868   3.099   2.914  1.1099 -0.3718 -0.4260
 1974TIP3   OH227412   1.310   4.647   5.293  0.0726 -0.5030  0.5815
 1974TIP3    H127413   1.292   4.664   5.200 -1.7400 -1.7232  0.6898
 1974TIP3    H227414   1.291   4.730   5.336 -2.0633 -0.7786  0.2328
 1975TIP3   OH227415   2.691   6.375  10.989  0.0909 -1.1390 -0.0450
 1975TIP3    H127416   2.746   6.302  10.962 -0.9086 -1.8182 -0.3027
 1975TIP3    H227417   2.637   6.394  10.912  0.5969  0.1154 -0.1005
 1976TIP3   OH227418   5.069   6.478   2.255 -0.3150  0.6930  0.7991
 1976TIP3    H127419   5.044   6.477   2.163 -2.7923  0.2298  1.4566
 1976TIP3    H227420   5.162   6.502   2.254 -0.5496  1.6562 -1.7532
 1977TIP3   OH227421   5.411   3.233  15.221 -0.2176 -0.0612  0.3473
 1977TIP3    H127422   5.366   3.149  15.231  2.6034 -1.8050 -0.8758
 1977TIP3    H227423   5.485   3.228  15.281 -0.2087  1.7145  0.5072
 1978TIP3   OH227424   3.638   3.950  14.668  0.5140  0.5942  0.4446
 1978TIP3    H127425   3.591   3.937  14.751  3.0799  1.4058  2.0756
 1978TIP3    H227426   3.618   4.040  14.644 -0.7060  0.1802 -0.1706
 1979TIP3   OH227427   4.534   2.671  15.493  0.0223  0.1673  0.5587
 1979TIP3    H127428   4.542   2.639  15.583  0.0600  0.7216  0.7498
 1979TIP3    H227429   4.442   2.696  15.485 -0.5644 -2.1216 -0.3042
 1980TIP3   OH227430   1.166   6.348   0.454  0.8219 -0.0969  0.0029
 1980TIP3    H127431   1.213   6.267   0.436 -0.8446 -1.1307  0.2308
 1980TIP3    H227432   1.199   6.411   0.390  1.6501 -1.1412 -0.5869
 1981TIP3   OH227433   2.294   0.171   3.428 -0.6803 -0.5387 -0.2513
 1981TIP3    H127434   2.286   0.081   3.461 -2.6949 -0.6662 -1.0230
 1981TIP3    H227435   2.272   0.226   3.504 -1.2466 -0.7383 -0.2692
 1982TIP3   OH227436   1.733   1.854  16.763  0.4026 -0.2471 -0.0101
 1982TIP3    H127437   1.775   1.938  16.749  0.0418 -0.4217 -2.3766
 1982TIP3    H227438   1.783   1.813  16.834  1.8889  1.0633 -0.2769
 1983TIP3   OH227439   5.209   3.275   3.640  0.7635 -0.4662  0.0944
 1983TIP3    H127440   5.127   3.323   3.649  0.3359 -1.2121  0.2661
 1983TIP3    H227441   5.244   3.303   3.555  1.4147  1.4656  0.9887
 1984TIP3   OH227442   2.684   1.602  17.256 -0.4436  0.0235 -0.1362
 1984TIP3    H127443   2.741   1.530  17.285 -0.2203  0.2882  0.0865
 1984TIP3    H227444   2.694   1.603  17.161  2.1845  1.9119  0.1026
 1985TIP3   OH227445   2.251   5.592  15.630 -0.0897 -0.7211 -0.5441
 1985TIP3    H127446   2.292   5.538  15.562  0.2488 -0.6949 -0.3644
 1985TIP3    H227447   2.320   5.652  15.657 -0.4298 -0.2711 -0.6600
 1986TIP3   OH227448   5.191   1.031   2.642  0.0491  0.0313  0.2871
 1986TIP3    H127449   5.229   0.947   2.670 -0.2509  0.5149  2.2145
 1986TIP3    H227450   5.120   1.006   2.583  1.2797 -0.9908 -0.7930
 1987TIP3   OH227451   2.763   5.441  11.688  0.5051  0.0064  0.1539
 1987TIP3    H127452   2.819   5.407  11.618  2.0311  1.6108  0.5405
 1987TIP3    H227453   2.685   5.386  11.687  0.8537 -0.4683 -2.3024
 1988TIP3   OH227454   6.306   2.362   1.881  0.4114 -0.1210  0.4157
 1988TIP3    H127455   6.226   2.325   1.919 -0.7517  0.8003 -1.1100
 1988TIP3    H227456   6.348   2.407   1.955 -0.8136 -0.0461  1.0906
 1989TIP3   OH227457   2.637   0.530  10.594  0.1273  0.0520  0.3705
 1989TIP3    H127458   2.696   0.604  10.587 -0.3139  0.5009  1.2678
 1989TIP3    H227459   2.631   0.513  10.688 -2.1422  0.8261  0.3925
 1990TIP3   OH227460   1.003   0.836  13.154 -0.0965 -0.0500  0.4723
 1990TIP3    H127461   1.029   0.814  13.244  0.0054  0.8499  0.6674
 1990TIP3    H227462   0.936   0.772  13.132 -2.0709  1.3409  2.1849
 1991TIP3   OH227463   5.026   6.037   1.829 -0.8371  0.0695 -0.1634
 1991TIP3    H127464   4.978   6.086   1.761  0.3996  1.3664 -0.1237
 1991TIP3    H227465   5.103   6.090   1.846 -0.6214 -0.7757  1.5460
 1992TIP3   OH227466   5.177   3.596  13.554  0.4566  0.1826 -0.5323
 1992TIP3    H127467   5.132   3.557  13.629 -0.3117  0.2055 -0.9704
 1992TIP3    H227468   5.154   3.689  13.559  0.6170  0.2283 -0.6467
 1993TIP3   OH227469   2.340   4.912  13.453 -1.0667  0.7767 -0.2779
 1993TIP3    H127470   2.393   4.844  13.411 -0.4102  0.2695  1.3316
 1993TIP3    H227471   2.333   4.981  13.387  2.2873  1.2024 -0.2297
 1994TIP3   OH227472   2.695   4.517   1.428  0.4216 -0.0335  0.2577
 1994TIP3    H127473   2.756   4.447   1.408  0.0868  0.1773 -1.6167
 1994TIP3    H227474   2.748   4.597   1.424  0.5148 -0.0535  1.0227
 1995TIP3   OH227475   3.769   3.786  14.991  0.1483 -0.2550  0.1131
 1995TIP3    H127476   3.764   3.725  15.064  0.7693  1.4752  1.6416
 1995TIP3    H227477   3.681   3.822  14.983 -0.3439 -1.6509 -1.1039
 1996TIP3   OH227478   4.256   2.649  13.806  0.0018 -0.4772 -0.7151
 1996TIP3    H127479   4.318   2.702  13.856 -0.2233  0.5989 -1.5565
 1996TIP3    H227480   4.307   2.573  13.778  1.1859  0.7773 -2.0650
 1997TIP3   OH227481   3.253   5.293  13.575 -0.4968  0.0435  0.7625
 1997TIP3    H127482   3.248   5.386  13.597 -1.0399  0.3026 -0.4388
 1997TIP3    H227483   3.172   5.275  13.528  0.5489 -0.5385 -0.8653
 1998TIP3   OH227484   2.615   2.836  11.657  0.5296  0.1521 -0.1767
 1998TIP3    H127485   2.540   2.778  11.671  1.2204 -0.3351  1.6715
 1998TIP3    H227486   2.609   2.861  11.565  0.3402 -3.0519 -1.1027
 1999TIP3   OH227487   5.230   1.289   2.349 -0.0672 -0.3486 -0.0391
 1999TIP3    H127488   5.270   1.203   2.358 -0.5254 -0.3997  1.6864
 1999TIP3    H227489   5.156   1.276   2.289  1.1630 -0.6932 -1.5062
 2000TIP3   OH227490   0.761   4.294   5.356 -0.4042 -0.4321 -0.1716
 2000TIP3    H127491   0.674   4.300   5.317  0.2377 -0.4913 -1.6733
 2000TIP3    H227492   0.820   4.288   5.281  0.7959 -1.7418  0.8514
 2001TIP3   OH227493   6.534   5.539  15.737  0.5944  0.3302  0.0376
 2001TIP3    H127494   6.590   5.466  15.763  0.6246  1.3710  3.1147
 2001TIP3    H227495   6.586   5.587  15.673  2.7673  0.5837  1.9252
 2002TIP3   OH227496   6.222   0.647  13.798  0.3580 -0.3139 -0.4187
 2002TIP3    H127497   6.287   0.716  13.792  1.1596 -1.0928 -0.9128
 2002TIP3    H227498   6.153   0.682  13.855  0.9740  0.6997 -0.3019
 2003TIP3   OH227499   4.006   1.753   3.940  0.1361 -0.0511  0.0092
 2003TIP3    H127500   3.960   1.814   3.997  1.5114 -0.0804  1.1736
 2003TIP3    H227501   4.071   1.807   3.894  0.0149 -0.2901 -0.4535
 2004TIP3   OH227502   1.359   4.942  13.655 -0.0906 -0.0961  0.2608
 2004TIP3    H127503   1.311   4.931  13.738 -1.5462  0.9539 -0.4253
 2004TIP3    H227504   1.438   4.889  13.667 -0.1565  0.2176  2.4107
 2005TIP3   OH227505   3.650   1.927  13.245  0.2920  0.2141  0.1073
 2005TIP3    H127506   3.586   1.857  13.260  0.6678 -0.2496 -0.4274
 2005TIP3    H227507   3.691   1.904  13.161 -1.7356  2.7201 -1.6343
 2006TIP3   OH227508   4.945   1.327   1.377 -0.0239 -0.0590  0.2078
 2006TIP3    H127509   4.977   1.334   1.287 -0.0263  1.6444  0.3325
 2006TIP3    H227510   4.924   1.234   1.387 -0.0830 -0.2593 -1.5626
 2007TIP3   OH227511   1.169   1.715   4.489  0.1688 -0.1951 -0.2706
 2007TIP3    H127512   1.125   1.662   4.423 -2.4472  2.2255 -0.5428
 2007TIP3    H227513   1.154   1.667   4.571 -0.4385 -0.9057 -0.7837
 2008TIP3   OH227514   3.636   2.929  11.246  0.6206  0.2553  0.6325
 2008TIP3    H127515   3.709   2.969  11.199  2.0585 -0.2446  2.3715
 2008TIP3    H227516   3.616   2.849  11.197  0.1757  1.1920 -0.7420
 2009TIP3   OH227517   0.663   3.673   3.146 -0.2012 -0.4813 -0.5189
 2009TIP3    H127518   0.644   3.666   3.239  0.5609 -1.2752 -0.4064
 2009TIP3    H227519   0.627   3.593   3.108 -1.5987  0.4156 -1.1084
 2010TIP3   OH227520   4.254   6.707   3.287  0.0060  0.4476 -0.3535
 2010TIP3    H127521   4.177   6.743   3.331  0.5052 -1.0123  1.7398
 2010TIP3    H227522   4.325   6.768   3.309 -0.0793  0.6246 -0.5523
 2011TIP3   OH227523   4.589   2.181  17.091  0.4899  0.2784  0.3445
 2011TIP3    H127524   4.573   2.260  17.143  0.8596  0.4575  0.1955
 2011TIP3    H227525   4.576   2.109  17.152  0.7928  0.4807  0.6518
 2012TIP3   OH227526   5.427   1.905  15.413  0.1498  0.8552  0.7981
 2012TIP3    H127527   5.443   1.995  15.382 -2.2715  1.4453  1.1561
 2012TIP3    H227528   5.451   1.908  15.505 -0.5127  1.3280  0.9646
 2013TIP3   OH227529   1.013   6.789  13.339  0.1970  0.5450 -0.4912
 2013TIP3    H127530   0.952   6.728  13.381  0.9075  0.8780  1.0449
 2013TIP3    H227531   0.970   6.874  13.347  1.2058  0.9136  1.3450
 2014TIP3   OH227532   2.588   3.605   2.537 -0.0261 -0.5644 -0.0281
 2014TIP3    H127533   2.501   3.643   2.521 -0.1865 -1.5945 -1.6812
 2014TIP3    H227534   2.591   3.527   2.482  2.2018 -0.2037 -0.4591
 2015TIP3   OH227535   5.822   1.842  11.194  0.3832 -0.6182 -0.2691
 2015TIP3    H127536   5.810   1.860  11.288  0.7908 -1.4357 -0.0555
 2015TIP3    H227537   5.733   1.837  11.160  0.2452  0.8339 -0.1549
 2016TIP3   OH227538   1.864   0.089  11.258 -0.6043 -0.1633 -0.3080
 2016TIP3    H127539   1.798   0.043  11.206 -0.2919 -1.1462  0.1583
 2016TIP3    H227540   1.824   0.099  11.345  1.1301 -3.8391  1.0163
 2017TIP3   OH227541   3.379   5.941   2.526  0.0897  0.4929 -0.1504
 2017TIP3    H127542   3.439   5.924   2.598  1.1581  1.1297 -0.8792
 2017TIP3    H227543   3.393   6.034   2.505 -1.1929  0.6679 -0.2817
 2018TIP3   OH227544   0.703   1.298  11.490  0.0046  0.3603  0.2949
 2018TIP3    H127545   0.716   1.234  11.560  0.6501  0.3593  0.1798
 2018TIP3    H227546   0.613   1.284  11.461 -0.7484  1.3247  2.0901
 2019TIP3   OH227547   6.286   4.114   1.406  0.2635  0.1899 -0.1001
 2019TIP3    H127548   6.229   4.037   1.412 -0.3938  0.7326  0.8385
 2019TIP3    H227549   6.371   4.084   1.439  0.3214 -0.4196 -0.7844
 2020TIP3   OH227550   6.453   2.077   3.361 -0.0946  0.6958 -0.1400
 2020TIP3    H127551   6.431   2.033   3.279 -1.8719  1.7999 -0.2746
 2020TIP3    H227552   6.483   2.007   3.419 -1.2481 -0.4489 -0.9167
 2021TIP3   OH227553   3.704   2.522  12.623  0.5016  0.3520 -0.5181
 2021TIP3    H127554   3.773   2.574  12.582  1.4924 -2.3074 -2.3907
 2021TIP3    H227555   3.715   2.538  12.717  1.4663  2.6228 -0.9893
 2022TIP3   OH227556   1.965   3.015   5.762 -0.0849 -0.5864 -0.0699
 2022TIP3    H127557   1.997   2.970   5.684 -0.5979  0.3846 -0.8593
 2022TIP3    H227558   2.006   3.101   5.759 -1.6786  0.1896 -0.3826
 2023TIP3   OH227559   2.553   0.040  16.492  0.1639 -0.1647  0.5412
 2023TIP3    H127560   2.463   0.069  16.478  0.3037  0.3893  0.8019
 2023TIP3    H227561   2.607   0.110  16.454  0.4756 -0.9765 -0.5522
 2024TIP3   OH227562   2.958   4.856   5.314  0.1487  0.2364  0.4978
 2024TIP3    H127563   3.023   4.893   5.374 -0.1082  0.9748  0.3364
 2024TIP3    H227564   2.903   4.801   5.370  0.9525 -0.4545  0.6205
 2025TIP3   OH227565   3.839   5.630  15.744  0.9674  0.7436 -0.1840
 2025TIP3    H127566   3.931   5.622  15.718  0.6005  0.5605 -1.5002
 2025TIP3    H227567   3.805   5.702  15.691  0.4123  0.9497  0.4500
 2026TIP3   OH227568   5.259   1.906   9.983  0.1310 -0.2961  0.7189
 2026TIP3    H127569   5.213   1.834  10.026  2.6819 -1.9674  0.7600
 2026TIP3    H227570   5.279   1.967  10.054 -3.0364  1.0694  0.5097
 2027TIP3   OH227571   0.249   1.943   5.232  0.0800  0.4516 -0.0173
 2027TIP3    H127572   0.158   1.936   5.203  0.7098 -1.2818 -1.7254
 2027TIP3    H227573   0.256   1.879   5.303 -0.0509  0.5867  0.1158
 2028TIP3   OH227574   0.523   6.008  15.739 -0.2477 -0.4566 -0.0588
 2028TIP3    H127575   0.483   5.925  15.710 -2.6497  1.2138 -1.7748
 2028TIP3    H227576   0.459   6.045  15.800  0.1918  0.7322 -0.3147
 2029TIP3   OH227577   5.187   5.862   2.989 -0.6231  0.6898  0.1607
 2029TIP3    H127578   5.245   5.813   2.931 -1.3732 -1.2583  1.0065
 2029TIP3    H227579   5.099   5.836   2.963 -1.0558  1.9204  0.3629
 2030TIP3   OH227580   2.833   0.671  16.439  0.5692  0.3945 -0.4903
 2030TIP3    H127581   2.903   0.684  16.503  0.4118 -0.1431 -0.2106
 2030TIP3    H227582   2.877   0.631  16.363  0.3618 -1.1181  0.1570
 2031TIP3   OH227583   6.470   1.113   0.441  0.0386  0.0860  0.4502
 2031TIP3    H127584   6.558   1.148   0.448  1.2343 -2.4921 -1.2235
 2031TIP3    H227585   6.442   1.135   0.352 -0.9310  0.6975  0.8962
 2032TIP3   OH227586   5.142   2.657   2.880  0.0259  0.6708  0.1304
 2032TIP3    H127587   5.132   2.749   2.905 -2.2252  1.0583 -1.9830
 2032TIP3    H227588   5.154   2.660   2.785  1.6846 -1.1370  0.2626
 2033TIP3   OH227589   1.423   4.539  11.213 -0.1078  0.7152  0.6933
 2033TIP3    H127590   1.414   4.549  11.118  3.0153  0.1856  0.2848
 2033TIP3    H227591   1.382   4.455  11.233  0.1308  0.3428 -0.3644
 2034TIP3   OH227592   4.271   3.115   4.561 -0.0337 -0.1534 -0.2058
 2034TIP3    H127593   4.345   3.132   4.618 -1.2151 -0.7489  1.5384
 2034TIP3    H227594   4.308   3.069   4.486  1.1288 -1.9856  1.4380
 2035TIP3   OH227595   6.730   4.664  11.672 -0.2986 -0.2885 -0.0500
 2035TIP3    H127596   6.738   4.653  11.766 -0.9684  0.7179  0.1322
 2035TIP3    H227597   6.820   4.656  11.639  0.2107  1.2491  0.8904
 2036TIP3   OH227598   4.396   3.519   5.295  0.5371 -0.0760 -0.1718
 2036TIP3    H127599   4.419   3.467   5.372 -0.6889 -0.7284 -0.2369
 2036TIP3    H227600   4.334   3.465   5.247 -1.0834  1.6190 -0.0149
 2037TIP3   OH227601   5.583   1.446   1.286  0.3172  0.3884  0.4129
 2037TIP3    H127602   5.594   1.538   1.262 -0.6919  0.7197  1.1768
 2037TIP3    H227603   5.623   1.440   1.373 -1.8924  0.7121  1.4948
 2038TIP3   OH227604   1.119   4.793  12.236 -0.1356 -0.3617 -0.2358
 2038TIP3    H127605   1.208   4.824  12.223  0.4897 -0.7963  2.6675
 2038TIP3    H227606   1.091   4.834  12.318 -2.6540 -0.1167 -1.1810
 2039TIP3   OH227607   6.702   5.035  13.402  0.4806  0.1902 -0.3073
 2039TIP3    H127608   6.689   5.125  13.432 -1.1905 -1.0604  2.9270
 2039TIP3    H227609   6.797   5.024  13.399  0.6845  1.4205  1.2239
 2040TIP3   OH227610   6.243   6.567  15.903 -0.1367  0.2264  0.1665
 2040TIP3    H127611   6.164   6.513  15.912 -0.2299  0.7338  2.9077
 2040TIP3    H227612   6.314   6.510  15.933  0.0047  1.0299  1.3876
 2041TIP3   OH227613   1.626   0.228  16.345 -0.2265 -0.2481 -0.4094
 2041TIP3    H127614   1.604   0.211  16.253 -2.7854 -1.1624  0.3258
 2041TIP3    H227615   1.644   0.322  16.348 -1.9141  0.1442 -1.5447
 2042TIP3   OH227616   3.039   3.134   2.286  0.1102 -0.5661  0.3022
 2042TIP3    H127617   3.052   3.082   2.365  1.6397 -1.6071 -0.6270
 2042TIP3    H227618   3.127   3.161   2.260 -0.4430  0.3079 -0.6996
 2043TIP3   OH227619   1.809   6.060  15.338  0.8735 -0.7983 -0.5093
 2043TIP3    H127620   1.873   6.130  15.334  0.1502  0.0116  1.4840
 2043TIP3    H227621   1.735   6.097  15.385  0.5291 -2.9411  0.7284
 2044TIP3   OH227622   0.118   3.359  16.195  0.5685  0.5194 -0.0716
 2044TIP3    H127623   0.036   3.346  16.147 -0.5153  0.1537  1.8612
 2044TIP3    H227624   0.186   3.343  16.129 -0.8914  0.8734 -1.7050
 2045TIP3   OH227625   6.628   6.000  16.504  0.5477 -0.2682  0.0508
 2045TIP3    H127626   6.620   5.973  16.413 -0.2183 -0.9596  0.3304
 2045TIP3    H227627   6.709   6.051  16.506  0.1583  0.4171 -1.1740
 2046TIP3   OH227628   1.516   0.992   5.144  0.5483 -0.3376  0.4726
 2046TIP3    H127629   1.539   1.054   5.075  1.2920  0.2986  1.2909
 2046TIP3    H227630   1.553   1.029   5.224  0.4132 -1.4925  1.0851
 2047TIP3   OH227631   1.022   5.001   3.105 -0.0312  0.1920  0.6684
 2047TIP3    H127632   1.016   4.996   3.200  0.0112  0.5965  0.6934
 2047TIP3    H227633   0.937   5.035   3.077  0.1205  0.5175  0.5989
 2048TIP3   OH227634   3.499   5.505  16.572  0.0046 -0.2075 -0.1057
 2048TIP3    H127635   3.416   5.548  16.549 -0.5194 -1.7375 -1.1656
 2048TIP3    H227636   3.566   5.570  16.551 -0.9236  1.0408  0.7568
 2049TIP3   OH227637   2.815   5.155   3.335  0.0469 -0.3150  0.2602
 2049TIP3    H127638   2.817   5.071   3.381  0.3976 -0.2220  0.4126
 2049TIP3    H227639   2.771   5.215   3.396  1.1847 -0.0048  0.7823
 2050TIP3   OH227640   5.256   5.633  16.840  0.0881 -0.0999 -0.3523
 2050TIP3    H127641   5.216   5.648  16.925  2.0098 -3.5973  1.2624
 2050TIP3    H227642   5.331   5.692  16.838  0.9908 -1.1570  1.1198
 2051TIP3   OH227643   1.030   5.558   5.350 -1.0144  1.1862  0.1366
 2051TIP3    H127644   1.108   5.603   5.317  1.4246 -3.0437 -0.3755
 2051TIP3    H227645   1.045   5.552   5.445  0.2597 -1.1242 -0.1571
 2052TIP3   OH227646   1.883   4.021   5.464 -0.3263  0.0936 -0.3248
 2052TIP3    H127647   1.836   3.954   5.413  0.2525 -0.5786  0.0164
 2052TIP3    H227648   1.952   3.973   5.510 -1.6918  0.4723  2.2059
 2053TIP3   OH227649   3.989   0.437  16.949 -0.5846  0.8792  0.1911
 2053TIP3    H127650   3.988   0.467  16.858  0.7744 -0.7177 -0.3873
 2053TIP3    H227651   3.939   0.356  16.948 -0.0325  0.5266  0.7371
 2054TIP3   OH227652   3.304   4.187  16.175  0.2401 -0.4486 -0.3136
 2054TIP3    H127653   3.381   4.134  16.195 -0.7444 -0.7515  3.1324
 2054TIP3    H227654   3.241   4.126  16.137  0.3845 -0.9950  0.3248
 2055TIP3   OH227655   4.776   4.883   1.504  0.2549  0.1037 -0.3541
 2055TIP3    H127656   4.856   4.833   1.523 -0.4537 -0.0353  2.6178
 2055TIP3    H227657   4.708   4.816   1.493 -0.6199  0.2504  3.2639
 2056TIP3   OH227658   1.630   3.069  12.669  0.7253 -0.5052  0.0839
 2056TIP3    H127659   1.714   3.078  12.625  0.5835  0.7930  0.0671
 2056TIP3    H227660   1.592   2.988  12.633  0.6589  0.4647 -2.0828
 2057TIP3   OH227661   5.483   2.369   1.909 -0.1661 -0.0343 -0.0698
 2057TIP3    H127662   5.577   2.355   1.897 -0.1073  0.3377 -0.0659
 2057TIP3    H227663   5.478   2.435   1.979 -0.4517 -0.7291  0.5707
 2058TIP3   OH227664   0.892   0.075  13.622 -0.1000  0.2844 -0.2603
 2058TIP3    H127665   0.872   0.115  13.537 -0.1262  0.8522  0.0124
 2058TIP3    H227666   0.948   0.139  13.666 -2.7035  1.5027  1.4657
 2059TIP3   OH227667   0.239   5.560  11.837  0.0845  0.0826  0.0374
 2059TIP3    H127668   0.203   5.496  11.898 -1.8049 -0.6314 -1.7660
 2059TIP3    H227669   0.307   5.513  11.790  1.6755  0.6871  1.6503
 2060TIP3   OH227670   5.295   4.642  13.650  0.1782 -0.3506  0.2644
 2060TIP3    H127671   5.358   4.573  13.631  0.3444 -0.3532  0.8157
 2060TIP3    H227672   5.228   4.632  13.582  0.5629 -0.6009 -0.0826
 2061TIP3   OH227673   5.916   0.565   3.569  0.4049  0.2808 -0.2474
 2061TIP3    H127674   5.931   0.618   3.648  2.3284 -0.4826 -0.0854
 2061TIP3    H227675   5.823   0.577   3.550  0.4268  2.3327  0.7873
 2062TIP3   OH227676   0.312   6.402   6.430 -1.0304  0.1785  0.1378
 2062TIP3    H127677   0.269   6.380   6.348 -0.9944  0.4571  0.0430
 2062TIP3    H227678   0.404   6.413   6.406 -1.0398  0.3752  0.1945
 2063TIP3   OH227679   3.481   3.990   5.206  0.2658 -0.3849 -0.0373
 2063TIP3    H127680   3.574   3.968   5.207  0.0554 -1.3404 -0.4980
 2063TIP3    H227681   3.473   4.056   5.136  0.6455 -0.0419  0.2395
 2064TIP3   OH227682   5.735   1.892  11.438  0.3244  0.0664  0.4631
 2064TIP3    H127683   5.778   1.920  11.519  0.6425  0.3562  0.1898
 2064TIP3    H227684   5.642   1.897  11.458  0.4072 -0.9734  1.2005
 2065TIP3   OH227685   4.269   3.329  13.882 -0.1386 -0.2151 -0.5926
 2065TIP3    H127686   4.206   3.401  13.886  0.7351  0.4197  2.9137
 2065TIP3    H227687   4.220   3.252  13.908 -0.5574 -0.5684 -2.3459
 2066TIP3   OH227688   2.433   0.892   0.428  1.0547 -0.4212  0.0410
 2066TIP3    H127689   2.440   0.917   0.520 -0.0925  1.4182 -0.3419
 2066TIP3    H227690   2.492   0.951   0.383  0.1458 -0.0027 -0.6181
 2067TIP3   OH227691   1.012   3.475  17.046 -0.2211 -0.2417  0.0609
 2067TIP3    H127692   1.030   3.393  16.999  1.2276  0.1279 -0.0686
 2067TIP3    H227693   1.055   3.464  17.131  2.2766  1.3819 -0.9271
 2068TIP3   OH227694   5.964   6.701  15.989 -0.1356  0.3777  0.0903
 2068TIP3    H127695   5.923   6.788  15.991  1.1891  1.0084  0.0149
 2068TIP3    H227696   5.892   6.640  16.010 -1.2693  1.4126 -0.6986
 2069TIP3   OH227697   5.498   2.751   2.903  0.0745 -0.5254 -0.2434
 2069TIP3    H127698   5.489   2.729   2.811 -2.0294  1.7636 -0.6357
 2069TIP3    H227699   5.592   2.767   2.915  0.0768  1.4307 -2.5653
 2070TIP3   OH227700   0.699   5.399   5.582 -0.7259 -0.4766  0.4750
 2070TIP3    H127701   0.785   5.372   5.615 -1.7732 -3.6317  0.8217
 2070TIP3    H227702   0.718   5.470   5.521  1.8714  0.7754  2.6274
 2071TIP3   OH227703   6.726   5.592   6.042 -0.1051 -0.1537  0.1146
 2071TIP3    H127704   6.806   5.538   6.043 -0.1340 -0.2072  1.4064
 2071TIP3    H227705   6.741   5.656   5.973  0.9462 -0.3518  0.1472
 2072TIP3   OH227706   5.211   3.312  16.879 -0.5274 -0.3688 -0.2960
 2072TIP3    H127707   5.278   3.363  16.925 -1.3128 -0.3494  0.8421
 2072TIP3    H227708   5.195   3.362  16.799  0.2780  0.0199 -0.2305
 2073TIP3   OH227709   5.895   4.257   0.335 -0.4541 -0.4566 -0.0887
 2073TIP3    H127710   5.922   4.346   0.311 -0.6750 -0.6447 -1.0658
 2073TIP3    H227711   5.953   4.232   0.407 -0.4443  0.5088  0.2448
 2074TIP3   OH227712   2.854   1.895  15.396 -0.4448 -0.5713  0.2570
 2074TIP3    H127713   2.906   1.911  15.316  0.9439 -0.3060  1.1962
 2074TIP3    H227714   2.854   1.979  15.441  2.1486 -1.6709  2.4727
 2075TIP3   OH227715   4.789   5.560  15.248  0.5009 -0.1513 -0.3928
 2075TIP3    H127716   4.717   5.560  15.185  1.0375 -3.2610 -1.0978
 2075TIP3    H227717   4.868   5.559  15.195  1.1300  3.5508  0.3815
 2076TIP3   OH227718   4.974   3.661  12.000  0.1920 -0.0833  0.4578
 2076TIP3    H127719   4.915   3.587  11.985 -0.7400  1.0428 -1.5291
 2076TIP3    H227720   5.059   3.630  11.968  0.2875 -1.0384  1.6020
 2077TIP3   OH227721   4.788   3.650  16.238  0.0296 -0.8064  0.0358
 2077TIP3    H127722   4.705   3.688  16.268 -1.0063 -2.5259 -0.5873
 2077TIP3    H227723   4.855   3.711  16.270 -1.3321 -0.3608  2.1707
 2078TIP3   OH227724   1.690   0.501  12.095  0.4520 -0.7871  0.0335
 2078TIP3    H127725   1.712   0.536  12.009  1.3091  0.8281  0.8843
 2078TIP3    H227726   1.729   0.414  12.096  0.9308 -0.5923 -0.9925
 2079TIP3   OH227727   0.648   0.850  11.147 -0.3313 -0.9148  0.3685
 2079TIP3    H127728   0.681   0.915  11.209  1.3768  0.4421 -1.8321
 2079TIP3    H227729   0.692   0.769  11.170 -0.4828 -0.6616  1.5417
 2080TIP3   OH227730   2.299   5.622   1.616  0.8856 -0.2704  0.2786
 2080TIP3    H127731   2.347   5.549   1.655  0.1733 -1.4081 -0.9205
 2080TIP3    H227732   2.310   5.610   1.521  0.7433  1.1657  0.0636
 2081TIP3   OH227733   3.443   2.424  15.050 -0.6026 -0.7915  0.0370
 2081TIP3    H127734   3.356   2.433  15.089 -0.2573  0.7430  0.5019
 2081TIP3    H227735   3.494   2.376  15.115 -0.6885 -0.3384  0.4445
 2082TIP3   OH227736   5.155   0.652   0.268 -0.4644 -0.0496  0.0862
 2082TIP3    H127737   5.120   0.672   0.355  1.7665  0.8031  0.8329
 2082TIP3    H227738   5.151   0.557   0.261 -0.2495 -0.1472  1.2825
 2083TIP3   OH227739   0.356   2.923   4.748 -0.2827  0.2348  0.7768
 2083TIP3    H127740   0.375   2.947   4.838  0.1446  0.3157  0.6671
 2083TIP3    H227741   0.269   2.959   4.731 -0.4973 -0.0454  1.2526
 2084TIP3   OH227742   1.918   5.013  14.804  0.0712 -0.2601 -0.4227
 2084TIP3    H127743   1.961   5.097  14.819  0.2256 -0.2775 -0.7693
 2084TIP3    H227744   1.956   4.980  14.723 -1.3550  0.2285 -1.3147
 2085TIP3   OH227745   0.894   1.799   0.857  0.1818 -0.2402 -0.0241
 2085TIP3    H127746   0.949   1.721   0.847  1.4982  0.5636  0.7880
 2085TIP3    H227747   0.861   1.794   0.947  1.7577  1.0478  0.6657
 2086TIP3   OH227748   1.035   2.693   5.213  0.3207  0.4007 -0.7098
 2086TIP3    H127749   1.102   2.702   5.281  1.2765 -2.9094 -1.1243
 2086TIP3    H227750   1.084   2.687   5.131 -0.6294  0.5351 -1.2983
 2087TIP3   OH227751   3.020   1.639   3.558  0.3104  0.3147  0.5714
 2087TIP3    H127752   3.000   1.678   3.643  0.8158  0.4016  0.6536
 2087TIP3    H227753   2.999   1.708   3.495 -1.5877 -0.2979  0.5008
 2088TIP3   OH227754   5.233   0.963   4.882 -0.1096  0.0790 -0.2340
 2088TIP3    H127755   5.178   0.885   4.893 -2.2975  1.6499  0.2473
 2088TIP3    H227756   5.171   1.035   4.875  1.8910  1.7955 -0.6882
 2089TIP3   OH227757   3.279   6.143  13.151 -0.0683 -0.2704  0.1440
 2089TIP3    H127758   3.372   6.145  13.128 -0.0917 -1.3237 -0.0497
 2089TIP3    H227759   3.270   6.212  13.217  0.1224  2.3378 -2.4517
 2090TIP3   OH227760   1.196   3.677  16.092 -0.5634 -1.3390  0.1718
 2090TIP3    H127761   1.101   3.689  16.098 -0.6292 -2.3764  1.4723
 2090TIP3    H227762   1.227   3.692  16.181  0.6606  0.2862 -0.5169
 2091TIP3   OH227763   6.503   4.181  17.232  0.6581 -0.1088  0.2328
 2091TIP3    H127764   6.581   4.236  17.242  0.5801  0.2711 -1.1141
 2091TIP3    H227765   6.500   4.162  17.138  0.0262 -1.4552  0.5203
 2092TIP3   OH227766   1.982   1.927   4.345  0.2955 -0.3592 -1.2601
 2092TIP3    H127767   2.069   1.888   4.348 -0.0220 -1.0699 -1.2940
 2092TIP3    H227768   1.922   1.853   4.338 -0.4728 -0.0585  1.3454
 2093TIP3   OH227769   1.460   0.785   5.400 -0.9587  0.4236 -0.0393
 2093TIP3    H127770   1.447   0.717   5.466 -3.9338 -0.7231 -1.7548
 2093TIP3    H227771   1.434   0.866   5.445  0.7103  0.2170  1.3745
 2094TIP3   OH227772   1.680   1.384   4.227 -0.0084 -0.0626 -0.6466
 2094TIP3    H127773   1.700   1.293   4.205  1.7884  0.4671 -1.2355
 2094TIP3    H227774   1.670   1.384   4.322 -2.4475 -1.3211 -0.8713
 2095TIP3   OH227775   0.878   4.251  14.226 -0.3966 -0.0784 -0.2004
 2095TIP3    H127776   0.894   4.314  14.296  1.3414 -1.0556  0.3251
 2095TIP3    H227777   0.825   4.182  14.267 -0.9900  0.2937 -0.3528
 2096TIP3   OH227778   6.567   1.994   2.776 -0.1290 -0.1659  0.3409
 2096TIP3    H127779   6.658   1.997   2.806  0.8388 -2.3703 -2.1701
 2096TIP3    H227780   6.527   1.924   2.827 -0.0719 -0.0477  0.5474
 2097TIP3   OH227781   2.801   3.993   3.290 -0.4647  0.3109 -0.8541
 2097TIP3    H127782   2.849   3.936   3.229  0.4797 -0.3042  0.4567
 2097TIP3    H227783   2.723   3.943   3.312  0.4624 -0.5812  0.4527
 2098TIP3   OH227784   4.493   6.499  13.772 -0.5286 -0.2887  0.0376
 2098TIP3    H127785   4.474   6.446  13.694 -1.1917 -1.9212  1.2843
 2098TIP3    H227786   4.588   6.496  13.781 -0.5264 -0.9045 -0.1654
 2099TIP3   OH227787   4.540   6.166  13.031 -0.0726 -0.2098 -0.7179
 2099TIP3    H127788   4.557   6.231  13.100  1.2337  0.4963 -1.6813
 2099TIP3    H227789   4.541   6.217  12.950 -2.5406 -0.8760 -1.2127
 2100TIP3   OH227790   1.050   0.703  13.396 -0.5943 -0.1218  0.4362
 2100TIP3    H127791   1.027   0.761  13.468 -1.6510  1.5336 -1.1927
 2100TIP3    H227792   1.018   0.617  13.423 -1.6303  0.6292  1.6226
 2101TIP3   OH227793   1.107   5.655   1.727  0.5574  0.0247 -0.6772
 2101TIP3    H127794   1.193   5.691   1.749  0.2947 -0.8707  1.9766
 2101TIP3    H227795   1.126   5.582   1.669  1.4764  0.7764 -1.3429
 2102TIP3   OH227796   3.182   2.578   4.851  0.0448 -0.0786  0.3765
 2102TIP3    H127797   3.233   2.498   4.838  1.1887  0.5907  0.6923
 2102TIP3    H227798   3.204   2.634   4.777 -1.7175 -0.5331 -0.5210
 2103TIP3   OH227799   0.904   4.201  12.746 -0.2028  0.0630 -0.0647
 2103TIP3    H127800   0.948   4.170  12.666 -0.4874  1.3123 -0.7030
 2103TIP3    H227801   0.903   4.124  12.803  3.2583  0.0831  0.1695
 2104TIP3   OH227802   4.200   1.816  12.198  0.6267  0.0042  0.5074
 2104TIP3    H127803   4.231   1.839  12.110  1.4158  0.6941  0.9656
 2104TIP3    H227804   4.111   1.783  12.184 -0.9536  4.1718 -0.0965
 2105TIP3   OH227805   0.374   6.501   3.351 -0.3863  0.2358 -0.7148
 2105TIP3    H127806   0.417   6.514   3.436  0.1892  0.9503 -1.1172
 2105TIP3    H227807   0.442   6.519   3.286 -0.2048 -2.3900 -1.3297
 2106TIP3   OH227808   0.542   3.589  15.181  0.4714 -0.2735  0.4255
 2106TIP3    H127809   0.453   3.624  15.182  0.8343  0.7278 -1.4231
 2106TIP3    H227810   0.597   3.663  15.208  0.8300 -0.6715  0.7959
 2107TIP3   OH227811   1.415   5.394   2.689  0.4351  0.1328  0.0777
 2107TIP3    H127812   1.447   5.407   2.600 -0.9132  0.9601 -0.2934
 2107TIP3    H227813   1.477   5.442   2.744  0.7535  0.3697 -0.4906
 2108TIP3   OH227814   2.497   3.973   1.193 -0.3450  0.0151  0.2345
 2108TIP3    H127815   2.553   3.988   1.116  1.1688 -0.2735  1.2483
 2108TIP3    H227816   2.551   4.002   1.267 -0.9221 -1.7761  1.3763
 2109TIP3   OH227817   0.931   5.515   3.631  0.1687  0.1075  0.3733
 2109TIP3    H127818   0.838   5.535   3.637 -0.0239 -0.4708 -0.5791
 2109TIP3    H227819   0.951   5.523   3.537  1.1086  0.3693  0.5889
 2110TIP3   OH227820   4.171   4.879   0.948 -0.4075  0.3576 -0.5325
 2110TIP3    H127821   4.199   4.874   0.856 -1.1426 -3.2444 -0.6400
 2110TIP3    H227822   4.076   4.863   0.945 -0.2349 -1.0681  0.9260
 2111TIP3   OH227823   1.905   1.427  14.617 -0.5108 -0.0053 -0.0802
 2111TIP3    H127824   1.886   1.466  14.532  1.0353  0.4084 -0.2606
 2111TIP3    H227825   1.989   1.465  14.642 -0.3580 -1.0680  1.0736
 2112TIP3   OH227826   3.952   1.615   3.069  0.3438  0.0763  0.1274
 2112TIP3    H127827   3.994   1.701   3.071  0.4915  0.0380 -1.0354
 2112TIP3    H227828   3.986   1.571   3.146  0.2369  1.0761  0.7544
 2113TIP3   OH227829   3.478   5.314   0.343 -0.0027 -0.4467  0.0267
 2113TIP3    H127830   3.470   5.225   0.308  1.0842 -0.6625  0.3359
 2113TIP3    H227831   3.503   5.302   0.435  0.4311  0.1834 -0.0087
 2114TIP3   OH227832   5.784   5.803  13.011  0.3327 -0.2896 -0.1754
 2114TIP3    H127833   5.714   5.787  13.075  0.7632  1.0521  0.6363
 2114TIP3    H227834   5.738   5.831  12.932 -0.0468  0.9965  0.4846
 2115TIP3   OH227835   3.191   4.889  15.317 -0.1670  0.5390  0.2014
 2115TIP3    H127836   3.256   4.911  15.250 -1.8659 -1.3288 -2.1483
 2115TIP3    H227837   3.121   4.953  15.305 -0.3977  0.3061  0.2966
 2116TIP3   OH227838   4.026   4.193  12.375 -0.1793 -0.2010  0.2636
 2116TIP3    H127839   4.078   4.219  12.299 -0.6654  0.1161  0.0351
 2116TIP3    H227840   4.023   4.098  12.371  0.1785 -0.2079  0.1427
 2117TIP3   OH227841   0.949   0.219  16.578  0.3062 -0.1494 -0.1905
 2117TIP3    H127842   1.007   0.234  16.652  0.0405  0.2329 -0.0610
 2117TIP3    H227843   0.989   0.267  16.505 -0.9458  1.8515  0.4085
 2118TIP3   OH227844   3.043   1.437   2.442 -0.0058  0.0602 -0.3857
 2118TIP3    H127845   3.045   1.531   2.457 -4.3311  0.4484 -1.4069
 2118TIP3    H227846   3.056   1.427   2.348 -0.8561 -0.2189 -0.4844
 2119TIP3   OH227847   2.068   1.717  15.627  0.6074 -0.6134  0.0791
 2119TIP3    H127848   2.158   1.724  15.657  0.5046 -1.8874  0.7116
 2119TIP3    H227849   2.062   1.779  15.554  1.7501  0.1009  0.5869
 2120TIP3   OH227850   0.120   3.544  13.063 -0.1277 -0.6790 -0.3253
 2120TIP3    H127851   0.137   3.479  12.995 -1.6591 -0.9575 -0.4494
 2120TIP3    H227852   0.064   3.609  13.021  0.2322 -0.0210  0.2101
 2121TIP3   OH227853   6.711   6.472  15.275  0.2600 -0.3679  0.0956
 2121TIP3    H127854   6.738   6.438  15.190  0.8477 -0.5617  0.3593
 2121TIP3    H227855   6.704   6.395  15.331  2.2767 -0.0131  0.8839
 2122TIP3   OH227856   2.306   5.896   4.057 -0.0393 -0.8284 -0.5904
 2122TIP3    H127857   2.247   5.967   4.084  0.4717 -1.1759  1.5887
 2122TIP3    H227858   2.384   5.941   4.026 -0.7537 -0.3928 -1.7797
 2123TIP3   OH227859   2.031   0.539   2.315  0.4165  0.3017  0.2176
 2123TIP3    H127860   2.034   0.594   2.236 -1.2882 -0.8423 -0.6665
 2123TIP3    H227861   1.955   0.571   2.364 -0.3314 -0.9629 -0.0944
 2124TIP3   OH227862   4.945   1.547   2.669  0.2214  0.1642  0.2768
 2124TIP3    H127863   4.953   1.514   2.759 -0.7782  0.7423  0.5967
 2124TIP3    H227864   4.966   1.640   2.677  0.3698  0.1657 -0.1381
 2125TIP3   OH227865   2.344   0.602   5.025 -0.4082 -0.1594  0.0371
 2125TIP3    H127866   2.407   0.549   5.075 -0.4711  0.1562  0.4516
 2125TIP3    H227867   2.307   0.662   5.090 -1.0635 -0.2788 -0.2314
 2126TIP3   OH227868   1.219   6.814  16.128 -0.1285 -0.5743  0.1890
 2126TIP3    H127869   1.220   6.859  16.213 -1.2044 -0.2201  0.0241
 2126TIP3    H227870   1.268   6.872  16.069 -0.3323 -0.2904  0.3017
 2127TIP3   OH227871   1.670   5.893  13.061  0.2981  0.0591 -0.5743
 2127TIP3    H127872   1.591   5.933  13.099  0.4797 -1.3888  1.4185
 2127TIP3    H227873   1.657   5.900  12.967 -1.2886  1.6318 -0.2713
 2128TIP3   OH227874   3.839   0.224   2.147 -0.3036  0.9149  0.7928
 2128TIP3    H127875   3.907   0.159   2.164  0.1811  1.1663 -0.1815
 2128TIP3    H227876   3.765   0.196   2.202 -0.8425 -1.6402 -1.1387
 2129TIP3   OH227877   0.322   5.929  14.179 -0.1626  0.1154  0.2268
 2129TIP3    H127878   0.251   5.945  14.242 -0.6168  0.4235 -0.3570
 2129TIP3    H227879   0.300   5.984  14.104  0.4667 -0.1248 -0.1370
 2130TIP3   OH227880   1.634   3.771   1.705  0.0474  0.0670 -0.4443
 2130TIP3    H127881   1.697   3.761   1.777  1.1452  2.3734 -1.0505
 2130TIP3    H227882   1.685   3.749   1.626 -1.0943 -2.2682 -0.5709
 2131TIP3   OH227883   4.654   3.074   1.640  0.5800  0.3996 -0.5922
 2131TIP3    H127884   4.688   3.009   1.702 -1.5381  0.4759  0.7217
 2131TIP3    H227885   4.718   3.144   1.642  1.5750 -0.5008 -0.0169
 2132TIP3   OH227886   0.747   3.136   2.540 -0.5305  0.1847 -0.2852
 2132TIP3    H127887   0.802   3.207   2.574 -0.5694 -0.5874  1.4203
 2132TIP3    H227888   0.782   3.057   2.582 -1.1925 -0.6692 -1.3218
 2133TIP3   OH227889   0.696   5.587  14.826 -0.1132 -0.1337  0.1769
 2133TIP3    H127890   0.686   5.513  14.766  1.0303 -0.4830  0.4101
 2133TIP3    H227891   0.612   5.633  14.821 -0.8300 -1.4435  0.0327
 2134TIP3   OH227892   4.983   1.948  14.838  0.4600 -0.3290  0.0752
 2134TIP3    H127893   5.038   1.947  14.917 -1.1648  0.0530  1.2429
 2134TIP3    H227894   4.986   1.858  14.805  0.4395 -0.7122  1.0908
 2135TIP3   OH227895   3.236   5.601   1.734 -0.2803  0.2321 -0.3409
 2135TIP3    H127896   3.291   5.658   1.790 -3.0758  3.1695 -0.4372
 2135TIP3    H227897   3.159   5.583   1.788 -0.5287 -1.4738 -1.2626
 2136TIP3   OH227898   3.097   1.112  12.043 -0.1204  0.7042  0.1771
 2136TIP3    H127899   3.086   1.040  12.106  0.9457  0.1039 -0.3069
 2136TIP3    H227900   3.160   1.078  11.979  0.4850  2.1187  0.0060
 2137TIP3   OH227901   3.872   0.883  14.568 -0.3461  0.0946 -0.4430
 2137TIP3    H127902   3.853   0.910  14.478  1.4087  0.7285 -0.6367
 2137TIP3    H227903   3.793   0.836  14.596 -1.3825  0.9291 -1.8926
 2138TIP3   OH227904   1.012   4.190   1.860 -0.7797  0.2828  0.2415
 2138TIP3    H127905   1.068   4.266   1.841 -0.1725  0.0839  1.2403
 2138TIP3    H227906   1.006   4.187   1.955 -0.8223 -0.9182  0.2078
 2139TIP3   OH227907   2.243   3.846   1.648  0.0418  0.3108 -0.1702
 2139TIP3    H127908   2.185   3.861   1.722 -0.5758  0.0705 -0.5994
 2139TIP3    H227909   2.185   3.820   1.577  0.7478 -0.7166 -0.3908
 2140TIP3   OH227910   3.710   6.748   2.591 -0.3401  0.1145 -0.4079
 2140TIP3    H127911   3.676   6.818   2.647 -0.5225 -0.2068 -0.1251
 2140TIP3    H227912   3.801   6.737   2.619 -0.5430 -0.3079  0.0740
 2141TIP3   OH227913   4.586   0.171   1.969 -0.4519  0.2890  0.2623
 2141TIP3    H127914   4.592   0.089   2.017  2.4267 -0.3956 -1.1588
 2141TIP3    H227915   4.553   0.147   1.883 -1.7567  0.9530  0.5633
 2142TIP3   OH227916   2.873   5.481  14.119 -0.3734 -0.1147  0.4138
 2142TIP3    H127917   2.835   5.395  14.102  0.8931 -0.2460 -1.9062
 2142TIP3    H227918   2.800   5.535  14.149 -1.5717 -1.4388 -0.1121
 2143TIP3   OH227919   2.752   6.243   6.297 -0.3415  0.4822  0.0643
 2143TIP3    H127920   2.755   6.184   6.373  0.9267  1.3089  0.6867
 2143TIP3    H227921   2.743   6.330   6.336 -0.5602  0.8337 -0.7813
 2144TIP3   OH227922   0.225   4.325   3.890 -0.2894 -0.5450  0.5009
 2144TIP3    H127923   0.255   4.252   3.944 -0.3962  0.0130  1.3208
 2144TIP3    H227924   0.140   4.349   3.927 -0.4046 -0.2112  0.0231
 2145TIP3   OH227925   3.114   3.942   1.545  0.0977  0.0577  0.6320
 2145TIP3    H127926   3.105   3.865   1.489 -0.7479 -0.0694  0.9343
 2145TIP3    H227927   3.204   3.972   1.531 -0.0392 -0.1106 -0.6042
 2146TIP3   OH227928   1.587   1.291   6.036 -0.1252 -0.2783  0.0671
 2146TIP3    H127929   1.597   1.386   6.039  0.0607 -0.3124  0.5078
 2146TIP3    H227930   1.573   1.271   5.944 -2.4000  0.4183  0.2259
 2147TIP3   OH227931   0.654   3.588  17.208 -0.2482  0.7812 -0.1854
 2147TIP3    H127932   0.657   3.495  17.189 -0.1618  1.0895 -1.7509
 2147TIP3    H227933   0.742   3.609  17.240  0.1912  0.6153 -1.2651
 2148TIP3   OH227934   1.501   3.643   5.212 -0.6121  0.1227  0.7076
 2148TIP3    H127935   1.588   3.684   5.210 -0.5880  0.0334 -0.4019
 2148TIP3    H227936   1.489   3.617   5.304  0.3208  0.5882  0.9676
 2149TIP3   OH227937   0.083   6.761   1.939  0.1805  0.2049 -0.0714
 2149TIP3    H127938   0.162   6.738   1.988  0.1685  2.1525  0.9105
 2149TIP3    H227939   0.114   6.815   1.867 -0.1864  0.5391  0.0150
 2150TIP3   OH227940   4.980   4.826  12.311  0.0054 -0.2216  0.0594
 2150TIP3    H127941   4.905   4.805  12.366 -0.3624 -1.6000 -0.9262
 2150TIP3    H227942   4.962   4.913  12.278 -0.1789  0.2724  1.4319
 2151TIP3   OH227943   0.523   6.017  11.326 -0.5451  0.1018  0.2157
 2151TIP3    H127944   0.485   5.932  11.347 -1.1910  0.1983 -0.5698
 2151TIP3    H227945   0.618   6.004  11.337 -0.7228 -0.4097  1.1755
 2152TIP3   OH227946   4.776   0.653  12.937 -0.3475  0.0014  0.0675
 2152TIP3    H127947   4.717   0.728  12.946  0.2051  0.3224  1.0808
 2152TIP3    H227948   4.826   0.672  12.858 -2.5072 -0.9247 -1.5763
 2153TIP3   OH227949   1.406   2.323   2.697 -0.4634  0.1285 -0.4552
 2153TIP3    H127950   1.312   2.336   2.711 -0.3378 -0.7850  1.3150
 2153TIP3    H227951   1.448   2.394   2.746 -0.2042  0.4809 -1.1672
 2154TIP3   OH227952   3.278   3.085   2.025  0.3649 -0.3564  0.0537
 2154TIP3    H127953   3.355   3.031   2.006  0.5722 -0.0586  0.0448
 2154TIP3    H227954   3.203   3.030   2.001  0.6263  0.3437 -2.4986
 2155TIP3   OH227955   5.343   1.841   1.294 -0.4362 -0.2548  0.0224
 2155TIP3    H127956   5.438   1.836   1.287 -0.4283 -0.7900  0.4144
 2155TIP3    H227957   5.325   1.931   1.320  0.0320 -0.4164  0.9298
 2156TIP3   OH227958   6.668   6.392  14.692  0.0661 -0.2091 -0.2299
 2156TIP3    H127959   6.740   6.347  14.648  1.2049  0.7408  0.6255
 2156TIP3    H227960   6.593   6.381  14.633  0.6150 -2.1686 -0.5966
 2157TIP3   OH227961   4.511   0.392   3.682 -0.1441 -0.1408 -0.5284
 2157TIP3    H127962   4.430   0.440   3.666  0.1505 -0.3156 -2.6498
 2157TIP3    H227963   4.578   0.459   3.694 -0.2661 -0.0132 -0.5629
 2158TIP3   OH227964   6.082   4.778   5.267  0.6026  0.6060  0.6644
 2158TIP3    H127965   6.122   4.811   5.186  0.5466  1.6502  1.0514
 2158TIP3    H227966   6.058   4.857   5.315 -0.4800 -0.0049  1.1521
 2159TIP3   OH227967   5.918   2.772  14.063 -0.0291  0.4431  0.0633
 2159TIP3    H127968   5.940   2.730  13.980 -0.5636 -0.9387  0.6117
 2159TIP3    H227969   5.856   2.841  14.040  0.1705  0.3620 -0.7274
 2160TIP3   OH227970   2.391   0.091  16.792 -0.5701  0.3404  0.1127
 2160TIP3    H127971   2.298   0.078  16.773 -1.0875  0.1318  2.5840
 2160TIP3    H227972   2.406   0.185  16.776 -1.4177  0.5423  0.4849
 2161TIP3   OH227973   6.589   4.719   4.954 -0.0938  0.2198 -0.1989
 2161TIP3    H127974   6.576   4.757   5.041  0.9172  1.5235 -0.6065
 2161TIP3    H227975   6.565   4.627   4.964  0.9526  0.1293  1.7105
 2162TIP3   OH227976   1.750   3.306   5.685 -0.0068 -0.5297  0.1163
 2162TIP3    H127977   1.780   3.247   5.755 -1.1072 -1.8022 -0.4671
 2162TIP3    H227978   1.696   3.371   5.730 -0.5455 -1.2254  0.4804
 2163TIP3   OH227979   6.777   5.403  14.051 -0.0345 -0.3484  0.4147
 2163TIP3    H127980   6.869   5.429  14.059 -0.0508  0.9299 -2.6362
 2163TIP3    H227981   6.728   5.483  14.071 -0.2915  0.2087 -2.1757
 2164TIP3   OH227982   3.965   0.809  15.293 -0.1120 -0.0771 -0.2816
 2164TIP3    H127983   4.008   0.859  15.224 -1.8796  1.2033 -0.4805
 2164TIP3    H227984   3.931   0.731  15.248  0.7372 -0.3988 -0.3859
 2165TIP3   OH227985   2.774   4.112  11.569  0.6847 -0.1985  0.0486
 2165TIP3    H127986   2.798   4.160  11.491  1.2512 -0.4495  0.0630
 2165TIP3    H227987   2.857   4.082  11.606  0.5427  1.2371  1.5989
 2166TIP3   OH227988   3.344   1.550  12.889 -0.3763  0.4119 -0.0122
 2166TIP3    H127989   3.406   1.586  12.825 -1.0398  1.3049 -0.1464
 2166TIP3    H227990   3.258   1.580  12.860 -0.7441  0.3336  0.9713
 2167TIP3   OH227991   4.473   3.094  13.046 -0.2447 -0.0540  0.2951
 2167TIP3    H127992   4.566   3.114  13.031  0.1315 -1.1107  1.1547
 2167TIP3    H227993   4.464   3.093  13.142 -0.3727 -3.2994  0.3081
 2168TIP3   OH227994   2.386   3.748  14.785 -0.1342  0.0557  0.1761
 2168TIP3    H127995   2.482   3.747  14.789 -0.1529 -2.1980  0.6310
 2168TIP3    H227996   2.364   3.835  14.753  1.9901  1.3826  2.2189
 2169TIP3   OH227997   5.990   2.404   3.206 -0.5998 -0.1494 -0.6805
 2169TIP3    H127998   6.023   2.376   3.291  0.3058  2.0764 -0.2540
 2169TIP3    H227999   5.912   2.455   3.225 -1.3196 -1.0056 -1.3125
 2170TIP3   OH228000   3.116   0.280  14.790 -0.1888 -0.5346  0.2386
 2170TIP3    H128001   3.055   0.320  14.851  0.8813 -0.2750  1.1531
 2170TIP3    H228002   3.114   0.187  14.813  0.5866 -0.3670  1.0160
 2171TIP3   OH228003   3.047   0.287   2.370 -0.2605 -0.3705 -0.0662
 2171TIP3    H128004   3.094   0.296   2.453  0.3486  0.7259 -0.5258
 2171TIP3    H228005   3.113   0.299   2.302 -0.6175 -2.0031 -0.7323
 2172TIP3   OH228006   0.159   4.693   1.532 -0.9575 -0.3577 -0.6053
 2172TIP3    H128007   0.124   4.730   1.614 -2.2536 -1.4802 -0.6416
 2172TIP3    H228008   0.125   4.751   1.464 -0.1207  0.4067 -0.3776
 2173TIP3   OH228009   2.902   2.879   6.579  0.3377  0.1966  0.0785
 2173TIP3    H128010   2.842   2.949   6.604 -0.2372 -0.4228  0.4259
 2173TIP3    H228011   2.868   2.801   6.622  0.7672 -0.3752 -0.6067
 2174TIP3   OH228012   5.612   1.514   0.087 -0.3358 -0.1636 -0.6792
 2174TIP3    H128013   5.667   1.522   0.165 -0.5423 -0.2959 -0.5203
 2174TIP3    H228014   5.614   1.421   0.066 -0.6746 -0.1993 -0.5480
 2175TIP3   OH228015   1.822   1.078   5.147  0.5404  0.1055  0.3742
 2175TIP3    H128016   1.781   1.122   5.072  1.7529  0.7720  0.0887
 2175TIP3    H228017   1.916   1.086   5.131  0.8496  1.3318  2.5849
 2176TIP3   OH228018   2.261   1.799   4.271  0.4074  0.8076 -0.2852
 2176TIP3    H128019   2.274   1.856   4.196  1.2889 -0.0243 -0.7759
 2176TIP3    H228020   2.350   1.778   4.301  0.0957 -0.4792 -0.2481
 2177TIP3   OH228021   4.240   0.177   2.042  0.3889 -0.4894 -0.0045
 2177TIP3    H128022   4.162   0.169   1.988 -0.3784 -0.6885  1.1230
 2177TIP3    H228023   4.310   0.199   1.980 -0.7013  0.4527 -0.9271
 2178TIP3   OH228024   4.686   6.186   2.879  0.6016 -0.2209 -0.3192
 2178TIP3    H128025   4.598   6.173   2.843  0.2335 -1.1387  0.8783
 2178TIP3    H228026   4.737   6.114   2.844  0.4760 -0.5760  0.2113
 2179TIP3   OH228027   4.506   5.020  10.788 -0.2402  0.0610 -0.2143
 2179TIP3    H128028   4.484   4.927  10.789  1.2945 -0.3560 -2.3317
 2179TIP3    H228029   4.425   5.063  10.760  0.0456 -0.9827 -2.7330
 2180TIP3   OH228030   5.518   0.959   6.249 -0.2584  0.0832  0.7353
 2180TIP3    H128031   5.604   0.971   6.289  0.9428 -1.4691 -1.3029
 2180TIP3    H228032   5.509   1.033   6.189 -0.3766  0.2943  1.0145
 2181TIP3   OH228033   2.276   0.321  15.089 -0.3453 -0.2989 -0.3236
 2181TIP3    H128034   2.225   0.364  15.157  1.1888  1.7452 -0.4157
 2181TIP3    H228035   2.359   0.299  15.132  0.0237 -0.4180 -1.0898
 2182TIP3   OH228036   4.498   2.254  11.337  0.1637  0.2152  0.0491
 2182TIP3    H128037   4.556   2.188  11.299  1.7849  0.8333  1.3833
 2182TIP3    H228038   4.475   2.219  11.423 -2.5407 -0.6348 -0.9569
 2183TIP3   OH228039   4.399   3.954  13.847 -0.9330 -0.3537  0.1515
 2183TIP3    H128040   4.404   4.032  13.903 -1.5858  0.8997 -1.4730
 2183TIP3    H228041   4.330   3.901  13.886 -0.1571 -0.3562  1.5558
 2184TIP3   OH228042   0.406   6.434  11.317 -0.5871 -0.2360  0.2184
 2184TIP3    H128043   0.477   6.423  11.254  0.0752  1.4704  0.6356
 2184TIP3    H228044   0.424   6.369  11.384 -0.7118 -1.3657 -0.8252
 2185TIP3   OH228045   2.476   6.062  14.898  0.4848 -0.0480 -0.1480
 2185TIP3    H128046   2.387   6.077  14.928  0.6202  0.0597  0.2040
 2185TIP3    H228047   2.472   5.977  14.853  0.2426 -0.1218  0.0125
 2186TIP3   OH228048   6.077   4.531   1.326  0.2614 -0.2336 -0.2852
 2186TIP3    H128049   6.139   4.552   1.256  0.8314 -2.5041 -0.4952
 2186TIP3    H228050   6.128   4.480   1.389 -0.6194  0.5645  1.1080
 2187TIP3   OH228051   3.734   1.293  14.326 -0.2820 -0.3242  0.5939
 2187TIP3    H128052   3.826   1.285  14.301  0.0433  3.1905  0.3811
 2187TIP3    H228053   3.735   1.303  14.421 -0.3335  0.8899  0.4720
 2188TIP3   OH228054   5.689   0.806   3.050  0.2823  0.1507 -0.5059
 2188TIP3    H128055   5.711   0.718   3.019  0.3895  0.8293 -2.4339
 2188TIP3    H228056   5.606   0.827   3.007 -0.8894  0.1271  1.6960
 2189TIP3   OH228057   0.480   6.201   4.205  0.0879 -0.5174 -0.0456
 2189TIP3    H128058   0.488   6.167   4.115 -1.6686 -2.2209  0.4170
 2189TIP3    H228059   0.561   6.251   4.218 -0.3261  1.1413 -3.1335
 2190TIP3   OH228060   3.957   0.796  16.572  0.1805 -0.3468  0.1783
 2190TIP3    H128061   3.979   0.886  16.599  1.0171  0.5248 -3.0821
 2190TIP3    H228062   3.897   0.764  16.639  0.4727  2.3809  1.8120
 2191TIP3   OH228063   2.694   5.905  16.131 -0.5829 -0.1571  0.1088
 2191TIP3    H128064   2.744   5.839  16.082 -1.3018 -0.0734 -0.7490
 2191TIP3    H228065   2.759   5.971  16.154  0.2111 -1.3077  1.2541
 2192TIP3   OH228066   3.717   4.328  17.133 -0.3921  0.0908 -0.4377
 2192TIP3    H128067   3.795   4.322  17.077 -0.2847 -0.0243 -0.2744
 2192TIP3    H228068   3.716   4.419  17.162  1.2174 -0.5420  1.7496
 2193TIP3   OH228069   1.381   5.001  11.568  0.4661 -0.0724 -0.0758
 2193TIP3    H128070   1.390   5.095  11.554 -2.7961  0.5698  1.6962
 2193TIP3    H228071   1.358   4.992  11.661 -1.6848 -2.4171 -0.7753
 2194TIP3   OH228072   5.231   3.086   5.747  0.0764 -0.6241  0.4382
 2194TIP3    H128073   5.165   3.019   5.729 -2.0871  1.2582  1.2186
 2194TIP3    H228074   5.314   3.038   5.748 -1.1911 -2.9373 -1.0883
 2195TIP3   OH228075   0.613   1.681  15.837  0.2262 -0.5707 -0.1524
 2195TIP3    H128076   0.543   1.636  15.884  0.3016 -0.8237 -0.2810
 2195TIP3    H228077   0.572   1.760  15.802 -0.2646 -1.2721 -1.1574
 2196TIP3   OH228078   6.111   4.889  11.442 -0.1811  0.3697  0.1665
 2196TIP3    H128079   6.119   4.824  11.373  0.0483  1.0183 -0.4257
 2196TIP3    H228080   6.113   4.973  11.396 -0.5086  0.7917  0.9181
 2197TIP3   OH228081   5.864   3.775   1.491  0.2480 -0.5961 -0.4333
 2197TIP3    H128082   5.787   3.783   1.434  1.5523  2.5576 -1.8732
 2197TIP3    H228083   5.837   3.815   1.573  0.6566  1.4834 -1.2937
 2198TIP3   OH228084   0.175   4.016   5.265 -0.2489 -0.4948 -0.1545
 2198TIP3    H128085   0.128   4.080   5.212  0.7116 -1.0152 -1.6547
 2198TIP3    H228086   0.185   4.059   5.350  0.1649  1.2600 -1.0536
 2199TIP3   OH228087   0.816   3.703   3.903  0.0537 -0.1512  0.2047
 2199TIP3    H128088   0.861   3.737   3.826  0.9240 -0.1868  0.6854
 2199TIP3    H228089   0.772   3.624   3.873  0.0145  0.0856 -0.3597
 2200TIP3   OH228090   3.609   5.091   1.550  0.2378 -0.1123  0.0010
 2200TIP3    H128091   3.651   5.172   1.524  0.4639 -0.3885 -0.5009
 2200TIP3    H228092   3.545   5.073   1.481 -0.1653 -0.1000  0.3653
 2201TIP3   OH228093   4.403   4.533  11.492 -0.1297 -0.2185  0.4261
 2201TIP3    H128094   4.454   4.476  11.550  1.6461 -1.0040 -1.8402
 2201TIP3    H228095   4.314   4.499  11.498  0.1619 -0.7075  2.1829
 2202TIP3   OH228096   2.178   3.271   5.940 -0.2482  0.5146 -0.5072
 2202TIP3    H128097   2.111   3.319   5.988  1.0922  0.2182  1.6878
 2202TIP3    H228098   2.164   3.297   5.848  0.1121  4.6875  0.5176
 2203TIP3   OH228099   0.412   1.713  13.256 -0.6314 -0.2032  0.9405
 2203TIP3    H128100   0.388   1.660  13.180 -2.2243  2.0002 -0.1357
 2203TIP3    H228101   0.505   1.731  13.244 -0.4137 -1.5074  0.5660
 2204TIP3   OH228102   2.475   1.999   0.853  0.0500  0.6648  0.4763
 2204TIP3    H128103   2.540   2.042   0.798  0.8871 -0.3716  0.6620
 2204TIP3    H228104   2.518   1.987   0.938 -0.9794  1.5661  1.1574
 2205TIP3   OH228105   2.627   5.949   3.334  0.1708 -0.3999  0.2685
 2205TIP3    H128106   2.663   6.037   3.332 -0.9481  0.0524 -0.2209
 2205TIP3    H228107   2.575   5.946   3.414 -1.1649 -0.0595 -0.5767
 2206TIP3   OH228108   2.592   1.840   4.739 -0.0440  0.0170 -0.1295
 2206TIP3    H128109   2.684   1.857   4.717  0.1074  1.4951  1.5252
 2206TIP3    H228110   2.561   1.922   4.776 -2.1364 -0.3915 -0.9282
 2207TIP3   OH228111   2.909   5.088   3.969 -0.2151 -0.1856  0.0781
 2207TIP3    H128112   2.987   5.037   3.990  0.8575  1.7695  0.9510
 2207TIP3    H228113   2.935   5.139   3.892 -0.2465  1.2968  1.0399
 2208TIP3   OH228114   3.298   5.295   1.477 -0.8433 -0.3150 -0.1562
 2208TIP3    H128115   3.263   5.357   1.541 -0.7334  3.4345 -3.5448
 2208TIP3    H228116   3.246   5.310   1.399  0.5923 -3.1157 -1.7320
 2209TIP3   OH228117   2.555   0.423   0.921 -0.3878 -0.0904  0.2746
 2209TIP3    H128118   2.574   0.340   0.875 -0.5009 -1.4109  2.5648
 2209TIP3    H228119   2.619   0.484   0.886  0.9416 -1.6456 -0.0730
 2210TIP3   OH228120   5.798   6.516   0.329  0.0250 -0.4796  0.4582
 2210TIP3    H128121   5.862   6.485   0.265  1.4205 -0.8259  1.9765
 2210TIP3    H228122   5.713   6.490   0.293  0.8405 -1.4699 -0.7912
 2211TIP3   OH228123   0.002   5.140   1.735  0.2775  0.4232  0.7119
 2211TIP3    H128124   0.090   5.175   1.751  0.3933  0.3770  0.1830
 2211TIP3    H228125   0.013   5.045   1.740  0.5023  0.3712 -0.5472
 2212TIP3   OH228126   0.412   2.562   0.252 -0.5462  0.0159 -0.2412
 2212TIP3    H128127   0.480   2.519   0.199  0.6382  1.7678 -0.2027
 2212TIP3    H228128   0.440   2.547   0.343 -0.1385  0.8183 -0.2275
 2213TIP3   OH228129   6.077   5.000   5.428 -0.1127 -0.3921  0.2759
 2213TIP3    H128130   6.117   5.085   5.412  0.0848 -0.4982  0.2029
 2213TIP3    H228131   6.071   4.993   5.524  0.3885 -0.5351  0.2979
 2214TIP3   OH228132   1.825   1.998   5.793 -0.2754 -0.0549 -0.5364
 2214TIP3    H128133   1.832   1.903   5.807  2.1203 -0.0793 -1.6137
 2214TIP3    H228134   1.813   2.007   5.698 -0.6464  0.7371 -0.4188
 2215TIP3   OH228135   2.517   6.204  12.929  0.7209 -0.0417 -0.2190
 2215TIP3    H128136   2.492   6.236  12.842  0.4182 -0.7846 -0.4056
 2215TIP3    H228137   2.607   6.172  12.917  0.8447  0.2774 -0.1499
 2216TIP3   OH228138   3.040   6.086   2.473  0.1949  0.2248 -0.1244
 2216TIP3    H128139   2.982   6.159   2.493  0.1629 -0.5457  2.8381
 2216TIP3    H228140   2.981   6.012   2.459  0.3506  0.0631  0.0756
 2217TIP3   OH228141   0.154   0.757  12.080 -0.4919 -0.2148  0.2016
 2217TIP3    H128142   0.237   0.764  12.126 -1.2847  0.7138  1.5338
 2217TIP3    H228143   0.143   0.663  12.063 -0.0647 -0.5471  1.6848
 2218TIP3   OH228144   1.414   6.165  12.899  0.2048  0.0052 -0.0044
 2218TIP3    H128145   1.349   6.141  12.965 -0.9098  2.1238 -0.2855
 2218TIP3    H228146   1.365   6.164  12.817  1.2457 -1.2039 -0.6219
 2219TIP3   OH228147   0.498   5.654   4.415 -0.5623  0.7313  0.6930
 2219TIP3    H128148   0.414   5.701   4.416 -0.9980  0.0741 -1.3083
 2219TIP3    H228149   0.542   5.687   4.336 -0.1014 -0.8890  0.2636
 2220TIP3   OH228150   3.938   6.770  14.497  0.4509  0.0640  0.3807
 2220TIP3    H128151   3.894   6.771  14.412 -0.5993 -1.6882  0.8724
 2220TIP3    H228152   3.999   6.696  14.492 -0.0108 -0.3883  1.3413
 2221TIP3   OH228153   1.067   1.511  12.657  0.1368  0.0591  0.0774
 2221TIP3    H128154   0.995   1.540  12.714 -0.2141  0.3808 -0.5354
 2221TIP3    H228155   1.043   1.542  12.570  0.2698 -1.1429 -0.3944
 2222TIP3   OH228156   2.853   3.356  11.908 -0.2996  0.3111  0.2213
 2222TIP3    H128157   2.830   3.290  11.974 -0.7483  0.6804  0.4365
 2222TIP3    H228158   2.779   3.355  11.847  0.4136 -0.4920 -0.6392
 2223TIP3   OH228159   0.408   2.786  15.441  0.1377  0.3123 -0.0263
 2223TIP3    H128160   0.466   2.710  15.436  1.1451  1.1105 -1.0922
 2223TIP3    H228161   0.320   2.750  15.450  0.7203 -0.9445  0.6567
 2224TIP3   OH228162   5.342   4.528  14.245  0.0940 -0.8583 -0.3031
 2224TIP3    H128163   5.250   4.535  14.218 -0.5450 -2.2201  1.4171
 2224TIP3    H228164   5.364   4.615  14.278 -0.7246 -0.6499 -0.2883
 2225TIP3   OH228165   5.343   3.205  11.745 -0.1493 -0.3583 -0.0708
 2225TIP3    H128166   5.293   3.137  11.700 -0.4509  0.4442 -0.9724
 2225TIP3    H228167   5.373   3.263  11.674 -0.6987  0.9686  0.7652
 2226TIP3   OH228168   6.452   0.673   5.943 -0.2038 -0.8777 -0.1006
 2226TIP3    H128169   6.376   0.723   5.913  0.3692 -0.6146 -1.1651
 2226TIP3    H228170   6.526   0.733   5.931  0.1727 -1.1375  0.9040
 2227TIP3   OH228171   2.690   2.894  14.684 -0.1340 -0.5207  0.3340
 2227TIP3    H128172   2.747   2.887  14.608  1.2227  0.3726  1.2293
 2227TIP3    H228173   2.697   2.985  14.711 -0.9473 -0.7200  1.2628
 2228TIP3   OH228174   0.748   3.920  16.785 -0.2982  0.2184  0.9453
 2228TIP3    H128175   0.710   3.838  16.818  0.2543 -0.2550  0.4071
 2228TIP3    H228176   0.820   3.892  16.728 -0.3001  1.0745  0.5234
 2229TIP3   OH228177   0.298   4.475   5.073 -0.0284 -0.2795 -0.2058
 2229TIP3    H128178   0.241   4.449   5.146 -2.2783 -1.8427 -2.4349
 2229TIP3    H228179   0.261   4.558   5.042  1.4694  0.8537  0.9414
 2230TIP3   OH228180   2.359   6.681  16.949 -0.1850  0.4116  0.4260
 2230TIP3    H128181   2.354   6.765  16.902  0.7044  0.6604  0.7604
 2230TIP3    H228182   2.382   6.706  17.038 -1.5937 -0.0845  0.9332
 2231TIP3   OH228183   1.326   3.015   0.839  0.2305  0.0721  0.3401
 2231TIP3    H128184   1.308   2.961   0.762 -1.0915  0.2579  0.5127
 2231TIP3    H228185   1.241   3.053   0.862  0.8590  1.0086  1.1401
 2232TIP3   OH228186   3.431   2.588  15.444 -0.0247 -0.7067  0.1437
 2232TIP3    H128187   3.339   2.562  15.443  0.1331 -1.2744  0.0969
 2232TIP3    H228188   3.429   2.684  15.441 -0.5873 -0.7502 -1.1735
 2233TIP3   OH228189   1.116   3.515  10.747 -0.0366  0.1553 -0.0498
 2233TIP3    H128190   1.137   3.608  10.754 -0.9960  0.2984  1.0324
 2233TIP3    H228191   1.020   3.512  10.753 -0.0360 -0.8691 -0.4907
 2234TIP3   OH228192   2.081   2.700   0.720  0.5070  0.2389 -0.3025
 2234TIP3    H128193   2.162   2.649   0.709  0.7800  0.5036  0.4533
 2234TIP3    H228194   2.019   2.639   0.760  0.5355  0.2260 -0.2780
 2235TIP3   OH228195   3.043   3.680  12.355  0.0140  0.2151 -0.1886
 2235TIP3    H128196   3.035   3.611  12.289  1.1542 -0.4284  0.3281
 2235TIP3    H228197   2.961   3.729  12.349 -0.2919 -0.4232 -1.4195
 2236TIP3   OH228198   1.841   1.175  12.620  0.4308 -0.2028  0.2892
 2236TIP3    H128199   1.932   1.149  12.637 -0.0844 -1.1834  1.6450
 2236TIP3    H228200   1.811   1.115  12.552  1.2979  1.2027 -1.3622
 2237TIP3   OH228201   5.380   4.620   1.984 -0.1289  0.4394 -0.6481
 2237TIP3    H128202   5.345   4.643   2.071  0.1306 -2.0648  0.1616
 2237TIP3    H228203   5.304   4.590   1.935  0.1743 -0.9734 -0.2818
 2238TIP3   OH228204   0.752   2.001  17.203 -0.2588 -0.3561 -0.3397
 2238TIP3    H128205   0.767   2.096  17.201  0.2795 -0.4066  0.9529
 2238TIP3    H228206   0.662   1.991  17.173 -0.6106  0.6440  0.3387
 2239TIP3   OH228207   5.988   2.922   4.121  0.0409 -0.1109  0.1210
 2239TIP3    H128208   6.003   2.828   4.125 -2.1289 -0.4938  0.0922
 2239TIP3    H228209   5.904   2.935   4.165  0.5953  1.8971  0.6785
 2240TIP3   OH228210   0.048   0.162  16.101 -0.0770  0.0058 -0.5464
 2240TIP3    H128211   0.083   0.072  16.102 -1.1674 -0.4283  1.3308
 2240TIP3    H228212  -0.045   0.151  16.121 -0.4250  1.4855 -1.3431
 2241TIP3   OH228213   5.445   1.838  11.507 -0.0313 -0.2985 -0.1123
 2241TIP3    H128214   5.365   1.890  11.516 -1.2353 -1.9098 -1.2686
 2241TIP3    H228215   5.463   1.804  11.594 -0.9852 -0.4794  0.0124
 2242TIP3   OH228216   0.044   0.955   4.124 -0.3034  0.1065  0.0086
 2242TIP3    H128217   0.138   0.940   4.110 -0.3604 -1.4858  1.2071
 2242TIP3    H228218   0.040   1.003   4.207 -0.5041  0.9760 -0.5012
 2243TIP3   OH228219   5.146   4.555  15.168  0.1093 -0.4089 -0.2597
 2243TIP3    H128220   5.070   4.564  15.111  0.0335  1.9950  0.1853
 2243TIP3    H228221   5.169   4.462  15.162 -3.6569 -1.4728  0.6951
 2244TIP3   OH228222   5.931   1.345   0.808 -0.1581 -0.3246  0.2906
 2244TIP3    H128223   6.006   1.298   0.771 -0.5567 -0.5421 -0.2400
 2244TIP3    H228224   5.889   1.281   0.866 -0.3643 -0.4411  0.0142
 2245TIP3   OH228225   5.512   0.500   2.853  0.6822 -0.1236 -0.1292
 2245TIP3    H128226   5.516   0.458   2.767 -0.3672 -0.2008 -0.1474
 2245TIP3    H228227   5.467   0.583   2.836  0.0255 -0.3642  0.4291
 2246TIP3   OH228228   4.032   4.028   0.943 -0.1366 -0.3466 -0.2996
 2246TIP3    H128229   4.124   4.001   0.942 -0.7946 -2.8183  0.5814
 2246TIP3    H228230   4.020   4.067   1.030 -0.2250 -1.2836  0.1217
 2247TIP3   OH228231   5.531   1.715  14.098 -0.6377 -0.1089  0.4044
 2247TIP3    H128232   5.571   1.773  14.162 -1.3134 -0.5935  1.2874
 2247TIP3    H228233   5.452   1.760  14.069  0.5885  0.9178 -1.4538
 2248TIP3   OH228234   4.625   1.047  15.689 -0.3098  0.0384  0.2089
 2248TIP3    H128235   4.661   0.971  15.735 -3.4881 -2.7907 -1.6920
 2248TIP3    H228236   4.661   1.041  15.600  0.9430  1.9151  0.5681
 2249TIP3   OH228237   3.839   6.528  13.523  0.2792 -0.0275  0.1725
 2249TIP3    H128238   3.821   6.605  13.469  0.2474  0.5730  1.0319
 2249TIP3    H228239   3.774   6.463  13.494 -0.7334  0.8039  0.5298
 2250TIP3   OH228240   2.449   2.895   1.788 -0.2356 -0.2067 -0.2176
 2250TIP3    H128241   2.426   2.814   1.741 -0.6374  1.5274 -3.1616
 2250TIP3    H228242   2.536   2.879   1.824  0.3707 -1.4063 -2.1559
 2251TIP3   OH228243   4.251   0.704   0.518  0.0502 -0.5174 -0.3605
 2251TIP3    H128244   4.170   0.714   0.568 -1.0670 -0.4160 -2.1604
 2251TIP3    H228245   4.262   0.788   0.474  0.9636 -0.6456 -0.3774
 2252TIP3   OH228246   4.752   5.827   2.109  0.0911 -0.0109  0.5873
 2252TIP3    H128247   4.673   5.867   2.073  0.0497  0.0013  0.6928
 2252TIP3    H228248   4.816   5.831   2.038 -0.3741 -1.1326  0.0834
 2253TIP3   OH228249   0.088   0.582  15.543  0.0047 -0.4436 -0.5119
 2253TIP3    H128250   0.034   0.526  15.599 -2.0340  1.4837 -0.5188
 2253TIP3    H228251   0.073   0.548  15.454 -0.8900 -0.1528 -0.4729
 2254TIP3   OH228252   0.948   5.658  13.033  0.6290 -0.5070  0.2056
 2254TIP3    H128253   0.933   5.602  12.957 -1.2803  1.4993 -0.9733
 2254TIP3    H228254   0.972   5.598  13.104 -0.5216 -2.6953 -1.2251
 2255TIP3   OH228255   6.159   1.892  13.250  0.3447 -0.2396  0.4260
 2255TIP3    H128256   6.151   1.798  13.268  1.2413 -0.3568  0.2392
 2255TIP3    H228257   6.172   1.931  13.337 -0.7201 -0.2067  0.5784
 2256TIP3   OH228258   3.015   2.092   3.551  0.2019  0.3265 -0.2045
 2256TIP3    H128259   2.992   2.002   3.527  0.3590  0.2891 -0.2127
 2256TIP3    H228260   2.950   2.146   3.507 -0.1182  0.1909  0.0978
 2257TIP3   OH228261   3.663   4.641  10.782  0.3827  0.3281  0.0423
 2257TIP3    H128262   3.608   4.618  10.707  1.2164 -2.0744  0.1212
 2257TIP3    H228263   3.740   4.682  10.744 -0.2713  1.2863 -0.2521
 2258TIP3   OH228264   3.361   2.772  11.463 -0.4928  0.0496 -0.5873
 2258TIP3    H128265   3.311   2.811  11.534 -1.7050 -2.0797 -0.2437
 2258TIP3    H228266   3.376   2.844  11.401 -2.7022  1.0360  0.0026
 2259TIP3   OH228267   3.977   2.241  13.207 -0.2404  0.1439 -0.1639
 2259TIP3    H128268   4.036   2.224  13.280 -1.2646 -2.0592  0.1893
 2259TIP3    H228269   4.030   2.291  13.144  1.5880 -0.6570  0.7064
 2260TIP3   OH228270   0.800   5.916  11.255  0.4637 -0.3724 -0.8401
 2260TIP3    H128271   0.804   5.892  11.347 -0.2440  0.0175 -0.7007
 2260TIP3    H228272   0.888   5.900  11.221  1.5404  2.2222  0.6079
 2261TIP3   OH228273   5.865   2.856  10.349  0.1017  0.1220  0.3560
 2261TIP3    H128274   5.928   2.876  10.418  0.0257  0.3467  0.3591
 2261TIP3    H228275   5.884   2.765  10.326  1.9018  0.8538 -1.1934
 2262TIP3   OH228276   3.347   2.187   3.478  0.0479  0.2808 -0.1432
 2262TIP3    H128277   3.345   2.273   3.520  2.3389  1.3379 -2.0435
 2262TIP3    H228278   3.268   2.184   3.426 -0.4441  0.9089  0.5503
 2263TIP3   OH228279   4.920   3.339   5.013  0.7273 -0.3655  0.1908
 2263TIP3    H128280   4.832   3.367   5.037  0.8743 -0.3396  0.7066
 2263TIP3    H228281   4.968   3.421   4.999  0.6622 -0.3802 -0.1069
 2264TIP3   OH228282   1.468   5.151   1.183  0.4526 -0.4697  0.0620
 2264TIP3    H128283   1.401   5.153   1.252  0.2849 -1.1425 -0.0756
 2264TIP3    H228284   1.550   5.135   1.229  0.4153 -0.3961  0.1552
 2265TIP3   OH228285   3.597   3.356  13.516 -0.1015 -0.3261  0.2170
 2265TIP3    H128286   3.628   3.336  13.428 -0.4702 -1.0651  0.2518
 2265TIP3    H228287   3.510   3.394  13.503  0.4731  0.9998  0.1706
 2266TIP3   OH228288   4.660   6.575  13.182 -0.3413 -0.1571 -0.0948
 2266TIP3    H128289   4.597   6.606  13.117 -0.7811  2.7268  1.6078
 2266TIP3    H228290   4.744   6.612  13.154 -0.4123  0.5295  0.5783
 2267TIP3   OH228291   4.932   4.313   1.289 -0.0346  0.6292  0.2619
 2267TIP3    H128292   4.946   4.228   1.246  0.7210  1.4500 -1.1586
 2267TIP3    H228293   4.914   4.291   1.381  0.3074 -1.0552 -0.0584
 2268TIP3   OH228294   0.880   5.932   2.967 -0.2635  0.6651 -0.4077
 2268TIP3    H128295   0.895   6.022   2.940 -0.0856  0.0174 -2.5450
 2268TIP3    H228296   0.824   5.939   3.044  0.7288  2.6349  0.1680
 2269TIP3   OH228297   4.961   3.007   5.336 -0.6178 -0.0776  0.2359
 2269TIP3    H128298   4.955   3.037   5.427  0.4555  0.8759 -0.0052
 2269TIP3    H228299   4.934   3.083   5.284  0.8159  0.0509 -0.3269
 2270TIP3   OH228300   0.996   2.431   2.118  0.2390 -0.6619  0.7008
 2270TIP3    H128301   1.060   2.415   2.049  0.1129 -0.8550  0.6302
 2270TIP3    H228302   0.968   2.344   2.146 -1.5270 -0.5723 -0.6838
 2271TIP3   OH228303   3.425   2.219   6.079  0.1397  0.2519 -0.1496
 2271TIP3    H128304   3.502   2.171   6.051 -0.8458 -1.7810  0.5374
 2271TIP3    H228305   3.399   2.270   6.002  0.1628 -1.7249 -1.5060
 2272TIP3   OH228306   3.821   0.488   4.096 -0.4935 -0.1824  0.1783
 2272TIP3    H128307   3.862   0.566   4.132  0.7933 -1.7908  2.3702
 2272TIP3    H228308   3.833   0.495   4.002  1.5655  1.2113  0.5060
 2273TIP3   OH228309   1.033   3.745   2.057 -0.4709 -0.2598  0.3302
 2273TIP3    H128310   1.004   3.805   1.989  0.1780 -0.9083 -0.5284
 2273TIP3    H228311   0.972   3.671   2.053 -0.0662 -0.5811  0.0372
 2274TIP3   OH228312   4.935   6.258  14.184 -0.6060  0.1485  0.5285
 2274TIP3    H128313   4.933   6.220  14.272  0.6965  0.6039  0.7612
 2274TIP3    H228314   4.988   6.196  14.133  1.6930  1.7084  0.9524
 2275TIP3   OH228315   4.254   2.489  10.660  0.0067 -0.8240 -0.1282
 2275TIP3    H128316   4.162   2.474  10.639 -0.9532  1.4451  2.1279
 2275TIP3    H228317   4.300   2.481  10.577 -2.0947 -2.8115 -1.1521
 2276TIP3   OH228318   3.258   6.610  12.906 -0.0736  0.4967 -0.1367
 2276TIP3    H128319   3.195   6.680  12.892 -1.4356 -0.8596 -0.9103
 2276TIP3    H228320   3.318   6.617  12.832 -0.1648  0.8742 -0.1782
 2277TIP3   OH228321   4.403   4.923  16.236 -0.3605 -0.7039 -0.0500
 2277TIP3    H128322   4.440   4.941  16.150 -0.7947 -2.5341 -0.6543
 2277TIP3    H228323   4.437   4.992  16.292  1.0542 -0.2906 -1.3881
 2278TIP3   OH228324   4.923   6.667  14.619 -0.3868  0.7497 -0.2159
 2278TIP3    H128325   4.862   6.667  14.692  0.7374 -0.4036  0.7474
 2278TIP3    H228326   4.889   6.601  14.559  0.9625 -1.3332  1.2519
 2279TIP3   OH228327   0.745   1.395  16.834 -0.1072  0.0159 -0.0203
 2279TIP3    H128328   0.748   1.343  16.915 -0.5824  0.1795  0.1065
 2279TIP3    H228329   0.775   1.482  16.860  0.2973 -0.0858 -0.1468
 2280TIP3   OH228330   1.450   6.394   1.694  0.0357 -0.0543  0.2064
 2280TIP3    H128331   1.359   6.409   1.719  0.4009  1.1835  0.8301
 2280TIP3    H228332   1.495   6.373   1.776  0.4125 -0.1813 -0.0288
 2281TIP3   OH228333   5.212   6.164   4.911  0.5476  0.4303  0.0794
 2281TIP3    H128334   5.226   6.181   5.004 -1.2594 -2.6472  0.9593
 2281TIP3    H228335   5.127   6.204   4.891  1.0178  1.2486 -0.3152
 2282TIP3   OH228336   0.880   4.441  12.611 -0.4875 -0.6473  0.5129
 2282TIP3    H128337   0.908   4.367  12.557 -0.8203 -2.1338  2.3521
 2282TIP3    H228338   0.845   4.401  12.691 -1.7530  1.4452  1.0430
 2283TIP3   OH228339   4.207   4.229   4.610 -0.4267  0.3686  0.6387
 2283TIP3    H128340   4.257   4.197   4.535 -0.5748  0.7055  0.3996
 2283TIP3    H228341   4.118   4.200   4.594 -0.2815 -0.3831  1.1504
 2284TIP3   OH228342   5.411   3.286  12.037 -0.0591  0.2790 -0.5412
 2284TIP3    H128343   5.490   3.330  12.008  0.6989 -0.2670  0.6427
 2284TIP3    H228344   5.373   3.249  11.958 -0.2643  2.3342 -1.4184
 2285TIP3   OH228345   1.495   6.760   1.436  0.1474 -0.5762  0.6819
 2285TIP3    H128346   1.484   6.665   1.438  1.3502 -0.7005  2.0550
 2285TIP3    H228347   1.421   6.793   1.488  0.2023 -0.8016  0.9038
 2286TIP3   OH228348   0.417   4.013  14.229  0.2076 -0.0195  0.5755
 2286TIP3    H128349   0.454   4.100  14.235  2.0903 -0.7497 -0.1097
 2286TIP3    H228350   0.431   3.987  14.138 -0.7081 -0.8764  0.6616
 2287TIP3   OH228351   3.966   1.153   3.481 -0.0670  0.0531  0.0235
 2287TIP3    H128352   4.020   1.181   3.407 -0.9449 -1.2148 -1.1251
 2287TIP3    H228353   3.936   1.066   3.457 -0.9417 -0.0910  1.5786
 2288TIP3   OH228354   2.841   3.394  13.998  0.6771  0.0397  0.6971
 2288TIP3    H128355   2.769   3.449  13.967  1.4232  2.3216  2.7833
 2288TIP3    H228356   2.905   3.395  13.926 -0.4122 -0.1999 -0.2886
 2289TIP3   OH228357   5.744   2.396  12.653  0.0326 -0.2554  0.2383
 2289TIP3    H128358   5.681   2.328  12.678  0.7989 -1.6766 -1.5166
 2289TIP3    H228359   5.693   2.458  12.601 -0.0829 -1.1313 -0.7415
 2290TIP3   OH228360   2.174   6.541   5.784 -0.1156  0.1249 -0.0040
 2290TIP3    H128361   2.219   6.578   5.860 -0.5272  0.5061  0.0560
 2290TIP3    H228362   2.083   6.530   5.812 -0.1763 -0.1553 -0.2954
 2291TIP3   OH228363   4.190   0.386  17.138  0.2749 -0.0280  0.1526
 2291TIP3    H128364   4.143   0.321  17.190  0.2995 -1.1535 -1.1833
 2291TIP3    H228365   4.130   0.405  17.065  0.5790  0.9115  0.1407
 2292TIP3   OH228366   6.198   0.410   3.890  0.0874 -0.2908  0.5263
 2292TIP3    H128367   6.293   0.423   3.896  0.0700  0.6284 -0.9414
 2292TIP3    H228368   6.188   0.342   3.823 -0.3137 -0.0238  0.3131
 2293TIP3   OH228369   6.175   2.469   4.187 -0.2549 -0.1552 -0.0077
 2293TIP3    H128370   6.214   2.483   4.274  0.6868 -2.1145 -0.1010
 2293TIP3    H228371   6.108   2.402   4.202  0.7394 -1.3778 -1.0218
 2294TIP3   OH228372   2.289   0.504   0.045 -0.3101  0.5787  0.3765
 2294TIP3    H128373   2.250   0.457  -0.028 -1.8757  0.5034  1.2331
 2294TIP3    H228374   2.217   0.517   0.107  1.5946 -2.1028  3.3521
 2295TIP3   OH228375   6.730   6.281   4.056  0.1519  0.1651  0.0926
 2295TIP3    H128376   6.763   6.204   4.103  0.4549  0.2611  0.0354
 2295TIP3    H228377   6.776   6.355   4.095 -0.7892  0.4116  0.7556
 2296TIP3   OH228378   5.530   5.023  15.562  0.1726 -0.2420 -0.3309
 2296TIP3    H128379   5.474   5.091  15.526 -1.3067  0.7844  3.6585
 2296TIP3    H228380   5.474   4.946  15.570  0.3001 -0.2756  0.3046
 2297TIP3   OH228381   0.805   3.307  12.203 -0.1176 -0.3114 -0.2578
 2297TIP3    H128382   0.819   3.400  12.224 -1.7577 -0.2429  0.5756
 2297TIP3    H228383   0.710   3.298  12.195 -0.0006 -2.0093  0.1074
 2298TIP3   OH228384   0.151   1.925   3.536 -0.1614  0.1239  0.7473
 2298TIP3    H128385   0.094   1.973   3.596  0.7528 -0.5553  2.1881
 2298TIP3    H228386   0.183   1.991   3.474 -0.9919  0.8582  1.0987
 2299TIP3   OH228387   3.734   6.072  13.530  0.3790  0.5732 -0.3135
 2299TIP3    H128388   3.653   6.114  13.558  1.1282  2.3927 -0.7596
 2299TIP3    H228389   3.794   6.085  13.603  0.0113 -1.6211  0.4112
 2300TIP3   OH228390   5.820   5.858   5.391  0.3793 -0.3305  0.1849
 2300TIP3    H128391   5.832   5.840   5.484  0.1794 -0.0435  0.2653
 2300TIP3    H228392   5.757   5.929   5.388  0.2517 -0.4567 -0.1774
 2301TIP3   OH228393   2.103   3.951  14.651  0.0589 -0.2021  0.3961
 2301TIP3    H128394   2.168   3.979  14.715 -0.1257  1.9088 -0.3186
 2301TIP3    H228395   2.065   4.032  14.618 -0.5667 -1.2901 -1.6261
 2302TIP3   OH228396   6.118   2.139  15.834  0.0317 -0.0828 -0.4248
 2302TIP3    H128397   6.187   2.076  15.810  2.0444  1.6578  0.6609
 2302TIP3    H228398   6.084   2.105  15.916  2.3959  1.1657  1.1384
 2303TIP3   OH228399   3.594   0.710   4.063  0.2047  0.1906 -0.1108
 2303TIP3    H128400   3.672   0.675   4.106  0.8545  0.1168 -1.3343
 2303TIP3    H228401   3.545   0.633   4.036  1.1060  0.1865 -1.8403
 2304TIP3   OH228402   0.768   2.223  14.104  0.3845 -0.0079 -0.2368
 2304TIP3    H128403   0.851   2.194  14.142 -0.1430  0.1365  1.0389
 2304TIP3    H228404   0.725   2.142  14.076 -0.0902 -0.2986  1.2763
 2305TIP3   OH228405   4.116   6.304   3.763 -0.3607  0.2281 -0.2482
 2305TIP3    H128406   4.038   6.359   3.761  0.3384  1.2759  0.8579
 2305TIP3    H228407   4.165   6.328   3.684  0.4156  1.9196  0.7189
 2306TIP3   OH228408   3.472   4.893  12.682  0.5821  0.6425 -0.6361
 2306TIP3    H128409   3.539   4.929  12.624  2.5812  0.7597  1.6537
 2306TIP3    H228410   3.511   4.898  12.769 -1.7430 -0.9234  0.5434
 2307TIP3   OH228411   4.737   0.032   4.017  0.1834  0.6329  0.7834
 2307TIP3    H128412   4.794   0.109   4.021 -1.1567  1.6297  1.2642
 2307TIP3    H228413   4.692   0.039   3.933  1.6141 -0.7944 -0.1339
 2308TIP3   OH228414   0.148   1.800  11.164 -0.7671  0.4363 -0.8113
 2308TIP3    H128415   0.161   1.894  11.153  0.4594  0.2990 -0.6483
 2308TIP3    H228416   0.230   1.761  11.131 -0.9884 -0.5293 -0.2320
 2309TIP3   OH228417   5.619   2.331   4.842  0.1008  0.2636 -0.8141
 2309TIP3    H128418   5.533   2.317   4.802  0.5634 -0.1527 -1.6700
 2309TIP3    H228419   5.655   2.407   4.796  0.3245  0.2382 -0.6774
 2310TIP3   OH228420   4.229   3.195  12.228 -0.3838 -0.5487  0.7486
 2310TIP3    H128421   4.307   3.243  12.256 -0.1147 -1.5255  1.6901
 2310TIP3    H228422   4.258   3.146  12.150 -0.3200 -0.1690  0.5341
 2311TIP3   OH228423   6.735   0.254  14.805 -0.3391 -0.4748  0.2830
 2311TIP3    H128424   6.650   0.213  14.791 -0.0418 -1.1657  0.4669
 2311TIP3    H228425   6.769   0.213  14.885 -1.1768  2.0282  2.0244
 2312TIP3   OH228426   2.176   0.698   2.511  0.0253 -0.2670  0.0015
 2312TIP3    H128427   2.143   0.643   2.440  0.4939 -0.2378 -0.2398
 2312TIP3    H228428   2.097   0.736   2.550 -0.1304  1.2976 -1.7806
 2313TIP3   OH228429   5.529   6.427  14.198 -0.3929  0.2203 -0.0226
 2313TIP3    H128430   5.441   6.393  14.213  0.0535 -0.2838  1.5301
 2313TIP3    H228431   5.564   6.371  14.129 -0.1441 -1.6814  1.5807
 2314TIP3   OH228432   2.958   5.906   3.019 -0.2756  0.2364  0.2708
 2314TIP3    H128433   3.053   5.905   3.006 -0.2406  2.7670  0.0524
 2314TIP3    H228434   2.922   5.917   2.931 -1.0324 -5.0523 -0.2447
 2315TIP3   OH228435   6.391   6.665   0.221  0.0987  0.5512  0.0701
 2315TIP3    H128436   6.437   6.624   0.294 -1.6296 -0.4404  0.6632
 2315TIP3    H228437   6.328   6.598   0.193 -1.1439  1.9460 -0.5305
 2316TIP3   OH228438   0.208   6.171   2.524  0.0608 -0.3395 -0.0938
 2316TIP3    H128439   0.254   6.101   2.571 -1.1340 -0.5735  0.7607
 2316TIP3    H228440   0.138   6.125   2.477 -0.4332  0.2249  0.0907
 2317TIP3   OH228441   5.899   1.993  11.642 -0.2918 -0.1973 -0.1524
 2317TIP3    H128442   5.992   1.972  11.631 -0.4434 -0.9335  0.0029
 2317TIP3    H228443   5.896   2.045  11.722 -0.0489 -0.3975 -0.0131
 2318TIP3   OH228444   0.254   5.134   1.060  0.1620 -0.0929  0.0190
 2318TIP3    H128445   0.272   5.219   1.101  0.5620 -0.5322  0.7684
 2318TIP3    H228446   0.215   5.081   1.129 -2.0048  0.1192 -0.9967
 2319TIP3   OH228447   6.730   6.129   2.978 -0.2539  0.1041 -0.0101
 2319TIP3    H128448   6.692   6.199   2.925 -2.9694 -1.8244 -0.7162
 2319TIP3    H228449   6.800   6.093   2.924 -0.9033  0.2394 -0.9482
 2320TIP3   OH228450   0.603   1.866   1.901 -0.4240  0.1005  0.4078
 2320TIP3    H128451   0.646   1.793   1.944  1.6791  1.3887  0.5580
 2320TIP3    H228452   0.644   1.944   1.938 -2.4219  1.3680  0.0441
 2321TIP3   OH228453   1.822   3.196  13.348  0.1326  0.5244  0.1840
 2321TIP3    H128454   1.815   3.290  13.366 -0.6517  0.4358  0.3448
 2321TIP3    H228455   1.745   3.157  13.389  0.9848 -0.3330  1.0051
 2322TIP3   OH228456   5.204   4.444   3.076  0.0139 -0.1631 -0.2771
 2322TIP3    H128457   5.201   4.361   3.124  1.4549 -1.2653 -2.0267
 2322TIP3    H228458   5.287   4.484   3.104 -0.5007  0.5311  0.2753
 2323TIP3   OH228459   2.418   6.448   4.952  0.7324  0.6169  0.2510
 2323TIP3    H128460   2.417   6.451   5.048  0.1782 -0.8579  0.3004
 2323TIP3    H228461   2.385   6.361   4.930  1.5000  0.6898 -1.2702
 2324TIP3   OH228462   5.949   4.330  17.003 -0.1295 -0.2622  0.1125
 2324TIP3    H128463   5.971   4.259  16.942 -3.3553 -1.5954  0.4248
 2324TIP3    H228464   5.975   4.410  16.957 -2.4211 -1.2501 -3.0020
 2325TIP3   OH228465   2.597   4.461   0.615 -1.0249  0.1677  0.2396
 2325TIP3    H128466   2.632   4.446   0.703 -2.4012  0.1193  0.8027
 2325TIP3    H228467   2.530   4.394   0.604 -0.1629 -0.4665 -1.2664
 2326TIP3   OH228468   1.290   2.433   3.572 -0.0007 -0.1686  0.5255
 2326TIP3    H128469   1.248   2.348   3.581 -1.5803  0.5160 -0.1305
 2326TIP3    H228470   1.299   2.445   3.477 -0.1890  0.5771  0.5954
 2327TIP3   OH228471   2.496   6.403  17.053 -0.4376 -0.3308 -0.0097
 2327TIP3    H128472   2.568   6.415  16.991 -1.6295  0.2720 -1.3195
 2327TIP3    H228473   2.503   6.477  17.113  2.0219 -2.0648  1.9538
 2328TIP3   OH228474   4.547   4.935   2.359 -0.3606 -0.2155 -1.0041
 2328TIP3    H128475   4.579   4.941   2.449 -0.2703  2.8138 -1.1742
 2328TIP3    H228476   4.549   4.842   2.338 -0.5625 -0.9706  2.1881
 2329TIP3   OH228477   5.617   1.906   5.473 -0.0848 -0.3110 -0.1209
 2329TIP3    H128478   5.549   1.875   5.413 -0.1436 -0.0268 -0.2048
 2329TIP3    H228479   5.589   1.995   5.497 -0.7413 -0.8950  1.3512
 2330TIP3   OH228480   1.750   6.664   3.359 -0.7472  0.1433  0.2137
 2330TIP3    H128481   1.687   6.592   3.351  0.7758 -1.1465 -0.2543
 2330TIP3    H228482   1.834   6.622   3.372  0.0755  1.8614  0.6297
 2331TIP3   OH228483   6.630   5.406  13.801  0.1780  0.0717 -0.1681
 2331TIP3    H128484   6.613   5.313  13.815 -0.9656  0.2437 -0.3406
 2331TIP3    H228485   6.681   5.433  13.878 -0.5064 -0.4361  0.4766
 2332TIP3   OH228486   1.482   0.874  11.956  0.7837 -0.5629 -0.0189
 2332TIP3    H128487   1.463   0.915  11.872 -1.8855  0.3994  1.0088
 2332TIP3    H228488   1.518   0.944  12.010  1.2043 -0.8573  0.0908
 2333TIP3   OH228489   1.638   4.469  12.519 -0.0858  0.5584  0.6301
 2333TIP3    H128490   1.559   4.522  12.507 -1.2320 -0.9807  1.0783
 2333TIP3    H228491   1.604   4.384  12.550  1.3923 -1.5138 -3.1726
 2334TIP3   OH228492   2.688   5.834  16.676  1.1393  0.2027 -0.5127
 2334TIP3    H128493   2.766   5.865  16.632  1.2750  0.7609  0.1174
 2334TIP3    H228494   2.717   5.812  16.765  0.7509 -0.3526 -0.5165
 2335TIP3   OH228495   4.482   1.442  17.039  0.6248 -0.2229  0.1973
 2335TIP3    H128496   4.473   1.410  17.129 -0.6259 -3.2654 -0.9277
 2335TIP3    H228497   4.538   1.377  16.996  0.3783  0.6300 -1.4587
 2336TIP3   OH228498   0.658   3.631   2.184  0.2512 -0.2668  0.1711
 2336TIP3    H128499   0.587   3.695   2.193  0.6983  0.2401  0.1226
 2336TIP3    H228500   0.661   3.611   2.091 -0.6861 -1.2772  0.3512
 2337TIP3   OH228501   2.151   3.326  14.898  0.1026 -0.8913  0.1317
 2337TIP3    H128502   2.179   3.386  14.830 -0.5537 -0.8544 -0.1103
 2337TIP3    H228503   2.232   3.297  14.940  0.4721 -0.5302 -0.3348
 2338TIP3   OH228504   4.216   1.202   4.616 -0.6979  0.7104  0.0963
 2338TIP3    H128505   4.302   1.190   4.576 -0.9539  1.3963 -0.6710
 2338TIP3    H228506   4.195   1.116   4.653  0.5164  0.6603  0.6893
 2339TIP3   OH228507   5.761   6.792   3.308  0.2528 -0.5207  0.4802
 2339TIP3    H128508   5.744   6.821   3.398 -0.2551 -0.8414  0.4891
 2339TIP3    H228509   5.725   6.703   3.304  0.0849 -0.4298 -0.0942
 2340TIP3   OH228510   4.873   0.595   1.058  0.1142  0.4796  0.0906
 2340TIP3    H128511   4.921   0.541   1.121  2.7370  1.4208 -1.0486
 2340TIP3    H228512   4.857   0.677   1.105 -2.2761 -0.5832  1.1937
 2341TIP3   OH228513   5.457   5.580  13.755  0.0895 -0.3287 -0.1670
 2341TIP3    H128514   5.408   5.644  13.704 -0.2311  0.0278  0.5714
 2341TIP3    H228515   5.456   5.500  13.702  0.3581  0.2313 -1.0161
 2342TIP3   OH228516   0.332   1.938  15.951 -0.1889 -0.0363  0.1005
 2342TIP3    H128517   0.300   1.868  16.008 -0.9864 -0.3797 -0.7527
 2342TIP3    H228518   0.372   1.893  15.877  0.7109  0.4051  0.3139
 2343TIP3   OH228519   2.900   3.873   0.049  0.3401 -0.7977 -0.2561
 2343TIP3    H128520   2.818   3.881   0.099  0.9801 -1.4747  0.9188
 2343TIP3    H228521   2.896   3.786   0.010  0.9302 -1.2010  0.5802
 2344TIP3   OH228522   4.846   1.183  17.084  0.2395 -0.4658  0.3016
 2344TIP3    H128523   4.849   1.165  17.178 -2.4343 -2.7303  0.0271
 2344TIP3    H228524   4.897   1.113  17.044 -0.9088 -1.1052 -0.0758
 2345TIP3   OH228525   6.043   1.603   5.148  0.0341 -0.7773 -0.2806
 2345TIP3    H128526   5.968   1.570   5.097  0.5821 -1.3130 -0.7511
 2345TIP3    H228527   6.012   1.604   5.238  0.2917 -3.4966 -0.1284
 2346TIP3   OH228528   2.176   1.555  16.366  0.2837 -0.4558 -0.6121
 2346TIP3    H128529   2.097   1.608  16.367  2.0329  2.2453 -0.1462
 2346TIP3    H228530   2.247   1.617  16.347  2.5644 -2.3865  1.2085
 2347TIP3   OH228531   1.872   3.883  15.931 -0.2060 -0.3993 -0.1097
 2347TIP3    H128532   1.785   3.853  15.958 -1.4593  0.9882 -2.4350
 2347TIP3    H228533   1.860   3.910  15.840  2.8286 -0.7858 -0.6634
 2348TIP3   OH228534   1.403   5.620  17.177  0.0602 -0.0647 -0.0615
 2348TIP3    H128535   1.395   5.567  17.098  0.5180  0.2620 -0.3281
 2348TIP3    H228536   1.425   5.707  17.145  3.3417 -0.6095  0.5643
 2349TIP3   OH228537   1.734   4.676  14.054 -0.2557 -0.0586 -0.1011
 2349TIP3    H128538   1.654   4.711  14.013 -0.9602  0.5139  1.7295
 2349TIP3    H228539   1.778   4.754  14.089  0.0487 -0.6121  0.7355
 2350TIP3   OH228540   1.268   5.747  13.078  0.4651  0.6959 -0.0199
 2350TIP3    H128541   1.298   5.691  13.150  0.2852  0.1388 -0.3745
 2350TIP3    H228542   1.173   5.751  13.089  0.0405 -2.0065 -2.0610
 2351TIP3   OH228543   2.790   1.660  12.665  0.0883  0.2966  0.1704
 2351TIP3    H128544   2.694   1.655  12.666  0.0026  1.2791 -0.9281
 2351TIP3    H228545   2.819   1.574  12.693 -1.1282 -0.1488  0.1091
 2352TIP3   OH228546   2.822   5.163   2.444 -0.1910  0.4818  0.3471
 2352TIP3    H128547   2.806   5.184   2.536 -1.8205 -0.3721  0.2708
 2352TIP3    H228548   2.881   5.233   2.414 -0.7766  1.5749  1.6654
 2353TIP3   OH228549   0.486   6.076  12.873  0.1080  0.1177  0.4565
 2353TIP3    H128550   0.454   6.135  12.805  0.7629  1.3484  1.2157
 2353TIP3    H228551   0.408   6.027  12.900 -0.1613 -0.3847 -1.1549
 2354TIP3   OH228552   6.315   3.098   1.722 -0.0571 -0.2582 -0.5281
 2354TIP3    H128553   6.280   3.008   1.718  2.1595 -1.1915  0.2760
 2354TIP3    H228554   6.394   3.090   1.776  1.4722  1.7467 -2.3987
 2355TIP3   OH228555   3.781   5.267   2.326  0.2005  0.3877  0.0023
 2355TIP3    H128556   3.727   5.244   2.251  0.5131  1.6767 -0.6378
 2355TIP3    H228557   3.742   5.348   2.360  1.1364  0.8015  0.1205
 2356TIP3   OH228558   0.965   5.871   6.498 -0.2684  0.1291  0.1153
 2356TIP3    H128559   0.890   5.815   6.518 -0.6895  0.9173  0.7684
 2356TIP3    H228560   0.940   5.957   6.532  1.4072  0.1350  1.3573
 2357TIP3   OH228561   0.916   6.591   5.252 -0.0288  0.3347 -0.0293
 2357TIP3    H128562   0.821   6.582   5.246  0.1120 -0.8292 -0.7252
 2357TIP3    H228563   0.935   6.679   5.219 -0.8106  0.3331 -0.4863
 2358TIP3   OH228564   1.056   6.160   4.478  0.8073 -0.4322  0.0874
 2358TIP3    H128565   0.961   6.156   4.480  0.6547  2.2680 -0.0038
 2358TIP3    H228566   1.077   6.247   4.511  3.1951 -0.5343 -1.0562
 2359TIP3   OH228567   3.945   3.650  16.151  0.1608 -0.3009 -0.1296
 2359TIP3    H128568   4.020   3.595  16.129 -1.0208 -2.2934  0.6325
 2359TIP3    H228569   3.944   3.652  16.247 -1.2020 -0.9883 -0.1056
 2360TIP3   OH228570   2.819   4.686   1.181  0.2436  0.0393  0.0597
 2360TIP3    H128571   2.767   4.746   1.235  0.1502 -0.9361  1.0713
 2360TIP3    H228572   2.760   4.662   1.109 -0.3291 -0.1680  0.5864
 2361TIP3   OH228573   4.998   4.996  10.953 -0.1611 -0.7261  0.4376
 2361TIP3    H128574   5.071   5.014  10.894 -1.0456 -1.2433 -0.8298
 2361TIP3    H228575   4.921   4.995  10.897 -0.8679 -2.5496  1.3846
 2362TIP3   OH228576   0.378   1.838  15.691  0.1105 -0.0867  0.6494
 2362TIP3    H128577   0.436   1.860  15.618  0.3380 -1.8974  0.2555
 2362TIP3    H228578   0.295   1.816  15.649 -0.3698  0.9032  1.0884
 2363TIP3   OH228579   6.255   4.107  13.953 -0.4862  0.5431  0.0464
 2363TIP3    H128580   6.166   4.081  13.931  0.2002 -1.5753 -0.4152
 2363TIP3    H228581   6.258   4.108  14.048 -1.2428  1.4839  0.0557
 2364TIP3   OH228582   0.482   2.258  11.575  0.0879  0.0099 -0.1766
 2364TIP3    H128583   0.429   2.308  11.513 -0.1239  0.7998  0.6392
 2364TIP3    H228584   0.572   2.283  11.555  0.1130 -0.7852 -1.0810
 2365TIP3   OH228585   4.139   0.231  12.259  0.5404 -0.4355 -0.0922
 2365TIP3    H128586   4.056   0.189  12.240 -0.1887  1.7059 -1.8626
 2365TIP3    H228587   4.117   0.304  12.317  1.0521  0.5565 -1.1141
 2366TIP3   OH228588   3.051   0.152   2.935 -0.0769  0.3648  0.2119
 2366TIP3    H128589   3.094   0.069   2.956 -2.2489 -0.9243 -0.3410
 2366TIP3    H228590   3.011   0.180   3.017 -1.6169 -0.5215 -0.2160
 2367TIP3   OH228591   2.581   1.234   2.465  0.0103 -0.4206 -0.6548
 2367TIP3    H128592   2.660   1.265   2.509  0.7217 -1.2322 -1.3380
 2367TIP3    H228593   2.565   1.298   2.396  0.4866 -0.6251 -0.9616
 2368TIP3   OH228594   0.399   0.644  13.916  0.0580 -0.0949 -0.6354
 2368TIP3    H128595   0.474   0.682  13.963  0.6090 -0.4028 -1.2525
 2368TIP3    H228596   0.324   0.665  13.970  0.6204  0.0514  0.1005
 2369TIP3   OH228597   4.218   4.783  12.297 -0.3908  0.5345  0.3473
 2369TIP3    H128598   4.278   4.813  12.229 -1.3601 -0.8716 -1.1650
 2369TIP3    H228599   4.179   4.864  12.332  2.0672  1.4382  1.1162
 2370TIP3   OH228600   3.279   1.088   5.747  0.1593  0.4741 -0.3722
 2370TIP3    H128601   3.262   1.018   5.811 -1.2685  1.1118 -0.0363
 2370TIP3    H228602   3.211   1.153   5.764  0.1411  0.9305 -2.1538
 2371TIP3   OH228603   4.646   5.015   4.526  0.3949  0.1993  0.4701
 2371TIP3    H128604   4.553   5.001   4.547  0.1000 -0.7329 -1.4136
 2371TIP3    H228605   4.649   5.021   4.431  2.2753  0.2501  0.5181
 2372TIP3   OH228606   6.087   2.456   5.473 -0.0751 -0.7980 -0.4523
 2372TIP3    H128607   6.031   2.382   5.493  0.7526 -1.3114 -0.0241
 2372TIP3    H228608   6.125   2.435   5.387 -1.7072  0.2641 -1.4824
 2373TIP3   OH228609   3.101   0.953  14.648  0.1179 -0.1452  0.4709
 2373TIP3    H128610   3.148   1.018  14.595  0.0649 -0.9547 -0.5715
 2373TIP3    H228611   3.009   0.964  14.623  0.4277 -2.7007 -2.0141
 2374TIP3   OH228612   6.612   4.792   4.511  0.2830 -0.0451  0.2350
 2374TIP3    H128613   6.617   4.773   4.604  0.4915 -0.3652  0.1601
 2374TIP3    H228614   6.579   4.882   4.506 -0.4895 -0.3125  0.5906
 2375TIP3   OH228615   2.920   5.682   0.022  0.1684 -0.6697 -0.5167
 2375TIP3    H128616   2.842   5.726  -0.012  0.2696  0.4140  0.6182
 2375TIP3    H228617   2.886   5.603   0.065 -0.3737  0.0403  0.3890
 2376TIP3   OH228618   5.553   0.327   5.006 -0.2062  0.1250 -0.4525
 2376TIP3    H128619   5.494   0.375   5.065  0.8506 -0.2307  0.9090
 2376TIP3    H228620   5.495   0.292   4.938 -1.6789 -0.7077  1.1866
 2377TIP3   OH228621   0.823   2.573  15.306 -0.2244  0.1048  0.0030
 2377TIP3    H128622   0.861   2.551  15.391 -1.1104 -0.4195  0.2742
 2377TIP3    H228623   0.851   2.663  15.289 -1.5453  0.8662  1.6943
 2378TIP3   OH228624   5.665   3.043  16.940 -0.2547  0.3860 -0.1937
 2378TIP3    H128625   5.640   3.112  16.878  2.4028  0.9680 -0.7009
 2378TIP3    H228626   5.586   2.990  16.950 -0.9899  0.7332 -3.4901
 2379TIP3   OH228627   1.781   5.683  14.385  0.6866 -0.1211 -0.0074
 2379TIP3    H128628   1.807   5.734  14.308  0.2781  1.2456  0.7289
 2379TIP3    H228629   1.807   5.738  14.459  3.6606 -2.6513  0.9357
 2380TIP3   OH228630   6.100   2.090  15.112  0.2105  0.6407  0.1239
 2380TIP3    H128631   6.176   2.082  15.171  1.0237  0.3369 -0.9582
 2380TIP3    H228632   6.111   2.175  15.070  0.3645  0.2550 -0.6133
 2381TIP3   OH228633   2.919   0.469  12.095 -0.0025 -0.7070  0.5594
 2381TIP3    H128634   2.928   0.563  12.106  2.4660 -0.7754 -0.6555
 2381TIP3    H228635   2.923   0.455  12.000  0.1928 -2.0820  0.7560
 2382TIP3   OH228636   1.388   4.872   0.166 -0.2526 -0.7753 -0.3736
 2382TIP3    H128637   1.337   4.798   0.199  0.9828 -2.2546 -1.7114
 2382TIP3    H228638   1.465   4.832   0.125 -0.0330  1.1912 -1.9553
 2383TIP3   OH228639   6.515   3.094   4.119 -0.2561 -0.1776 -0.1080
 2383TIP3    H128640   6.420   3.101   4.126 -0.0804  2.1049  0.2064
 2383TIP3    H228641   6.529   3.026   4.053 -2.0915 -0.7967  0.1180
 2384TIP3   OH228642   5.700   5.426   2.627 -0.3934 -0.0769  0.3979
 2384TIP3    H128643   5.623   5.382   2.663 -0.5521 -1.7347 -1.9056
 2384TIP3    H228644   5.770   5.362   2.635 -0.0629  0.1433 -0.7641
 2385TIP3   OH228645   6.739   3.616   4.383  0.4005  0.2698  0.1296
 2385TIP3    H128646   6.767   3.660   4.302 -1.8836  2.1144  0.2906
 2385TIP3    H228647   6.820   3.597   4.429  1.6374  1.0509 -1.6492
 2386TIP3   OH228648   6.407   4.280  12.164 -0.3342 -0.1185  0.7314
 2386TIP3    H128649   6.331   4.289  12.107  0.6885 -0.3556 -0.7134
 2386TIP3    H228650   6.373   4.237  12.243 -1.7067 -0.1262  0.1557
 2387TIP3   OH228651   1.279   1.927  14.508 -0.6578 -0.5716  0.6667
 2387TIP3    H128652   1.194   1.930  14.551 -0.2096  0.5940  1.4955
 2387TIP3    H228653   1.309   2.018  14.508  0.0639 -0.7870 -0.6833
 2388TIP3   OH228654   0.083   2.748  14.414 -0.4285 -0.2420 -0.6653
 2388TIP3    H128655   0.095   2.772  14.506 -0.9435  2.0260 -1.1558
 2388TIP3    H228656   0.165   2.772  14.372 -0.0234 -1.7135 -0.7246
 2389TIP3   OH228657   0.201   5.259  12.933 -0.3387 -0.5135  0.1326
 2389TIP3    H128658   0.282   5.220  12.901 -0.1624 -0.4008  0.4296
 2389TIP3    H228659   0.215   5.267  13.028 -0.3440  0.3275  0.0628
 2390TIP3   OH228660   0.353   4.653  15.817 -0.1139 -0.9588  0.1887
 2390TIP3    H128661   0.287   4.688  15.877  0.6788  0.4220  0.2950
 2390TIP3    H228662   0.421   4.617  15.875 -0.1332 -1.1272  0.1053
 2391TIP3   OH228663   4.228   3.209  14.852  0.3924 -0.3327 -0.7533
 2391TIP3    H128664   4.291   3.216  14.780 -0.0242 -2.8042 -1.4054
 2391TIP3    H228665   4.276   3.165  14.922  0.2263  0.3292 -0.2241
 2392TIP3   OH228666   2.954   4.628  14.749  0.3757  0.3612 -0.4398
 2392TIP3    H128667   2.922   4.544  14.715  0.9909 -0.5250  1.1301
 2392TIP3    H228668   3.046   4.631  14.720  0.2233  0.7216 -0.8985
 2393TIP3   OH228669   2.182   6.044  13.043 -0.0940 -0.7214 -0.2341
 2393TIP3    H128670   2.108   6.102  13.060 -0.9035 -2.0916  1.0334
 2393TIP3    H228671   2.258   6.091  13.079 -0.5221  0.1533 -0.4674
 2394TIP3   OH228672   1.722   4.479   4.128 -0.3727  0.0129  0.2632
 2394TIP3    H128673   1.698   4.553   4.184  1.7878  2.0170 -1.3736
 2394TIP3    H228674   1.659   4.481   4.056 -0.8223 -0.2518  0.6482
 2395TIP3   OH228675   1.193   2.629   3.832  0.3499 -0.7465  0.4074
 2395TIP3    H128676   1.223   2.705   3.782 -1.9625 -0.5593 -0.7357
 2395TIP3    H228677   1.244   2.556   3.797 -0.8955 -0.5353 -1.9311
 2396TIP3   OH228678   2.639   5.950  12.829  0.2898 -0.4276  0.3993
 2396TIP3    H128679   2.695   5.901  12.890 -0.6192 -0.0758  1.5445
 2396TIP3    H228680   2.555   5.958  12.875 -0.0386  0.8985 -0.4044
 2397TIP3   OH228681   3.478   2.507  14.184  0.3048 -0.0715 -0.2620
 2397TIP3    H128682   3.520   2.523  14.100  1.4471  0.5937  0.4238
 2397TIP3    H228683   3.531   2.555  14.248 -1.1546  0.2982  0.7069
 2398TIP3   OH228684   2.453   1.822   1.587  0.0952  0.1464 -0.1229
 2398TIP3    H128685   2.521   1.847   1.524  0.9442  0.1746  0.7937
 2398TIP3    H228686   2.488   1.744   1.630 -0.6492 -0.0919  0.0558
 2399TIP3   OH228687   3.538   0.225   1.897 -0.3408  0.4960  0.2835
 2399TIP3    H128688   3.453   0.236   1.939 -0.3187 -1.3350  0.8732
 2399TIP3    H228689   3.590   0.300   1.924 -1.7814  1.6565 -0.1216
 2400TIP3   OH228690   4.768   0.021   3.671  0.7187 -0.6200 -0.2498
 2400TIP3    H128691   4.825   0.096   3.653 -0.0349 -0.0879 -0.4847
 2400TIP3    H228692   4.810  -0.053   3.628  0.4100  0.0825 -1.8184
 2401TIP3   OH228693   4.064   1.617  12.732  0.5870  0.0760  0.3957
 2401TIP3    H128694   4.124   1.555  12.692  1.2370  0.4143  0.8289
 2401TIP3    H228695   3.986   1.566  12.753  0.2395 -0.1043 -1.2916
 2402TIP3   OH228696   6.807   3.348   4.558  0.0941  0.2807 -0.3237
 2402TIP3    H128697   6.880   3.382   4.609  1.1171  1.1668 -2.3346
 2402TIP3    H228698   6.834   3.259   4.534 -0.7187 -0.4222  1.2774
 2403TIP3   OH228699   5.413   5.505   1.249  0.0905 -0.0620 -0.2063
 2403TIP3    H128700   5.424   5.599   1.263 -0.6806 -0.1299  0.8949
 2403TIP3    H228701   5.493   5.478   1.204 -0.5449  1.4832 -2.3344
 2404TIP3   OH228702   6.423   0.698  12.821 -0.0082 -0.0250 -0.3849
 2404TIP3    H128703   6.462   0.671  12.905 -1.6177  1.0429  0.7455
 2404TIP3    H228704   6.348   0.640  12.810  1.7537 -2.0084 -2.5088
 2405TIP3   OH228705   6.179   6.545   3.224  0.2367 -0.5387  0.4567
 2405TIP3    H128706   6.216   6.513   3.306 -0.4191 -0.1778  0.8952
 2405TIP3    H228707   6.164   6.638   3.239  0.1591 -0.4612 -0.0920
 2406TIP3   OH228708   0.535   4.324  14.493 -0.7206 -0.1360  0.7093
 2406TIP3    H128709   0.531   4.245  14.439 -0.2382 -0.3566  1.0003
 2406TIP3    H228710   0.483   4.388  14.444  0.5590 -0.0252 -0.5386
 2407TIP3   OH228711   3.344   4.217  13.350 -0.1055  0.4285 -0.5399
 2407TIP3    H128712   3.305   4.130  13.360 -0.5366  0.4646 -1.8099
 2407TIP3    H228713   3.336   4.236  13.257  0.7483  1.4808 -0.4083
 2408TIP3   OH228714   4.097   5.656  13.481 -0.3131  0.5011 -0.0667
 2408TIP3    H128715   4.040   5.616  13.546 -0.0406 -3.4264 -2.0871
 2408TIP3    H228716   4.048   5.650  13.399  0.6059  2.5392 -0.7971
 2409TIP3   OH228717   2.099   4.992  14.577 -0.3777  0.2468  0.2446
 2409TIP3    H128718   2.152   5.063  14.614  1.1987 -1.5041  1.4180
 2409TIP3    H228719   2.081   5.021  14.487  1.1837  1.6361  0.3455
 2410TIP3   OH228720   4.021   0.147  16.423  0.2848  0.0905 -0.4292
 2410TIP3    H128721   4.098   0.091  16.416 -0.0664 -0.5640  0.8390
 2410TIP3    H228722   3.950   0.088  16.448 -0.3511  0.9007 -0.2908
 2411TIP3   OH228723   3.016   3.786  14.929  0.0869  0.3466 -0.1211
 2411TIP3    H128724   2.957   3.859  14.912 -1.8775 -1.2362 -0.1998
 2411TIP3    H228725   2.998   3.762  15.020  0.0346 -0.6469 -0.3928
 2412TIP3   OH228726   0.991   6.623   3.356 -0.2731  0.1035 -0.1491
 2412TIP3    H128727   0.907   6.580   3.366 -1.4724  1.9769 -1.7300
 2412TIP3    H228728   1.034   6.576   3.284 -0.6243  0.1441 -0.3832
 2413TIP3   OH228729   6.553   3.564  16.282  0.4867 -0.3081  0.2123
 2413TIP3    H128730   6.526   3.582  16.372  0.3744  0.1094  0.0997
 2413TIP3    H228731   6.478   3.589  16.229  0.3880 -0.9801  0.0349
 2414TIP3   OH228732   4.021   2.796   3.206 -0.0595  0.4901  0.1930
 2414TIP3    H128733   3.996   2.840   3.287 -0.0590  0.6879  0.0880
 2414TIP3    H228734   4.005   2.703   3.222 -2.9865  0.8061 -0.6334
 2415TIP3   OH228735   1.969   6.357   2.856  0.3518 -0.1823 -0.2164
 2415TIP3    H128736   1.985   6.417   2.782  1.4063 -1.4778 -1.0776
 2415TIP3    H228737   1.886   6.386   2.893 -0.3643  0.3183 -2.1179
 2416TIP3   OH228738   2.824   4.307  14.866 -0.8170 -0.1048 -0.2762
 2416TIP3    H128739   2.844   4.338  14.778 -1.6187  2.0031  0.2687
 2416TIP3    H228740   2.899   4.333  14.919 -0.5378 -0.9808 -0.2272
 2417TIP3   OH228741   4.514   5.104  12.955 -0.3560 -0.3006  0.4574
 2417TIP3    H128742   4.482   5.020  12.987 -0.7143 -0.0588  0.7312
 2417TIP3    H228743   4.577   5.081  12.886 -0.5425 -0.7876  0.4495
 2418TIP3   OH228744   0.404   0.465   0.503 -0.4436 -0.0535 -0.3779
 2418TIP3    H128745   0.372   0.402   0.439  0.5514  0.0092 -0.9542
 2418TIP3    H228746   0.340   0.536   0.501 -0.3730 -0.0046 -1.3895
 2419TIP3   OH228747   1.048   4.416  16.107 -0.0168 -0.2365  0.0606
 2419TIP3    H128748   1.031   4.492  16.163 -1.1368 -0.7558  0.4164
 2419TIP3    H228749   1.120   4.370  16.150  2.1002  1.7487 -1.2438
 2420TIP3   OH228750   4.625   1.184   4.974  0.3109 -0.8246  0.5313
 2420TIP3    H128751   4.626   1.269   5.019  1.0425 -0.3518 -0.3674
 2420TIP3    H228752   4.535   1.153   4.985 -0.8788  1.6020 -1.9493
 2421TIP3   OH228753   4.756   5.980   2.328  0.3127 -0.1245 -0.3589
 2421TIP3    H128754   4.693   6.034   2.279 -0.6064 -0.2567  0.6660
 2421TIP3    H228755   4.785   5.914   2.264 -1.4569 -0.7688 -0.5422
 2422TIP3   OH228756   2.099   2.976  16.994 -0.0366 -0.0075 -0.2623
 2422TIP3    H128757   2.029   2.960  16.931  0.1655  0.5083 -0.6207
 2422TIP3    H228758   2.167   3.022  16.943  1.4741 -2.3449 -0.4685
 2423TIP3   OH228759   5.560   4.276   2.100  0.0226  1.2286 -0.3105
 2423TIP3    H128760   5.627   4.344   2.095  0.7204  0.5615 -0.1315
 2423TIP3    H228761   5.610   4.195   2.113 -0.8428  0.7840  0.2430
 2424TIP3   OH228762   3.024   1.913  13.350 -0.1452 -0.5078  0.5321
 2424TIP3    H128763   2.982   1.849  13.293  0.8138 -1.4689  0.8904
 2424TIP3    H228764   3.056   1.862  13.424  1.6790  0.1694  0.2497
 2425TIP3   OH228765   3.043   1.237  16.061 -0.1913  0.0216 -0.0816
 2425TIP3    H128766   3.076   1.183  16.133  0.4503  0.9189  0.3051
 2425TIP3    H228767   2.987   1.302  16.103  0.5857  0.8631 -0.3265
 2426TIP3   OH228768   4.360   2.612   1.567 -0.3098  0.0328 -0.0380
 2426TIP3    H128769   4.337   2.666   1.643 -2.2600  0.0791 -0.6478
 2426TIP3    H228770   4.377   2.675   1.497 -1.9753 -0.0960 -0.5800
 2427TIP3   OH228771   0.775   3.469   1.237  0.3034  0.5754  0.5641
 2427TIP3    H128772   0.751   3.559   1.217  1.2471  0.8845  0.7646
 2427TIP3    H228773   0.723   3.447   1.314 -1.3598  0.2870 -0.6407
 2428TIP3   OH228774   1.309   3.389   3.161 -0.3999 -0.4726  0.3534
 2428TIP3    H128775   1.274   3.343   3.084  2.0368  0.4191 -1.3409
 2428TIP3    H228776   1.234   3.395   3.220 -2.3639 -1.1876 -1.9368
 2429TIP3   OH228777   1.530   0.008   6.245 -0.3449  0.1002 -0.4533
 2429TIP3    H128778   1.581   0.002   6.325 -0.2868  0.2148 -0.4816
 2429TIP3    H228779   1.476   0.086   6.256  0.1090  0.4669 -0.7841
 2430TIP3   OH228780   4.808   3.018  11.176  0.0986 -0.1260 -0.1055
 2430TIP3    H128781   4.863   2.968  11.116 -1.2702  0.5310 -1.9683
 2430TIP3    H228782   4.729   3.037  11.126 -1.2556  0.1131  2.0545
 2431TIP3   OH228783   5.244   5.018  16.147 -0.1882 -0.2555  0.1741
 2431TIP3    H128784   5.183   5.051  16.214  1.5465  0.4763  1.4314
 2431TIP3    H228785   5.261   5.094  16.091  0.7251 -0.0265  0.7380
 2432TIP3   OH228786   6.252   0.955  10.672 -0.0499 -0.2067  0.1112
 2432TIP3    H128787   6.323   0.897  10.644  1.2813  1.6478 -0.4277
 2432TIP3    H228788   6.251   0.947  10.768  0.1024 -1.1355  0.0400
 2433TIP3   OH228789   4.257   5.559  12.224  0.0095  0.6290 -0.0971
 2433TIP3    H128790   4.349   5.541  12.205  0.4810  0.3093  2.3594
 2433TIP3    H228791   4.253   5.567  12.319 -2.5120  0.6162 -0.1670
 2434TIP3   OH228792   6.783   5.214   3.296 -0.7035 -0.1559  0.1656
 2434TIP3    H128793   6.876   5.211   3.318 -0.6912 -0.9461  0.0167
 2434TIP3    H228794   6.745   5.139   3.342 -1.2238  0.0190  0.0223
 2435TIP3   OH228795   0.971   6.801  11.857 -0.1294 -0.5861  0.2634
 2435TIP3    H128796   0.907   6.795  11.928 -0.1208  4.0514  0.8058
 2435TIP3    H228797   1.051   6.830  11.900  0.7718 -0.7973 -1.2454
 2436TIP3   OH228798   5.363   3.316   2.510 -0.0301 -0.2181 -0.7041
 2436TIP3    H128799   5.377   3.411   2.511 -2.0520  0.1020  0.0878
 2436TIP3    H228800   5.320   3.297   2.593 -2.9025 -1.2557 -2.3499
 2437TIP3   OH228801   3.217   3.439   4.716 -0.3483 -0.0219  0.8500
 2437TIP3    H128802   3.254   3.527   4.725 -0.4148  0.0664  0.2836
 2437TIP3    H228803   3.293   3.382   4.702 -0.4132  0.1349 -0.1377
 2438TIP3   OH228804   4.669   5.783   3.506 -0.1772 -0.1164 -0.7379
 2438TIP3    H128805   4.707   5.768   3.592 -0.7129 -1.0862 -0.6630
 2438TIP3    H228806   4.617   5.863   3.516 -0.1755 -0.1861 -0.1838
 2439TIP3   OH228807   3.955   0.338   0.300 -0.1436  0.0241 -0.5290
 2439TIP3    H128808   3.944   0.429   0.326 -0.8936 -0.3172  0.3773
 2439TIP3    H228809   3.995   0.295   0.376  0.9192 -0.2477 -1.2262
 2440TIP3   OH228810   2.244   0.164   2.867 -0.1831  0.0197  0.3797
 2440TIP3    H128811   2.195   0.177   2.948  0.2349  2.9013  0.2183
 2440TIP3    H228812   2.190   0.207   2.800  1.0979  0.6194 -0.2822
 2441TIP3   OH228813   1.176   0.933  16.981 -0.1593 -0.0077  0.1400
 2441TIP3    H128814   1.180   0.885  16.898  0.6812 -0.9797  0.7393
 2441TIP3    H228815   1.205   1.022  16.959 -2.7508  0.5544 -1.2001
 2442TIP3   OH228816   3.920   1.441  16.592 -0.7088  0.1288  0.3523
 2442TIP3    H128817   3.902   1.354  16.556  0.4331 -1.4757  3.5423
 2442TIP3    H228818   3.834   1.480  16.605 -1.2796 -1.0636  0.2083
 2443TIP3   OH228819   5.019   4.897  13.523 -0.5747 -0.0744 -0.4355
 2443TIP3    H128820   4.972   4.980  13.535  0.1302 -0.0183  2.2633
 2443TIP3    H228821   5.061   4.881  13.607  1.2871 -1.9658 -1.6733
 2444TIP3   OH228822   6.667   0.355   3.460 -0.3167 -0.2313  0.3157
 2444TIP3    H128823   6.707   0.268   3.459  2.7797  1.1323 -3.7253
 2444TIP3    H228824   6.596   0.350   3.396  0.5441  0.4610 -0.7153
 2445TIP3   OH228825   6.211   1.356  16.678 -0.3225 -0.7049  0.3802
 2445TIP3    H128826   6.219   1.275  16.628 -2.7236 -0.7542  0.0123
 2445TIP3    H228827   6.184   1.328  16.765  1.0267 -0.4395  0.8826
 2446TIP3   OH228828   4.918   6.686   0.829 -0.0279 -0.1061 -0.4729
 2446TIP3    H128829   4.907   6.742   0.906  0.8511  1.4352 -1.4521
 2446TIP3    H228830   4.929   6.598   0.866  1.9194  0.8160  1.2672
 2447TIP3   OH228831   1.212   1.414  13.922  0.1791  0.1235  0.0126
 2447TIP3    H128832   1.160   1.396  14.000  1.9253 -1.6744  0.7747
 2447TIP3    H228833   1.257   1.496  13.941  1.3695 -0.8238  1.3012
 2448TIP3   OH228834   0.004   6.418   1.028 -0.0176 -0.0961  0.0584
 2448TIP3    H128835  -0.059   6.347   1.042 -0.0255  0.0710  0.9175
 2448TIP3    H228836   0.052   6.423   1.111 -0.1173  0.9969  0.0609
 2449TIP3   OH228837   4.277   1.428   1.527  0.6284 -0.0684  0.3007
 2449TIP3    H128838   4.237   1.487   1.463  1.1930  0.2319  0.2264
 2449TIP3    H228839   4.369   1.453   1.529  0.8712 -0.9639  0.2593
 2450TIP3   OH228840   4.024   5.940  11.293 -0.0956  0.0798  0.0057
 2450TIP3    H128841   4.016   5.946  11.198  0.7362  0.0287 -0.0784
 2450TIP3    H228842   4.024   6.031  11.323  0.0173  0.1099 -0.0829
 2451TIP3   OH228843   1.952   2.540   2.265  0.3118  0.0687  0.1434
 2451TIP3    H128844   2.011   2.590   2.208 -0.3152 -1.5215 -1.9692
 2451TIP3    H228845   1.954   2.452   2.229 -1.2028 -0.6486  1.7650
 2452TIP3   OH228846   6.260   5.824   2.900 -0.4251  0.3411 -0.3049
 2452TIP3    H128847   6.245   5.774   2.980 -2.1393  1.5972  0.2024
 2452TIP3    H228848   6.356   5.827   2.891 -0.2717 -1.5775  0.5414
 2453TIP3   OH228849   3.656   4.975  12.896 -0.2744 -0.0077 -0.3821
 2453TIP3    H128850   3.730   4.917  12.916  0.0156  1.0006  1.5303
 2453TIP3    H228851   3.649   5.033  12.972 -2.6576  0.3141 -0.8122
 2454TIP3   OH228852   0.456   5.783  15.428  0.0042 -0.2118 -0.2446
 2454TIP3    H128853   0.545   5.750  15.419  1.2809  2.8523  0.5108
 2454TIP3    H228854   0.416   5.770  15.342  1.8379  0.2570 -1.1876
 2455TIP3   OH228855   3.351   2.243  14.184 -0.1279 -0.2067 -0.3323
 2455TIP3    H128856   3.425   2.215  14.238 -0.6920 -2.0045 -0.4489
 2455TIP3    H228857   3.373   2.332  14.158  2.3642 -0.9517 -0.9808
 2456TIP3   OH228858   6.522   3.145  16.786  0.3797 -0.4157  0.2909
 2456TIP3    H128859   6.607   3.167  16.825  0.9200 -0.2405 -0.9716
 2456TIP3    H228860   6.471   3.110  16.859  1.5653 -0.6148  1.0373
 2457TIP3   OH228861   5.005   6.427   1.992 -0.2169  0.1546  0.1498
 2457TIP3    H128862   5.017   6.337   1.962 -1.6645  0.0547 -0.1544
 2457TIP3    H228863   4.923   6.455   1.951 -0.1344  1.3731  0.8107
 2458TIP3   OH228864   5.808   0.158   1.723 -0.5209 -0.1122  0.2195
 2458TIP3    H128865   5.865   0.211   1.779 -0.5856 -0.1328  0.3067
 2458TIP3    H228866   5.746   0.220   1.686  0.8622  0.2362 -1.5405
 2459TIP3   OH228867   4.958   2.298  10.483  0.4499  0.3920  0.3219
 2459TIP3    H128868   4.937   2.235  10.415  0.4511  0.2299  0.4716
 2459TIP3    H228869   4.878   2.350  10.494  0.0642 -0.3309  1.0092
 2460TIP3   OH228870   6.469   4.775  15.479 -0.3279  0.4081  0.0506
 2460TIP3    H128871   6.506   4.754  15.393 -2.2442 -3.3577  0.0287
 2460TIP3    H228872   6.415   4.852  15.465  1.2811  1.2696 -1.5703
 2461TIP3   OH228873   2.802   4.089  12.621 -0.3137  0.3082 -0.1179
 2461TIP3    H128874   2.771   4.000  12.636 -0.5189  0.2169 -1.0071
 2461TIP3    H228875   2.879   4.078  12.565 -1.3905  0.7713 -1.7165
 2462TIP3   OH228876   1.201   4.501   2.401  0.1691 -0.8222  0.2723
 2462TIP3    H128877   1.196   4.549   2.484  2.3635 -1.1227  0.5936
 2462TIP3    H228878   1.241   4.417   2.424 -0.2721 -1.3607 -0.9041
 2463TIP3   OH228879   2.937   4.873   0.953 -0.1136 -0.3498  0.0696
 2463TIP3    H128880   2.869   4.925   0.910 -0.2902 -2.6442 -2.6049
 2463TIP3    H228881   2.890   4.813   1.009  0.0595  1.8365  2.6526
 2464TIP3   OH228882   5.066   4.521  13.454  0.3739 -0.1862 -0.7029
 2464TIP3    H128883   5.101   4.561  13.374  0.0372 -0.7957 -1.1620
 2464TIP3    H228884   4.973   4.508  13.436  0.2990 -0.3333 -0.2125
 2465TIP3   OH228885   2.766   4.574   3.565  0.2160 -0.4919  0.3217
 2465TIP3    H128886   2.719   4.656   3.579 -0.6584 -1.0231  0.5586
 2465TIP3    H228887   2.732   4.540   3.482 -0.9717 -1.6481  1.2626
 2466TIP3   OH228888   5.566   4.297   2.638 -0.0644 -0.1168 -0.1947
 2466TIP3    H128889   5.597   4.274   2.551 -0.1679 -1.3296  0.0851
 2466TIP3    H228890   5.644   4.322   2.686 -0.0818  1.2310 -0.8197
 2467TIP3   OH228891   1.689   6.062  12.413  0.6143 -0.2713  0.2113
 2467TIP3    H128892   1.609   6.028  12.454  0.8897 -0.4468  0.6023
 2467TIP3    H228893   1.672   6.053  12.319 -0.2453  0.6577  0.2707
 2468TIP3   OH228894   0.619   1.737  16.633 -0.4392 -0.7513 -0.7589
 2468TIP3    H128895   0.528   1.764  16.646 -0.3751 -1.6587  1.9406
 2468TIP3    H228896   0.669   1.818  16.643 -0.7248 -0.7751  1.0091
 2469TIP3   OH228897   2.452   1.434   2.855  0.8607  0.3959 -0.1730
 2469TIP3    H128898   2.499   1.409   2.935 -0.9260 -2.0579  0.1587
 2469TIP3    H228899   2.505   1.505   2.818  3.4674 -0.6002  1.4662
 2470TIP3   OH228900   5.950   1.217  11.066  0.6603 -0.0772  0.5356
 2470TIP3    H128901   5.893   1.246  10.995  1.0476 -0.2094  0.1694
 2470TIP3    H228902   5.897   1.230  11.145  0.4473  0.6428  0.2856
 2471TIP3   OH228903   4.374   6.431  13.256 -0.2261 -0.5448  0.1104
 2471TIP3    H128904   4.344   6.390  13.175  1.1395 -1.2121 -0.0805
 2471TIP3    H228905   4.467   6.407  13.262  0.9185  3.3551 -0.5025
 2472TIP3   OH228906   5.489   3.639  14.174  0.1175  0.8353 -0.4014
 2472TIP3    H128907   5.570   3.604  14.211 -0.3380 -1.1757 -1.2355
 2472TIP3    H228908   5.495   3.621  14.081 -1.3726  0.5212 -0.4427
 2473TIP3   OH228909   3.196   1.971  15.443 -0.2755  0.3036  0.5250
 2473TIP3    H128910   3.141   1.971  15.522  0.1851 -2.2514  0.8864
 2473TIP3    H228911   3.285   1.976  15.476 -0.1674  2.2666  0.0124
 2474TIP3   OH228912   1.391   4.049  14.213  0.1781 -0.3374 -0.1432
 2474TIP3    H128913   1.391   4.070  14.119 -0.9976  0.8402  0.0954
 2474TIP3    H228914   1.347   4.124  14.253  0.0185 -1.1884  1.2722
 2475TIP3   OH228915   6.342   2.224   5.408 -0.1753  0.8694 -0.3165
 2475TIP3    H128916   6.409   2.155   5.406 -0.3799  0.3455  4.2402
 2475TIP3    H228917   6.384   2.295   5.457 -0.9952  2.8625 -2.4562
 2476TIP3   OH228918   5.541   4.439   3.947  0.6885  0.3703 -0.3573
 2476TIP3    H128919   5.452   4.447   3.982  1.0982  2.8728  0.2367
 2476TIP3    H228920   5.530   4.408   3.858 -1.0609  4.0379 -1.5085
 2477TIP3   OH228921   0.396   3.273  12.531  0.1984 -0.0396 -0.1913
 2477TIP3    H128922   0.301   3.260  12.525  0.4101 -1.8825  0.1145
 2477TIP3    H228923   0.411   3.300  12.622 -0.0808  0.7357 -0.3742
 2478TIP3   OH228924   3.180   2.328  14.848  0.4320  0.0074 -0.7156
 2478TIP3    H128925   3.164   2.339  14.942  0.1393 -2.6901 -0.4050
 2478TIP3    H228926   3.191   2.417  14.815  1.5627  0.9626  2.0561
 2479TIP3   OH228927   6.415   4.471   3.635 -0.5023 -0.7026 -0.1832
 2479TIP3    H128928   6.445   4.517   3.714 -0.0760 -0.0411 -0.7270
 2479TIP3    H228929   6.352   4.406   3.668 -1.1701  0.3139  0.5823
 2480TIP3   OH228930   1.602   2.043   5.935 -0.5705 -0.2849  0.3593
 2480TIP3    H128931   1.675   2.048   5.874 -2.1432  0.9118 -1.4608
 2480TIP3    H228932   1.644   2.032   6.021  1.7381  0.3286 -0.6431
 2481TIP3   OH228933   1.375   3.494  14.502 -0.4165  0.5659  0.3280
 2481TIP3    H128934   1.435   3.568  14.504 -1.6617  1.5682  3.3126
 2481TIP3    H228935   1.418   3.425  14.553 -0.2334  0.0192 -0.5582
 2482TIP3   OH228936   3.913   6.223   0.405  0.2549  0.4679  0.2508
 2482TIP3    H128937   3.839   6.206   0.348 -0.0123 -1.5029  1.1527
 2482TIP3    H228938   3.879   6.210   0.494  1.9682 -1.7570  0.6199
 2483TIP3   OH228939   2.229   5.295   2.133  0.0837 -0.1354  0.2957
 2483TIP3    H128940   2.225   5.364   2.066 -0.9923 -0.1904  0.2895
 2483TIP3    H228941   2.145   5.249   2.125  1.1652 -2.0495 -0.3175
 2484TIP3   OH228942   3.343   1.194  12.813 -0.4988 -0.4725  0.9293
 2484TIP3    H128943   3.341   1.240  12.897  0.7883 -1.3012  1.4394
 2484TIP3    H228944   3.280   1.122  12.824 -1.3631  0.2346  0.6795
 2485TIP3   OH228945   5.241   3.435   0.403 -0.6144  0.0897  0.2442
 2485TIP3    H128946   5.262   3.520   0.441  0.9155  0.5545 -1.5487
 2485TIP3    H228947   5.213   3.454   0.314  0.0555 -1.2845 -0.2807
 2486TIP3   OH228948   2.217   3.898  12.252 -0.8986 -0.0243  0.1224
 2486TIP3    H128949   2.171   3.960  12.196 -1.0041 -1.6851 -1.6956
 2486TIP3    H228950   2.237   3.947  12.331  0.5772  2.8817 -1.9398
 2487TIP3   OH228951   0.222   6.609   0.711 -0.3663 -0.5725 -0.3917
 2487TIP3    H128952   0.293   6.656   0.667 -0.0590 -0.2340  0.4597
 2487TIP3    H228953   0.157   6.676   0.730  0.3991 -0.3242  1.4948
 2488TIP3   OH228954   5.677   6.488  14.436  0.4110 -0.0432  0.0857
 2488TIP3    H128955   5.647   6.417  14.492  1.8308 -0.4170  0.3925
 2488TIP3    H228956   5.632   6.474  14.353  0.8870 -1.4492  0.0611
 2489TIP3   OH228957   0.984   4.769  12.852  0.2102  0.3746 -0.3987
 2489TIP3    H128958   0.900   4.742  12.817  0.9725 -1.0168 -1.1667
 2489TIP3    H228959   1.047   4.745  12.785  1.3372  0.5033  0.6016
 2490TIP3   OH228960   2.509   3.826  13.466 -0.4311 -0.4828 -0.4642
 2490TIP3    H128961   2.440   3.764  13.438 -1.6780 -0.8867  3.2571
 2490TIP3    H228962   2.546   3.858  13.384 -2.2547 -3.3955 -2.5540
 2491TIP3   OH228963   2.072   1.407   0.837 -0.7115  0.1090  0.9204
 2491TIP3    H128964   2.151   1.357   0.858 -0.4567 -0.1285 -0.5320
 2491TIP3    H228965   2.090   1.444   0.751 -2.6239 -0.8468  0.0968
 2492TIP3   OH228966   3.004   4.540  13.258  0.0745  0.5094  0.1336
 2492TIP3    H128967   2.918   4.545  13.299  0.3661 -0.2243  0.8276
 2492TIP3    H228968   3.059   4.495  13.321  0.8421  0.5037 -0.5293
 2493TIP3   OH228969   2.791   1.857  10.979  0.0322 -0.1858  0.4948
 2493TIP3    H128970   2.855   1.919  10.944  0.7746 -2.6562 -2.7488
 2493TIP3    H228971   2.843   1.779  11.002 -1.7529 -2.2760 -2.2969
 2494TIP3   OH228972   4.228   1.803  14.819  0.4224 -0.0716  0.4942
 2494TIP3    H128973   4.262   1.874  14.874  0.9961  0.3650 -0.4008
 2494TIP3    H228974   4.140   1.832  14.795 -0.0665 -0.5553  1.6833
 2495TIP3   OH228975   2.308   4.705  12.489 -0.2679 -0.0398 -0.1435
 2495TIP3    H128976   2.331   4.653  12.412  0.3410  1.7276 -1.2051
 2495TIP3    H228977   2.364   4.783  12.482 -1.6640  1.0928  0.9946
 2496TIP3   OH228978   6.117   5.591   6.785 -0.5343 -0.0012 -0.1933
 2496TIP3    H128979   6.077   5.677   6.783  0.8836  0.8427  3.4932
 2496TIP3    H228980   6.208   5.607   6.812 -0.3735 -2.6231  1.0160
 2497TIP3   OH228981   4.044   4.604   3.743 -0.2156 -0.0964 -0.3500
 2497TIP3    H128982   4.118   4.576   3.796 -1.2617 -0.6065  0.8586
 2497TIP3    H228983   4.037   4.698   3.760 -0.5000 -0.2421  0.3763
 2498TIP3   OH228984   0.944   5.473  15.564 -0.2334 -0.0589  0.3873
 2498TIP3    H128985   0.999   5.395  15.571  0.2721  0.1597 -0.8435
 2498TIP3    H228986   0.997   5.543  15.602 -0.2643 -0.1245  0.5510
 2499TIP3   OH228987   5.031   5.144   5.609  0.7349 -0.1473  0.2914
 2499TIP3    H128988   5.070   5.172   5.692  1.0915  0.8688 -0.2069
 2499TIP3    H228989   4.971   5.214   5.586  1.6726  0.2443 -1.0021
 2500TIP3   OH228990   6.105   0.327  12.692  0.1010 -0.5536 -0.0301
 2500TIP3    H128991   6.157   0.261  12.739  0.5643 -0.3223 -0.2203
 2500TIP3    H228992   6.022   0.331  12.741  1.1077  0.7222  1.6288
 2501TIP3   OH228993   1.644   0.237  13.920  0.1354  0.2993  0.0964
 2501TIP3    H128994   1.579   0.275  13.979 -0.1522 -1.9457  1.2894
 2501TIP3    H228995   1.594   0.201  13.848  0.2102  0.1707  0.1081
 2502TIP3   OH228996   2.314   4.267  11.725  0.1565  0.0600 -0.2913
 2502TIP3    H128997   2.350   4.250  11.812 -0.2718 -0.8076 -0.2734
 2502TIP3    H228998   2.316   4.362  11.716  1.6641  0.0756  0.0395
 2503TIP3   OH228999   1.004   2.901   1.622 -0.0784  0.0184 -0.4513
 2503TIP3    H129000   1.070   2.904   1.691  0.3045 -0.3555 -0.8053
 2503TIP3    H229001   1.053   2.890   1.541 -0.6724 -2.1240 -0.5440
 2504TIP3   OH229002   0.461   5.525   3.803  0.3872 -0.4343  0.0364
 2504TIP3    H129003   0.449   5.431   3.793 -3.7587 -0.2397  2.0969
 2504TIP3    H229004   0.452   5.560   3.715  0.8123 -1.8380 -0.5827
 2505TIP3   OH229005   4.369   2.400   0.767 -0.2344 -0.7690 -0.1244
 2505TIP3    H129006   4.405   2.357   0.689 -1.1863 -1.2133 -0.3251
 2505TIP3    H229007   4.284   2.358   0.780 -1.5806  1.6290 -0.8221
 2506TIP3   OH229008   1.395   6.655   6.559  0.4096 -0.6690 -0.3305
 2506TIP3    H129009   1.300   6.641   6.551  0.5171 -0.9647 -1.1619
 2506TIP3    H229010   1.426   6.578   6.607 -0.0590  0.4723  1.8705
 2507TIP3   OH229011   0.474   1.898  15.101  0.7301 -0.8800  0.6818
 2507TIP3    H129012   0.546   1.959  15.088  0.5885 -0.9797 -0.5765
 2507TIP3    H229013   0.400   1.935  15.052  0.6653 -2.0782 -0.1592
 2508TIP3   OH229014   4.251   3.611  11.191 -0.6017 -0.1631  1.0142
 2508TIP3    H129015   4.315   3.589  11.124 -0.7920 -0.6216  0.9801
 2508TIP3    H229016   4.298   3.602  11.274 -0.3541  0.4482  0.9397
 2509TIP3   OH229017   4.588   5.117  13.860  0.7893  0.1266 -0.3748
 2509TIP3    H129018   4.551   5.194  13.901  0.6385 -0.1407 -0.0073
 2509TIP3    H229019   4.653   5.084  13.923  0.5906 -0.2542 -0.3659
 2510TIP3   OH229020   1.289   1.182  16.173  0.1708 -0.1731 -0.2359
 2510TIP3    H129021   1.262   1.090  16.174  0.2771 -0.2612 -2.3216
 2510TIP3    H229022   1.381   1.180  16.199 -0.6193 -0.3161  2.6831
 2511TIP3   OH229023   2.256   1.959   4.039 -0.2372 -0.2559 -0.5183
 2511TIP3    H129024   2.314   2.016   3.988 -1.3851  0.5335 -0.9627
 2511TIP3    H229025   2.179   2.012   4.055 -0.1945 -0.7698  1.4202
 2512TIP3   OH229026   6.410   1.442  13.601 -0.2356  0.6481  0.2997
 2512TIP3    H129027   6.351   1.507  13.563 -1.7108 -0.3669  0.7720
 2512TIP3    H229028   6.484   1.437  13.541 -1.8322  0.1328 -1.6882
 2513TIP3   OH229029   5.734   3.457  15.560 -0.1254  0.4325 -0.0265
 2513TIP3    H129030   5.708   3.547  15.582 -0.4552  0.1432  0.7860
 2513TIP3    H229031   5.815   3.443  15.609 -1.9614 -0.9310  2.7566
 2514TIP3   OH229032   4.345   3.314   1.365 -0.2760  0.0476 -0.4019
 2514TIP3    H129033   4.349   3.409   1.352 -0.0758  0.3965  1.8577
 2514TIP3    H229034   4.287   3.282   1.296 -1.2284  1.9772 -0.5263
 2515TIP3   OH229035   0.248   1.588   1.840 -0.5516 -0.0271 -0.4781
 2515TIP3    H129036   0.342   1.588   1.857 -0.3445  0.1412 -1.6357
 2515TIP3    H229037   0.214   1.516   1.894  0.2292 -0.0859 -0.0564
 2516TIP3   OH229038   3.785   2.093  13.405  0.1754  0.3615 -0.5420
 2516TIP3    H129039   3.816   2.146  13.332  2.9621 -0.5471 -0.0949
 2516TIP3    H229040   3.732   2.024  13.365  1.4791  0.0139 -1.6887
 2517TIP3   OH229041   0.826   6.549  16.669 -0.6682 -0.0229 -0.3867
 2517TIP3    H129042   0.777   6.486  16.616 -2.2937  0.5706  0.3469
 2517TIP3    H229043   0.818   6.516  16.758 -1.0864  0.9178 -0.0658
 2518TIP3   OH229044   2.719   3.291  15.700 -0.2977 -0.0124  0.2705
 2518TIP3    H129045   2.670   3.264  15.622  0.8064 -1.3968  0.0364
 2518TIP3    H229046   2.680   3.375  15.725 -1.7422 -0.3330 -0.8202
 2519TIP3   OH229047   5.965   1.286  15.016 -0.2870  0.0299 -0.4865
 2519TIP3    H129048   6.019   1.296  14.938 -0.1433  1.3049 -0.2364
 2519TIP3    H229049   5.997   1.205  15.057  1.9164  1.1141  0.0144
 2520TIP3   OH229050   4.487   2.136   1.790 -0.0852 -0.0696 -0.1474
 2520TIP3    H129051   4.462   2.112   1.701 -2.3310  0.2824  0.3518
 2520TIP3    H229052   4.498   2.231   1.787  1.0675 -0.1968 -0.3124
 2521TIP3   OH229053   0.725   4.966   4.430  0.6557  1.0178  0.2527
 2521TIP3    H129054   0.713   5.044   4.374 -0.4736  1.1217  0.6230
 2521TIP3    H229055   0.701   4.996   4.517 -0.3238  0.1116  0.3038
 2522TIP3   OH229056   2.306   6.789   1.311  1.0117  0.1936  0.1531
 2522TIP3    H129057   2.364   6.721   1.278 -0.3108 -0.4264 -0.9345
 2522TIP3    H229058   2.301   6.853   1.239 -2.1036 -1.2974 -1.0370
 2523TIP3   OH229059   2.198   6.283   4.365  0.3106  0.0525  0.3315
 2523TIP3    H129060   2.171   6.371   4.341 -0.2377  0.3585  1.9983
 2523TIP3    H229061   2.217   6.288   4.459 -0.9142 -1.8704  0.7280
 2524TIP3   OH229062   4.852   2.037  10.421 -0.1321 -0.0893  0.5270
 2524TIP3    H129063   4.938   2.067  10.395 -0.1246 -0.5865 -0.0215
 2524TIP3    H229064   4.819   1.988  10.346 -2.0456  2.4527 -0.3391
 2525TIP3   OH229065   0.181   6.458  15.408 -0.0165 -0.5193 -0.5040
 2525TIP3    H129066   0.121   6.486  15.338  0.8625 -0.2883 -1.1785
 2525TIP3    H229067   0.266   6.492  15.381  0.0982  0.7299  1.3574
 2526TIP3   OH229068   3.847   6.169  12.403  0.2589 -0.3738 -0.0331
 2526TIP3    H129069   3.923   6.209  12.444  0.1884 -0.4724  0.1985
 2526TIP3    H229070   3.829   6.091  12.457  0.9802 -1.2542 -1.0481
 2527TIP3   OH229071   3.348   4.441   5.572 -0.3504 -0.7492  0.5447
 2527TIP3    H129072   3.381   4.530   5.560  0.2514 -1.1831 -1.1329
 2527TIP3    H229073   3.311   4.417   5.487 -1.3566 -1.7666  1.2504
 2528TIP3   OH229074   2.518   1.299   3.849  0.3770  0.3679  0.2077
 2528TIP3    H129075   2.556   1.322   3.764 -0.1894 -1.2667 -0.5008
 2528TIP3    H229076   2.592   1.271   3.903  0.4736 -0.7026 -0.4647
 2529TIP3   OH229077   1.756   1.386   1.637  0.2135 -0.0021  0.3391
 2529TIP3    H129078   1.675   1.417   1.597  0.3115 -0.2197 -0.0286
 2529TIP3    H229079   1.803   1.343   1.566 -0.2958 -1.7297  1.0198
 2530TIP3   OH229080   0.586   1.571   1.543 -0.4450  0.4892 -0.7650
 2530TIP3    H129081   0.491   1.574   1.531 -0.4662 -0.9132 -0.9939
 2530TIP3    H229082   0.609   1.478   1.537  0.9035  0.7797 -0.3943
 2531TIP3   OH229083   0.645   0.885  12.984  0.7257  0.0456  0.1639
 2531TIP3    H129084   0.691   0.967  13.000  0.3408  0.2044  0.4791
 2531TIP3    H229085   0.637   0.879  12.889  2.0848 -0.3749  0.0688
 2532TIP3   OH229086   0.366   1.541  13.906 -0.2650 -0.3259  0.4920
 2532TIP3    H129087   0.279   1.574  13.881  0.3238  0.3827 -0.6516
 2532TIP3    H229088   0.427   1.601  13.864  0.7779  0.4433  3.0396
 2533TIP3   OH229089   0.488   0.349  13.258  0.0471  0.2545 -0.4213
 2533TIP3    H129090   0.534   0.290  13.318 -1.8901 -0.4800  0.3961
 2533TIP3    H229091   0.492   0.305  13.173  1.1163  0.3496 -0.4206
 2534TIP3   OH229092   2.405   6.183   3.179 -0.2885  0.1569 -0.1619
 2534TIP3    H129093   2.425   6.229   3.261 -0.2859 -0.9814  0.4927
 2534TIP3    H229094   2.319   6.143   3.195  0.0445 -0.6796 -0.4476
 2535TIP3   OH229095   3.850   3.499  10.270 -0.1492  0.1059 -0.1977
 2535TIP3    H129096   3.849   3.547  10.353 -0.4490 -1.0175  0.4626
 2535TIP3    H229097   3.835   3.566  10.203 -0.6502  0.9174  0.7126
 2536TIP3   OH229098   2.479   1.589   1.739  0.1834 -0.5091  0.9192
 2536TIP3    H129099   2.404   1.558   1.688  0.2576 -0.0539  0.5323
 2536TIP3    H229100   2.453   1.576   1.831  0.2854 -1.8992  0.7729
 2537TIP3   OH229101   1.340   2.499  12.314 -1.1235 -0.3300  0.5196
 2537TIP3    H129102   1.320   2.562  12.245 -0.6071  2.2234  2.6142
 2537TIP3    H229103   1.260   2.494  12.366  0.2804  2.0989  2.9891
 2538TIP3   OH229104   1.588   1.672   1.663 -0.1151 -0.2666  0.1920
 2538TIP3    H129105   1.518   1.722   1.704 -1.0367 -0.5741 -0.9845
 2538TIP3    H229106   1.654   1.738   1.639 -1.0633  0.3332 -0.8223
 2539TIP3   OH229107   2.078   4.708  14.265 -0.0702 -0.7175 -0.1642
 2539TIP3    H129108   2.112   4.642  14.325  1.3484 -0.3602 -0.5718
 2539TIP3    H229109   2.074   4.665  14.180 -1.6341 -1.0745  0.0634
 2540TIP3   OH229110   5.467   0.527  15.809  0.0960  0.0310 -0.5745
 2540TIP3    H129111   5.544   0.575  15.839  0.3086 -0.4265 -0.3913
 2540TIP3    H229112   5.499   0.472  15.738  0.2439 -1.2569  0.4735
 2541TIP3   OH229113   5.057   1.658  16.013 -0.2067  0.0682  0.2345
 2541TIP3    H129114   4.963   1.643  15.997  0.2994 -2.4730 -0.5914
 2541TIP3    H229115   5.094   1.670  15.926  0.4840 -0.4918  0.4500
 2542TIP3   OH229116   0.031   1.232  14.562 -0.1802 -0.1422 -0.8092
 2542TIP3    H129117   0.064   1.144  14.580  0.3618  0.2241  0.0368
 2542TIP3    H229118  -0.031   1.249  14.633 -2.7593 -1.0917 -2.7676
 2543TIP3   OH229119   1.735   6.115   3.728 -0.0819 -0.0059  0.3793
 2543TIP3    H129120   1.656   6.149   3.770 -0.4364 -2.4162  1.7233
 2543TIP3    H229121   1.718   6.022   3.716  1.2134  0.0547 -2.4559
 2544TIP3   OH229122   2.974   1.448   0.904  0.1702 -0.0051  0.3421
 2544TIP3    H129123   2.967   1.360   0.869 -0.5134  0.9960 -2.1582
 2544TIP3    H229124   3.021   1.498   0.837 -0.4369  1.7980  1.2002
 2545TIP3   OH229125   0.675   6.721   5.858  0.2798  0.2848 -0.0686
 2545TIP3    H129126   0.724   6.712   5.777  0.6263  2.2806 -0.0946
 2545TIP3    H229127   0.641   6.633   5.875  1.8386 -0.5814 -1.3150
 2546TIP3   OH229128   5.395   5.831   4.705 -0.1431 -0.0424  0.2212
 2546TIP3    H129129   5.352   5.820   4.620  1.3724 -0.2765 -0.5239
 2546TIP3    H229130   5.450   5.909   4.695  1.2768 -0.9864  0.4563
 2547TIP3   OH229131   6.623   1.021  13.505 -0.3991  0.1592 -0.0121
 2547TIP3    H129132   6.671   0.951  13.549  1.4550  1.4301  0.0415
 2547TIP3    H229133   6.575   1.065  13.576  0.2753  0.3893  0.3011
 2548TIP3   OH229134   4.679   3.341   3.606  0.3428 -0.4648 -0.2103
 2548TIP3    H129135   4.599   3.299   3.640  0.6020 -0.1289  0.8458
 2548TIP3    H229136   4.739   3.269   3.591 -0.2645 -0.7484 -1.2905
 2549TIP3   OH229137   0.068   5.482   2.688 -0.4105 -0.7184 -0.0966
 2549TIP3    H129138   0.093   5.574   2.677  1.9235 -0.9160  2.8612
 2549TIP3    H229139  -0.018   5.486   2.730 -0.4980  0.1161 -0.3353
 2550TIP3   OH229140   1.370   0.168   5.021  0.7105  0.0331 -0.3852
 2550TIP3    H129141   1.330   0.135   4.940  0.1182 -1.5608  0.5282
 2550TIP3    H229142   1.319   0.127   5.091  3.2230 -1.1830  0.8119
 2551TIP3   OH229143   3.153   1.921  16.831 -0.2159 -0.4505  0.1281
 2551TIP3    H129144   3.078   1.974  16.806  0.1026  0.1905  0.5150
 2551TIP3    H229145   3.180   1.878  16.750  1.1584  2.0544 -0.7923
 2552TIP3   OH229146   3.913   4.293  13.046 -0.2069 -0.9370 -0.1609
 2552TIP3    H129147   3.979   4.271  13.112 -0.6394 -0.7045  0.3597
 2552TIP3    H229148   3.945   4.373  13.005 -1.0256  0.1936  1.3319
 2553TIP3   OH229149   3.668   0.320  13.550 -0.1643 -0.0958  0.3532
 2553TIP3    H129150   3.755   0.279  13.550 -0.9669 -1.8100 -0.2172
 2553TIP3    H229151   3.683   0.408  13.515  1.1737 -0.7247 -0.6670
 2554TIP3   OH229152   5.127   4.100  14.432  0.3958  0.5629 -0.4640
 2554TIP3    H129153   5.114   4.035  14.501 -1.9349  1.0964 -0.3844
 2554TIP3    H229154   5.188   4.058  14.371 -0.3726 -1.3382  0.0424
 2555TIP3   OH229155   1.378   4.357  17.107 -0.1896  0.0804 -0.3852
 2555TIP3    H129156   1.314   4.426  17.125 -0.2629 -0.5335  1.8713
 2555TIP3    H229157   1.325   4.279  17.090 -0.1020 -0.6536  2.4178
 2556TIP3   OH229158   1.315   2.479  12.893 -0.0352  0.1704 -0.4034
 2556TIP3    H129159   1.345   2.406  12.839  1.0360  0.3542 -0.0697
 2556TIP3    H229160   1.230   2.503  12.856 -1.0440 -2.1250  0.3440
 2557TIP3   OH229161   2.447   4.430   2.588  0.6163  0.0335 -0.1344
 2557TIP3    H129162   2.455   4.429   2.683 -0.2333 -1.4775 -0.0523
 2557TIP3    H229163   2.487   4.348   2.559  0.1355  0.0906 -1.0036
 2558TIP3   OH229164   1.816   3.045  12.209  0.2065 -0.1064  0.1935
 2558TIP3    H129165   1.791   3.119  12.154 -0.5271 -0.3420  0.1983
 2558TIP3    H229166   1.911   3.052  12.217  0.2174  0.4551 -0.3457
 2559TIP3   OH229167   5.721   1.516  16.247  0.0396  0.0983  0.0855
 2559TIP3    H129168   5.744   1.587  16.188 -1.8840  0.1835 -0.6056
 2559TIP3    H229169   5.733   1.553  16.334  1.3559  0.4877 -0.2478
 2560TIP3   OH229170   0.389   2.161   4.075  0.4321  0.1529  0.3523
 2560TIP3    H129171   0.471   2.124   4.043  1.0612  1.8439 -0.0442
 2560TIP3    H229172   0.367   2.107   4.151  2.7546  0.6310  1.4329
 2561TIP3   OH229173   0.907   1.234  11.177 -0.4511  0.5898  0.9030
 2561TIP3    H129174   0.812   1.236  11.171 -0.4708  0.5906  1.2301
 2561TIP3    H229175   0.926   1.166  11.242 -0.1630 -1.2517 -1.0228
 2562TIP3   OH229176   6.458   5.204  13.123 -0.0337  0.3307  0.2125
 2562TIP3    H129177   6.443   5.122  13.169  0.5473  0.1423  0.0761
 2562TIP3    H229178   6.373   5.228  13.087 -0.2523 -0.0920  0.4516
 2563TIP3   OH229179   2.418   1.101   2.295 -0.3629 -0.7686  0.4217
 2563TIP3    H129180   2.403   1.020   2.342  2.0522 -2.1615 -1.0869
 2563TIP3    H229181   2.497   1.138   2.336  0.6520 -1.0498 -1.2049
 2564TIP3   OH229182   3.286   6.641  13.407 -0.2096  0.5049  0.2583
 2564TIP3    H129183   3.303   6.676  13.320 -0.0713 -0.9734 -0.3257
 2564TIP3    H229184   3.192   6.653  13.420 -0.1369  1.2295  0.1385
 2565TIP3   OH229185   4.701   3.771   3.932 -0.1007  0.5165  0.0122
 2565TIP3    H129186   4.632   3.705   3.933 -2.6580  3.0307 -2.2872
 2565TIP3    H229187   4.670   3.840   3.991  1.9613  0.2747  1.4336
 2566TIP3   OH229188   4.206   6.751  16.447  0.2369  0.9838 -0.3928
 2566TIP3    H129189   4.249   6.667  16.429 -0.8256  0.6060 -1.2266
 2566TIP3    H229190   4.156   6.735  16.528 -1.9651  0.0298 -1.8950
 2567TIP3   OH229191   2.610   1.008   3.496  0.1698 -0.1219 -0.4613
 2567TIP3    H129192   2.663   0.940   3.455  0.3304  0.0696 -0.5685
 2567TIP3    H229193   2.534   0.961   3.531 -0.0051 -0.2753 -1.0381
 2568TIP3   OH229194   6.192   4.712   5.802  0.6893  0.0044  0.1248
 2568TIP3    H129195   6.203   4.700   5.896 -2.4437  1.4957  0.7593
 2568TIP3    H229196   6.206   4.625   5.765 -1.3170 -1.3279  2.3604
 2569TIP3   OH229197   1.792   3.865   0.966 -0.4201  0.8053  0.3968
 2569TIP3    H129198   1.755   3.791   0.919 -1.3762  0.2991  1.8917
 2569TIP3    H229199   1.884   3.843   0.979 -0.5221  0.2488  0.1593
 2570TIP3   OH229200   0.324   6.204   4.446 -0.1687 -0.4563  0.4698
 2570TIP3    H129201   0.242   6.232   4.406  1.2076  3.3989  0.2181
 2570TIP3    H229202   0.387   6.202   4.374  0.7590 -0.0937  1.2553
 2571TIP3   OH229203   4.260   6.296  12.751 -0.1643 -0.0273  0.0604
 2571TIP3    H129204   4.327   6.316  12.686 -0.0820  0.2225  0.2183
 2571TIP3    H229205   4.251   6.201  12.748  0.2705 -0.0700  0.1150
 2572TIP3   OH229206   3.792   2.454   1.652  0.1852  0.2090 -0.0763
 2572TIP3    H129207   3.837   2.399   1.716 -0.2319 -1.0571 -0.8483
 2572TIP3    H229208   3.804   2.408   1.568 -0.3233  1.1956 -0.6956
 2573TIP3   OH229209   1.606   4.390   1.543  0.1472 -0.4104  0.4029
 2573TIP3    H129210   1.611   4.436   1.627 -0.8982 -0.2905  0.4118
 2573TIP3    H229211   1.515   4.360   1.538  0.8796 -2.8353  0.5769
 2574TIP3   OH229212   1.725   5.247   2.734 -0.2052 -0.2387 -0.3050
 2574TIP3    H129213   1.634   5.259   2.763 -0.6264  0.4690 -1.9159
 2574TIP3    H229214   1.723   5.259   2.640  1.4809 -0.7983 -0.4352
 2575TIP3   OH229215   1.535   0.264   3.932 -0.6181 -0.0445 -0.0665
 2575TIP3    H129216   1.542   0.216   4.014 -0.1245 -1.4085 -0.9062
 2575TIP3    H229217   1.623   0.264   3.895 -0.2461  2.8559  0.6634
 2576TIP3   OH229218   5.863   1.741   1.890 -0.3284 -0.4988 -0.3718
 2576TIP3    H129219   5.891   1.654   1.917 -0.5876  0.2878  2.6110
 2576TIP3    H229220   5.778   1.753   1.933 -0.9017  0.7131 -1.8118
 2577TIP3   OH229221   5.280   1.355  15.991 -0.3868  0.1926 -0.0978
 2577TIP3    H129222   5.208   1.298  16.017  0.6299 -0.1628  2.0968
 2577TIP3    H229223   5.339   1.355  16.067  1.1982  1.6302 -1.2839
 2578TIP3   OH229224   1.010   2.772  14.015 -0.1269  0.0288  0.1136
 2578TIP3    H129225   1.034   2.687  14.050 -0.3182 -1.0159 -2.1915
 2578TIP3    H229226   1.085   2.797  13.960  0.0020  1.4400  0.9030
 2579TIP3   OH229227   3.581   5.728  12.318  0.9281  0.2574 -0.1764
 2579TIP3    H129228   3.653   5.683  12.274  0.6851  0.0884 -0.3996
 2579TIP3    H229229   3.536   5.774  12.248  0.0002 -0.7368 -0.2316
 2580TIP3   OH229230   3.881   4.904   3.043  0.3236  0.0576  0.5131
 2580TIP3    H129231   3.866   4.906   2.949  2.2091 -2.0296  0.1443
 2580TIP3    H229232   3.902   4.813   3.063 -2.0422  0.0486  3.3035
 2581TIP3   OH229233   4.802   5.286   3.082 -0.4210 -0.1588 -0.2730
 2581TIP3    H129234   4.833   5.349   3.017 -0.0510 -0.3663 -0.2989
 2581TIP3    H229235   4.867   5.289   3.152  0.2396 -1.3681 -0.8121
 2582TIP3   OH229236   6.182   3.895  15.987 -0.0729 -0.0101 -0.3904
 2582TIP3    H129237   6.108   3.919  15.931  0.3521  2.9531  0.2605
 2582TIP3    H229238   6.253   3.874  15.925 -0.3079  0.9229 -0.9915
 2583TIP3   OH229239   6.307   5.892   2.610 -0.7564 -0.1376 -0.2415
 2583TIP3    H129240   6.275   5.896   2.700 -1.2064 -0.9489 -0.3564
 2583TIP3    H229241   6.357   5.973   2.598  2.4122 -1.6492  1.9562
 2584TIP3   OH229242   6.031   0.934  15.521 -0.4758  0.1871  0.3388
 2584TIP3    H129243   6.112   0.919  15.473 -0.9834 -0.7258 -0.2303
 2584TIP3    H229244   5.967   0.877  15.479 -0.8536 -0.8640  2.2857
 2585TIP3   OH229245   0.715   4.597  16.823  0.3401  0.6188 -0.0458
 2585TIP3    H129246   0.804   4.598  16.787 -0.2483  0.7763 -1.5309
 2585TIP3    H229247   0.700   4.507  16.849  0.7013  0.4586 -0.3912
 2586TIP3   OH229248   0.176   4.541  11.825 -0.4062 -0.6869 -0.1266
 2586TIP3    H129249   0.150   4.547  11.917  0.6807 -2.6162  0.3223
 2586TIP3    H229250   0.264   4.504  11.827 -0.4452 -0.9184 -1.9603
 2587TIP3   OH229251   4.272   2.245   3.032 -0.2589  0.2340 -0.4660
 2587TIP3    H129252   4.286   2.291   2.949 -0.4086 -1.2574 -1.3455
 2587TIP3    H229253   4.267   2.314   3.097 -0.5837  1.4690 -1.7680
 2588TIP3   OH229254   5.077   6.243   2.398  0.7285  1.1080 -0.3038
 2588TIP3    H129255   5.115   6.277   2.478  1.4793 -0.7705  0.1715
 2588TIP3    H229256   5.052   6.320   2.347  1.9447  2.3170  0.9286
 2589TIP3   OH229257   2.086   5.873  16.545 -0.3589 -0.1380 -0.3595
 2589TIP3    H129258   2.093   5.813  16.471 -1.5040 -1.0790  0.2830
 2589TIP3    H229259   2.156   5.845  16.605 -0.7122 -0.6624 -0.1856
 2590TIP3   OH229260   2.878   6.785   0.706  0.2247 -0.0329  0.7024
 2590TIP3    H129261   2.911   6.867   0.670  0.0726 -0.7491 -1.1406
 2590TIP3    H229262   2.957   6.738   0.735  0.5042 -0.1352 -0.2125
 2591TIP3   OH229263   3.981   1.209  17.215 -0.5212  0.1569  0.2874
 2591TIP3    H129264   4.017   1.138  17.161  0.0296  0.3987  0.3332
 2591TIP3    H229265   3.902   1.236  17.169 -1.0991 -0.9285  0.6124
 2592TIP3   OH229266   6.399   3.335  15.193 -0.2045 -0.0549  0.0904
 2592TIP3    H129267   6.314   3.373  15.169 -0.4660 -0.8006 -0.1864
 2592TIP3    H229268   6.441   3.316  15.109 -0.6866 -1.7188  0.2213
 2593TIP3   OH229269   5.826   0.546  11.835  0.2625  0.3169 -0.3303
 2593TIP3    H129270   5.788   0.520  11.920  1.1978 -1.1765 -0.3594
 2593TIP3    H229271   5.778   0.626  11.811 -2.4295 -1.1680 -0.0654
 2594TIP3   OH229272   1.360   2.861   0.109 -0.3732 -0.2027 -0.4121
 2594TIP3    H129273   1.433   2.873   0.049 -0.5265 -0.9680 -0.7628
 2594TIP3    H229274   1.282   2.878   0.056 -0.5015 -0.6755 -0.3757
 2595TIP3   OH229275   4.916   6.328   0.596 -0.3070  0.1493  0.4764
 2595TIP3    H129276   4.906   6.247   0.646 -0.5165 -0.4674 -0.5379
 2595TIP3    H229277   4.873   6.310   0.512 -0.2200  1.2570  0.1770
 2596TIP3   OH229278   2.796   2.266  15.972  0.1260 -0.1818  0.2026
 2596TIP3    H129279   2.737   2.223  16.034 -1.4185  0.1655 -1.0150
 2596TIP3    H229280   2.879   2.221  15.984 -0.7334 -1.6141  0.9411
 2597TIP3   OH229281   2.104   0.171   3.820 -0.0945  0.0624  0.5461
 2597TIP3    H129282   2.027   0.128   3.783  0.4646 -0.7153  0.2753
 2597TIP3    H229283   2.090   0.168   3.914 -1.0307  1.1266  0.4483
 2598TIP3   OH229284   4.139   1.182  16.598  0.5347 -0.2177  0.4013
 2598TIP3    H129285   4.087   1.159  16.521  1.2630 -2.9229  0.6616
 2598TIP3    H229286   4.085   1.157  16.673  1.0474 -0.4258  0.7093
 2599TIP3   OH229287   1.216   2.349   1.963 -0.1815 -0.0245 -0.4577
 2599TIP3    H129288   1.304   2.386   1.958 -0.6999  1.0325 -2.1902
 2599TIP3    H229289   1.230   2.254   1.972  1.1253 -0.1216 -3.1830
 2600TIP3   OH229290   6.251   3.994  12.753 -0.2060  0.3663 -0.3820
 2600TIP3    H129291   6.273   3.903  12.734 -1.0602 -0.1731  1.0438
 2600TIP3    H229292   6.310   4.046  12.699 -0.1640 -1.0372 -1.7155
 2601TIP3   OH229293   4.373   5.644  13.578  0.1145 -0.4921  0.3270
 2601TIP3    H129294   4.322   5.638  13.498  0.9992 -2.7776 -0.1030
 2601TIP3    H229295   4.311   5.623  13.648 -0.1327 -0.7336  0.0379
 2602TIP3   OH229296   2.660   3.710  11.355 -0.1396 -0.3055  0.1197
 2602TIP3    H129297   2.650   3.653  11.278 -1.1230 -0.4739  0.3615
 2602TIP3    H229298   2.674   3.649  11.428  0.1508 -0.1765  0.1698
 2603TIP3   OH229299   4.787   6.599  13.830  0.5327 -0.1447  0.1188
 2603TIP3    H129300   4.794   6.510  13.865  0.7901 -1.1156 -2.3486
 2603TIP3    H229301   4.875   6.636  13.842  0.2529  0.0488  1.7575
 2604TIP3   OH229302   5.915   3.384  14.375  0.4496 -0.5768  0.0796
 2604TIP3    H129303   5.851   3.316  14.393 -0.1312  0.0629  0.4594
 2604TIP3    H229304   5.933   3.424  14.460 -1.1624  1.4533 -0.4868
 2605TIP3   OH229305   0.327   2.572  14.611  0.3445 -0.7444 -0.0306
 2605TIP3    H129306   0.333   2.664  14.635  1.2453 -1.0325  0.9410
 2605TIP3    H229307   0.234   2.552  14.612 -0.0495  0.8295 -2.9485
 2606TIP3   OH229308   1.525   2.237  13.495 -0.0072  0.1866  0.4220
 2606TIP3    H129309   1.566   2.192  13.568  1.4654 -0.5023 -0.8100
 2606TIP3    H229310   1.584   2.310  13.475  0.7459 -0.8949 -1.4491
 2607TIP3   OH229311   4.280   6.565  15.290  0.5471  0.5141 -0.4184
 2607TIP3    H129312   4.322   6.651  15.295  0.7926  0.3726  0.1124
 2607TIP3    H229313   4.258   6.545  15.381  1.6216 -0.5293 -0.3789
 2608TIP3   OH229314   0.790   2.753  11.460 -0.1555 -0.4548  0.2211
 2608TIP3    H129315   0.780   2.764  11.366 -1.0545 -0.7151  0.2873
 2608TIP3    H229316   0.872   2.705  11.470  0.8906  1.1610 -0.3421
 2609TIP3   OH229317   4.424   0.915  14.591 -0.0932  0.3627 -0.3241
 2609TIP3    H129318   4.489   0.945  14.528 -0.3074 -1.0857 -1.2774
 2609TIP3    H229319   4.363   0.988  14.600  0.6123  1.0259 -0.8748
 2610TIP3   OH229320   3.530   5.643  13.966 -0.0109 -0.3161  0.2249
 2610TIP3    H129321   3.456   5.606  13.920 -1.7659  1.8036  1.2573
 2610TIP3    H229322   3.510   5.630  14.059  0.5272  0.9357  0.5346
 2611TIP3   OH229323   3.059   6.259   0.713  0.3863 -0.4828 -0.3420
 2611TIP3    H129324   3.045   6.174   0.671 -0.4703  0.1115 -1.3002
 2611TIP3    H229325   3.154   6.265   0.724  0.5196 -1.2050 -1.0145
 2612TIP3   OH229326   1.707   3.137  15.266  0.5528  0.1689  0.0274
 2612TIP3    H129327   1.742   3.051  15.242  1.9064  0.5211  0.6797
 2612TIP3    H229328   1.785   3.190  15.285 -0.3334  1.0948  1.1261
 2613TIP3   OH229329   0.728   0.894   5.987 -0.4731  0.5580  0.1827
 2613TIP3    H129330   0.761   0.836   6.056 -2.2179 -1.2724 -0.5058
 2613TIP3    H229331   0.784   0.972   5.994  2.3520 -1.4295  0.6911
 2614TIP3   OH229332   1.039   4.194  16.427  0.5592  0.3231  0.1264
 2614TIP3    H129333   1.076   4.281  16.409 -0.5297  0.6857 -0.3865
 2614TIP3    H229334   1.107   4.133  16.397  0.9722  0.9941 -0.3220
 2615TIP3   OH229335   5.703   1.091   2.011  0.1693 -0.4492  0.2434
 2615TIP3    H129336   5.793   1.121   1.996 -0.1368  1.2538  1.6296
 2615TIP3    H229337   5.660   1.165   2.054 -1.1144 -2.2706  2.1689
 2616TIP3   OH229338   1.510   2.602   0.693  0.0804  0.0592  0.0820
 2616TIP3    H129339   1.514   2.561   0.607 -0.6084  1.2177 -0.5033
 2616TIP3    H229340   1.417   2.619   0.708  0.0896 -1.0011  1.4698
 2617TIP3   OH229341   3.594   4.392   3.341 -0.0495  0.1272  0.5524
 2617TIP3    H129342   3.617   4.483   3.359  0.8971  0.2588 -1.2299
 2617TIP3    H229343   3.667   4.359   3.288 -2.0146 -0.6555 -1.7526
 2618TIP3   OH229344   3.501   5.705  11.925 -0.0900 -0.0115 -0.7458
 2618TIP3    H129345   3.460   5.755  11.996  1.3049 -0.2699  0.2736
 2618TIP3    H229346   3.594   5.729  11.929 -0.3025  1.5530 -3.8307
 2619TIP3   OH229347   0.789   5.894  13.717 -0.2414 -0.1089 -0.0518
 2619TIP3    H129348   0.715   5.948  13.690  0.2557  0.4632 -0.2745
 2619TIP3    H229349   0.803   5.916  13.810 -0.8876 -0.8454  0.2263
 2620TIP3   OH229350   2.034   6.415  11.949  0.1605 -0.1973  0.6816
 2620TIP3    H129351   2.011   6.335  11.996  0.1348 -0.8367 -0.4051
 2620TIP3    H229352   1.996   6.486  12.001  0.4375 -0.8716  1.8049
 2621TIP3   OH229353   1.834   1.834  10.852 -0.6521  0.6269  0.2220
 2621TIP3    H129354   1.796   1.856  10.768 -0.1962  0.1875 -0.1070
 2621TIP3    H229355   1.891   1.908  10.873  1.1854 -0.3820 -1.0670
 2622TIP3   OH229356   4.806   6.490  14.167  0.5439  0.6150 -1.0594
 2622TIP3    H129357   4.737   6.462  14.107 -1.0923 -0.5612  1.2684
 2622TIP3    H229358   4.874   6.424  14.158 -0.1462 -0.1261 -0.8718
 2623TIP3   OH229359   2.859   1.461   3.679  0.1156  0.3905  0.0804
 2623TIP3    H129360   2.897   1.467   3.591 -1.5495  0.8226 -0.6240
 2623TIP3    H229361   2.781   1.517   3.675 -1.0666 -1.1364  1.2447
 2624TIP3   OH229362   4.730   2.221  14.301 -0.4213 -0.3758  0.0308
 2624TIP3    H129363   4.740   2.307  14.341  0.6354 -0.9110  0.9694
 2624TIP3    H229364   4.650   2.227  14.249 -0.5739  1.0386  0.4160
 2625TIP3   OH229365   1.035   5.402  11.983 -0.2615  0.2694 -0.7619
 2625TIP3    H129366   0.952   5.371  12.019 -0.6318  0.1764 -1.6843
 2625TIP3    H229367   1.011   5.452  11.906  0.6224 -0.8956 -1.8120
 2626TIP3   OH229368   6.358   3.015   2.647  0.6251 -0.0736  0.2113
 2626TIP3    H129369   6.424   3.085   2.651  1.4216 -0.9187  2.1525
 2626TIP3    H229370   6.279   3.056   2.683  0.7513  0.1939  0.1912
 2627TIP3   OH229371   5.414   2.414   2.759  0.0500  0.2217 -0.0214
 2627TIP3    H129372   5.415   2.505   2.728  1.1834  0.2106 -0.0392
 2627TIP3    H229373   5.493   2.375   2.722  1.0355 -0.0088  2.2335
 2628TIP3   OH229374   6.077   4.063  14.412 -0.4708  0.1891 -0.5102
 2628TIP3    H129375   6.065   4.127  14.483 -0.6354 -0.2185 -0.1647
 2628TIP3    H229376   6.093   3.981  14.458 -0.2758 -0.0175 -0.9549
 2629TIP3   OH229377   1.643   0.006   6.496  0.7108 -0.2548 -0.6513
 2629TIP3    H129378   1.574  -0.053   6.525  1.2774 -1.0832 -0.9566
 2629TIP3    H229379   1.638   0.081   6.555 -0.3839 -0.3554 -0.6181
 2630TIP3   OH229380   0.712   6.729  13.205  0.0609 -0.0665 -0.0232
 2630TIP3    H129381   0.618   6.749  13.207  0.3849  1.4015  1.4606
 2630TIP3    H229382   0.753   6.803  13.249  1.8082 -1.4374  0.7014
 2631TIP3   OH229383   4.382   0.404   4.313  0.1474  0.1423  0.1340
 2631TIP3    H129384   4.410   0.479   4.261 -0.2520 -0.7325 -1.3725
 2631TIP3    H229385   4.443   0.334   4.289 -0.4429 -0.4439  0.3419
 2632TIP3   OH229386   4.906   1.945   0.898  0.2628  0.1818 -0.3015
 2632TIP3    H129387   4.886   1.964   0.806 -0.2263 -1.0982 -0.4673
 2632TIP3    H229388   4.916   2.031   0.938  0.4118  0.7571 -1.5363
 2633TIP3   OH229389   4.545   2.382  13.044  0.2734  0.0384 -0.1635
 2633TIP3    H129390   4.505   2.382  12.957 -0.9405  2.1385  0.3619
 2633TIP3    H229391   4.638   2.398  13.027  0.3106 -1.1124 -1.1529
 2634TIP3   OH229392   5.590   2.056   5.193  0.0752 -0.5273  0.3369
 2634TIP3    H129393   5.637   2.110   5.256 -0.5444  0.8587 -0.3519
 2634TIP3    H229394   5.635   2.071   5.110 -0.0721 -1.1230  0.1452
 2635TIP3   OH229395   1.189   4.155   5.630 -0.4625  0.0184  0.0410
 2635TIP3    H129396   1.129   4.097   5.585 -0.3113  2.8708 -4.0519
 2635TIP3    H229397   1.136   4.231   5.655  0.4738  0.5547  0.4467
 2636TIP3   OH229398   1.145   1.515   3.789 -0.6313 -0.6742  0.0857
 2636TIP3    H129399   1.098   1.598   3.790  0.6073  0.0362  0.7911
 2636TIP3    H229400   1.151   1.492   3.697 -3.8449 -1.6538  0.0576
 2637TIP3   OH229401   3.883   5.354  15.841  0.4684  0.0068 -0.2277
 2637TIP3    H129402   3.841   5.440  15.838 -0.8904 -0.6488 -0.2865
 2637TIP3    H229403   3.897   5.331  15.750 -0.3364 -0.3943 -0.2523
 2638TIP3   OH229404   4.369   0.080  13.921  0.1666 -0.2074  0.0244
 2638TIP3    H129405   4.357   0.042  14.008 -1.1479  0.5266  0.1672
 2638TIP3    H229406   4.330   0.016  13.862 -0.4693  0.0831  0.1213
 2639TIP3   OH229407   4.566   2.381   1.719  0.4904 -0.4886 -0.2807
 2639TIP3    H129408   4.634   2.417   1.776  0.5836  0.7265 -1.1484
 2639TIP3    H229409   4.579   2.425   1.635 -1.0921 -0.5673 -0.5852
 2640TIP3   OH229410   0.514   1.652  14.463  0.7564  0.4760 -0.1388
 2640TIP3    H129411   0.472   1.566  14.470  0.5344  0.5653 -0.3682
 2640TIP3    H229412   0.495   1.681  14.374  0.9218  0.7172 -0.0967
 2641TIP3   OH229413   6.183   1.564  15.207  0.7481 -0.0627  0.5688
 2641TIP3    H129414   6.220   1.530  15.126 -0.8665 -1.6670  0.4686
 2641TIP3    H229415   6.181   1.489  15.266 -1.8741  0.0673  0.7156
 2642TIP3   OH229416   3.067   5.151   3.020  0.3962 -0.5435 -0.2102
 2642TIP3    H129417   3.039   5.239   3.046  0.3927 -0.7241  0.4028
 2642TIP3    H229418   3.159   5.146   3.045  0.7743 -0.2309 -1.5080
 2643TIP3   OH229419   3.313   4.013   1.134  0.0304  0.0298  0.7060
 2643TIP3    H129420   3.315   4.107   1.119 -1.8287 -0.3044 -1.9804
 2643TIP3    H229421   3.221   3.988   1.121  0.5974 -2.2157  0.7397
 2644TIP3   OH229422   5.165   1.444  14.940  0.1260 -0.0637  0.2563
 2644TIP3    H129423   5.140   1.457  15.031 -0.3288  0.5429  0.0527
 2644TIP3    H229424   5.182   1.350  14.932  0.2715 -0.0961  0.9898
 2645TIP3   OH229425   3.385   2.861   3.040 -0.0214 -0.2198  0.2038
 2645TIP3    H129426   3.316   2.862   2.974  0.1560  0.0713  0.0220
 2645TIP3    H229427   3.430   2.777   3.026 -1.1092 -0.9679  1.1285
 2646TIP3   OH229428   0.284   3.677   1.553  0.4977 -0.7205 -0.3491
 2646TIP3    H129429   0.311   3.661   1.643  0.5347 -2.1539 -0.6009
 2646TIP3    H229430   0.190   3.693   1.558  0.7171  0.5224  0.0818
 2647TIP3   OH229431   2.128   5.711  13.907  0.1169 -0.1906 -0.4975
 2647TIP3    H129432   2.139   5.806  13.898  1.6517 -0.3767 -0.6953
 2647TIP3    H229433   2.066   5.701  13.979  1.3101  0.9202  0.7059
 2648TIP3   OH229434   5.656   3.373  11.638  0.2565  0.8471  0.5841
 2648TIP3    H129435   5.696   3.293  11.604 -1.6834  0.7032 -1.5450
 2648TIP3    H229436   5.625   3.350  11.726  1.5843 -0.1074  0.8095
 2649TIP3   OH229437   6.098   2.854  12.273  0.3243 -0.7014 -0.4432
 2649TIP3    H129438   6.128   2.859  12.364  1.4536  0.3511 -0.8690
 2649TIP3    H229439   6.062   2.941  12.255 -0.3380 -1.0560 -0.8612
 2650TIP3   OH229440   3.646   1.537  16.607 -0.0884 -0.4707 -0.1590
 2650TIP3    H129441   3.607   1.519  16.521  1.8865 -0.7591 -1.0291
 2650TIP3    H229442   3.644   1.633  16.614 -0.2350 -0.4421 -0.5352
 2651TIP3   OH229443   3.542   5.241   1.174  0.8184 -0.2066  0.5969
 2651TIP3    H129444   3.629   5.272   1.148  0.3123  0.1183 -0.7487
 2651TIP3    H229445   3.484   5.314   1.156 -0.0707 -1.1950 -0.6884
 2652TIP3   OH229446   0.616   2.081  10.991  0.5716  0.4786 -0.0204
 2652TIP3    H129447   0.608   2.123  10.905  0.3743 -0.4290 -0.4555
 2652TIP3    H229448   0.709   2.089  11.013  0.9177 -0.6215 -1.0220
 2653TIP3   OH229449   2.455   3.548  12.572  0.2015  0.1912  0.4164
 2653TIP3    H129450   2.478   3.638  12.593 -0.6889  0.2765  1.0666
 2653TIP3    H229451   2.390   3.556  12.501  1.7953 -0.0290 -1.1145
 2654TIP3   OH229452   5.491   6.187  12.815 -0.1765  0.3103 -0.2831
 2654TIP3    H129453   5.573   6.211  12.771  0.5467 -0.2492  0.7613
 2654TIP3    H229454   5.431   6.166  12.743  0.5188  0.9340 -1.0605
 2655TIP3   OH229455   3.704   3.549   5.698 -0.2482 -0.5119 -0.4053
 2655TIP3    H129456   3.746   3.634   5.684 -1.5361  0.0112 -1.1726
 2655TIP3    H229457   3.773   3.485   5.680  1.0034  0.3662  1.0890
 2656TIP3   OH229458   6.395   3.102   5.610  0.4986 -0.0681  0.8792
 2656TIP3    H129459   6.453   3.028   5.631 -0.9792 -1.4595  0.1461
 2656TIP3    H229460   6.315   3.061   5.576 -0.7083  1.8483  1.3533
 2657TIP3   OH229461   6.334   5.600   0.465 -0.0087 -0.3499 -0.8770
 2657TIP3    H129462   6.241   5.625   0.460 -0.1983 -0.8193  0.1444
 2657TIP3    H229463   6.367   5.648   0.541  0.5578 -0.2875 -1.1655
 2658TIP3   OH229464   4.505   0.592  11.751 -0.3018  0.1325 -0.2961
 2658TIP3    H129465   4.473   0.576  11.663  1.8850 -1.3528 -0.8714
 2658TIP3    H229466   4.466   0.521  11.804 -0.7358  0.3795 -0.2834
 2659TIP3   OH229467   3.999   0.486  16.650  0.2872  0.7348 -0.0627
 2659TIP3    H129468   3.914   0.530  16.644  0.3577  0.6986 -1.4476
 2659TIP3    H229469   4.061   0.558  16.661  0.3355  0.9541 -1.6748
 2660TIP3   OH229470   2.394   1.470  15.951  0.1211  0.1868  0.3205
 2660TIP3    H129471   2.412   1.466  16.045 -2.8213  1.3031  0.9652
 2660TIP3    H229472   2.352   1.555  15.938 -1.2038 -0.7425 -1.7122
 2661TIP3   OH229473   4.854   2.863  12.991  0.2673 -0.0608 -0.1199
 2661TIP3    H129474   4.925   2.798  12.990 -0.3762 -0.7743 -0.5601
 2661TIP3    H229475   4.797   2.834  13.063  0.9727  1.1276  0.9414
 2662TIP3   OH229476   0.214   3.910   4.713 -0.1870 -0.5290 -0.2844
 2662TIP3    H129477   0.180   3.870   4.793  1.0981  0.1782  0.6268
 2662TIP3    H229478   0.136   3.945   4.669 -0.8607 -0.5903  0.8440
 2663TIP3   OH229479   1.029   2.153   0.097  0.0582 -0.4570  0.0003
 2663TIP3    H129480   1.097   2.096   0.133  0.7825  1.7432  2.2262
 2663TIP3    H229481   0.949   2.126   0.143 -0.0211 -1.1342 -0.5354
 2664TIP3   OH229482   4.982   3.844   4.779  0.1534 -0.0259 -0.2884
 2664TIP3    H129483   4.947   3.865   4.866 -0.3433 -0.1653 -0.4531
 2664TIP3    H229484   4.906   3.817   4.729  0.5202 -0.4639 -0.6132
 2665TIP3   OH229485   3.364   6.421   3.146 -0.4886  0.1144  0.2255
 2665TIP3    H129486   3.349   6.327   3.157 -1.2925  0.1877 -0.2449
 2665TIP3    H229487   3.456   6.427   3.120 -0.7879 -0.6419 -1.0361
 2666TIP3   OH229488   2.632   4.813  15.257 -0.6954 -0.0414 -0.2376
 2666TIP3    H129489   2.606   4.906  15.258 -0.2426  0.0845 -0.2137
 2666TIP3    H229490   2.629   4.787  15.349 -3.2607 -0.7369 -0.4535
 2667TIP3   OH229491   0.875   6.167  11.199  0.3671 -1.3062 -0.2053
 2667TIP3    H129492   0.862   6.157  11.105  1.7359 -3.3868 -0.2141
 2667TIP3    H229493   0.883   6.077  11.231  2.4217 -0.5330  1.5239
 2668TIP3   OH229494   5.523   4.325  13.691  0.1071  0.6342  0.5413
 2668TIP3    H129495   5.485   4.362  13.611 -0.8944  0.2034  0.8199
 2668TIP3    H229496   5.593   4.387  13.714 -0.0854  1.1613 -0.2470
 2669TIP3   OH229497   2.920   2.989  12.632 -0.1228  0.2085  0.5844
 2669TIP3    H129498   2.912   3.073  12.588  0.5712  0.3699  0.7643
 2669TIP3    H229499   2.950   2.929  12.564  0.0270  0.2531  0.6105
 2670TIP3   OH229500   1.880   6.463  17.194  0.6876 -0.0426  0.1885
 2670TIP3    H129501   1.879   6.385  17.248 -0.7247 -1.3053 -1.6011
 2670TIP3    H229502   1.952   6.449  17.132  0.2563 -0.0710 -0.3151
 2671TIP3   OH229503   2.658   3.734   1.759 -1.0314  0.2454 -0.0230
 2671TIP3    H129504   2.626   3.811   1.712 -0.1083  0.4818 -0.2812
 2671TIP3    H229505   2.746   3.719   1.723 -0.8881 -0.4419  0.5993
 2672TIP3   OH229506   6.610   6.402   3.852  0.6179 -0.0295 -0.1075
 2672TIP3    H129507   6.632   6.376   3.941  1.4203  0.9659 -0.0039
 2672TIP3    H229508   6.695   6.411   3.808  0.2377 -0.2540 -0.8962
 2673TIP3   OH229509   2.888   0.519   5.133 -0.2076 -0.5053 -0.1075
 2673TIP3    H129510   2.807   0.469   5.145 -0.5488 -0.0421 -0.4683
 2673TIP3    H229511   2.952   0.473   5.187 -0.3420 -1.7490 -0.9844
 2674TIP3   OH229512   2.297   2.283  13.038 -0.6520 -0.7374 -0.3784
 2674TIP3    H129513   2.325   2.260  12.950  2.3699 -1.6803  0.7692
 2674TIP3    H229514   2.227   2.221  13.058 -0.1542 -1.6609 -1.4777
 2675TIP3   OH229515   4.495   0.300  12.100 -0.8502 -0.3802 -0.3836
 2675TIP3    H129516   4.453   0.214  12.102 -2.5300  0.4291  1.5884
 2675TIP3    H229517   4.505   0.324  12.193  0.0708  1.3121 -0.8905
 2676TIP3   OH229518   1.159   3.116   0.149  0.1789  0.4290 -1.0321
 2676TIP3    H129519   1.127   3.130   0.238  0.3264  0.1117 -0.9267
 2676TIP3    H229520   1.137   3.025   0.129  0.1081  0.5104 -1.3378
 2677TIP3   OH229521   4.239   5.188  12.910 -0.3270  0.2854 -0.5526
 2677TIP3    H129522   4.185   5.229  12.843 -0.4314  1.9115  0.5050
 2677TIP3    H229523   4.327   5.221  12.895 -0.3666  0.7366  0.1474
 2678TIP3   OH229524   6.044   2.891   6.150  0.2739  0.9494  0.5579
 2678TIP3    H129525   5.973   2.925   6.205  1.0216  0.8384  1.6028
 2678TIP3    H229526   6.002   2.825   6.095 -0.6652  1.7046  0.3461
 2679TIP3   OH229527   0.594   3.966  13.381  0.0915  0.0738 -0.3622
 2679TIP3    H129528   0.616   3.988  13.291  0.6192  0.5652 -0.1182
 2679TIP3    H229529   0.677   3.939  13.420 -0.5718 -2.5636 -0.7040
 2680TIP3   OH229530   5.117   5.073  13.958  0.3697  0.7318 -0.2381
 2680TIP3    H129531   5.130   5.000  13.898  0.0333  0.4261  0.0564
 2680TIP3    H229532   5.194   5.072  14.015 -0.1003 -0.0171  0.4075
 2681TIP3   OH229533   6.059   5.185   6.003  0.3640 -0.1610 -0.8170
 2681TIP3    H129534   6.071   5.279   5.985  1.1752 -0.1689 -0.3348
 2681TIP3    H229535   5.964   5.174   6.009  0.2886  0.8290  0.1150
 2682TIP3   OH229536   2.874   0.265   5.682 -0.8395  0.1482  0.1659
 2682TIP3    H129537   2.862   0.174   5.708 -2.0990  0.6652  1.4742
 2682TIP3    H229538   2.946   0.296   5.736  0.9708 -0.6360 -1.7592
 2683TIP3   OH229539   3.234   0.215   0.189 -0.3804 -0.0918 -0.0903
 2683TIP3    H129540   3.271   0.287   0.139 -0.2381 -0.5849 -0.7008
 2683TIP3    H229541   3.212   0.253   0.274  0.6819  0.4195 -0.0367
 2684TIP3   OH229542   1.286   2.314  13.689 -0.0144  0.1705 -0.2900
 2684TIP3    H129543   1.278   2.232  13.736  1.0416  0.4844  0.4692
 2684TIP3    H229544   1.364   2.303  13.634 -0.5306  0.2485 -1.0463
 2685TIP3   OH229545   2.500   3.981  14.574 -0.2775 -0.1640  0.0289
 2685TIP3    H129546   2.559   3.916  14.612 -2.1364 -2.1479 -0.4219
 2685TIP3    H229547   2.487   3.952  14.484 -0.9411  0.9577 -0.2462
 2686TIP3   OH229548   0.364   3.064  13.722 -0.7825 -0.1695  0.2145
 2686TIP3    H129549   0.301   3.022  13.665  1.3442 -0.7257 -1.8033
 2686TIP3    H229550   0.361   3.157  13.698 -0.2617 -0.3243 -0.4673
 2687TIP3   OH229551   2.302   5.194  12.136 -0.4062  0.0967  0.8787
 2687TIP3    H129552   2.343   5.246  12.205  0.4237  0.6212  0.0084
 2687TIP3    H229553   2.353   5.215  12.058 -1.2804 -0.5609  0.1295
 2688TIP3   OH229554   1.980   4.383   2.564  0.5856 -0.0911 -0.5962
 2688TIP3    H129555   1.989   4.357   2.472  0.2959  0.9123 -0.9089
 2688TIP3    H229556   1.986   4.300   2.612 -2.2885 -0.9903 -1.7133
 2689TIP3   OH229557   1.251   4.371   5.263 -0.0193 -0.4703  0.5110
 2689TIP3    H129558   1.294   4.295   5.303  0.2176  0.0435  1.2577
 2689TIP3    H229559   1.289   4.446   5.309  0.0757  0.1224 -0.5274
 2690TIP3   OH229560   3.450   0.961  15.569 -0.4262  0.1037 -0.0655
 2690TIP3    H129561   3.372   0.910  15.550  0.8805 -1.4526 -1.4871
 2690TIP3    H229562   3.503   0.904  15.625  0.3918  0.4846 -0.4398
 2691TIP3   OH229563   0.022   3.389  17.119  0.6690 -0.1072 -0.0958
 2691TIP3    H129564  -0.072   3.383  17.101  0.9294 -0.8019 -1.2561
 2691TIP3    H229565   0.038   3.483  17.128 -0.3050 -0.0432  1.0594
 2692TIP3   OH229566   4.294   6.547  11.055 -0.3162  0.1151  0.8534
 2692TIP3    H129567   4.252   6.461  11.061  1.3334 -0.7214  0.7405
 2692TIP3    H229568   4.387   6.529  11.065  0.2473  1.6542 -1.2320
 2693TIP3   OH229569   0.420   2.402  11.303 -0.1575  0.1203 -0.4970
 2693TIP3    H129570   0.451   2.490  11.281  0.7657  0.1576  0.8955
 2693TIP3    H229571   0.489   2.343  11.270  0.3432  0.0689  0.6247
 2694TIP3   OH229572   5.830   0.292  14.571  0.0876  0.2359 -0.2525
 2694TIP3    H129573   5.756   0.253  14.618 -0.6324  1.7013 -0.1082
 2694TIP3    H229574   5.789   0.341  14.499  1.1494 -1.5974 -2.1681
 2695TIP3   OH229575   4.625   0.196   1.087 -0.1662  0.1266  0.0451
 2695TIP3    H129576   4.638   0.227   1.177 -1.5453 -1.0445  0.6855
 2695TIP3    H229577   4.530   0.202   1.074  0.0354  0.3438 -1.3574
 2696TIP3   OH229578   0.410   0.596   2.173 -0.4357  0.1456 -0.2937
 2696TIP3    H129579   0.380   0.511   2.140 -0.0491 -0.3519  0.6302
 2696TIP3    H229580   0.487   0.575   2.227  0.2896  1.1889 -0.9058
 2697TIP3   OH229581   5.950   5.150   4.145  1.4920  0.1151 -0.2535
 2697TIP3    H129582   6.022   5.105   4.189  1.5847  1.3004  0.8303
 2697TIP3    H229583   5.872   5.098   4.166  2.0358 -1.3032 -1.6232
 2698TIP3   OH229584   4.139   6.530   4.342 -0.6541  0.0080 -0.3730
 2698TIP3    H129585   4.142   6.500   4.252 -0.1933  0.3526 -0.4744
 2698TIP3    H229586   4.046   6.531   4.364 -1.0292  2.8153 -1.8255
 2699TIP3   OH229587   2.214   0.937  12.254 -0.6856  0.6358  0.1732
 2699TIP3    H129588   2.228   0.882  12.332  0.0981 -1.0282 -1.0976
 2699TIP3    H229589   2.120   0.935  12.240 -0.7795  0.5283  0.7784
 2700TIP3   OH229590   2.721   2.033  15.812  0.1502  0.1966 -0.4544
 2700TIP3    H129591   2.744   2.120  15.846 -0.3394 -0.9864  3.1667
 2700TIP3    H229592   2.628   2.040  15.792 -0.3277  0.0416  1.5744
 2701TIP3   OH229593   1.729   3.084  14.941  0.7291  0.5214 -0.7634
 2701TIP3    H129594   1.686   2.999  14.942 -1.0863  1.4263 -0.4016
 2701TIP3    H229595   1.816   3.067  14.903  0.1855 -1.3765 -1.1842
 2702TIP3   OH229596   4.727   5.431  13.134 -0.8860 -0.1517  0.7288
 2702TIP3    H129597   4.723   5.511  13.082  0.9709  1.2794  2.7058
 2702TIP3    H229598   4.795   5.378  13.092 -1.0487 -0.0302  0.3114
 2703TIP3   OH229599   5.107   3.869   5.930 -0.5662 -0.8473 -0.0228
 2703TIP3    H129600   5.077   3.779   5.921  0.0062 -1.0730  0.3329
 2703TIP3    H229601   5.067   3.915   5.856  0.0708 -1.6316 -0.8670
 2704TIP3   OH229602   0.965   0.519  12.938  0.4087 -0.4384 -0.3071
 2704TIP3    H129603   1.011   0.468  13.005  1.8369  0.7332 -0.3693
 2704TIP3    H229604   0.895   0.563  12.986  0.4309 -0.8541  0.1208
 2705TIP3   OH229605   1.082   4.423   2.150  0.2002  0.0695  0.4183
 2705TIP3    H129606   1.110   4.451   2.237 -0.7663 -0.7255  0.9981
 2705TIP3    H229607   1.164   4.408   2.103  0.7326  1.0430  1.0032
 2706TIP3   OH229608   1.491   3.444  12.955 -0.7347  0.2079 -0.0627
 2706TIP3    H129609   1.489   3.358  12.913 -1.4681  1.1649 -2.0250
 2706TIP3    H229610   1.400   3.459  12.984 -0.9618  0.9951 -1.1470
 2707TIP3   OH229611   6.108   6.246   1.431 -0.1201  0.3892 -0.2596
 2707TIP3    H129612   6.115   6.152   1.450  1.4709  0.5037 -0.1753
 2707TIP3    H229613   6.143   6.256   1.343  1.4446  1.1258  0.4169
 2708TIP3   OH229614   1.629   4.596  16.633 -0.4419  0.1216 -0.3562
 2708TIP3    H129615   1.533   4.589  16.633 -0.4102 -0.4164 -0.1485
 2708TIP3    H229616   1.657   4.521  16.685  0.0776  0.4921 -0.1014
 2709TIP3   OH229617   3.903   4.072  16.003  0.0050  0.2677 -0.6955
 2709TIP3    H129618   3.971   4.013  16.035  0.5161  1.0349 -0.3476
 2709TIP3    H229619   3.936   4.160  16.023 -1.0808  0.6510 -0.5204
 2710TIP3   OH229620   6.349   2.637   1.584  0.0605  0.2148 -0.2565
 2710TIP3    H129621   6.393   2.663   1.504 -2.3075  1.4490 -1.2088
 2710TIP3    H229622   6.398   2.561   1.616  1.5666  0.2791 -2.3767
 2711TIP3   OH229623   3.666   6.127   3.151  0.0261  0.1127  0.2711
 2711TIP3    H129624   3.638   6.139   3.060  1.3993  0.0577 -0.1759
 2711TIP3    H229625   3.757   6.157   3.152  0.9851 -2.6779  0.9477
 2712TIP3   OH229626   6.654   4.561   2.649  0.3500 -0.4909 -0.4846
 2712TIP3    H129627   6.572   4.512   2.651 -0.2664  0.4961 -0.9605
 2712TIP3    H229628   6.680   4.559   2.557  1.2842 -1.4950 -0.1965
 2713TIP3   OH229629   5.814   0.358  16.237  0.5966  0.1240 -0.2645
 2713TIP3    H129630   5.889   0.393  16.285  0.8120 -0.1695 -0.3833
 2713TIP3    H229631   5.831   0.382  16.145  0.0594  0.9075 -0.1679
 2714TIP3   OH229632   1.271   1.363   0.361  0.0234  0.0333 -0.1678
 2714TIP3    H129633   1.223   1.446   0.366 -0.0279 -0.0687  1.2092
 2714TIP3    H229634   1.345   1.383   0.304  0.7043  1.3929  1.1389
 2715TIP3   OH229635   5.620   5.489   4.529  0.0069  0.4600  0.1851
 2715TIP3    H129636   5.617   5.582   4.507  1.6708  0.0169 -2.0415
 2715TIP3    H229637   5.692   5.482   4.592  0.3020  0.5750 -0.1405
 2716TIP3   OH229638   1.054   1.939  14.961  0.8597  0.0018 -0.4822
 2716TIP3    H129639   1.085   2.026  14.986 -2.8018  1.4430 -0.6603
 2716TIP3    H229640   1.072   1.933  14.868 -0.5097  1.3590 -0.8634
 2717TIP3   OH229641   3.061   4.970   5.526 -0.1928  0.1801 -0.3328
 2717TIP3    H129642   3.039   5.035   5.592 -0.5215  1.1235 -1.3637
 2717TIP3    H229643   3.155   4.958   5.534 -0.1622  0.6326 -0.0077
 2718TIP3   OH229644   0.094   1.874  16.791 -0.1225 -0.1310 -0.2953
 2718TIP3    H129645   0.031   1.945  16.776  0.0850  0.1314  0.0561
 2718TIP3    H229646   0.176   1.919  16.812  0.0030 -0.4760 -0.0404
 2719TIP3   OH229647   0.092   1.507  15.905  0.0902 -0.0069 -0.7526
 2719TIP3    H129648   0.144   1.427  15.893 -0.4618 -0.3022 -1.2502
 2719TIP3    H229649   0.091   1.521  15.999 -0.4799 -1.0481 -0.5923
 2720TIP3   OH229650   0.594   2.441   3.154 -0.0583 -0.3623  0.6061
 2720TIP3    H129651   0.572   2.390   3.076 -0.2126 -0.2001  0.5428
 2720TIP3    H229652   0.620   2.375   3.219 -1.3293 -0.6105  0.8784
 2721TIP3   OH229653   1.107   1.150   5.581 -0.2606  0.1859  0.3657
 2721TIP3    H129654   1.087   1.199   5.501 -0.8844 -1.3526 -0.4449
 2721TIP3    H229655   1.054   1.191   5.648  1.0270  2.1423  0.2098
 2722TIP3   OH229656   5.575   1.518  15.177  0.2907  0.3279 -0.5908
 2722TIP3    H129657   5.636   1.592  15.175  0.8015 -0.0726 -0.0887
 2722TIP3    H229658   5.489   1.558  15.166  0.5959  0.9547 -0.7472
 2723TIP3   OH229659   4.433   2.821  15.186  0.4159 -0.2583  0.1578
 2723TIP3    H129660   4.475   2.877  15.251 -0.2924 -0.0983  0.4811
 2723TIP3    H229661   4.472   2.734  15.200  1.1191  0.0285  0.0136
 2724TIP3   OH229662   4.406   5.164   2.835 -0.3384 -0.4660  0.1107
 2724TIP3    H129663   4.388   5.075   2.803  0.9048 -0.6703 -0.0674
 2724TIP3    H229664   4.388   5.220   2.760  0.5809 -0.7474 -0.3296
 2725TIP3   OH229665   0.353   0.746   3.381  0.5806  0.7859  0.2468
 2725TIP3    H129666   0.386   0.812   3.320 -2.2342  1.9855 -0.0506
 2725TIP3    H229667   0.264   0.728   3.352  0.2481 -0.8933  2.1739
 2726TIP3   OH229668   5.513   6.013  12.582  0.3505  0.3845 -0.2230
 2726TIP3    H129669   5.491   6.004  12.490  1.1012  0.5757 -0.4301
 2726TIP3    H229670   5.547   5.926  12.607  1.3207  0.6828 -0.4644
 2727TIP3   OH229671   3.128   6.764   1.990  0.4927 -0.1448 -0.1312
 2727TIP3    H129672   3.174   6.774   2.074  1.6402 -0.7588 -0.6875
 2727TIP3    H229673   3.044   6.724   2.014  0.9621 -0.6558  0.6804
 2728TIP3   OH229674   5.679   3.669   5.318  0.3413  0.2877  0.1328
 2728TIP3    H129675   5.759   3.704   5.356  0.6927  0.1443 -0.4671
 2728TIP3    H229676   5.660   3.726   5.244  0.1710  0.0223 -0.0313
 2729TIP3   OH229677   2.068   3.178  12.253 -0.1996  0.4815 -0.2739
 2729TIP3    H129678   2.106   3.221  12.330  0.2332 -0.4966  0.0605
 2729TIP3    H229679   2.021   3.248  12.208  0.1265  1.2152  0.5077
 2730TIP3   OH229680   1.700   0.770   5.672  0.2297  0.9958 -0.0958
 2730TIP3    H129681   1.657   0.686   5.657 -0.9473  1.4164  0.9010
 2730TIP3    H229682   1.741   0.791   5.588  0.8904 -0.7683 -0.2403
 2731TIP3   OH229683   2.893   0.469   3.488 -0.6095 -0.0542  0.6794
 2731TIP3    H129684   2.875   0.418   3.409 -0.5043  0.4734  0.3173
 2731TIP3    H229685   2.928   0.552   3.456  1.6257 -0.6976  1.3425
 2732TIP3   OH229686   1.352   0.304  14.015 -0.2897 -0.4862  0.3961
 2732TIP3    H129687   1.310   0.220  13.992  1.3230 -1.5233  1.1624
 2732TIP3    H229688   1.392   0.288  14.100 -0.0619  1.1162  0.5937
 2733TIP3   OH229689   3.498   2.857   1.518  0.5401  0.8387  0.3823
 2733TIP3    H129690   3.412   2.817   1.534  1.2494 -1.2693 -0.8965
 2733TIP3    H229691   3.550   2.834   1.595  0.8619 -0.4870 -0.2241
 2734TIP3   OH229692   1.962   6.562  15.764 -0.5493 -0.2090  0.4854
 2734TIP3    H129693   1.951   6.467  15.759  0.5066 -0.3619  0.9548
 2734TIP3    H229694   2.039   6.581  15.711  0.1830  0.1954  1.6632
 2735TIP3   OH229695   4.166   1.205  15.102  0.0268  0.3380  0.1008
 2735TIP3    H129696   4.125   1.236  15.183 -1.3176  0.2590 -0.5456
 2735TIP3    H229697   4.165   1.281  15.044 -2.4030 -0.5935 -1.1405
 2736TIP3   OH229698   5.323   5.511   3.178 -0.4462  0.4485  0.3265
 2736TIP3    H129699   5.378   5.539   3.104 -0.5968 -0.2047 -0.0397
 2736TIP3    H229700   5.348   5.569   3.250  0.3263  0.5246  0.0067
 2737TIP3   OH229701   4.905   5.013  17.207 -0.1229 -0.0965 -0.3833
 2737TIP3    H129702   4.897   5.097  17.162 -0.4762  0.2321  0.2737
 2737TIP3    H229703   4.814   4.982  17.215  0.0521 -0.8052 -1.1130
 2738TIP3   OH229704   0.382   3.780   2.388 -0.0857  0.1330  0.0594
 2738TIP3    H129705   0.408   3.868   2.360  0.6771  0.0252  0.3985
 2738TIP3    H229706   0.393   3.781   2.483  3.0785 -1.2930 -0.2236
 2739TIP3   OH229707   5.879   5.059  15.736 -0.3690 -0.1145 -0.1959
 2739TIP3    H129708   5.965   5.022  15.714  0.0115  0.5681  0.1335
 2739TIP3    H229709   5.825   4.983  15.756  0.1910 -0.5405 -0.2960
 2740TIP3   OH229710   4.460   0.668  11.451  0.2054  0.0035 -0.1402
 2740TIP3    H129711   4.393   0.727  11.416  1.3742  1.8963  0.7819
 2740TIP3    H229712   4.492   0.620  11.374  0.0944  1.4213 -1.0921
 2741TIP3   OH229713   4.717   3.121  14.665 -0.5357 -0.2597 -0.2805
 2741TIP3    H129714   4.648   3.118  14.732  1.1289  1.6895  1.5796
 2741TIP3    H229715   4.711   3.209  14.628 -0.0348 -0.6047 -1.2139
 2742TIP3   OH229716   0.228   5.608   0.615  0.1539 -0.0770  0.7653
 2742TIP3    H129717   0.211   5.608   0.521  0.2115  2.9229  0.7147
 2742TIP3    H229718   0.204   5.519   0.643 -3.7300  0.1540 -1.3913
 2743TIP3   OH229719   5.078   3.886  15.212 -0.3574  0.5147 -0.1428
 2743TIP3    H129720   5.013   3.932  15.265 -0.3544 -1.0311  1.2364
 2743TIP3    H229721   5.036   3.804  15.188  0.9218 -0.3012  0.3720
 2744TIP3   OH229722   5.963   3.774  10.286 -0.5669  0.0867 -0.0366
 2744TIP3    H129723   6.052   3.793  10.317 -1.3232  1.8771  1.1895
 2744TIP3    H229724   5.966   3.683  10.257  1.7174  0.1939 -0.2348
 2745TIP3   OH229725   3.644   4.646  11.873 -0.4012 -0.3889  0.4587
 2745TIP3    H129726   3.660   4.737  11.850  1.7515 -0.5921  1.0441
 2745TIP3    H229727   3.610   4.649  11.962 -1.3557 -0.0855  0.0806
 2746TIP3   OH229728   2.485   1.223  15.643 -0.6499  0.2782 -0.0766
 2746TIP3    H129729   2.416   1.228  15.577 -1.0103  1.9503  0.4053
 2746TIP3    H229730   2.495   1.130  15.660 -1.7711 -0.0704 -1.2121
 2747TIP3   OH229731   6.674   0.445   0.987 -0.5168  0.0114  0.0166
 2747TIP3    H129732   6.698   0.392   0.911  1.8738  2.4735 -1.0143
 2747TIP3    H229733   6.590   0.485   0.962  0.5050  1.2344 -1.6394
 2748TIP3   OH229734   4.269   5.494   3.292 -0.4464  0.5131 -0.1972
 2748TIP3    H129735   4.253   5.543   3.373  1.9732 -0.2596  0.7813
 2748TIP3    H229736   4.346   5.536   3.253  0.7130 -1.5275 -0.1357
 2749TIP3   OH229737   3.515   3.463   5.470  0.4535  0.0655 -0.5401
 2749TIP3    H129738   3.568   3.523   5.523 -0.3147  1.0277 -0.8461
 2749TIP3    H229739   3.571   3.441   5.396  0.7922  0.2882 -0.3524
 2750TIP3   OH229740   0.722   6.136  14.862  0.2220  0.0041 -0.0176
 2750TIP3    H129741   0.725   6.208  14.926  0.3887  2.9037 -3.1586
 2750TIP3    H229742   0.634   6.142  14.825  0.2413 -1.4674 -0.3046
 2751TIP3   OH229743   6.257   5.246   1.451 -0.2764 -0.1903 -0.7268
 2751TIP3    H129744   6.313   5.220   1.524 -0.5575 -1.5065 -0.9738
 2751TIP3    H229745   6.212   5.325   1.482  0.5923  0.0166  0.0228
 2752TIP3   OH229746   0.138   0.639   0.203  0.2142  0.1271 -0.8944
 2752TIP3    H129747   0.202   0.598   0.144 -1.6609  0.1813 -3.0142
 2752TIP3    H229748   0.182   0.718   0.233  1.6498 -0.4919 -1.3000
 2753TIP3   OH229749   4.512   4.697  17.050  0.2904  0.3182 -0.8611
 2753TIP3    H129750   4.502   4.633  17.121  0.4385  1.0164 -0.1986
 2753TIP3    H229751   4.447   4.671  16.985 -0.7941  0.4498  0.1370
 2754TIP3   OH229752   2.180   0.206   3.157 -0.3161  0.2305 -0.4177
 2754TIP3    H129753   2.259   0.217   3.210  0.2879 -0.4509 -1.1632
 2754TIP3    H229754   2.152   0.116   3.174 -0.5970  0.2774 -0.6301
 2755TIP3   OH229755   6.382   2.979   1.262 -0.6408  0.4232 -0.0144
 2755TIP3    H129756   6.288   2.961   1.268 -0.2303 -2.3634 -0.8395
 2755TIP3    H229757   6.423   2.906   1.310  1.1974 -0.8612 -3.3317
 2756TIP3   OH229758   5.982   1.305   5.019 -0.3472 -0.4227 -0.1990
 2756TIP3    H129759   6.077   1.303   5.009 -0.2819 -0.3103  0.4094
 2756TIP3    H229760   5.967   1.330   5.110 -0.9761  0.8157 -0.6234
 2757TIP3   OH229761   3.122   2.260  15.794  0.1527 -0.0483 -0.2961
 2757TIP3    H129762   3.076   2.343  15.802  1.8997  0.9511 -0.4138
 2757TIP3    H229763   3.209   2.284  15.762  0.8316 -1.8795  0.1386
 2758TIP3   OH229764   2.444   3.336  14.182  0.2399  0.0382  0.7244
 2758TIP3    H129765   2.373   3.307  14.239  0.1420  2.4675  1.8680
 2758TIP3    H229766   2.466   3.424  14.212  2.0959  0.2838 -1.1888
 2759TIP3   OH229767   6.534   2.190  11.728 -0.6138 -0.1264  0.0634
 2759TIP3    H129768   6.595   2.122  11.755 -0.6113 -0.3939 -0.5915
 2759TIP3    H229769   6.523   2.176  11.634 -1.3961  0.1487  0.1084
 2760TIP3   OH229770   0.987   0.126  10.854  0.1653  0.2426  0.0321
 2760TIP3    H129771   1.043   0.189  10.899 -1.2424  1.2069  0.4721
 2760TIP3    H229772   0.943   0.176  10.786  0.8095 -0.7912 -1.1701
 2761TIP3   OH229773   1.123   1.308  15.784  0.3328 -0.3552 -0.0759
 2761TIP3    H129774   1.116   1.253  15.707 -1.5130  1.1499 -0.9979
 2761TIP3    H229775   1.034   1.316  15.817  0.7302  1.1798  0.6767
 2762TIP3   OH229776   5.000   6.108  15.829 -0.6202 -0.2739 -0.0168
 2762TIP3    H129777   4.987   6.125  15.735 -3.1626  0.8577  0.4811
 2762TIP3    H229778   5.069   6.042  15.832 -0.3168 -0.1503 -2.6804
 2763TIP3   OH229779   0.490   3.689  12.118 -0.0497 -0.0293  0.1711
 2763TIP3    H129780   0.420   3.733  12.070  0.6234  2.1707  1.1349
 2763TIP3    H229781   0.567   3.745  12.107  0.5353 -0.3070  2.4215
 2764TIP3   OH229782   1.038   2.555   6.416  0.0329  0.0740  0.0967
 2764TIP3    H129783   1.110   2.499   6.387  0.0363  1.9042 -3.7678
 2764TIP3    H229784   1.080   2.637   6.442 -0.4022  0.1082  0.6946
 2765TIP3   OH229785   1.593   4.952  11.913 -0.0990 -0.7680  0.3316
 2765TIP3    H129786   1.634   4.869  11.889 -1.0579 -1.3086  0.5362
 2765TIP3    H229787   1.499   4.934  11.912 -0.2901  0.1075  1.1355
 2766TIP3   OH229788   2.029   4.124  13.948 -0.5361  0.3657  0.0487
 2766TIP3    H129789   2.092   4.063  13.984  0.6976  1.9956  0.7408
 2766TIP3    H229790   2.032   4.109  13.853  0.6777  0.2125  0.0991
 2767TIP3   OH229791   5.340   4.993  13.155  0.0603  0.0765 -0.1804
 2767TIP3    H129792   5.276   5.046  13.202  0.9117  2.0187 -1.1983
 2767TIP3    H229793   5.294   4.962  13.077 -0.8470 -1.8265  1.0580
 2768TIP3   OH229794   1.847   5.452  14.218  0.6915  0.0545  0.5815
 2768TIP3    H129795   1.794   5.505  14.278 -0.5634  1.4525 -1.7047
 2768TIP3    H229796   1.917   5.418  14.273 -0.7880  0.7399  3.0067
 2769TIP3   OH229797   3.193   0.968   3.649  0.2730  0.3530  0.4035
 2769TIP3    H129798   3.192   0.904   3.719  0.0196 -1.7723 -1.4937
 2769TIP3    H229799   3.280   0.961   3.610 -0.0835  0.4874 -0.4235
 2770TIP3   OH229800   0.252   1.941   6.652 -0.2076  0.4786 -0.1137
 2770TIP3    H129801   0.171   1.894   6.672  0.6864 -1.2224 -0.3655
 2770TIP3    H229802   0.320   1.874   6.654  1.7202  2.3649  3.1885
 2771TIP3   OH229803   3.689   3.956   5.874  0.0360  0.6627  0.1341
 2771TIP3    H129804   3.783   3.939   5.868  0.2346  1.4486  1.0010
 2771TIP3    H229805   3.678   4.045   5.841 -0.2012  1.1598  1.5357
 2772TIP3   OH229806   1.649   4.620  11.338 -0.6410  0.4196 -0.0267
 2772TIP3    H129807   1.579   4.581  11.285 -1.1340 -0.2500  1.0908
 2772TIP3    H229808   1.663   4.557  11.409  0.4508  0.9975  0.2839
 2773TIP3   OH229809   5.908   5.035  14.477  0.0687  0.1601  0.4156
 2773TIP3    H129810   5.843   5.093  14.436 -0.7408 -0.7476  0.4070
 2773TIP3    H229811   5.869   5.010  14.561  0.7424  0.2053  0.7500
 2774TIP3   OH229812   3.901   6.467  11.472 -0.0984  0.2143 -0.2158
 2774TIP3    H129813   3.895   6.474  11.567 -1.2751 -0.0272 -0.2552
 2774TIP3    H229814   3.825   6.516  11.440  0.1058  0.0113 -1.0081
 2775TIP3   OH229815   5.869   3.019   1.330  0.2429 -0.3670  0.2884
 2775TIP3    H129816   5.826   3.044   1.411 -1.2215  2.6793 -1.3403
 2775TIP3    H229817   5.820   2.942   1.299 -0.1242 -0.6323  1.5006
 2776TIP3   OH229818   1.204   1.903   3.579 -0.0970  0.2181  0.1996
 2776TIP3    H129819   1.299   1.901   3.567 -0.0944 -1.2678  0.3718
 2776TIP3    H229820   1.178   1.810   3.580 -1.5521  0.6166  0.0799
 2777TIP3   OH229821   1.739   4.338  13.668  0.0566 -0.0267 -0.6188
 2777TIP3    H129822   1.787   4.384  13.599  2.3772  0.3539  1.2103
 2777TIP3    H229823   1.746   4.246  13.645 -0.3706  0.1780 -1.6124
 2778TIP3   OH229824   3.181   6.394   4.298 -0.0673 -0.1122  0.8593
 2778TIP3    H129825   3.103   6.412   4.245  0.6881 -1.9532 -0.9132
 2778TIP3    H229826   3.153   6.327   4.360 -0.8870  1.8831  2.7474
 2779TIP3   OH229827   2.274   6.292   4.665  0.1863 -0.0940 -0.3156
 2779TIP3    H129828   2.266   6.270   4.758 -0.6181 -2.0395 -0.8267
 2779TIP3    H229829   2.358   6.339   4.659  0.8685 -1.0795  1.1793
 2780TIP3   OH229830   3.789   5.713  11.846  0.1770  0.2290 -0.4332
 2780TIP3    H129831   3.881   5.731  11.866 -0.4638  1.0359  2.0134
 2780TIP3    H229832   3.778   5.744  11.756  2.0264  1.1494 -0.3805
 2781TIP3   OH229833   1.028   3.084   0.442  0.1994 -0.1594  0.0242
 2781TIP3    H129834   0.969   3.108   0.513 -0.2862  0.0631 -0.4495
 2781TIP3    H229835   1.049   2.992   0.459 -2.1643 -0.9681 -1.0673
 2782TIP3   OH229836   6.615   6.389  13.933 -0.0706 -0.2637 -0.2850
 2782TIP3    H129837   6.710   6.382  13.945  0.3246  1.4952 -2.2392
 2782TIP3    H229838   6.579   6.318  13.987  2.2600 -0.1274  1.5137
 2783TIP3   OH229839   0.979   0.969   4.611  0.7890 -0.2155  0.3650
 2783TIP3    H129840   1.032   0.944   4.535  0.6671  0.3853  0.0826
 2783TIP3    H229841   1.039   0.961   4.685  1.0465 -0.3244  0.1491
 2784TIP3   OH229842   2.701   4.355  14.407  0.4764 -0.4258 -0.1075
 2784TIP3    H129843   2.708   4.446  14.378  0.6613 -0.2063  0.6255
 2784TIP3    H229844   2.618   4.324  14.369 -0.4454  0.5779  1.0452
 2785TIP3   OH229845   3.454   0.393   4.387  0.5309  0.0000 -0.2013
 2785TIP3    H129846   3.468   0.302   4.411 -0.1418 -0.2726 -0.8218
 2785TIP3    H229847   3.376   0.392   4.331  0.9250  0.8654 -0.7863
 2786TIP3   OH229848   0.241   1.811   0.641  0.3077  0.2020 -0.0920
 2786TIP3    H129849   0.208   1.722   0.646  1.1709 -0.1745 -1.0654
 2786TIP3    H229850   0.164   1.864   0.619 -0.1585 -0.3243  0.2763
 2787TIP3   OH229851   1.698   5.917  14.002 -0.2548 -0.5726  0.0818
 2787TIP3    H129852   1.721   5.916  14.095 -0.0305  0.4849  0.0491
 2787TIP3    H229853   1.702   5.825  13.975 -0.2796 -0.8812  1.1071
 2788TIP3   OH229854   4.445   6.656   1.115 -0.4332  0.3337  0.7994
 2788TIP3    H129855   4.485   6.734   1.074  0.4474  0.3501  1.6603
 2788TIP3    H229856   4.470   6.584   1.057 -1.2027  0.6835  0.0266
 2789TIP3   OH229857   5.483   2.033   0.160 -0.3270 -0.0251  0.1375
 2789TIP3    H129858   5.523   1.960   0.207 -1.7946  0.2022  1.7848
 2789TIP3    H229859   5.450   1.995   0.079 -0.8660 -1.1357  0.8780
 2790TIP3   OH229860   5.112   4.296   4.618 -0.1993 -0.0660 -0.4691
 2790TIP3    H129861   5.053   4.225   4.642  0.2165 -0.5619 -0.9035
 2790TIP3    H229862   5.189   4.283   4.673 -0.2090  0.1737 -0.3972
 2791TIP3   OH229863   5.041   0.711   4.482  0.5554  0.2991  0.1873
 2791TIP3    H129864   4.990   0.716   4.402  0.5434 -1.9588  0.0212
 2791TIP3    H229865   4.980   0.679   4.548  0.5853  2.0640  1.1095
 2792TIP3   OH229866   6.227   4.782  12.802 -0.0252 -0.1546 -0.2219
 2792TIP3    H129867   6.189   4.858  12.757  2.0589  0.1202 -1.6223
 2792TIP3    H229868   6.231   4.807  12.894  0.8088  1.5448 -0.6948
 2793TIP3   OH229869   3.255   6.778   0.978 -0.0621 -0.4711 -0.2755
 2793TIP3    H129870   3.280   6.827   1.056 -0.9372 -0.8923  0.2723
 2793TIP3    H229871   3.337   6.737   0.949  0.0858 -1.0638  0.9498
 2794TIP3   OH229872   5.911   1.477  10.907  0.6530  0.9954 -0.1792
 2794TIP3    H129873   5.894   1.396  10.859 -0.3661  2.3388 -2.1344
 2794TIP3    H229874   5.863   1.467  10.989  2.2892 -1.2585  0.5330
 2795TIP3   OH229875   5.367   2.878  16.210  0.6458 -0.2807 -0.2463
 2795TIP3    H129876   5.345   2.798  16.163 -3.3754 -1.2117  2.9268
 2795TIP3    H229877   5.418   2.849  16.286  1.6226  0.5001 -0.5929
 2796TIP3   OH229878   3.625   4.129  13.453 -0.2393  0.1940 -1.0726
 2796TIP3    H129879   3.571   4.068  13.402 -0.3051 -1.7893  1.2464
 2796TIP3    H229880   3.714   4.098  13.439 -0.2942 -0.6455  0.3166
 2797TIP3   OH229881   6.460   4.447  15.266 -0.1626  0.0979 -0.4026
 2797TIP3    H129882   6.501   4.534  15.265 -2.8486  1.5218  3.0804
 2797TIP3    H229883   6.493   4.406  15.346  0.1690 -1.6615 -1.4155
 2798TIP3   OH229884   1.100   5.631  11.513 -0.2680 -0.1306  0.5188
 2798TIP3    H129885   1.135   5.712  11.476 -1.2107 -0.0763 -0.2803
 2798TIP3    H229886   1.098   5.570  11.440 -0.1666 -0.6823  0.9718
 2799TIP3   OH229887   4.577   2.455  17.204  0.3152  0.5888  0.2167
 2799TIP3    H129888   4.656   2.483  17.249  0.2821  0.4208  0.3834
 2799TIP3    H229889   4.529   2.536  17.185  0.9990  0.7615 -0.7702
 2800TIP3   OH229890   3.008   0.028  14.638  0.4087  0.2872 -0.0315
 2800TIP3    H129891   3.066   0.067  14.572  1.5823 -0.9855  0.2270
 2800TIP3    H229892   3.039  -0.062  14.647 -1.2217 -0.2251  0.5872
 2801TIP3   OH229893   1.098   4.861   2.096 -0.4229 -0.2930  0.6671
 2801TIP3    H129894   1.123   4.933   2.153 -1.1549 -0.1393  0.7894
 2801TIP3    H229895   1.161   4.791   2.116  0.5337  0.4479  0.2652
 2802TIP3   OH229896   0.800   2.803  11.835  0.2973  0.2582  0.2838
 2802TIP3    H129897   0.859   2.874  11.807  0.6710  0.4088  1.4187
 2802TIP3    H229898   0.781   2.755  11.755  3.1755 -0.6962  0.1212
 2803TIP3   OH229899   6.218   3.049   4.376 -0.5666  0.5460  0.1073
 2803TIP3    H129900   6.133   3.093   4.371  0.2572  2.1773  0.1946
 2803TIP3    H229901   6.243   3.034   4.284 -0.5603  0.8236  0.0642
 2804TIP3   OH229902   3.545   0.191   0.192 -0.1321 -0.1580 -0.7631
 2804TIP3    H129903   3.486   0.266   0.180  1.7402  1.4894  0.0461
 2804TIP3    H229904   3.535   0.167   0.284  0.8201  0.4448 -0.4988
 2805TIP3   OH229905   4.735   4.163  12.440  0.7866  0.0093 -0.2381
 2805TIP3    H129906   4.823   4.141  12.471  0.3396 -1.2034  0.2132
 2805TIP3    H229907   4.678   4.098  12.483 -0.2432  0.3994 -1.0067
 2806TIP3   OH229908   2.632   1.683   3.200 -0.3337 -0.6764  0.1454
 2806TIP3    H129909   2.650   1.622   3.271  0.1193  0.1973  0.7930
 2806TIP3    H229910   2.619   1.768   3.243 -0.8288 -0.2856 -0.7460
 2807TIP3   OH229911   2.415   5.047  13.676  0.4173 -0.0360  0.4768
 2807TIP3    H129912   2.500   5.014  13.706  0.6798 -0.3823 -0.6379
 2807TIP3    H229913   2.395   4.995  13.598  0.1280  1.4110 -0.4264
 2808TIP3   OH229914   6.330   2.156   4.793  0.4358  0.0068  0.2424
 2808TIP3    H129915   6.274   2.168   4.870 -0.5926 -0.0155 -0.4924
 2808TIP3    H229916   6.408   2.209   4.811 -1.1919  2.5733 -0.1142
 2809TIP3   OH229917   0.435   0.068  12.396  0.2778 -0.3400  0.3440
 2809TIP3    H129918   0.510   0.125  12.383  0.8525 -1.1174  0.1679
 2809TIP3    H229919   0.393   0.062  12.310 -0.6159  0.9472  0.6783
 2810TIP3   OH229920   4.322   1.257  11.577 -0.0571 -0.0206 -0.9247
 2810TIP3    H129921   4.397   1.316  11.588 -0.3582  0.0125  1.1620
 2810TIP3    H229922   4.356   1.186  11.522  0.8540  1.1260 -1.8753
 2811TIP3   OH229923   2.068   3.432   3.075  0.1604  0.1019 -0.0186
 2811TIP3    H129924   2.079   3.413   3.168 -0.9031 -0.1988  0.0482
 2811TIP3    H229925   2.081   3.347   3.032 -1.2898 -0.1433  0.0145
 2812TIP3   OH229926   1.885   1.900  12.082 -0.0150  0.2163 -0.2209
 2812TIP3    H129927   1.857   1.846  12.156 -1.2974 -0.3011 -1.0826
 2812TIP3    H229928   1.874   1.990  12.113  0.2717 -0.0001  0.5209
 2813TIP3   OH229929   0.102   5.776   2.601  0.1687  0.1212  0.1295
 2813TIP3    H129930   0.183   5.827   2.599  0.3304 -0.1591 -1.5495
 2813TIP3    H229931   0.048   5.818   2.668  1.5620  0.5277  1.0046
 2814TIP3   OH229932   2.104   6.104  12.798  0.1622  0.2789 -0.0453
 2814TIP3    H129933   2.041   6.031  12.792 -3.8584  3.5019  0.6237
 2814TIP3    H229934   2.136   6.100  12.888  1.5384 -1.8222 -0.5904
 2815TIP3   OH229935   0.773   5.558  13.386  0.0590 -0.3260 -0.1343
 2815TIP3    H129936   0.729   5.598  13.462  0.3834  0.8421 -0.5410
 2815TIP3    H229937   0.734   5.603  13.311 -0.1970 -1.4215 -0.6541
 2816TIP3   OH229938   6.064   0.793  14.314 -0.3583 -0.6679  0.1977
 2816TIP3    H129939   6.030   0.879  14.339 -0.3171 -0.9755  1.3727
 2816TIP3    H229940   6.147   0.786  14.360  1.9177  0.5375 -3.5540
 2817TIP3   OH229941   3.657   3.479  12.419 -0.1079  0.0117 -0.0497
 2817TIP3    H129942   3.609   3.407  12.459  2.9498 -1.2580  1.5115
 2817TIP3    H229943   3.702   3.439  12.344  0.0150  0.7211 -0.3543
 2818TIP3   OH229944   6.328   1.134   3.432  0.0529 -0.2549  0.5196
 2818TIP3    H129945   6.338   1.219   3.389 -0.4009  1.2528  3.2122
 2818TIP3    H229946   6.329   1.070   3.361  2.8334  1.7918 -1.3962
 2819TIP3   OH229947   0.592   1.053  14.330 -0.1187  0.6211  0.0065
 2819TIP3    H129948   0.657   0.996  14.289  0.3882  0.0093  1.6232
 2819TIP3    H229949   0.642   1.126  14.364  0.0476 -0.8001  2.9845
 2820TIP3   OH229950   6.677   2.148  14.632  0.2732  0.2748  0.3470
 2820TIP3    H129951   6.747   2.212  14.648 -0.8673  2.3627 -2.6000
 2820TIP3    H229952   6.723   2.064  14.625  2.6385  1.7153 -2.2839
 2821TIP3   OH229953   2.273   1.230  12.916  0.2699 -0.5800 -0.0443
 2821TIP3    H129954   2.368   1.243  12.913  0.1324  0.3241 -0.9177
 2821TIP3    H229955   2.260   1.140  12.886  0.7888 -0.3562 -0.9666
 2822TIP3   OH229956   5.443   5.823   1.547 -0.4063  0.3810 -0.4270
 2822TIP3    H129957   5.466   5.781   1.465  1.7738 -1.7111  1.1826
 2822TIP3    H229958   5.505   5.896   1.556  0.4911 -0.4412  0.1537
 2823TIP3   OH229959   5.371   1.196  16.810 -0.4768  0.3799  0.4573
 2823TIP3    H129960   5.291   1.145  16.795 -0.9396  1.1735  0.1580
 2823TIP3    H229961   5.349   1.283  16.776  1.0963  0.1513 -1.2404
 2824TIP3   OH229962   4.403   5.538   2.719  0.1750  0.1221 -0.0491
 2824TIP3    H129963   4.353   5.469   2.677  1.8726  0.2054 -2.3263
 2824TIP3    H229964   4.365   5.619   2.685 -1.8620  0.3877  2.6704
 2825TIP3   OH229965   2.540   4.885   0.282 -0.3566 -0.3206  0.2473
 2825TIP3    H129966   2.613   4.924   0.331  0.3528  0.1580 -1.1678
 2825TIP3    H229967   2.467   4.884   0.344  0.5579  0.1772  1.3426
 2826TIP3   OH229968   1.589   2.015  14.793 -0.3127 -0.2207 -0.2093
 2826TIP3    H129969   1.531   1.983  14.724  0.5219  2.6737 -2.3984
 2826TIP3    H229970   1.535   2.075  14.844  0.0139  0.3909 -0.5759
 2827TIP3   OH229971   6.633   5.546  12.206  0.4163  0.5973 -0.0079
 2827TIP3    H129972   6.701   5.515  12.265 -1.3765 -3.4632  0.0762
 2827TIP3    H229973   6.638   5.487  12.131 -0.5781  2.6138 -1.7222
 2828TIP3   OH229974   2.805   2.061  12.204 -0.3222 -0.8953  0.5801
 2828TIP3    H129975   2.881   2.045  12.147  0.4522 -1.3998  1.7467
 2828TIP3    H229976   2.747   2.116  12.151  0.6584 -0.8659 -0.4866
 2829TIP3   OH229977   3.924   5.863  14.807 -0.5115  0.0693 -0.1363
 2829TIP3    H129978   3.987   5.806  14.851  0.2878  1.1297  0.1128
 2829TIP3    H229979   3.963   5.879  14.721  0.4339  2.1296  0.6461
 2830TIP3   OH229980   3.689   6.048  15.886 -0.2910 -0.4288  0.5024
 2830TIP3    H129981   3.733   6.132  15.870 -1.7100  0.3419  0.4491
 2830TIP3    H229982   3.709   5.995  15.810 -0.5613  0.4029 -0.1616
 2831TIP3   OH229983   1.315   2.677  14.588 -0.3591  0.3525 -0.1710
 2831TIP3    H129984   1.399   2.640  14.613 -1.4503 -1.7214  0.5302
 2831TIP3    H229985   1.321   2.770  14.613  1.4832  0.0956  0.3911
 2832TIP3   OH229986   3.251   5.718  15.363 -0.2398  0.1678 -0.6013
 2832TIP3    H129987   3.225   5.754  15.448  0.6391  2.3648 -1.2331
 2832TIP3    H229988   3.275   5.795  15.311 -0.5861 -1.1663 -2.7769
 2833TIP3   OH229989   4.530   5.700   3.850 -0.4649 -0.2546 -0.6034
 2833TIP3    H129990   4.532   5.784   3.897  0.2371  0.3027 -1.6067
 2833TIP3    H229991   4.443   5.665   3.868  0.9848 -1.8109  4.0848
 2834TIP3   OH229992   2.237   5.373   2.414  0.3719  0.0709  0.1042
 2834TIP3    H129993   2.162   5.318   2.436 -0.6589  1.2433 -0.4082
 2834TIP3    H229994   2.256   5.352   2.322  2.7013 -2.5378  1.1140
 2835TIP3   OH229995   1.083   0.281   0.161 -0.0681 -0.3592 -0.1136
 2835TIP3    H129996   1.030   0.359   0.178 -1.5545 -1.4331  0.2670
 2835TIP3    H229997   1.075   0.267   0.067 -0.5894 -0.6197 -0.0289
 2836TIP3   OH229998   3.657   0.992   4.832  0.4127 -0.6058 -0.0333
 2836TIP3    H129999   3.701   0.934   4.769  1.0001 -0.1018 -0.0905
 2836TIP3    H230000   3.632   0.934   4.904  0.3923 -1.0518 -0.3943
 2837TIP3   OH230001   2.715   2.854   4.124 -0.2521  0.1732 -0.5209
 2837TIP3    H130002   2.765   2.850   4.205 -1.1766 -0.3521  0.0321
 2837TIP3    H230003   2.674   2.941   4.126 -1.0667 -0.2120  0.0674
 2838TIP3   OH230004   5.339   3.687   0.514 -0.0423  0.7199 -0.5048
 2838TIP3    H130005   5.284   3.758   0.548  0.6933  0.1146  2.0346
 2838TIP3    H230006   5.428   3.719   0.526  0.2715 -0.2379 -0.3069
 2839TIP3   OH230007   2.275   2.695   4.854 -0.2564 -0.1483 -0.1702
 2839TIP3    H130008   2.274   2.698   4.758 -0.6263 -1.7437 -0.2380
 2839TIP3    H230009   2.327   2.617   4.875 -1.1679 -0.4936  0.8899
 2840TIP3   OH230010   2.656   3.554  15.987 -0.3699  0.2347  0.1235
 2840TIP3    H130011   2.648   3.640  15.946  0.0110  0.5125  0.6333
 2840TIP3    H230012   2.595   3.499  15.938 -0.9834  0.9134  0.1117
 2841TIP3   OH230013   5.471   1.384  13.610 -0.1953 -0.2460 -0.0953
 2841TIP3    H130014   5.428   1.420  13.687  1.1995  0.5721  0.3258
 2841TIP3    H230015   5.546   1.335  13.645  0.5162  0.2363 -0.9194
 2842TIP3   OH230016   5.841   4.843  16.238 -0.6000  0.1633 -0.2143
 2842TIP3    H130017   5.812   4.802  16.320 -0.4234 -0.0092 -0.2366
 2842TIP3    H230018   5.874   4.929  16.265  1.0727 -0.5817  0.1267
 2843TIP3   OH230019   5.869   4.677  12.764 -0.1476  0.2465 -0.0899
 2843TIP3    H130020   5.875   4.765  12.729 -0.8272  0.4538  0.2963
 2843TIP3    H230021   5.782   4.673  12.804  0.2720 -0.2632  0.7882
 2844TIP3   OH230022   2.583   5.087   5.788 -0.0290  0.4560 -0.7874
 2844TIP3    H130023   2.607   5.055   5.701  1.8999  0.7184 -0.3770
 2844TIP3    H230024   2.642   5.161   5.803 -0.6816  0.7118  0.5512
 2845TIP3   OH230025   3.435   3.071  14.650 -0.1113 -0.3569  0.2303
 2845TIP3    H130026   3.468   3.013  14.719  2.4666 -1.7686 -2.1099
 2845TIP3    H230027   3.381   3.014  14.594 -0.3785  0.2769 -0.1617
 2846TIP3   OH230028   6.689   1.577  14.020 -0.3536 -0.1176 -0.2327
 2846TIP3    H130029   6.763   1.530  14.058  0.9873  0.6163 -1.8472
 2846TIP3    H230030   6.630   1.593  14.094  2.4431  1.8111  1.7111
 2847TIP3   OH230031   2.410   5.661   3.012 -0.3409 -0.8725  0.1153
 2847TIP3    H130032   2.481   5.702   3.062 -0.2363 -0.8962 -0.0138
 2847TIP3    H230033   2.332   5.672   3.068 -0.7294  1.2744 -0.7813
 2848TIP3   OH230034   3.257   2.789   5.037 -1.2683  0.2744 -0.5069
 2848TIP3    H130035   3.294   2.826   4.957  0.4480 -0.1381  0.0684
 2848TIP3    H230036   3.223   2.704   5.010 -1.4253  0.4781 -0.9636
 2849TIP3   OH230037   3.616   4.986  16.430 -0.1232 -0.3968 -0.0303
 2849TIP3    H130038   3.524   5.012  16.423  0.3493  0.8455 -1.7766
 2849TIP3    H230039   3.614   4.890  16.425 -1.3609 -0.4067  0.4402
 2850TIP3   OH230040   1.889   1.462   5.713 -0.1326  0.1692 -0.2484
 2850TIP3    H130041   1.903   1.460   5.808 -0.8344 -1.0986 -0.1709
 2850TIP3    H230042   1.970   1.500   5.679  0.6687 -0.6087  0.7506
 2851TIP3   OH230043   1.848   0.031   3.759 -1.0631  0.1511 -0.4298
 2851TIP3    H130044   1.829  -0.042   3.819  1.4932 -0.0029  0.2570
 2851TIP3    H230045   1.844  -0.008   3.672 -0.8818 -0.5368 -0.1332
 2852TIP3   OH230046   5.877   3.306  12.502 -0.4156  0.6559  0.1044
 2852TIP3    H130047   5.887   3.211  12.514  0.0780  0.4751 -1.6567
 2852TIP3    H230048   5.962   3.342  12.525 -1.4118  1.0151  3.6390
 2853TIP3   OH230049   0.354   6.082  10.668  0.2145  0.7441 -0.1047
 2853TIP3    H130050   0.266   6.103  10.699 -0.6961 -0.8391 -1.5233
 2853TIP3    H230051   0.409   6.086  10.746 -1.2223  1.1827  0.8966
 2854TIP3   OH230052   5.559   5.851   2.872  0.5301 -0.3149 -0.0974
 2854TIP3    H130053   5.496   5.871   2.803 -0.0390 -0.6981  0.3086
 2854TIP3    H230054   5.529   5.902   2.947  1.1479  0.1003 -0.1247
 2855TIP3   OH230055   4.839   4.918  15.016  0.6673  0.2975  0.0507
 2855TIP3    H130056   4.900   4.941  15.086  1.1501  0.3082 -0.3662
 2855TIP3    H230057   4.868   4.969  14.941  0.9825 -0.7071 -0.5272
 2856TIP3   OH230058   4.365   3.338  12.921 -0.2003  0.2529  0.3500
 2856TIP3    H130059   4.355   3.344  12.826  1.1752  1.2439  0.2632
 2856TIP3    H230060   4.412   3.256  12.936 -0.1381  0.2543  0.1535
 2857TIP3   OH230061   3.129   2.228   2.298 -0.3433 -0.6559 -0.2632
 2857TIP3    H130062   3.194   2.202   2.363  1.3310  0.9402 -1.2326
 2857TIP3    H230063   3.045   2.213   2.340  0.7038  0.4430  2.3035
 2858TIP3   OH230064   1.138   4.334  13.489  0.5021  0.6159  0.8364
 2858TIP3    H130065   1.056   4.380  13.502 -0.2219 -1.2174  3.0755
 2858TIP3    H230066   1.132   4.297  13.401 -0.9660  0.7206  0.8893
 2859TIP3   OH230067   2.275   3.449  17.283  0.0726  0.4320 -0.1433
 2859TIP3    H130068   2.252   3.422  17.194 -0.4805  1.1009 -0.2059
 2859TIP3    H230069   2.368   3.429  17.291  0.0053 -0.0997 -0.7006
 2860TIP3   OH230070   5.235   4.329   4.377 -0.7903  0.0583 -0.2725
 2860TIP3    H130071   5.183   4.327   4.457  1.2793  0.4036  1.1430
 2860TIP3    H230072   5.249   4.422   4.360  1.5120 -0.0466  0.8578
 2861TIP3   OH230073   2.746   2.324  15.654  0.0352  0.5976  0.1575
 2861TIP3    H130074   2.791   2.370  15.725  2.4357 -1.2569 -0.0888
 2861TIP3    H230075   2.655   2.317  15.683  0.3404  2.5470  1.6557
 2862TIP3   OH230076   6.524   1.654  14.900  0.2575 -0.2775  0.1256
 2862TIP3    H130077   6.478   1.713  14.960 -2.6402 -0.8417 -1.4504
 2862TIP3    H230078   6.549   1.580  14.955  0.6940  0.7421  1.3471
 2863TIP3   OH230079   3.837   6.079   5.045 -0.6498 -0.0055  0.3001
 2863TIP3    H130080   3.845   6.033   5.128 -2.6197 -1.5359 -0.3409
 2863TIP3    H230081   3.744   6.073   5.022 -0.1859  0.6449 -1.8794
 2864TIP3   OH230082   3.982   4.812   0.221 -0.2320  0.2870 -0.5256
 2864TIP3    H130083   3.932   4.815   0.139 -0.2694  0.1450 -0.5092
 2864TIP3    H230084   3.949   4.734   0.266 -0.1342  0.3025 -0.4254
 2865TIP3   OH230085   2.483   2.241   0.625  0.0154 -0.0971  0.2229
 2865TIP3    H130086   2.411   2.278   0.675  1.5284  0.4171  2.0864
 2865TIP3    H230087   2.442   2.181   0.563 -1.8645 -0.9145  2.2336
 2866TIP3   OH230088   0.967   1.529   5.014  0.1687  0.0606 -0.0094
 2866TIP3    H130089   1.039   1.537   5.076  0.1172  0.9685 -0.0528
 2866TIP3    H230090   1.009   1.529   4.928  0.1355  0.4600 -0.0291
 2867TIP3   OH230091   3.558   2.625   3.005 -0.0215 -0.1981 -0.2782
 2867TIP3    H130092   3.521   2.587   3.085  0.6545  0.5398  0.3993
 2867TIP3    H230093   3.636   2.572   2.987 -1.6290 -2.0522 -1.9732
 2868TIP3   OH230094   4.815   4.922   5.755 -0.6500  0.6450 -0.4149
 2868TIP3    H130095   4.904   4.903   5.785 -1.5981  1.0086  2.7644
 2868TIP3    H230096   4.807   4.874   5.672  2.2736  0.1122 -0.4443
 2869TIP3   OH230097   1.505   1.183  11.891 -0.1669 -0.1978  0.7064
 2869TIP3    H130098   1.445   1.236  11.839 -0.3809 -0.6446  0.4953
 2869TIP3    H230099   1.587   1.185  11.842 -0.1393  0.0388  0.7605
 2870TIP3   OH230100   3.463   0.461  12.687  0.2375 -0.2066  0.0205
 2870TIP3    H130101   3.511   0.523  12.633 -2.0150 -0.5162 -2.4541
 2870TIP3    H230102   3.442   0.389  12.628 -1.0097 -1.2512  1.6918
 2871TIP3   OH230103   2.304   5.905   0.667 -0.0044  0.5111 -0.2674
 2871TIP3    H130104   2.303   5.829   0.725 -0.1345  0.4954 -0.2885
 2871TIP3    H230105   2.373   5.885   0.603  1.0622  1.1371  0.6779
 2872TIP3   OH230106   6.398   4.489   2.607  0.2216  0.1218  0.1731
 2872TIP3    H130107   6.327   4.524   2.554 -0.9365  0.6254  1.9936
 2872TIP3    H230108   6.394   4.394   2.595  0.2310  0.2660 -0.9392
 2873TIP3   OH230109   6.273   1.823   3.797 -0.1086  0.3070 -0.4630
 2873TIP3    H130110   6.270   1.823   3.893  0.2081  0.9722 -0.4476
 2873TIP3    H230111   6.231   1.742   3.771 -1.1887  0.6500  0.2113
 2874TIP3   OH230112   6.214   4.761  13.820 -0.0073  0.0118  0.4481
 2874TIP3    H130113   6.159   4.686  13.799  0.2517  0.3945 -1.8211
 2874TIP3    H230114   6.176   4.799  13.899 -1.8122 -0.8650  0.0121
 2875TIP3   OH230115   1.718   0.755  11.876  0.0387 -0.0632 -0.2166
 2875TIP3    H130116   1.719   0.741  11.781  0.7337  2.9747 -0.7221
 2875TIP3    H230117   1.626   0.774  11.896  0.0503  0.2074 -0.4253
 2876TIP3   OH230118   1.912   4.079  11.859 -0.2743 -0.1890  0.0619
 2876TIP3    H130119   1.854   4.145  11.895  0.7945  0.6364  0.3146
 2876TIP3    H230120   1.985   4.129  11.821 -0.0080 -1.1660 -0.7518
 2877TIP3   OH230121   6.600   2.590  10.992 -0.0018  0.3322  0.3541
 2877TIP3    H130122   6.614   2.677  11.030  0.9874 -0.4489  1.8100
 2877TIP3    H230123   6.688   2.553  10.982 -0.3099  0.0879 -1.7054
 2878TIP3   OH230124   3.885   3.849  11.340  0.4366  0.3062  0.1021
 2878TIP3    H130125   3.971   3.885  11.318  0.4798  1.2474  1.7440
 2878TIP3    H230126   3.886   3.761  11.303  2.5013 -0.0605  0.9847
 2879TIP3   OH230127   1.960   1.015  13.591  0.0958 -0.2044  0.3390
 2879TIP3    H130128   2.037   1.072  13.595  0.3612 -0.5312 -0.0800
 2879TIP3    H230129   1.935   1.016  13.499 -1.0242  0.7265  0.6482
 2880TIP3   OH230130   1.922   3.721  15.359  0.1812  0.2124 -0.3929
 2880TIP3    H130131   1.909   3.761  15.273 -0.0057  0.0059 -0.4636
 2880TIP3    H230132   1.851   3.757  15.412  1.3824  1.7641  0.1945
 2881TIP3   OH230133   5.049   3.219  11.630 -0.3185 -0.8066  0.5946
 2881TIP3    H130134   4.956   3.240  11.626 -0.1657 -0.1432  0.4395
 2881TIP3    H230135   5.082   3.239  11.543  0.0983 -0.4010  0.8399
 2882TIP3   OH230136   2.365   6.515   5.555  0.5654  0.5586 -0.5873
 2882TIP3    H130137   2.460   6.528   5.553  0.8398 -1.0553  1.2983
 2882TIP3    H230138   2.349   6.465   5.634 -2.0213  1.8762 -0.2376
 2883TIP3   OH230139   4.868   2.049   6.576 -0.0063  0.5657  0.0232
 2883TIP3    H130140   4.782   2.093   6.572  1.0943  2.6937 -1.3854
 2883TIP3    H230141   4.847   1.956   6.581 -2.4295  1.1548  1.9133
 2884TIP3   OH230142   6.453   2.570  14.679 -0.4096  0.6364  0.0537
 2884TIP3    H130143   6.467   2.480  14.651 -0.8328  0.5121  0.2386
 2884TIP3    H230144   6.419   2.614  14.601 -2.0026  0.1866  0.4798
 2885TIP3   OH230145   0.150   3.494   5.204  0.1408  0.4997 -0.0365
 2885TIP3    H130146   0.151   3.589   5.192  0.6250  0.0964 -3.5473
 2885TIP3    H230147   0.058   3.473   5.223 -0.0251  1.6296  0.4154
 2886TIP3   OH230148   1.116   0.633   0.119 -0.1611  0.0413  0.3730
 2886TIP3    H130149   1.139   0.623   0.212  0.2528  0.9636  0.3742
 2886TIP3    H230150   1.187   0.589   0.072 -0.9092 -1.3490  0.5133
 2887TIP3   OH230151   3.950   2.565  14.977 -0.3419 -0.2150  0.2748
 2887TIP3    H130152   3.912   2.628  15.038  1.9809  0.6874  0.8710
 2887TIP3    H230153   3.965   2.616  14.897 -0.1503 -0.4715  0.1498
 2888TIP3   OH230154   1.872   2.441  12.066  0.0613 -0.6499  0.7902
 2888TIP3    H130155   1.839   2.529  12.045 -1.6231 -0.9779  1.9568
 2888TIP3    H230156   1.898   2.404  11.982 -2.6075 -0.3776 -0.2107
 2889TIP3   OH230157   6.550   2.935   5.292  0.0327 -0.1300  0.3402
 2889TIP3    H130158   6.536   2.928   5.387 -1.4849  1.2421  0.2403
 2889TIP3    H230159   6.463   2.930   5.254  0.4069  1.6060 -0.8221
 2890TIP3   OH230160   3.124   4.434   2.602 -0.4193 -0.1863  0.0141
 2890TIP3    H130161   3.127   4.530   2.612 -0.9940 -0.3672  2.3179
 2890TIP3    H230162   3.045   4.418   2.551  0.3883  0.6453 -1.5162
 2891TIP3   OH230163   4.923   1.073  12.615  0.0946  0.0443 -0.1662
 2891TIP3    H130164   4.829   1.084  12.600 -0.0246 -0.8107 -0.0836
 2891TIP3    H230165   4.964   1.122  12.544 -0.4381 -1.2147 -1.3791
 2892TIP3   OH230166   5.320   1.689  12.568 -0.0044  0.0432  0.1491
 2892TIP3    H130167   5.361   1.722  12.648 -1.5739 -0.1471  1.0621
 2892TIP3    H230168   5.317   1.594  12.580  0.5806 -0.0673 -0.5477
 2893TIP3   OH230169   6.132   5.026  15.206 -0.2490  0.0561 -0.2953
 2893TIP3    H130170   6.161   5.052  15.294  0.9559 -0.2199 -0.5903
 2893TIP3    H230171   6.197   4.961  15.179 -0.3384  0.5004 -1.5904
 2894TIP3   OH230172   5.644   3.166  16.208  0.1419  0.3391 -0.2075
 2894TIP3    H130173   5.707   3.193  16.274 -0.2231  0.7598 -0.0257
 2894TIP3    H230174   5.696   3.123  16.141  0.5966  0.5049  0.0345
 2895TIP3   OH230175   1.379   6.361  11.397  0.1714 -0.1167  0.2715
 2895TIP3    H130176   1.322   6.284  11.399 -0.8346  0.6571  2.5813
 2895TIP3    H230177   1.328   6.428  11.351  0.6560 -0.5008 -0.8493
 2896TIP3   OH230178   1.181   0.177   0.892 -0.2351  0.5784 -0.6256
 2896TIP3    H130179   1.116   0.114   0.924  1.0397 -1.3041 -1.6191
 2896TIP3    H230180   1.179   0.168   0.797  0.9902  0.9924 -0.7069
 2897TIP3   OH230181   3.674   4.767  17.004  0.7646  0.0423 -0.3300
 2897TIP3    H130182   3.737   4.806  16.944  1.7967 -0.1579  0.6239
 2897TIP3    H230183   3.638   4.842  17.052  2.2589 -0.0957  1.0306
 2898TIP3   OH230184   3.040   4.375  14.384 -0.2408  0.2891  0.1389
 2898TIP3    H130185   3.026   4.283  14.363 -0.8362  0.4648 -0.2491
 2898TIP3    H230186   3.095   4.408  14.313 -1.2544  0.5878 -0.5217
 2899TIP3   OH230187   2.941   2.823  16.120  0.0557 -0.1637 -0.3396
 2899TIP3    H130188   3.030   2.855  16.133  0.5144 -1.2261 -0.7866
 2899TIP3    H230189   2.888   2.902  16.107  1.4790  0.3673 -3.4220
 2900TIP3   OH230190   4.246   5.697   4.646  0.0308  0.2999 -0.3241
 2900TIP3    H130191   4.282   5.624   4.595 -1.6153  0.0154 -1.1154
 2900TIP3    H230192   4.236   5.767   4.582  1.4544  1.1850  0.4045
 2901TIP3   OH230193   6.041   4.247   5.410  0.2514 -0.2696 -0.0700
 2901TIP3    H130194   6.022   4.234   5.503  0.3824  0.5247  0.0662
 2901TIP3    H230195   6.047   4.158   5.375  0.5438 -0.5812  0.7498
 2902TIP3   OH230196   5.871   1.467  11.642  0.5196  0.4666  0.0801
 2902TIP3    H130197   5.911   1.501  11.562  1.1269 -0.3852  0.0078
 2902TIP3    H230198   5.850   1.545  11.693  1.0685  0.9806 -0.4653
 2903TIP3   OH230199   0.044   5.854   3.527 -0.5536 -0.3623 -0.1034
 2903TIP3    H130200   0.062   5.947   3.539 -1.2654 -0.2397  0.0349
 2903TIP3    H230201  -0.049   5.845   3.545 -0.3552 -1.2125  0.4998
 2904TIP3   OH230202   6.371   5.686   5.467 -0.5612  0.3004 -0.9167
 2904TIP3    H130203   6.357   5.591   5.469  0.8377  0.1029  0.5422
 2904TIP3    H230204   6.316   5.720   5.538 -0.4955  0.5078 -0.9644
 2905TIP3   OH230205   1.927   0.578  15.214 -0.1034 -0.0936  0.1441
 2905TIP3    H130206   1.924   0.595  15.308 -0.9849 -1.9502  0.4681
 2905TIP3    H230207   1.847   0.530  15.195 -0.1674  0.6836 -1.6555
 2906TIP3   OH230208   5.618   0.559  12.402  0.1126  0.2159 -0.2246
 2906TIP3    H130209   5.598   0.588  12.491 -0.8999  1.3365 -0.8059
 2906TIP3    H230210   5.534   0.530  12.366  0.7533 -1.5427 -0.3555
 2907TIP3   OH230211   1.601   3.517   1.426 -0.1890  0.0863  0.5765
 2907TIP3    H130212   1.531   3.580   1.447 -0.1647 -0.4384  2.2823
 2907TIP3    H230213   1.565   3.432   1.452  1.0475 -0.1947  1.3828
 2908TIP3   OH230214   0.821   1.757   6.692  0.3777 -0.1557 -0.2233
 2908TIP3    H130215   0.747   1.757   6.753 -0.0382  2.6060 -0.6551
 2908TIP3    H230216   0.897   1.738   6.747 -0.2685  0.1406  0.7885
 2909TIP3   OH230217   4.508   5.628   0.184 -0.0614 -1.0613 -0.1123
 2909TIP3    H130218   4.526   5.672   0.267  0.6889 -1.9886  0.2238
 2909TIP3    H230219   4.491   5.537   0.207  2.1466 -1.7841 -1.1209
 2910TIP3   OH230220   5.569   4.618   0.624 -0.2333  0.1095  0.0845
 2910TIP3    H130221   5.509   4.690   0.642 -0.0499  0.5565 -1.0465
 2910TIP3    H230222   5.561   4.603   0.530  0.0672 -1.0486  0.2366
 2911TIP3   OH230223   1.045   1.405   5.987  0.8939  0.2232  0.0879
 2911TIP3    H130224   1.049   1.489   6.033  1.8801 -0.0312  0.4925
 2911TIP3    H230225   1.055   1.339   6.056 -0.0151 -0.2313 -0.2122
 2912TIP3   OH230226   4.758   1.494   3.741  0.7571 -0.4853  0.0921
 2912TIP3    H130227   4.817   1.420   3.724  1.6526  0.3772 -0.6209
 2912TIP3    H230228   4.797   1.539   3.817  2.6022  1.6785 -2.0651
 2913TIP3   OH230229   3.066   2.677  14.485  0.4629 -0.2061 -0.4331
 2913TIP3    H130230   3.123   2.718  14.419 -0.1347  1.5409  0.0905
 2913TIP3    H230231   3.127   2.639  14.548  1.0528  0.2708 -0.7054
 2914TIP3   OH230232   5.529   6.156  14.102 -0.0913 -0.4035  0.1236
 2914TIP3    H130233   5.511   6.065  14.079  0.7060 -0.3033 -0.9635
 2914TIP3    H230234   5.564   6.194  14.022 -0.3217  0.8391  0.6044
 2915TIP3   OH230235   3.705   4.689   0.982 -0.5867  0.4902  0.7138
 2915TIP3    H130236   3.678   4.608   0.940  0.6936 -0.2091  1.2160
 2915TIP3    H230237   3.644   4.700   1.055 -2.1956  1.1951 -0.7226
 2916TIP3   OH230238   5.401   3.090  13.218  0.0569 -0.2739  0.6416
 2916TIP3    H130239   5.457   3.030  13.267  0.3817 -0.0917  0.4927
 2916TIP3    H230240   5.377   3.157  13.282  2.3720  1.2503 -0.0272
 2917TIP3   OH230241   0.029   0.140   0.266 -0.0260  0.4420  0.1528
 2917TIP3    H130242   0.104   0.081   0.263 -0.0915  0.3746 -0.1202
 2917TIP3    H230243  -0.034   0.102   0.205  0.1020  1.0330 -0.3479
 2918TIP3   OH230244   3.311   1.381  13.906 -0.1594 -0.1632 -0.5399
 2918TIP3    H130245   3.388   1.326  13.895  0.7169  1.2889 -1.7604
 2918TIP3    H230246   3.302   1.389  14.001  0.7837 -0.8817 -0.3730
 2919TIP3   OH230247   1.302   4.459  15.090 -0.1450  0.1371 -0.1302
 2919TIP3    H130248   1.394   4.459  15.118  0.4978 -0.3082 -2.1193
 2919TIP3    H230249   1.252   4.456  15.171  1.5916  1.1417  1.0040
 2920TIP3   OH230250   4.228   5.570   0.109 -0.3225 -0.3177  0.2464
 2920TIP3    H130251   4.310   5.605   0.143  0.0800  1.6753 -2.5726
 2920TIP3    H230252   4.161   5.604   0.168  0.8447 -2.4640  2.9452
 2921TIP3   OH230253   4.568   4.982  16.855  0.3538 -0.1438  0.3162
 2921TIP3    H130254   4.644   4.999  16.912 -0.2762  0.0735  1.1028
 2921TIP3    H230255   4.537   4.896  16.882  0.7150 -0.5221 -0.4622
 2922TIP3   OH230256   0.826   0.553   1.941  0.8765 -0.6542 -0.4066
 2922TIP3    H130257   0.738   0.539   1.905  0.2351 -1.7664  1.4908
 2922TIP3    H230258   0.817   0.630   1.998  1.2473 -0.4523 -0.6220
 2923TIP3   OH230259   5.602   5.939  13.166 -0.0809 -0.7041 -0.0153
 2923TIP3    H130260   5.531   5.982  13.213  1.3604  0.5702  1.0428
 2923TIP3    H230261   5.586   5.958  13.074  0.4651  2.0254  0.4230
 2924TIP3   OH230262   2.378   2.851   4.138 -0.3828 -0.0560  0.3303
 2924TIP3    H130263   2.338   2.909   4.202 -1.1993  1.2329 -1.3136
 2924TIP3    H230264   2.443   2.905   4.093 -0.7054 -0.5698 -0.7904
 2925TIP3   OH230265   1.014   4.726   4.630 -0.1061 -1.0673  0.7187
 2925TIP3    H130266   0.996   4.764   4.545  0.0651 -2.1673  0.1730
 2925TIP3    H230267   0.973   4.639   4.627 -1.7815 -0.3733  2.4558
 2926TIP3   OH230268   6.091   2.545  11.795  0.1841  0.2220  0.0342
 2926TIP3    H130269   6.088   2.455  11.764 -2.2396  0.3141 -0.1530
 2926TIP3    H230270   6.184   2.567  11.799  0.7274 -1.5690 -1.9816
 2927TIP3   OH230271   4.152   6.594   1.165  0.6168 -0.1864 -0.0464
 2927TIP3    H130272   4.125   6.650   1.238  1.6311 -0.4424  0.5296
 2927TIP3    H230273   4.247   6.596   1.167  0.6521 -0.0026 -1.5218
 2928TIP3   OH230274   5.633   1.007  11.592 -0.2932  0.1738 -0.4821
 2928TIP3    H130275   5.652   0.942  11.659 -1.2128  0.6881  0.2875
 2928TIP3    H230276   5.568   0.965  11.535 -0.0578  0.0083 -0.6300
 2929TIP3   OH230277   1.605   0.885   2.482 -0.5295 -0.3234 -0.0488
 2929TIP3    H130278   1.644   0.806   2.445  0.2691  0.0968 -0.1104
 2929TIP3    H230279   1.534   0.853   2.538 -0.2276 -1.0747 -0.0971
 2930TIP3   OH230280   1.138   6.468  13.017  0.1531 -0.2775  0.2265
 2930TIP3    H130281   1.153   6.507  12.931 -0.8930  2.2145  1.1252
 2930TIP3    H230282   1.043   6.452  13.020  0.4256 -1.9953  0.2641
 2931TIP3   OH230283   0.705   5.393   3.978 -0.1181 -0.3746  0.0841
 2931TIP3    H130284   0.729   5.308   4.015 -1.0219 -0.7918 -0.2650
 2931TIP3    H230285   0.658   5.371   3.897  0.3688  0.4776 -0.4416
 2932TIP3   OH230286   0.813   3.448   0.615  0.2595  0.5415 -0.4486
 2932TIP3    H130287   0.880   3.516   0.621  0.2643  0.4350  0.7929
 2932TIP3    H230288   0.775   3.443   0.703 -0.3640 -0.4305 -0.7581
 2933TIP3   OH230289   6.399   3.330  16.329  0.3243  0.0812  0.0918
 2933TIP3    H130290   6.449   3.340  16.411  2.1112 -0.9552 -0.8494
 2933TIP3    H230291   6.418   3.410  16.280  0.4602  0.0236  0.0521
 2934TIP3   OH230292   0.239   1.162   2.248 -0.3236 -0.3694 -0.3414
 2934TIP3    H130293   0.161   1.218   2.248 -0.7309 -0.9030  1.7181
 2934TIP3    H230294   0.308   1.218   2.212 -1.2557  0.6925 -0.5245
 2935TIP3   OH230295   5.015   6.609  15.806  0.3458  0.0513  0.3428
 2935TIP3    H130296   4.928   6.571  15.800  0.1156  0.3513  1.6156
 2935TIP3    H230297   5.066   6.544  15.855  0.6335  0.2152  0.2614
 2936TIP3   OH230298   3.769   6.719   4.121 -0.1494  0.2232  0.3553
 2936TIP3    H130299   3.853   6.756   4.148 -0.4973 -0.6879  2.7882
 2936TIP3    H230300   3.729   6.687   4.202 -3.4300  1.7780 -0.5513
 2937TIP3   OH230301   5.351   6.146   2.935  0.2584  0.2866 -0.2268
 2937TIP3    H130302   5.415   6.217   2.942  1.7725 -0.9215 -1.2765
 2937TIP3    H230303   5.390   6.074   2.984 -1.1950  0.1201  0.7036
 2938TIP3   OH230304   5.008   0.101  12.174 -0.0663 -0.2382  0.1273
 2938TIP3    H130305   4.970   0.172  12.122 -0.9139 -0.5706  0.2982
 2938TIP3    H230306   4.942   0.081  12.240  2.2059  2.3245  3.3803
 2939TIP3   OH230307   1.290   4.890   6.499  0.0522  0.5002  0.0246
 2939TIP3    H130308   1.378   4.926   6.490 -0.1481  0.7386 -0.9595
 2939TIP3    H230309   1.234   4.967   6.506 -0.0607  0.3462  0.8978
 2940TIP3   OH230310   6.608   2.165   0.596  0.1149 -0.5697 -0.0732
 2940TIP3    H130311   6.516   2.173   0.620  0.0746  0.2864 -0.4808
 2940TIP3    H230312   6.608   2.109   0.518 -0.5485  3.1689 -2.9255
 2941TIP3   OH230313   0.271   5.724  15.232 -0.2809  0.1187 -0.9690
 2941TIP3    H130314   0.204   5.674  15.279 -1.5176  2.2174 -0.4640
 2941TIP3    H230315   0.222   5.790  15.182  1.2772  0.3996 -2.1834
 2942TIP3   OH230316   4.273   5.786   2.305  0.1125  0.0196  0.1419
 2942TIP3    H130317   4.191   5.819   2.342 -0.4783  0.0890 -1.2010
 2942TIP3    H230318   4.341   5.840   2.345 -0.7793  2.4117 -1.4241
 2943TIP3   OH230319   5.787   5.188   6.007 -0.0868 -0.6066 -0.2059
 2943TIP3    H130320   5.779   5.231   6.092 -0.7320  0.1932 -0.6684
 2943TIP3    H230321   5.732   5.110   6.014  1.0142 -1.3226  0.6034
 2944TIP3   OH230322   2.874   2.864  15.537  0.8194 -0.7014 -0.8412
 2944TIP3    H130323   2.954   2.813  15.548  1.4569 -0.3768 -3.5960
 2944TIP3    H230324   2.849   2.850  15.446 -0.6271  1.5563 -0.8266
 2945TIP3   OH230325   4.126   4.094   3.707  0.3106  0.1380  0.6147
 2945TIP3    H130326   4.123   4.163   3.641  0.3707  0.5976  1.0906
 2945TIP3    H230327   4.035   4.073   3.724  0.3032 -0.2153  0.1418
 2946TIP3   OH230328   6.063   5.261  17.001  0.2139 -0.0809  0.2510
 2946TIP3    H130329   6.019   5.293  16.923 -0.6932  1.5736  1.4095
 2946TIP3    H230330   6.155   5.287  16.989 -0.5038  3.1064  1.1886
 2947TIP3   OH230331   6.459   4.550  16.585 -0.1642  0.1499  0.1969
 2947TIP3    H130332   6.436   4.567  16.676 -0.4638  1.5931 -0.1401
 2947TIP3    H230333   6.434   4.630  16.538 -2.0051 -1.3588 -1.5143
 2948TIP3   OH230334   1.557   2.196   6.377  0.5136  0.7985  0.2973
 2948TIP3    H130335   1.551   2.190   6.473 -2.1734 -2.1124  0.0267
 2948TIP3    H230336   1.469   2.175   6.347  1.7153  0.1827 -2.8976
 2949TIP3   OH230337   6.555   1.667  16.228 -0.1260  0.8027  0.0898
 2949TIP3    H130338   6.489   1.723  16.270  0.2695  0.1567  1.6112
 2949TIP3    H230339   6.543   1.581  16.269  1.1916  0.5051 -0.1388
 2950TIP3   OH230340   4.218   0.853  14.327 -0.3895 -0.5881  0.4509
 2950TIP3    H130341   4.212   0.915  14.399  0.3443 -0.1387  0.1379
 2950TIP3    H230342   4.129   0.848  14.292 -0.4212  0.4544  0.3506
 2951TIP3   OH230343   1.045   2.129   2.832  0.4607  0.3525  0.4289
 2951TIP3    H130344   0.951   2.116   2.816  0.7095 -0.6473 -0.2429
 2951TIP3    H230345   1.065   2.071   2.905  0.5221  0.7216  0.7089
 2952TIP3   OH230346   5.412   3.669   2.083 -0.5970  0.1110 -0.4877
 2952TIP3    H130347   5.371   3.727   2.019 -0.4990  0.6241 -0.0929
 2952TIP3    H230348   5.417   3.584   2.040 -0.1951  0.5416 -1.3024
 2953TIP3   OH230349   5.782   2.457   2.284 -0.8565  0.0993 -0.1902
 2953TIP3    H130350   5.855   2.508   2.320 -0.8777  0.4552 -0.6313
 2953TIP3    H230351   5.724   2.523   2.245 -1.1605 -0.2222 -0.2861
 2954TIP3   OH230352   4.988   3.637   5.830  0.2323  0.3693  0.4248
 2954TIP3    H130353   4.899   3.607   5.851  0.5244 -1.2803 -0.6385
 2954TIP3    H230354   4.978   3.684   5.747  0.5971 -1.1347 -0.4759
 2955TIP3   OH230355   1.382   6.133  14.578 -0.0435  0.0823  0.1576
 2955TIP3    H130356   1.418   6.148  14.666  0.1477 -0.1868  0.1252
 2955TIP3    H230357   1.354   6.041  14.580 -0.6966  0.2796  0.1744
 2956TIP3   OH230358   4.734   1.821   2.444  0.6068 -0.1941  0.0652
 2956TIP3    H130359   4.788   1.880   2.497 -1.2810  1.2771  0.4127
 2956TIP3    H230360   4.776   1.820   2.359  0.8078  1.4679  0.1358
 2957TIP3   OH230361   0.694   6.262   6.620 -0.0494 -0.3542  0.0694
 2957TIP3    H130362   0.613   6.225   6.587  0.3816 -1.0797 -0.1861
 2957TIP3    H230363   0.667   6.343   6.665 -0.7254  0.2389 -1.3686
 2958TIP3   OH230364   3.160   5.982   5.174  0.2220  0.1905 -0.2194
 2958TIP3    H130365   3.247   5.958   5.143  0.5479  0.5159  0.4427
 2958TIP3    H230366   3.131   5.908   5.227 -0.2155 -0.2399 -1.0521
 2959TIP3   OH230367   0.433   6.731  14.442 -0.1499 -0.1601  0.4416
 2959TIP3    H130368   0.490   6.690  14.377 -0.5324  2.7069 -1.7883
 2959TIP3    H230369   0.350   6.742  14.397 -0.5772  1.4127  1.5785
 2960TIP3   OH230370   4.371   1.795  14.575  0.3402  0.8773  0.6601
 2960TIP3    H130371   4.450   1.841  14.603 -0.0391  1.7237  0.3565
 2960TIP3    H230372   4.311   1.803  14.650  0.9266 -0.7000  1.3132
 2961TIP3   OH230373   2.730   0.142   5.386  0.1872  0.1716 -0.6180
 2961TIP3    H130374   2.692   0.114   5.469 -0.9505 -1.3377 -1.6119
 2961TIP3    H230375   2.777   0.064   5.355  2.3446  1.3609 -0.4168
 2962TIP3   OH230376   2.298   3.818  13.140 -0.5153 -0.6777 -0.0682
 2962TIP3    H130377   2.363   3.782  13.079 -0.1750 -0.7550  0.3429
 2962TIP3    H230378   2.215   3.783  13.108 -0.4650  0.1400 -1.1345
 2963TIP3   OH230379   2.686   4.206   4.217 -0.0589  0.6713 -0.0530
 2963TIP3    H130380   2.721   4.240   4.135  1.0043  0.5135  0.3208
 2963TIP3    H230381   2.739   4.248   4.285 -2.0765  2.1668  0.6612
 2964TIP3   OH230382   6.801   4.544   3.459 -0.2432  0.5445  0.1965
 2964TIP3    H130383   6.869   4.610   3.448 -0.8252  0.9739 -0.9364
 2964TIP3    H230384   6.729   4.574   3.403 -0.6891 -0.8072  0.0253
 2965TIP3   OH230385   2.177   5.886   1.170  0.0236 -0.1358  0.2328
 2965TIP3    H130386   2.136   5.807   1.136 -0.4324  0.1926  0.0099
 2965TIP3    H230387   2.230   5.856   1.244  0.3772 -0.7367 -0.2633
 2966TIP3   OH230388   3.043   6.052  12.921 -0.3716  0.5863 -0.6964
 2966TIP3    H130389   3.134   6.058  12.950 -1.1729  2.9755  1.6250
 2966TIP3    H230390   3.040   6.107  12.842  0.3911 -0.3312 -1.3779
 2967TIP3   OH230391   4.574   4.268   2.624 -0.4706 -0.2688 -0.1626
 2967TIP3    H130392   4.518   4.222   2.562 -0.1113 -0.2594 -0.4967
 2967TIP3    H230393   4.661   4.230   2.611 -0.1640  0.5428 -0.4749
 2968TIP3   OH230394   4.824   2.337  12.279  0.0267 -0.3308 -0.7328
 2968TIP3    H130395   4.826   2.316  12.372  1.5253  1.1292 -0.4025
 2968TIP3    H230396   4.841   2.254  12.234  2.3616 -0.4885  0.3988
 2969TIP3   OH230397   5.042   3.422  15.975  0.1244  0.7429 -0.2037
 2969TIP3    H130398   5.061   3.501  15.925  0.1904 -0.0845 -1.4957
 2969TIP3    H230399   5.127   3.378  15.983 -0.2360 -0.1506 -1.1537
 2970TIP3   OH230400   3.637   5.141   5.813 -0.1000 -0.0801  0.3071
 2970TIP3    H130401   3.728   5.147   5.841 -0.3216  0.0452  1.0066
 2970TIP3    H230402   3.607   5.056   5.845 -0.2635 -0.0683  0.1871
 2971TIP3   OH230403   3.356   4.955  12.268 -0.1664 -0.2668  0.2422
 2971TIP3    H130404   3.395   4.887  12.323  0.6765  2.3904  3.0688
 2971TIP3    H230405   3.425   5.020  12.257 -1.5397  1.0652 -0.7976
 2972TIP3   OH230406   2.170   3.418  16.469 -0.3006  0.2001  0.6383
 2972TIP3    H130407   2.255   3.442  16.433  0.3264 -0.0901  1.9163
 2972TIP3    H230408   2.162   3.325  16.451 -0.3486  0.2242  0.5313
 2973TIP3   OH230409   3.013   2.409  11.970  0.4501  0.1189  0.3200
 2973TIP3    H130410   3.107   2.409  11.952  0.5043 -0.8061  0.5746
 2973TIP3    H230411   3.004   2.356  12.049 -0.5538 -2.0917 -1.2288
 2974TIP3   OH230412   3.506   3.422  14.569  0.0668 -0.0826 -0.5967
 2974TIP3    H130413   3.494   3.364  14.494  1.2067  1.7880 -2.2920
 2974TIP3    H230414   3.514   3.509  14.531 -1.9565  1.2641  1.9184
 2975TIP3   OH230415   3.422   1.924   6.321 -0.0680  0.1177  0.6151
 2975TIP3    H130416   3.397   1.892   6.407 -1.9332  0.7886  0.3474
 2975TIP3    H230417   3.515   1.900   6.312  0.1249 -0.0243  2.7606
 2976TIP3   OH230418   3.739   2.575   0.159 -0.8637 -0.2772  0.0829
 2976TIP3    H130419   3.760   2.496   0.209  0.4310  0.8754  1.4118
 2976TIP3    H230420   3.694   2.543   0.081 -0.3148 -2.3260  0.5817
 2977TIP3   OH230421   5.013   0.683  17.114 -0.4228 -0.0087 -0.1645
 2977TIP3    H130422   5.090   0.732  17.142 -0.1582 -0.5235  0.0146
 2977TIP3    H230423   5.020   0.599  17.159 -1.6491  0.3258  0.6861
 2978TIP3   OH230424   1.214   4.237   5.956  0.2747  0.1307 -0.4832
 2978TIP3    H130425   1.154   4.266   5.888 -2.3524  2.6082  2.7375
 2978TIP3    H230426   1.185   4.149   5.979 -0.0676  0.0602 -1.1998
 2979TIP3   OH230427   2.286   5.819  16.705 -0.1608 -0.0275  0.3963
 2979TIP3    H130428   2.343   5.881  16.751  0.9357  1.0398 -2.2792
 2979TIP3    H230429   2.346   5.760  16.660 -1.2067 -1.2156  0.5130
 2980TIP3   OH230430   0.985   1.875  13.084 -0.5517  0.2890  0.4046
 2980TIP3    H130431   0.983   1.970  13.093 -0.5840  0.0876  3.1302
 2980TIP3    H230432   0.916   1.844  13.142  0.8892 -1.4722  1.2467
 2981TIP3   OH230433   3.312   4.616  15.113  0.5383 -0.0720  0.0260
 2981TIP3    H130434   3.287   4.576  15.030  2.0401 -2.5706  0.7382
 2981TIP3    H230435   3.258   4.571  15.178  1.8041 -0.5235  0.7742
 2982TIP3   OH230436   0.303   1.536  13.106  0.0044  0.1638 -0.0951
 2982TIP3    H130437   0.243   1.554  13.034  1.0339  1.6057 -0.6167
 2982TIP3    H230438   0.372   1.482  13.067 -0.0160  0.0153  0.0745
 2983TIP3   OH230439   6.094   0.148  12.889 -0.1599  0.1284  0.1264
 2983TIP3    H130440   6.000   0.165  12.902 -0.1549  0.3965 -0.1844
 2983TIP3    H230441   6.136   0.192  12.963 -0.0427  2.6958 -1.4239
 2984TIP3   OH230442   1.314   1.799  16.788 -0.1525  0.0073  0.1982
 2984TIP3    H130443   1.227   1.783  16.824  0.5348  0.0531  1.9205
 2984TIP3    H230444   1.339   1.717  16.747 -0.5188 -0.3907  0.7632
 2985TIP3   OH230445   5.952   0.714  16.517  0.0489  0.3940  0.5568
 2985TIP3    H130446   5.946   0.660  16.596 -1.7634 -0.1189  0.0896
 2985TIP3    H230447   5.970   0.651  16.447 -1.8304  0.3826  0.0451
 2986TIP3   OH230448   1.169   2.251  14.369  0.5071  0.1240  0.5380
 2986TIP3    H130449   1.165   2.340  14.406  0.1197  0.5492 -0.5011
 2986TIP3    H230450   1.078   2.222  14.367  0.8249 -1.0681  2.6847
 2987TIP3   OH230451   4.460   3.009  12.434  0.0624  0.0753  0.0496
 2987TIP3    H130452   4.505   3.057  12.504  0.8240 -0.2079 -0.2356
 2987TIP3    H230453   4.514   2.931  12.420 -0.1185  0.0974 -0.8119
 2988TIP3   OH230454   6.108   3.788  15.143  0.5926 -0.5134 -0.6181
 2988TIP3    H130455   6.154   3.847  15.202  0.6279 -1.0555 -0.0926
 2988TIP3    H230456   6.143   3.808  15.057  1.1548 -0.2942 -0.3440
 2989TIP3   OH230457   3.460   5.629   3.177 -0.5449 -0.2889 -0.0836
 2989TIP3    H130458   3.394   5.566   3.205 -2.0800  0.8570 -1.0551
 2989TIP3    H230459   3.520   5.578   3.122 -2.4712 -0.6568 -1.8946
 2990TIP3   OH230460   1.638   5.606  11.079 -0.1485 -0.4888  0.1335
 2990TIP3    H130461   1.726   5.611  11.041  0.0335 -0.6098  0.5438
 2990TIP3    H230462   1.607   5.697  11.080  0.1789 -0.3814  0.4855
 2991TIP3   OH230463   2.835   5.877  15.715  1.0054  0.5835  0.0312
 2991TIP3    H130464   2.787   5.929  15.650  0.3449 -0.0774 -0.0102
 2991TIP3    H230465   2.866   5.942  15.778 -0.1335  0.9940  0.1838
 2992TIP3   OH230466   1.291   4.389   0.129  0.2415  0.5801  0.0606
 2992TIP3    H130467   1.269   4.316   0.071 -3.3696  1.0463  0.6632
 2992TIP3    H230468   1.338   4.349   0.202  2.7616 -0.3482 -2.0326
 2993TIP3   OH230469   0.213   2.638  14.898  0.1688  0.3890 -0.1557
 2993TIP3    H130470   0.212   2.600  14.986 -0.6589  2.0632  0.5910
 2993TIP3    H230471   0.298   2.683  14.893  0.2641  0.1967 -0.2456
 2994TIP3   OH230472   3.805   0.102  15.341 -0.5036 -0.2290  1.2377
 2994TIP3    H130473   3.809   0.043  15.266  0.7712  0.8037  0.4941
 2994TIP3    H230474   3.712   0.103  15.365 -0.5231 -2.6696  1.3777
 2995TIP3   OH230475   6.016   0.387  13.718  0.2580  0.0611 -0.1005
 2995TIP3    H130476   6.072   0.458  13.751  1.0622 -0.7736  0.3435
 2995TIP3    H230477   5.935   0.431  13.692  1.3538  1.3745 -1.3407
 2996TIP3   OH230478   1.317   1.810  16.375 -0.1851 -0.3130  0.1183
 2996TIP3    H130479   1.255   1.764  16.432 -1.7579  1.3328 -0.2303
 2996TIP3    H230480   1.340   1.889  16.423  0.8389 -0.3947 -0.2250
 2997TIP3   OH230481   4.676   4.951  16.606 -0.1226  0.2251 -0.5374
 2997TIP3    H130482   4.723   4.995  16.677 -0.0066  1.0463 -1.1191
 2997TIP3    H230483   4.641   4.871  16.646  0.2564  0.5001  0.3460
 2998TIP3   OH230484   4.537   6.696  16.790 -0.5008  0.9931 -0.4408
 2998TIP3    H130485   4.531   6.765  16.856 -1.6518 -0.5713  1.1467
 2998TIP3    H230486   4.623   6.657  16.803 -0.4883  1.0788 -0.2718
 2999TIP3   OH230487   2.449   2.098   2.808  0.0698 -0.0580  0.5614
 2999TIP3    H130488   2.452   2.028   2.742 -0.7478  0.6398 -0.2244
 2999TIP3    H230489   2.482   2.056   2.888  0.4741 -1.0875 -0.1246
 3000TIP3   OH230490   2.832   3.600  17.289 -0.3741  0.7196 -0.5948
 3000TIP3    H130491   2.894   3.532  17.265  0.3567  1.0080  0.4568
 3000TIP3    H230492   2.756   3.552  17.323  0.7405  0.4375  1.5913
 3001TIP3   OH230493   4.553   6.535  11.030 -0.2186 -0.0225 -0.4550
 3001TIP3    H130494   4.589   6.535  11.119 -0.7385  1.0933 -0.2374
 3001TIP3    H230495   4.630   6.526  10.974  0.1651 -0.1910  0.0911
 3002TIP3   OH230496   0.110   2.253  14.741  0.4571 -0.3092  1.3323
 3002TIP3    H130497   0.166   2.331  14.742  1.2539 -0.8616  0.3312
 3002TIP3    H230498   0.144   2.198  14.812 -0.3520  0.4019  2.2984
 3003TIP3   OH230499   3.569   1.940  14.130  0.0670 -1.0060  0.4797
 3003TIP3    H130500   3.561   1.957  14.224  1.7832  0.6924  0.3541
 3003TIP3    H230501   3.658   1.968  14.109 -1.0141  0.7043 -2.0647
 3004TIP3   OH230502   4.511   3.609   2.847 -0.7589 -0.7620 -0.5063
 3004TIP3    H130503   4.467   3.693   2.847 -2.1455 -1.4699 -2.1944
 3004TIP3    H230504   4.461   3.556   2.910  1.5919  0.3835  2.4374
 3005TIP3   OH230505   1.594   3.943  14.696 -0.9528 -0.3658  0.1614
 3005TIP3    H130506   1.666   3.918  14.754 -0.4936  1.0759  0.2275
 3005TIP3    H230507   1.529   3.984  14.753 -1.3080 -0.5873 -0.0746
 3006TIP3   OH230508   3.025   2.144   4.041 -0.0397 -0.4404 -0.0707
 3006TIP3    H130509   3.077   2.152   3.961  0.4484 -0.1421  0.2743
 3006TIP3    H230510   3.083   2.101   4.103  0.1938  0.9097  0.6713
 3007TIP3   OH230511   1.441   5.720   4.983  0.1314  0.1751 -0.1207
 3007TIP3    H130512   1.517   5.720   4.925  0.0859 -3.1132 -0.3063
 3007TIP3    H230513   1.469   5.668   5.059 -1.8192 -0.9026 -0.1028
 3008TIP3   OH230514   1.222   4.758   0.753 -0.0065  0.4217  0.3351
 3008TIP3    H130515   1.295   4.698   0.769 -0.8775 -0.7859 -0.1416
 3008TIP3    H230516   1.191   4.781   0.841 -0.2404 -0.5324  0.5071
 3009TIP3   OH230517   1.837   2.674   2.457  0.1585 -0.4841 -0.1389
 3009TIP3    H130518   1.785   2.626   2.522  1.6661  1.0683  2.2808
 3009TIP3    H230519   1.866   2.606   2.396 -1.3453 -1.9844  0.7520
 3010TIP3   OH230520   0.113   2.902   5.204 -0.4240 -0.1481 -0.0639
 3010TIP3    H130521   0.196   2.893   5.251 -0.9833 -0.5058  0.8737
 3010TIP3    H230522   0.129   2.971   5.140 -0.0679  1.3223  1.5842
 3011TIP3   OH230523   3.426   3.267  11.708  0.6204 -0.1820 -0.1177
 3011TIP3    H130524   3.462   3.321  11.778  2.2217 -0.6057 -0.5867
 3011TIP3    H230525   3.352   3.317  11.674 -0.4907 -0.2127  2.2060
 3012TIP3   OH230526   5.734   1.958  16.183 -0.3789 -0.6526 -0.0210
 3012TIP3    H130527   5.809   1.971  16.241 -1.6772 -1.3744  1.8623
 3012TIP3    H230528   5.767   1.903  16.112  0.9269 -0.7463  0.6553
 3013TIP3   OH230529   0.566   3.914   6.306  0.5546  0.1636 -0.0937
 3013TIP3    H130530   0.491   3.906   6.365  2.0601  0.8787  1.9871
 3013TIP3    H230531   0.539   3.979   6.241 -0.0630  1.6255  1.5882
 3014TIP3   OH230532   2.850   4.492  15.977 -0.0948  0.0054 -0.0801
 3014TIP3    H130533   2.936   4.482  16.018  0.0661 -1.6376 -0.7705
 3014TIP3    H230534   2.859   4.448  15.893 -1.1707  1.1682 -0.8102
 3015TIP3   OH230535   0.688   5.301  14.401 -0.3567 -0.3138 -0.0392
 3015TIP3    H130536   0.674   5.207  14.399 -0.5073 -0.2821 -0.7740
 3015TIP3    H230537   0.694   5.326  14.309  2.0245  0.0437  0.1646
 3016TIP3   OH230538   2.919   1.825   0.300 -0.0181 -0.6079  0.0814
 3016TIP3    H130539   3.010   1.853   0.284  0.2578 -1.0305  0.9045
 3016TIP3    H230540   2.927   1.741   0.345 -0.8285 -0.8700 -0.2572
 3017TIP3   OH230541   3.141   3.939  10.679 -0.1048 -0.0143 -0.0769
 3017TIP3    H130542   3.089   4.014  10.705 -0.8939 -0.4407 -0.3926
 3017TIP3    H230543   3.093   3.863  10.713  1.8463 -0.2684  2.1867
 3018TIP3   OH230544   5.277   3.158   3.000  0.2988 -0.0128  0.7440
 3018TIP3    H130545   5.352   3.145   3.058  0.4720  0.1787  0.5685
 3018TIP3    H230546   5.275   3.080   2.945 -0.8539 -0.9393  2.0922
 3019TIP3   OH230547   6.138   1.655  14.784 -0.3192  0.5591  0.1497
 3019TIP3    H130548   6.094   1.730  14.824 -0.0898  0.4409  0.6394
 3019TIP3    H230549   6.177   1.689  14.704  0.3916  1.1421  0.7297
 3020TIP3   OH230550   2.186   3.738   3.000 -0.1489  0.0513  0.0817
 3020TIP3    H130551   2.168   3.779   3.084 -1.6960  2.5834 -1.4245
 3020TIP3    H230552   2.212   3.810   2.943 -0.3651 -1.4360 -1.9605
 3021TIP3   OH230553   0.770   5.314  15.185 -0.5462  0.4730 -0.0497
 3021TIP3    H130554   0.822   5.238  15.211 -1.3103  0.4354  1.4115
 3021TIP3    H230555   0.832   5.371  15.139  0.1000 -0.8793 -0.8771
 3022TIP3   OH230556   0.874   3.593   2.362  0.2829  0.0706  0.4690
 3022TIP3    H130557   0.829   3.589   2.278  1.5646 -1.3521 -0.1761
 3022TIP3    H230558   0.806   3.614   2.425 -0.6212  1.6290 -0.9710
 3023TIP3   OH230559   4.215   2.917  13.205 -0.2200  0.2776  1.1597
 3023TIP3    H130560   4.144   2.946  13.148 -0.2359  1.2316  1.6615
 3023TIP3    H230561   4.245   2.996  13.249  2.4278  0.2310 -0.4366
 3024TIP3   OH230562   2.914   3.634   0.842  0.3713  0.0114 -0.3521
 3024TIP3    H130563   2.976   3.634   0.769  1.5287  0.3608  0.6296
 3024TIP3    H230564   2.877   3.545   0.842 -1.6386  0.7680 -3.0212
 3025TIP3   OH230565   1.217   2.657  12.117  0.5583 -0.6032  0.0240
 3025TIP3    H130566   1.126   2.667  12.143 -0.0502 -0.3862 -2.0417
 3025TIP3    H230567   1.216   2.670  12.022  2.6642 -1.1138 -0.0979
 3026TIP3   OH230568   3.957   3.369   5.347  0.3033  0.0284  0.1315
 3026TIP3    H130569   3.963   3.405   5.436  1.0012  2.2019 -0.7826
 3026TIP3    H230570   4.007   3.288   5.351 -2.1625 -1.4644  2.4896
 3027TIP3   OH230571   2.905   0.904  17.093 -0.1444 -0.9088 -0.6500
 3027TIP3    H130572   2.940   0.911  17.182 -0.7378  1.2133 -0.5762
 3027TIP3    H230573   2.831   0.843  17.101 -0.3835 -0.4903  0.3685
 3028TIP3   OH230574   1.249   3.135   4.000  0.2234 -0.1961  0.0678
 3028TIP3    H130575   1.306   3.211   3.991  0.9599 -0.7726 -0.2090
 3028TIP3    H230576   1.169   3.169   4.040  0.1985  0.8887 -0.8600
 3029TIP3   OH230577   4.777   2.312  12.937 -0.1059  0.0896 -0.1808
 3029TIP3    H130578   4.790   2.218  12.947  1.3471  0.1597 -1.1202
 3029TIP3    H230579   4.861   2.350  12.962 -0.0738  0.9871 -1.5803
 3030TIP3   OH230580   2.258   1.265   3.929 -0.8222  0.0895  0.1974
 3030TIP3    H130581   2.256   1.235   4.020  0.2152  1.7545  0.7771
 3030TIP3    H230582   2.349   1.256   3.903 -1.2912 -1.3182 -1.0147
 3031TIP3   OH230583   6.136   3.656  11.770 -0.8922  0.0514 -0.6683
 3031TIP3    H130584   6.200   3.705  11.717  0.1575 -0.0930  0.4473
 3031TIP3    H230585   6.185   3.582  11.804 -0.8886  1.3926  2.4065
 3032TIP3   OH230586   1.454   1.160  17.148  0.6550 -0.6342  0.3665
 3032TIP3    H130587   1.508   1.163  17.069 -1.4894  0.9705 -1.0973
 3032TIP3    H230588   1.406   1.077  17.141 -0.9111  0.3465 -1.0225
 3033TIP3   OH230589   1.680   2.323   4.007 -0.6196  0.1887 -0.1817
 3033TIP3    H130590   1.770   2.292   3.993 -1.0929 -0.4776 -1.8570
 3033TIP3    H230591   1.628   2.243   4.015 -1.6816  0.4930 -3.3841
 3034TIP3   OH230592   4.607   3.270  14.220  0.3513  0.6640  0.3343
 3034TIP3    H130593   4.594   3.187  14.175 -0.2251  0.3762  1.0299
 3034TIP3    H230594   4.554   3.333  14.171 -1.5920  0.0236  1.5716
 3035TIP3   OH230595   3.334   6.233  11.994  0.3918  0.8549  0.1594
 3035TIP3    H130596   3.399   6.276  12.049  0.5041  0.7898  0.0766
 3035TIP3    H230597   3.361   6.251  11.904  1.1213 -0.4139  0.1180
 3036TIP3   OH230598   2.097   2.580   2.022 -0.0389 -0.2957 -0.1830
 3036TIP3    H130599   2.016   2.549   1.981 -1.2569  0.1074  1.8517
 3036TIP3    H230600   2.095   2.675   2.008 -0.1820 -0.2249  0.3124
 3037TIP3   OH230601   2.716   5.334  10.619 -0.1187  0.0438 -0.1540
 3037TIP3    H130602   2.752   5.246  10.607 -0.6278 -0.0869 -0.7347
 3037TIP3    H230603   2.766   5.370  10.693 -0.4158 -1.0092  0.5816
 3038TIP3   OH230604   1.515   4.480  15.886  0.2699 -0.0510 -0.2289
 3038TIP3    H130605   1.424   4.452  15.879  1.0235 -2.8618  0.4693
 3038TIP3    H230606   1.511   4.575  15.894 -2.6715 -0.2632  1.3827
 3039TIP3   OH230607   3.506   2.795   5.220  0.4988 -0.2340  0.0952
 3039TIP3    H130608   3.427   2.804   5.167  0.2446 -0.0998  0.4919
 3039TIP3    H230609   3.544   2.883   5.221  0.9024 -0.4013 -0.4798
 3040TIP3   OH230610   3.050   2.421  12.421 -0.0483  0.1055 -0.5081
 3040TIP3    H130611   2.997   2.359  12.471 -0.9706  0.8008 -0.6147
 3040TIP3    H230612   3.087   2.480  12.487 -2.4000  1.8884 -0.7461
 3041TIP3   OH230613   3.836   3.703  16.975  0.2538  0.6729  0.0535
 3041TIP3    H130614   3.873   3.632  16.923 -1.0612 -0.7900  1.0542
 3041TIP3    H230615   3.902   3.772  16.972  2.2573 -1.1613  0.3114
 3042TIP3   OH230616   5.366   3.607  11.300  0.3448 -0.4993  0.4858
 3042TIP3    H130617   5.308   3.543  11.339  0.0451  0.6902  2.0463
 3042TIP3    H230618   5.354   3.686  11.353 -1.5954  1.8149 -3.2425
 3043TIP3   OH230619   1.932   3.074   2.872 -0.1825  0.0212 -0.1998
 3043TIP3    H130620   1.844   3.046   2.845 -0.0934 -0.9652  0.5321
 3043TIP3    H230621   1.936   3.054   2.965  1.2540 -1.0527 -0.4832
 3044TIP3   OH230622   3.524   6.104   5.583  0.1642 -0.1969 -0.2597
 3044TIP3    H130623   3.437   6.064   5.594 -0.2122  0.6081 -0.2584
 3044TIP3    H230624   3.537   6.154   5.663  0.9238 -0.8418  0.0309
 3045TIP3   OH230625   0.399   2.343  10.936 -0.1956  0.0845 -0.8519
 3045TIP3    H130626   0.409   2.438  10.936  1.5696 -0.0854  0.0268
 3045TIP3    H230627   0.449   2.313  10.860 -0.8830 -0.1390 -1.2232
 3046TIP3   OH230628   1.181   2.883   6.209  0.4793  0.3244 -0.1108
 3046TIP3    H130629   1.246   2.835   6.157  0.4596  0.1044  0.0670
 3046TIP3    H230630   1.177   2.836   6.291  0.6588  0.7901  0.1692
 3047TIP3   OH230631   3.768   5.421  13.413  0.2673  0.1717  0.1929
 3047TIP3    H130632   3.688   5.475  13.419  1.2176  1.6592 -0.2592
 3047TIP3    H230633   3.735   5.333  13.392 -1.3163  0.5352  1.0020
 3048TIP3   OH230634   6.713   4.748  14.944 -0.0874 -0.7153 -0.4930
 3048TIP3    H130635   6.704   4.681  14.876 -2.6129 -0.1799 -0.7580
 3048TIP3    H230636   6.676   4.828  14.904  0.4302  0.1556  0.7334
 3049TIP3   OH230637   0.038   5.062   2.444 -0.4665  0.5580  0.4575
 3049TIP3    H130638   0.017   5.090   2.355  1.1012  1.5393  0.3747
 3049TIP3    H230639   0.076   4.975   2.433 -0.4578  0.5959  0.1801
 3050TIP3   OH230640   3.584   2.470  10.844 -0.0839 -0.2849 -0.4326
 3050TIP3    H130641   3.507   2.519  10.873  0.0297  0.7828 -1.9041
 3050TIP3    H230642   3.550   2.383  10.822 -1.1304  0.5609 -2.3031
 3051TIP3   OH230643   0.266   3.354   4.588 -0.1874  0.4235 -0.0413
 3051TIP3    H130644   0.340   3.305   4.553 -0.4304 -0.6676  0.9563
 3051TIP3    H230645   0.296   3.389   4.671  0.0944  2.2786 -0.9019
 3052TIP3   OH230646   6.087   5.033   2.217 -0.7576 -0.4901  0.2579
 3052TIP3    H130647   6.040   4.997   2.292  2.1246  0.1339  2.4560
 3052TIP3    H230648   6.067   5.127   2.219 -1.0437 -0.5458 -0.0254
 3053TIP3   OH230649   1.063   1.547  11.824  0.1949 -0.4760 -0.1765
 3053TIP3    H130650   1.141   1.572  11.874  0.5954 -2.0593  0.0059
 3053TIP3    H230651   1.026   1.473  11.873  1.4519 -3.0870 -3.0048
 3054TIP3   OH230652   4.853   3.379  10.799 -0.0272  0.1054  0.1638
 3054TIP3    H130653   4.872   3.343  10.885  0.5005 -0.4511 -0.1821
 3054TIP3    H230654   4.911   3.331  10.739  0.5050  1.3470 -0.3370
 3055TIP3   OH230655   0.996   0.706   3.714 -0.1687 -0.8688 -0.6227
 3055TIP3    H130656   1.002   0.782   3.772 -1.8635 -0.3207 -1.1492
 3055TIP3    H230657   0.904   0.681   3.715  0.1261 -2.0668 -1.5494
 3056TIP3   OH230658   1.575   1.611   0.771 -0.5223 -0.5044  0.5325
 3056TIP3    H130659   1.664   1.582   0.787 -0.3545 -0.4589 -0.3300
 3056TIP3    H230660   1.520   1.536   0.795 -0.1995 -0.8697  0.1381
 3057TIP3   OH230661   1.542   5.714   5.276  0.5981 -0.2429  0.4013
 3057TIP3    H130662   1.586   5.770   5.212 -1.3434  0.0074 -0.7829
 3057TIP3    H230663   1.546   5.626   5.237 -0.7923 -0.0524 -0.2292
 3058TIP3   OH230664   3.167   2.880   5.972 -0.2193  0.6268 -0.2667
 3058TIP3    H130665   3.246   2.876   6.026 -1.3032 -1.1451  1.2525
 3058TIP3    H230666   3.111   2.945   6.016 -1.3211 -1.2018  1.0985
 3059TIP3   OH230667   4.244   3.370  15.470  0.2818 -0.2393  0.3304
 3059TIP3    H130668   4.317   3.391  15.528 -0.0561 -0.2240  0.7556
 3059TIP3    H230669   4.184   3.318  15.525  0.3069 -0.8507 -0.2162
 3060TIP3   OH230670   5.778   6.149   2.985  0.5811  0.0418 -0.4141
 3060TIP3    H130671   5.822   6.202   2.919 -0.8634 -0.4660 -1.8056
 3060TIP3    H230672   5.818   6.063   2.977  3.0547  0.8827  1.9675
 3061TIP3   OH230673   0.619   1.735  15.278 -0.1879  0.3848 -0.1924
 3061TIP3    H130674   0.563   1.787  15.220 -0.9688  0.6141  0.7577
 3061TIP3    H230675   0.652   1.665  15.223 -1.1516  0.4381 -0.8501
 3062TIP3   OH230676   6.199   1.170   3.088  0.6581  0.2272 -0.1667
 3062TIP3    H130677   6.127   1.232   3.080 -0.0893 -0.5703  0.1922
 3062TIP3    H230678   6.246   1.198   3.167 -0.9411 -0.9008  1.2299
 3063TIP3   OH230679   4.921   4.093   4.660  0.5878 -0.1328 -0.2425
 3063TIP3    H130680   4.847   4.068   4.715  0.3966 -0.7011 -0.7495
 3063TIP3    H230681   4.895   4.065   4.572  0.8027  0.9473 -0.6559
 3064TIP3   OH230682   6.399   0.918   0.988 -0.0589  0.2437 -0.1087
 3064TIP3    H130683   6.346   0.995   0.970  0.0132  0.2778 -0.1729
 3064TIP3    H230684   6.484   0.936   0.947  0.0669  0.2733  0.1612
 3065TIP3   OH230685   1.170   3.520  15.576  0.8335  0.2048 -0.0468
 3065TIP3    H130686   1.142   3.524  15.485  1.5949 -1.2623 -0.3576
 3065TIP3    H230687   1.096   3.482  15.622 -0.1285  2.3170  0.2199
 3066TIP3   OH230688   1.180   0.330  16.015 -0.5444  0.3735  0.3731
 3066TIP3    H130689   1.204   0.356  15.926  1.1815 -0.4801  0.5665
 3066TIP3    H230690   1.257   0.353  16.068 -0.2907 -1.9870  1.0903
 3067TIP3   OH230691   4.032   2.181   5.719  0.1452  0.3305  0.2385
 3067TIP3    H130692   4.069   2.260   5.680  1.1125 -0.5961 -0.7739
 3067TIP3    H230693   4.108   2.133   5.753 -0.4487 -0.0629  1.0268
 3068TIP3   OH230694   1.583   1.821   2.146  0.3455  0.1345  0.3875
 3068TIP3    H130695   1.633   1.826   2.065  0.5717 -0.0352  0.5136
 3068TIP3    H230696   1.493   1.802   2.118  0.4505 -0.0629  0.1836
 3069TIP3   OH230697   1.563   2.316  11.506  0.0045  0.2804  0.0468
 3069TIP3    H130698   1.631   2.260  11.469  0.2425  0.7513 -0.2260
 3069TIP3    H230699   1.580   2.314  11.600 -0.9194 -1.3374  0.1988
 3070TIP3   OH230700   5.284   0.952  15.221 -0.0385  0.0347 -0.4237
 3070TIP3    H130701   5.297   1.046  15.209 -0.2165 -0.0598 -1.4054
 3070TIP3    H230702   5.258   0.921  15.135 -3.9644 -0.2313  0.7545
 3071TIP3   OH230703   0.395   3.612  16.794  0.3745 -0.0006  0.0429
 3071TIP3    H130704   0.322   3.657  16.752 -0.0600  1.1870  2.0013
 3071TIP3    H230705   0.417   3.540  16.735 -0.3916  1.4558 -2.0462
 3072TIP3   OH230706   5.729   1.383   1.062 -0.3696 -0.0608 -0.4671
 3072TIP3    H130707   5.814   1.392   1.105 -0.1580  2.2656 -1.3019
 3072TIP3    H230708   5.665   1.387   1.134  0.2075 -1.7181  0.1508
 3073TIP3   OH230709   5.422   0.437   2.481  0.6751  0.2011 -0.3366
 3073TIP3    H130710   5.427   0.452   2.387  0.1822  1.0390 -0.2297
 3073TIP3    H230711   5.513   0.440   2.511  1.0275 -2.1408 -1.0977
 3074TIP3   OH230712   6.428   0.402  14.587 -0.2262  0.1965 -0.3939
 3074TIP3    H130713   6.382   0.419  14.505  0.6417 -2.3708 -1.4670
 3074TIP3    H230714   6.509   0.358  14.561  0.2913 -0.2343  1.8133
 3075TIP3   OH230715   6.277   5.630   5.894  0.1836 -0.3643  0.2502
 3075TIP3    H130716   6.252   5.690   5.964  0.5551  0.3607 -0.2255
 3075TIP3    H230717   6.354   5.672   5.854 -0.3289 -0.5051 -0.9143
 3076TIP3   OH230718   2.276   2.747   4.578  0.5397 -0.5020  0.6967
 3076TIP3    H130719   2.250   2.818   4.518  0.9393 -0.5416  0.4734
 3076TIP3    H230720   2.245   2.667   4.535  1.2105 -0.5671  0.3279
 3077TIP3   OH230721   2.016   3.693  12.132  0.2102 -0.1574  0.2984
 3077TIP3    H130722   2.091   3.743  12.165  0.4488  0.0592 -0.5648
 3077TIP3    H230723   1.998   3.731  12.046  0.2921 -1.4542 -0.2991
 3078TIP3   OH230724   3.278   2.547   4.220  0.3121 -0.0403 -0.6508
 3078TIP3    H130725   3.360   2.597   4.229 -1.2335  2.4875  0.0604
 3078TIP3    H230726   3.286   2.476   4.284  2.4801 -0.6300 -1.5224
 3079TIP3   OH230727   0.855   3.577   6.206  0.2764  0.1068 -0.2038
 3079TIP3    H130728   0.900   3.507   6.158 -0.5748  1.1697 -2.6218
 3079TIP3    H230729   0.921   3.645   6.217  0.2260  0.2292 -0.6564
 3080TIP3   OH230730   0.200   6.444  10.655 -0.2684 -0.4952 -0.3581
 3080TIP3    H130731   0.286   6.409  10.677  0.0383  0.4095 -0.1051
 3080TIP3    H230732   0.140   6.370  10.669  0.5257 -1.2981 -1.0893
 3081TIP3   OH230733   6.271   2.910   5.962  0.5932 -0.1584 -0.2172
 3081TIP3    H130734   6.226   2.915   6.046  1.6000  0.4514  0.2983
 3081TIP3    H230735   6.201   2.909   5.897 -0.1677  0.7059  0.5686
 3082TIP3   OH230736   6.793   2.233   0.116  0.1573 -0.5049  0.4953
 3082TIP3    H130737   6.724   2.299   0.123  1.1965  0.7962 -1.1832
 3082TIP3    H230738   6.827   2.225   0.205  0.4339  1.7038  0.6154
 3083TIP3   OH230739   6.757   6.812  16.642  0.0375 -0.2945  0.1915
 3083TIP3    H130740   6.821   6.754  16.683  0.9042  2.1003  2.3446
 3083TIP3    H230741   6.779   6.810  16.549  1.5638 -1.5227  0.5566
 3084TIP3   OH230742   3.861   0.904  15.535  0.2324  0.1846 -0.4172
 3084TIP3    H130743   3.912   0.916  15.455  0.7120 -1.1466 -0.3281
 3084TIP3    H230744   3.795   0.838  15.512  1.6663 -1.7356  0.8330
 3085TIP3   OH230745   5.494   2.897  13.635 -0.0646  0.0788 -0.4041
 3085TIP3    H130746   5.470   2.804  13.640 -1.0137  0.4110  1.8113
 3085TIP3    H230747   5.413   2.944  13.654  1.1307  1.3008  1.9721
 3086TIP3   OH230748   5.159   4.407  16.420  0.7797 -0.4614  0.1721
 3086TIP3    H130749   5.164   4.326  16.471  0.5315 -1.6226 -1.6113
 3086TIP3    H230750   5.081   4.451  16.453 -0.0212 -1.7431  0.0057
 3087TIP3   OH230751   1.525   2.581  11.406  0.3635  0.4694  0.0593
 3087TIP3    H130752   1.481   2.503  11.440  0.0842 -0.2430 -1.8745
 3087TIP3    H230753   1.454   2.643  11.388  0.6143  1.3371  1.9534
 3088TIP3   OH230754   0.791   6.660   2.810  0.5978  0.5974  0.1074
 3088TIP3    H130755   0.779   6.755   2.816 -1.0649  0.4709 -0.9833
 3088TIP3    H230756   0.717   6.630   2.758  1.1437 -1.3054  0.4086
 3089TIP3   OH230757   5.740   0.894  16.514 -0.1977 -1.0642  0.6702
 3089TIP3    H130758   5.798   0.823  16.486 -0.8719 -1.2344 -0.3463
 3089TIP3    H230759   5.652   0.862  16.493 -0.4523  0.4064 -0.5787
 3090TIP3   OH230760   2.271   6.208   0.576  0.0802  0.3061  0.7511
 3090TIP3    H130761   2.299   6.118   0.563 -0.0302  0.9326 -5.0652
 3090TIP3    H230762   2.352   6.259   0.580  0.0822  0.2445  1.6457
 3091TIP3   OH230763   3.093   1.618   0.396  0.1099  0.4768 -0.0583
 3091TIP3    H130764   3.091   1.523   0.381 -1.8937  0.2753  1.2558
 3091TIP3    H230765   3.049   1.630   0.480  0.4325  2.5763 -0.1669
 3092TIP3   OH230766   0.766   3.623  14.606  0.7921 -0.2349 -0.1339
 3092TIP3    H130767   0.743   3.537  14.572  1.2525 -0.1857 -0.5857
 3092TIP3    H230768   0.682   3.669  14.616  0.6642 -0.1882 -1.3864
 3093TIP3   OH230769   1.573   0.923  14.559 -0.1708 -0.0196 -0.3871
 3093TIP3    H130770   1.568   0.930  14.654  1.5493 -2.4292 -0.0693
 3093TIP3    H230771   1.531   0.839  14.538  0.6686 -0.1599 -1.5991
 3094TIP3   OH230772   3.331   0.541   3.728 -0.0465  0.1458  0.2504
 3094TIP3    H130773   3.385   0.504   3.658 -1.0884 -0.4688 -0.2395
 3094TIP3    H230774   3.242   0.518   3.704 -0.5928  1.7200  0.7094
 3095TIP3   OH230775   4.827   5.383  12.671 -0.5575 -0.0694  0.7292
 3095TIP3    H130776   4.739   5.346  12.676 -0.6308 -0.2478 -1.4211
 3095TIP3    H230777   4.884   5.317  12.711 -1.0339 -1.2949 -0.5790
 3096TIP3   OH230778   6.388   0.078   3.639 -0.3346  0.3949 -0.3807
 3096TIP3    H130779   6.352   0.066   3.551  0.9708 -1.6014 -0.6755
 3096TIP3    H230780   6.324   0.035   3.696  0.2910 -0.9445 -0.6646
 3097TIP3   OH230781   1.083   2.526  14.122 -0.4600  0.2037  0.2727
 3097TIP3    H130782   1.094   2.487  14.035  1.1131  0.5127  0.3169
 3097TIP3    H230783   1.165   2.505  14.168 -1.4893 -0.4027  1.8496
 3098TIP3   OH230784   4.504   1.165   1.706 -0.2351 -0.2357  0.0047
 3098TIP3    H130785   4.490   1.168   1.612 -1.0778 -0.5140  0.1153
 3098TIP3    H230786   4.424   1.125   1.741  0.7178 -1.5870  0.6892
 3099TIP3   OH230787   4.262   1.300  15.792  0.8112  0.2423  0.9562
 3099TIP3    H130788   4.337   1.325  15.845  2.5262 -0.6623 -0.9655
 3099TIP3    H230789   4.257   1.205  15.800 -0.1896  0.2995  1.1230
 3100TIP3   OH230790   0.818   6.611  13.465 -0.7829  0.0388 -0.3895
 3100TIP3    H130791   0.762   6.585  13.393 -2.3192  1.5507  0.2210
 3100TIP3    H230792   0.758   6.627  13.538  0.4892  1.0995  0.4547
 3101TIP3   OH230793   0.946   0.055   5.198  0.3334 -0.0854  0.6646
 3101TIP3    H130794   0.969   0.137   5.154  0.9035  0.2696  1.6019
 3101TIP3    H230795   1.028   0.025   5.238  0.6926 -2.3537 -1.6273
 3102TIP3   OH230796   2.959   1.714   5.224  0.1359  0.2841  0.0166
 3102TIP3    H130797   3.037   1.749   5.266 -1.1360  3.6036 -0.2300
 3102TIP3    H230798   2.886   1.758   5.267 -1.4558 -0.4024 -1.8610
 3103TIP3   OH230799   5.125   4.585   3.355  0.5416 -0.2652 -0.3032
 3103TIP3    H130800   5.218   4.590   3.376  0.1477  0.9414  1.2067
 3103TIP3    H230801   5.101   4.675   3.331 -0.6639 -0.1591  1.2174
 3104TIP3   OH230802   6.308   3.276  13.960  0.1722 -0.6181 -0.2819
 3104TIP3    H130803   6.270   3.190  13.980  2.8357 -2.1209 -1.4654
 3104TIP3    H230804   6.233   3.328  13.929 -1.3196 -2.8221 -0.5223
 3105TIP3   OH230805   0.361   6.566   5.870 -0.0105  0.2935 -0.2195
 3105TIP3    H130806   0.286   6.541   5.923 -1.5662  1.2546 -1.8852
 3105TIP3    H230807   0.434   6.519   5.908 -1.5690 -1.1654  1.0590
 3106TIP3   OH230808   4.702   0.722   2.065  0.2423 -0.2272 -0.3259
 3106TIP3    H130809   4.787   0.721   2.109 -0.2471  0.9063  0.6607
 3106TIP3    H230810   4.640   0.693   2.133  0.0432 -2.6455 -1.4914
 3107TIP3   OH230811   3.790   3.972  13.834  0.0319  0.0687 -0.3266
 3107TIP3    H130812   3.746   4.051  13.804 -0.7171 -0.9702 -2.0563
 3107TIP3    H230813   3.883   3.993  13.830 -0.1117  0.4813 -1.9763
 3108TIP3   OH230814   3.785   0.201  14.390  0.2578  0.2999  0.3482
 3108TIP3    H130815   3.800   0.265  14.459 -0.1579  1.5361 -0.6799
 3108TIP3    H230816   3.850   0.222  14.323 -2.1301  1.9118 -1.5352
 3109TIP3   OH230817   1.498   4.494   2.957 -0.0686  0.5287  0.4554
 3109TIP3    H130818   1.495   4.541   2.874 -4.5791 -0.0142  0.1595
 3109TIP3    H230819   1.483   4.561   3.023  1.4033  0.6512  0.6659
 3110TIP3   OH230820   5.366   2.174   1.727  0.4072  0.0233 -0.5468
 3110TIP3    H130821   5.447   2.148   1.683  0.6364 -0.0702 -0.0685
 3110TIP3    H230822   5.396   2.219   1.806 -0.0152 -0.3040 -0.2045
 3111TIP3   OH230823   3.576   1.986   2.001  0.2751  0.2679  0.5066
 3111TIP3    H130824   3.661   1.986   2.046 -0.0739  0.6532  1.1734
 3111TIP3    H230825   3.555   1.894   1.989 -0.5187  0.1109  2.8550
 3112TIP3   OH230826   4.571   5.307   4.538 -0.3908 -0.3629 -0.1172
 3112TIP3    H130827   4.548   5.325   4.446 -0.0894 -0.9648 -0.3079
 3112TIP3    H230828   4.524   5.226   4.559  0.5969 -0.9418 -0.1391
 3113TIP3   OH230829   1.206   2.084  13.826  0.1991  0.6990 -0.3664
 3113TIP3    H130830   1.282   2.029  13.847  0.0164  0.4163 -0.4388
 3113TIP3    H230831   1.189   2.132  13.907 -1.6552 -1.7644  0.7645
 3114TIP3   OH230832   2.403   2.100  12.231  0.3413  0.2142  0.0271
 3114TIP3    H130833   2.382   2.035  12.164  0.5536 -2.3510  2.3375
 3114TIP3    H230834   2.320   2.113  12.278  1.1924 -1.3949  2.0414
 3115TIP3   OH230835   1.822   6.587  11.292  0.0608  0.3760 -0.2918
 3115TIP3    H130836   1.901   6.566  11.342 -0.4661  0.7521  0.7168
 3115TIP3    H230837   1.768   6.637  11.353 -0.9283  0.1844 -0.9992
 3116TIP3   OH230838   4.928   2.493   0.423  0.0092 -0.2037 -0.0806
 3116TIP3    H130839   4.912   2.575   0.468 -0.0365  1.0834 -2.3425
 3116TIP3    H230840   5.019   2.470   0.445 -0.0795  0.2987  0.7955
 3117TIP3   OH230841   0.749   3.695   4.674 -0.6083  0.5219  0.0173
 3117TIP3    H130842   0.687   3.644   4.726 -0.1105  0.5056  0.5970
 3117TIP3    H230843   0.713   3.783   4.673  0.0475  0.8201  1.4902
 3118TIP3   OH230844   2.081   2.460  15.286  0.1124 -0.6122  0.0795
 3118TIP3    H130845   2.046   2.373  15.267 -0.2183 -0.9408  2.0507
 3118TIP3    H230846   2.098   2.459  15.380  0.1694  1.4308  0.1186
 3119TIP3   OH230847   3.814   5.267  12.052  0.0652  0.1660  0.3165
 3119TIP3    H130848   3.785   5.193  12.106  0.2471 -0.6691 -0.7127
 3119TIP3    H230849   3.868   5.320  12.111  1.0081 -1.2105  0.7132
 3120TIP3   OH230850   5.880   3.209   3.414  0.5786 -0.3025 -0.0281
 3120TIP3    H130851   5.959   3.262   3.427 -0.2556  0.9766 -0.1340
 3120TIP3    H230852   5.902   3.151   3.341  1.5263 -0.1790  0.1520
 3121TIP3   OH230853   5.641   3.600   3.260 -0.3888  0.4540  0.1454
 3121TIP3    H130854   5.725   3.625   3.222 -0.7347  1.5872  0.0833
 3121TIP3    H230855   5.629   3.662   3.333 -2.3207  1.9675 -1.3959
 3122TIP3   OH230856   2.435   2.325  13.495  0.3240  0.2883 -0.9294
 3122TIP3    H130857   2.496   2.268  13.447  1.6940  0.8488  0.0965
 3122TIP3    H230858   2.436   2.291  13.584 -1.1533  0.1033 -0.9675
 3123TIP3   OH230859   1.317   6.352   2.991 -0.0570  0.0146  0.3172
 3123TIP3    H130860   1.413   6.345   2.988 -0.0724  0.1225 -1.2486
 3123TIP3    H230861   1.293   6.374   2.901 -1.6878 -1.5097  0.3635
 3124TIP3   OH230862   0.991   2.041   3.408  0.2280 -0.3669  0.2304
 3124TIP3    H130863   1.045   2.007   3.479  1.1181  0.9335  0.1833
 3124TIP3    H230864   0.946   2.116   3.445 -1.8530 -1.6537  0.3756
 3125TIP3   OH230865   1.378   4.616  16.423 -0.0471  0.2764 -0.5336
 3125TIP3    H130866   1.371   4.667  16.504  0.5527  0.5173 -0.6370
 3125TIP3    H230867   1.338   4.672  16.356  2.4209  1.4775 -1.0344
 3126TIP3   OH230868   5.167   5.293  15.929  0.2170  0.1518  0.2657
 3126TIP3    H130869   5.190   5.384  15.948  0.6183 -0.2711  1.8630
 3126TIP3    H230870   5.248   5.255  15.895  0.7176 -0.1975  1.7942
 3127TIP3   OH230871   6.637   0.713  14.134  0.4556 -0.2263 -0.0631
 3127TIP3    H130872   6.591   0.795  14.152 -0.6920 -1.4581  3.0000
 3127TIP3    H230873   6.577   0.663  14.079  0.4484  0.3371 -0.5613
 3128TIP3   OH230874   1.025   4.853  13.290  0.7078  0.0871  0.0651
 3128TIP3    H130875   1.006   4.933  13.242  2.9798  0.9823  0.6034
 3128TIP3    H230876   1.030   4.785  13.223 -2.5044  0.1089 -0.2642
 3129TIP3   OH230877   2.989   0.548   2.984 -0.0636  0.2096 -0.0958
 3129TIP3    H130878   2.911   0.568   2.933 -0.0669 -0.0508 -0.1911
 3129TIP3    H230879   2.983   0.606   3.061 -1.4323 -1.3148  0.9650
 3130TIP3   OH230880   1.369   6.322   0.683  0.3384 -0.3636 -0.4387
 3130TIP3    H130881   1.426   6.396   0.658 -0.4782  0.7046  0.7981
 3130TIP3    H230882   1.426   6.245   0.677  0.9104  0.1834 -2.8898
 3131TIP3   OH230883   1.187   1.566   3.078  0.6817  0.1544 -0.3484
 3131TIP3    H130884   1.269   1.603   3.045  0.4506  1.6461  0.7627
 3131TIP3    H230885   1.198   1.471   3.065  2.4375  0.3603 -0.5124
 3132TIP3   OH230886   3.620   2.842  17.270  0.0579  0.3099 -0.3003
 3132TIP3    H130887   3.696   2.815  17.218  1.1565 -0.7273  1.7647
 3132TIP3    H230888   3.560   2.768  17.264 -0.5669  0.9010 -1.4793
 3133TIP3   OH230889   6.445   0.954  11.312  0.4510 -0.1415 -0.8554
 3133TIP3    H130890   6.404   1.038  11.294 -0.2108 -0.7095 -2.1085
 3133TIP3    H230891   6.506   0.940  11.240  0.7578 -0.6129 -0.5152
 3134TIP3   OH230892   0.929   2.238  15.546  0.6028  0.4721 -0.9515
 3134TIP3    H130893   0.892   2.159  15.585 -1.0282  2.1509  0.9964
 3134TIP3    H230894   0.954   2.211  15.458 -0.0082 -2.1887 -0.3634
 3135TIP3   OH230895   4.046   2.210  11.991 -0.7187  0.3760  0.7655
 3135TIP3    H130896   4.070   2.298  12.023  0.7269  0.1501  0.3556
 3135TIP3    H230897   4.086   2.205  11.905 -2.7109  0.1389 -0.1570
 3136TIP3   OH230898   3.319   4.703   0.811 -0.1391 -0.2225  0.2985
 3136TIP3    H130899   3.264   4.779   0.832  0.6622  0.1254  1.2071
 3136TIP3    H230900   3.394   4.712   0.871  0.8216 -0.7672 -0.8202
 3137TIP3   OH230901   2.870   2.143  15.515  0.0026  0.2763  0.2238
 3137TIP3    H130902   2.909   2.096  15.589 -0.2723 -0.2657  0.0261
 3137TIP3    H230903   2.801   2.197  15.555 -0.4656 -0.3775  0.3048
 3138TIP3   OH230904   5.668   3.970  16.601 -0.1459  0.5863 -0.5173
 3138TIP3    H130905   5.670   4.010  16.688  3.3629 -1.1475  0.2721
 3138TIP3    H230906   5.628   3.884  16.615  0.1260  0.4359 -0.6537
 3139TIP3   OH230907   6.489   0.689   3.203 -0.0614 -0.0485  0.2364
 3139TIP3    H130908   6.575   0.646   3.206 -0.4312 -0.8735 -0.8765
 3139TIP3    H230909   6.426   0.617   3.207 -0.6853  0.4266 -0.8990
 3140TIP3   OH230910   4.611   2.793  12.402 -0.1674  0.7626  0.0456
 3140TIP3    H130911   4.613   2.762  12.493 -0.3903  0.6818  0.0219
 3140TIP3    H230912   4.606   2.714  12.349  0.5608  0.7837 -0.0587
 3141TIP3   OH230913   0.966   0.212   4.336 -0.3593  0.2842  0.0692
 3141TIP3    H130914   0.991   0.304   4.347  0.2596  0.0470  0.6964
 3141TIP3    H230915   0.883   0.215   4.287  0.9488  1.0738 -2.1597
 3142TIP3   OH230916   0.105   6.610   2.718 -0.1678  0.1431  0.0544
 3142TIP3    H130917   0.166   6.652   2.778  0.2406 -2.6445  1.6638
 3142TIP3    H230918   0.159   6.584   2.643  0.3626 -1.1034  0.8648
 3143TIP3   OH230919   5.264   2.295   1.423  0.7592  0.2243 -0.2642
 3143TIP3    H130920   5.261   2.318   1.330  1.6026 -1.1346 -0.6515
 3143TIP3    H230921   5.219   2.210   1.428 -0.1366  0.7594  0.7228
 3144TIP3   OH230922   0.421   2.212   2.681  0.4675  0.2228  0.2697
 3144TIP3    H130923   0.442   2.251   2.596  1.1009 -0.0491  0.2983
 3144TIP3    H230924   0.332   2.177   2.669  0.1359  1.1258  0.0596
 3145TIP3   OH230925   1.553   3.931   2.918 -0.7393 -0.4770  0.1004
 3145TIP3    H130926   1.582   3.909   3.007 -0.9094 -0.5576  0.1364
 3145TIP3    H230927   1.509   4.015   2.926 -0.7826 -0.4992  0.0978
 3146TIP3   OH230928   0.829   1.846   1.345  0.2651 -0.1829 -0.0778
 3146TIP3    H130929   0.822   1.911   1.415  0.0510  0.0852 -0.3452
 3146TIP3    H230930   0.923   1.837   1.331  0.2988  0.0080  0.0173
 3147TIP3   OH230931   0.082   0.480   4.128  0.1875 -0.0027  0.2583
 3147TIP3    H130932   0.144   0.473   4.055  0.8730  2.7721  0.5351
 3147TIP3    H230933   0.016   0.543   4.098 -0.6560 -0.3906  1.2539
 3148TIP3   OH230934   0.928   1.376   3.167  0.1467 -0.2143 -0.2257
 3148TIP3    H130935   0.884   1.389   3.251  0.3790 -1.0586  0.0416
 3148TIP3    H230936   0.955   1.463   3.140 -0.1158  0.0928  0.4835
 3149TIP3   OH230937   4.851   4.464  16.231 -0.6320 -0.0936 -0.2041
 3149TIP3    H130938   4.783   4.515  16.187  0.4434  1.0286 -0.6134
 3149TIP3    H230939   4.848   4.492  16.322 -3.4855 -3.0958  0.6927
 3150TIP3   OH230940   0.343   3.553  12.324  0.0811  0.2557 -0.3105
 3150TIP3    H130941   0.397   3.606  12.265  1.5525 -0.8031  0.0795
 3150TIP3    H230942   0.398   3.539  12.401 -1.0531 -0.1636  0.4401
 3151TIP3   OH230943   5.152   6.430  17.262  0.0324  0.1597 -0.3416
 3151TIP3    H130944   5.057   6.446  17.262 -0.1382 -0.8520 -0.7555
 3151TIP3    H230945   5.188   6.506  17.308 -0.8782  1.1134 -1.1542
 3152TIP3   OH230946   6.424   6.578   4.443 -0.1772  0.5205 -0.4955
 3152TIP3    H130947   6.412   6.658   4.494 -2.8664 -1.1356  1.5575
 3152TIP3    H230948   6.428   6.608   4.352 -1.0136  3.0031  0.2466
 3153TIP3   OH230949   5.286   6.730  14.718  0.3305  0.2281 -0.0673
 3153TIP3    H130950   5.328   6.689  14.793 -1.7305 -1.7784  0.0439
 3153TIP3    H230951   5.359   6.759  14.662  1.8588 -1.8415  0.7911
 3154TIP3   OH230952   6.262   3.415   1.750 -0.0079 -0.4186  0.2574
 3154TIP3    H130953   6.275   3.320   1.751 -0.2288 -0.4556 -0.1636
 3154TIP3    H230954   6.324   3.449   1.814  0.5989 -0.7830 -0.1390
 3155TIP3   OH230955   0.046   1.306  12.462 -0.1130  0.6931  0.6203
 3155TIP3    H130956   0.115   1.316  12.396 -2.1010  3.9096 -1.1326
 3155TIP3    H230957  -0.011   1.238  12.427  0.7739 -0.1943  0.8579
 3156TIP3   OH230958   5.934   3.213  14.823 -0.5869  0.6034 -0.2590
 3156TIP3    H130959   5.939   3.151  14.896 -1.2123  0.0214 -0.6992
 3156TIP3    H230960   5.872   3.279  14.853  0.2162  1.1105  0.2823
 3157TIP3   OH230961   5.803   6.787  13.441 -0.6690 -0.1451  0.4952
 3157TIP3    H130962   5.747   6.795  13.518 -0.4696  2.0704  0.4250
 3157TIP3    H230963   5.748   6.742  13.376 -0.8581 -1.9492  1.8677
 3158TIP3   OH230964   0.308   2.793  15.839 -0.4090 -0.1807  0.2262
 3158TIP3    H130965   0.371   2.860  15.812 -0.4640 -0.9014 -1.7585
 3158TIP3    H230966   0.254   2.837  15.905  2.8797  0.0988  2.8918
 3159TIP3   OH230967   5.186   4.158   2.839 -0.0923 -0.1749  0.2809
 3159TIP3    H130968   5.161   4.125   2.925  1.6584 -0.7077  0.6144
 3159TIP3    H230969   5.248   4.229   2.859  1.3865 -1.2053 -0.5351
 3160TIP3   OH230970   3.468   1.372   5.997 -0.2738 -0.4904 -0.0832
 3160TIP3    H130971   3.544   1.319   5.973  0.0833 -0.0880  0.1405
 3160TIP3    H230972   3.504   1.440   6.054 -0.8903 -0.6119  0.4518
 3161TIP3   OH230973   2.394   4.066   5.711 -0.2083 -0.1354  0.7203
 3161TIP3    H130974   2.466   4.116   5.750  0.4172  0.2101 -0.8352
 3161TIP3    H230975   2.362   4.010   5.781  0.4349  0.9811  1.9148
 3162TIP3   OH230976   3.777   5.510  17.245  0.0565  0.3075  0.7990
 3162TIP3    H130977   3.747   5.430  17.286 -2.5055  1.3295  1.0165
 3162TIP3    H230978   3.855   5.485  17.196 -0.0982 -2.0636  1.7421
 3163TIP3   OH230979   2.885   3.635  15.611  0.4175  0.2209 -0.0513
 3163TIP3    H130980   2.877   3.670  15.700  0.4446 -2.7788  1.1807
 3163TIP3    H230981   2.795   3.629  15.580  0.2940 -0.1171  0.3549
 3164TIP3   OH230982   6.535   5.328   2.454 -0.0765  0.3459  0.4921
 3164TIP3    H130983   6.582   5.304   2.534  0.5091  2.4270  0.8069
 3164TIP3    H230984   6.456   5.371   2.485 -0.1158  0.6637 -0.0443
 3165TIP3   OH230985   4.822   3.085  13.331  0.1561 -0.5333 -0.2202
 3165TIP3    H130986   4.888   3.070  13.398  0.8873  1.9122 -0.3519
 3165TIP3    H230987   4.777   3.164  13.359 -1.5882 -1.2025 -1.0372
 3166TIP3   OH230988   0.438   0.908   0.000 -0.0880 -0.2868  0.7075
 3166TIP3    H130989   0.486   0.956  -0.067  0.0678 -1.1357  0.2075
 3166TIP3    H230990   0.352   0.950   0.003  0.4401  0.7740  1.0999
 3167TIP3   OH230991   3.499   4.176  15.426  0.4408  0.2203  0.3052
 3167TIP3    H130992   3.569   4.111  15.420  1.3338  0.7078  4.0864
 3167TIP3    H230993   3.438   4.139  15.491 -1.3014  1.1678 -0.7605
 3168TIP3   OH230994   6.420   0.373   3.321  0.6587 -0.3106  0.3121
 3168TIP3    H130995   6.428   0.287   3.279 -0.6044  0.0566 -0.7354
 3168TIP3    H230996   6.353   0.418   3.269  2.3017  1.8242 -0.0442
 3169TIP3   OH230997   1.116   3.362  17.270 -0.4839  0.1624  0.5102
 3169TIP3    H130998   1.129   3.286  17.213 -4.8922 -2.1146  2.3103
 3169TIP3    H230999   1.183   3.352  17.339 -1.0394 -2.1953  0.7618
 3170TIP3   OH231000   0.110   4.093   6.490  0.0122 -0.4576 -0.1675
 3170TIP3    H131001   0.084   4.042   6.567 -0.8474 -1.2516 -0.9740
 3170TIP3    H231002   0.051   4.064   6.421  1.2968 -0.3405 -1.3453
 3171TIP3   OH231003   0.928   2.272   5.453 -0.2157 -0.1143 -0.1136
 3171TIP3    H131004   0.876   2.238   5.381  0.8757  0.6481 -1.2892
 3171TIP3    H231005   1.017   2.241   5.436  0.0774  0.1733  0.8362
 3172TIP3   OH231006   4.130   0.916   5.537  0.1868 -0.4954 -0.3413
 3172TIP3    H131007   4.048   0.911   5.489  0.1787  0.1832 -0.4037
 3172TIP3    H231008   4.194   0.948   5.473  0.5920 -1.4208 -0.4078
 3173TIP3   OH231009   1.860   5.699   3.124  0.0753  0.5128  0.1678
 3173TIP3    H131010   1.940   5.691   3.072  1.5116  0.1664  2.3486
 3173TIP3    H231011   1.831   5.789   3.110 -0.3547  0.0114 -2.3155
 3174TIP3   OH231012   3.304   6.610  11.306 -0.1999 -0.2431 -0.0068
 3174TIP3    H131013   3.335   6.555  11.234 -0.0588 -1.2759  0.8396
 3174TIP3    H231014   3.377   6.669  11.325  0.1241 -0.6421 -0.0328
 3175TIP3   OH231015   6.305   3.946  11.114 -0.2646 -0.0435 -0.3106
 3175TIP3    H131016   6.349   3.932  11.198 -0.5186  0.6930 -0.0465
 3175TIP3    H231017   6.374   3.976  11.055  0.2543 -2.2358 -0.8436
 3176TIP3   OH231018   1.770   2.174   0.097  0.0777  0.1928  0.4733
 3176TIP3    H131019   1.762   2.147   0.006  1.7538 -1.4650  0.7938
 3176TIP3    H231020   1.857   2.146   0.123 -0.4955  0.3737  2.6918
 3177TIP3   OH231021   2.967   2.009   1.821 -0.2435  0.2331  0.1094
 3177TIP3    H131022   2.996   1.972   1.737 -1.1159  0.2453 -0.2030
 3177TIP3    H231023   2.914   1.940   1.860 -0.9099  0.7015  0.0555
 3178TIP3   OH231024   4.046   1.492  17.090 -0.3865  0.3302  0.2493
 3178TIP3    H131025   4.072   1.474  16.999 -1.3678  2.1790 -0.4211
 3178TIP3    H231026   4.098   1.431  17.142  1.0234  0.0088 -1.4801
 3179TIP3   OH231027   2.092   2.126  12.764  0.2932  0.3071  0.5007
 3179TIP3    H131028   2.155   2.062  12.797  0.7262  0.2977 -0.3518
 3179TIP3    H231029   2.130   2.211  12.790  0.2076  0.2636  0.7710
 3180TIP3   OH231030   6.137   3.155  14.430  0.2529  0.8827  0.5525
 3180TIP3    H131031   6.056   3.190  14.391  0.1732  1.6831  1.4070
 3180TIP3    H231032   6.129   3.061  14.420 -0.2299  1.0154 -0.4620
 3181TIP3   OH231033   6.016   4.958   2.483  0.7472  0.3433  0.4121
 3181TIP3    H131034   6.108   4.935   2.466  0.3979 -2.1643  1.5995
 3181TIP3    H231035   6.015   4.984   2.575  0.4965  1.6752  0.0320
 3182TIP3   OH231036   5.550   4.438  16.005  0.2612  0.5635  0.2140
 3182TIP3    H131037   5.507   4.374  16.063  0.9083  0.1499  0.2474
 3182TIP3    H231038   5.599   4.495  16.064 -2.2052  2.5865  0.3794
 3183TIP3   OH231039   5.273   5.540   5.025  0.0257  0.0034 -0.4736
 3183TIP3    H131040   5.320   5.532   5.108  0.9025 -0.3286 -0.9940
 3183TIP3    H231041   5.278   5.634   5.004  2.0638 -0.2841 -1.4284
 3184TIP3   OH231042   2.440   4.396   2.856 -0.0776 -0.1576 -0.4403
 3184TIP3    H131043   2.448   4.452   2.933  0.9775 -1.0446  0.1013
 3184TIP3    H231044   2.361   4.344   2.872 -0.2480  0.1474 -0.2841
 3185TIP3   OH231045   0.415   1.798   6.171  0.0596  0.3093 -0.0879
 3185TIP3    H131046   0.344   1.735   6.161 -1.5993  2.2324 -0.8182
 3185TIP3    H231047   0.410   1.825   6.263  0.7003 -0.4961  0.1964
 3186TIP3   OH231048   6.161   0.720  15.340  0.5848 -0.2095  0.3880
 3186TIP3    H131049   6.108   0.664  15.397  0.7634 -0.0750  0.6868
 3186TIP3    H231050   6.247   0.678  15.339  0.6505 -0.0734  0.4146
 3187TIP3   OH231051   5.809   6.180   5.409  0.1139  0.2627 -0.1242
 3187TIP3    H131052   5.749   6.254   5.404 -0.4073 -0.0891  0.6575
 3187TIP3    H231053   5.810   6.157   5.502  1.4757  0.2708 -0.1286
 3188TIP3   OH231054   4.213   5.584   0.568  0.4980  0.2576  0.7222
 3188TIP3    H131055   4.233   5.676   0.554 -1.4780  0.8085  1.3682
 3188TIP3    H231056   4.160   5.559   0.492 -0.0568  0.0027  1.1918
 3189TIP3   OH231057   3.500   5.717  14.911 -0.5234  0.1552  0.1251
 3189TIP3    H131058   3.442   5.643  14.928 -1.7220  1.1083  0.2362
 3189TIP3    H231059   3.550   5.728  14.992  0.2823 -1.0584 -0.1881
 3190TIP3   OH231060   3.225   0.405   4.618 -0.0002 -0.0907 -0.1522
 3190TIP3    H131061   3.193   0.491   4.642  0.2052  0.2546 -1.0678
 3190TIP3    H231062   3.232   0.408   4.522 -1.3827 -1.6079 -0.3330
 3191TIP3   OH231063   1.429   3.002  16.829  0.4012  0.2975 -0.5999
 3191TIP3    H131064   1.515   2.990  16.788  0.6766  1.9439 -0.5383
 3191TIP3    H231065   1.447   3.054  16.908 -0.4302 -0.8284  0.3469
 3192TIP3   OH231066   4.513   6.535  11.782  0.4179 -0.6548  0.1844
 3192TIP3    H131067   4.540   6.625  11.803 -1.2758 -0.0418 -0.1726
 3192TIP3    H231068   4.494   6.538  11.688 -0.8436 -1.0658  0.4212
 3193TIP3   OH231069   4.854   6.433   1.455  0.3159 -0.4795 -0.2445
 3193TIP3    H131070   4.892   6.441   1.368 -0.1763 -0.7106 -0.4838
 3193TIP3    H231071   4.807   6.515   1.469 -1.5092 -1.3248 -1.1333
 3194TIP3   OH231072   0.378   5.108   2.667  0.2823  0.1678 -0.0518
 3194TIP3    H131073   0.348   5.033   2.718  2.2785  1.1677  2.6868
 3194TIP3    H231074   0.372   5.182   2.726  0.5267  1.7871 -1.9983
 3195TIP3   OH231075   6.319   2.550   4.921 -0.7950  0.5743 -0.9212
 3195TIP3    H131076   6.314   2.571   4.828 -2.0411 -0.5846 -1.1277
 3195TIP3    H231077   6.380   2.477   4.926  0.0903  1.3164 -0.6971
 3196TIP3   OH231078   5.747   4.499   3.247 -0.2600 -0.1683 -0.5331
 3196TIP3    H131079   5.683   4.568   3.269 -2.2057 -2.1161  0.1035
 3196TIP3    H231080   5.745   4.441   3.323  0.8503 -1.3106 -1.3730
 3197TIP3   OH231081   0.037   2.674   6.080 -0.4510 -0.1147  0.1370
 3197TIP3    H131082   0.108   2.643   6.024  0.1035 -0.3886  0.9685
 3197TIP3    H231083   0.022   2.601   6.141  0.1095  0.8082  1.4015
 3198TIP3   OH231084   1.560   3.229  12.348 -0.1180  0.4340 -0.7033
 3198TIP3    H131085   1.492   3.260  12.288 -0.4639  0.8378 -0.1114
 3198TIP3    H231086   1.635   3.285  12.331 -0.3646  0.8478 -0.4473
 3199TIP3   OH231087   5.581   2.041   1.590  0.2625  0.2844  0.2766
 3199TIP3    H131088   5.619   1.962   1.552 -0.6481  0.1001 -0.2678
 3199TIP3    H231089   5.654   2.103   1.593  0.3970  0.2432 -1.6218
 3200TIP3   OH231090   1.808   1.368   0.742 -0.0265  0.0401  0.4124
 3200TIP3    H131091   1.783   1.298   0.803  0.1754 -1.2378 -0.9617
 3200TIP3    H231092   1.887   1.406   0.780 -1.1666  0.7895  2.1471
 3201TIP3   OH231093   0.442   4.778  14.418 -0.9626 -0.1132 -0.9914
 3201TIP3    H131094   0.353   4.755  14.390 -2.3645  0.6262  2.4922
 3201TIP3    H231095   0.465   4.709  14.481  0.3942  0.4071 -0.9159
 3202TIP3   OH231096   1.388   3.201   0.040  0.3763 -0.5435  0.2210
 3202TIP3    H131097   1.455   3.136   0.062 -0.2813 -1.9220 -1.7140
 3202TIP3    H231098   1.309   3.170   0.084  0.5958  0.2162  1.1787
 3203TIP3   OH231099   1.294   4.341  16.199  0.4492 -0.1533  0.2443
 3203TIP3    H131100   1.372   4.287  16.211  1.0597  0.7038  0.1949
 3203TIP3    H231101   1.327   4.431  16.198 -0.4342  0.1687 -0.7055
 3204TIP3   OH231102   2.470   5.181   1.816 -0.4019  0.2504 -0.0158
 3204TIP3    H131103   2.542   5.230   1.855 -0.7267  0.9419 -0.2869
 3204TIP3    H231104   2.394   5.239   1.824 -0.8883 -0.3932  0.0863
 3205TIP3   OH231105   5.726   3.491   5.062 -0.1372  0.0465 -0.1832
 3205TIP3    H131106   5.793   3.535   5.010 -1.3171  0.6491 -1.2039
 3205TIP3    H231107   5.668   3.561   5.091 -0.7496 -0.5628  0.0738
 3206TIP3   OH231108   2.097   0.781   0.909  0.0212 -0.6978 -0.3230
 3206TIP3    H131109   2.082   0.767   1.002 -1.4231 -0.1758 -0.4655
 3206TIP3    H231110   2.124   0.873   0.902 -0.2803 -0.6226 -0.4740
 3207TIP3   OH231111   3.386   3.846  14.482  0.1710  0.5032  0.4225
 3207TIP3    H131112   3.454   3.782  14.501 -1.1769 -0.7003  1.2465
 3207TIP3    H231113   3.423   3.930  14.510  0.9694 -0.2685  1.7034
 3208TIP3   OH231114   4.695   4.802   5.546  0.4455  0.0018  0.3629
 3208TIP3    H131115   4.669   4.746   5.619 -1.7728  0.5462  0.0197
 3208TIP3    H231116   4.721   4.741   5.477 -0.5316 -0.5782  0.5011
 3209TIP3   OH231117   1.584   3.492   2.906 -0.3444  0.3741 -1.0976
 3209TIP3    H131118   1.497   3.512   2.871  0.7376 -0.2142 -4.3024
 3209TIP3    H231119   1.591   3.397   2.900  0.8030  0.4795 -1.6372
 3210TIP3   OH231120   0.282   5.396  15.153 -0.0934  0.1182  0.1327
 3210TIP3    H131121   0.255   5.329  15.091 -0.9286  0.2226  0.3773
 3210TIP3    H231122   0.363   5.432  15.117  0.0789 -0.6663 -0.2584
 3211TIP3   OH231123   1.221   2.447   2.381  0.9047  0.2123 -0.2176
 3211TIP3    H131124   1.178   2.379   2.328  2.8124 -1.6446  0.5499
 3211TIP3    H231125   1.295   2.476   2.327  0.1616  1.6323 -0.4952
 3212TIP3   OH231126   4.314   4.212  10.839 -0.8766 -0.3106  0.6683
 3212TIP3    H131127   4.366   4.177  10.766 -0.0500  1.7279  0.2480
 3212TIP3    H231128   4.271   4.135  10.876  1.1614 -1.8377  0.0066
 3213TIP3   OH231129   2.531   3.010   5.341  0.0428  0.3586 -0.5690
 3213TIP3    H131130   2.449   2.994   5.293  0.7131  0.3986 -1.7593
 3213TIP3    H231131   2.565   3.091   5.303  1.1202 -0.1784 -0.7701
 3214TIP3   OH231132   2.281   3.972  14.006  0.0469  0.1611 -0.6606
 3214TIP3    H131133   2.271   3.880  13.982 -0.5358  0.0094  0.1604
 3214TIP3    H231134   2.357   4.002  13.956 -1.1992 -0.1135 -2.7905
 3215TIP3   OH231135   6.708   5.477   3.242  0.7140  0.3938  0.6649
 3215TIP3    H131136   6.635   5.469   3.180  2.0902  0.8072 -1.0587
 3215TIP3    H231137   6.731   5.387   3.264  0.2452  0.2416  0.5442
 3216TIP3   OH231138   1.862   5.114  11.510  0.0388 -0.6470  0.3121
 3216TIP3    H131139   1.796   5.053  11.541  0.5837  0.1386  3.1819
 3216TIP3    H231140   1.833   5.138  11.422 -4.0965  0.4867  1.8408
 3217TIP3   OH231141   3.008   2.460   3.398 -0.0652 -0.3456  0.4460
 3217TIP3    H131142   2.992   2.544   3.357 -1.5014 -0.9433 -0.2461
 3217TIP3    H231143   2.936   2.448   3.460 -0.0671 -1.2155  0.2902
 3218TIP3   OH231144   3.068   5.693  17.088  0.4572 -0.2085  0.8719
 3218TIP3    H131145   3.050   5.786  17.081  1.5560  0.3492  4.1597
 3218TIP3    H231146   2.988   5.655  17.124  0.0043 -0.5299 -0.4820
 3219TIP3   OH231147   3.466   6.450  15.965  0.3696 -0.7023 -0.4338
 3219TIP3    H131148   3.428   6.366  15.941  0.8446 -0.9446 -0.3250
 3219TIP3    H231149   3.401   6.489  16.025 -1.0165  0.0866 -2.3749
 3220TIP3   OH231150   0.734   2.949   0.735 -0.1531 -0.1417 -0.6783
 3220TIP3    H131151   0.733   3.017   0.802 -0.2683  0.0518 -0.8747
 3220TIP3    H231152   0.657   2.967   0.682 -0.1228 -0.3603 -0.7954
 3221TIP3   OH231153   5.962   3.733  13.137  0.1663  0.3772 -0.3437
 3221TIP3    H131154   6.025   3.717  13.067  0.0188 -0.7104 -0.2482
 3221TIP3    H231155   5.881   3.692  13.106  0.3091 -0.8027  0.7747
 3222TIP3   OH231156   3.148   4.822  15.017  0.5667 -0.5097  0.2104
 3222TIP3    H131157   3.068   4.788  15.057  1.3766 -0.3373  2.0308
 3222TIP3    H231158   3.207   4.747  15.015  0.4279 -0.6031 -1.0158
 3223TIP3   OH231159   2.120   1.248  12.530  0.2263 -0.2093  0.3188
 3223TIP3    H131160   2.201   1.259  12.479 -0.8300  1.1840 -1.1233
 3223TIP3    H231161   2.115   1.326  12.585 -0.3968 -0.0416  0.0267
 3224TIP3   OH231162   4.821   4.189   2.593  0.1666 -0.5851  1.1186
 3224TIP3    H131163   4.864   4.146   2.519  0.4598  1.9786 -0.2983
 3224TIP3    H231164   4.889   4.245   2.630 -0.8954  0.6985  1.1836
 3225TIP3   OH231165   3.655   5.518   5.498  0.4140  0.0690  0.5577
 3225TIP3    H131166   3.628   5.534   5.408 -0.6328  1.1558  1.0484
 3225TIP3    H231167   3.750   5.533   5.497  0.6199 -1.2558 -0.6333
 3226TIP3   OH231168   3.533   4.810   5.369 -0.4810 -0.1251 -0.5300
 3226TIP3    H131169   3.628   4.821   5.376 -0.6456  1.1954 -0.1806
 3226TIP3    H231170   3.520   4.770   5.283  0.3279  0.7655 -1.0826
 3227TIP3   OH231171   6.692   0.586   2.218 -0.2161  0.1214 -0.0562
 3227TIP3    H131172   6.757   0.560   2.284 -3.5862 -0.5234  3.1557
 3227TIP3    H231173   6.671   0.677   2.240 -1.9129 -0.3353  0.2777
 3228TIP3   OH231174   2.533   2.864   2.179 -0.5756 -0.0185  0.0684
 3228TIP3    H131175   2.534   2.916   2.099  1.1960  0.5146  0.4332
 3228TIP3    H231176   2.517   2.774   2.149 -2.5441  0.5439 -0.6430
 3229TIP3   OH231177   0.686   5.134   2.501 -0.3789  0.6060  0.4447
 3229TIP3    H131178   0.602   5.112   2.459 -0.3351  1.7797 -0.2671
 3229TIP3    H231179   0.679   5.095   2.588 -0.3275 -2.2317 -0.7397
 3230TIP3   OH231180   4.576   5.861  10.662 -0.6001  0.4585 -0.1675
 3230TIP3    H131181   4.591   5.860  10.567 -0.7806 -1.4919 -0.1879
 3230TIP3    H231182   4.489   5.902  10.671 -0.6496  0.5229 -0.8536
 3231TIP3   OH231183   2.962   4.579   0.317 -0.0625 -0.3328 -0.0698
 3231TIP3    H131184   2.943   4.634   0.240 -0.3554  1.3775  1.1863
 3231TIP3    H231185   3.053   4.551   0.304  0.5001  1.4698 -0.1644
 3232TIP3   OH231186   2.859   2.792  11.513  0.1339 -0.6152 -0.4475
 3232TIP3    H131187   2.840   2.698  11.506  2.4760 -1.4376  3.2232
 3232TIP3    H231188   2.801   2.823  11.582 -0.8534  0.7926 -1.8596
 3233TIP3   OH231189   3.738   4.153  16.552  0.6818  0.0019  0.3861
 3233TIP3    H131190   3.749   4.136  16.645  0.4731 -1.5919  0.1430
 3233TIP3    H231191   3.643   4.153  16.538  0.7269 -0.6779  0.0319
 3234TIP3   OH231192   5.285   4.243  13.880 -0.7695 -0.9238 -0.2158
 3234TIP3    H131193   5.349   4.283  13.821  1.3735 -3.0623  0.5756
 3234TIP3    H231194   5.321   4.258  13.968 -2.0380 -0.9602  0.3109
 3235TIP3   OH231195   6.519   3.249   1.035 -0.0446 -0.5319 -0.1532
 3235TIP3    H131196   6.517   3.170   0.981  0.1158 -2.1123  2.0360
 3235TIP3    H231197   6.609   3.255   1.066 -0.3913 -0.3088  0.8362
 3236TIP3   OH231198   5.340   4.553  12.992 -0.1932  0.5373 -0.2492
 3236TIP3    H131199   5.300   4.619  13.047 -1.1936  0.0874 -0.4333
 3236TIP3    H231200   5.274   4.534  12.925 -0.1120 -0.9971  0.0883
 3237TIP3   OH231201   4.087   4.268   0.343  0.2234  0.2341 -0.1104
 3237TIP3    H131202   4.037   4.296   0.266  0.3085  0.4219 -0.0991
 3237TIP3    H231203   4.170   4.237   0.307  0.5127  0.9152 -0.0501
 3238TIP3   OH231204   5.160   4.601  12.773  0.1754 -0.5031  0.3738
 3238TIP3    H131205   5.107   4.540  12.722 -1.3266 -0.2048  1.5421
 3238TIP3    H231206   5.190   4.666  12.710 -0.7493 -0.7492 -0.3301
 3239TIP3   OH231207   0.028   4.330  15.345  0.2084  0.0957 -0.5520
 3239TIP3    H131208   0.093   4.272  15.385 -0.6449 -0.4835  0.0355
 3239TIP3    H231209  -0.008   4.278  15.273  0.0276  0.2084 -0.5427
 3240TIP3   OH231210   3.778   3.791   4.135  0.0100  0.0946 -0.1394
 3240TIP3    H131211   3.756   3.703   4.165  0.1250 -0.1697 -0.8211
 3240TIP3    H231212   3.760   3.847   4.210 -2.6958 -0.1586 -0.5427
 3241TIP3   OH231213   3.153   4.359  12.845 -0.1018 -0.0216  0.4563
 3241TIP3    H131214   3.111   4.289  12.894  0.4299 -0.4634  0.2846
 3241TIP3    H231215   3.084   4.425  12.834 -0.5883 -0.4899  0.6625
 3242TIP3   OH231216   3.388   1.886   4.701 -0.4222  0.0607  0.7582
 3242TIP3    H131217   3.439   1.820   4.747  1.8099 -2.0532 -4.4825
 3242TIP3    H231218   3.448   1.960   4.692 -1.1506  0.8129  1.8883
 3243TIP3   OH231219   5.795   4.763  14.868  0.4591 -0.7660  0.2599
 3243TIP3    H131220   5.826   4.831  14.928 -0.0789 -0.0197 -0.3109
 3243TIP3    H231221   5.834   4.682  14.902  0.6717 -0.2557  1.2492
 3244TIP3   OH231222   3.059   6.117   3.499 -0.1210 -0.4420 -0.4003
 3244TIP3    H131223   3.153   6.111   3.513 -0.2678 -0.1460  0.7834
 3244TIP3    H231224   3.032   6.027   3.479  0.5342 -0.3801 -1.6077
 3245TIP3   OH231225   5.692   3.604   1.103  0.0413  0.3762 -0.8749
 3245TIP3    H131226   5.762   3.559   1.151  0.8715  1.3378 -1.1459
 3245TIP3    H231227   5.667   3.676   1.160 -0.9075 -0.0984 -0.6794
 3246TIP3   OH231228   5.509   5.184  16.964 -0.1755 -0.4446  0.6506
 3246TIP3    H131229   5.447   5.225  17.024 -1.0431  0.9811 -1.1471
 3246TIP3    H231230   5.546   5.258  16.915  0.9302 -1.5310 -0.1773
 3247TIP3   OH231231   3.317   5.193  11.823 -0.0112 -0.0795 -0.1059
 3247TIP3    H131232   3.225   5.219  11.828  0.1502  0.6555 -0.9375
 3247TIP3    H231233   3.334   5.184  11.729  0.6326 -0.7134  0.0643
 3248TIP3   OH231234   3.605   2.228  13.135 -0.3585 -0.1487 -0.2612
 3248TIP3    H131235   3.592   2.137  13.164 -0.4064 -0.3833 -1.0143
 3248TIP3    H231236   3.576   2.229  13.044 -0.4670  0.6556 -0.2212
 3249TIP3   OH231237   3.605   2.060  15.157 -0.5098  0.1243 -0.1116
 3249TIP3    H131238   3.694   2.090  15.140 -0.5552 -0.1016 -0.7486
 3249TIP3    H231239   3.587   1.995  15.088 -1.2013  0.2433 -0.0499
 3250TIP3   OH231240   6.065   4.532  13.670  0.2138 -0.0735  0.3807
 3250TIP3    H131241   5.976   4.523  13.635  0.5765  0.8431 -0.7981
 3250TIP3    H231242   6.076   4.456  13.727 -1.2522 -0.3133  0.3621
 3251TIP3   OH231243   3.291   5.852   3.879 -0.5733  0.4394  0.6730
 3251TIP3    H131244   3.323   5.938   3.910  0.1113  0.1917  0.6626
 3251TIP3    H231245   3.196   5.863   3.872 -0.6997  0.6392  2.4676
 3252TIP3   OH231246   6.309   3.027  14.739 -0.3648  0.7026  0.3889
 3252TIP3    H131247   6.267   3.054  14.658 -0.1045  3.6719  1.1923
 3252TIP3    H231248   6.238   2.993  14.794 -0.5431 -1.2790 -1.0267
 3253TIP3   OH231249   5.705   1.227  13.725 -0.5362 -0.3549  0.1022
 3253TIP3    H131250   5.791   1.269  13.736 -0.9875  0.1999  1.7209
 3253TIP3    H231251   5.669   1.223  13.814 -1.8220 -1.3813 -0.4447
 3254TIP3   OH231252   6.420   0.403  15.161  0.0929 -0.8983  0.4334
 3254TIP3    H131253   6.423   0.356  15.245 -0.4527 -0.0188  0.9602
 3254TIP3    H231254   6.330   0.436  15.156  0.2981 -0.4403 -0.2236
 3255TIP3   OH231255   6.761   3.871  12.041 -0.1537 -0.3484 -0.6417
 3255TIP3    H131256   6.710   3.952  12.040 -0.9258 -0.8120  0.4883
 3255TIP3    H231257   6.771   3.850  12.134  2.4753 -0.0293 -0.8224
 3256TIP3   OH231258   0.759   5.926  16.752  0.4641 -0.0550 -0.1677
 3256TIP3    H131259   0.674   5.888  16.772 -0.0630  2.1861  2.1170
 3256TIP3    H231260   0.813   5.907  16.829  0.5196  2.7192  0.5403
 3257TIP3   OH231261   6.123   6.038   0.741  0.2977 -0.3110 -0.2586
 3257TIP3    H131262   6.030   6.025   0.719  1.0467 -2.4234 -2.4715
 3257TIP3    H231263   6.148   6.117   0.692 -0.2877  0.1870  0.2350
 3258TIP3   OH231264   4.613   1.101   1.029  0.4709 -0.0456  0.2350
 3258TIP3    H131265   4.653   1.019   1.001 -0.3378 -0.2639 -0.3045
 3258TIP3    H231266   4.526   1.075   1.060 -0.0285  0.6889 -0.5414
 3259TIP3   OH231267   1.923   1.629   0.964  0.3273 -0.3926 -0.1345
 3259TIP3    H131268   1.987   1.697   0.984  0.2735 -0.5017  0.4080
 3259TIP3    H231269   1.970   1.568   0.908  1.0450 -1.0635  1.1777
 3260TIP3   OH231270   1.071   3.036   1.874  0.5874 -0.2897 -0.2567
 3260TIP3    H131271   0.996   3.096   1.879  0.7910 -0.1219  0.8230
 3260TIP3    H231272   1.145   3.092   1.851  0.7247 -0.1675  0.4768
 3261TIP3   OH231273   0.734   3.097  15.828 -0.1786 -0.1228 -0.3021
 3261TIP3    H131274   0.807   3.139  15.781  1.2089 -0.3704  1.5436
 3261TIP3    H231275   0.761   3.006  15.837 -0.1615  0.0187  1.3630
 3262TIP3   OH231276   6.699   5.651  15.535 -0.4797 -0.2594 -0.3593
 3262TIP3    H131277   6.693   5.741  15.502  1.5213  0.0090 -0.0283
 3262TIP3    H231278   6.691   5.596  15.457  1.0389  0.2939 -0.9208
 3263TIP3   OH231279   6.019   6.073   1.147 -0.1080  0.7721 -0.2372
 3263TIP3    H131280   6.060   6.156   1.123  1.0239  0.2225 -0.2306
 3263TIP3    H231281   6.093   6.015   1.167 -0.8997 -0.1705 -0.0390
 3264TIP3   OH231282   5.901   0.791  11.295  0.4839  0.3986 -0.2824
 3264TIP3    H131283   5.861   0.868  11.335  1.1881  0.7149 -0.1781
 3264TIP3    H231284   5.970   0.826  11.237  1.3347 -0.1777  0.3629
 3265TIP3   OH231285   6.453   0.400  15.438  0.4865  0.5328  0.1850
 3265TIP3    H131286   6.398   0.347  15.496 -0.6460  1.2108 -0.2360
 3265TIP3    H231287   6.540   0.361  15.444 -0.1595 -0.9099  0.4559
 3266TIP3   OH231288   0.524   0.748  14.517  0.3206 -0.9712 -0.3776
 3266TIP3    H131289   0.478   0.813  14.463 -0.4888 -0.2234  1.1550
 3266TIP3    H231290   0.536   0.673  14.459 -2.4353 -1.0058 -0.9944
 3267TIP3   OH231291   2.796   5.256  12.039 -0.3048 -0.1954  0.4386
 3267TIP3    H131292   2.815   5.341  11.998 -0.7492 -0.3905 -0.1669
 3267TIP3    H231293   2.852   5.255  12.117  1.1330 -0.1536 -0.5721
 3268TIP3   OH231294   3.136   5.956  14.009  0.1459 -0.4466 -0.4552
 3268TIP3    H131295   3.160   5.932  14.098 -0.3889 -0.2571 -0.2550
 3268TIP3    H231296   3.063   6.018  14.020  0.3385 -0.1211 -1.0104
 3269TIP3   OH231297   6.460   2.383   1.659 -0.2304  0.3230  0.0454
 3269TIP3    H131298   6.405   2.364   1.735 -0.4118  2.2552  0.4194
 3269TIP3    H231299   6.549   2.386   1.695 -0.1857 -0.0375 -0.0419
 3270TIP3   OH231300   0.298   3.529   1.114 -0.3602  0.0984  0.1872
 3270TIP3    H131301   0.244   3.606   1.130  0.6865  1.4946 -2.7425
 3270TIP3    H231302   0.348   3.550   1.035  1.9481 -2.5130  0.8639
 3271TIP3   OH231303   0.052   4.752   0.813  0.0301 -0.2251 -0.2722
 3271TIP3    H131304  -0.002   4.801   0.752 -0.5195 -0.6350 -0.1200
 3271TIP3    H231305   0.066   4.667   0.771  1.5073  0.2743 -0.8184
 3272TIP3   OH231306   1.420   4.087  14.859 -0.1269 -0.3823  0.3592
 3272TIP3    H131307   1.441   4.175  14.830  0.9379 -1.1460 -1.2755
 3272TIP3    H231308   1.458   4.080  14.946 -0.4216  0.8356  0.5942
 3273TIP3   OH231309   6.741   0.443   5.239 -0.0785 -0.0041  0.0399
 3273TIP3    H131310   6.775   0.494   5.312  1.1960  0.4903 -0.8725
 3273TIP3    H231311   6.649   0.468   5.233  0.3048  1.4608  0.2082
 3274TIP3   OH231312   6.380   1.149  14.496  0.0758  0.0497  0.2446
 3274TIP3    H131313   6.326   1.217  14.456  0.6115  1.0223  1.1545
 3274TIP3    H231314   6.470   1.179  14.484  0.4118 -1.4463 -1.0473
 3275TIP3   OH231315   1.197   2.659   0.297 -0.1535 -0.5420  0.0646
 3275TIP3    H131316   1.260   2.592   0.271 -0.0729 -0.5254  0.2183
 3275TIP3    H231317   1.119   2.609   0.323 -1.5935 -0.4592 -3.7483
 3276TIP3   OH231318   3.273   4.559   3.900 -0.0222  0.5009 -0.6468
 3276TIP3    H131319   3.253   4.512   3.981  0.8528 -1.4189 -1.5225
 3276TIP3    H231320   3.359   4.599   3.916  0.1636  0.0980 -0.6177
 3277TIP3   OH231321   3.506   3.417   3.524  1.1362 -0.0885 -0.5532
 3277TIP3    H131322   3.506   3.513   3.521  1.2484 -0.0909 -0.6477
 3277TIP3    H231323   3.530   3.391   3.435 -0.0672 -0.2125 -0.8490
 3278TIP3   OH231324   2.132   4.571  16.607 -0.8795 -0.2498  0.0886
 3278TIP3    H131325   2.205   4.516  16.635  0.5311 -0.0855 -3.0139
 3278TIP3    H231326   2.058   4.511  16.598  0.3381 -1.4529 -2.1127
 3279TIP3   OH231327   5.662   4.355  13.374  0.5156 -0.1012 -0.5026
 3279TIP3    H131328   5.690   4.269  13.407  1.0426  0.4432  0.4702
 3279TIP3    H231329   5.666   4.346  13.279 -2.1470 -2.0817 -0.4995
 3280TIP3   OH231330   2.826   3.171   5.366  0.1629  0.3739  0.1425
 3280TIP3    H131331   2.848   3.225   5.442  0.1073 -0.8868  1.0758
 3280TIP3    H231332   2.884   3.201   5.297 -0.3861  2.1382  0.4185
 3281TIP3   OH231333   1.938   1.230   0.433  0.0589 -0.0040  0.2252
 3281TIP3    H131334   1.857   1.276   0.411  0.0977  0.9333  1.9744
 3281TIP3    H231335   1.988   1.293   0.485  1.1417 -1.2133  0.6679
 3282TIP3   OH231336   6.179   3.589   2.986 -0.0568 -0.0209 -0.7079
 3282TIP3    H131337   6.172   3.500   2.951 -0.7611 -0.9944  1.8166
 3282TIP3    H231338   6.092   3.609   3.019 -0.6665  2.7260 -3.7020
 3283TIP3   OH231339   3.356   4.095  13.078 -0.3042 -0.1336  0.2911
 3283TIP3    H131340   3.446   4.120  13.059 -0.0206 -1.2917  0.0324
 3283TIP3    H231341   3.318   4.077  12.992 -0.1949 -1.5437  0.5241
 3284TIP3   OH231342   6.527   6.301   1.886  0.4032  0.1263  0.1145
 3284TIP3    H131343   6.570   6.351   1.956  1.8668  0.7232 -1.1879
 3284TIP3    H231344   6.562   6.338   1.805  1.4299 -2.8969 -0.8960
 3285TIP3   OH231345   3.442   1.327  11.905 -0.2312  0.1110 -0.7831
 3285TIP3    H131346   3.393   1.281  11.837 -2.0047 -1.4584  1.4443
 3285TIP3    H231347   3.521   1.275  11.918  0.0759  0.3772 -1.5846
 3286TIP3   OH231348   0.646   0.991   4.740 -0.1055 -0.1498 -0.0382
 3286TIP3    H131349   0.653   0.991   4.644 -2.4160  1.9862 -0.2346
 3286TIP3    H231350   0.726   1.034   4.769  0.6196 -0.8155 -0.9826
 3287TIP3   OH231351   0.894   2.014   1.955  0.4037  0.3825 -0.0226
 3287TIP3    H131352   0.860   2.104   1.957 -0.5853  0.0826 -1.8713
 3287TIP3    H231353   0.972   2.020   1.900  0.9517  0.2966  0.7428
 3288TIP3   OH231354   1.568   2.747   0.918 -0.1779 -0.0749 -1.1212
 3288TIP3    H131355   1.581   2.841   0.910  2.0081 -0.3922 -1.4131
 3288TIP3    H231356   1.574   2.714   0.828  1.2086 -0.7390 -0.8034
 3289TIP3   OH231357   3.648   4.584  13.780  0.7409  0.0206 -0.2773
 3289TIP3    H131358   3.665   4.610  13.871  0.6381  0.1291 -0.2894
 3289TIP3    H231359   3.552   4.584  13.773  0.7617  0.4997 -0.5314
 3290TIP3   OH231360   5.440   6.620   3.902  0.0878  0.2343 -0.0712
 3290TIP3    H131361   5.527   6.580   3.907  0.2986  0.7708  0.6198
 3290TIP3    H231362   5.398   6.577   3.827  0.2370 -1.4242  0.7711
 3291TIP3   OH231363   2.807   4.547  16.847 -0.0350 -0.2684 -0.3825
 3291TIP3    H131364   2.853   4.631  16.842  0.1675 -0.1743  2.2969
 3291TIP3    H231365   2.715   4.569  16.832  0.0615  0.3949 -0.0058
 3292TIP3   OH231366   1.580   2.476  14.052 -0.4504  0.0309 -0.7847
 3292TIP3    H131367   1.518   2.543  14.023 -0.9087  0.3229  0.7680
 3292TIP3    H231368   1.566   2.471  14.147  2.4845  0.6877 -0.2648
 3293TIP3   OH231369   0.841   3.167  14.092 -0.5177  0.0196  0.3355
 3293TIP3    H131370   0.839   3.166  13.996  0.1829 -0.5848  0.3186
 3293TIP3    H231371   0.885   3.249  14.114  1.8400 -1.1325  0.0662
 3294TIP3   OH231372   3.495   3.500  14.825 -0.1389  0.0146 -0.1656
 3294TIP3    H131373   3.534   3.420  14.861  2.1854  0.0405 -2.4661
 3294TIP3    H231374   3.507   3.492  14.730 -2.4840  1.7765 -0.6653
 3295TIP3   OH231375   6.226   4.911   2.950  0.0716  0.2311 -0.1834
 3295TIP3    H131376   6.162   4.897   3.020 -1.2321 -0.1659 -1.4255
 3295TIP3    H231377   6.283   4.980   2.983 -0.7710  0.3324  1.1058
 3296TIP3   OH231378   4.601   4.851  12.461  0.2010 -0.3471 -0.0175
 3296TIP3    H131379   4.522   4.819  12.505  0.0377  0.7074  0.4527
 3296TIP3    H231380   4.673   4.810  12.509  0.0374  1.0390  1.4321
 3297TIP3   OH231381   3.803   5.609   4.847 -0.2693 -0.0929 -0.2327
 3297TIP3    H131382   3.787   5.623   4.754 -1.2931  2.4306  0.2901
 3297TIP3    H231383   3.893   5.576   4.851 -0.6031 -1.3083 -2.1719
 3298TIP3   OH231384   5.207   1.537   1.214 -0.1120 -0.0656 -0.1442
 3298TIP3    H131385   5.187   1.454   1.171  0.4854 -0.8794  1.1443
 3298TIP3    H231386   5.210   1.517   1.307 -1.9931  1.8083  0.3713
 3299TIP3   OH231387   2.525   5.681   5.039  0.2032  0.4239 -0.3816
 3299TIP3    H131388   2.503   5.709   5.127 -0.4532  0.5160 -0.5723
 3299TIP3    H231389   2.608   5.634   5.049  1.1447  2.1436 -0.0211
 3300TIP3   OH231390   6.330   1.890   4.744  0.0321  0.0770 -0.6262
 3300TIP3    H131391   6.287   1.889   4.659 -0.8150 -0.0770 -0.1958
 3300TIP3    H231392   6.316   1.979   4.777 -2.3495 -0.7688  0.7241
 3301TIP3   OH231393   1.586   6.256  14.450 -0.5009  0.6094 -0.2647
 3301TIP3    H131394   1.602   6.313  14.525 -1.9424  0.2588  0.3266
 3301TIP3    H231395   1.518   6.196  14.480 -0.7942  0.1981 -1.7214
 3302TIP3   OH231396   4.136   0.229  10.773  0.0304 -0.2418  0.2113
 3302TIP3    H131397   4.155   0.148  10.726 -0.3225  0.0828 -0.4944
 3302TIP3    H231398   4.219   0.276  10.775 -0.2147  0.2898 -1.1617
 3303TIP3   OH231399   6.020   4.280  14.633 -0.2607 -0.2839  0.1896
 3303TIP3    H131400   5.929   4.276  14.661 -0.4131  0.6746 -0.1451
 3303TIP3    H231401   6.070   4.276  14.714 -0.7026  2.8021  0.7072
 3304TIP3   OH231402   4.332   0.663   1.982  0.0597 -0.0561 -0.5013
 3304TIP3    H131403   4.276   0.732   2.017 -0.7243 -1.2230  0.5925
 3304TIP3    H231404   4.380   0.630   2.058  0.8514 -0.3321 -1.1120
 3305TIP3   OH231405   2.842   4.216   2.699 -0.1193 -0.0501 -0.1529
 3305TIP3    H131406   2.844   4.198   2.793  1.5488 -0.9271 -0.3434
 3305TIP3    H231407   2.839   4.311   2.693 -1.7976 -0.0292  0.7958
 3306TIP3   OH231408   4.305   6.032  13.034  0.2710 -0.5359  0.1403
 3306TIP3    H131409   4.390   6.075  13.043  0.2441 -0.0723 -1.6780
 3306TIP3    H231410   4.258   6.056  13.113  0.6423  1.9377 -0.3393
 3307TIP3   OH231411   4.280   5.778  11.704  0.2755  0.1003 -0.5787
 3307TIP3    H131412   4.358   5.724  11.718 -0.1059 -0.0768  0.9991
 3307TIP3    H231413   4.274   5.788  11.609  1.8423 -0.4330 -0.7517
 3308TIP3   OH231414   5.424   5.857  16.823 -0.1447 -0.1907 -0.0699
 3308TIP3    H131415   5.414   5.944  16.786  0.1321 -0.0870  0.0995
 3308TIP3    H231416   5.488   5.867  16.893 -0.7418 -0.3655  0.5065
 3309TIP3   OH231417   6.739   3.079   0.688  0.1055 -0.2012 -0.2628
 3309TIP3    H131418   6.768   3.135   0.760 -1.3140  0.2501 -0.0269
 3309TIP3    H231419   6.779   2.994   0.706  0.6116  0.1890  0.4846
 3310TIP3   OH231420   0.510   2.092   4.863 -0.2140 -0.4315 -0.2796
 3310TIP3    H131421   0.597   2.064   4.834 -0.1365 -0.5911  0.0970
 3310TIP3    H231422   0.450   2.042   4.808 -0.0693  0.1000 -0.9330
 3311TIP3   OH231423   1.461   0.981  16.372 -0.1768  0.7801 -0.5860
 3311TIP3    H131424   1.547   1.021  16.366  0.9105 -1.1260  1.4324
 3311TIP3    H231425   1.442   0.978  16.466 -2.2923  0.8557 -0.9799
 3312TIP3   OH231426   2.585   3.003   0.561 -0.4032 -0.7708 -0.4111
 3312TIP3    H131427   2.544   2.960   0.487  0.0867 -2.4589  0.2886
 3312TIP3    H231428   2.644   2.938   0.598  0.1544  0.4032  0.8213
 3313TIP3   OH231429   2.237   5.636  12.474  0.1979 -0.2328 -0.2283
 3313TIP3    H131430   2.285   5.701  12.525  0.4042 -2.5160  2.5584
 3313TIP3    H231431   2.145   5.652  12.497  0.1928 -0.5049 -0.0671
 3314TIP3   OH231432   2.228   3.869  16.470  0.3799 -0.7981 -0.1451
 3314TIP3    H131433   2.146   3.821  16.467  0.3370 -0.7504  0.3069
 3314TIP3    H231434   2.204   3.958  16.496  0.3906 -0.3761 -1.5348
 3315TIP3   OH231435   2.018   6.282  14.552  0.0567 -0.4920  0.6068
 3315TIP3    H131436   2.008   6.289  14.457  0.1456  3.2815  0.7933
 3315TIP3    H231437   2.107   6.314  14.569 -0.1753 -0.5421  1.9858
 3316TIP3   OH231438   5.538   2.444  15.637  0.3012 -0.0279  0.2461
 3316TIP3    H131439   5.525   2.538  15.629  1.5624  0.1449  0.1345
 3316TIP3    H231440   5.633   2.433  15.641  0.1260 -1.1624  1.8608
 3317TIP3   OH231441   0.413   1.391   2.768 -0.4202  0.1319  0.2392
 3317TIP3    H131442   0.406   1.296   2.767 -2.0096  0.2289  0.0710
 3317TIP3    H231443   0.405   1.417   2.676  1.0488  0.3698  0.1747
 3318TIP3   OH231444   6.405   1.581   6.172  0.7028 -0.3089  0.2128
 3318TIP3    H131445   6.322   1.584   6.221  0.8552 -0.0171  0.4494
 3318TIP3    H231446   6.381   1.541   6.088 -0.0059  1.3460 -0.3911
 3319TIP3   OH231447   5.397   1.661   0.585 -0.1527  0.1029 -0.0904
 3319TIP3    H131448   5.437   1.725   0.643 -0.4404  1.9037 -1.8202
 3319TIP3    H231449   5.324   1.626   0.635 -1.6887  3.1558 -0.0672
 3320TIP3   OH231450   2.472   5.752  13.330  0.3313  0.1722 -0.0904
 3320TIP3    H131451   2.549   5.737  13.275  1.3697  0.8263  1.1473
 3320TIP3    H231452   2.415   5.678  13.312  0.3470  0.6850 -2.5093
 3321TIP3   OH231453   2.831   3.411  16.629  0.6935 -0.5287 -0.4886
 3321TIP3    H131454   2.851   3.490  16.678  4.4844 -1.9163  0.4645
 3321TIP3    H231455   2.833   3.438  16.537  0.5036  0.7431 -0.1230
 3322TIP3   OH231456   2.679   4.586  13.011  0.2349 -0.4021  0.1099
 3322TIP3    H131457   2.627   4.601  12.932 -2.0854  0.5601  1.7769
 3322TIP3    H231458   2.677   4.670  13.058  1.9180 -0.8440  1.0082
 3323TIP3   OH231459   6.089   3.177  15.673  0.2185 -0.6226  0.9319
 3323TIP3    H131460   6.034   3.121  15.618 -0.6457  1.0816  0.0183
 3323TIP3    H231461   6.042   3.183  15.756 -0.4927  0.0329  0.4857
 3324TIP3   OH231462   4.854   5.445   5.324  0.4863  0.3617 -0.1620
 3324TIP3    H131463   4.842   5.408   5.412 -1.5434  0.4798 -0.3663
 3324TIP3    H231464   4.770   5.485   5.303  1.5492  2.0483 -1.3861
 3325TIP3   OH231465   5.613   0.833  15.104 -0.2429  0.2591  0.7509
 3325TIP3    H131466   5.577   0.892  15.038  2.1920  0.5729 -0.3891
 3325TIP3    H231467   5.637   0.889  15.177 -0.2996  0.3224  0.7212
 3326TIP3   OH231468   3.822   6.297   0.891  0.5136 -0.3099 -0.4972
 3326TIP3    H131469   3.878   6.261   0.960  1.2107 -0.8294 -1.3297
 3326TIP3    H231470   3.841   6.245   0.814  1.0125  1.3733 -1.5463
 3327TIP3   OH231471   6.188   1.109   0.196 -0.3800  0.1041 -0.5659
 3327TIP3    H131472   6.239   1.190   0.194  0.5478 -0.4258  1.1647
 3327TIP3    H231473   6.114   1.128   0.252 -0.0846 -0.2882 -0.0387
 3328TIP3   OH231474   1.622   5.910   5.108  1.2526 -0.5630 -0.0398
 3328TIP3    H131475   1.673   5.989   5.090 -0.6136  0.5691 -0.4725
 3328TIP3    H231476   1.550   5.914   5.046  0.1699 -1.7040  1.1334
 3329TIP3   OH231477   6.397   1.528   2.389  0.0409  0.1520 -0.1176
 3329TIP3    H131478   6.485   1.550   2.357 -0.1432  1.1064  0.0259
 3329TIP3    H231479   6.338   1.561   2.321 -0.2705  0.7509  0.4327
 3330TIP3   OH231480   3.923   2.545   1.254 -0.0196  0.0824  0.0769
 3330TIP3    H131481   3.858   2.480   1.281 -0.9623  2.0034  2.6508
 3330TIP3    H231482   3.871   2.618   1.220  0.8342  1.0096  0.7391
 3331TIP3   OH231483   4.359   0.848  13.621 -0.2048  0.5417 -0.0798
 3331TIP3    H131484   4.344   0.765  13.665 -2.6486  0.9019 -0.1478
 3331TIP3    H231485   4.351   0.914  13.691  0.3105  0.8240 -0.2804
 3332TIP3   OH231486   3.774   5.590   0.259  0.1879 -0.1453  0.0616
 3332TIP3    H131487   3.749   5.544   0.178  0.7351 -1.1969  0.4799
 3332TIP3    H231488   3.692   5.598   0.308 -0.0373 -0.0557 -0.3272
 3333TIP3   OH231489   6.735   0.280   0.785  0.3973  0.2261 -0.2054
 3333TIP3    H131490   6.679   0.233   0.723 -0.0740  1.4959 -0.7686
 3333TIP3    H231491   6.818   0.290   0.739  0.6702 -0.5082  0.1203
 3334TIP3   OH231492   6.667   0.638   3.950 -0.1174  0.1294  0.1876
 3334TIP3    H131493   6.664   0.700   3.876 -2.1798  0.5922  0.6414
 3334TIP3    H231494   6.640   0.690   4.026  0.7720 -0.6641  1.0650
 3335TIP3   OH231495   3.884   2.168  12.594  0.0965 -0.6471  0.0811
 3335TIP3    H131496   3.822   2.101  12.625 -0.7006 -0.1755 -0.4859
 3335TIP3    H231497   3.956   2.117  12.556 -0.3469 -1.1917 -0.0444
 3336TIP3   OH231498   5.153   4.639   0.036  0.2569 -0.6136  0.2063
 3336TIP3    H131499   5.134   4.703  -0.034  2.6224 -2.0334 -1.8057
 3336TIP3    H231500   5.069   4.595   0.051 -0.8451  1.3382 -0.0325
 3337TIP3   OH231501   5.679   5.481   4.240 -0.1410  0.0069  0.3570
 3337TIP3    H131502   5.697   5.422   4.167  1.8083  0.4890  0.4343
 3337TIP3    H231503   5.648   5.424   4.310 -1.3931 -0.5329 -0.6293
 3338TIP3   OH231504   5.154   5.899  12.588  0.2378  0.0628 -0.2275
 3338TIP3    H131505   5.179   5.991  12.579 -1.3085  0.4954 -0.1336
 3338TIP3    H231506   5.208   5.854  12.522  1.3755  0.9506  0.0790
 3339TIP3   OH231507   5.900   5.725  12.761 -0.3573  0.1378  0.1576
 3339TIP3    H131508   5.816   5.677  12.761  0.6545 -1.7616 -1.9753
 3339TIP3    H231509   5.933   5.716  12.850 -1.3815 -1.0272  0.4355
 3340TIP3   OH231510   2.160   4.980   6.119  0.5247 -0.4172 -0.6020
 3340TIP3    H131511   2.109   4.911   6.078  0.5781 -1.4141  0.9966
 3340TIP3    H231512   2.193   4.942   6.200  0.0021  1.6882  0.6511
 3341TIP3   OH231513   1.314   4.902  14.475 -0.2935  0.5799  0.0926
 3341TIP3    H131514   1.261   4.911  14.554  1.1649 -2.1367  1.4773
 3341TIP3    H231515   1.401   4.933  14.501 -0.1453  0.9513 -0.8513
 3342TIP3   OH231516   5.960   0.079  17.156 -0.8920  0.0978  0.1863
 3342TIP3    H131517   5.944   0.068  17.250 -2.1110  0.7477  0.0720
 3342TIP3    H231518   5.872   0.082  17.117 -0.4264  0.9292 -0.8403
 3343TIP3   OH231519   0.613   6.452   5.903  0.2071 -0.1241 -0.3914
 3343TIP3    H131520   0.679   6.422   5.966 -0.1477 -0.3382 -0.1154
 3343TIP3    H231521   0.627   6.398   5.826  0.6696  0.1635 -0.5102
 3344TIP3   OH231522   1.623   0.950  12.544 -0.3879  0.3327 -0.1360
 3344TIP3    H131523   1.580   1.031  12.570 -2.2965 -0.7768  0.3066
 3344TIP3    H231524   1.663   0.917  12.625 -1.0706 -0.0011  0.0771
 3345TIP3   OH231525   2.173   2.191   2.380  0.1157  0.2413  0.2434
 3345TIP3    H131526   2.195   2.265   2.324  0.2326 -0.4908 -0.6942
 3345TIP3    H231527   2.230   2.201   2.456 -2.8376  3.4567  2.1560
 3346TIP3   OH231528   6.467   3.145   5.970  0.1288  0.0336  0.0962
 3346TIP3    H131529   6.500   3.139   6.060  0.6865  3.2531  0.2009
 3346TIP3    H231530   6.384   3.098   5.971  1.5669 -2.5301  1.5231
 3347TIP3   OH231531   0.028   5.849   5.341 -0.0534  0.3928 -0.1641
 3347TIP3    H131532  -0.004   5.764   5.313 -2.4918  0.2881  2.7159
 3347TIP3    H231533   0.100   5.830   5.401 -0.1024  0.3971 -0.1036
 3348TIP3   OH231534   3.450   0.894  11.902 -0.0186  0.2521 -0.0013
 3348TIP3    H131535   3.359   0.900  11.873  0.6193 -2.1579 -2.7284
 3348TIP3    H231536   3.454   0.810  11.949  0.9427 -0.0042 -0.5352
 3349TIP3   OH231537   4.469   1.439  12.708  0.2671 -0.1892 -0.1740
 3349TIP3    H131538   4.527   1.422  12.782  1.7097 -0.4903 -1.3528
 3349TIP3    H231539   4.400   1.495  12.744  2.6858  2.3574  0.6977
 3350TIP3   OH231540   5.787   3.279   3.798 -0.4692  0.1717 -0.1610
 3350TIP3    H131541   5.856   3.224   3.835  1.3694  1.6280 -1.3535
 3350TIP3    H231542   5.751   3.226   3.726 -0.0007 -0.2534 -0.0918
 3351TIP3   OH231543   6.453   4.456   3.353  0.5191  0.2721  0.6733
 3351TIP3    H131544   6.482   4.547   3.341  0.9709  0.1704  1.0010
 3351TIP3    H231545   6.453   4.443   3.448 -1.8024  0.6663  0.7672
 3352TIP3   OH231546   4.256   3.765   6.026  0.0334 -0.1019  0.0622
 3352TIP3    H131547   4.242   3.736   6.117  1.2307 -0.8955 -0.0018
 3352TIP3    H231548   4.248   3.861   6.030 -0.1130 -0.1477  0.9695
 3353TIP3   OH231549   4.825   0.521  16.312  0.3476 -0.1671  0.0642
 3353TIP3    H131550   4.909   0.475  16.307 -0.3142 -1.3631 -0.2071
 3353TIP3    H231551   4.782   0.501  16.229 -0.4665 -0.0605  0.4603
 3354TIP3   OH231552   3.933   4.088   4.643 -0.3656 -0.1559 -0.4419
 3354TIP3    H131553   3.903   4.113   4.730  0.2252 -2.3395  0.4248
 3354TIP3    H231554   3.863   4.117   4.584 -1.1312  0.6300  0.8375
 3355TIP3   OH231555   3.990   1.948  16.477 -0.2699  0.5539 -0.2208
 3355TIP3    H131556   3.898   1.953  16.502 -0.5454 -0.0460 -1.0681
 3355TIP3    H231557   4.023   1.869  16.521 -0.3006  0.4813 -0.3264
 3356TIP3   OH231558   0.719   6.744  16.373  0.5120 -0.6345 -0.5067
 3356TIP3    H131559   0.713   6.653  16.402 -0.4628 -0.3726  0.1580
 3356TIP3    H231560   0.805   6.751  16.332  1.0050 -1.5936  0.3475
 3357TIP3   OH231561   4.758   0.359  12.993  0.1393  0.0999 -0.2470
 3357TIP3    H131562   4.682   0.317  13.034 -0.0612 -0.3611 -1.0708
 3357TIP3    H231563   4.728   0.447  12.972  0.1319  0.2250  0.2759
 3358TIP3   OH231564   2.371   3.378  13.613  0.5584  0.1153  0.4659
 3358TIP3    H131565   2.365   3.368  13.708  0.3615  1.4212  0.5950
 3358TIP3    H231566   2.390   3.471  13.599 -0.1459  0.0803 -0.8080
 3359TIP3   OH231567   6.544   1.290   5.543  0.2036 -0.4353  0.2990
 3359TIP3    H131568   6.509   1.370   5.582  0.2654  0.4992 -1.5479
 3359TIP3    H231569   6.636   1.308   5.528 -0.3035  0.0644 -2.4056
 3360TIP3   OH231570   0.596   6.242   2.574 -0.1576 -0.4948  0.2804
 3360TIP3    H131571   0.529   6.176   2.562 -0.6018 -0.3539  1.8063
 3360TIP3    H231572   0.672   6.194   2.606 -0.9201 -0.1339  2.7513
 3361TIP3   OH231573   5.891   3.977  12.670  0.0045 -0.2738  0.0034
 3361TIP3    H131574   5.890   4.064  12.709 -0.1174  0.0126 -0.6418
 3361TIP3    H231575   5.803   3.942  12.687 -0.3096  0.1631 -0.7170
 3362TIP3   OH231576   2.811   2.133   5.167 -0.1196  0.3465 -0.0215
 3362TIP3    H131577   2.818   2.069   5.238 -0.6949  1.5145  1.1149
 3362TIP3    H231578   2.879   2.107   5.105  0.0062 -1.0480  0.6750
 3363TIP3   OH231579   3.068   3.237  12.848 -0.4373  0.3509  0.6229
 3363TIP3    H131580   3.124   3.214  12.774  0.8632 -1.9900  2.2822
 3363TIP3    H231581   3.126   3.282  12.909 -0.9178  0.0874  1.2760
 3364TIP3   OH231582   4.561   5.828  13.467 -0.8074  0.3483 -0.3736
 3364TIP3    H131583   4.495   5.764  13.495 -0.5076 -0.1669 -0.8294
 3364TIP3    H231584   4.624   5.776  13.418  1.4789  0.3299  2.4627
 3365TIP3   OH231585   2.433   5.022   2.070 -0.2374 -0.9497  0.2562
 3365TIP3    H131586   2.465   5.043   2.158  0.5355  0.9957 -0.4491
 3365TIP3    H231587   2.446   5.103   2.020 -1.8735 -1.6106 -1.3141
 3366TIP3   OH231588   4.924   3.856   5.660  0.5699 -0.0584 -0.2812
 3366TIP3    H131589   4.886   3.884   5.577 -0.1266 -0.9561 -0.2681
 3366TIP3    H231590   4.849   3.842   5.718  0.9337 -1.3186 -0.0937
 3367TIP3   OH231591   0.421   3.635   5.309  0.3852 -0.8324  0.2861
 3367TIP3    H131592   0.403   3.711   5.364  1.1690 -1.0374  0.8335
 3367TIP3    H231593   0.334   3.599   5.289  0.0043  0.2547 -0.0613
 3368TIP3   OH231594   3.276   3.852  15.448 -0.4981 -0.0745 -0.3043
 3368TIP3    H131595   3.236   3.937  15.467 -1.7599 -0.7603  0.1617
 3368TIP3    H231596   3.283   3.849  15.352 -0.8387  0.3876 -0.3427
 3369TIP3   OH231597   2.524   0.730   3.645  0.4374 -0.4876  0.5788
 3369TIP3    H131598   2.552   0.643   3.673  2.0609  0.0995  0.8112
 3369TIP3    H231599   2.602   0.769   3.605 -0.3124  0.8071  0.3512
 3370TIP3   OH231600   1.699   3.125  10.742  0.2199 -0.4525  0.4130
 3370TIP3    H131601   1.774   3.067  10.755  0.4538 -0.2846 -0.1796
 3370TIP3    H231602   1.657   3.093  10.662  1.0874  0.9661 -0.6362
 3371TIP3   OH231603   3.576   4.646  14.837  0.1373  0.1703  0.1039
 3371TIP3    H131604   3.495   4.680  14.800  0.1495  0.1497  0.0574
 3371TIP3    H231605   3.595   4.703  14.911  1.7154  2.1176 -1.7220
 3372TIP3   OH231606   0.784   0.618  11.242  0.4034 -0.6905  0.2154
 3372TIP3    H131607   0.879   0.622  11.251  0.2995  0.5828  0.8940
 3372TIP3    H231608   0.751   0.627  11.331 -0.3559 -1.4127  0.0162
 3373TIP3   OH231609   5.961   3.739  15.581 -0.2619 -0.0794  0.1819
 3373TIP3    H131610   5.967   3.823  15.625  2.3506 -0.1041 -0.0607
 3373TIP3    H231611   5.972   3.674  15.651 -2.2541 -0.2658  0.3672
 3374TIP3   OH231612   3.741   0.799   2.740 -0.0720  0.1479  0.0886
 3374TIP3    H131613   3.704   0.774   2.824 -0.3207  0.8045  0.1792
 3374TIP3    H231614   3.728   0.723   2.683 -1.3334  0.2804  0.1923
 3375TIP3   OH231615   5.113   0.902  13.508  0.5461  0.1906  0.3323
 3375TIP3    H131616   5.185   0.929  13.451  0.8653 -0.1642  0.5688
 3375TIP3    H231617   5.083   0.983  13.549  0.1895  0.4786 -0.4826
 3376TIP3   OH231618   2.097   3.628   1.846  0.1024 -0.5316  0.8252
 3376TIP3    H131619   2.076   3.576   1.769 -1.0238  0.2212  0.6132
 3376TIP3    H231620   2.193   3.630   1.848  0.1464 -1.4021  0.0279
 3377TIP3   OH231621   0.430   0.202  13.010  0.0709 -0.0108 -0.1270
 3377TIP3    H131622   0.448   0.295  12.995 -0.0891 -0.1068 -0.9257
 3377TIP3    H231623   0.368   0.178  12.941 -0.0678 -0.6573  0.2188
 3378TIP3   OH231624   5.431   6.209   4.049 -0.2707  0.3553  0.3042
 3378TIP3    H131625   5.405   6.118   4.065  1.0943  0.1851  1.6782
 3378TIP3    H231626   5.474   6.236   4.130  0.4969  1.8098 -0.5682
 3379TIP3   OH231627   4.676   4.506  12.803 -0.2521  0.1879  0.0537
 3379TIP3    H131628   4.656   4.598  12.819 -2.4981 -0.2010 -0.3365
 3379TIP3    H231629   4.598   4.472  12.759  1.1659 -1.5296 -1.2132
 3380TIP3   OH231630   5.902   1.893  16.633 -0.3079 -0.1307  0.2749
 3380TIP3    H131631   5.823   1.887  16.687 -0.1407 -1.6429  0.3849
 3380TIP3    H231632   5.972   1.861  16.691  0.7522  3.0058  0.8496
 3381TIP3   OH231633   1.160   3.263  11.805 -0.4018 -0.3507 -0.4297
 3381TIP3    H131634   1.195   3.175  11.819  0.9249  0.1193 -0.7058
 3381TIP3    H231635   1.236   3.320  11.811 -1.1538  0.7188 -0.9340
 3382TIP3   OH231636   5.118   2.943  16.117  0.5048 -0.4483  0.7318
 3382TIP3    H131637   5.189   2.925  16.178  0.3938 -0.2777  0.9147
 3382TIP3    H231638   5.048   2.979  16.172  1.2808  2.0205  0.1727
 3383TIP3   OH231639   5.657   5.219   1.609  0.2001 -0.0124 -0.2309
 3383TIP3    H131640   5.731   5.272   1.579 -0.7209  1.5592  0.2013
 3383TIP3    H231641   5.697   5.148   1.658  1.3609  2.0164  1.8669
 3384TIP3   OH231642   4.082   3.445   4.009 -0.3879 -0.0045 -0.5946
 3384TIP3    H131643   4.061   3.528   3.967 -2.3942 -0.3834 -0.3460
 3384TIP3    H231644   4.088   3.466   4.102  1.8345  0.3792 -0.7823
 3385TIP3   OH231645   5.079   3.812   0.267  0.0407 -0.2731  0.2421
 3385TIP3    H131646   5.024   3.773   0.334 -2.2629 -0.3275 -1.6267
 3385TIP3    H231647   5.025   3.812   0.188  1.5251  2.8070 -0.8385
 3386TIP3   OH231648   0.140   5.133  14.535 -0.1275  0.2398  0.1796
 3386TIP3    H131649   0.206   5.124  14.467 -0.1664  1.8998 -0.1005
 3386TIP3    H231650   0.064   5.086  14.501 -0.1244  0.9972 -0.9225
 3387TIP3   OH231651   3.515   5.308   1.842 -0.8882  0.5320  0.1486
 3387TIP3    H131652   3.482   5.219   1.835 -0.6293  0.4085  0.4536
 3387TIP3    H231653   3.451   5.354   1.896  0.0468 -0.0259  1.7781
 3388TIP3   OH231654   4.313   6.756  12.824 -0.0026 -0.2483  0.6409
 3388TIP3    H131655   4.393   6.799  12.796 -0.9086  1.2810  0.3484
 3388TIP3    H231656   4.335   6.716  12.909  1.1513 -0.1276  0.3947
 3389TIP3   OH231657   2.521   5.941   0.179 -0.0245 -0.0802  0.2855
 3389TIP3    H131658   2.606   5.967   0.215  1.7733 -1.0395 -3.0083
 3389TIP3    H231659   2.510   5.851   0.208 -0.3713  0.3531  1.5065
 3390TIP3   OH231660   3.919   3.095   1.539 -0.6247  0.1500 -0.1574
 3390TIP3    H131661   3.864   3.152   1.486 -0.7360  0.1051 -0.0886
 3390TIP3    H231662   3.860   3.055   1.602 -0.4611  0.3396  0.1182
 3391TIP3   OH231663   3.302   1.528  16.902  0.0580  0.4116  0.1775
 3391TIP3    H131664   3.304   1.585  16.825  2.4848  0.4887  0.2366
 3391TIP3    H231665   3.326   1.441  16.868  2.7688  0.7648  1.0216
 3392TIP3   OH231666   3.525   6.763  11.947  0.2404  0.3827 -0.0919
 3392TIP3    H131667   3.447   6.715  11.919 -0.2547  1.7780 -1.1848
 3392TIP3    H231668   3.491   6.844  11.984  1.0859  0.0800  1.4015
 3393TIP3   OH231669   6.709   1.120   2.363  0.3896  0.3338 -0.7788
 3393TIP3    H131670   6.781   1.061   2.387  0.3990  0.1813 -1.1846
 3393TIP3    H231671   6.649   1.114   2.438  1.0020  0.7967 -0.2420
 3394TIP3   OH231672   1.588   3.301  14.860 -0.2439 -0.3833  0.0889
 3394TIP3    H131673   1.635   3.384  14.846 -0.2203 -0.2872  0.7244
 3394TIP3    H231674   1.649   3.247  14.910  1.2166 -2.1871 -3.4741
 3395TIP3   OH231675   0.687   3.000   1.994  0.0499 -0.0318  0.0602
 3395TIP3    H131676   0.702   3.009   2.088  0.8362  2.1218 -0.2397
 3395TIP3    H231677   0.638   3.078   1.969 -2.0371 -1.5991 -0.9828
 3396TIP3   OH231678   1.749   5.225   0.539  0.0340  0.6855 -0.1889
 3396TIP3    H131679   1.655   5.222   0.559  0.4488  0.5957  1.7526
 3396TIP3    H231680   1.772   5.134   0.520  0.0348  0.4780  0.7878
 3397TIP3   OH231681   2.361   5.095  16.946  0.1180 -0.3808  0.1122
 3397TIP3    H131682   2.305   5.172  16.935 -0.8700 -0.9793  0.8377
 3397TIP3    H231683   2.339   5.039  16.871  0.5345 -0.1366 -0.1900
 3398TIP3   OH231684   3.443   3.872  10.705  0.5704 -0.0885 -0.2759
 3398TIP3    H131685   3.485   3.807  10.650  1.1843  0.2165 -0.1747
 3398TIP3    H231686   3.350   3.865  10.685  0.6592 -0.8590 -0.4069
 3399TIP3   OH231687   5.770   6.643  16.630 -0.8545  0.8511 -0.2212
 3399TIP3    H131688   5.785   6.673  16.720 -0.7959 -0.7464  0.3048
 3399TIP3    H231689   5.843   6.679  16.580 -0.7119  1.4689  0.4252
 3400TIP3   OH231690   0.793   6.598   1.330  0.5138  0.2286 -0.2624
 3400TIP3    H131691   0.820   6.540   1.401 -0.1121  1.4066  0.9729
 3400TIP3    H231692   0.873   6.647   1.309  0.3537  0.9214  0.6730
 3401TIP3   OH231693   0.560   0.771   2.001 -0.0916  0.3629  0.0894
 3401TIP3    H131694   0.558   0.732   1.914  1.3789  0.7446 -0.1265
 3401TIP3    H231695   0.502   0.716   2.053 -0.7512 -0.0427 -1.0588
 3402TIP3   OH231696   4.751   1.552  15.018 -0.2224 -0.2800 -0.1427
 3402TIP3    H131697   4.830   1.500  15.036  0.8316  0.8616 -1.3713
 3402TIP3    H231698   4.679   1.500  15.055  0.8006 -2.6526 -1.3865
 3403TIP3   OH231699   5.494   5.198  12.996  0.6629 -0.0783  0.2546
 3403TIP3    H131700   5.410   5.200  12.949  1.4630  0.4944 -1.1932
 3403TIP3    H231701   5.484   5.129  13.061 -0.6883 -0.4927 -0.3857
 3404TIP3   OH231702   6.265   1.206  10.943  0.2288 -0.1670 -0.1728
 3404TIP3    H131703   6.200   1.259  10.988  1.0190  0.5135  0.1758
 3404TIP3    H231704   6.349   1.242  10.971  0.7499 -0.7014 -1.0220
 3405TIP3   OH231705   0.713   0.779  12.705 -0.2236  0.4087 -0.0888
 3405TIP3    H131706   0.800   0.752  12.676  0.1836  0.0393  1.4261
 3405TIP3    H231707   0.658   0.701  12.694 -0.8267  1.1606 -2.7809
 3406TIP3   OH231708   3.776   1.564  15.780  0.7437 -0.3404 -0.1782
 3406TIP3    H131709   3.706   1.499  15.773  2.0089 -1.4782 -3.0218
 3406TIP3    H231710   3.856   1.512  15.791  1.5039  0.8153 -0.1614
 3407TIP3   OH231711   0.541   1.531   2.966 -0.2020 -0.3743 -0.1875
 3407TIP3    H131712   0.616   1.576   2.927 -0.0525  0.4555  1.0567
 3407TIP3    H231713   0.492   1.498   2.890  1.3039 -0.7528 -1.0079
 3408TIP3   OH231714   4.501   3.430   2.035  1.1392 -0.6111 -0.5318
 3408TIP3    H131715   4.586   3.441   1.992  1.2998 -0.3686 -0.1606
 3408TIP3    H231716   4.442   3.401   1.966  1.0922  1.0052 -1.1895
 3409TIP3   OH231717   5.213   1.908   0.735  0.0023  0.5844 -0.9726
 3409TIP3    H131718   5.196   1.828   0.784 -4.5705  0.6242 -2.1837
 3409TIP3    H231719   5.300   1.896   0.698  0.7562 -2.3580  1.5323
 3410TIP3   OH231720   0.178   1.330   5.325 -0.2421 -0.3102  0.1124
 3410TIP3    H131721   0.264   1.316   5.365 -1.3162  0.3142  2.7576
 3410TIP3    H231722   0.168   1.257   5.264  2.1017 -0.4529 -0.1551
 3411TIP3   OH231723   6.116   5.570  14.960 -0.3613 -0.4509 -0.3477
 3411TIP3    H131724   6.175   5.605  14.893  1.2142 -1.2943  0.5645
 3411TIP3    H231725   6.031   5.565  14.916 -0.4716  3.6216 -0.7708
 3412TIP3   OH231726   6.460   1.356  17.144 -0.5648  0.4043  0.3156
 3412TIP3    H131727   6.445   1.424  17.077 -1.1665 -0.7362 -0.7404
 3412TIP3    H231728   6.517   1.397  17.208  0.4880  1.3628 -1.1992
 3413TIP3   OH231729   0.572   6.406   6.324  0.4935 -0.0747  0.8621
 3413TIP3    H131730   0.599   6.432   6.412  1.2418 -0.5255  0.7638
 3413TIP3    H231731   0.647   6.425   6.268  0.7742 -1.7143  0.6551
 3414TIP3   OH231732   1.761   4.726  12.553 -0.5907 -0.6476  0.4488
 3414TIP3    H131733   1.707   4.648  12.536  0.3758 -0.9030 -1.7163
 3414TIP3    H231734   1.849   4.698  12.530 -0.4253  1.4555 -1.7169
 3415TIP3   OH231735   5.415   4.762   4.491 -0.2836 -0.2386 -0.0895
 3415TIP3    H131736   5.469   4.773   4.569 -0.3198  1.3899 -0.2698
 3415TIP3    H231737   5.326   4.751   4.525 -0.2992  0.4730  0.1075
 3416TIP3   OH231738   1.773   1.928   0.272 -0.4603  0.6915 -0.0277
 3416TIP3    H131739   1.804   1.988   0.340 -0.5147 -1.4099  1.9338
 3416TIP3    H231740   1.848   1.871   0.255 -1.4835 -0.9531  0.7853
 3417TIP3   OH231741   3.536   0.126  13.377  0.0504 -0.1570  0.7787
 3417TIP3    H131742   3.442   0.116  13.396 -0.4313  1.5271 -0.5828
 3417TIP3    H231743   3.562   0.204  13.426  0.2326  0.5993 -0.4999
 3418TIP3   OH231744   0.135   4.616   5.764 -0.2775  0.3796 -0.0906
 3418TIP3    H131745   0.090   4.666   5.832  2.4370  1.2383  1.1288
 3418TIP3    H231746   0.165   4.537   5.808  0.5008  0.3951 -0.5803
 3419TIP3   OH231747   1.678   6.006  14.714 -0.1417  0.2621 -0.0166
 3419TIP3    H131748   1.585   6.026  14.719  0.2039  2.1504 -0.8057
 3419TIP3    H231749   1.722   6.089  14.732  1.3622 -0.3025 -0.9574
 3420TIP3   OH231750   6.367   2.587   2.817 -0.0753  0.1294 -0.1097
 3420TIP3    H131751   6.310   2.539   2.878 -1.7560  0.8626 -1.0589
 3420TIP3    H231752   6.435   2.524   2.792 -2.1715 -1.7644 -1.2296
 3421TIP3   OH231753   0.173   2.936  12.292 -0.4071  0.0497  0.9032
 3421TIP3    H131754   0.257   2.902  12.263  0.1394  0.7640  1.6140
 3421TIP3    H231755   0.142   2.991  12.220  0.3042  0.7316  1.1026
 3422TIP3   OH231756   1.822   2.037  16.037  0.6254  0.0455 -0.1908
 3422TIP3    H131757   1.816   1.963  16.097 -2.1280  0.0274 -0.4082
 3422TIP3    H231758   1.830   1.996  15.950  0.0249 -0.0073 -0.2270
 3423TIP3   OH231759   1.158   0.258   2.416  0.1864 -0.5534 -0.1243
 3423TIP3    H131760   1.080   0.203   2.416 -0.2164 -0.0396 -1.8134
 3423TIP3    H231761   1.195   0.245   2.329 -0.1382  2.1119 -0.7056
 3424TIP3   OH231762   2.104   4.741   1.936 -0.4096  0.2242 -0.3992
 3424TIP3    H131763   2.147   4.655   1.945 -0.1388  0.3312 -0.6837
 3424TIP3    H231764   2.065   4.739   1.849 -1.2353  0.0164 -0.0314
 3425TIP3   OH231765   6.077   0.961  12.104  0.2855  0.1556  0.2448
 3425TIP3    H131766   6.165   0.999  12.100  0.8982 -1.3689 -1.2791
 3425TIP3    H231767   6.037   0.982  12.020 -0.1112 -0.7982  0.1814
 3426TIP3   OH231768   3.014   5.808   5.296  0.5948  0.6488 -0.2011
 3426TIP3    H131769   3.027   5.719   5.330  0.2359  0.5845 -0.2347
 3426TIP3    H231770   2.935   5.839   5.340  1.0805  1.1922  0.3064
 3427TIP3   OH231771   1.867   5.609  14.997  0.4305 -0.1412 -0.3728
 3427TIP3    H131772   1.830   5.544  15.056  1.8407 -1.5728 -1.0263
 3427TIP3    H231773   1.947   5.638  15.041  1.3844 -1.0716 -1.4543
 3428TIP3   OH231774   1.336   4.684  15.335 -0.2047  0.1474  0.4794
 3428TIP3    H131775   1.376   4.738  15.403  0.5006 -0.2645  0.3896
 3428TIP3    H231776   1.294   4.747  15.276  2.0661  0.7130 -0.5650
 3429TIP3   OH231777   5.297   4.782  12.650  0.1542 -0.2447  0.0674
 3429TIP3    H131778   5.389   4.795  12.674  0.0395  0.9307 -0.1055
 3429TIP3    H231779   5.298   4.769  12.555  0.0589  0.5997 -0.0494
 3430TIP3   OH231780   3.968   1.050  11.601 -0.1208  0.1667 -0.7670
 3430TIP3    H131781   4.041   1.087  11.552 -0.9625  0.2265 -1.9959
 3430TIP3    H231782   3.966   1.102  11.682 -0.2161  1.7117 -1.7225
 3431TIP3   OH231783   5.705   5.382   0.827  0.2505 -0.2869 -0.0024
 3431TIP3    H131784   5.706   5.286   0.816 -1.8279 -0.1120 -2.0769
 3431TIP3    H231785   5.671   5.395   0.916  0.3831 -1.4609  0.2398
 3432TIP3   OH231786   2.779   5.553   6.061 -0.0740  0.1608  0.0491
 3432TIP3    H131787   2.740   5.611   6.126 -1.1546  0.9056 -1.2425
 3432TIP3    H231788   2.874   5.565   6.073 -0.2565 -0.0118  1.7290
 3433TIP3   OH231789   1.854   1.769  16.996 -0.0504  0.2305  0.5693
 3433TIP3    H131790   1.827   1.681  16.966  2.8427 -0.6377  0.4213
 3433TIP3    H231791   1.816   1.776  17.084 -0.9537 -0.8519  0.2913
 3434TIP3   OH231792   3.894   3.801   5.213 -0.4775  0.2829 -0.0888
 3434TIP3    H131793   3.817   3.763   5.254  0.4300 -0.5658  0.8629
 3434TIP3    H231794   3.930   3.730   5.159  3.1176 -1.4749  4.2684
 3435TIP3   OH231795   0.031   2.903  14.946  0.1319  0.1242  0.0257
 3435TIP3    H131796   0.060   2.813  14.927 -0.2007 -0.0246  0.2106
 3435TIP3    H231797   0.046   2.914  15.040 -1.2510 -0.2758  0.3074
 3436TIP3   OH231798   3.398   6.214  11.433 -0.0538 -0.0174  0.3606
 3436TIP3    H131799   3.342   6.193  11.358  0.0183 -0.7529  0.5070
 3436TIP3    H231800   3.488   6.200  11.400  0.0670  1.3584  0.0633
 3437TIP3   OH231801   6.404   2.683  17.255 -0.0041  0.2994 -0.1572
 3437TIP3    H131802   6.349   2.755  17.286  0.3598  0.4710  0.0868
 3437TIP3    H231803   6.375   2.607  17.306  1.3082  0.8001  1.3574
 3438TIP3   OH231804   6.485   1.764  11.911  0.2308 -0.3759 -0.0117
 3438TIP3    H131805   6.540   1.830  11.870 -0.5757  0.2073 -0.1767
 3438TIP3    H231806   6.535   1.733  11.986  1.9032 -1.7375 -1.6571
 3439TIP3   OH231807   2.898   6.677  13.020 -0.3346  0.4721  0.7525
 3439TIP3    H131808   2.805   6.662  13.004 -0.0435  0.7958 -1.3533
 3439TIP3    H231809   2.930   6.593  13.054 -1.1177 -0.0588  0.2016
 3440TIP3   OH231810   0.446   4.761  15.462 -0.0319 -0.4805  0.2171
 3440TIP3    H131811   0.521   4.770  15.520 -0.4891 -0.4498  0.8143
 3440TIP3    H231812   0.438   4.666  15.448 -0.2843 -0.5376  0.7046
 3441TIP3   OH231813   5.912   3.967   0.823  0.1085  0.0179 -0.4125
 3441TIP3    H131814   5.831   3.998   0.783  0.5431 -0.2384 -1.5161
 3441TIP3    H231815   5.904   3.872   0.822  0.9393 -0.0430 -1.6237
 3442TIP3   OH231816   0.183   1.322  11.604  0.1977  0.6106 -0.2078
 3442TIP3    H131817   0.116   1.342  11.670  0.2154  2.5937 -0.7563
 3442TIP3    H231818   0.176   1.227  11.591 -2.0045  0.6809  0.2713
 3443TIP3   OH231819   4.573   2.230   2.709  0.2288 -0.2560  0.3897
 3443TIP3    H131820   4.510   2.163   2.682 -1.5856  0.5860  2.4013
 3443TIP3    H231821   4.622   2.189   2.780  2.0074 -0.9005 -1.1509
 3444TIP3   OH231822   3.060   2.065  11.770 -0.5210  0.0796  0.5337
 3444TIP3    H131823   3.124   2.030  11.708 -1.5189  1.0801 -1.1055
 3444TIP3    H231824   3.033   1.990  11.822  0.2364 -0.8083 -0.3274
 3445TIP3   OH231825   1.004   0.474  13.543 -0.0469  0.4676  0.6414
 3445TIP3    H131826   1.038   0.385  13.554  1.5223  0.8597 -0.9303
 3445TIP3    H231827   1.061   0.529  13.595  1.2024  0.9985 -1.2280
 3446TIP3   OH231828   6.469   3.029  17.040 -0.7502 -0.7272  0.0087
 3446TIP3    H131829   6.562   3.042  17.018 -0.6533 -0.5840  0.5035
 3446TIP3    H231830   6.470   2.993  17.129 -1.2073  0.0649  0.3315
 3447TIP3   OH231831   5.202   0.208  15.046  0.3151  0.2367 -0.1007
 3447TIP3    H131832   5.165   0.250  15.124 -0.0616 -1.2547  0.5510
 3447TIP3    H231833   5.169   0.118  15.050 -1.9892  0.8458 -3.5002
 3448TIP3   OH231834   0.835   6.582   3.060  0.0858 -0.4613  0.0674
 3448TIP3    H131835   0.809   6.641   2.989 -0.3301  1.9087  2.0855
 3448TIP3    H231836   0.930   6.575   3.052  0.0220 -0.3228 -0.8120
 3449TIP3   OH231837   0.440   0.264  14.068 -0.3394  0.5023 -0.4242
 3449TIP3    H131838   0.503   0.336  14.066 -1.0651  1.2809  2.2940
 3449TIP3    H231839   0.372   0.294  14.128 -1.1326 -2.0616  0.0201
 3450TIP3   OH231840   5.540   4.830   0.283  0.4613 -0.0746  1.0221
 3450TIP3    H131841   5.615   4.773   0.269  0.3485 -0.0426  0.2582
 3450TIP3    H231842   5.554   4.903   0.223 -0.8286 -0.7012 -0.0856
 3451TIP3   OH231843   6.436   0.191   1.301  0.3482  0.2308  0.0946
 3451TIP3    H131844   6.517   0.211   1.254 -0.0721 -0.3336 -0.8832
 3451TIP3    H231845   6.382   0.144   1.237 -0.8910  0.9157  0.6244
 3452TIP3   OH231846   5.138   4.027   2.623  0.2363  0.3224 -0.0761
 3452TIP3    H131847   5.181   4.086   2.562  1.2629  1.5672  1.7755
 3452TIP3    H231848   5.154   4.067   2.709 -1.3381 -1.2492  0.9807
 3453TIP3   OH231849   0.436   6.436  14.946  0.7405 -0.1201  0.2584
 3453TIP3    H131850   0.523   6.469  14.921  0.9128 -0.9218 -0.2173
 3453TIP3    H231851   0.448   6.405  15.035  0.7585  0.4366  0.4553
 3454TIP3   OH231852   5.387   2.544   3.416 -0.2174 -0.0120  0.7751
 3454TIP3    H131853   5.310   2.569   3.467 -0.7102  0.3221 -0.1182
 3454TIP3    H231854   5.388   2.606   3.343  0.7422 -0.1936  0.6360
 3455TIP3   OH231855   4.649   3.445  12.365  0.2616 -0.1478 -0.2820
 3455TIP3    H131856   4.742   3.468  12.372 -0.4209  2.4316  0.9423
 3455TIP3    H231857   4.648   3.368  12.307  3.0603  0.2483 -0.9636
 3456TIP3   OH231858   3.262   5.201   3.592  0.2620 -0.0129  0.4569
 3456TIP3    H131859   3.219   5.186   3.508  1.1208 -0.2566  0.0548
 3456TIP3    H231860   3.190   5.218   3.653 -0.4629 -1.3296 -0.0084
 3457TIP3   OH231861   3.036   4.963  11.880  0.2902  0.4662  0.2807
 3457TIP3    H131862   3.026   4.873  11.911 -0.3475  0.2833 -0.4337
 3457TIP3    H231863   3.103   5.001  11.937  0.1843 -0.2989  0.9226
 3458TIP3   OH231864   6.235   3.677   6.545 -0.1576  0.2211 -0.2406
 3458TIP3    H131865   6.164   3.739   6.560  0.3014  1.0198 -1.3200
 3458TIP3    H231866   6.191   3.591   6.546 -0.7437  0.5162  1.5287
 3459TIP3   OH231867   2.587   4.252   5.785 -0.2082  0.3255 -0.2102
 3459TIP3    H131868   2.559   4.329   5.834  2.0533  0.8236  0.3209
 3459TIP3    H231869   2.635   4.199   5.848 -0.8788 -1.0670 -0.8345
 3460TIP3   OH231870   0.698   0.431   1.569  0.6817  0.4351 -0.2952
 3460TIP3    H131871   0.753   0.462   1.497  0.8271 -0.4985 -0.5860
 3460TIP3    H231872   0.753   0.368   1.616 -0.0289 -0.2796 -0.4107
 3461TIP3   OH231873   4.250   1.074   4.088 -0.7415  0.0199  0.1558
 3461TIP3    H131874   4.180   1.072   4.023  0.2192  2.4073 -1.0128
 3461TIP3    H231875   4.230   1.150   4.143  0.2847  0.0393  0.5116
 3462TIP3   OH231876   3.826   3.867   1.223 -0.1363  0.7612  0.2357
 3462TIP3    H131877   3.827   3.827   1.136 -1.8119 -1.0710  1.0196
 3462TIP3    H231878   3.896   3.823   1.270 -0.1691  0.7197  0.2455
 3463TIP3   OH231879   3.098   0.369   6.302 -0.1421  0.3688  0.3219
 3463TIP3    H131880   3.132   0.419   6.228  0.9715 -0.0787  0.5254
 3463TIP3    H231881   3.043   0.431   6.350 -1.9283  0.3210 -1.5745
 3464TIP3   OH231882   4.940   0.475   4.652 -0.0129  0.2474  0.0957
 3464TIP3    H131883   4.922   0.399   4.708 -0.1985 -0.1502 -0.5084
 3464TIP3    H231884   4.861   0.485   4.599 -0.2092  1.1837  0.5326
 3465TIP3   OH231885   2.034   5.679  15.776 -0.3609 -0.0714  0.4341
 3465TIP3    H131886   2.069   5.647  15.859 -0.0422  2.1565  1.1989
 3465TIP3    H231887   2.105   5.665  15.713  0.7237  1.4812  1.2972
 3466TIP3   OH231888   5.491   1.555  11.402  0.1172 -0.1532 -0.4749
 3466TIP3    H131889   5.546   1.491  11.446 -1.3837 -0.2695  1.3263
 3466TIP3    H231890   5.522   1.640  11.434  0.7922 -0.0822 -1.3060
 3467TIP3   OH231891   5.179   3.024  13.611 -0.2344  0.3456 -0.2203
 3467TIP3    H131892   5.098   3.071  13.631 -1.0132 -0.3843 -1.5936
 3467TIP3    H231893   5.229   3.084  13.557 -0.3559  0.3704 -0.3045
 3468TIP3   OH231894   2.752   6.268  14.222 -0.3728 -0.8147  0.2574
 3468TIP3    H131895   2.679   6.206  14.226 -1.3715  0.0683 -2.5288
 3468TIP3    H231896   2.710   6.354  14.233  0.5669 -0.4346  0.9295
 3469TIP3   OH231897   2.324   4.181  17.035  0.2381 -0.2080 -0.2887
 3469TIP3    H131898   2.249   4.139  17.076  0.9283 -0.2844  0.9170
 3469TIP3    H231899   2.396   4.118  17.048  1.3926  1.4941  1.9081
 3470TIP3   OH231900   6.578   0.935  11.546 -0.8726  0.4804  0.1033
 3470TIP3    H131901   6.537   0.920  11.631 -2.0118 -1.2352 -0.7076
 3470TIP3    H231902   6.511   0.909  11.483  1.2095 -1.7793 -1.2665
 3471TIP3   OH231903   2.796   5.060   2.163 -0.1996 -0.4368  0.1890
 3471TIP3    H131904   2.792   4.981   2.218  2.8291 -0.6762  0.1538
 3471TIP3    H231905   2.819   5.130   2.224 -0.9914  0.0787 -0.0996
 3472TIP3   OH231906   4.152   4.398  17.092 -0.7529 -0.3211 -0.5452
 3472TIP3    H131907   4.205   4.319  17.105  0.8458  0.9667  0.8940
 3472TIP3    H231908   4.063   4.364  17.076 -0.1431 -2.3950  0.2829
 3473TIP3   OH231909   6.510   5.827  12.035  0.1403 -0.0269  0.9595
 3473TIP3    H131910   6.586   5.822  11.977 -0.2870  1.5724  0.2261
 3473TIP3    H231911   6.436   5.802  11.979 -0.0139 -0.4160  1.3423
 3474TIP3   OH231912   0.180   4.773  17.087  0.2254 -0.0887 -0.2740
 3474TIP3    H131913   0.254   4.815  17.131  0.3994 -2.8208  2.2306
 3474TIP3    H231914   0.111   4.772  17.153 -0.1892 -2.4676 -0.7027
 3475TIP3   OH231915   4.685   4.027   4.810 -0.4098 -0.1209 -0.2171
 3475TIP3    H131916   4.743   4.038   4.884  1.1751  0.1442 -1.4729
 3475TIP3    H231917   4.615   4.091   4.825  0.7971  1.1369  0.1882
 3476TIP3   OH231918   2.833   5.595  12.718 -0.0037  0.0531 -0.2047
 3476TIP3    H131919   2.852   5.687  12.738  0.7201 -0.0524 -0.3946
 3476TIP3    H231920   2.803   5.559  12.801 -0.6382  0.5483 -0.2135
 3477TIP3   OH231921   1.156   3.390  11.306  0.2427  0.6555 -0.4782
 3477TIP3    H131922   1.089   3.455  11.283 -0.8188 -0.5483 -0.8508
 3477TIP3    H231923   1.164   3.396  11.401 -0.3100  0.8903 -0.4441
 3478TIP3   OH231924   4.434   6.345  14.309 -0.1788 -0.0428  0.6742
 3478TIP3    H131925   4.342   6.325  14.293 -0.0627  1.3243 -2.0267
 3478TIP3    H231926   4.476   6.332  14.224  1.1631  4.2592  0.5695
 3479TIP3   OH231927   3.411   6.274  14.886 -0.1790  0.0248 -0.1759
 3479TIP3    H131928   3.434   6.216  14.959  1.8094 -0.8732 -1.4652
 3479TIP3    H231929   3.431   6.362  14.918  1.0275 -0.3917  0.2532
 3480TIP3   OH231930   0.366   0.766  10.807 -0.3370  0.1809  0.4570
 3480TIP3    H131931   0.458   0.747  10.788 -0.6061 -1.8846  1.0659
 3480TIP3    H231932   0.318   0.730  10.732 -0.6699  1.1951  0.1682
 3481TIP3   OH231933   6.820   4.552  13.798  0.2064  0.0177 -0.1944
 3481TIP3    H131934   6.888   4.619  13.794  1.0595 -0.8205  0.0507
 3481TIP3    H231935   6.777   4.556  13.712  1.0529  0.0474 -0.6179
 3482TIP3   OH231936   6.589   4.250  14.579 -0.2958  0.3519 -0.5682
 3482TIP3    H131937   6.527   4.212  14.641  0.4815  0.0645  0.0411
 3482TIP3    H231938   6.600   4.183  14.511  0.1530 -0.0319 -0.1213
 3483TIP3   OH231939   3.814   6.594   1.389  0.6159 -0.7011 -0.0375
 3483TIP3    H131940   3.778   6.613   1.476  0.8222 -0.1253 -0.0731
 3483TIP3    H231941   3.871   6.669   1.370  0.7022 -0.9066 -0.5972
 3484TIP3   OH231942   4.881   6.735   1.578 -0.5794 -0.3680 -0.1641
 3484TIP3    H131943   4.945   6.664   1.576 -1.8558 -1.5272 -0.4893
 3484TIP3    H231944   4.904   6.791   1.504 -0.7122 -1.4562 -1.0308
 3485TIP3   OH231945   4.615   6.661   0.752  0.3476 -0.3539 -0.4417
 3485TIP3    H131946   4.702   6.671   0.791 -0.6443 -2.0477  2.3151
 3485TIP3    H231947   4.559   6.720   0.802 -0.6311 -1.3611 -0.3259
 3486TIP3   OH231948   5.199   4.383   6.297 -0.0855  0.6607 -0.0937
 3486TIP3    H131949   5.285   4.342   6.300 -0.8009 -0.7953  2.0057
 3486TIP3    H231950   5.156   4.343   6.222  1.2172  1.7465 -1.4390
 3487TIP3   OH231951   2.740   4.721  16.103  0.1139 -0.2910 -0.2181
 3487TIP3    H131952   2.791   4.676  16.036 -0.7645 -3.1707  0.9933
 3487TIP3    H231953   2.650   4.693  16.087 -0.3161  0.2235  1.2258
 3488TIP3   OH231954   4.771   2.100   5.570  0.7297  0.0293 -0.6235
 3488TIP3    H131955   4.821   2.145   5.503  2.2906 -0.8746 -0.0784
 3488TIP3    H231956   4.764   2.163   5.641  1.5217 -0.0053 -0.5105
 3489TIP3   OH231957   0.326   0.830  16.989 -0.1050 -0.0042 -0.5492
 3489TIP3    H131958   0.288   0.772  17.055 -0.5375  0.6324 -0.2290
 3489TIP3    H231959   0.420   0.811  16.991 -0.2493 -0.6894 -0.4466
 3490TIP3   OH231960   2.658   6.795   5.639 -0.4247  0.1699 -0.4255
 3490TIP3    H131961   2.600   6.808   5.714  0.0237  0.1967 -0.0746
 3490TIP3    H231962   2.686   6.703   5.647 -2.3358 -0.5761 -1.9835
 3491TIP3   OH231963   6.108   2.248   1.671  0.3726  0.1565 -0.6634
 3491TIP3    H131964   6.174   2.194   1.627  1.8348  0.5477  0.9971
 3491TIP3    H231965   6.124   2.234   1.764 -0.6272  1.7774 -0.2307
 3492TIP3   OH231966   6.130   5.436  14.539  0.0059 -0.0373  0.3321
 3492TIP3    H131967   6.050   5.465  14.496  0.0502  1.0644  0.9719
 3492TIP3    H231968   6.104   5.357  14.587 -0.6755  0.2723  0.4810
 3493TIP3   OH231969   5.743   4.120  16.853 -0.1757 -0.5765 -0.5672
 3493TIP3    H131970   5.751   4.182  16.780 -2.1568 -1.5923 -1.6951
 3493TIP3    H231971   5.832   4.089  16.868  0.5673  1.1756 -1.1958
 3494TIP3   OH231972   5.608   4.822  14.239  0.3094 -0.4797  0.7197
 3494TIP3    H131973   5.533   4.877  14.260 -0.1156 -1.0834  0.7945
 3494TIP3    H231974   5.589   4.788  14.151 -0.4000 -2.1217  1.4873
 3495TIP3   OH231975   5.222   3.837   1.240  0.1699 -0.3333 -0.3758
 3495TIP3    H131976   5.182   3.838   1.153 -0.6605 -3.7547 -0.1236
 3495TIP3    H231977   5.290   3.769   1.234  1.4182  0.7525  1.1160
 3496TIP3   OH231978   5.152   3.834  15.669  0.1024  0.0499 -0.9914
 3496TIP3    H131979   5.245   3.831  15.646 -0.0055 -1.2466 -1.2615
 3496TIP3    H231980   5.135   3.927  15.685  1.3631  0.3398 -1.2617
 3497TIP3   OH231981   4.602   2.008  11.277  0.2640  0.0811  0.1484
 3497TIP3    H131982   4.658   2.057  11.217 -1.5575  0.2222 -1.4893
 3497TIP3    H231983   4.642   1.922  11.283  0.9046  0.3262 -0.6361
 3498TIP3   OH231984   0.998   0.689  17.143  0.4460  0.8859  0.2253
 3498TIP3    H131985   0.912   0.684  17.185 -0.4039  2.4053 -1.2377
 3498TIP3    H231986   1.061   0.678  17.214 -0.9539 -0.5673  1.2720
 3499TIP3   OH231987   2.177   6.172   2.779  0.7364  0.2235 -0.1635
 3499TIP3    H131988   2.174   6.138   2.869  0.4167  3.8393  1.3018
 3499TIP3    H231989   2.087   6.195   2.759  0.6645 -1.4248 -1.7866
 3500TIP3   OH231990   2.546   3.401  14.840  0.1799  0.6439 -0.0970
 3500TIP3    H131991   2.615   3.455  14.876  0.4672  0.9158 -1.0445
 3500TIP3    H231992   2.490   3.379  14.915 -0.0960  2.4673  0.2432
 3501TIP3   OH231993   5.553   3.400   6.894  0.5367 -1.1339 -0.0010
 3501TIP3    H131994   5.617   3.330   6.900  0.4091 -1.3308 -0.8489
 3501TIP3    H231995   5.476   3.359   6.855  0.4213 -0.5513 -0.4024
 3502TIP3   OH231996   2.174   0.673   3.880  0.6380 -0.2339  0.5588
 3502TIP3    H131997   2.133   0.612   3.819  0.4432  0.1674  0.2891
 3502TIP3    H231998   2.258   0.631   3.902  1.1083  0.0251 -0.6648
 3503TIP3   OH231999   0.975   0.676  16.021  0.0748 -0.4587  0.0811
 3503TIP3    H132000   0.930   0.695  15.939  1.2615  0.6957 -0.3221
 3503TIP3    H232001   0.972   0.759  16.069  1.2748 -0.5278  0.2826
 3504TIP3   OH232002   4.864   4.602   1.961 -0.1507 -0.1329  0.2269
 3504TIP3    H132003   4.915   4.648   2.027  1.0192 -1.4127  0.2463
 3504TIP3    H232004   4.774   4.630   1.976  0.2702  0.5465  1.5602
 3505TIP3   OH232005   2.678   3.476   3.612 -0.4331 -0.4021  0.0286
 3505TIP3    H132006   2.696   3.497   3.704  1.6847  0.1652 -0.4969
 3505TIP3    H232007   2.744   3.411   3.588 -0.9050 -0.4734 -1.1346
 3506TIP3   OH232008   0.470   6.346  15.259 -0.0274  0.5498  0.1094
 3506TIP3    H132009   0.530   6.310  15.193 -0.7837  0.8610 -0.7642
 3506TIP3    H232010   0.481   6.289  15.335  0.9848  0.2846 -0.2241
 3507TIP3   OH232011   1.836   0.753  12.168 -0.1586  0.1931  0.1879
 3507TIP3    H132012   1.749   0.721  12.192 -0.6688  1.0669 -0.4535
 3507TIP3    H232013   1.826   0.782  12.077  0.5223  1.3184  0.4689
 3508TIP3   OH232014   5.440   1.725  14.886  0.8881 -0.0914 -0.1942
 3508TIP3    H132015   5.390   1.694  14.962 -0.6669 -2.8117 -2.2441
 3508TIP3    H232016   5.416   1.817  14.878 -2.2520 -0.8106  0.1459
 3509TIP3   OH232017   0.439   5.794  13.464 -0.0469  0.2156  0.3541
 3509TIP3    H132018   0.466   5.708  13.431  0.3774  0.7632 -0.7514
 3509TIP3    H232019   0.344   5.791  13.467 -0.0629 -0.0224 -0.4221
 3510TIP3   OH232020   2.450   6.589  10.946  0.4079 -0.0143 -0.2878
 3510TIP3    H132021   2.481   6.608  10.857  0.8196 -0.3076 -0.2121
 3510TIP3    H232022   2.372   6.534  10.933  0.2927  0.1940 -0.4740
 3511TIP3   OH232023   5.672   4.128   2.910  0.0014 -0.0394  0.0204
 3511TIP3    H132024   5.667   4.211   2.956 -0.1333 -0.4297  0.7184
 3511TIP3    H232025   5.756   4.130   2.865 -0.2535  0.7048 -0.4214
 3512TIP3   OH232026   4.642   0.688  13.924  0.0924 -0.2469 -0.3223
 3512TIP3    H132027   4.669   0.736  14.003  0.8097  0.8302 -1.2037
 3512TIP3    H232028   4.682   0.602  13.934 -0.2077 -0.2793  0.7079
 3513TIP3   OH232029   3.878   1.900   1.146 -0.7911 -0.1393 -0.1487
 3513TIP3    H132030   3.840   1.867   1.065 -1.0332  0.3669 -0.2492
 3513TIP3    H232031   3.957   1.848   1.160 -0.8407 -0.3373 -0.6207
 3514TIP3   OH232032   2.705   1.860  16.811 -0.4842 -0.3316  0.4811
 3514TIP3    H132033   2.696   1.771  16.846 -1.0430 -0.6899 -0.5761
 3514TIP3    H232034   2.749   1.908  16.881 -0.1435 -1.4484  1.0476
 3515TIP3   OH232035   3.173   5.828   4.927 -0.1795  0.3740 -0.3446
 3515TIP3    H132036   3.220   5.840   5.009 -0.5369  0.4096 -0.1448
 3515TIP3    H232037   3.081   5.836   4.950 -0.3088 -0.1769 -0.6516
 3516TIP3   OH232038   1.573   6.414  13.264  0.2104 -0.0230  0.1988
 3516TIP3    H132039   1.491   6.366  13.278  0.7143 -0.8445  0.3712
 3516TIP3    H232040   1.554   6.475  13.194 -0.4689 -0.4248  0.0332
 3517TIP3   OH232041   0.180   0.289  12.448 -0.3069  0.2200  0.2965
 3517TIP3    H132042   0.141   0.252  12.528 -0.9534 -1.6769 -0.8633
 3517TIP3    H232043   0.268   0.252  12.446 -0.7722 -0.8914 -0.5809
 3518TIP3   OH232044   0.266   0.629  14.321  0.3575  0.4119 -0.3380
 3518TIP3    H132045   0.198   0.651  14.258  0.5139  1.0806 -0.2744
 3518TIP3    H232046   0.293   0.713  14.357 -0.0843 -0.0105  0.9871
 3519TIP3   OH232047   0.120   6.469  14.298  0.4872  0.1977  0.3958
 3519TIP3    H132048   0.122   6.556  14.257  2.9162 -0.6729 -1.4401
 3519TIP3    H232049   0.211   6.455  14.327  0.1759 -1.8630  0.4021
 3520TIP3   OH232050   5.300   1.289  10.635 -0.5060  1.0707  0.4715
 3520TIP3    H132051   5.330   1.232  10.707  1.1115 -1.4792 -2.1279
 3520TIP3    H232052   5.311   1.378  10.670  1.5320 -0.0509  2.9302
 3521TIP3   OH232053   1.580   2.101  15.762 -0.7218  0.4404  0.0602
 3521TIP3    H132054   1.537   2.017  15.776 -1.5820  0.8155 -0.2454
 3521TIP3    H232055   1.508   2.160  15.736  0.1638  0.8054 -1.6122
 3522TIP3   OH232056   4.046   3.736  12.808  0.5190  0.0565  1.0145
 3522TIP3    H132057   4.068   3.825  12.835  0.6845 -0.0402  1.1983
 3522TIP3    H232058   3.974   3.747  12.746  1.5920  0.4401 -0.1996
 3523TIP3   OH232059   4.818   1.136  10.923  0.6669 -0.1664  0.2071
 3523TIP3    H132060   4.844   1.128  10.831  1.7612 -2.0880  0.6435
 3523TIP3    H232061   4.847   1.223  10.950 -0.4137  0.7280 -1.4990
 3524TIP3   OH232062   3.685   4.707  14.075 -0.4637 -0.1539 -0.1234
 3524TIP3    H132063   3.672   4.780  14.015  2.2577 -1.2069 -2.0834
 3524TIP3    H232064   3.733   4.745  14.149 -1.0801  0.4969 -0.0522
 3525TIP3   OH232065   4.986   0.577  12.486 -0.3771 -0.0663  0.0888
 3525TIP3    H132066   5.071   0.589  12.526 -0.8728  1.7463  0.6202
 3525TIP3    H232067   5.001   0.589  12.392  0.0500 -0.3395  0.1221
 3526TIP3   OH232068   6.092   1.338  13.292  0.9403 -0.7009 -0.0393
 3526TIP3    H132069   6.082   1.264  13.352  0.1143  0.4546  1.3024
 3526TIP3    H232070   6.002   1.367  13.275  1.3148  0.9713  0.7309
 3527TIP3   OH232071   0.570   5.688  14.258 -0.1351 -0.6388  0.5170
 3527TIP3    H132072   0.557   5.595  14.278  0.4582 -0.5497  1.3497
 3527TIP3    H232073   0.660   5.694  14.226 -0.6179 -0.5554 -0.8396
 3528TIP3   OH232074   2.141   3.696   1.435  0.5804 -0.0163 -0.0628
 3528TIP3    H132075   2.092   3.741   1.366  0.2446 -1.5047 -0.8069
 3528TIP3    H232076   2.230   3.730   1.428 -0.0343  1.7781  0.4870
 3529TIP3   OH232077   2.799   0.526   1.474 -0.0512 -0.3402 -0.0163
 3529TIP3    H132078   2.706   0.539   1.491 -0.3646 -1.6125 -0.7267
 3529TIP3    H232079   2.829   0.609   1.437 -1.1997 -0.3657 -1.0208
 3530TIP3   OH232080   0.021   5.793  15.021  0.1499 -0.3109  0.1367
 3530TIP3    H132081  -0.058   5.792  15.075  0.9405  0.5033  1.3201
 3530TIP3    H232082   0.046   5.701  15.013  0.0548 -0.4281  1.1954
 3531TIP3   OH232083   6.095   4.251   0.144  0.1094  0.7729 -0.2552
 3531TIP3    H132084   6.049   4.213   0.069 -0.2910  1.6229 -0.4443
 3531TIP3    H232085   6.052   4.335   0.159  0.7957  1.0257  0.3495
 3532TIP3   OH232086   1.342   2.735   1.762  0.2577  0.1522  0.2568
 3532TIP3    H132087   1.327   2.651   1.718  0.4017  0.3056 -0.0865
 3532TIP3    H232088   1.299   2.725   1.847 -1.1507  0.3185 -0.4151
 3533TIP3   OH232089   3.475   3.761  11.927  1.0987  0.6229  0.1648
 3533TIP3    H132090   3.382   3.740  11.935  1.2602  0.5992  2.2674
 3533TIP3    H232091   3.497   3.802  12.010  2.3921  2.9863 -1.2693
 3534TIP3   OH232092   3.343   1.261  13.512  0.6304  0.4822  0.2834
 3534TIP3    H132093   3.392   1.201  13.455 -0.2616 -1.3794  1.4313
 3534TIP3    H232094   3.411   1.308  13.561  1.3168 -0.3875  0.1798
 3535TIP3   OH232095   6.587   4.695   3.373 -0.0018 -0.2543 -0.2818
 3535TIP3    H132096   6.594   4.752   3.449  0.2912 -0.3503 -0.2349
 3535TIP3    H232097   6.517   4.733   3.320 -0.1539 -0.1415 -0.0036
 3536TIP3   OH232098   2.240   3.704  12.830 -0.1657  0.0148 -0.5469
 3536TIP3    H132099   2.197   3.726  12.747 -1.7388 -0.4503  0.1311
 3536TIP3    H232100   2.171   3.713  12.896  1.5917  2.4909  1.0274
 3537TIP3   OH232101   3.901   0.100   3.339 -0.4088 -0.2302 -0.0636
 3537TIP3    H132102   3.938   0.133   3.257  0.4870  1.7328  1.0915
 3537TIP3    H232103   3.944   0.152   3.407 -2.8389 -0.2103  1.5164
 3538TIP3   OH232104   4.692   1.860   3.184 -0.3387  0.6105  0.1487
 3538TIP3    H132105   4.637   1.938   3.185  0.6142  1.3271 -1.2240
 3538TIP3    H232106   4.656   1.806   3.113 -0.6764  0.0327  0.7536
 3539TIP3   OH232107   1.962   4.154  11.273  0.1274 -0.1461  0.0001
 3539TIP3    H132108   1.998   4.067  11.254  0.3019  0.1539 -1.0876
 3539TIP3    H232109   2.009   4.183  11.351  1.3014 -0.3284 -0.6239
 3540TIP3   OH232110   1.263   3.346   2.656 -0.2171 -0.0038  0.2688
 3540TIP3    H132111   1.224   3.287   2.592  1.2264 -2.5871  1.6727
 3540TIP3    H232112   1.355   3.351   2.630 -0.4131  1.9976 -0.0826
 3541TIP3   OH232113   4.857   2.601  10.357  0.3095  0.3233 -0.4320
 3541TIP3    H132114   4.950   2.594  10.335  0.4907  0.7677  0.1607
 3541TIP3    H232115   4.817   2.637  10.278  0.5575 -0.3672 -0.8730
 3542TIP3   OH232116   3.436   1.325  12.188  0.3582  0.0243  0.0904
 3542TIP3    H132117   3.429   1.327  12.093  1.8508 -0.6498 -0.0565
 3542TIP3    H232118   3.503   1.390  12.209  1.0153 -0.8019  0.5664
 3543TIP3   OH232119   6.722   0.388   5.922  0.5183 -0.2512  0.6056
 3543TIP3    H132120   6.776   0.436   5.859  1.2735  0.0688  1.4876
 3543TIP3    H232121   6.725   0.297   5.892  2.3046 -0.3945  1.1514
 3544TIP3   OH232122   5.409   5.268   2.031 -0.1679 -0.0782  0.0804
 3544TIP3    H132123   5.441   5.330   1.966 -0.7702 -1.1279 -1.2378
 3544TIP3    H232124   5.314   5.272   2.023 -0.2058 -1.4748 -0.3253
 3545TIP3   OH232125   4.734   1.457  13.613  0.6254 -0.2062 -0.5961
 3545TIP3    H132126   4.645   1.479  13.587  0.6891 -0.2905 -0.8898
 3545TIP3    H232127   4.723   1.395  13.685  0.4385 -1.2936 -1.5316
 3546TIP3   OH232128   4.335   5.253  13.633 -0.7796  0.1858 -0.0404
 3546TIP3    H132129   4.250   5.296  13.624 -1.1049 -0.7522 -1.7202
 3546TIP3    H232130   4.324   5.193  13.706 -1.2330  0.8462  0.4319
 3547TIP3   OH232131   2.718   5.596  13.580  0.2775 -0.2726 -0.3400
 3547TIP3    H132132   2.804   5.569  13.614  0.8193 -0.0508 -1.4882
 3547TIP3    H232133   2.714   5.690  13.597 -1.2394 -0.8517  2.8652
 3548TIP3   OH232134   6.318   0.056   0.508  0.7153  0.4943 -0.2689
 3548TIP3    H132135   6.239   0.092   0.467 -0.1760  1.2773  2.0358
 3548TIP3    H232136   6.311  -0.039   0.493  1.3063  0.8837 -3.3435
 3549TIP3   OH232137   0.021   1.756  11.795 -0.3321  0.1768 -0.5274
 3549TIP3    H132138  -0.050   1.747  11.731  0.8519 -1.2687 -1.6879
 3549TIP3    H232139   0.066   1.837  11.769 -2.1450  1.6753  0.8548
 3550TIP3   OH232140   2.407   2.680   1.311 -0.3625  0.3282 -0.3806
 3550TIP3    H132141   2.346   2.666   1.239  0.8152  1.1683 -1.5858
 3550TIP3    H232142   2.443   2.767   1.294  1.2596 -0.2144  0.2245
 3551TIP3   OH232143   4.285   0.398  11.317 -0.1421 -0.0246 -0.0343
 3551TIP3    H132144   4.340   0.476  11.314 -1.5127  1.0580  1.8057
 3551TIP3    H232145   4.202   0.428  11.354 -0.5535 -2.4144  1.1515
 3552TIP3   OH232146   6.576   4.226  15.805  0.0947  0.9300  0.3557
 3552TIP3    H132147   6.625   4.302  15.775  1.6618  0.1067  0.7292
 3552TIP3    H232148   6.559   4.242  15.897  0.7073  0.6925  0.5125
 3553TIP3   OH232149   0.515   2.532   5.994 -0.2739 -0.0568 -0.5546
 3553TIP3    H132150   0.436   2.557   5.945  1.1239 -0.8064 -3.2561
 3553TIP3    H232151   0.588   2.560   5.939  1.3616 -0.4437  1.3600
 3554TIP3   OH232152   1.189   6.437  11.891  0.1936  0.4419  0.0004
 3554TIP3    H132153   1.269   6.466  11.846 -0.4573 -0.2682 -1.6447
 3554TIP3    H232154   1.221   6.395  11.970  1.3617  1.8077  0.2914
 3555TIP3   OH232155   4.377   6.420   2.813  1.2666  0.1357 -0.3732
 3555TIP3    H132156   4.361   6.385   2.725  2.2193  2.2370 -1.4234
 3555TIP3    H232157   4.290   6.434   2.850  0.8556 -0.6604 -1.0286
 3556TIP3   OH232158   0.498   4.624  11.846  0.0161 -0.1952  0.2296
 3556TIP3    H132159   0.487   4.669  11.930 -1.5512  1.1858 -0.6724
 3556TIP3    H232160   0.451   4.542  11.855 -0.3104  0.0394  0.6408
 3557TIP3   OH232161   1.895   0.343  10.915  0.0478  0.5656  0.0370
 3557TIP3    H132162   1.916   0.346  10.821  1.3454  0.7470  0.3171
 3557TIP3    H232163   1.981   0.341  10.958 -0.5400  0.8945  1.2366
 3558TIP3   OH232164   0.968   0.322   5.102 -0.5771 -0.2527 -0.8017
 3558TIP3    H132165   0.878   0.354   5.106 -0.3849  0.1658  0.1847
 3558TIP3    H232166   1.008   0.350   5.184  0.5323 -0.2163 -1.3439
 3559TIP3   OH232167   3.076   1.041  16.289  0.4102 -0.0331 -0.4009
 3559TIP3    H132168   3.007   1.009  16.231  0.8247 -0.4236 -0.6767
 3559TIP3    H232169   3.124   0.963  16.315  1.4088  0.3553 -1.0457
 3560TIP3   OH232170   4.878   4.287  14.757 -0.2633  0.5019  0.4940
 3560TIP3    H132171   4.858   4.265  14.848 -2.4955  0.8192  0.1150
 3560TIP3    H232172   4.856   4.208  14.708 -1.3197  1.0956 -0.0176
 3561TIP3   OH232173   5.658   1.676  14.449 -0.2238 -0.2872  0.0144
 3561TIP3    H132174   5.710   1.756  14.452 -2.6414  1.4020 -0.9280
 3561TIP3    H232175   5.644   1.653  14.541  2.1397 -0.7665  0.2637
 3562TIP3   OH232176   6.020   1.572   3.280  0.3898 -0.0451 -0.0730
 3562TIP3    H132177   6.061   1.653   3.251  2.1404 -1.0570 -0.5294
 3562TIP3    H232178   6.041   1.565   3.373 -0.0465  0.1895  0.0437
 3563TIP3   OH232179   3.496   2.468   3.220 -0.1435 -0.1778 -0.1464
 3563TIP3    H132180   3.449   2.506   3.294  0.2874 -1.0367  0.5740
 3563TIP3    H232181   3.441   2.396   3.190  0.4797 -0.8885  0.4009
 3564TIP3   OH232182   6.464   0.017   4.058 -0.0154  0.0758 -0.2167
 3564TIP3    H132183   6.505   0.099   4.089  0.0777  0.4803 -1.3826
 3564TIP3    H232184   6.508  -0.001   3.975 -0.6969 -0.6578 -0.4179
 3565TIP3   OH232185   1.415   5.897  14.083 -0.2617  0.2572  0.6302
 3565TIP3    H132186   1.464   5.920  14.004  1.3569 -1.7701  0.9930
 3565TIP3    H232187   1.400   5.803  14.076 -1.1260  0.2518  2.1926
 3566TIP3   OH232188   4.007   1.505   3.539 -0.2084  0.0878 -0.3011
 3566TIP3    H132189   4.097   1.536   3.531 -0.0141 -0.7253 -1.3403
 3566TIP3    H232190   3.997   1.487   3.633  0.4116  1.0492 -0.0402
 3567TIP3   OH232191   0.159   0.792  16.737  0.8626  0.0922  0.8854
 3567TIP3    H132192   0.179   0.864  16.677  0.5440 -0.1000  0.5458
 3567TIP3    H232193   0.105   0.732  16.685  1.7098 -0.7328  0.9497
 3568TIP3   OH232194   2.553   3.381  11.001  0.3721  0.6340 -0.0987
 3568TIP3    H132195   2.573   3.409  10.911 -0.6283 -0.2480 -0.6094
 3568TIP3    H232196   2.489   3.311  10.990 -0.3949  1.1048  1.3591
 3569TIP3   OH232197   4.269   6.226  14.754 -0.6092  0.3045 -0.1209
 3569TIP3    H132198   4.330   6.298  14.773 -0.7218  0.5456 -0.6784
 3569TIP3    H232199   4.248   6.236  14.661  0.8679 -1.5992 -0.6642
 3570TIP3   OH232200   6.811   0.985   0.138  1.0047 -0.0286 -1.0981
 3570TIP3    H132201   6.817   0.973   0.232  2.9185 -1.2493 -1.3610
 3570TIP3    H232202   6.724   1.023   0.124  0.4565 -0.4437  1.0817
 3571TIP3   OH232203   5.999   4.090   1.997 -0.8364 -0.2429 -0.0564
 3571TIP3    H132204   6.035   4.001   1.993 -0.8265 -0.2465  0.1173
 3571TIP3    H232205   6.058   4.142   1.942 -0.1991 -0.1226  0.7237
 3572TIP3   OH232206   2.196   3.262  11.868 -0.0482 -0.5179 -0.5759
 3572TIP3    H132207   2.156   3.308  11.794 -0.9622 -2.2715 -1.2080
 3572TIP3    H232208   2.132   3.196  11.894  0.3617 -0.0852  1.6565
 3573TIP3   OH232209   1.444   1.629   4.380  0.2380  0.6713  0.1882
 3573TIP3    H132210   1.363   1.679   4.371 -1.0944 -1.3147  0.9443
 3573TIP3    H232211   1.498   1.659   4.307 -1.4175  1.5670 -0.6975
 3574TIP3   OH232212   3.825   1.469  12.840 -0.0066  0.2342 -0.0997
 3574TIP3    H132213   3.744   1.420  12.854 -0.4940  0.8796 -0.6492
 3574TIP3    H232214   3.863   1.478  12.928 -0.4731 -0.1620  0.1460
 3575TIP3   OH232215   6.561   3.438   2.927 -0.1981  0.1286 -0.7406
 3575TIP3    H132216   6.549   3.350   2.962 -1.0105  1.7214  3.1349
 3575TIP3    H232217   6.482   3.454   2.875 -0.7703 -0.8216 -0.1803
 3576TIP3   OH232218   1.866   3.083  12.549 -0.0108 -0.5640 -0.4270
 3576TIP3    H132219   1.909   3.132  12.479 -0.3932  2.2792  1.2383
 3576TIP3    H232220   1.890   3.131  12.629 -2.9295 -1.3153  0.9422
 3577TIP3   OH232221   3.499   6.523  13.498  0.2723 -0.2152 -0.0879
 3577TIP3    H132222   3.424   6.574  13.468 -0.6887 -1.5584 -0.0095
 3577TIP3    H232223   3.548   6.583  13.554 -1.4497  0.2748  0.9138
 3578TIP3   OH232224   0.936   4.700  12.074 -0.0918  0.3461 -0.1557
 3578TIP3    H132225   0.892   4.785  12.080  0.0145  0.3152  1.1366
 3578TIP3    H232226   1.023   4.716  12.111 -0.0426 -0.3145  0.0095
 3579TIP3   OH232227   3.598   5.762   2.910  0.2771  0.2945  0.1691
 3579TIP3    H132228   3.507   5.738   2.892  0.0405 -0.2107  1.8535
 3579TIP3    H232229   3.629   5.692   2.969  0.8805  1.9176  1.8274
 3580TIP3   OH232230   1.874   6.052  15.024  0.1667  0.2582  0.6586
 3580TIP3    H132231   1.844   6.143  15.021 -2.1235 -0.3420  2.9980
 3580TIP3    H232232   1.899   6.038  15.115  0.2615 -1.5294  0.3760
 3581TIP3   OH232233   6.159   6.153  11.585  0.3961 -0.4071 -0.2036
 3581TIP3    H132234   6.103   6.181  11.512  0.4718 -0.3900 -0.2551
 3581TIP3    H232235   6.232   6.215  11.584  0.3831 -0.3908 -0.0959
 3582TIP3   OH232236   3.657   1.080   3.373  0.1733  0.0044  0.4251
 3582TIP3    H132237   3.719   1.011   3.398 -0.2271 -0.7551 -0.6658
 3582TIP3    H232238   3.691   1.115   3.290  0.6776  1.5137  1.2352
 3583TIP3   OH232239   3.804   6.153  16.126 -0.0009 -0.0071  0.1991
 3583TIP3    H132240   3.815   6.078  16.185 -0.4836 -0.5349 -0.3678
 3583TIP3    H232241   3.731   6.128  16.070 -0.4007  1.0482  0.2378
 3584TIP3   OH232242   4.250   0.566   3.750 -0.1673 -0.1575 -0.6984
 3584TIP3    H132243   4.325   0.602   3.796  2.5542 -3.1502 -2.5733
 3584TIP3    H232244   4.235   0.628   3.678  0.3463  0.5757 -0.1881
 3585TIP3   OH232245   2.683   1.987  11.196  0.0786  0.0210  0.0616
 3585TIP3    H132246   2.592   1.988  11.165  0.4902 -1.3224 -1.2230
 3585TIP3    H232247   2.732   1.943  11.127  2.0236  2.2183 -0.0488
 3586TIP3   OH232248   1.183   2.186  15.702 -0.5058 -0.0446  0.0047
 3586TIP3    H132249   1.147   2.118  15.758 -1.0854 -0.1322 -0.4666
 3586TIP3    H232250   1.110   2.211  15.645  0.1205 -0.1004 -0.8418
 3587TIP3   OH232251   4.550   0.101  13.024  0.0189  0.1645 -0.8444
 3587TIP3    H132252   4.504   0.019  13.040 -0.2122  0.4796  0.1194
 3587TIP3    H232253   4.539   0.152  13.104  0.0290  1.2086 -1.4897
 3588TIP3   OH232254   0.501   2.540  10.426 -0.2178 -0.4628 -0.6260
 3588TIP3    H132255   0.548   2.462  10.457 -0.7046 -0.8043 -0.7412
 3588TIP3    H232256   0.430   2.505  10.373 -1.9381 -0.0188  1.3330
 3589TIP3   OH232257   6.230   5.497   2.897  0.5968 -0.0662  0.3628
 3589TIP3    H132258   6.176   5.427   2.934 -0.3732 -0.7348 -2.2123
 3589TIP3    H232259   6.183   5.577   2.918  0.0979 -0.4319  0.6554
 3590TIP3   OH232260   2.602   5.890   1.872 -0.6038  0.1669  0.1319
 3590TIP3    H132261   2.535   5.829   1.903 -1.3450 -0.6695 -2.9284
 3590TIP3    H232262   2.559   5.976   1.875 -0.4787  0.1785  1.8727
 3591TIP3   OH232263   4.587   5.056  15.154 -0.1115  0.4046  0.1653
 3591TIP3    H132264   4.668   5.021  15.117  0.4284  2.9479 -1.2034
 3591TIP3    H232265   4.519   5.030  15.091  0.0617  0.5415 -0.0799
 3592TIP3   OH232266   1.540   0.118  17.078  0.3885  0.3326  0.2015
 3592TIP3    H132267   1.610   0.139  17.016 -0.1305  3.8201  0.7073
 3592TIP3    H232268   1.578   0.133  17.164  0.0678 -1.2441  0.6413
 3593TIP3   OH232269   4.774   0.517  13.272 -0.5190 -0.4846  0.0847
 3593TIP3    H132270   4.839   0.523  13.342  0.0984 -0.7714 -0.4593
 3593TIP3    H232271   4.812   0.456  13.209 -0.5153  0.7313 -1.1097
 3594TIP3   OH232272   0.273   3.455  15.069  0.2215 -0.2548 -0.4471
 3594TIP3    H132273   0.367   3.440  15.062  0.6321  0.9686  2.0837
 3594TIP3    H232274   0.239   3.377  15.113  0.1278 -0.4052 -0.7793
 3595TIP3   OH232275   1.863   3.177  11.650 -0.1875 -0.6010  0.2801
 3595TIP3    H132276   1.906   3.124  11.717  0.1780 -0.5389  0.0979
 3595TIP3    H232277   1.915   3.163  11.571 -0.1606 -0.0734  0.1993
 3596TIP3   OH232278   2.308   6.424  16.330 -0.0625 -0.0698 -0.3741
 3596TIP3    H132279   2.251   6.457  16.260 -0.4931  1.3970  0.6452
 3596TIP3    H232280   2.248   6.394  16.398  0.3701  1.0133  0.4922
 3597TIP3   OH232281   3.382   0.443   1.652 -0.0175  0.2961 -0.0400
 3597TIP3    H132282   3.455   0.501   1.677  1.1715 -0.6186 -1.3412
 3597TIP3    H232283   3.364   0.393   1.732 -0.6065  1.9590  0.9065
 3598TIP3   OH232284   4.267   2.033   5.835 -0.0748  0.3423 -0.6486
 3598TIP3    H132285   4.239   1.945   5.810  1.4017 -0.7475  1.3060
 3598TIP3    H232286   4.341   2.052   5.777  0.6722 -0.4374  0.0211
 3599TIP3   OH232287   3.390   0.878  13.663  0.0137 -0.4321 -0.2426
 3599TIP3    H132288   3.485   0.884  13.671 -0.2679  1.4596  2.6018
 3599TIP3    H232289   3.365   0.807  13.723 -0.6650  1.9746  2.4597
 3600TIP3   OH232290   3.888   2.943  17.152  0.3878 -0.1310 -0.0795
 3600TIP3    H132291   3.976   2.941  17.116  0.3861  1.0629 -0.1824
 3600TIP3    H232292   3.899   2.973  17.242  0.0866  0.1341 -0.1267
 3601TIP3   OH232293   2.904   4.151  14.304  0.4609 -0.0349  0.4819
 3601TIP3    H132294   2.877   4.167  14.213  0.9141 -1.4721  0.0835
 3601TIP3    H232295   2.832   4.185  14.357 -0.2934 -0.1573 -0.4537
 3602TIP3   OH232296   0.779   2.229  16.496  0.3924  0.3805 -0.0503
 3602TIP3    H132297   0.699   2.246  16.446  1.2036  1.8084 -0.8980
 3602TIP3    H232298   0.794   2.310  16.545  1.3543  0.1525  0.0326
 3603TIP3   OH232299   3.954   1.035   4.185 -0.2782  1.1065  0.1612
 3603TIP3    H132300   3.984   0.992   4.265  0.0318  0.0094 -0.5402
 3603TIP3    H232301   3.873   1.079   4.211 -0.3353  0.5094  1.0151
 3604TIP3   OH232302   2.407   6.504   3.730  0.2473 -0.0276  0.0033
 3604TIP3    H132303   2.342   6.439   3.703  0.0875 -0.1710  0.7344
 3604TIP3    H232304   2.486   6.479   3.683  0.2632 -0.9121  0.4812
 3605TIP3   OH232305   2.213   2.970  11.478 -0.4476  0.4642 -0.3033
 3605TIP3    H132306   2.144   2.912  11.446 -0.3619 -0.1400  0.6091
 3605TIP3    H232307   2.265   2.916  11.537  1.3287  0.6694 -1.6493
 3606TIP3   OH232308   5.398   4.638  10.911  0.0651  0.4426  0.2816
 3606TIP3    H132309   5.304   4.649  10.897 -0.0707 -0.7855  0.2409
 3606TIP3    H232310   5.428   4.589  10.835  0.4495 -0.6129  1.1023
 3607TIP3   OH232311   0.627   5.043  16.527 -0.1610 -0.5418  0.1040
 3607TIP3    H132312   0.632   4.965  16.471  0.5157 -1.4717  1.4127
 3607TIP3    H232313   0.714   5.082  16.521 -0.5900  0.2727 -0.7764
 3608TIP3   OH232314   6.117   2.009   4.245 -0.1350  0.4787  0.5377
 3608TIP3    H132315   6.094   2.101   4.250  1.4691  0.9874 -0.8975
 3608TIP3    H232316   6.034   1.963   4.239 -1.0383  1.6762  3.1797
 3609TIP3   OH232317   0.125   5.894  17.241 -0.1453 -0.3284  0.4123
 3609TIP3    H132318   0.157   5.806  17.219 -2.1582 -0.7644 -0.9203
 3609TIP3    H232319   0.105   5.888  17.335 -1.2836 -1.6553  0.1158
 3610TIP3   OH232320   6.509   3.745   0.499  0.0561  0.2585  0.7755
 3610TIP3    H132321   6.498   3.832   0.537 -0.5533  0.8359 -0.6990
 3610TIP3    H232322   6.420   3.714   0.485  0.2616  0.5260 -1.2199
 3611TIP3   OH232323   4.442   2.562  15.250 -0.3680  0.6240 -0.1831
 3611TIP3    H132324   4.369   2.599  15.299 -0.1209  0.1088  0.5704
 3611TIP3    H232325   4.495   2.517  15.315 -1.6718 -2.7185 -1.3028
 3612TIP3   OH232326   0.168   1.573   2.810  0.7041 -0.3190  0.8033
 3612TIP3    H132327   0.111   1.592   2.735 -1.4064 -0.6102  2.2791
 3612TIP3    H232328   0.227   1.505   2.778 -1.7057 -2.1551  0.0531
 3613TIP3   OH232329   6.545   2.064   5.344 -0.1753  0.4209 -0.5498
 3613TIP3    H132330   6.612   2.128   5.321  1.2786 -1.0651 -0.5827
 3613TIP3    H232331   6.500   2.045   5.262  0.8443 -0.2025 -0.9773
 3614TIP3   OH232332   4.338   0.547  13.518  0.5030 -0.3675 -0.6090
 3614TIP3    H132333   4.357   0.454  13.504 -0.8361 -1.0563  1.9592
 3614TIP3    H232334   4.368   0.565  13.607 -2.5007  0.7816  0.2161
 3615TIP3   OH232335   4.107   5.690  16.946  0.5581 -0.2258  0.1129
 3615TIP3    H132336   4.186   5.735  16.976  1.6893 -2.3278  0.3872
 3615TIP3    H232337   4.112   5.694  16.851 -0.0327  1.3466  0.1293
 3616TIP3   OH232338   2.469   6.798  13.865 -0.0426  0.8108 -0.6003
 3616TIP3    H132339   2.521   6.738  13.812 -1.9220 -0.8440 -0.6068
 3616TIP3    H232340   2.442   6.866  13.804  0.5192  0.6753 -1.0074
 3617TIP3   OH232341   3.637   5.546  11.630 -0.0764  0.3349  0.0198
 3617TIP3    H132342   3.726   5.575  11.608 -0.0803  0.2104 -0.1669
 3617TIP3    H232343   3.648   5.496  11.711  0.2385 -0.8711 -0.7501
 3618TIP3   OH232344   5.004   3.227   4.217 -0.7639 -0.0090 -0.2601
 3618TIP3    H132345   5.017   3.231   4.312  0.5314 -0.5043 -0.4159
 3618TIP3    H232346   5.027   3.138   4.193 -1.4259  0.0104 -1.0073
 3619TIP3   OH232347   2.054   5.647   2.408 -0.1844 -0.2282 -0.0874
 3619TIP3    H132348   2.149   5.644   2.407 -0.1505  0.8099 -0.6910
 3619TIP3    H232349   2.030   5.696   2.329 -1.0727  2.7300  1.9084
 3620TIP3   OH232350   1.827   0.015  16.335  0.2558  0.5071  0.0623
 3620TIP3    H132351   1.767   0.087  16.319  1.5447  1.2494 -1.6406
 3620TIP3    H232352   1.903   0.056  16.378  1.0315  0.1904 -0.9969
 3621TIP3   OH232353   5.569   2.811   4.828  0.2379  0.3507  0.2826
 3621TIP3    H132354   5.493   2.755   4.846  0.2711 -0.3114 -1.6038
 3621TIP3    H232355   5.559   2.884   4.889 -2.2744  0.6106 -0.4037
 3622TIP3   OH232356   2.759   0.017   3.887 -0.3971  0.2259 -0.3418
 3622TIP3    H132357   2.813   0.002   3.810 -1.4868  0.9209 -1.2449
 3622TIP3    H232358   2.708  -0.064   3.897  1.0250 -0.5556  0.6981
 3623TIP3   OH232359   2.792   3.593   0.287 -0.5051  0.4089  0.2156
 3623TIP3    H132360   2.730   3.653   0.246 -1.7282  1.1859  3.0861
 3623TIP3    H232361   2.738   3.525   0.327  0.7601 -1.3966 -1.0096
 3624TIP3   OH232362   2.027   6.464  16.008  0.3925  0.4292  0.1037
 3624TIP3    H132363   1.993   6.510  15.931 -0.7703 -1.0477 -0.2992
 3624TIP3    H232364   1.977   6.499  16.081 -0.1333  0.1903 -0.1328
 3625TIP3   OH232365   6.537   1.920  11.346  0.7183  0.2927 -1.1073
 3625TIP3    H132366   6.587   1.895  11.268  1.4290  0.0836 -0.5907
 3625TIP3    H232367   6.581   1.998  11.379  2.1827 -1.2277  0.6870
 3626TIP3   OH232368   5.398   6.068   5.685 -0.5003  0.2263 -0.1812
 3626TIP3    H132369   5.403   6.139   5.749 -1.1247 -0.9737  1.2193
 3626TIP3    H232370   5.305   6.062   5.663 -0.4900 -0.3528 -0.0698
 3627TIP3   OH232371   1.897   2.826   0.315 -0.0862 -0.0611  0.6649
 3627TIP3    H132372   1.952   2.753   0.286 -0.2585  0.3267 -0.6739
 3627TIP3    H232373   1.826   2.830   0.251  1.4213  3.0270 -0.9391
 3628TIP3   OH232374   3.814   6.472  15.370 -0.5094  0.5291 -0.3181
 3628TIP3    H132375   3.886   6.535  15.361 -2.2182  2.5410 -0.2371
 3628TIP3    H232376   3.797   6.442  15.281  0.2891  0.1921 -0.3614
 3629TIP3   OH232377   0.792   1.448  13.441 -0.8634  0.4937 -0.2651
 3629TIP3    H132378   0.721   1.401  13.396 -1.3793  0.4291  0.6148
 3629TIP3    H232379   0.845   1.483  13.370 -2.2245  1.2138 -0.9496
 3630TIP3   OH232380   2.744   3.724  12.889  0.1287  0.0862  0.2386
 3630TIP3    H132381   2.771   3.774  12.966 -0.0846  2.0723 -0.9315
 3630TIP3    H232382   2.791   3.641  12.896 -1.4116 -0.5817  3.5238
 3631TIP3   OH232383   1.996   3.219  13.646 -0.3437  0.0308  0.3528
 3631TIP3    H132384   2.080   3.208  13.602 -0.6457 -2.4950  0.3466
 3631TIP3    H232385   1.962   3.302  13.612  1.4977  0.3826 -0.6824
 3632TIP3   OH232386   5.338   1.190   1.497 -0.7060 -0.6570  0.1084
 3632TIP3    H132387   5.424   1.204   1.538 -0.2861  1.8591 -1.5063
 3632TIP3    H232388   5.352   1.116   1.437  0.6301  0.3761 -0.8914
 3633TIP3   OH232389   1.593   4.661  13.163  0.5546  0.0388 -0.1335
 3633TIP3    H132390   1.532   4.675  13.234  0.6372 -0.1008 -0.0333
 3633TIP3    H232391   1.660   4.729  13.174  0.5294  0.0611 -0.1203
 3634TIP3   OH232392   0.384   0.680   4.957  0.0160 -0.4467  0.0022
 3634TIP3    H132393   0.480   0.681   4.966 -0.0605  0.5254  0.7451
 3634TIP3    H232394   0.367   0.746   4.890 -0.1087 -0.9766 -0.4954
 3635TIP3   OH232395   1.901   3.968   4.462 -0.1435  0.0601  0.2136
 3635TIP3    H132396   1.827   3.910   4.483  0.8970 -0.3215  3.0991
 3635TIP3    H232397   1.975   3.909   4.450  0.4818  0.6455  1.1150
 3636TIP3   OH232398   4.627   4.436   4.236  0.4403  0.0168 -0.2621
 3636TIP3    H132399   4.538   4.431   4.270  0.5952 -1.0817 -0.0155
 3636TIP3    H232400   4.651   4.346   4.217  1.4222  0.3289 -0.5385
 3637TIP3   OH232401   1.772   4.252   2.852  0.0046  0.3079 -0.2073
 3637TIP3    H132402   1.688   4.284   2.886  0.8696  1.9198  0.4510
 3637TIP3    H232403   1.750   4.215   2.766 -1.1028  2.4706 -0.9059
 3638TIP3   OH232404   2.781   0.851  11.672 -0.2809 -0.1807 -0.1504
 3638TIP3    H132405   2.702   0.873  11.722 -0.2283 -2.8342  1.2082
 3638TIP3    H232406   2.752   0.784  11.610  1.0357 -1.7590  0.9045
 3639TIP3   OH232407   4.644   4.531  15.720  0.1127 -0.2553  0.5401
 3639TIP3    H132408   4.619   4.495  15.635 -1.7301 -0.4355  1.1422
 3639TIP3    H232409   4.730   4.494  15.737  0.3238 -0.5594 -1.0496
 3640TIP3   OH232410   0.775   4.656  16.097 -0.2407 -0.2704  0.2099
 3640TIP3    H132411   0.704   4.715  16.070 -1.1653 -0.5860  1.8763
 3640TIP3    H232412   0.730   4.584  16.141  1.0405 -1.1291  0.1302
 3641TIP3   OH232413   5.228   5.075   0.636 -0.0166 -0.2044  0.1709
 3641TIP3    H132414   5.284   5.111   0.705 -0.3328 -1.2694  0.9970
 3641TIP3    H232415   5.211   5.149   0.578 -1.3770  1.2270  2.3160
 3642TIP3   OH232416   5.102   4.267   4.924 -0.5027  0.1875 -0.2469
 3642TIP3    H132417   5.052   4.349   4.922 -1.3894 -0.3498 -0.6422
 3642TIP3    H232418   5.179   4.284   4.869  1.0920  1.8445  2.3911
 3643TIP3   OH232419   1.726   5.369   4.342  0.2962  0.2890 -0.1778
 3643TIP3    H132420   1.821   5.382   4.342  0.0927  2.1920  1.8134
 3643TIP3    H232421   1.701   5.372   4.249  2.0404  0.9447 -0.6418
 3644TIP3   OH232422   1.440   6.819   0.296  0.5318  0.6649 -0.0285
 3644TIP3    H132423   1.527   6.786   0.272 -0.2864 -0.7652 -1.1329
 3644TIP3    H232424   1.410   6.865   0.218 -0.4989 -0.5515 -0.3706
 3645TIP3   OH232425   0.148   0.138   5.420 -0.2702  0.3169  0.6150
 3645TIP3    H132426   0.229   0.187   5.434 -0.9927  0.9791  2.6727
 3645TIP3    H232427   0.085   0.179   5.478 -1.2884 -2.1222  1.3094
 3646TIP3   OH232428   5.641   2.514  13.891 -0.0900 -0.0517 -0.2440
 3646TIP3    H132429   5.577   2.485  13.826 -1.7990  1.4741  0.7135
 3646TIP3    H232430   5.685   2.589  13.850  0.2921 -0.3831 -0.4456
 3647TIP3   OH232431   1.009   1.088   5.905  0.4754  0.3282  0.0596
 3647TIP3    H132432   1.104   1.086   5.904  0.4923  1.2887 -1.0778
 3647TIP3    H232433   0.986   1.181   5.909 -0.4196  0.2766 -2.9681
 3648TIP3   OH232434   0.202   0.748  12.917  0.1764 -0.0432  0.0604
 3648TIP3    H132435   0.265   0.803  12.962  1.1702 -1.3556  0.3133
 3648TIP3    H232436   0.130   0.737  12.980  0.5191 -0.0155  0.4551
 3649TIP3   OH232437   1.950   6.393   5.838 -0.1703 -0.0047  0.1398
 3649TIP3    H132438   1.973   6.307   5.875 -0.9479 -0.6877 -0.9341
 3649TIP3    H232439   1.956   6.381   5.743  1.6578  1.6907  0.0159
 3650TIP3   OH232440   0.970   4.877   3.398  0.0165 -0.3361  0.3696
 3650TIP3    H132441   1.043   4.928   3.432 -2.0597  0.9270  3.1000
 3650TIP3    H232442   0.992   4.786   3.418  1.0493  0.0016  0.7464
 3651TIP3   OH232443   5.759   0.161   3.070 -0.0578 -0.2489 -0.2839
 3651TIP3    H132444   5.850   0.191   3.068 -0.5182  1.3306  1.5541
 3651TIP3    H232445   5.761   0.081   3.122  0.4682 -0.9633 -1.3799
 3652TIP3   OH232446   1.512   5.608   3.499  0.2336 -0.4379  0.0893
 3652TIP3    H132447   1.573   5.680   3.484 -1.7647  1.4484  0.6981
 3652TIP3    H232448   1.463   5.634   3.578 -1.6750 -1.6428 -0.6604
 3653TIP3   OH232449   0.253   0.082   0.629 -0.2089  0.1721  0.5194
 3653TIP3    H132450   0.334   0.111   0.587 -0.9198  1.2963 -0.1230
 3653TIP3    H232451   0.230   0.153   0.688 -3.7662  2.6871 -3.5454
 3654TIP3   OH232452   3.209   6.018  16.262 -0.3114 -0.0224 -0.0685
 3654TIP3    H132453   3.164   5.941  16.297 -0.4841 -1.3914 -3.0961
 3654TIP3    H232454   3.138   6.075  16.232 -0.2469  2.2471  3.8794
 3655TIP3   OH232455   2.235   3.065   5.218  0.1092 -0.3108  0.0927
 3655TIP3    H132456   2.216   2.981   5.175  1.3051 -0.1344 -0.8142
 3655TIP3    H232457   2.151   3.109   5.224 -0.3862 -1.2013 -0.2365
 3656TIP3   OH232458   6.661   4.478  16.026 -0.8077 -0.4277 -0.0753
 3656TIP3    H132459   6.647   4.506  16.117 -1.9942 -0.0547 -0.3591
 3656TIP3    H232460   6.697   4.555  15.982 -0.3542 -0.5689  0.0499
 3657TIP3   OH232461   2.003   0.034   5.230  0.1143  0.3123  0.1958
 3657TIP3    H132462   2.021   0.058   5.321 -0.6400  0.4471  0.3131
 3657TIP3    H232463   2.078   0.067   5.181  0.8262 -0.3124  0.8530
 3658TIP3   OH232464   3.531   6.588   2.222 -0.0192  0.5714 -0.3293
 3658TIP3    H132465   3.619   6.596   2.186 -0.8510  0.6369 -2.4476
 3658TIP3    H232466   3.537   6.516   2.284  1.5674  0.6920 -0.3160
 3659TIP3   OH232467   0.276   5.741   5.773 -0.0499  0.9486 -0.6502
 3659TIP3    H132468   0.334   5.694   5.715  1.1718  3.2342 -1.3403
 3659TIP3    H232469   0.333   5.801   5.821 -1.2012  0.0067  2.0144
 3660TIP3   OH232470   6.114   0.574  11.790 -0.0507 -0.2518  0.3263
 3660TIP3    H132471   6.093   0.524  11.711  0.7043  0.7033 -0.4745
 3660TIP3    H232472   6.034   0.569  11.843 -0.3885 -1.3052 -0.2726
 3661TIP3   OH232473   5.072   2.689  12.934 -0.3166 -0.0417 -0.2743
 3661TIP3    H132474   5.036   2.601  12.943 -1.9967  0.6326 -0.3907
 3661TIP3    H232475   5.133   2.682  12.861  0.3845 -1.3625  0.4061
 3662TIP3   OH232476   1.688   4.935   4.730 -0.5222  0.1012  0.1775
 3662TIP3    H132477   1.645   4.853   4.757  0.1914  0.2587  1.8421
 3662TIP3    H232478   1.634   5.004   4.769 -0.8945  0.4181 -0.8911
 3663TIP3   OH232479   2.384   5.671  13.668 -0.2130 -0.0967 -0.5655
 3663TIP3    H132480   2.469   5.629  13.657 -0.3053  0.0755 -2.0287
 3663TIP3    H232481   2.392   5.753  13.620 -1.3143 -0.2176 -0.9489
 3664TIP3   OH232482   1.406   5.195  15.177 -0.1992  0.3215 -0.2913
 3664TIP3    H132483   1.397   5.176  15.271  2.0332  1.5587  0.2068
 3664TIP3    H232484   1.318   5.221  15.150 -1.4154 -2.2784  0.9064
 3665TIP3   OH232485   5.366   2.237  15.185 -0.0138  0.0676  0.5461
 3665TIP3    H132486   5.441   2.183  15.161 -0.0414 -0.2213  1.1302
 3665TIP3    H232487   5.395   2.286  15.262 -0.2121  0.4113  0.4059
 3666TIP3   OH232488   3.829   1.360   4.093 -0.0602  0.4214 -0.2703
 3666TIP3    H132489   3.851   1.451   4.110  0.2763  0.3483 -0.3082
 3666TIP3    H232490   3.810   1.323   4.180 -2.0741  1.0066 -0.4390
 3667TIP3   OH232491   0.031   4.817  16.566  0.2159  0.5748  0.3329
 3667TIP3    H132492   0.053   4.787  16.654  1.5594 -1.5093 -0.6888
 3667TIP3    H232493  -0.057   4.783  16.551  0.3574  0.1266  0.5070
 3668TIP3   OH232494   5.228   6.637  13.017 -0.2273 -0.8768 -0.3643
 3668TIP3    H132495   5.247   6.722  13.057 -1.0085 -0.2552 -1.2916
 3668TIP3    H232496   5.311   6.589  13.023 -0.1409 -0.5523  1.3591
 3669TIP3   OH232497   4.746   0.059  12.475 -0.3017 -0.3933  0.1954
 3669TIP3    H132498   4.815   0.120  12.503 -1.5240  0.7392  0.8199
 3669TIP3    H232499   4.730   0.004  12.552  0.2836 -1.0010 -0.1225
 3670TIP3   OH232500   2.194   5.283  11.777  0.4738 -0.1600  0.1436
 3670TIP3    H132501   2.112   5.308  11.820 -0.3248 -0.0777 -1.3582
 3670TIP3    H232502   2.261   5.293  11.844 -0.7924 -0.5277  1.4865
 3671TIP3   OH232503   0.364   1.730  14.168 -0.0864 -0.0822 -0.1389
 3671TIP3    H132504   0.383   1.695  14.081  1.1005  1.1366 -0.3800
 3671TIP3    H232505   0.393   1.821  14.165  1.5002 -0.4618  2.0339
 3672TIP3   OH232506   6.371   3.837  13.506 -0.0300  0.4563 -0.6028
 3672TIP3    H132507   6.349   3.816  13.597 -1.0427 -2.7773 -1.5159
 3672TIP3    H232508   6.316   3.912  13.484 -0.4424  0.6960  1.1764
 3673TIP3   OH232509   3.915   5.573   5.509 -0.2677 -0.0055 -0.4138
 3673TIP3    H132510   4.000   5.530   5.504 -0.9706 -1.3652 -1.0201
 3673TIP3    H232511   3.934   5.660   5.544  1.2102 -0.7215  0.6072
 3674TIP3   OH232512   4.924   6.113  13.047 -0.4434  0.5129  0.0122
 3674TIP3    H132513   4.945   6.071  12.963  0.3535  0.9149  0.0036
 3674TIP3    H232514   4.965   6.199  13.041 -0.4134  0.5581  0.8036
 3675TIP3   OH232515   2.231   5.820  15.366 -0.0787 -0.1486 -0.1826
 3675TIP3    H132516   2.156   5.831  15.425 -0.1892  0.1423 -0.3755
 3675TIP3    H232517   2.308   5.827  15.422 -0.2173 -1.5679  0.2032
 3676TIP3   OH232518   4.934   1.982  12.368 -0.1510  0.4281  0.2052
 3676TIP3    H132519   4.982   1.968  12.286  0.3730 -0.3170  0.6331
 3676TIP3    H232520   4.897   1.897  12.389 -0.5182  0.6819  0.6002
 3677TIP3   OH232521   5.517   0.807   1.525 -0.4830  0.0103 -0.3227
 3677TIP3    H132522   5.479   0.722   1.504 -0.3946  0.0193 -0.5134
 3677TIP3    H232523   5.512   0.857   1.444 -1.0575  0.3842 -0.0595
 3678TIP3   OH232524   2.394   3.100  11.932  0.4520 -0.0228  0.3680
 3678TIP3    H132525   2.419   3.069  11.845 -0.6638 -2.1948  0.7942
 3678TIP3    H232526   2.324   3.163  11.915 -0.5677 -1.3012 -0.2526
 3679TIP3   OH232527   5.840   4.343  12.145 -0.4002  0.1352 -0.4238
 3679TIP3    H132528   5.818   4.262  12.099 -2.5659  0.8281 -0.6418
 3679TIP3    H232529   5.816   4.326  12.236  0.5747  0.0085 -0.1846
 3680TIP3   OH232530   2.829   5.433   0.852  0.1222  0.0323 -0.1139
 3680TIP3    H132531   2.801   5.341   0.854 -0.9384  0.3437 -0.1132
 3680TIP3    H232532   2.850   5.450   0.760 -1.3561  0.2702 -0.4149
 3681TIP3   OH232533   0.282   0.172   7.209 -0.0996  0.1951 -0.5026
 3681TIP3    H132534   0.350   0.105   7.197  0.5047  0.7171 -0.0272
 3681TIP3    H232535   0.216   0.150   7.144  1.0133  0.2831 -1.6870
 3682TIP3   OH232536   3.863   4.358   2.229 -0.6580 -0.1897  0.3114
 3682TIP3    H132537   3.820   4.442   2.243  0.3607  0.2920  0.5737
 3682TIP3    H232538   3.874   4.352   2.134 -1.8939 -0.6220  0.1799
 3683TIP3   OH232539   3.925   5.810   0.041 -0.3510  0.1987  0.2913
 3683TIP3    H132540   3.990   5.768   0.099  1.7369  1.4141 -1.0863
 3683TIP3    H232541   3.949   5.903   0.042 -1.7980  0.5911 -0.6141
 3684TIP3   OH232542   2.229   4.864  17.244  0.6560 -0.1743  0.0535
 3684TIP3    H132543   2.172   4.796  17.281  0.0610  0.6439  0.6606
 3684TIP3    H232544   2.281   4.819  17.178 -0.8281 -0.8933 -0.6227
 3685TIP3   OH232545   0.626   2.307  13.519  0.6630 -0.1990 -0.0783
 3685TIP3    H132546   0.720   2.302  13.536  0.3942 -0.9373  1.2895
 3685TIP3    H232547   0.599   2.391  13.557  0.5969 -0.4571  0.4530
 3686TIP3   OH232548   6.695   0.414  16.618  0.2318  0.3550 -0.5624
 3686TIP3    H132549   6.605   0.396  16.645  0.0784 -2.8683 -2.9262
 3686TIP3    H232550   6.749   0.359  16.674  0.7720  2.1151  0.7025
 3687TIP3   OH232551   3.132   1.456   1.128 -0.1140 -0.6683 -0.2177
 3687TIP3    H132552   3.064   1.456   1.061  0.9761 -1.5306 -1.3570
 3687TIP3    H232553   3.192   1.526   1.101 -1.1101  0.8364  1.3911
 3688TIP3   OH232554   5.927   1.052  11.848 -0.2358 -0.0704  0.5210
 3688TIP3    H132555   5.916   1.111  11.773 -1.1186 -0.2134  0.5363
 3688TIP3    H232556   5.955   0.969  11.809 -1.4716 -0.3735  0.2830
 3689TIP3   OH232557   0.411   4.513   4.737 -0.1188 -0.7944  0.4458
 3689TIP3    H132558   0.444   4.473   4.657  1.2678 -1.7500  1.4651
 3689TIP3    H232559   0.402   4.606   4.716  2.0372 -0.7168 -0.2699
 3690TIP3   OH232560   1.916   4.713  16.355 -0.1069  0.2409  0.5592
 3690TIP3    H132561   1.920   4.779  16.424 -2.1696  0.6722  0.2917
 3690TIP3    H232562   1.831   4.727  16.313 -0.6106 -2.5816  0.5120
 3691TIP3   OH232563   2.778   6.192   5.500 -0.3486 -0.1252 -0.9778
 3691TIP3    H132564   2.819   6.259   5.555  0.3661 -2.2692  1.2122
 3691TIP3    H232565   2.689   6.185   5.533  0.2212 -1.7512  0.2579
 3692TIP3   OH232566   0.296   5.273  14.277 -0.7145  0.3336 -0.6537
 3692TIP3    H132567   0.351   5.211  14.324  0.9836  2.8975  0.8379
 3692TIP3    H232568   0.258   5.221  14.205 -1.0087 -2.9082  1.7095
 3693TIP3   OH232569   1.090   5.153  13.789  0.1644 -0.1451 -0.3758
 3693TIP3    H132570   1.048   5.204  13.858  0.3738 -0.2392 -0.1784
 3693TIP3    H232571   1.138   5.085  13.835  0.0002 -0.4348 -0.6349
 3694TIP3   OH232572   1.010   4.671   1.823  0.2814  0.3156 -0.4771
 3694TIP3    H132573   1.044   4.704   1.740 -0.1487  1.5122 -0.1871
 3694TIP3    H232574   1.087   4.667   1.880  0.2860  1.0850 -0.4281
 3695TIP3   OH232575   5.698   0.598  15.980  0.2019  0.3631  0.1945
 3695TIP3    H132576   5.664   0.547  16.053  0.2829 -0.7402 -0.5295
 3695TIP3    H232577   5.786   0.563  15.964 -0.1577 -0.0075 -1.0078
 3696TIP3   OH232578   1.914   1.100  17.084 -0.1015  0.5761  0.4542
 3696TIP3    H132579   1.862   1.140  17.154 -1.5162  1.4945 -1.0973
 3696TIP3    H232580   1.911   1.163  17.012  2.9643  0.5204  0.2257
 3697TIP3   OH232581   1.456   0.489  13.864 -0.7045  0.3114  0.4357
 3697TIP3    H132582   1.407   0.423  13.914 -0.7303 -0.3913 -0.5102
 3697TIP3    H232583   1.411   0.494  13.780 -0.3879  1.1718  0.3120
 3698TIP3   OH232584   6.276   2.089   1.524  0.1077 -0.1087 -0.5222
 3698TIP3    H132585   6.262   2.013   1.468 -2.8071  0.1116 -0.1576
 3698TIP3    H232586   6.311   2.156   1.465 -1.5377 -0.3343 -1.7942
 3699TIP3   OH232587   6.782   6.665   0.875 -0.5806 -0.3468  0.1073
 3699TIP3    H132588   6.765   6.576   0.907 -1.6490  0.1026  0.8453
 3699TIP3    H232589   6.804   6.715   0.954 -1.0731  0.2843 -0.1448
 3700TIP3   OH232590   6.007   3.410  15.015 -0.1403 -1.1344  0.5585
 3700TIP3    H132591   6.045   3.365  15.091  2.3679  0.6483  0.4228
 3700TIP3    H232592   6.076   3.469  14.985 -2.7830  1.6705 -0.2363
 3701TIP3   OH232593   4.757   1.887   2.888  0.3027 -0.4533 -0.0963
 3701TIP3    H132594   4.743   1.854   2.977 -1.6665 -0.9172 -0.5566
 3701TIP3    H232595   4.737   1.812   2.832 -1.6237  0.7288 -1.0480
 3702TIP3   OH232596   1.742   2.506  16.828 -0.0840 -0.2460 -0.2205
 3702TIP3    H132597   1.719   2.471  16.742  1.6700 -2.3174  0.0950
 3702TIP3    H232598   1.712   2.439  16.890 -0.2774  0.6845  0.6885
 3703TIP3   OH232599   6.002   5.616   1.811 -0.4866  0.2567  0.1574
 3703TIP3    H132600   6.037   5.704   1.797 -0.3614 -0.0331 -1.4843
 3703TIP3    H232601   5.907   5.628   1.810 -0.5563 -0.1012 -3.7604
 3704TIP3   OH232602   3.875   4.234  10.841  0.3319  0.2006 -0.0841
 3704TIP3    H132603   3.842   4.312  10.887 -0.2280 -0.6386  0.9659
 3704TIP3    H232604   3.839   4.241  10.753 -0.7039  0.5094  0.3601
 3705TIP3   OH232605   5.461   0.520  14.624 -0.1944  0.1001  0.0876
 3705TIP3    H132606   5.370   0.538  14.645 -0.4522 -2.3663  1.1380
 3705TIP3    H232607   5.503   0.502  14.708  1.0106  0.0795 -0.5022
 3706TIP3   OH232608   4.912   2.777   2.368  0.1327  0.3556 -0.5898
 3706TIP3    H132609   4.936   2.862   2.330 -0.2031  1.5174  1.7449
 3706TIP3    H232610   4.919   2.716   2.295  3.8692  1.7604 -1.4954
 3707TIP3   OH232611   4.973   0.216   4.977 -0.0952  0.4812  0.1648
 3707TIP3    H132612   4.991   0.152   4.908  1.3309  2.0672 -0.9836
 3707TIP3    H232613   5.039   0.198   5.044 -0.9756 -0.5460  0.7613
 3708TIP3   OH232614   0.067   3.171   0.188  0.0131  0.2729 -0.0164
 3708TIP3    H132615   0.085   3.263   0.169  1.0595 -0.1075 -0.9189
 3708TIP3    H232616  -0.023   3.170   0.220  0.5528  1.8109  1.5867
 3709TIP3   OH232617   0.795   4.059  15.525  0.2246 -0.3260 -0.1039
 3709TIP3    H132618   0.819   4.130  15.585  1.1858 -1.0048  0.3265
 3709TIP3    H232619   0.870   4.050  15.467 -0.5004 -0.0133 -1.0914
 3710TIP3   OH232620   4.556   2.785   3.077  0.2468 -0.6680  0.2037
 3710TIP3    H132621   4.617   2.851   3.044  2.0037 -1.7369  1.1795
 3710TIP3    H232622   4.542   2.809   3.169 -0.4674 -0.6863  0.1034
 3711TIP3   OH232623   0.659   3.284  16.359 -0.5497  0.8874  0.3060
 3711TIP3    H132624   0.724   3.287  16.289 -1.2168 -0.2283 -0.3668
 3711TIP3    H232625   0.662   3.194  16.392 -2.4747  0.5389 -0.4301
 3712TIP3   OH232626   0.019   2.560  13.199  0.1871  0.9948 -0.3267
 3712TIP3    H132627  -0.076   2.550  13.209  0.3881  1.1370  1.9745
 3712TIP3    H232628   0.051   2.572  13.288  2.7265 -1.9581 -0.7916
 3713TIP3   OH232629   0.447   2.135  10.391  0.8502 -0.0518 -0.0369
 3713TIP3    H132630   0.528   2.186  10.389  0.4699  0.5527 -0.2769
 3713TIP3    H232631   0.469   2.053  10.348  1.0149  0.5837 -1.1643
 3714TIP3   OH232632   2.228   6.020  14.577 -0.2210  0.2806 -0.1509
 3714TIP3    H132633   2.274   5.951  14.626 -2.7837 -1.9892 -0.8067
 3714TIP3    H232634   2.156   6.046  14.634  0.3458  2.0138 -0.1925
 3715TIP3   OH232635   5.978   6.793   5.656 -0.0840  0.1614  0.6419
 3715TIP3    H132636   6.010   6.729   5.593 -0.0821  0.8690 -0.0800
 3715TIP3    H232637   6.045   6.794   5.725  2.8820  3.5029 -2.0990
 3716TIP3   OH232638   1.122   5.791   6.282 -0.4999  0.0452  0.1258
 3716TIP3    H132639   1.050   5.819   6.338 -1.2092 -1.7399  0.1458
 3716TIP3    H232640   1.108   5.697   6.271 -0.0806  0.2778 -2.6286
 3717TIP3   OH232641   6.737   1.121  14.795 -0.6035  0.0140  0.1598
 3717TIP3    H132642   6.693   1.036  14.792 -0.9022  0.0660  2.3608
 3717TIP3    H232643   6.818   1.105  14.844 -0.2609  0.8294 -0.1241
 3718TIP3   OH232644   4.337   0.145  12.422  0.3595 -0.0486 -0.5153
 3718TIP3    H132645   4.328   0.050  12.416  2.1659 -0.3446  0.7861
 3718TIP3    H232646   4.266   0.180  12.368 -2.1285 -2.0910  1.3247
 3719TIP3   OH232647   0.623   6.266   1.160  0.4017 -0.0252 -0.2449
 3719TIP3    H132648   0.601   6.274   1.253  3.2386  3.3005  0.2294
 3719TIP3    H232649   0.633   6.357   1.130  1.1910 -1.1018 -3.4069
 3720TIP3   OH232650   5.275   1.052  12.830  0.2162  0.1261  0.1924
 3720TIP3    H132651   5.333   1.126  12.849  1.3510 -0.6710 -0.1102
 3720TIP3    H232652   5.200   1.065  12.888 -0.8561  2.9741 -1.7770
 3721TIP3   OH232653   0.298   6.717  16.599  0.7677 -0.1835 -0.0862
 3721TIP3    H132654   0.222   6.689  16.650 -1.3463 -1.2037 -3.6109
 3721TIP3    H232655   0.366   6.653  16.620 -0.6734 -1.7185 -0.0068
 3722TIP3   OH232656   3.043   5.353  11.612  0.7454  0.0861 -0.4136
 3722TIP3    H132657   3.020   5.260  11.603 -0.3834  0.4731 -1.7169
 3722TIP3    H232658   3.040   5.387  11.523  1.6698  1.2701 -0.0083
 3723TIP3   OH232659   3.421   6.493  14.279  0.3787 -0.6536  0.4738
 3723TIP3    H132660   3.384   6.580  14.294 -0.6129 -0.7864 -1.0594
 3723TIP3    H232661   3.388   6.468  14.192  3.3707 -1.1238 -0.5998
 3724TIP3   OH232662   6.735   6.461   5.198 -0.3394 -0.3880 -0.2580
 3724TIP3    H132663   6.765   6.455   5.288  0.4774 -1.7028 -0.5960
 3724TIP3    H232664   6.671   6.532   5.198  1.2400  1.0736  0.8898
 3725TIP3   OH232665   4.971   0.795  15.598  0.5441 -0.4106 -0.3331
 3725TIP3    H132666   5.006   0.776  15.684 -0.5843  1.6267  0.6107
 3725TIP3    H232667   4.914   0.721  15.578  0.4368 -0.6584  0.8846
 3726TIP3   OH232668   4.756   3.644   1.801 -0.0119 -0.1825 -0.3359
 3726TIP3    H132669   4.672   3.612   1.769 -0.4095 -1.1957  1.7153
 3726TIP3    H232670   4.820   3.582   1.766 -0.2312 -0.1103 -0.8744
 3727TIP3   OH232671   3.796   6.642  14.264 -0.1830  0.0439 -0.1024
 3727TIP3    H132672   3.857   6.689  14.207  0.9279 -1.8396 -0.4958
 3727TIP3    H232673   3.777   6.561  14.217 -3.1308  0.6583 -0.0569
 3728TIP3   OH232674   3.694   1.846   0.352  0.0060  0.4073  0.1515
 3728TIP3    H132675   3.627   1.913   0.337  1.2550  2.2579  2.5552
 3728TIP3    H232676   3.676   1.811   0.439  0.6135 -0.9434 -0.2422
 3729TIP3   OH232677   4.946   0.788  14.415  0.3034 -0.0600 -0.0720
 3729TIP3    H132678   4.863   0.765  14.373 -0.8707  1.1549  1.5090
 3729TIP3    H232679   4.920   0.836  14.494  2.4524 -1.8083  1.7506
 3730TIP3   OH232680   2.555   1.932   4.399 -0.0684  0.4433 -0.1774
 3730TIP3    H132681   2.577   2.015   4.440  0.0136  0.0551  0.5869
 3730TIP3    H232682   2.579   1.942   4.307 -1.8497  1.9262 -0.5045
 3731TIP3   OH232683   0.210   3.623  17.177  0.0939 -0.1825  0.0197
 3731TIP3    H132684   0.250   3.546  17.217 -0.2268 -0.4088 -0.0958
 3731TIP3    H232685   0.284   3.681  17.159  0.6453 -1.5788 -2.3596
 3732TIP3   OH232686   5.718   1.414   3.330 -0.4674 -0.1717 -0.0707
 3732TIP3    H132687   5.649   1.472   3.364  0.0549 -0.4333  1.4646
 3732TIP3    H232688   5.794   1.471   3.319 -0.5166 -0.1716 -0.4058
 3733TIP3   OH232689   1.604   4.831  12.747 -0.0615 -0.4428  0.3959
 3733TIP3    H132690   1.651   4.843  12.664 -0.2147  0.1301  0.3912
 3733TIP3    H232691   1.636   4.747  12.780 -1.0188 -1.3522 -0.9187
 3734TIP3   OH232692   2.616   2.439   1.634  0.2169 -0.2453 -0.6700
 3734TIP3    H132693   2.538   2.436   1.689  0.9366  0.6285  0.4172
 3734TIP3    H232694   2.658   2.354   1.648  0.8112  0.2720  0.7549
 3735TIP3   OH232695   0.277   3.249  16.384 -0.0051 -0.2912  0.0476
 3735TIP3    H132696   0.246   3.158  16.390 -1.4246  0.1753  0.0295
 3735TIP3    H232697   0.231   3.284  16.308  0.8770  0.3263 -0.2019
 3736TIP3   OH232698   4.255   0.271   1.680 -0.2768 -0.4042  0.0474
 3736TIP3    H132699   4.348   0.289   1.691 -0.0134 -1.4238 -0.4078
 3736TIP3    H232700   4.211   0.347   1.717  0.7526  0.4135 -0.3733
 3737TIP3   OH232701   3.278   0.235   2.196  0.7309  0.8120  0.1351
 3737TIP3    H132702   3.317   0.274   2.274  0.8471  1.2194 -0.1244
 3737TIP3    H232703   3.321   0.150   2.188  0.4892  0.6351  0.6935
 3738TIP3   OH232704   0.087   6.284  13.029 -0.0012 -0.0766 -0.0892
 3738TIP3    H132705   0.048   6.328  12.953 -0.9315  0.3905  0.6471
 3738TIP3    H232706   0.015   6.274  13.090  0.9214  0.2513  1.0590
 3739TIP3   OH232707   0.320   4.447  16.880  0.2726  0.2058 -0.0732
 3739TIP3    H132708   0.277   4.361  16.888  0.4947  0.0919 -0.0833
 3739TIP3    H232709   0.350   4.450  16.789  2.1155 -0.6000  0.4832
 3740TIP3   OH232710   3.169   4.730  14.089 -0.8213  0.1646  0.2398
 3740TIP3    H132711   3.189   4.723  14.183 -0.9339  0.2258  0.2679
 3740TIP3    H232712   3.255   4.731  14.047 -0.7783 -0.3064  0.3115
 3741TIP3   OH232713   0.036   4.158   5.075 -0.5223  0.1815 -0.3982
 3741TIP3    H132714  -0.016   4.230   5.037 -0.3435 -0.6291 -2.2260
 3741TIP3    H232715  -0.013   4.079   5.052 -1.1300 -0.2912  2.2671
 3742TIP3   OH232716   3.873   6.622   3.838  0.0887  0.2274  0.2411
 3742TIP3    H132717   3.792   6.654   3.876  0.2462  1.1567 -0.1883
 3742TIP3    H232718   3.859   6.528   3.826  0.0636 -0.0948  2.6201
 3743TIP3   OH232719   6.309   3.260  11.041 -0.2140 -0.1046  0.3018
 3743TIP3    H132720   6.392   3.265  10.995 -1.4021 -0.7556 -1.9921
 3743TIP3    H232721   6.281   3.351  11.051  0.5324  0.0888  0.6759
 3744TIP3   OH232722   4.637   3.158   6.116  0.3996  0.3458 -0.2801
 3744TIP3    H132723   4.652   3.217   6.042 -0.6460  0.9986  0.0105
 3744TIP3    H232724   4.696   3.190   6.184 -0.2995  1.1902 -0.0585
 3745TIP3   OH232725   4.340   6.094  11.587 -0.3091  0.1196 -0.2196
 3745TIP3    H132726   4.307   6.124  11.672  0.4866 -1.2716  0.6111
 3745TIP3    H232727   4.285   6.019  11.565 -0.1129  0.0959 -0.6324
 3746TIP3   OH232728   6.122   2.270   4.653  0.0740  1.3034 -0.8046
 3746TIP3    H132729   6.178   2.220   4.712  1.3525  0.9964 -2.2407
 3746TIP3    H232730   6.060   2.205   4.618  0.1371  1.2332 -0.7849
 3747TIP3   OH232731   4.999   4.168  13.654  0.1358 -0.3336  0.3217
 3747TIP3    H132732   5.057   4.120  13.714  0.5029  0.8178  0.9026
 3747TIP3    H232733   5.031   4.258  13.657 -0.8528  0.0485 -0.3902
 3748TIP3   OH232734   4.713   1.870  15.534  0.4783 -0.3259 -0.5314
 3748TIP3    H132735   4.678   1.892  15.621  0.5088  1.4360 -0.9403
 3748TIP3    H232736   4.749   1.953  15.501 -0.4425 -0.7196 -2.6369
 3749TIP3   OH232737   2.821   1.692  11.330  0.1834 -0.0703 -0.5696
 3749TIP3    H132738   2.767   1.618  11.302  1.2901 -0.2125 -2.3864
 3749TIP3    H232739   2.780   1.768  11.288 -0.3241  0.2112  0.4289
 3750TIP3   OH232740   0.452   0.029  13.927 -0.0302  0.3319  0.2464
 3750TIP3    H132741   0.454   0.046  13.833  0.1672 -0.7447  0.0570
 3750TIP3    H232742   0.449   0.116  13.966 -1.9445  0.7623 -0.8017
 3751TIP3   OH232743   1.883   0.134  12.896 -0.8251 -0.3451  0.2003
 3751TIP3    H132744   1.804   0.116  12.844 -2.1570  1.9877  1.3055
 3751TIP3    H232745   1.849   0.159  12.982  1.1662 -0.1651  0.9482
 3752TIP3   OH232746   5.636   6.160  15.594 -0.2107 -0.2820 -0.5634
 3752TIP3    H132747   5.698   6.200  15.533  2.3125 -0.4955  1.7328
 3752TIP3    H232748   5.663   6.069  15.599 -1.2458 -0.5712 -0.1628
 3753TIP3   OH232749   0.110   5.927  15.750  0.5165 -0.3950 -0.2665
 3753TIP3    H132750   0.061   5.864  15.803 -0.6964 -0.0332 -0.9566
 3753TIP3    H232751   0.107   6.008  15.802  0.0489 -0.2682 -0.4893
 3754TIP3   OH232752   6.501   6.302  14.202 -0.2882 -0.1294  0.6646
 3754TIP3    H132753   6.522   6.395  14.209 -0.0707  0.0427 -1.6963
 3754TIP3    H232754   6.407   6.299  14.186 -0.3587 -0.3437  1.1054
 3755TIP3   OH232755   1.773   5.364  15.497 -0.0978  0.0085  0.0782
 3755TIP3    H132756   1.738   5.451  15.477 -0.6246 -0.6241 -1.7825
 3755TIP3    H232757   1.865   5.370  15.472 -0.7623 -0.7907 -2.6637
 3756TIP3   OH232758   2.675   3.730  14.955  0.5854 -0.1313  0.6198
 3756TIP3    H132759   2.609   3.666  14.983  0.5076  0.6779  2.3583
 3756TIP3    H232760   2.735   3.737  15.030  1.6507  0.4517 -0.2684
 3757TIP3   OH232761   3.941   5.615  13.705 -0.1383  0.2144  0.1429
 3757TIP3    H132762   3.892   5.559  13.766  0.3466  0.0700  0.4009
 3757TIP3    H232763   3.896   5.700  13.710 -0.0397  0.2344  0.7846
 3758TIP3   OH232764   5.005   3.139  12.326  0.2989  0.2960 -0.4761
 3758TIP3    H132765   4.995   3.191  12.246  2.3467  0.4634 -0.6749
 3758TIP3    H232766   4.918   3.135  12.364 -0.0883  3.0494 -0.9633
 3759TIP3   OH232767   0.491   3.080   2.573 -0.2092 -0.1375  0.2323
 3759TIP3    H132768   0.579   3.113   2.555 -0.0625 -0.3831  0.5189
 3759TIP3    H232769   0.504   2.993   2.609 -0.5909 -0.3956 -0.2385
 3760TIP3   OH232770   2.762   0.254   0.218 -0.2425  0.1580  0.0100
 3760TIP3    H132771   2.721   0.272   0.302  0.0201 -1.1067  0.4077
 3760TIP3    H232772   2.832   0.193   0.237  0.6268  0.8309 -0.9498
 3761TIP3   OH232773   1.872   6.667   6.569  0.1988  0.2660  0.4605
 3761TIP3    H132774   1.936   6.685   6.500 -0.0467  0.3887  0.2646
 3761TIP3    H232775   1.795   6.719   6.545 -0.2231 -0.4179  0.3185
 3762TIP3   OH232776   3.602   1.801  16.488  0.5589 -0.8236 -0.2368
 3762TIP3    H132777   3.668   1.870  16.482  0.0025 -0.0019  2.2584
 3762TIP3    H232778   3.532   1.828  16.429  0.9370  0.0591 -0.2733
 3763TIP3   OH232779   0.086   1.479   0.139  0.1124  0.7918 -0.7002
 3763TIP3    H132780   0.121   1.447   0.057 -1.1828  0.6463 -1.2132
 3763TIP3    H232781   0.033   1.406   0.173  0.0144  1.1227 -0.1218
 3764TIP3   OH232782   4.342   5.162  11.175  0.0284  0.0283  0.1446
 3764TIP3    H132783   4.403   5.200  11.111 -1.8680 -0.9568 -2.3767
 3764TIP3    H232784   4.375   5.073  11.189  1.4892  0.8298  2.0132
 3765TIP3   OH232785   6.552   2.943  15.957 -0.4909  0.6453 -0.3645
 3765TIP3    H132786   6.608   2.887  16.011 -1.3778  1.0416  0.9943
 3765TIP3    H232787   6.610   3.012  15.925  0.4404 -0.5926 -1.4181
 3766TIP3   OH232788   1.425   6.515   3.742 -0.6223  0.2023 -0.2030
 3766TIP3    H132789   1.454   6.570   3.815 -2.1639 -0.8876  1.2572
 3766TIP3    H232790   1.340   6.552   3.717 -1.3999 -1.1121  0.4115
 3767TIP3   OH232791   1.328   2.551   1.536 -0.0869  0.1215 -0.0421
 3767TIP3    H132792   1.275   2.539   1.457  0.4794  1.4900 -0.6643
 3767TIP3    H232793   1.402   2.605   1.506 -0.1820  1.1609  1.5560
 3768TIP3   OH232794   6.009   2.227   2.591  0.3694 -0.0495 -0.5310
 3768TIP3    H132795   6.040   2.316   2.607  0.3986  0.2792 -2.3537
 3768TIP3    H232796   6.082   2.183   2.548 -0.6693 -0.0967 -2.2751
 3769TIP3   OH232797   6.631   5.709  12.608  0.1331  0.2227 -0.3707
 3769TIP3    H132798   6.553   5.759  12.631  0.5524 -0.0054  1.6217
 3769TIP3    H232799   6.672   5.759  12.537 -2.0413  0.1148 -1.7416
 3770TIP3   OH232800   5.869   6.390  11.056 -0.1767  0.1113  0.1264
 3770TIP3    H132801   5.890   6.310  11.007 -1.8117 -0.6382  0.6051
 3770TIP3    H232802   5.853   6.360  11.145 -2.3863  0.7284 -0.0301
 3771TIP3   OH232803   6.591   1.648   4.028 -0.4056  0.2402 -0.2485
 3771TIP3    H132804   6.603   1.574   4.088  2.2983  1.5316  0.8884
 3771TIP3    H232805   6.577   1.607   3.942  1.7816 -1.6349  0.2326
 3772TIP3   OH232806   4.883   5.221  15.185  0.3324  0.3198 -0.2487
 3772TIP3    H132807   4.903   5.258  15.270 -1.8424 -0.2210  0.5369
 3772TIP3    H232808   4.898   5.127  15.195  0.0312  0.2491 -0.4472
 3773TIP3   OH232809   0.019   1.664  16.614  0.1673  0.3840  0.1409
 3773TIP3    H132810   0.029   1.581  16.662  0.4753 -0.0241 -0.6239
 3773TIP3    H232811   0.058   1.729  16.673 -0.0497 -0.0159  0.7361
 3774TIP3   OH232812   1.148   5.690   2.374 -0.3894  0.1366 -0.1233
 3774TIP3    H132813   1.055   5.686   2.349 -0.5783 -1.5851  0.8195
 3774TIP3    H232814   1.146   5.712   2.467  0.0473 -2.5162  0.5505
 3775TIP3   OH232815   0.571   1.045  12.088  0.2504  0.3309  0.1344
 3775TIP3    H132816   0.617   1.090  12.018 -0.2850 -1.3273 -1.3415
 3775TIP3    H232817   0.594   1.092  12.167  0.7914  2.3108 -1.1767
 3776TIP3   OH232818   5.276   2.937  10.354  0.1506  0.1743 -0.4355
 3776TIP3    H132819   5.182   2.955  10.353 -0.0422 -0.7661 -2.4059
 3776TIP3    H232820   5.286   2.864  10.292  2.2034  0.4119 -0.3948
 3777TIP3   OH232821   6.723   1.502  15.297 -0.3840  0.4806 -0.5183
 3777TIP3    H132822   6.719   1.595  15.277 -0.9222  0.4921 -0.3592
 3777TIP3    H232823   6.813   1.487  15.327 -0.6281  1.1746  0.5799
 3778TIP3   OH232824   1.984   6.029  15.834  0.1124  0.5649  0.3174
 3778TIP3    H132825   1.900   5.993  15.805 -0.2174  0.7187  1.0779
 3778TIP3    H232826   2.001   5.986  15.918  0.6183  0.7977  0.3332
 3779TIP3   OH232827   3.118   3.283  16.689 -0.0101  0.1186 -0.2310
 3779TIP3    H132828   3.101   3.190  16.703  2.0596 -0.2612 -0.2260
 3779TIP3    H232829   3.031   3.324  16.698 -0.6299 -1.5467  1.8137
 3780TIP3   OH232830   3.647   1.466   5.230  0.0307 -0.1293  0.6499
 3780TIP3    H132831   3.710   1.428   5.168  1.0467  1.2988  0.7777
 3780TIP3    H232832   3.669   1.427   5.314 -0.3568 -0.9089  0.3961
 3781TIP3   OH232833   0.145   4.017   2.832 -0.3427  0.3266 -0.5278
 3781TIP3    H132834   0.077   4.038   2.768  0.5315  1.8712 -0.9806
 3781TIP3    H232835   0.097   4.000   2.913 -1.2700  1.5599 -0.7945
 3782TIP3   OH232836   4.991   0.549  14.845  0.6485 -0.2744  0.2574
 3782TIP3    H132837   4.978   0.634  14.886 -3.1946 -0.1127 -1.1119
 3782TIP3    H232838   4.949   0.487  14.904  0.2226 -0.7554 -0.5380
 3783TIP3   OH232839   3.621   1.356   1.010 -0.0163  0.1935 -0.1431
 3783TIP3    H132840   3.570   1.281   0.980 -2.0321  1.0829  0.9571
 3783TIP3    H232841   3.567   1.395   1.080  1.8088  1.6256  0.4965
 3784TIP3   OH232842   4.057   0.040  11.222  0.1248  0.0117  0.3386
 3784TIP3    H132843   4.034   0.030  11.315  0.7016  0.5244  0.5418
 3784TIP3    H232844   4.021   0.125  11.197  1.3009  0.5790  0.5171
 3785TIP3   OH232845   1.275   0.455   0.912 -0.1062  0.0319 -0.1310
 3785TIP3    H132846   1.323   0.374   0.927  0.7476  0.5843  0.1659
 3785TIP3    H232847   1.183   0.430   0.918  0.1140 -1.2152 -1.6472
 3786TIP3   OH232848   6.792   4.563   1.311  0.5036 -0.2191  0.0044
 3786TIP3    H132849   6.808   4.485   1.365  1.9732  1.4665  2.0944
 3786TIP3    H232850   6.880   4.595   1.290 -0.0923  0.6902 -1.1340
 3787TIP3   OH232851   3.702   4.131   1.019 -0.1568  0.3972 -0.1567
 3787TIP3    H132852   3.690   4.041   1.051 -0.9062  0.5739  0.0579
 3787TIP3    H232853   3.709   4.184   1.098 -0.6215  0.6539 -0.2893
 3788TIP3   OH232854   0.436   5.759  11.388 -0.2061  0.4348  0.7204
 3788TIP3    H132855   0.346   5.755  11.355  0.1792  0.1339 -0.3336
 3788TIP3    H232856   0.467   5.669  11.384  0.2112  0.5701  0.8710
 3789TIP3   OH232857   5.463   0.375  14.375  0.0158  0.5348  0.1145
 3789TIP3    H132858   5.493   0.350  14.463  0.6598 -0.2783 -0.3306
 3789TIP3    H232859   5.367   0.380  14.384  0.1188  1.1047  1.0176
 3790TIP3   OH232860   4.184   2.707   1.257 -0.1889  0.1554  0.5573
 3790TIP3    H132861   4.118   2.765   1.295 -1.4074 -2.3432  2.4206
 3790TIP3    H232862   4.143   2.672   1.178  0.6167  1.8787 -0.6702
 3791TIP3   OH232863   0.333   4.982  13.048  0.8172 -0.2510  0.2655
 3791TIP3    H132864   0.334   4.927  12.970 -0.2048  2.5782 -1.8266
 3791TIP3    H232865   0.425   4.995  13.071  1.2803  1.4008 -2.3625
 3792TIP3   OH232866   2.378   5.461   3.269 -0.3386 -0.0956  0.4398
 3792TIP3    H132867   2.459   5.505   3.243  0.6784 -2.1955 -0.0613
 3792TIP3    H232868   2.403   5.405   3.342 -1.3749 -0.5889  0.4271
 3793TIP3   OH232869   2.153   0.990   4.488  0.1264 -0.7674  0.2453
 3793TIP3    H132870   2.080   0.944   4.447  0.3534 -1.0846  0.1932
 3793TIP3    H232871   2.127   1.082   4.487  0.9599 -0.4947 -2.4502
 3794TIP3   OH232872   4.637   2.465  15.959 -0.3276  0.1089  0.4171
 3794TIP3    H132873   4.666   2.471  16.050  0.6875 -0.9846  0.1795
 3794TIP3    H232874   4.636   2.371  15.941  0.6402  0.3738 -1.0779
 3795TIP3   OH232875   1.624   4.661   4.304  0.0933  0.3420 -0.3973
 3795TIP3    H132876   1.671   4.648   4.386  1.1866  0.1023 -1.0614
 3795TIP3    H232877   1.543   4.706   4.330  0.9972  1.3961  0.6525
 3796TIP3   OH232878   6.480   3.985  15.694  0.1980 -0.3314  0.2280
 3796TIP3    H132879   6.497   4.063  15.747 -0.1729 -0.0393 -0.0795
 3796TIP3    H232880   6.455   3.918  15.758  0.3809 -0.1592  0.4806
 3797TIP3   OH232881   0.961   3.486   5.610  0.0680  0.2577 -0.7295
 3797TIP3    H132882   0.976   3.553   5.544  2.9351 -0.9546 -1.4090
 3797TIP3    H232883   1.018   3.414   5.583  2.4847  0.3099  3.8721
 3798TIP3   OH232884   6.565   0.090  14.621 -0.0594 -0.5836 -0.6145
 3798TIP3    H132885   6.630   0.076  14.553 -0.6665 -0.3859 -1.2389
 3798TIP3    H232886   6.484   0.109  14.574 -0.0680  1.4484  0.1882
 3799TIP3   OH232887   2.002   3.928  16.911 -0.5429 -0.2132 -0.1307
 3799TIP3    H132888   2.041   4.002  16.865 -0.7211  0.5059  0.8641
 3799TIP3    H232889   1.970   3.871  16.841  1.3518 -0.3154 -0.9348
 3800TIP3   OH232890   3.697   1.785   0.944 -0.5080  0.0447 -0.3246
 3800TIP3    H132891   3.702   1.855   0.879 -0.3321 -0.0916 -0.4599
 3800TIP3    H232892   3.647   1.716   0.899 -0.6895  0.0884 -0.1886
 3801TIP3   OH232893   5.680   3.642   4.339 -0.1088  0.7166 -0.5733
 3801TIP3    H132894   5.610   3.620   4.277  0.0761  0.5698 -0.7302
 3801TIP3    H232895   5.643   3.621   4.425 -1.4256  3.6215 -0.3699
 3802TIP3   OH232896   3.191   5.148   3.333  0.0936 -0.3608 -0.2285
 3802TIP3    H132897   3.178   5.203   3.256 -1.5000  1.0534  0.9848
 3802TIP3    H232898   3.176   5.059   3.302  0.7626  0.0593 -1.8159
 3803TIP3   OH232899   0.857   4.842  15.344  0.0293 -0.1374 -0.3034
 3803TIP3    H132900   0.938   4.821  15.389  0.3745  0.8399 -0.4468
 3803TIP3    H232901   0.813   4.758  15.331  1.0471 -0.6706 -0.2857
 3804TIP3   OH232902   4.989   3.989  12.693  0.7498  0.0650  0.1958
 3804TIP3    H132903   5.042   3.916  12.726 -0.5867 -1.3344 -0.6933
 3804TIP3    H232904   4.981   3.972  12.599 -0.8698  0.4984  0.2407
 3805TIP3   OH232905   4.086   4.346  14.089 -0.2524  0.6723  0.2671
 3805TIP3    H132906   4.163   4.382  14.133 -1.0078  0.0638  2.1257
 3805TIP3    H232907   4.120   4.270  14.041  0.7612  1.9440 -1.0885
 3806TIP3   OH232908   4.348   1.829   0.377  0.2639  0.1483  0.1761
 3806TIP3    H132909   4.312   1.744   0.352 -2.4596  1.1444  0.5499
 3806TIP3    H232910   4.314   1.890   0.311  0.5672  1.2692  1.0378
 3807TIP3   OH232911   6.072   3.771  11.095  0.3256  0.1870 -0.2639
 3807TIP3    H132912   5.998   3.795  11.150  0.4487 -0.1704  0.0652
 3807TIP3    H232913   6.142   3.830  11.121  0.5009 -0.2372  0.2458
 3808TIP3   OH232914   5.975   5.789  16.139  0.0986 -0.9329  0.4592
 3808TIP3    H132915   6.056   5.825  16.103 -0.7026 -1.1150 -1.6122
 3808TIP3    H232916   5.997   5.699  16.164  0.8453 -0.5870  1.0602
 3809TIP3   OH232917   2.012   3.870   3.723 -0.2103 -0.3507  0.3635
 3809TIP3    H132918   1.963   3.812   3.782  2.9260 -0.5249  2.9206
 3809TIP3    H232919   2.020   3.819   3.642 -0.8067 -1.9305  1.2585
 3810TIP3   OH232920   5.415   5.686   3.373  0.0511 -0.3166  0.2351
 3810TIP3    H132921   5.367   5.756   3.329  0.7926 -0.5695 -1.0214
 3810TIP3    H232922   5.447   5.726   3.454 -0.3248  0.5146 -0.0153
 3811TIP3   OH232923   2.803   2.211   3.411 -0.3050 -0.3605  0.0831
 3811TIP3    H132924   2.712   2.187   3.429 -0.1430 -0.7161  0.4239
 3811TIP3    H232925   2.800   2.249   3.323 -1.1898  2.0181  1.0859
 3812TIP3   OH232926   1.041   5.179   3.983  0.1729 -0.1373 -0.1237
 3812TIP3    H132927   0.955   5.177   4.024  0.6746 -0.4666  0.9276
 3812TIP3    H232928   1.043   5.261   3.933 -0.9282 -0.3723 -0.5537
 3813TIP3   OH232929   0.123   2.678  13.723 -0.1068 -0.5861 -0.2165
 3813TIP3    H132930   0.179   2.600  13.715 -0.5090 -0.7714 -1.2239
 3813TIP3    H232931   0.045   2.646  13.768 -0.1634 -0.7128 -0.4032
 3814TIP3   OH232932   6.392   6.037   0.941  0.2457 -0.0121 -0.3949
 3814TIP3    H132933   6.304   6.015   0.910  0.7140  0.3510 -2.0361
 3814TIP3    H232934   6.450   6.001   0.874  1.4377 -1.4060  1.3215
 3815TIP3   OH232935   2.326   2.665  13.314 -0.3968  0.1145 -0.1966
 3815TIP3    H132936   2.298   2.722  13.242 -3.1125  1.4762  1.8590
 3815TIP3    H232937   2.303   2.577  13.284  1.7110  0.2776 -2.4268
 3816TIP3   OH232938   4.670   6.699  15.053  0.2379 -0.5510  0.0756
 3816TIP3    H132939   4.734   6.682  15.122  1.2319  0.3084 -0.6278
 3816TIP3    H232940   4.586   6.706  15.100  0.8760 -0.1356  1.1756
 3817TIP3   OH232941   1.644   3.174   4.535  0.1935 -0.2335  0.0928
 3817TIP3    H132942   1.691   3.214   4.462  0.2120 -2.2967 -1.0260
 3817TIP3    H232943   1.653   3.238   4.606 -0.4725  2.1441 -1.8820
 3818TIP3   OH232944   4.287   0.337   5.756  0.6750  0.3961  0.0573
 3818TIP3    H132945   4.358   0.395   5.784 -0.7284  1.3670  1.7155
 3818TIP3    H232946   4.214   0.396   5.738 -0.7920 -0.8540  1.7871
 3819TIP3   OH232947   2.770   5.051  11.343  0.0318 -0.3684  0.2955
 3819TIP3    H132948   2.798   5.020  11.429 -0.8047 -1.0225  0.3341
 3819TIP3    H232949   2.679   5.080  11.357  1.0356  2.9512  0.4884
 3820TIP3   OH232950   2.845   2.751  11.232  0.1667  0.2494 -0.7566
 3820TIP3    H132951   2.806   2.663  11.223 -0.4615  0.3122  1.2293
 3820TIP3    H232952   2.851   2.765  11.326 -0.6491  2.7577 -1.0611
 3821TIP3   OH232953   5.429   5.625  17.099  0.0256  0.1827 -0.5897
 3821TIP3    H132954   5.338   5.654  17.098 -0.2727 -0.5905  1.5434
 3821TIP3    H232955   5.469   5.673  17.172  1.2157  0.2235 -1.2620
 3822TIP3   OH232956   0.392   3.609   1.786  0.0163  0.0062  0.4697
 3822TIP3    H132957   0.336   3.588   1.861  1.0998 -0.4323  1.1849
 3822TIP3    H232958   0.447   3.681   1.817  0.2718  0.0130  0.0010
 3823TIP3   OH232959   1.309   5.754   4.748  0.2269 -1.2405  0.6124
 3823TIP3    H132960   1.218   5.779   4.763  0.7910  1.2095  0.1329
 3823TIP3    H232961   1.343   5.733   4.836  0.0635  0.9473  1.2228
 3824TIP3   OH232962   5.895   1.739  10.543 -0.3387  0.1319 -0.9841
 3824TIP3    H132963   5.895   1.824  10.588 -1.1053 -0.9756  1.2003
 3824TIP3    H232964   5.960   1.687  10.589 -0.4704 -0.7455 -1.7646
 3825TIP3   OH232965   1.067   4.414   5.079 -1.1289 -0.6604 -0.1667
 3825TIP3    H132966   1.132   4.444   5.015  0.0361 -0.9699  0.8489
 3825TIP3    H232967   1.118   4.397   5.158 -2.3157 -1.7859  0.3684
 3826TIP3   OH232968   1.309   3.638   4.439  0.3004  0.2142 -0.7288
 3826TIP3    H132969   1.287   3.592   4.520  1.4901  1.0486  0.0747
 3826TIP3    H232970   1.225   3.657   4.399 -0.3261  0.2840  0.5906
 3827TIP3   OH232971   1.523   6.400  14.215  0.4679 -0.1370  0.1778
 3827TIP3    H132972   1.544   6.387  14.308 -2.1993  1.5246  1.0551
 3827TIP3    H232973   1.551   6.319  14.173  1.1449 -1.1743  2.5345
 3828TIP3   OH232974   0.751   0.115   2.868  0.1620 -0.4745  0.2227
 3828TIP3    H132975   0.733   0.199   2.825  0.7065 -0.2684  0.3896
 3828TIP3    H232976   0.671   0.095   2.915 -0.0685 -0.1801 -0.0431
 3829TIP3   OH232977   6.381   5.854  12.281 -0.6680 -0.0021 -0.6875
 3829TIP3    H132978   6.334   5.935  12.263  3.1944  1.9759 -2.6535
 3829TIP3    H232979   6.424   5.833  12.198  0.4829 -2.6121  0.5293
 3830TIP3   OH232980   2.841   5.234  13.656 -0.4611 -0.0834  0.0460
 3830TIP3    H132981   2.912   5.299  13.651 -1.0824  0.5448 -0.6557
 3830TIP3    H232982   2.858   5.175  13.582 -0.3600 -0.2560  0.2066
 3831TIP3   OH232983   6.676   4.838   5.701 -0.2210  0.5860 -0.1550
 3831TIP3    H132984   6.615   4.866   5.769 -2.2231 -2.9884 -0.3464
 3831TIP3    H232985   6.630   4.767   5.656  1.9156  1.4241 -3.8642
 3832TIP3   OH232986   5.990   3.941  14.834  0.6673  0.3964 -0.2753
 3832TIP3    H132987   6.071   3.933  14.885  0.9577  1.1583 -0.6090
 3832TIP3    H232988   5.923   3.904  14.890  1.2969 -0.5248 -0.1131
 3833TIP3   OH232989   5.785   6.323  15.421 -0.0111 -0.4166 -0.5398
 3833TIP3    H132990   5.850   6.347  15.488 -0.8206  1.5740 -0.4209
 3833TIP3    H232991   5.832   6.333  15.338  0.5395 -1.3912 -0.3580
 3834TIP3   OH232992   3.527   4.127   1.738  0.4891 -0.3831  0.2358
 3834TIP3    H132993   3.612   4.100   1.703  2.0230  1.9665  1.9709
 3834TIP3    H232994   3.546   4.157   1.827 -1.8023  2.0608 -0.0406
 3835TIP3   OH232995   3.013   0.873   0.056  0.5727 -0.2887 -0.1464
 3835TIP3    H132996   2.935   0.859   0.110  0.1140 -0.5253 -0.8553
 3835TIP3    H232997   3.065   0.794   0.066  1.0864  0.1734  0.9126
 3836TIP3   OH232998   4.362   6.716  12.291 -0.6571 -0.1221 -0.2810
 3836TIP3    H132999   4.325   6.639  12.247  0.5664  0.0997 -1.7183
 3836TIP3    H233000   4.376   6.687  12.382 -0.3022 -1.5727 -0.7851
 3837TIP3   OH233001   2.366   2.543  16.553 -0.9478  0.3006 -0.2403
 3837TIP3    H133002   2.372   2.637  16.571  0.5589  0.3236 -0.7369
 3837TIP3    H233003   2.421   2.531  16.475  2.1196 -1.5962  2.1094
 3838TIP3   OH233004   4.409   4.667  16.805 -0.6052  0.0346 -0.0765
 3838TIP3    H133005   4.362   4.588  16.780  0.0094 -0.2078 -0.4849
 3838TIP3    H233006   4.350   4.739  16.781 -0.7395 -0.2650 -0.6376
 3839TIP3   OH233007   0.143   4.705  16.299  0.2127  0.1346 -0.3301
 3839TIP3    H133008   0.106   4.744  16.378 -0.4128 -1.6151  0.2657
 3839TIP3    H233009   0.153   4.612  16.321  2.2933  0.0559 -1.4692
 3840TIP3   OH233010   0.739   0.509   1.023 -0.4326 -0.2142  0.5785
 3840TIP3    H133011   0.714   0.419   1.047 -0.1145 -0.0136  1.6890
 3840TIP3    H233012   0.660   0.560   1.039 -0.3311 -0.1377  0.8235
 3841TIP3   OH233013   0.009   1.923   2.836  0.1095  0.0781 -0.2729
 3841TIP3    H133014   0.054   1.867   2.898 -0.4489 -0.4025 -0.2883
 3841TIP3    H233015  -0.033   1.862   2.775 -0.9833  0.4944  0.0480
 3842TIP3   OH233016   3.487   2.443  16.467 -0.8870  0.1632  0.2794
 3842TIP3    H133017   3.400   2.477  16.485 -1.2074  0.2825 -1.4427
 3842TIP3    H233018   3.475   2.385  16.392  0.2969 -0.8184  0.8371
 3843TIP3   OH233019   6.490   3.257  13.071 -0.4034 -0.0588  0.4647
 3843TIP3    H133020   6.484   3.339  13.121 -0.1697 -1.0518  2.1621
 3843TIP3    H233021   6.561   3.271  13.009 -0.3804  1.0330  0.7315
 3844TIP3   OH233022   5.617   1.319  14.988 -0.1740  0.0412  0.5249
 3844TIP3    H133023   5.701   1.273  14.982  0.0761  0.7704 -1.7887
 3844TIP3    H233024   5.640   1.405  15.022 -0.1511 -0.1571  1.0262
 3845TIP3   OH233025   3.382   2.384   3.676 -0.1121  0.5686 -0.1979
 3845TIP3    H133026   3.341   2.421   3.754  0.3275 -0.0285  0.3195
 3845TIP3    H233027   3.435   2.456   3.641 -0.2699  0.8208  0.0823
 3846TIP3   OH233028   5.625   4.500  10.581  0.3869  0.1217 -0.1871
 3846TIP3    H133029   5.689   4.481  10.512  0.6988  2.9140 -0.7505
 3846TIP3    H233030   5.677   4.502  10.661  0.9126  1.6506 -0.5443
 3847TIP3   OH233031   0.873   4.452   6.362  0.4222 -0.4044 -0.4780
 3847TIP3    H133032   0.820   4.521   6.403 -0.9507 -1.5874 -0.2185
 3847TIP3    H233033   0.927   4.419   6.434 -3.1733 -3.6196  0.9392
 3848TIP3   OH233034   2.872   1.495  12.177  0.2168 -0.1501  0.7856
 3848TIP3    H133035   2.824   1.572  12.147  0.4537 -0.4242 -0.3064
 3848TIP3    H233036   2.826   1.468  12.257 -1.4203 -0.3623 -0.2027
 3849TIP3   OH233037   1.120   0.884   6.084 -0.7623  0.1215 -0.1757
 3849TIP3    H133038   1.036   0.873   6.130  0.3125  0.7145  2.0227
 3849TIP3    H233039   1.176   0.816   6.122  0.0228  0.3489 -0.9232
 3850TIP3   OH233040   1.629   6.536  14.930 -0.2444  0.2159  0.1870
 3850TIP3    H133041   1.696   6.598  14.899  1.1145 -1.2294  0.1532
 3850TIP3    H233042   1.582   6.583  14.998 -0.2560  1.8321 -0.8918
 3851TIP3   OH233043   1.892   1.154  14.731 -0.0709  0.1560 -0.3103
 3851TIP3    H133044   1.812   1.200  14.756 -0.2401 -0.4640  0.3112
 3851TIP3    H233045   1.945   1.220  14.688 -0.2547  0.9652  0.6905
 3852TIP3   OH233046   5.314   1.533   5.720 -0.2815 -0.4524  0.2971
 3852TIP3    H133047   5.367   1.555   5.796  1.1922 -1.8702 -0.2932
 3852TIP3    H233048   5.242   1.596   5.722  0.3689  0.2651  2.1965
 3853TIP3   OH233049   1.956   5.034  10.752 -0.5312 -0.3157  0.4645
 3853TIP3    H133050   2.005   5.087  10.815 -1.1832  0.4631  0.3196
 3853TIP3    H233051   2.022   5.007  10.688 -0.0498 -0.3202  0.9529
 3854TIP3   OH233052   0.992   4.395  16.788 -0.6196 -0.2391  0.7162
 3854TIP3    H133053   0.917   4.348  16.752 -0.0466 -0.5595 -0.0752
 3854TIP3    H233054   0.973   4.403  16.882 -2.8655  1.9815  0.1174
 3855TIP3   OH233055   3.556   2.334  10.568  0.5046 -0.0750  0.0053
 3855TIP3    H133056   3.528   2.323  10.659 -0.9588  1.4947 -0.2204
 3855TIP3    H233057   3.552   2.428  10.553  2.7346 -0.1206 -1.0879
 3856TIP3   OH233058   2.129   2.846   0.485  0.2967  0.0742 -0.4353
 3856TIP3    H133059   2.047   2.850   0.435  0.8826  1.9056 -1.2949
 3856TIP3    H233060   2.106   2.795   0.563 -2.4041  2.7202  0.6396
 3857TIP3   OH233061   6.616   5.265   3.963 -0.2593 -0.3099 -0.4488
 3857TIP3    H133062   6.630   5.291   3.872 -0.6315  0.7684 -0.2098
 3857TIP3    H233063   6.560   5.187   3.957  0.4392 -0.7687 -1.1628
 3858TIP3   OH233064   2.557   3.524  15.105  0.5107  0.1710 -0.1587
 3858TIP3    H133065   2.635   3.555  15.151  1.2864 -0.8809 -0.7403
 3858TIP3    H233066   2.512   3.469  15.169 -0.4289  1.7704  0.5922
 3859TIP3   OH233067   3.318   0.705   0.277 -0.1047 -0.4115  0.1376
 3859TIP3    H133068   3.349   0.788   0.242 -0.1371 -0.4030  0.1289
 3859TIP3    H233069   3.254   0.730   0.343 -1.4839 -0.4552 -1.1524
 3860TIP3   OH233070   2.755   2.188   1.659 -0.2228 -0.4071  0.4102
 3860TIP3    H133071   2.845   2.205   1.687 -0.7165  1.5410  0.8985
 3860TIP3    H233072   2.726   2.116   1.715  0.4986  0.0279  1.3678
 3861TIP3   OH233073   1.952   3.632   2.381 -0.1389 -0.0823 -0.2647
 3861TIP3    H133074   2.018   3.700   2.367 -0.8600  0.8010  0.6009
 3861TIP3    H233075   1.928   3.604   2.292  0.2975  0.6584 -0.6212
 3862TIP3   OH233076   2.038   3.149   4.919 -0.0124  0.0254  0.0341
 3862TIP3    H133077   1.991   3.083   4.969  0.6993 -1.1813 -0.8619
 3862TIP3    H233078   2.003   3.232   4.949 -1.7285 -0.8082  0.3582
 3863TIP3   OH233079   3.746   2.576  14.290  0.1575  0.0923  0.1598
 3863TIP3    H133080   3.741   2.651  14.231 -1.3918  0.6814  1.0143
 3863TIP3    H233081   3.740   2.613  14.378 -1.6015 -1.0820  0.5632
 3864TIP3   OH233082   2.685   2.724   4.480 -0.3016 -0.1372  0.0281
 3864TIP3    H133083   2.601   2.701   4.441  0.4506 -3.7048  0.3988
 3864TIP3    H233084   2.668   2.732   4.573  0.0182 -2.3565  0.3035
 3865TIP3   OH233085   5.152   2.579   3.186  0.1171  0.2452 -0.4786
 3865TIP3    H133086   5.173   2.604   3.096 -2.3069  1.4109 -0.7737
 3865TIP3    H233087   5.135   2.663   3.230  1.5860 -0.2931  1.1543
 3866TIP3   OH233088   6.436   6.220   6.045  0.2207 -0.6064  0.0733
 3866TIP3    H133089   6.441   6.244   6.137  1.5988 -2.6801  0.5689
 3866TIP3    H233090   6.343   6.205   6.029 -0.5113  3.5220  0.0998
 3867TIP3   OH233091   0.193   0.299   0.776 -0.3505 -0.1240 -0.1609
 3867TIP3    H133092   0.206   0.280   0.869 -1.4024  0.0981  0.0270
 3867TIP3    H233093   0.233   0.385   0.763  0.5045 -0.4975 -0.0949
 3868TIP3   OH233094   2.402   3.540   1.085 -0.2713  1.0402 -0.0675
 3868TIP3    H133095   2.464   3.511   1.018 -0.7329  0.7679 -0.3833
 3868TIP3    H233096   2.455   3.552   1.164  0.5478  2.7684 -0.8372
 3869TIP3   OH233097   1.401   0.099  11.630 -0.1893 -0.0654  0.1112
 3869TIP3    H133098   1.363   0.184  11.653  0.9912  0.3382  0.6102
 3869TIP3    H233099   1.394   0.095  11.534 -0.5278  0.4544  0.1091
 3870TIP3   OH233100   1.737   3.275   0.719  0.5823 -0.6178 -0.2076
 3870TIP3    H133101   1.729   3.266   0.814  2.9091 -1.9117 -0.0990
 3870TIP3    H233102   1.829   3.296   0.705  0.5227 -1.6456 -2.2544
 3871TIP3   OH233103   2.967   5.826  14.722  0.0818 -0.2922  0.3198
 3871TIP3    H133104   3.060   5.816  14.745  0.0672 -0.1161  0.4544
 3871TIP3    H233105   2.939   5.738  14.698  0.2503 -0.3714  0.4094
 3872TIP3   OH233106   0.566   6.407  12.245 -0.0734 -0.0347 -0.1555
 3872TIP3    H133107   0.548   6.447  12.330  0.8675 -0.9787  0.4976
 3872TIP3    H233108   0.653   6.370  12.254  0.4997  0.8419 -1.9210
 3873TIP3   OH233109   3.872   5.756   2.827 -0.3731 -0.1553 -0.5253
 3873TIP3    H133110   3.941   5.741   2.891  0.1527 -0.0220 -1.0552
 3873TIP3    H233111   3.806   5.806   2.874 -0.8845 -1.7184  0.4737
 3874TIP3   OH233112   2.189   1.136   2.623  0.5646 -0.3215  0.2508
 3874TIP3    H133113   2.217   1.183   2.702  2.6794 -0.0807 -0.5989
 3874TIP3    H233114   2.244   1.057   2.622 -1.5193 -1.7996  0.5608
 3875TIP3   OH233115   1.311   2.235   5.678  0.7741  0.2848 -0.2668
 3875TIP3    H133116   1.309   2.149   5.720  2.3600 -0.1437 -0.9943
 3875TIP3    H233117   1.321   2.297   5.750 -0.2701 -0.1475  0.2576
 3876TIP3   OH233118   2.695   3.379  11.676 -0.6237  0.7641 -0.3640
 3876TIP3    H133119   2.642   3.300  11.684  0.9487 -0.1010  1.8707
 3876TIP3    H233120   2.780   3.349  11.645 -0.1531  1.6272  0.0610
 3877TIP3   OH233121   2.859   3.592   3.104 -0.1656  0.2158  0.0323
 3877TIP3    H133122   2.913   3.670   3.111  0.5714 -0.2907  0.0791
 3877TIP3    H233123   2.921   3.521   3.087 -0.8271 -0.3517 -0.0703
 3878TIP3   OH233124   4.079   2.790   2.745 -0.0804  0.2522 -0.0580
 3878TIP3    H133125   4.163   2.767   2.784  0.0844  2.4430  0.9490
 3878TIP3    H233126   4.015   2.776   2.814  0.1602  3.7401  0.9586
 3879TIP3   OH233127   0.359   1.940  14.791 -0.1197 -0.4807  0.7003
 3879TIP3    H133128   0.361   1.915  14.698 -0.0272 -1.6287  1.0017
 3879TIP3    H233129   0.413   2.019  14.796 -1.1552  0.3007 -0.4324
 3880TIP3   OH233130   2.058   5.194   4.246  0.2779  0.8037 -0.1288
 3880TIP3    H133131   2.046   5.107   4.284 -0.1028  0.8664 -0.1126
 3880TIP3    H233132   2.057   5.179   4.151  1.0608  0.6720 -0.1252
 3881TIP3   OH233133   2.948   3.306   1.068  0.7145  0.2483  0.7119
 3881TIP3    H133134   3.037   3.305   1.031  0.8789 -0.3666  1.1223
 3881TIP3    H233135   2.891   3.297   0.992  1.0230 -0.0139  0.5078
 3882TIP3   OH233136   1.448   6.506   1.289  0.3061 -0.2364  0.3939
 3882TIP3    H133137   1.389   6.432   1.306 -0.6335  0.4468  0.1155
 3882TIP3    H233138   1.528   6.484   1.338  1.2742 -3.0047 -2.2471
 3883TIP3   OH233139   5.075   3.266  12.654  0.4269  0.1207  0.1447
 3883TIP3    H133140   5.046   3.356  12.640 -0.3169  0.0085  0.9562
 3883TIP3    H233141   5.045   3.244  12.742  1.8666 -0.4268  0.5156
 3884TIP3   OH233142   2.738   6.306   5.081  0.2154 -0.1212  0.1522
 3884TIP3    H133143   2.767   6.218   5.105 -1.8874 -0.2713  2.4112
 3884TIP3    H233144   2.644   6.296   5.066 -0.0227  1.7188  0.3716
 3885TIP3   OH233145   3.745   1.410   1.339  0.0093 -0.0442 -0.4995
 3885TIP3    H133146   3.731   1.467   1.264  1.9360 -2.2570 -2.6693
 3885TIP3    H233147   3.678   1.342   1.331  0.6705 -0.6915 -0.6861
 3886TIP3   OH233148   3.956   1.336   5.576  0.3729 -0.4419  0.1036
 3886TIP3    H133149   4.039   1.289   5.574  0.9388  0.5278  0.4507
 3886TIP3    H233150   3.945   1.361   5.668  0.8074  1.3708 -0.3107
 3887TIP3   OH233151   6.347   6.683   1.043  0.5305 -0.7737 -0.3898
 3887TIP3    H133152   6.327   6.701   1.134 -0.1473 -1.1026 -0.4699
 3887TIP3    H233153   6.270   6.714   0.995  1.1929  0.0810 -0.9186
 3888TIP3   OH233154   4.894   6.228   5.494 -0.2812 -0.6621 -0.1339
 3888TIP3    H133155   4.825   6.203   5.432  0.7986 -1.5323 -1.0077
 3888TIP3    H233156   4.933   6.306   5.455 -0.7199 -0.2078  0.3281
 3889TIP3   OH233157   5.921   2.126  13.321 -0.0877  0.4829  0.2612
 3889TIP3    H133158   6.000   2.152  13.273  0.6458 -0.3256  1.0077
 3889TIP3    H233159   5.927   2.171  13.405 -0.6557  0.7769  0.1469
 3890TIP3   OH233160   4.154   4.732   5.296  0.0026 -0.3008  0.1942
 3890TIP3    H133161   4.135   4.749   5.388 -0.7094  1.7546 -0.2970
 3890TIP3    H233162   4.234   4.782   5.278 -0.3649  0.0526 -0.5080
 3891TIP3   OH233163   6.643   1.583   0.693  0.2847 -0.4571  0.5533
 3891TIP3    H133164   6.733   1.555   0.677  0.7380 -0.3915  2.9024
 3891TIP3    H233165   6.595   1.502   0.711  0.0668 -0.3918  0.2809
 3892TIP3   OH233166   0.659   3.454  14.221 -0.2659 -0.2634  0.1592
 3892TIP3    H133167   0.740   3.491  14.186 -1.5758  1.8464 -0.8086
 3892TIP3    H233168   0.619   3.408  14.147  1.1691 -3.4149  1.2641
 3893TIP3   OH233169   1.014   1.909  17.146  0.1886 -0.0539  0.4085
 3893TIP3    H133170   0.924   1.920  17.176  0.2390 -1.0592  0.9711
 3893TIP3    H233171   1.055   1.994  17.160 -0.1180 -0.1683  2.1045
 3894TIP3   OH233172   4.008   5.085  11.186 -0.6547 -0.0222  0.2489
 3894TIP3    H133173   4.047   5.007  11.224  0.8961 -0.2462 -1.6924
 3894TIP3    H233174   3.985   5.140  11.261 -0.5077 -1.7553  1.5730
 3895TIP3   OH233175   5.498   6.209  13.639 -0.2016 -0.2080 -0.2853
 3895TIP3    H133176   5.493   6.193  13.545 -1.5923  0.2809 -0.3111
 3895TIP3    H233177   5.419   6.260  13.659  1.2694  1.7169  0.7509
 3896TIP3   OH233178   2.755   5.830  14.514  0.3392  0.6532  0.0980
 3896TIP3    H133179   2.802   5.886  14.576  2.5399  0.6411 -1.5107
 3896TIP3    H233180   2.749   5.746  14.559  3.2390  0.2104 -0.2300
 3897TIP3   OH233181   3.092   6.265  10.734 -0.2284  0.1498 -0.3695
 3897TIP3    H133182   3.053   6.349  10.757  2.0777  1.5727 -1.5355
 3897TIP3    H233183   3.119   6.275  10.643  0.7024 -1.6343 -0.3133
 3898TIP3   OH233184   2.835   6.748   2.665 -0.1818 -0.2821  0.3839
 3898TIP3    H133185   2.852   6.696   2.586 -2.8032  0.0383 -0.4487
 3898TIP3    H233186   2.827   6.838   2.633  2.6351  0.4300  1.5878
 3899TIP3   OH233187   1.028   0.426   2.854  0.2745  0.2301  0.1546
 3899TIP3    H133188   0.946   0.451   2.812  0.5275 -0.5078 -0.8001
 3899TIP3    H233189   1.013   0.337   2.886  0.0179  0.8569  1.8271
 3900TIP3   OH233190   6.551   0.915  12.266 -0.2552  0.0539 -0.3041
 3900TIP3    H133191   6.580   0.857  12.336  1.3452  2.7288  1.3092
 3900TIP3    H233192   6.627   0.923  12.208 -0.1732  1.1944 -0.0579
 3901TIP3   OH233193   6.128   0.389   2.932 -0.2106 -0.0376  0.4607
 3901TIP3    H133194   6.040   0.354   2.920 -0.3853  0.5136  0.1157
 3901TIP3    H233195   6.121   0.481   2.904  1.0306 -0.6011 -1.8508
 3902TIP3   OH233196   0.254   6.249  12.360 -0.4815  0.2267 -0.6994
 3902TIP3    H133197   0.246   6.344  12.350  3.1093  0.7246  0.6315
 3902TIP3    H233198   0.282   6.218  12.274  0.7906  0.7138 -0.4700
 3903TIP3   OH233199   3.938   4.511   5.898 -0.2103 -0.3462  0.0600
 3903TIP3    H133200   3.907   4.479   5.983 -0.7374  1.2944  0.5015
 3903TIP3    H233201   3.906   4.601   5.893  1.4505  0.2109 -1.0491
 3904TIP3   OH233202   4.176   5.942   5.767 -0.4134  0.1035 -0.0722
 3904TIP3    H133203   4.249   5.985   5.811 -1.3142  1.3043  0.2975
 3904TIP3    H233204   4.181   5.975   5.676 -0.6967  0.4724  0.0422
 3905TIP3   OH233205   4.154   6.399   0.669  0.1283 -0.2432 -0.2774
 3905TIP3    H133206   4.062   6.419   0.689 -0.0673 -0.4190 -0.9692
 3905TIP3    H233207   4.151   6.312   0.630  0.7368 -0.7655  0.8251
 3906TIP3   OH233208   3.102   4.678   5.163 -0.1722  0.3430  1.0650
 3906TIP3    H133209   3.062   4.758   5.197 -2.2039 -0.7097  1.2433
 3906TIP3    H233210   3.029   4.617   5.152  0.9356 -0.5657 -1.7577
 3907TIP3   OH233211   3.141   5.829  11.200  0.1178  0.7165 -0.5732
 3907TIP3    H133212   3.115   5.763  11.264  1.1910  0.9062  0.0814
 3907TIP3    H233213   3.136   5.912  11.249 -0.9407  1.0853 -1.3032
 3908TIP3   OH233214   0.758   0.254  12.737  0.2055  0.1396 -0.5436
 3908TIP3    H133215   0.670   0.258  12.700 -0.3588 -3.1870  0.2495
 3908TIP3    H233216   0.746   0.270  12.830  0.6497  1.0905 -0.6403
 3909TIP3   OH233217   0.500   3.386   4.026 -0.0150  0.1531 -0.3103
 3909TIP3    H133218   0.532   3.362   4.113  0.8150 -0.8241 -0.8769
 3909TIP3    H233219   0.568   3.356   3.966 -1.9152 -1.8644 -1.5350
 3910TIP3   OH233220   0.770   1.148  16.113  0.3177 -0.1406 -1.1041
 3910TIP3    H133221   0.747   1.120  16.202 -0.2801 -1.1408 -1.5729
 3910TIP3    H233222   0.860   1.179  16.121  1.0406 -2.2891 -0.5886
 3911TIP3   OH233223   2.242   2.215   3.001 -0.0957  0.4424  0.4125
 3911TIP3    H133224   2.165   2.160   2.983  0.2323  0.0552  0.1853
 3911TIP3    H233225   2.302   2.197   2.929  0.1280  0.8943  0.4868
 3912TIP3   OH233226   6.297   3.758  17.283 -0.1129 -0.1557  0.4799
 3912TIP3    H133227   6.229   3.822  17.304 -0.4184 -0.5874  0.8126
 3912TIP3    H233228   6.297   3.697  17.357 -0.2139 -0.8679 -0.1000
 3913TIP3   OH233229   2.503   6.150   3.538 -0.4869 -0.0350  0.1815
 3913TIP3    H133230   2.490   6.082   3.605  0.5364  1.7141  2.2138
 3913TIP3    H233231   2.598   6.163   3.535 -0.7700  2.6179  1.1968
 3914TIP3   OH233232   2.802   5.275   5.717  0.6694 -0.3663  0.3251
 3914TIP3    H133233   2.864   5.309   5.781  0.6275 -3.3562  2.0405
 3914TIP3    H233234   2.753   5.352   5.688  0.1815  1.0082  4.4493
 3915TIP3   OH233235   1.200   4.388   1.845 -0.4146 -0.5604 -0.0251
 3915TIP3    H133236   1.282   4.338   1.842 -0.1025 -0.0091 -3.9926
 3915TIP3    H233237   1.227   4.477   1.868 -0.1273 -0.7367  0.3337
 3916TIP3   OH233238   2.720   3.139   0.987 -0.7514 -0.2400 -0.5672
 3916TIP3    H133239   2.742   3.222   1.030  0.4765  0.2515 -2.1357
 3916TIP3    H233240   2.697   3.164   0.898 -1.4381 -1.4829 -0.7400
 3917TIP3   OH233241   2.766   3.761   2.128  0.7918  0.0039 -0.8437
 3917TIP3    H133242   2.731   3.841   2.089 -1.7994 -0.9277 -0.5643
 3917TIP3    H233243   2.709   3.692   2.094  0.6258 -1.2381  1.8351
 3918TIP3   OH233244   3.720   2.020   2.507 -0.4598  0.1303  0.0962
 3918TIP3    H133245   3.661   1.970   2.450 -0.8155  1.5871 -0.8300
 3918TIP3    H233246   3.696   2.111   2.493  2.1196  0.7894 -0.4378
 3919TIP3   OH233247   5.473   2.034   1.023 -0.3699  0.2637  0.0852
 3919TIP3    H133248   5.388   1.990   1.035  0.7547 -2.0403 -0.1110
 3919TIP3    H233249   5.508   2.043   1.111 -0.2732  0.0847  0.0659
 3920TIP3   OH233250   5.519   5.553   5.694 -0.5440  0.3545 -0.2222
 3920TIP3    H133251   5.512   5.575   5.786  2.1382  0.3338  0.0358
 3920TIP3    H233252   5.564   5.627   5.654  1.6280 -1.2047 -0.7862
 3921TIP3   OH233253   1.349   0.939   2.215 -0.4829  0.0418  0.3266
 3921TIP3    H133254   1.344   0.950   2.120  3.2253  0.0006  0.0487
 3921TIP3    H233255   1.345   0.844   2.229 -0.1898  0.0047  0.1514
 3922TIP3   OH233256   4.325   3.644   1.410  0.3299 -0.3784  0.2416
 3922TIP3    H133257   4.255   3.674   1.352  2.1298  1.6307 -0.9552
 3922TIP3    H233258   4.279   3.605   1.484 -2.0357 -0.5394 -1.2435
 3923TIP3   OH233259   3.829   1.923   2.087 -0.3534 -0.1775  0.2476
 3923TIP3    H133260   3.884   1.986   2.133  1.4960 -0.9460 -0.8501
 3923TIP3    H233261   3.865   1.837   2.111 -0.8799 -0.6786 -0.7139
 3924TIP3   OH233262   3.894   6.491  16.443  0.6322 -0.7036 -0.6913
 3924TIP3    H133263   3.982   6.498  16.406  0.6455  0.1014 -0.5086
 3924TIP3    H233264   3.855   6.577  16.429 -0.3087 -1.2137 -1.2174
 3925TIP3   OH233265   3.268   1.806   0.751 -0.1642 -0.4669  0.0639
 3925TIP3    H133266   3.289   1.882   0.696  0.5480 -0.7897 -0.1222
 3925TIP3    H233267   3.189   1.832   0.798  0.3615  0.5872  0.3844
 3926TIP3   OH233268   0.677   1.157  15.856  0.0792  0.1341 -0.3964
 3926TIP3    H133269   0.630   1.088  15.809  0.8165 -0.3041 -0.4868
 3926TIP3    H233270   0.690   1.122  15.944 -2.0205  1.2729  0.4094
 3927TIP3   OH233271   1.963   4.508  12.822  0.4784  0.1128 -0.1749
 3927TIP3    H133272   1.868   4.515  12.815  0.4208  0.8325  1.2268
 3927TIP3    H233273   1.978   4.439  12.887  0.9162 -0.0220 -0.4135
 3928TIP3   OH233274   6.531   4.742  11.492  0.0751  0.2263  0.7424
 3928TIP3    H133275   6.606   4.726  11.549 -0.3450  0.8906  1.4896
 3928TIP3    H233276   6.560   4.712  11.406  0.3621 -1.7407  1.4814
 3929TIP3   OH233277   1.171   3.868   0.723 -0.2396  0.1096  0.0617
 3929TIP3    H133278   1.135   3.879   0.635  0.7163 -0.0532 -0.3581
 3929TIP3    H233279   1.249   3.923   0.724  0.6354 -1.1160  0.2815
 3930TIP3   OH233280   1.671   1.178   3.967  0.0037  0.2746  0.6635
 3930TIP3    H133281   1.675   1.089   4.000  0.9803  0.3839  0.8772
 3930TIP3    H233282   1.578   1.195   3.951 -0.5367  0.2679  3.5244
 3931TIP3   OH233283   0.903   2.282  16.005 -0.0571  0.2030 -0.0191
 3931TIP3    H133284   0.857   2.198  16.000  0.8120 -0.2974  0.2143
 3931TIP3    H233285   0.834   2.347  16.016 -0.7950 -0.3859 -1.1496
 3932TIP3   OH233286   6.626   2.779   3.434  0.9504  0.0823  0.4011
 3932TIP3    H133287   6.640   2.839   3.361  0.7523  0.3389  0.5717
 3932TIP3    H233288   6.616   2.836   3.510 -0.7605 -0.0934  0.3273
 3933TIP3   OH233289   0.897   3.521  14.084  0.2344 -0.0893  0.5135
 3933TIP3    H133290   0.898   3.596  14.143  1.6694  1.4177 -1.3581
 3933TIP3    H233291   0.983   3.481  14.094  0.9887  0.9502 -1.4465
 3934TIP3   OH233292   3.563   6.223   3.377 -0.5672 -0.4394 -0.5382
 3934TIP3    H133293   3.610   6.203   3.295 -1.1678 -0.3808 -0.9007
 3934TIP3    H233294   3.609   6.299   3.412  0.3605 -1.1177 -0.2733
 3935TIP3   OH233295   2.910   1.184  10.883  0.0525  0.1063 -0.5632
 3935TIP3    H133296   2.961   1.141  10.952  0.4217 -2.9222 -2.6321
 3935TIP3    H233297   2.846   1.237  10.931  1.5520 -0.3786  2.0906
 3936TIP3   OH233298   3.705   1.294   5.469  0.2250  0.3551 -0.2666
 3936TIP3    H133299   3.793   1.288   5.505  0.6460 -0.9375 -1.4561
 3936TIP3    H233300   3.687   1.206   5.435 -1.6975  0.4712  0.3765
 3937TIP3   OH233301   1.485   2.210   4.724 -0.0394  0.1799  1.1404
 3937TIP3    H133302   1.525   2.296   4.736  0.5878 -0.0770  0.9313
 3937TIP3    H233303   1.551   2.159   4.677 -1.2699  0.2311 -0.6574
 3938TIP3   OH233304   3.890   1.915   4.743  0.0722  0.2961 -0.1703
 3938TIP3    H133305   3.976   1.935   4.779  0.2990 -0.0647 -0.5123
 3938TIP3    H233306   3.831   1.923   4.818  0.5840 -0.6978  0.3444
 3939TIP3   OH233307   5.469   5.414   3.791  0.0881 -0.0375 -0.0392
 3939TIP3    H133308   5.429   5.356   3.855 -0.6727  0.4808 -0.0366
 3939TIP3    H233309   5.477   5.498   3.837  3.4951 -0.7461  0.8236
 3940TIP3   OH233310   0.851   0.860  16.556 -0.2257 -0.3877 -0.2809
 3940TIP3    H133311   0.850   0.893  16.466 -0.1335  2.5878  0.7776
 3940TIP3    H233312   0.759   0.859  16.583 -0.0600  0.8506  0.3409
 3941TIP3   OH233313   0.075   0.165   6.127  0.5330  0.0524  0.0851
 3941TIP3    H133314   0.071   0.112   6.048  2.3591  1.0441 -0.6902
 3941TIP3    H233315   0.155   0.136   6.172 -0.9233 -1.1007  2.0201
 3942TIP3   OH233316   0.679   0.317  11.827  0.0690  0.2755  0.8843
 3942TIP3    H133317   0.608   0.339  11.766 -1.2891  0.0737  2.3528
 3942TIP3    H233318   0.688   0.222  11.820  2.2011  0.5985 -1.4245
 3943TIP3   OH233319   6.583   2.416   3.825 -0.4289  0.4577 -0.0385
 3943TIP3    H133320   6.653   2.451   3.770 -0.9416  1.3934 -0.1062
 3943TIP3    H233321   6.580   2.474   3.901 -1.4225  0.6927 -0.2431
 3944TIP3   OH233322   3.311   2.978   0.283 -0.3009 -0.1432  0.0637
 3944TIP3    H133323   3.371   3.041   0.322  0.6423 -1.2511  0.4705
 3944TIP3    H233324   3.360   2.941   0.209 -0.5979 -0.8158  0.1911
 3945TIP3   OH233325   0.240   6.617  12.997  0.2667 -0.4629  0.1060
 3945TIP3    H133326   0.316   6.625  13.054  0.8747 -2.7654 -0.3283
 3945TIP3    H233327   0.166   6.604  13.056  0.1906  1.5917  0.5198
 3946TIP3   OH233328   0.778   2.724   0.588 -0.2902  0.5335 -0.1955
 3946TIP3    H133329   0.812   2.752   0.503  1.3228  0.8576  0.5360
 3946TIP3    H233330   0.774   2.804   0.640  0.1493  0.1102  0.5056
 3947TIP3   OH233331   5.080   4.865  13.215 -0.4613  0.1659 -0.0944
 3947TIP3    H133332   5.001   4.902  13.176 -1.2653  0.5709  1.9180
 3947TIP3    H233333   5.100   4.922  13.289  0.6916 -0.9760  0.4933
 3948TIP3   OH233334   3.833   2.380   0.330  0.2252 -0.2130 -0.0973
 3948TIP3    H133335   3.906   2.421   0.376  0.6089 -1.6759  0.6294
 3948TIP3    H233336   3.809   2.305   0.385 -0.4171 -1.0108 -1.4394
 3949TIP3   OH233337   1.961   5.961  12.471 -0.8546  0.1784  0.4325
 3949TIP3    H133338   1.867   5.981  12.466 -0.9717 -0.3772  0.4210
 3949TIP3    H233339   1.977   5.951  12.565 -0.9665 -0.4941  0.3804
 3950TIP3   OH233340   4.635   4.112   0.378  0.0786 -0.0486 -0.3154
 3950TIP3    H133341   4.572   4.060   0.428  0.9632 -0.8907 -0.0689
 3950TIP3    H233342   4.592   4.130   0.295 -1.2212  0.9530  0.5484
 3951TIP3   OH233343   3.204   0.381  15.269 -0.2006 -0.3405  0.0789
 3951TIP3    H133344   3.258   0.436  15.213  3.6617 -2.7666  1.1613
 3951TIP3    H233345   3.203   0.296  15.226 -0.5864 -1.1552  1.6354
 3952TIP3   OH233346   2.012   5.173  11.129 -0.2897  0.3405  0.0120
 3952TIP3    H133347   1.941   5.117  11.161 -0.4220 -0.7045 -2.0699
 3952TIP3    H233348   2.084   5.158  11.190  0.0737 -3.0059 -1.1402
 3953TIP3   OH233349   6.242   4.667   4.555  0.1286 -0.0076 -0.5104
 3953TIP3    H133350   6.285   4.718   4.624 -0.8600  0.7286 -0.4130
 3953TIP3    H233351   6.251   4.576   4.583  1.3703  0.1538 -0.3624
 3954TIP3   OH233352   4.736   2.381   0.886 -0.0585 -0.0072 -0.0562
 3954TIP3    H133353   4.767   2.318   0.950  0.1668 -0.5474 -0.6872
 3954TIP3    H233354   4.725   2.331   0.805 -0.2305  0.6804 -0.4728
 3955TIP3   OH233355   0.778   6.194   4.503  0.0615  0.2568 -0.6732
 3955TIP3    H133356   0.718   6.256   4.543 -0.1329 -0.0597 -0.4747
 3955TIP3    H233357   0.787   6.123   4.567  0.7758  0.3776 -0.6292
 3956TIP3   OH233358   1.369   2.995  12.163 -0.6365  0.5135  0.1954
 3956TIP3    H133359   1.299   3.017  12.225 -1.5434  0.0561 -0.6519
 3956TIP3    H233360   1.406   2.914  12.197  0.7525  1.7173  1.6829
 3957TIP3   OH233361   6.249   6.325  12.189  0.4212 -0.2719  0.2877
 3957TIP3    H133362   6.259   6.360  12.101  1.8470  0.8010  0.8531
 3957TIP3    H233363   6.190   6.386  12.233 -0.7639 -1.1311 -0.0853
 3958TIP3   OH233364   4.776   0.265  12.111  0.1871 -0.0905  0.2656
 3958TIP3    H133365   4.816   0.306  12.035  2.4636 -1.0423  0.9247
 3958TIP3    H233366   4.685   0.248  12.084  0.9209 -0.2821 -2.1744
 3959TIP3   OH233367   1.265   6.583   0.683  0.4687 -0.2171 -0.6712
 3959TIP3    H133368   1.232   6.634   0.609 -0.8669  1.7737  1.2514
 3959TIP3    H233369   1.352   6.620   0.699  0.8427 -0.7872 -1.3634
 3960TIP3   OH233370   6.484   1.885   2.110 -0.8668  0.0263  0.0330
 3960TIP3    H133371   6.468   1.931   2.193 -0.3427  0.3882 -0.0619
 3960TIP3    H233372   6.526   1.804   2.137  0.1668  0.5638  0.0694
 3961TIP3   OH233373   3.207   3.347  11.921 -0.0289  0.1274  0.4624
 3961TIP3    H133374   3.201   3.395  11.838  0.5978  0.3381  0.5341
 3961TIP3    H233375   3.251   3.409  11.980  1.8639 -0.9560  0.2332
 3962TIP3   OH233376   5.942   0.170   4.293 -0.4278  0.0362  0.1806
 3962TIP3    H133377   5.996   0.116   4.350  0.9060  3.4597  2.3235
 3962TIP3    H233378   5.865   0.193   4.346  0.0771  1.9855  0.1287
 3963TIP3   OH233379   4.566   4.031   0.784 -0.3145  0.0527 -0.1661
 3963TIP3    H133380   4.531   4.033   0.695 -0.3035  0.4014 -0.1625
 3963TIP3    H233381   4.623   4.107   0.789  0.6846 -0.6771 -0.2723
 3964TIP3   OH233382   0.865   3.809  15.849 -0.1929 -0.3569  0.0816
 3964TIP3    H133383   0.854   3.739  15.784  2.5119 -0.6273 -0.1411
 3964TIP3    H233384   0.919   3.769  15.917 -1.4474  0.5151  1.6050
 3965TIP3   OH233385   6.548   2.793  13.708 -0.5525 -0.0733 -0.0598
 3965TIP3    H133386   6.543   2.777  13.613 -0.2207  1.3542 -0.3211
 3965TIP3    H233387   6.457   2.808  13.734 -0.5727  0.1778 -0.2725
 3966TIP3   OH233388   1.904   2.874  16.838  0.3711  0.4894 -0.7122
 3966TIP3    H133389   1.950   2.790  16.842  0.0169  0.3099 -0.3260
 3966TIP3    H233390   1.883   2.886  16.745  0.9445  0.4350 -0.8479
 3967TIP3   OH233391   5.273   0.936   0.181 -0.6404  0.5244  0.0773
 3967TIP3    H133392   5.210   1.007   0.189 -1.3963 -0.2867  1.4166
 3967TIP3    H233393   5.261   0.884   0.260 -0.5659 -1.4720 -1.1859
 3968TIP3   OH233394   4.470   0.951  10.770  0.3752  0.3164  0.0686
 3968TIP3    H133395   4.472   0.885  10.702  0.0495 -0.0387  0.4014
 3968TIP3    H233396   4.468   1.035  10.723 -1.5061  0.0416 -0.3961
 3969TIP3   OH233397   2.572   0.955  17.199  0.3031 -0.1293 -0.8758
 3969TIP3    H133398   2.608   0.866  17.203  0.3664 -0.0473  1.1675
 3969TIP3    H233399   2.649   1.011  17.183  0.3445 -0.4036 -1.6175
 3970TIP3   OH233400   0.387   4.034  10.457  0.0836  0.2406 -0.6871
 3970TIP3    H133401   0.365   3.950  10.416  0.5527  0.0046 -0.4654
 3970TIP3    H233402   0.433   4.009  10.537  1.3651  0.7208 -1.2586
 3971TIP3   OH233403   5.309   5.642  15.062 -0.1937 -0.7496  0.9183
 3971TIP3    H133404   5.226   5.617  15.102 -0.3345 -0.0898  1.0584
 3971TIP3    H233405   5.355   5.690  15.131  0.2259 -0.9577  0.7819
 3972TIP3   OH233406   1.829   2.947  10.486 -1.1875  0.0856  0.0285
 3972TIP3    H133407   1.866   2.956  10.574 -1.2579  0.6440  0.0018
 3972TIP3    H233408   1.742   2.987  10.493 -2.2664 -2.2408  0.3961
 3973TIP3   OH233409   4.452   3.756   5.677 -0.0803  0.4205 -0.2731
 3973TIP3    H133410   4.543   3.749   5.704 -0.3174  0.5356  0.5942
 3973TIP3    H233411   4.422   3.838   5.717 -0.4428  0.5909 -0.8994
 3974TIP3   OH233412   3.567   4.751   1.865 -0.7772  0.3120 -0.7271
 3974TIP3    H133413   3.655   4.766   1.898 -0.8565  0.3609 -0.5308
 3974TIP3    H233414   3.548   4.660   1.887 -1.6629  0.9643  1.3814
 3975TIP3   OH233415   2.837   6.807   6.052 -0.2031 -0.0601  0.3096
 3975TIP3    H133416   2.792   6.891   6.061  0.2890  0.4990 -2.2426
 3975TIP3    H233417   2.927   6.826   6.080 -0.2311  0.1338  0.2730
 3976TIP3   OH233418   6.574   1.329  14.837  0.2925 -0.3539  0.2843
 3976TIP3    H133419   6.563   1.339  14.931 -1.9488  1.0258 -0.0872
 3976TIP3    H233420   6.594   1.237  14.824  1.2175 -0.4310  2.1563
 3977TIP3   OH233421   4.774   6.586  15.670  0.1806  0.3269  0.8234
 3977TIP3    H133422   4.747   6.671  15.634 -1.1689  0.1246  1.3340
 3977TIP3    H233423   4.825   6.546  15.600 -1.1373  0.5885 -0.3198
 3978TIP3   OH233424   3.445   0.936   0.185 -0.4558 -0.0920 -0.0824
 3978TIP3    H133425   3.467   1.010   0.127 -0.2662  0.5316  0.7772
 3978TIP3    H233426   3.510   0.940   0.254 -1.0074 -0.5206  0.4644
 3979TIP3   OH233427   6.740   2.591  14.942  0.2276 -0.2852 -0.0017
 3979TIP3    H133428   6.724   2.644  14.864  1.6931 -0.3204 -0.3419
 3979TIP3    H233429   6.695   2.508  14.923 -0.4317  0.1260 -0.2843
 3980TIP3   OH233430   5.037   3.269   1.275  0.2630 -0.2957 -0.8000
 3980TIP3    H133431   5.074   3.208   1.338  0.5864 -0.1464 -0.8448
 3980TIP3    H233432   4.942   3.258   1.284  0.3081 -0.2682 -0.2872
 3981TIP3   OH233433   2.780   2.139  11.762 -0.0441  0.7750 -0.1427
 3981TIP3    H133434   2.856   2.088  11.790 -1.4383 -0.4380  1.5027
 3981TIP3    H233435   2.727   2.077  11.712 -1.7823  0.5626  1.9286
 3982TIP3   OH233436   0.835   4.297  15.681  0.4892  0.1230 -0.0911
 3982TIP3    H133437   0.831   4.387  15.647  0.6076  0.5166  0.9139
 3982TIP3    H233438   0.911   4.297  15.740 -0.1068 -0.3639  0.6872
 3983TIP3   OH233439   3.779   4.689   2.743  0.1907 -0.0282  0.0002
 3983TIP3    H133440   3.783   4.637   2.823  0.1298  0.4054  0.2853
 3983TIP3    H233441   3.861   4.739   2.742 -1.3072  2.5698  1.5722
 3984TIP3   OH233442   3.785   5.281  16.227  0.3129 -0.7222 -0.3117
 3984TIP3    H133443   3.765   5.308  16.317 -0.8452  0.7841 -1.0006
 3984TIP3    H233444   3.707   5.303  16.177  1.3407 -0.5617 -1.9026
 3985TIP3   OH233445   3.581   2.694  11.121 -0.2891  0.0249 -0.1463
 3985TIP3    H133446   3.529   2.701  11.042 -0.9350  0.1918  0.2901
 3985TIP3    H233447   3.640   2.620  11.105  1.6749  1.9111 -1.9820
 3986TIP3   OH233448   1.632   5.911   3.870 -0.2899 -0.4379 -0.2130
 3986TIP3    H133449   1.630   5.828   3.822  1.6161  0.1297 -1.3409
 3986TIP3    H233450   1.541   5.925   3.897 -0.6773 -2.7702 -0.1883
 3987TIP3   OH233451   0.936   6.201   2.042 -0.3236 -0.1401  0.6592
 3987TIP3    H133452   0.883   6.264   2.090 -1.9429 -0.9552 -0.0125
 3987TIP3    H233453   0.889   6.118   2.053  0.9908 -0.9373  0.3201
 3988TIP3   OH233454   0.454   0.163   4.865  0.2784  0.4561 -0.0148
 3988TIP3    H133455   0.430   0.245   4.908 -0.6295 -0.8279  2.0016
 3988TIP3    H233456   0.375   0.137   4.817  1.1304  1.6337 -2.0871
 3989TIP3   OH233457   1.932   4.329  12.440 -0.2387 -0.0769  0.2201
 3989TIP3    H133458   1.926   4.256  12.378 -0.6918  0.9356 -0.9467
 3989TIP3    H233459   1.841   4.351  12.461 -0.1518  1.0648 -0.5442
 3990TIP3   OH233460   5.869   0.864   4.178  0.5324 -0.0427 -0.2354
 3990TIP3    H133461   5.832   0.884   4.092  0.8414  0.1372 -0.3276
 3990TIP3    H233462   5.801   0.813   4.222 -0.2332  1.1028 -0.0440
 3991TIP3   OH233463   5.527   1.130   2.860 -0.4871 -0.6548 -0.2341
 3991TIP3    H133464   5.478   1.048   2.856 -1.3402 -0.0974 -1.2836
 3991TIP3    H233465   5.510   1.164   2.948 -1.0840 -1.0022 -0.2140
 3992TIP3   OH233466   4.172   3.191   0.046 -0.3415  0.6883  0.1589
 3992TIP3    H133467   4.160   3.249   0.121  0.9739 -1.1194  1.8401
 3992TIP3    H233468   4.099   3.129   0.050 -0.9192  1.2955 -0.7585
 3993TIP3   OH233469   5.194   5.851  16.613 -0.0565  0.0893 -0.8404
 3993TIP3    H133470   5.247   5.920  16.573  1.0636 -0.4391 -0.3061
 3993TIP3    H233471   5.237   5.833  16.697 -1.0612 -0.3855 -0.4192
 3994TIP3   OH233472   3.306   1.385  14.758 -0.1953 -0.2214  0.3613
 3994TIP3    H133473   3.346   1.376  14.844  0.1110  0.5614  0.3036
 3994TIP3    H233474   3.264   1.471  14.760 -0.3953 -0.3007 -0.1852
 3995TIP3   OH233475   5.319   1.559  16.405  0.0888 -0.6399 -0.0913
 3995TIP3    H133476   5.379   1.492  16.437 -0.7511 -0.0194  2.9928
 3995TIP3    H233477   5.349   1.580  16.317  3.6343 -1.2173  0.9391
 3996TIP3   OH233478   5.596   2.951  15.412 -0.0742  0.3489  0.2501
 3996TIP3    H133479   5.565   2.936  15.323 -0.6797 -0.9304  0.6534
 3996TIP3    H233480   5.596   3.046  15.423 -0.1347  0.5015 -1.0600
 3997TIP3   OH233481   0.322   5.885   1.538  0.0270 -0.7546 -0.1214
 3997TIP3    H133482   0.327   5.918   1.448 -1.2138  0.1838  0.1265
 3997TIP3    H233483   0.267   5.807   1.531  0.9758 -1.4043 -0.3592
 3998TIP3   OH233484   0.225   4.405   2.642 -0.0411 -0.0087  0.3833
 3998TIP3    H133485   0.194   4.410   2.732  0.1822 -0.7593  0.5035
 3998TIP3    H233486   0.186   4.325   2.607  0.7146 -0.2753  0.1428
 3999TIP3   OH233487   5.859   4.762  16.871 -0.5864 -0.7315  0.6294
 3999TIP3    H133488   5.855   4.788  16.963  0.2059 -1.3083  0.8298
 3999TIP3    H233489   5.923   4.691  16.869 -1.2823 -1.3499 -0.2147
 4000TIP3   OH233490   3.828   2.071   3.834  0.1707  0.0684 -0.5492
 4000TIP3    H133491   3.829   1.996   3.774 -0.3255 -0.4425  0.0802
 4000TIP3    H233492   3.736   2.097   3.838  0.0135 -0.7109  0.9995
 4001TIP3   OH233493   6.733   5.358   0.228  0.2715  0.5320  0.4094
 4001TIP3    H133494   6.760   5.288   0.169 -0.1339  1.2610 -0.6556
 4001TIP3    H233495   6.642   5.338   0.250  0.9538 -0.6780  2.1716
 4002TIP3   OH233496   0.137   0.339   1.561 -0.2243  0.4530 -0.4276
 4002TIP3    H133497   0.199   0.375   1.498 -0.9648 -0.1711 -1.5273
 4002TIP3    H233498   0.060   0.395   1.554 -0.1499  0.6453  0.2462
 4003TIP3   OH233499   1.348   1.276  11.661  0.3528  0.1543  0.1345
 4003TIP3    H133500   1.385   1.357  11.695  0.8927  0.6780 -1.6589
 4003TIP3    H233501   1.261   1.300  11.629  1.3360  0.5176 -2.3570
 4004TIP3   OH233502   3.937   2.281   5.397 -0.2653 -0.0621  0.4747
 4004TIP3    H133503   3.865   2.342   5.379 -0.4579 -0.4730 -0.1764
 4004TIP3    H233504   3.899   2.194   5.381  1.2236 -0.1603 -2.9431
 4005TIP3   OH233505   6.032   2.465   1.169 -1.0901  0.1909 -0.1227
 4005TIP3    H133506   6.115   2.442   1.210 -0.3960  0.7726 -1.1887
 4005TIP3    H233507   6.028   2.560   1.174 -2.3436  0.0902  1.1496
 4006TIP3   OH233508   0.401   3.320  12.837 -0.1165 -0.1707 -0.7729
 4006TIP3    H133509   0.356   3.265  12.901  2.2765 -2.0473 -0.6356
 4006TIP3    H233510   0.450   3.383  12.889  2.6440 -2.3345 -0.6099
 4007TIP3   OH233511   1.449   4.165   2.041 -0.0934  0.6830  0.3626
 4007TIP3    H133512   1.465   4.085   2.091 -0.5785  0.7900  0.6994
 4007TIP3    H233513   1.418   4.135   1.956 -1.9499  0.5120  1.0685
 4008TIP3   OH233514   4.261   6.067  14.231 -0.0404  0.7049  0.1422
 4008TIP3    H133515   4.275   6.140  14.171  0.5421  0.5841  0.1270
 4008TIP3    H233516   4.169   6.042  14.218  0.0843  0.6736 -0.7122
 4009TIP3   OH233517   4.391   4.823  12.675 -0.0603  0.6157  0.4807
 4009TIP3    H133518   4.317   4.765  12.660  1.3554 -1.6095  1.7491
 4009TIP3    H233519   4.441   4.781  12.745  2.8890  1.5595 -0.9548
 4010TIP3   OH233520   6.253   4.391   5.277 -0.3510 -0.1569 -0.1563
 4010TIP3    H133521   6.181   4.350   5.323 -0.2637  0.0716  0.1823
 4010TIP3    H233522   6.331   4.370   5.329 -0.1680 -0.4322 -0.5362
 4011TIP3   OH233523   3.554   2.325  14.407  0.2207  0.6275  0.1962
 4011TIP3    H133524   3.622   2.391  14.389 -0.6910  1.6589  0.4578
 4011TIP3    H233525   3.540   2.330  14.502  0.2924 -0.0870  0.2459
 4012TIP3   OH233526   4.640   6.334   1.205  0.1007 -0.3426 -0.3472
 4012TIP3    H133527   4.681   6.266   1.153 -1.8282 -1.9676  0.1705
 4012TIP3    H233528   4.569   6.368   1.149  1.1686  1.4091 -0.6819
 4013TIP3   OH233529   5.027   4.984  15.218 -0.1808  1.2139 -0.0373
 4013TIP3    H133530   5.122   4.976  15.231 -0.0918  2.0317 -0.2010
 4013TIP3    H233531   4.989   4.948  15.298  0.2282 -0.5780 -0.6179
 4014TIP3   OH233532   2.159   2.283  11.661  0.0959 -0.0063  0.1196
 4014TIP3    H133533   2.238   2.229  11.655  0.3975  0.1901  1.8785
 4014TIP3    H233534   2.163   2.320  11.750 -1.9004  0.1059  0.1760
 4015TIP3   OH233535   4.974   4.970   2.299  0.3262  0.0293 -0.4676
 4015TIP3    H133536   4.894   4.949   2.250 -1.3343  0.5465  1.9407
 4015TIP3    H233537   4.945   5.028   2.369  2.4027 -1.7187  1.9226
 4016TIP3   OH233538   5.790   2.511   1.369 -0.4551  0.2592  0.0357
 4016TIP3    H133539   5.849   2.496   1.443  0.1207  1.0272 -0.2550
 4016TIP3    H233540   5.841   2.486   1.292 -1.3041 -1.2294 -0.0626
 4017TIP3   OH233541   1.224   2.387  14.869  0.2226 -0.0167  0.3908
 4017TIP3    H133542   1.157   2.322  14.890 -1.0542  1.6009  1.4799
 4017TIP3    H233543   1.222   2.395  14.774 -1.5862  0.4480  0.4537
 4018TIP3   OH233544   0.047   2.524  13.936  0.0541  0.3123 -0.4490
 4018TIP3    H133545   0.049   2.570  14.020  0.4078 -1.5252  0.5768
 4018TIP3    H233546  -0.045   2.524  13.911 -0.2459 -0.2956  0.6208
 4019TIP3   OH233547   0.316   1.751   5.693 -0.0333 -0.3859 -0.0337
 4019TIP3    H133548   0.271   1.792   5.619 -0.3075  0.6269  0.6789
 4019TIP3    H233549   0.277   1.663   5.700  0.0062 -0.4888 -1.0918
 4020TIP3   OH233550   4.659   5.882  14.310  0.2073 -0.4303 -0.5412
 4020TIP3    H133551   4.655   5.958  14.253 -0.4067 -0.3493 -0.3894
 4020TIP3    H233552   4.753   5.870  14.327  0.5265 -1.2403 -2.6300
 4021TIP3   OH233553   6.591   4.434   2.959 -0.1268 -0.0462 -0.3383
 4021TIP3    H133554   6.589   4.520   2.917 -1.7581  0.3577  0.5276
 4021TIP3    H233555   6.503   4.423   2.996  0.2244 -1.8580  0.0172
 4022TIP3   OH233556   1.644   6.299   4.409  0.4118 -0.2051 -0.2520
 4022TIP3    H133557   1.549   6.291   4.414  0.2967  1.3909  0.4753
 4022TIP3    H233558   1.676   6.209   4.406 -1.0009 -0.7881  1.6761
 4023TIP3   OH233559   0.462   4.736   0.783  0.3255 -0.1300 -0.1635
 4023TIP3    H133560   0.415   4.663   0.744 -2.0913  0.2745  1.8117
 4023TIP3    H233561   0.478   4.797   0.711  2.2909 -2.5235 -1.8040
 4024TIP3   OH233562   0.949   5.613  11.126  0.5648  0.5223  0.0507
 4024TIP3    H133563   0.968   5.705  11.107 -0.8184  0.3158 -2.4523
 4024TIP3    H233564   0.863   5.614  11.167 -0.2058  0.2230 -1.5188
 4025TIP3   OH233565   2.167   6.539  14.281 -0.0986 -0.1066 -0.1811
 4025TIP3    H133566   2.209   6.617  14.245  0.0964  0.5037  1.3080
 4025TIP3    H233567   2.223   6.467  14.253  0.9944  0.5287  0.3262
 4026TIP3   OH233568   2.531   3.144  11.653  0.3536 -0.2614  0.1654
 4026TIP3    H133569   2.617   3.114  11.622 -0.0298 -1.1572 -0.0295
 4026TIP3    H233570   2.468   3.098  11.599 -0.2696 -0.0560  0.7076
 4027TIP3   OH233571   6.020   6.003  15.515  0.7560  0.3966  0.2832
 4027TIP3    H133572   5.988   5.981  15.427  0.0737  1.9635  0.1137
 4027TIP3    H233573   6.052   6.093  15.507  1.8761  0.0937  1.3370
 4028TIP3   OH233574   2.491   4.695  13.333  0.2391  0.1435  0.0118
 4028TIP3    H133575   2.457   4.663  13.249  0.7030  3.0814 -1.3982
 4028TIP3    H233576   2.585   4.701  13.319  0.2073  1.6569  0.3333
 4029TIP3   OH233577   5.783   0.425  14.977 -0.5329 -0.5039  0.2923
 4029TIP3    H133578   5.837   0.367  14.923 -1.7792  0.0136 -1.5802
 4029TIP3    H233579   5.843   0.493  15.008  0.8137 -2.4153  2.0016
 4030TIP3   OH233580   2.356   6.449  16.731  0.4867 -0.3850 -0.3500
 4030TIP3    H133581   2.439   6.409  16.703  0.9643  0.1187  0.3129
 4030TIP3    H233582   2.378   6.490  16.815 -0.7702 -1.3944  0.4931
 4031TIP3   OH233583   4.593   1.877   0.489  0.7214 -0.5445  0.1581
 4031TIP3    H133584   4.498   1.868   0.477  0.6360  0.5876 -0.0395
 4031TIP3    H233585   4.618   1.947   0.428  1.7451 -1.0967 -0.0687
 4032TIP3   OH233586   0.116   3.558  13.976  0.9153 -0.2028  0.5259
 4032TIP3    H133587   0.082   3.588  13.891  1.2332 -1.2374  0.0261
 4032TIP3    H233588   0.067   3.609  14.041  1.2030  1.1427 -0.2954
 4033TIP3   OH233589   6.338   1.381  14.215  0.0341 -0.3843 -0.5321
 4033TIP3    H133590   6.273   1.327  14.170 -1.2054 -0.7672  1.6157
 4033TIP3    H233591   6.285   1.445  14.264  1.4208  1.6316 -1.5985
 4034TIP3   OH233592   3.838   1.388  11.973  0.2498 -0.6923  0.8023
 4034TIP3    H133593   3.771   1.320  11.962  0.6079 -1.5768  3.6748
 4034TIP3    H233594   3.790   1.464  12.007  0.7972 -1.5749  3.5916
 4035TIP3   OH233595   0.353   1.662  14.833  0.6155  0.2080  0.6890
 4035TIP3    H133596   0.309   1.643  14.915 -1.8170 -0.5435 -0.7472
 4035TIP3    H233597   0.360   1.757  14.830 -1.1186  0.3475  0.8357
 4036TIP3   OH233598   5.449   0.404  12.221 -0.2748 -0.7734 -0.2093
 4036TIP3    H133599   5.467   0.311  12.209  2.0196 -0.3288 -0.4358
 4036TIP3    H233600   5.484   0.446  12.143  2.3150  0.6724  1.6507
 4037TIP3   OH233601   5.106   4.808   3.192  0.0043 -0.8783  0.0313
 4037TIP3    H133602   5.122   4.805   3.098 -0.9368 -1.6857 -0.1100
 4037TIP3    H233603   5.010   4.808   3.200  0.0802 -1.3999  1.0076
 4038TIP3   OH233604   3.171   6.411  16.577  1.2158 -0.1824 -0.2757
 4038TIP3    H133605   3.258   6.427  16.540  1.3548  1.0700  0.5758
 4038TIP3    H233606   3.153   6.488  16.630 -1.5426  0.7957 -2.5027
 4039TIP3   OH233607   3.906   0.565  15.667  0.0819  0.3038 -0.4377
 4039TIP3    H133608   3.844   0.537  15.601 -0.0909 -0.1196 -0.1024
 4039TIP3    H233609   3.970   0.618  15.620 -2.1023  3.1919 -0.3078
 4040TIP3   OH233610   4.933   6.102  13.710  0.3827  0.1003  0.2611
 4040TIP3    H133611   4.931   6.037  13.641 -1.9342  0.4033  0.0049
 4040TIP3    H233612   4.903   6.056  13.788  1.4487  0.1636  0.7185
 4041TIP3   OH233613   6.165   1.698  11.198 -0.0217  0.2106 -0.0490
 4041TIP3    H133614   6.209   1.764  11.252 -0.1377  0.7688 -0.6243
 4041TIP3    H233615   6.138   1.746  11.120 -2.9989  0.2511  0.9490
 4042TIP3   OH233616   2.853   5.322  13.185  0.0336  0.3609  0.1074
 4042TIP3    H133617   2.907   5.265  13.240 -2.6822 -2.8700 -0.4019
 4042TIP3    H233618   2.797   5.370  13.247 -0.9101 -1.0218  0.3475
 4043TIP3   OH233619   6.236   5.871   4.675 -0.7111 -0.6203  0.1734
 4043TIP3    H133620   6.310   5.869   4.614 -0.1880 -1.2445  0.8312
 4043TIP3    H233621   6.164   5.830   4.626 -0.0833 -1.8327  0.2567
 4044TIP3   OH233622   3.969   0.011   4.535 -0.5408 -0.1304  0.1856
 4044TIP3    H133623   3.873   0.021   4.539 -0.4999 -0.0781  0.9259
 4044TIP3    H233624   3.998   0.088   4.486 -0.6409  1.1437  2.1115
 4045TIP3   OH233625   0.647   1.005  16.831  0.1313 -0.1287 -0.2554
 4045TIP3    H133626   0.560   1.009  16.791  0.3705 -2.4998 -1.0926
 4045TIP3    H233627   0.690   0.933  16.786  2.2801  0.5536  0.6739
 4046TIP3   OH233628   4.063   2.583  13.371 -0.4035 -0.0332  0.0335
 4046TIP3    H133629   4.017   2.642  13.431 -1.7311  0.9634 -1.9040
 4046TIP3    H233630   4.137   2.551  13.422  0.0141  2.8242  1.3499
 4047TIP3   OH233631   5.172   5.309   2.431 -0.3122  0.6660  0.6649
 4047TIP3    H133632   5.174   5.243   2.500 -0.6606  0.5332  0.5464
 4047TIP3    H233633   5.169   5.393   2.477 -2.0044  0.5405  0.8076
 4048TIP3   OH233634   4.710   0.564   2.364  0.7428  0.1757 -0.3129
 4048TIP3    H133635   4.742   0.501   2.429 -0.6666 -1.0078 -0.7397
 4048TIP3    H233636   4.765   0.550   2.288  1.6663  0.7872  0.2300
 4049TIP3   OH233637   2.047   3.461  15.552  0.2520  0.4224  1.3143
 4049TIP3    H133638   1.991   3.426  15.483  0.1058  2.9857  0.0614
 4049TIP3    H233639   2.034   3.403  15.626  2.3865 -3.9977 -1.5927
 4050TIP3   OH233640   5.331   0.047  11.688  0.2771  0.1358  0.0456
 4050TIP3    H133641   5.266  -0.011  11.729  0.4084  0.9599  1.4797
 4050TIP3    H233642   5.287   0.082  11.611 -0.8819  0.4560  0.8419
 4051TIP3   OH233643   1.219   6.167   6.946  0.5648 -0.5244  0.0428
 4051TIP3    H133644   1.197   6.076   6.926  0.9238 -1.0399  1.9346
 4051TIP3    H233645   1.137   6.205   6.977  1.0674 -1.0357  2.0973
 4052TIP3   OH233646   0.468   1.292   2.165 -0.2064 -0.3022  0.2775
 4052TIP3    H133647   0.545   1.310   2.111  1.4568 -0.9476  2.3512
 4052TIP3    H233648   0.498   1.306   2.255 -2.4233 -0.9370  1.1507
 4053TIP3   OH233649   0.193   5.635  12.566  0.1464  0.1465  0.6519
 4053TIP3    H133650   0.282   5.600  12.562  0.1111  0.0693  0.5336
 4053TIP3    H233651   0.150   5.583  12.634  0.0389 -0.1662  0.3465
 4054TIP3   OH233652   5.323   1.516   3.945 -0.1388  0.1962 -0.2761
 4054TIP3    H133653   5.247   1.457   3.944  0.1968 -0.3012  1.5734
 4054TIP3    H233654   5.286   1.602   3.963 -0.2435 -0.0975  0.9392
 4055TIP3   OH233655   6.630   5.492  15.302  0.3111  0.4575 -0.2241
 4055TIP3    H133656   6.551   5.531  15.264  0.7362  1.1203 -0.4410
 4055TIP3    H233657   6.604   5.403  15.327 -0.3450  0.4820 -0.8203
 4056TIP3   OH233658   4.463   6.236  11.117  0.0235  0.2636  0.1064
 4056TIP3    H133659   4.376   6.246  11.079 -0.5492 -1.9279  0.7694
 4056TIP3    H233660   4.448   6.239  11.212  0.6789 -0.0522  0.2238
 4057TIP3   OH233661   4.763   2.062  11.574 -0.0544 -0.4001  0.1536
 4057TIP3    H133662   4.762   2.112  11.656 -1.4672 -0.7315  0.3524
 4057TIP3    H233663   4.671   2.050  11.553  0.3095  0.4860 -1.9990
 4058TIP3   OH233664   4.398   3.731  16.515  0.4936 -0.4226  0.0668
 4058TIP3    H133665   4.456   3.755  16.443  1.3743 -1.0966  0.5442
 4058TIP3    H233666   4.329   3.678  16.473  1.1196 -0.9943 -0.2583
 4059TIP3   OH233667   3.441   4.526  16.299 -0.0103  0.2374  0.0722
 4059TIP3    H133668   3.446   4.617  16.270  0.5391  0.5245  1.0149
 4059TIP3    H233669   3.453   4.474  16.220 -0.9178  0.9832 -0.5655
 4060TIP3   OH233670   6.770   1.666   3.503  0.3165 -0.1928 -0.6399
 4060TIP3    H133671   6.848   1.713   3.475 -0.4599 -0.0575 -2.6993
 4060TIP3    H233672   6.728   1.724   3.567  2.1417 -0.5060  0.8664
 4061TIP3   OH233673   2.182   1.347  14.505  0.1463  0.3344 -0.1028
 4061TIP3    H133674   2.171   1.254  14.484  0.1213  0.7266 -1.9617
 4061TIP3    H233675   2.164   1.392  14.422  2.6680  1.8370  0.1174
 4062TIP3   OH233676   3.632   0.567   0.284  0.1427 -0.0956  0.3770
 4062TIP3    H133677   3.721   0.551   0.315  1.0919  0.0028 -2.1699
 4062TIP3    H233678   3.642   0.633   0.216 -1.7708 -0.8052 -0.6334
 4063TIP3   OH233679   4.396   6.557  16.043 -0.0315 -0.3260  0.1276
 4063TIP3    H133680   4.322   6.619  16.040 -0.5289 -0.7479  2.3972
 4063TIP3    H233681   4.410   6.533  15.952 -3.3834 -1.0007 -0.2868
 4064TIP3   OH233682   0.429   4.815   1.029 -0.3788 -0.6067  0.2602
 4064TIP3    H133683   0.445   4.788   0.939 -2.3123  0.4947 -0.4161
 4064TIP3    H233684   0.334   4.821   1.037 -0.1452  2.8351  1.3074
 4065TIP3   OH233685   2.526   3.021  12.804 -0.1001  0.3619  0.0590
 4065TIP3    H133686   2.533   3.117  12.802 -0.8262  0.4356  0.6778
 4065TIP3    H233687   2.443   3.005  12.849 -0.6563 -0.5433 -1.2730
 4066TIP3   OH233688   3.276   1.191   1.143  0.3392 -0.0894  0.4344
 4066TIP3    H133689   3.297   1.173   1.051 -2.0444 -0.4377 -0.0789
 4066TIP3    H233690   3.190   1.233   1.140 -1.6359 -3.7202  2.6952
 4067TIP3   OH233691   5.174   5.732  17.093  0.1616  0.2521  0.1277
 4067TIP3    H133692   5.207   5.816  17.124 -1.7448  0.1814  2.5404
 4067TIP3    H233693   5.110   5.705  17.160  0.0668 -2.6730 -1.0522
 4068TIP3   OH233694   4.194   4.376   2.035  0.2798  0.0844 -0.5790
 4068TIP3    H133695   4.177   4.442   2.102  0.4457 -1.3203  0.8666
 4068TIP3    H233696   4.243   4.307   2.080 -0.5154 -1.3681 -1.8833
 4069TIP3   OH233697   1.692   2.252  10.804  0.3860  0.0222 -0.6580
 4069TIP3    H133698   1.753   2.283  10.870 -0.2793 -2.0686  0.9841
 4069TIP3    H233699   1.691   2.321  10.738  4.2661  0.2631 -0.5944
 4070TIP3   OH233700   1.420   0.387  14.381 -0.2364  0.8359  0.0291
 4070TIP3    H133701   1.436   0.467  14.430 -2.5567  2.2211 -1.3442
 4070TIP3    H233702   1.350   0.343  14.429  0.8951 -0.2654  0.6676
 4071TIP3   OH233703   4.825   4.213   2.136  0.2749 -0.3013 -0.1637
 4071TIP3    H133704   4.769   4.252   2.068 -0.5737  2.5254  2.0545
 4071TIP3    H233705   4.915   4.231   2.106 -0.0942  1.1412 -0.4245
 4072TIP3   OH233706   3.576   1.784   1.632 -0.6155  0.5896 -0.7690
 4072TIP3    H133707   3.556   1.789   1.726 -0.0926 -3.1055 -0.3951
 4072TIP3    H233708   3.614   1.697   1.620 -2.2957  0.3090 -4.7442
 4073TIP3   OH233709   3.427   5.904   5.103 -0.1160 -0.4951 -0.1359
 4073TIP3    H133710   3.474   5.828   5.067  0.6970  0.1640 -0.4842
 4073TIP3    H233711   3.494   5.971   5.112 -0.6607 -0.0917  0.9993
 4074TIP3   OH233712   5.447   1.824  17.238 -0.4301  0.2089  0.4439
 4074TIP3    H133713   5.506   1.762  17.196 -0.4849  1.4206 -1.4921
 4074TIP3    H233714   5.366   1.819  17.186 -1.2086  0.2542  1.6432
 4075TIP3   OH233715   3.636   5.877  13.882 -0.0628 -0.7569 -0.4809
 4075TIP3    H133716   3.615   5.784  13.884 -1.7796 -0.3486  0.9367
 4075TIP3    H233717   3.559   5.919  13.845  0.6020  0.1463 -0.8827
 4076TIP3   OH233718   4.532   5.341   1.374  0.8067  0.4567  0.4603
 4076TIP3    H133719   4.475   5.380   1.308  0.3218 -0.9029  0.0632
 4076TIP3    H233720   4.495   5.255   1.391  2.7678 -0.4827  0.1575
 4077TIP3   OH233721   1.044   0.195   4.024 -0.1654 -0.1654  0.5091
 4077TIP3    H133722   0.998   0.202   3.941  1.9189  0.7897 -0.6041
 4077TIP3    H233723   1.038   0.282   4.063  2.3822  0.5547 -0.5975
 4078TIP3   OH233724   1.071   4.708  16.161  0.2584 -0.3097 -0.5428
 4078TIP3    H133725   1.056   4.728  16.253  1.1783 -1.0003 -0.2406
 4078TIP3    H233726   0.986   4.678  16.129 -0.4456  1.4102 -0.3157
 4079TIP3   OH233727   2.123   6.299   0.109 -0.6208  0.1366 -0.1626
 4079TIP3    H133728   2.152   6.208   0.112  0.0569  0.3380 -0.2997
 4079TIP3    H233729   2.166   6.335   0.031 -0.0016  0.8565  0.5010
 4080TIP3   OH233730   0.758   3.975  13.677  0.0497  0.0673 -0.0237
 4080TIP3    H133731   0.737   4.026  13.755  1.1136  0.7538 -0.1722
 4080TIP3    H233732   0.829   4.024  13.636  0.0750 -0.7570 -0.9620
 4081TIP3   OH233733   1.916   2.201   2.472 -0.2211  0.2629  0.4222
 4081TIP3    H133734   1.870   2.236   2.396 -1.1824 -0.0560  0.8423
 4081TIP3    H233735   2.008   2.202   2.447 -0.5800 -0.4187 -0.9777
 4082TIP3   OH233736   4.835   3.762   2.918  0.5698 -0.2702 -0.0111
 4082TIP3    H133737   4.884   3.808   2.850  0.5152  1.1423  0.8804
 4082TIP3    H233738   4.780   3.699   2.871 -1.4217  2.4845 -1.5062
 4083TIP3   OH233739   0.069   1.604  12.156 -0.2222 -0.4801  0.0015
 4083TIP3    H133740   0.119   1.643  12.228 -1.5159  0.0808  0.6151
 4083TIP3    H233741   0.058   1.512  12.183 -0.5875 -0.3047  0.4521
 4084TIP3   OH233742   5.980   5.492  16.777  0.2404  0.2689  0.4276
 4084TIP3    H133743   6.034   5.461  16.705 -1.0485  0.0151 -0.4519
 4084TIP3    H233744   5.952   5.580  16.751 -1.5169 -0.4285 -0.1406
 4085TIP3   OH233745   0.436   1.780  11.369  0.6767  0.5015  0.2919
 4085TIP3    H133746   0.469   1.869  11.378  2.3255 -0.3676  3.3192
 4085TIP3    H233747   0.391   1.762  11.451  1.2559 -1.8165  0.1372
 4086TIP3   OH233748   0.112   6.026   5.934  0.6165 -0.2602  0.4332
 4086TIP3    H133749   0.036   6.083   5.944  0.0382 -0.5888 -1.7045
 4086TIP3    H233750   0.186   6.078   5.966 -0.3623  0.4485  1.5693
 4087TIP3   OH233751   3.279   0.984  16.973 -0.0417  0.3541  0.2249
 4087TIP3    H133752   3.285   0.926  17.049  2.0896 -2.4261 -1.9508
 4087TIP3    H233753   3.188   0.977  16.944 -0.4855  0.2483  1.6161
 4088TIP3   OH233754   5.412   0.645   0.145  0.2045  0.5706 -0.1145
 4088TIP3    H133755   5.351   0.678   0.210 -1.9581  2.2739 -2.9531
 4088TIP3    H233756   5.369   0.568   0.107  0.8233  0.4343 -0.5681
 4089TIP3   OH233757   5.881   0.012   6.190 -0.0529  0.6949 -0.0340
 4089TIP3    H133758   5.855  -0.048   6.260 -0.1377  0.5210 -0.2142
 4089TIP3    H233759   5.903  -0.045   6.116  0.9085  0.8338  0.1410
 4090TIP3   OH233760   0.301   6.111  13.645 -0.0611 -0.1640 -0.3408
 4090TIP3    H133761   0.274   6.142  13.559 -1.4552  0.7970  0.4318
 4090TIP3    H233762   0.251   6.030  13.658 -0.4779  0.1381 -0.0764
 4091TIP3   OH233763   3.454   0.683   5.490  0.1603 -0.4871 -0.6134
 4091TIP3    H133764   3.395   0.679   5.415 -0.9089  0.1655  0.1717
 4091TIP3    H233765   3.536   0.645   5.459 -0.4786 -0.8189 -1.9096
 4092TIP3   OH233766   0.285   3.791  14.975  0.5470 -0.2717 -0.0726
 4092TIP3    H133767   0.219   3.726  14.949  0.7528 -1.5374  2.4330
 4092TIP3    H233768   0.237   3.874  14.976 -0.5166 -0.8731 -0.2240
 4093TIP3   OH233769   4.064   2.097  13.905  0.1315 -0.1406  0.1014
 4093TIP3    H133770   4.001   2.048  13.957  0.4303  0.0137  0.6150
 4093TIP3    H233771   4.044   2.074  13.815 -1.9237  1.4222  0.1139
 4094TIP3   OH233772   1.283   3.291   2.322 -0.1696  0.3390 -0.2340
 4094TIP3    H133773   1.339   3.348   2.374  0.7821 -0.5750 -0.2381
 4094TIP3    H233774   1.194   3.319   2.343  0.2979  2.7066 -1.2464
 4095TIP3   OH233775   0.459   2.560  16.112 -0.3878  0.2033 -0.0207
 4095TIP3    H133776   0.423   2.600  16.191  0.0510 -1.1199  0.8640
 4095TIP3    H233777   0.385   2.559  16.051 -0.7682  1.1256  0.4030
 4096TIP3   OH233778   2.067   1.385   3.713  0.0345  0.7138  0.4301
 4096TIP3    H133779   2.039   1.429   3.793  0.7336  0.4925  0.7929
 4096TIP3    H233780   2.094   1.298   3.741 -3.4785 -0.8158 -0.5719
 4097TIP3   OH233781   0.444   6.575   4.598  0.2400  0.0937  0.2862
 4097TIP3    H133782   0.368   6.614   4.553 -1.0767 -1.7197  0.8566
 4097TIP3    H233783   0.519   6.626   4.568 -0.8235 -0.0149 -2.6792
 4098TIP3   OH233784   4.909   5.734   5.374  0.2473 -0.3712  0.4602
 4098TIP3    H133785   4.836   5.729   5.435 -1.0862  0.7177 -0.9952
 4098TIP3    H233786   4.912   5.647   5.333 -0.1324 -0.4732  0.6488
 4099TIP3   OH233787   4.661   5.132   5.849  0.0489  0.3520  0.4279
 4099TIP3    H133788   4.586   5.087   5.809  0.2872  1.0820 -0.8541
 4099TIP3    H233789   4.733   5.070   5.840 -0.0606  0.2342  0.3547
 4100TIP3   OH233790   2.801   1.987   4.904 -0.0536 -0.0841 -0.6949
 4100TIP3    H133791   2.876   2.044   4.924 -0.3137  0.0337 -0.0132
 4100TIP3    H233792   2.814   1.960   4.814  0.6665  0.1624 -0.6662
 4101TIP3   OH233793   1.570   2.468  14.331 -0.2990  0.0966  0.3008
 4101TIP3    H133794   1.577   2.378  14.362  2.2205 -0.7772 -2.5596
 4101TIP3    H233795   1.644   2.513  14.372  0.2933  0.0666 -0.7082
 4102TIP3   OH233796   0.629   3.239   3.371  0.6474  0.2927  0.1984
 4102TIP3    H133797   0.540   3.220   3.339  1.6137  1.5368 -3.4601
 4102TIP3    H233798   0.671   3.153   3.375 -0.5327 -0.2579  1.5269
 4103TIP3   OH233799   2.785   5.129  14.568 -0.3075 -0.4573 -0.2223
 4103TIP3    H133800   2.764   5.197  14.504 -0.8269 -1.2010 -0.8401
 4103TIP3    H233801   2.827   5.177  14.640  0.4575  0.3469 -1.1899
 4104TIP3   OH233802   5.190   2.846   4.470  0.1783  0.3148 -0.2520
 4104TIP3    H133803   5.185   2.759   4.431 -0.2009  0.6585 -0.9949
 4104TIP3    H233804   5.284   2.865   4.476  0.2855 -0.5376  0.8215
 4105TIP3   OH233805   5.926   6.762  13.114  0.3434 -0.6132  0.3250
 4105TIP3    H133806   5.866   6.831  13.144  0.6221 -0.4069  0.4035
 4105TIP3    H233807   6.008   6.780  13.159  0.7228 -0.3856 -0.4443
 4106TIP3   OH233808   2.521   4.821   5.458 -0.1162 -0.0480  0.6527
 4106TIP3    H133809   2.532   4.893   5.396 -1.7277  1.2002  1.7574
 4106TIP3    H233810   2.445   4.773   5.424  0.6226 -0.9152  0.2182
 4107TIP3   OH233811   5.525   2.404  11.879  0.1835 -0.0081  0.3753
 4107TIP3    H133812   5.604   2.458  11.867 -0.8135  1.2420 -0.8403
 4107TIP3    H233813   5.512   2.362  11.794 -0.8493  0.3620  0.3427
 4108TIP3   OH233814   6.553   5.145  14.863  0.0149 -0.0639  0.3877
 4108TIP3    H133815   6.480   5.181  14.812  0.4674  0.7825  0.3353
 4108TIP3    H233816   6.581   5.217  14.919  1.8856  0.1154 -0.7677
 4109TIP3   OH233817   4.563   5.751   4.439  0.4074  0.0642  0.5659
 4109TIP3    H133818   4.519   5.823   4.393  0.7670 -0.4334 -0.5665
 4109TIP3    H233819   4.495   5.685   4.450  0.7064 -0.4740 -0.6883
 4110TIP3   OH233820   3.636   5.786   0.816 -0.5464  0.4513 -0.3249
 4110TIP3    H133821   3.654   5.717   0.753  1.6095  1.1639 -0.5226
 4110TIP3    H233822   3.719   5.832   0.826 -0.9734  0.7053  2.6063
 4111TIP3   OH233823   5.191   2.516  10.905 -0.0979 -0.0587 -0.1154
 4111TIP3    H133824   5.167   2.494  10.815  0.1201  0.1208 -0.2177
 4111TIP3    H233825   5.265   2.576  10.897 -0.3307  0.2711  0.1728
 4112TIP3   OH233826   3.246   3.630   0.668  0.3365  0.1330  0.2297
 4112TIP3    H133827   3.176   3.666   0.614  0.3765  0.9678  0.7247
 4112TIP3    H233828   3.211   3.548   0.701 -0.0767  0.1220 -0.2309
 4113TIP3   OH233829   6.409   3.938   0.802 -0.6010 -0.1937  1.0385
 4113TIP3    H133830   6.461   3.864   0.831  0.6970  1.1866  2.3462
 4113TIP3    H233831   6.319   3.918   0.829 -0.5542 -2.0155 -0.1130
 4114TIP3   OH233832   4.029   5.650  12.023  0.1745 -0.7566 -0.3276
 4114TIP3    H133833   4.065   5.637  11.936 -1.0773 -2.3376 -0.6175
 4114TIP3    H233834   4.075   5.587  12.078  1.9080  1.1269  0.4506
 4115TIP3   OH233835   3.010   2.847  13.715 -0.2901  0.4080 -0.0677
 4115TIP3    H133836   2.918   2.872  13.720 -0.1737  0.8707 -0.2066
 4115TIP3    H233837   3.011   2.754  13.740 -0.6734  0.6351  0.8095
 4116TIP3   OH233838   0.178   5.887   4.297  0.2047 -0.2856  0.6470
 4116TIP3    H133839   0.263   5.873   4.254 -0.1784 -1.3927  0.2370
 4116TIP3    H233840   0.200   5.926   4.382  1.2150 -1.9387  1.1576
 4117TIP3   OH233841   3.390   3.966  12.800 -0.2477  0.1277 -0.0484
 4117TIP3    H133842   3.425   4.036  12.745  1.7030  0.9366  2.1615
 4117TIP3    H233843   3.408   3.886  12.750  2.3528  0.7672 -0.2247
 4118TIP3   OH233844   1.351   4.937  15.047  0.1934 -0.1757  0.0360
 4118TIP3    H133845   1.272   4.900  15.087  1.1211 -0.5718  1.5572
 4118TIP3    H233846   1.368   5.016  15.099  1.0334 -0.3238 -0.0195
 4119TIP3   OH233847   0.602   3.744  11.476 -0.3366 -0.3081 -0.0395
 4119TIP3    H133848   0.528   3.804  11.467 -0.4658 -0.5970 -0.9262
 4119TIP3    H233849   0.565   3.658  11.459  0.3438 -0.3787 -1.1662
 4120TIP3   OH233850   4.992   1.008   2.439  0.3813  0.0470 -0.6995
 4120TIP3    H133851   4.918   1.063   2.464  1.8019  1.7579 -0.1580
 4120TIP3    H233852   5.015   1.037   2.351 -1.2473 -2.3383 -1.9874
 4121TIP3   OH233853   6.543   4.042  13.833  0.1622  0.1724 -0.0738
 4121TIP3    H133854   6.533   4.089  13.750  3.7412  0.1884 -0.5740
 4121TIP3    H233855   6.455   4.043  13.872 -1.7555 -0.4530 -4.1379
 4122TIP3   OH233856   1.024   3.452   4.014 -0.1508 -0.1980 -0.0273
 4122TIP3    H133857   1.054   3.536   4.048 -1.4732  0.3852 -0.2410
 4122TIP3    H233858   1.018   3.395   4.090  0.6454 -0.0706  0.1333
 4123TIP3   OH233859   3.517   3.194   1.836 -0.6819  0.3644 -0.1904
 4123TIP3    H133860   3.526   3.110   1.880  0.0054  0.8474  0.5915
 4123TIP3    H233861   3.426   3.195   1.805 -0.8332 -0.4578  0.2178
 4124TIP3   OH233862   4.780   1.147  13.669 -0.2720 -0.2423 -0.1194
 4124TIP3    H133863   4.820   1.217  13.721  1.6337 -1.8564  0.6334
 4124TIP3    H233864   4.720   1.104  13.730 -0.3458 -0.1860 -0.1539
 4125TIP3   OH233865   5.840   0.783   1.381  0.3227 -0.5470 -0.1442
 4125TIP3    H133866   5.894   0.747   1.310 -0.2605 -1.3237 -0.2064
 4125TIP3    H233867   5.888   0.762   1.461  0.1149 -1.2303 -0.1990
 4126TIP3   OH233868   5.014   3.136  14.738 -0.2444  0.4007  0.2465
 4126TIP3    H133869   4.920   3.139  14.724 -0.2669  0.0134  0.3137
 4126TIP3    H233870   5.051   3.168  14.656 -0.3960 -1.2049 -0.4694
 4127TIP3   OH233871   3.545   3.246  16.173 -0.0989 -0.0366  0.4023
 4127TIP3    H133872   3.510   3.267  16.259  2.8111  0.4934  1.5063
 4127TIP3    H233873   3.638   3.268  16.178  0.1105  0.2047 -2.9358
 4128TIP3   OH233874   0.152   1.417   2.020 -0.1424  0.2003  0.2058
 4128TIP3    H133875   0.104   1.341   2.054  1.1688 -0.3221  0.9000
 4128TIP3    H233876   0.166   1.472   2.098  2.0416 -0.5468  0.3587
 4129TIP3   OH233877   5.322   2.433  12.637  0.2000  0.1482  0.4956
 4129TIP3    H133878   5.315   2.420  12.542  0.5035  0.9525  0.3606
 4129TIP3    H233879   5.250   2.381  12.674 -1.0083  1.2550 -0.2867
 4130TIP3   OH233880   2.356   3.982   4.269  0.3794  0.3217 -0.3151
 4130TIP3    H133881   2.331   3.946   4.184  1.9402 -1.8144  0.0963
 4130TIP3    H233882   2.332   4.075   4.264 -1.3446 -0.2051 -2.3484
 4131TIP3   OH233883   6.112   1.803  12.814  0.5133  0.0870 -0.9459
 4131TIP3    H133884   6.073   1.723  12.779 -0.6616  0.4168 -0.4373
 4131TIP3    H233885   6.089   1.871  12.751 -1.1806  0.5884  0.1655
 4132TIP3   OH233886   2.915   0.112  13.621  0.2465  0.2560 -0.8733
 4132TIP3    H133887   2.951   0.149  13.702  2.7938  0.6075 -2.1518
 4132TIP3    H233888   2.885   0.187  13.571  1.9745  0.3455 -1.8126
 4133TIP3   OH233889   3.876   1.269   1.828  0.1037  0.2348  0.2113
 4133TIP3    H133890   3.791   1.246   1.792  0.6013  1.2874 -1.7714
 4133TIP3    H233891   3.867   1.360   1.856  0.2918  0.0354  0.9299
 4134TIP3   OH233892   4.212   1.537  14.577  0.3635 -0.0066  0.5765
 4134TIP3    H133893   4.119   1.560  14.584 -0.1510 -1.8887  0.1285
 4134TIP3    H233894   4.258   1.619  14.596 -1.3732  0.8551  1.1823
 4135TIP3   OH233895   1.692   0.105   3.433  0.0110  0.1909 -0.1908
 4135TIP3    H133896   1.634   0.151   3.373  1.2790  0.3201 -1.3169
 4135TIP3    H233897   1.686   0.013   3.406 -1.1156 -0.0883  0.9101
 4136TIP3   OH233898   5.499   2.626  14.788 -0.4880  0.6130  0.1833
 4136TIP3    H133899   5.500   2.673  14.872  1.3783 -0.4495  0.7789
 4136TIP3    H233900   5.522   2.692  14.723  1.6603  0.6507  0.9612
 4137TIP3   OH233901   4.232   1.762  17.285  0.0544 -0.5892 -0.1164
 4137TIP3    H133902   4.213   1.677  17.246  2.3869 -1.0540 -0.3156
 4137TIP3    H233903   4.327   1.764  17.292  0.0315  2.0134 -0.1216
 4138TIP3   OH233904   0.040   3.919   3.742  0.0087  0.5141  0.3911
 4138TIP3    H133905   0.043   3.991   3.680  0.8334  0.3243  0.1974
 4138TIP3    H233906  -0.049   3.920   3.777 -0.5695  0.4033 -1.0490
 4139TIP3   OH233907   5.353   3.285  13.874 -0.3776 -0.2885 -0.1082
 4139TIP3    H133908   5.386   3.322  13.957 -0.0276 -0.7394 -0.0441
 4139TIP3    H233909   5.259   3.275  13.888 -0.9342  2.9774 -1.0232
 4140TIP3   OH233910   2.367   0.891  13.348  0.1660  0.6984  0.1111
 4140TIP3    H133911   2.416   0.936  13.416  1.0143 -0.2331  0.1332
 4140TIP3    H233912   2.312   0.828  13.396  0.8240 -0.0148 -0.0621
 4141TIP3   OH233913   0.790   6.027  14.469  0.2876 -0.1838 -0.0012
 4141TIP3    H133914   0.831   6.108  14.439  1.0029  0.3338  2.3044
 4141TIP3    H233915   0.862   5.966  14.478 -0.0303 -0.5647 -0.0545
 4142TIP3   OH233916   6.612   0.396  16.351 -0.3289 -0.2354  0.1761
 4142TIP3    H133917   6.649   0.462  16.294 -0.0898 -0.1311  0.4498
 4142TIP3    H233918   6.656   0.409  16.435 -0.8624 -0.2209  0.4553
 4143TIP3   OH233919   0.970   6.733   0.651  0.1448  0.0473  0.0826
 4143TIP3    H133920   0.969   6.643   0.618 -2.4091  1.0829 -2.9606
 4143TIP3    H233921   1.052   6.770   0.619  0.3169 -0.6679 -0.3118
 4144TIP3   OH233922   0.375   4.514  12.559 -0.4558  0.3434  0.1958
 4144TIP3    H133923   0.363   4.440  12.499  0.9558  0.6145 -0.4365
 4144TIP3    H233924   0.344   4.590  12.511  0.1070  0.4731  0.0379
 4145TIP3   OH233925   5.487   3.047   6.512  0.1773 -0.4479  0.4293
 4145TIP3    H133926   5.563   3.102   6.533  0.0431 -0.3831  0.7412
 4145TIP3    H233927   5.448   3.089   6.435  1.7303 -1.7288 -1.0871
 4146TIP3   OH233928   3.112   5.741  11.637  0.7026  0.0332 -0.2238
 4146TIP3    H133929   3.125   5.834  11.658 -0.3743  0.5772 -1.8345
 4146TIP3    H233930   3.195   5.699  11.659  1.0139  1.2789  1.0539
 4147TIP3   OH233931   0.905   3.312   6.010  0.6802  0.1055 -0.1107
 4147TIP3    H133932   0.843   3.262   5.957  0.5708 -0.8013  0.8714
 4147TIP3    H233933   0.947   3.247   6.066  1.7116  0.8757  0.0335
 4148TIP3   OH233934   1.564   1.736   2.729  0.0277 -0.2301 -0.2078
 4148TIP3    H133935   1.643   1.716   2.780  1.4294  2.3115 -1.2636
 4148TIP3    H233936   1.595   1.795   2.660 -2.5155 -0.5678 -1.6902
 4149TIP3   OH233937   2.320   4.410   5.480 -0.5196 -0.3124  0.1208
 4149TIP3    H133938   2.269   4.472   5.429  0.0008 -0.5797 -0.7361
 4149TIP3    H233939   2.397   4.459   5.508  0.3263 -0.7879 -1.2918
 4150TIP3   OH233940   2.146   6.532   5.395 -0.0216  0.2644  0.7826
 4150TIP3    H133941   2.201   6.504   5.468  0.7865 -1.7073 -0.5309
 4150TIP3    H233942   2.189   6.610   5.361  1.2988 -0.5413  0.5494
 4151TIP3   OH233943   3.743   3.159  14.630  0.1914 -0.0891 -0.3707
 4151TIP3    H133944   3.661   3.119  14.601 -0.2852 -0.0917  0.9809
 4151TIP3    H233945   3.808   3.090  14.621 -0.4120 -0.8393  0.8573
 4152TIP3   OH233946   3.744   0.812   1.268  0.2894 -0.4828 -0.0905
 4152TIP3    H133947   3.724   0.765   1.187  0.5106  0.5490 -0.7481
 4152TIP3    H233948   3.753   0.903   1.242  0.7604 -0.1942  1.0356
 4153TIP3   OH233949   5.351   4.804  15.535  0.7263 -0.6484  0.2821
 4153TIP3    H133950   5.283   4.736  15.534  0.4328 -0.3718  0.7614
 4153TIP3    H233951   5.341   4.849  15.451 -0.2477 -0.0705  0.6921
 4154TIP3   OH233952   4.341   2.603  16.706  0.2098 -0.1487 -0.2253
 4154TIP3    H133953   4.251   2.635  16.712  0.2900 -0.0596  0.5958
 4154TIP3    H233954   4.339   2.521  16.756  0.2449 -0.8844 -1.4268
 4155TIP3   OH233955   5.066   0.281   6.033  0.2341  0.1258 -0.4343
 4155TIP3    H133956   5.100   0.363   5.998 -0.6843 -0.0659 -1.8123
 4155TIP3    H233957   5.102   0.276   6.122  2.2976  0.8184 -1.2046
 4156TIP3   OH233958   3.156   0.155  13.267 -0.4029 -0.1422  0.4468
 4156TIP3    H133959   3.250   0.165  13.248 -0.8423 -1.2253 -2.4289
 4156TIP3    H233960   3.131   0.239  13.305  1.9915 -0.2838  2.5363
 4157TIP3   OH233961   4.927   0.057  15.838 -0.8329 -0.3067  0.4595
 4157TIP3    H133962   4.977  -0.024  15.845  0.5496  0.4661 -0.1822
 4157TIP3    H233963   4.988   0.125  15.865 -0.7582  0.9284 -2.6267
 4158TIP3   OH233964   4.167   1.764  11.418  0.5092 -0.0427  0.1327
 4158TIP3    H133965   4.231   1.829  11.389  0.5254 -0.1846 -0.1446
 4158TIP3    H233966   4.085   1.790  11.376  0.4820 -0.1142  0.1400
 4159TIP3   OH233967   2.405   0.791   3.208  0.8627 -0.2011 -0.1456
 4159TIP3    H133968   2.317   0.825   3.220 -0.0016 -2.0469 -1.1405
 4159TIP3    H233969   2.415   0.724   3.275  1.3899 -0.2418 -0.2599
 4160TIP3   OH233970   5.168   4.802   2.454  0.1253 -0.2811 -0.3394
 4160TIP3    H133971   5.112   4.860   2.401 -0.1706 -1.5208 -1.4042
 4160TIP3    H233972   5.233   4.861   2.493 -1.1288  1.0061 -0.1036
 4161TIP3   OH233973   6.152   6.134   4.437  0.0923  0.0847  0.4576
 4161TIP3    H133974   6.216   6.147   4.366 -1.0598  1.5336 -0.3415
 4161TIP3    H233975   6.113   6.049   4.418 -0.1141  0.4035 -0.5992
 4162TIP3   OH233976   5.782   5.787   4.613 -0.0389 -0.5917 -0.1732
 4162TIP3    H133977   5.712   5.796   4.549 -0.9030 -0.7508  0.7402
 4162TIP3    H233978   5.737   5.778   4.697  1.1227  2.3314  0.8311
 4163TIP3   OH233979   0.517   2.782   2.469 -0.3585  0.4460  0.9096
 4163TIP3    H133980   0.456   2.848   2.438 -0.2347 -0.1086 -0.5775
 4163TIP3    H233981   0.514   2.713   2.402 -0.6510 -1.1543  2.5207
 4164TIP3   OH233982   3.883   4.542   4.836 -0.0234  0.4183 -0.2314
 4164TIP3    H133983   3.930   4.618   4.871  1.0684 -0.1437 -0.4384
 4164TIP3    H233984   3.791   4.569   4.833 -0.0524  0.7222  2.3899
 4165TIP3   OH233985   6.485   2.313  14.566 -0.4228 -0.8486 -0.7817
 4165TIP3    H133986   6.473   2.289  14.474  1.5465  0.0731 -1.3141
 4165TIP3    H233987   6.542   2.245  14.602  0.3587 -0.1998 -0.7612
 4166TIP3   OH233988   5.582   6.075   1.527 -0.2519 -0.4491  0.1346
 4166TIP3    H133989   5.600   6.166   1.502 -0.7313 -0.2964  0.3527
 4166TIP3    H233990   5.669   6.038   1.545  0.0144 -0.2695 -0.7488
 4167TIP3   OH233991   1.840   3.523   1.289 -0.2670  0.9377 -0.5359
 4167TIP3    H133992   1.853   3.605   1.242 -4.7143  1.3344 -1.2457
 4167TIP3    H233993   1.747   3.520   1.308  0.4831 -1.8658  3.4466
 4168TIP3   OH233994   6.268   2.196   0.384  0.0068  0.1828  0.0359
 4168TIP3    H133995   6.260   2.163   0.473 -0.4436 -0.2653 -0.1737
 4168TIP3    H233996   6.251   2.290   0.392  0.8344  0.2962  0.5564
 4169TIP3   OH233997   5.135   1.939   0.288  0.0016 -0.0040 -0.1127
 4169TIP3    H133998   5.159   1.852   0.320  2.3636  0.1580 -1.2779
 4169TIP3    H233999   5.055   1.961   0.335  0.9549 -1.5943  2.3840
 4170TIP3   OH234000   6.156   6.716   6.194 -0.5539 -0.4759 -0.0199
 4170TIP3    H134001   6.191   6.662   6.124  0.7132 -0.3199  0.4865
 4170TIP3    H234002   6.197   6.801   6.181  1.8615 -1.2042  2.5728
 4171TIP3   OH234003   6.583   4.063   6.380  0.6379 -0.0833 -0.1677
 4171TIP3    H134004   6.614   4.127   6.444 -0.3084  2.0160 -1.7141
 4171TIP3    H234005   6.493   4.045   6.405  0.0893  1.1599 -1.1861
 4172TIP3   OH234006   3.433   4.556   3.059 -0.0221 -0.5155  0.0308
 4172TIP3    H134007   3.351   4.543   3.010 -1.3966  2.3215  1.4356
 4172TIP3    H234008   3.410   4.537   3.150  1.5226 -2.0170  0.1279
 4173TIP3   OH234009   2.857   5.351   5.288 -0.3020  0.0341 -0.2849
 4173TIP3    H134010   2.936   5.378   5.335 -1.8919  1.4053  1.6919
 4173TIP3    H234011   2.857   5.255   5.294  0.1448  0.1228  1.5426
 4174TIP3   OH234012   0.827   2.528   5.249  0.1998  0.2359  0.0239
 4174TIP3    H134013   0.904   2.584   5.243  0.0139  0.3123 -1.9372
 4174TIP3    H234014   0.753   2.588   5.235 -0.1262 -0.1241  0.2075
 4175TIP3   OH234015   4.924   3.472  17.019  0.5894  0.5051 -0.1619
 4175TIP3    H134016   4.887   3.423  16.946 -0.1085  0.4792  0.2083
 4175TIP3    H234017   4.961   3.405  17.077  0.3326  0.4652 -0.0432
 4176TIP3   OH234018   1.058   4.863   0.103 -0.0156  0.0052  0.3361
 4176TIP3    H134019   1.110   4.787   0.129 -0.0424  0.0094  0.4029
 4176TIP3    H234020   1.119   4.936   0.102 -0.1051  0.0882  0.8135
 4177TIP3   OH234021   0.954   6.551  11.724 -0.0858  0.4319 -0.1438
 4177TIP3    H134022   1.044   6.534  11.751 -0.2294 -0.4056 -0.1722
 4177TIP3    H234023   0.931   6.633  11.767  0.5855  0.4896  0.1120
 4178TIP3   OH234024   6.021   1.816  10.991  0.3959  0.2375  0.3116
 4178TIP3    H134025   5.966   1.789  10.917  0.8605  0.7755 -0.2324
 4178TIP3    H234026   5.960   1.821  11.065 -0.5007  1.8169 -0.4917
 4179TIP3   OH234027   0.819   1.401  16.392  0.2305  0.4379  0.2909
 4179TIP3    H134028   0.734   1.357  16.387 -0.1351  1.1807 -0.1949
 4179TIP3    H234029   0.849   1.408  16.301  1.9327 -1.9321  0.6389
 4180TIP3   OH234030   6.131   0.974   2.690 -0.0929 -0.7584  0.3131
 4180TIP3    H134031   6.049   0.952   2.733  0.6111 -0.1702  1.9852
 4180TIP3    H234032   6.109   1.046   2.631 -0.9063 -1.0659  0.2393
 4181TIP3   OH234033   1.102   0.497   6.056 -0.1960  0.1334  0.3508
 4181TIP3    H134034   1.184   0.545   6.066  0.1942 -0.5466  0.4625
 4181TIP3    H234035   1.112   0.421   6.113 -0.0168 -1.1117 -1.3067
 4182TIP3   OH234036   0.142   4.761  16.805 -0.3565 -0.1701 -0.1235
 4182TIP3    H134037   0.131   4.762  16.900  2.0344 -0.8913  0.2008
 4182TIP3    H234038   0.158   4.668  16.784  2.0201  0.3454 -0.8138
 4183TIP3   OH234039   6.370   3.060  12.033  0.5658 -0.1090  0.0072
 4183TIP3    H134040   6.313   3.089  11.962  1.6509  1.1137 -0.3812
 4183TIP3    H234041   6.383   2.967  12.017  0.1384 -0.0141 -0.9273
 4184TIP3   OH234042   1.119   1.654  15.578  0.2725 -0.4035 -0.3746
 4184TIP3    H134043   1.045   1.641  15.637  1.2063  0.5188  1.0291
 4184TIP3    H234044   1.196   1.643  15.634  1.1659  2.1484 -1.0496
 4185TIP3   OH234045   4.953   4.811   1.782 -0.5813 -0.0844  0.5834
 4185TIP3    H134046   4.909   4.855   1.709  1.1712  0.6098 -0.0778
 4185TIP3    H234047   5.027   4.868   1.803 -1.5517  0.1750  3.4811
 4186TIP3   OH234048   0.761   4.771   6.153 -0.0840  0.2108  0.3419
 4186TIP3    H134049   0.712   4.785   6.234  1.3414  0.9769  1.0782
 4186TIP3    H234050   0.714   4.822   6.087 -1.4284 -0.6596  0.6087
 4187TIP3   OH234051   6.528   4.527   2.134  0.4320  0.8162  0.7819
 4187TIP3    H134052   6.456   4.470   2.107  0.0347  1.3871  0.6322
 4187TIP3    H234053   6.606   4.474   2.121 -0.0417 -0.2626  2.1402
 4188TIP3   OH234054   0.941   6.428   1.900  0.4164  0.0277 -0.2871
 4188TIP3    H134055   1.013   6.489   1.914  0.5877 -0.1404 -0.4382
 4188TIP3    H234056   0.968   6.348   1.943 -0.7655  0.7306  1.8510
 4189TIP3   OH234057   1.103   3.654   1.756  0.3392  0.2015 -0.0702
 4189TIP3    H134058   1.059   3.736   1.780 -1.9707 -0.9734 -0.1447
 4189TIP3    H234059   1.043   3.586   1.787  2.2466 -1.4565 -0.0012
 4190TIP3   OH234060   0.946   3.759  14.204  0.1977 -0.8373 -0.4185
 4190TIP3    H134061   0.971   3.761  14.296  0.5128  0.8451 -0.5164
 4190TIP3    H234062   0.885   3.832  14.193  0.8603 -0.4472 -1.7190
 4191TIP3   OH234063   5.338   6.726  16.396  0.1195  0.0791  0.5550
 4191TIP3    H134064   5.293   6.798  16.440 -0.2053  0.0777  0.2333
 4191TIP3    H234065   5.397   6.690  16.462 -1.5113 -0.9410  1.4758
 4192TIP3   OH234066   2.889   1.058   1.443  0.9370 -0.6155 -0.4565
 4192TIP3    H134067   2.983   1.077   1.451  0.8220  0.3374 -1.3141
 4192TIP3    H234068   2.884   0.962   1.450  1.8509 -0.5953  0.7607
 4193TIP3   OH234069   1.600   1.884   0.054 -0.3446 -0.0657  0.5954
 4193TIP3    H134070   1.526   1.836   0.090  0.1757 -0.7940  0.7259
 4193TIP3    H234071   1.633   1.936   0.127  0.4301 -1.1941  1.0751
 4194TIP3   OH234072   6.347   1.033  11.700 -0.0653 -0.8513 -0.1787
 4194TIP3    H134073   6.304   1.071  11.623  1.4807 -1.8782 -1.5786
 4194TIP3    H234074   6.296   0.954  11.719 -2.2276  0.9130  1.6796
 4195TIP3   OH234075   4.513   0.097  11.719  0.2369 -1.1545 -0.1185
 4195TIP3    H134076   4.607   0.085  11.727  0.1931 -2.2542 -1.0462
 4195TIP3    H234077   4.503   0.155  11.643  0.3564  3.2747  3.0632
 4196TIP3   OH234078   1.377   0.689   1.019 -0.2992  0.5612  0.6116
 4196TIP3    H134079   1.443   0.742   0.975  0.9524  0.3900  2.2089
 4196TIP3    H234080   1.372   0.609   0.968 -0.1132  1.0440 -0.1782
 4197TIP3   OH234081   3.596   0.758   0.508 -0.3226 -0.6102  0.1657
 4197TIP3    H134082   3.601   0.834   0.449 -0.1000 -0.0652  0.8655
 4197TIP3    H234083   3.594   0.682   0.450  2.2512 -0.2040 -0.5298
 4198TIP3   OH234084   4.281   4.697  16.130  0.1403  0.1679 -0.1926
 4198TIP3    H134085   4.304   4.775  16.180  0.0630  0.4056 -0.5291
 4198TIP3    H234086   4.360   4.677  16.079  0.4978 -0.5401  0.6217
 4199TIP3   OH234087   4.459   5.341   0.970 -0.2024 -0.2587  0.1198
 4199TIP3    H134088   4.430   5.272   0.909 -0.6764 -1.3759  1.5725
 4199TIP3    H234089   4.515   5.295   1.032  3.3110  1.5675 -1.6009
 4200TIP3   OH234090   1.273   5.737  15.844 -0.7247  0.0546  0.0616
 4200TIP3    H134091   1.214   5.787  15.901 -1.0231 -0.3918  0.1512
 4200TIP3    H234092   1.301   5.663  15.899 -0.7766 -0.2143 -0.2764
 4201TIP3   OH234093   2.032   2.827   4.383 -0.1142 -0.1193  0.2334
 4201TIP3    H134094   1.977   2.867   4.451  0.1166  1.8526 -0.6797
 4201TIP3    H234095   2.104   2.890   4.372  0.1414 -0.6984 -1.4253
 4202TIP3   OH234096   3.638   0.791  13.892  0.1120 -0.0054 -0.3773
 4202TIP3    H134097   3.649   0.884  13.872  0.6758 -0.4067 -2.0423
 4202TIP3    H234098   3.555   0.786  13.939  0.6627  1.4814  0.8009
 4203TIP3   OH234099   5.141   2.169  15.689  0.0113  0.1080 -0.9340
 4203TIP3    H134100   5.148   2.076  15.666  1.6653  0.8343 -3.6166
 4203TIP3    H234101   5.175   2.175  15.778  0.6742 -1.7186 -1.0502
 4204TIP3   OH234102   6.546   2.876   4.619  0.0245  0.0283  0.5145
 4204TIP3    H134103   6.461   2.920   4.625  0.1113  0.0076  1.9893
 4204TIP3    H234104   6.546   2.836   4.532 -0.0985  2.8281 -0.8460
 4205TIP3   OH234105   1.655   5.365   4.068  0.0836 -0.2981 -0.1612
 4205TIP3    H134106   1.609   5.410   3.998 -0.4724  0.6757  0.8002
 4205TIP3    H234107   1.745   5.398   4.063  0.8928 -2.6983 -2.4575
 4206TIP3   OH234108   4.140   6.559   3.544  0.0231 -0.2019  0.1331
 4206TIP3    H134109   4.197   6.610   3.602 -0.2671 -0.4332  0.6264
 4206TIP3    H234110   4.197   6.491   3.508 -0.8333 -2.9445  3.7582
 4207TIP3   OH234111   2.318   3.339   4.952  0.1441  0.4686  0.0287
 4207TIP3    H134112   2.308   3.402   5.023 -0.6389 -0.5308  0.8402
 4207TIP3    H234113   2.385   3.278   4.984 -1.4009 -0.9408  0.6468
 4208TIP3   OH234114   5.073   6.362  13.271 -0.3828  0.2892  0.3594
 4208TIP3    H134115   5.072   6.360  13.175  0.1282  2.3797  0.3022
 4208TIP3    H234116   5.148   6.417  13.294 -1.0888  0.6217  1.9350
 4209TIP3   OH234117   0.220   5.593  15.613 -0.3848 -0.0093  0.2278
 4209TIP3    H134118   0.191   5.510  15.576 -0.2933 -0.5510  1.3356
 4209TIP3    H234119   0.144   5.651  15.606 -0.8018 -0.5246  0.4372
 4210TIP3   OH234120   0.776   6.340   2.224  0.5774 -0.2743  0.3723
 4210TIP3    H134121   0.822   6.377   2.299 -1.0226  0.5176  1.0018
 4210TIP3    H234122   0.719   6.273   2.262 -2.1860  1.9074  0.2785
 4211TIP3   OH234123   5.856   3.585   3.744 -0.2483 -0.1557  0.3273
 4211TIP3    H134124   5.821   3.499   3.767  1.1987 -1.3234 -1.6707
 4211TIP3    H234125   5.843   3.638   3.823 -0.8751 -2.2741  1.7006
 4212TIP3   OH234126   4.307   3.945   0.942  0.3640 -0.0502  0.1037
 4212TIP3    H134127   4.366   3.885   0.896 -0.3502 -0.1028 -0.7486
 4212TIP3    H234128   4.364   4.016   0.972  0.5943  0.8514 -2.3210
 4213TIP3   OH234129   2.451   4.160  16.632 -0.1540 -0.2464 -0.1022
 4213TIP3    H134130   2.408   4.091  16.682 -0.6904  0.7067  0.7675
 4213TIP3    H234131   2.539   4.164  16.668  0.1377 -1.0088 -0.7013
 4214TIP3   OH234132   0.227   4.860  12.782  0.1754 -0.4734  0.5779
 4214TIP3    H134133   0.159   4.926  12.765 -2.3166 -3.1502 -0.2753
 4214TIP3    H234134   0.262   4.839  12.696  0.3778 -0.8486  0.7506
 4215TIP3   OH234135   1.743   4.948   0.511 -0.5576  0.1420 -0.2388
 4215TIP3    H134136   1.818   4.919   0.562 -0.2128  1.2428 -0.1135
 4215TIP3    H234137   1.668   4.906   0.553 -0.2688  0.9543  1.1410
 4216TIP3   OH234138   1.125   4.959   4.163 -0.7667 -0.4611  0.0118
 4216TIP3    H134139   1.130   4.876   4.115 -0.0058  0.7162 -2.0144
 4216TIP3    H234140   1.076   5.017   4.105  1.4980  1.4406 -0.0683
 4217TIP3   OH234141   0.617   0.249  12.320  0.4876 -0.0222  0.0998
 4217TIP3    H134142   0.638   0.312  12.251  0.3061  2.1543  1.9682
 4217TIP3    H234143   0.702   0.226  12.358  0.4137  0.3404  0.4815
 4218TIP3   OH234144   3.166   1.816   5.752  0.1921  0.1120 -0.0741
 4218TIP3    H134145   3.092   1.833   5.693 -1.3516  0.1757  1.8572
 4218TIP3    H234146   3.242   1.811   5.693 -1.4848 -1.1249 -2.2344
 4219TIP3   OH234147   4.197   6.054   2.727 -0.3930 -0.3807 -0.2481
 4219TIP3    H134148   4.145   6.066   2.648 -0.8803  0.5570  0.1970
 4219TIP3    H234149   4.146   6.097   2.796  0.5807 -0.1520  0.3497
 4220TIP3   OH234150   3.823   1.567  11.373  0.2725  0.0322 -0.1729
 4220TIP3    H134151   3.877   1.495  11.406 -1.3694 -0.5036  1.4535
 4220TIP3    H234152   3.816   1.550  11.279  1.0068 -1.1937 -0.0218
 4221TIP3   OH234153   1.902   5.247  16.637  0.2364  0.1666 -0.3496
 4221TIP3    H134154   1.933   5.333  16.610  1.1440 -0.2657 -0.7477
 4221TIP3    H234155   1.910   5.193  16.557  0.5626 -0.5093  0.1323
 4222TIP3   OH234156   3.335   3.193   3.379  0.0414  0.1344 -0.5371
 4222TIP3    H134157   3.287   3.260   3.427  0.3305 -1.2157  1.7014
 4222TIP3    H234158   3.390   3.151   3.445 -2.5225 -4.4869 -1.1518
 4223TIP3   OH234159   4.554   4.584  15.981  0.3522 -0.4102  0.1470
 4223TIP3    H134160   4.614   4.648  16.020  2.7747 -2.3694 -0.2331
 4223TIP3    H234161   4.589   4.571  15.892  0.1503 -2.5740  0.3735
 4224TIP3   OH234162   6.398   3.810  11.711  0.2995 -0.3319 -0.6856
 4224TIP3    H134163   6.467   3.750  11.738 -0.2951 -0.1391  1.2867
 4224TIP3    H234164   6.444   3.892  11.693  0.7635 -0.6147 -0.8022
 4225TIP3   OH234165   1.342   1.850  13.031  0.5073  0.2056  0.2656
 4225TIP3    H134166   1.326   1.839  12.937  0.5791  1.8023  0.0543
 4225TIP3    H234167   1.396   1.928  13.037 -0.8764  1.0666  1.7655
 4226TIP3   OH234168   0.670   4.751   3.070  0.0460  0.0095 -0.5516
 4226TIP3    H134169   0.641   4.816   3.006 -1.2274 -0.9087 -0.9202
 4226TIP3    H234170   0.630   4.778   3.152 -0.2993 -0.1931 -0.6559
 4227TIP3   OH234171   6.060   6.450   0.613 -1.3539  0.2347  0.0197
 4227TIP3    H134172   6.007   6.440   0.693  0.4290 -0.1427  1.1700
 4227TIP3    H234173   6.122   6.378   0.617 -0.5528  0.8523 -1.1786
 4228TIP3   OH234174   5.811   1.413   5.779  0.2374 -0.4247 -0.0516
 4228TIP3    H134175   5.866   1.363   5.718  0.8836  0.6689 -0.3841
 4228TIP3    H234176   5.728   1.366   5.779  1.1271 -2.0516  0.3861
 4229TIP3   OH234177   4.777   5.673   6.028  0.1731  0.0951 -0.1829
 4229TIP3    H134178   4.824   5.756   6.031  0.8369 -0.2323 -1.0702
 4229TIP3    H234179   4.840   5.612   5.988  0.0105 -1.0324  1.2559
 4230TIP3   OH234180   0.519   5.285  16.502 -0.1758  0.3464  0.3659
 4230TIP3    H134181   0.423   5.278  16.509 -0.1236 -0.6900  0.0684
 4230TIP3    H234182   0.550   5.196  16.514  0.8743  0.9321  2.2494
 4231TIP3   OH234183   5.430   3.664   2.657 -0.7780  0.4039  0.3006
 4231TIP3    H134184   5.338   3.686   2.676 -1.4806 -0.4516 -1.9794
 4231TIP3    H234185   5.432   3.650   2.563  1.5402 -0.4680  0.4581
 4232TIP3   OH234186   6.263   0.615  16.239  0.3584 -0.7871 -0.0623
 4232TIP3    H134187   6.356   0.606  16.216  0.4755  0.5795 -0.1821
 4232TIP3    H234188   6.221   0.645  16.158  0.2282  0.8932  0.6070
 4233TIP3   OH234189   1.254   1.515   4.071 -0.2609 -0.2159  0.1861
 4233TIP3    H134190   1.345   1.544   4.078  0.0362 -0.6498 -1.5301
 4233TIP3    H234191   1.202   1.595   4.081  0.4295  0.4895 -1.7345
 4234TIP3   OH234192   0.239   4.657  12.946  0.0907  0.0638 -0.5331
 4234TIP3    H134193   0.223   4.681  13.037  2.3946  0.7330 -0.2733
 4234TIP3    H234194   0.240   4.740  12.899  2.3015  0.0332 -0.5859
 4235TIP3   OH234195   1.001   1.410   0.163 -0.2972 -0.1746  0.0562
 4235TIP3    H134196   0.922   1.418   0.217  1.1819 -0.1735  2.3155
 4235TIP3    H234197   0.983   1.337   0.104 -2.0973  0.0296  0.3330
 4236TIP3   OH234198   6.553   0.612  17.170  0.0533 -0.2872  0.4621
 4236TIP3    H134199   6.476   0.555  17.164 -0.9457  0.8184  2.3635
 4236TIP3    H234200   6.585   0.600  17.259  0.4751  1.2978  0.5324
 4237TIP3   OH234201   2.444   1.995   2.562 -0.2997 -0.5701 -0.5395
 4237TIP3    H134202   2.362   1.949   2.549  0.4341 -2.7026  1.8840
 4237TIP3    H234203   2.503   1.959   2.497 -0.2724 -1.7164  0.1079
 4238TIP3   OH234204   0.809   4.927  16.942  0.0154  0.1210  0.1644
 4238TIP3    H134205   0.901   4.902  16.931 -0.2179 -0.5290 -0.3452
 4238TIP3    H234206   0.775   4.935  16.853 -0.7335 -0.8219  0.3562
 4239TIP3   OH234207   1.250   5.691  13.674  0.5754  0.2276 -0.0952
 4239TIP3    H134208   1.185   5.755  13.645  0.8013 -0.1500 -1.4491
 4239TIP3    H234209   1.204   5.636  13.737  0.0521  0.9799  0.1892
 4240TIP3   OH234210   1.509   4.873   6.181 -0.1797  0.1659 -0.5252
 4240TIP3    H134211   1.442   4.843   6.120 -1.3769 -0.8906  1.2837
 4240TIP3    H234212   1.561   4.795   6.199  1.1543  0.8341 -1.4122
 4241TIP3   OH234213   1.890   5.639  10.981  0.3006 -0.0388  0.4982
 4241TIP3    H134214   1.888   5.667  10.890  2.6436 -0.2794  0.3418
 4241TIP3    H234215   1.935   5.555  10.979 -2.9845 -1.9278  1.4598
 4242TIP3   OH234216   2.787   3.020  15.769 -0.6194  0.0437  0.0770
 4242TIP3    H134217   2.768   3.106  15.732 -0.6342 -0.3553 -0.8650
 4242TIP3    H234218   2.814   2.967  15.693  0.0815 -0.5733  0.7565
 4243TIP3   OH234219   5.660   0.740  13.409  0.3106  0.2985  0.2623
 4243TIP3    H134220   5.654   0.757  13.503 -0.9062 -0.1998  0.2890
 4243TIP3    H234221   5.595   0.671  13.393  1.8812 -1.0346 -0.6053
 4244TIP3   OH234222   2.815   3.951   2.833 -0.0925  0.4627  0.4124
 4244TIP3    H134223   2.754   4.005   2.884 -0.2378  0.6805  0.0099
 4244TIP3    H234224   2.758   3.897   2.778  0.0821  0.7766 -0.0775
 4245TIP3   OH234225   4.147   1.712  10.672  0.0126  0.2449 -0.3774
 4245TIP3    H134226   4.203   1.771  10.622  0.7437 -2.0935 -2.3928
 4245TIP3    H234227   4.058   1.741  10.651  0.3502  0.1820 -1.9240
 4246TIP3   OH234228   4.152   2.975   4.092  0.1769 -0.1328 -0.8286
 4246TIP3    H134229   4.242   2.941   4.089  0.3467  0.3527 -1.6185
 4246TIP3    H234230   4.115   2.950   4.007 -0.7339 -1.1264 -0.1381
 4247TIP3   OH234231   1.441   2.960   4.930  0.3149 -0.2080  0.4883
 4247TIP3    H134232   1.360   3.002   4.900  1.1459  1.5327  0.6025
 4247TIP3    H234233   1.429   2.949   5.024 -0.3301 -1.2155  0.2973
 4248TIP3   OH234234   1.710   3.755   1.989 -0.2829 -0.1671 -0.1008
 4248TIP3    H134235   1.714   3.669   2.033  1.0559  0.0278  0.1501
 4248TIP3    H234236   1.716   3.818   2.060 -1.2918  0.1537 -0.2874
 4249TIP3   OH234237   6.281   3.943   5.325  0.6929 -0.3739  0.3769
 4249TIP3    H134238   6.304   3.860   5.284  0.1064  0.0723 -0.8696
 4249TIP3    H234239   6.345   4.005   5.291 -0.6405  0.2872 -0.9494
 4250TIP3   OH234240   2.229   6.254  15.783  0.0168  0.3101 -0.1746
 4250TIP3    H134241   2.256   6.232  15.873 -1.6253  2.0490  0.7790
 4250TIP3    H234242   2.221   6.170  15.739  2.1489 -0.4936  0.9249
 4251TIP3   OH234243   4.652   2.815   2.705 -0.1772  0.3168  0.1104
 4251TIP3    H134244   4.640   2.741   2.646  0.2485  0.7651 -0.5564
 4251TIP3    H234245   4.565   2.850   2.719 -0.2818  0.1950 -0.2408
 4252TIP3   OH234246   6.636   4.737  16.952 -0.1704  0.6132  0.2756
 4252TIP3    H134247   6.678   4.665  16.904 -2.7231 -0.9642  0.2805
 4252TIP3    H234248   6.669   4.729  17.042 -1.2169 -1.2505  0.5212
 4253TIP3   OH234249   0.951   4.493   2.940 -0.5402 -0.1595  0.3962
 4253TIP3    H134250   0.950   4.574   2.991  0.2660 -0.3925  0.7881
 4253TIP3    H234251   1.021   4.505   2.876  0.3741 -1.0048  1.2160
 4254TIP3   OH234252   4.786   3.217   5.309  0.6061 -0.5605  0.6662
 4254TIP3    H134253   4.715   3.169   5.351 -0.2382 -0.1379 -0.2531
 4254TIP3    H234254   4.743   3.270   5.242  2.0909 -2.5541 -1.9743
 4255TIP3   OH234255   1.253   1.552   2.169 -0.7662  0.2428  0.2026
 4255TIP3    H134256   1.304   1.493   2.114 -2.3003 -1.0497  0.1432
 4255TIP3    H234257   1.214   1.495   2.236 -1.4954  1.3237  0.7164
 4256TIP3   OH234258   4.785   2.895  16.475 -0.1980  0.2984 -0.0529
 4256TIP3    H134259   4.810   2.866  16.563 -0.4115 -2.9249 -1.0116
 4256TIP3    H234260   4.691   2.879  16.470  0.1023 -1.1434 -1.4356
 4257TIP3   OH234261   1.762   3.684   4.247 -0.7501  0.3701 -0.1634
 4257TIP3    H134262   1.720   3.654   4.166  0.8262 -3.1900  0.2153
 4257TIP3    H234263   1.717   3.636   4.316  0.6790  0.2252  0.6795
 4258TIP3   OH234264   2.142   5.127  13.891  0.0641  0.1077  0.1492
 4258TIP3    H134265   2.068   5.109  13.949  0.0965 -1.4882 -0.2923
 4258TIP3    H234266   2.189   5.197  13.935 -1.6443  1.0753  0.4919
 4259TIP3   OH234267   2.977   3.628   0.550 -0.3940  0.1251  0.3536
 4259TIP3    H134268   2.892   3.647   0.589 -0.5128  0.2810  0.0237
 4259TIP3    H234269   2.957   3.603   0.460 -0.1740 -0.8531  0.5770
 4260TIP3   OH234270   3.463   4.474   2.711 -0.4334 -0.6977  0.5845
 4260TIP3    H134271   3.498   4.393   2.748  1.6340  0.0927  0.4224
 4260TIP3    H234272   3.508   4.543   2.759  1.2609  0.3543 -2.3519
 4261TIP3   OH234273   1.123   3.589   0.446 -0.4958 -0.0277 -0.2092
 4261TIP3    H134274   1.197   3.648   0.431  0.9104 -1.1840  1.9539
 4261TIP3    H234275   1.080   3.624   0.523 -1.2088 -0.3415 -0.4660
 4262TIP3   OH234276   4.626   4.054   5.705  0.0162 -0.1291 -0.4471
 4262TIP3    H134277   4.533   4.057   5.728  0.1645  0.9667  0.0371
 4262TIP3    H234278   4.653   3.965   5.729 -1.0057 -0.6088 -1.0190
 4263TIP3   OH234279   2.630   4.124  15.106 -0.3063 -0.0797 -0.6473
 4263TIP3    H134280   2.587   4.166  15.031 -0.8646 -0.0744 -0.3267
 4263TIP3    H234281   2.710   4.176  15.120 -1.4508  1.4794  0.3420
 4264TIP3   OH234282   6.529   6.299  12.971  0.0271  0.3801 -0.1573
 4264TIP3    H134283   6.450   6.318  13.022 -0.5289 -0.9263 -0.4922
 4264TIP3    H234284   6.542   6.205  12.983  1.6970  0.6339  0.1175
 4265TIP3   OH234285   3.750   0.769   5.674 -0.2581  0.1628  0.5446
 4265TIP3    H134286   3.823   0.758   5.735 -0.7090 -1.1885  0.8853
 4265TIP3    H234287   3.672   0.770   5.731 -0.5284  1.1798  0.1594
 4266TIP3   OH234288   2.283   6.642   0.943  0.0845 -0.0685  0.0403
 4266TIP3    H134289   2.200   6.602   0.969  0.2433  1.3503  2.8951
 4266TIP3    H234290   2.285   6.632   0.847 -3.0598 -0.6960 -0.0261
 4267TIP3   OH234291   1.547   3.599  12.740 -0.0181  0.0730  0.5346
 4267TIP3    H134292   1.588   3.513  12.740  0.1139  0.1212 -0.6632
 4267TIP3    H234293   1.510   3.608  12.828  0.3945 -0.9940  0.8299
 4268TIP3   OH234294   4.768   2.086  15.315 -0.1427  0.2809 -0.1973
 4268TIP3    H134295   4.724   2.017  15.266  0.5110  1.8664 -3.1351
 4268TIP3    H234296   4.697   2.137  15.355 -0.6774 -1.0480  0.5733
 4269TIP3   OH234297   1.742   0.872  17.125 -0.6457 -0.6419  0.5282
 4269TIP3    H134298   1.799   0.950  17.121  0.5553 -1.4988  0.6619
 4269TIP3    H234299   1.667   0.895  17.070  0.2089  0.2046 -0.3098
 4270TIP3   OH234300   0.185   3.382   3.060 -0.3027  0.3125  0.0106
 4270TIP3    H134301   0.097   3.371   3.095 -0.7572  0.4195 -1.0848
 4270TIP3    H234302   0.177   3.363   2.967  0.8158  0.4167 -0.1200
 4271TIP3   OH234303   1.018   3.267   3.101 -0.2976 -0.3070 -0.1015
 4271TIP3    H134304   1.014   3.232   3.190 -0.7668  1.2682  0.5212
 4271TIP3    H234305   1.104   3.241   3.069  0.6828  0.8012  1.5420
 4272TIP3   OH234306   5.868   3.450  13.339 -0.6910  0.2909 -0.5655
 4272TIP3    H134307   5.861   3.545  13.350  1.4326  0.6315 -1.9186
 4272TIP3    H234308   5.954   3.428  13.375  0.3637 -0.5804 -3.4821
 4273TIP3   OH234309   5.398   1.369   3.511  0.2324 -0.2788 -0.0156
 4273TIP3    H134310   5.422   1.446   3.461  1.8425  0.0211  1.1945
 4273TIP3    H234311   5.410   1.394   3.602  0.1586 -1.7506  0.4203
 4274TIP3   OH234312   5.577   3.933   2.690  0.2068 -0.2270  0.1555
 4274TIP3    H134313   5.508   3.866   2.694 -1.5777  1.5699  0.4135
 4274TIP3    H234314   5.555   3.993   2.761  2.0738  0.3761  0.2280
 4275TIP3   OH234315   3.649   3.744  14.331  0.0317 -0.0354 -0.2187
 4275TIP3    H134316   3.611   3.666  14.291 -1.8913  0.8748 -0.2071
 4275TIP3    H234317   3.595   3.816  14.299  0.3879  1.0364  1.5447
 4276TIP3   OH234318   5.131   2.370   2.747  0.1149  0.0319 -0.3340
 4276TIP3    H134319   5.214   2.390   2.790  0.7247  0.1343 -1.5164
 4276TIP3    H234320   5.068   2.432   2.785  0.7416  0.4419  0.0449
 4277TIP3   OH234321   6.711   2.224   3.001 -0.3378  0.2957  0.1229
 4277TIP3    H134322   6.786   2.194   2.949 -1.2033 -0.0330 -0.9335
 4277TIP3    H234323   6.750   2.247   3.086  0.8286 -0.8012 -0.0828
 4278TIP3   OH234324   0.075   2.777  13.053 -0.3850  0.6145 -0.3082
 4278TIP3    H134325   0.118   2.730  12.981 -0.8396  1.8219 -1.3872
 4278TIP3    H234326   0.050   2.708  13.114  0.0691 -0.4349 -1.2738
 4279TIP3   OH234327   0.810   2.788   0.291 -0.5989  0.5236 -0.6406
 4279TIP3    H134328   0.739   2.852   0.296 -0.0544  1.0377  0.7986
 4279TIP3    H234329   0.777   2.720   0.232 -2.4817  0.4783  0.4334
 4280TIP3   OH234330   0.309   4.716   0.473  0.0779  0.2943  0.1934
 4280TIP3    H134331   0.384   4.768   0.500  0.7641 -0.4623 -0.2394
 4280TIP3    H234332   0.290   4.745   0.384  1.3356 -1.1396 -0.5776
 4281TIP3   OH234333   1.861   0.042   3.172  0.1257 -0.0019 -0.2404
 4281TIP3    H134334   1.830   0.001   3.253 -0.9688 -0.7414 -1.0191
 4281TIP3    H234335   1.955   0.023   3.171 -0.1056 -1.2463  0.1390
 4282TIP3   OH234336   5.101   3.266  15.305 -0.5602 -0.0375 -0.1263
 4282TIP3    H134337   5.143   3.186  15.273  0.7385  0.8217 -0.5688
 4282TIP3    H234338   5.091   3.321  15.228  1.5970  1.5910  0.7295
 4283TIP3   OH234339   3.377   5.120  14.409 -0.1124 -0.2834  0.1641
 4283TIP3    H134340   3.388   5.112  14.314 -0.4213 -0.4793  0.1416
 4283TIP3    H234341   3.419   5.042  14.445 -0.3339 -0.4105  0.1568
 4284TIP3   OH234342   4.930   5.871  11.827  0.1534  0.3684  0.0228
 4284TIP3    H134343   4.961   5.797  11.775 -2.0672  0.1917 -1.0957
 4284TIP3    H234344   4.903   5.831  11.910 -1.4129 -0.1621 -0.7240
 4285TIP3   OH234345   1.875   4.674  11.577  0.1695  0.4822 -0.9607
 4285TIP3    H134346   1.954   4.626  11.555  1.2278  2.2806 -1.2257
 4285TIP3    H234347   1.807   4.608  11.582  1.8161 -1.1910 -0.0911
 4286TIP3   OH234348   1.252   4.856   4.639  0.3709  0.0122 -0.1335
 4286TIP3    H134349   1.167   4.814   4.647  0.6478 -0.6661 -0.7190
 4286TIP3    H234350   1.257   4.882   4.547 -0.8921  3.6756  0.7625
 4287TIP3   OH234351   0.462   0.552   4.677 -0.0160 -0.2450 -0.3441
 4287TIP3    H134352   0.528   0.483   4.666 -1.0360 -1.5042  1.2043
 4287TIP3    H234353   0.513   0.629   4.702  1.2669 -0.0574 -3.3010
 4288TIP3   OH234354   3.430   3.233  14.394 -0.6142 -0.3810 -0.2104
 4288TIP3    H134355   3.440   3.191  14.479 -0.7638 -0.7090 -0.3520
 4288TIP3    H234356   3.357   3.187  14.353 -0.2733 -0.5114 -0.6862
 4289TIP3   OH234357   1.456   3.789   4.795  0.0762  0.5129  0.3527
 4289TIP3    H134358   1.489   3.709   4.835 -0.3983  0.9514  1.6248
 4289TIP3    H234359   1.523   3.854   4.813  0.3902  0.4444 -0.5483
 4290TIP3   OH234360   0.826   2.907  16.163  0.6717  0.3750 -0.0195
 4290TIP3    H134361   0.782   2.832  16.121 -0.7108  1.3999 -0.4268
 4290TIP3    H234362   0.917   2.901  16.133  0.9041 -1.8939  0.9770
 4291TIP3   OH234363   5.549   6.317  12.154 -0.2039  0.3346  0.0313
 4291TIP3    H134364   5.512   6.242  12.109 -0.3612 -0.7251  1.8613
 4291TIP3    H234365   5.476   6.378  12.164 -0.4053  0.1347 -0.2441
 4292TIP3   OH234366   2.284   0.944  12.816 -0.0619 -0.3001  0.0352
 4292TIP3    H134367   2.359   0.916  12.868 -1.0725 -1.3402  0.9529
 4292TIP3    H234368   2.295   0.900  12.732  0.6706  0.0364 -0.0481
 4293TIP3   OH234369   4.258   2.380   1.274 -0.7408 -0.1303 -0.1832
 4293TIP3    H134370   4.321   2.449   1.292 -1.6181  0.5124  0.5056
 4293TIP3    H234371   4.196   2.419   1.213 -1.4769 -0.1495  0.5361
 4294TIP3   OH234372   0.472   1.015   5.436 -0.3642 -0.5267  0.1951
 4294TIP3    H134373   0.530   1.092   5.437  1.7453 -2.0825  1.3496
 4294TIP3    H234374   0.464   0.993   5.343  1.4776 -0.6783  0.0515
 4295TIP3   OH234375   3.680   3.079   1.238  0.4233 -0.4385 -0.4837
 4295TIP3    H134376   3.612   3.132   1.278  0.8431  0.3931 -0.8484
 4295TIP3    H234377   3.751   3.141   1.220  1.2310 -1.2688 -0.2046
 4296TIP3   OH234378   2.194   4.101   0.334  0.1033 -0.2998  0.1242
 4296TIP3    H134379   2.130   4.146   0.278 -0.8945 -0.7970  0.8369
 4296TIP3    H234380   2.142   4.037   0.382  1.4532 -2.0103 -0.6583
 4297TIP3   OH234381   0.803   5.314   2.717  0.4455 -0.9075  0.1026
 4297TIP3    H134382   0.828   5.226   2.747  1.4754 -0.4474  0.6421
 4297TIP3    H234383   0.858   5.329   2.640  2.2032  0.2820  1.5453
 4298TIP3   OH234384   0.782   1.859  15.553 -0.5964 -0.1167  0.0529
 4298TIP3    H134385   0.762   1.925  15.487  1.5338  1.1745  0.6483
 4298TIP3    H234386   0.790   1.778  15.504 -0.9185  0.4887 -1.0224
 4299TIP3   OH234387   6.160   6.174   2.871 -0.2518  0.5319  0.3591
 4299TIP3    H134388   6.193   6.210   2.954 -1.1894  1.0212  0.5253
 4299TIP3    H234389   6.235   6.178   2.812 -0.1528  2.1509  0.5633
 4300TIP3   OH234390   1.299   3.847   4.104 -0.1563  0.3228 -0.2010
 4300TIP3    H134391   1.271   3.937   4.121 -1.0081 -0.1251  0.8392
 4300TIP3    H234392   1.393   3.847   4.121 -0.7100  0.2475  3.1994
 4301TIP3   OH234393   4.344   5.825   2.636  0.3006 -0.1576  0.4115
 4301TIP3    H134394   4.266   5.879   2.629  0.1123 -0.5560 -0.7304
 4301TIP3    H234395   4.396   5.847   2.559  0.3763 -1.3427  0.1047
 4302TIP3   OH234396   1.903   2.321   5.554 -0.0401  0.1258  0.8457
 4302TIP3    H134397   1.959   2.248   5.529  0.9834  0.6193  1.6905
 4302TIP3    H234398   1.961   2.382   5.600 -1.2982  0.5437  1.9128
 4303TIP3   OH234399   0.147   5.705   1.068 -0.8361 -0.5017 -0.5964
 4303TIP3    H134400   0.184   5.784   1.029 -0.2301 -0.1695  0.6234
 4303TIP3    H234401   0.146   5.723   1.162  1.0203 -2.6144 -0.1118
 4304TIP3   OH234402   1.521   1.670  15.571  0.2749 -0.1943  0.6842
 4304TIP3    H134403   1.490   1.733  15.506  1.6335 -0.7701 -0.5458
 4304TIP3    H234404   1.615   1.686  15.576  0.5332 -1.7403  0.7812
 4305TIP3   OH234405   4.139   5.642   1.086 -0.5624 -0.0013  0.1529
 4305TIP3    H134406   4.062   5.671   1.136 -1.7557 -1.1654 -0.9802
 4305TIP3    H234407   4.151   5.551   1.111 -0.1221 -0.0963 -0.3991
 4306TIP3   OH234408   0.482   4.349   6.434  0.9423 -0.1596 -0.1103
 4306TIP3    H134409   0.484   4.421   6.497  0.9621 -0.8325  0.6615
 4306TIP3    H234410   0.574   4.337   6.408  0.9947 -0.2180  0.1066
 4307TIP3   OH234411   6.063   6.525  12.280  0.2487  0.2861 -0.2649
 4307TIP3    H134412   6.072   6.616  12.252 -0.9169  0.3294 -0.5422
 4307TIP3    H234413   5.974   6.519  12.314  0.5948 -0.5481  0.5289
 4308TIP3   OH234414   1.063   4.546   1.504  0.4452  0.2630 -0.8146
 4308TIP3    H134415   1.071   4.461   1.547  0.9767  0.7786  0.1197
 4308TIP3    H234416   0.972   4.572   1.517  1.0134  1.2177  1.5632
 4309TIP3   OH234417   1.735   2.238   1.602 -0.2363 -0.0637  0.7088
 4309TIP3    H134418   1.780   2.320   1.583 -1.5258  0.7390  1.0648
 4309TIP3    H234419   1.768   2.211   1.688  0.1758  0.0886  0.5970
 4310TIP3   OH234420   2.220   1.211   4.216 -0.2596  0.6750  0.2553
 4310TIP3    H134421   2.149   1.147   4.213  1.7568 -1.7474  2.3351
 4310TIP3    H234422   2.178   1.291   4.250 -2.3405 -0.1938 -0.1952
 4311TIP3   OH234423   4.702   5.636   4.236  0.2978  0.2202 -0.1117
 4311TIP3    H134424   4.629   5.596   4.189  1.6493 -1.0905 -1.1435
 4311TIP3    H234425   4.662   5.675   4.314 -1.6361  0.4078 -1.1636
 4312TIP3   OH234426   0.331   4.756   2.189  0.1721  0.2032 -0.7435
 4312TIP3    H134427   0.329   4.661   2.203 -0.5984  0.4260  0.7834
 4312TIP3    H234428   0.424   4.777   2.180  0.5431 -0.3810  1.3615
 4313TIP3   OH234429   2.168   0.886   0.499 -0.4994  0.3612 -0.3184
 4313TIP3    H134430   2.152   0.896   0.405  1.1409  1.0216 -0.5422
 4313TIP3    H234431   2.262   0.868   0.506 -1.1113 -2.6123  1.0047
 4314TIP3   OH234432   3.053   0.268  12.445  0.0741 -0.2031  0.1627
 4314TIP3    H134433   3.133   0.215  12.443 -0.1112 -0.4513 -0.8216
 4314TIP3    H234434   2.984   0.205  12.462 -0.0615 -0.1830 -0.2981
 4315TIP3   OH234435   5.177   1.599  12.112 -0.1971  0.0870  0.0741
 4315TIP3    H134436   5.104   1.661  12.117 -0.8401 -0.6260 -0.2166
 4315TIP3    H234437   5.144   1.529  12.055  0.5353 -0.4790  0.3383
 4316TIP3   OH234438   5.954   6.108  13.868  0.2101 -0.2648 -0.2046
 4316TIP3    H134439   5.970   6.043  13.936  1.6173  2.6462  2.3794
 4316TIP3    H234440   5.861   6.102  13.850 -0.1080 -1.3765  1.6887
 4317TIP3   OH234441   5.723   5.005   5.760  0.6346  0.3052  0.1845
 4317TIP3    H134442   5.752   5.091   5.793  0.3726  0.7996 -0.8626
 4317TIP3    H234443   5.634   4.996   5.792  0.4830  0.6570 -0.1332
 4318TIP3   OH234444   5.367   2.400   0.688  0.3958 -0.0098 -0.9641
 4318TIP3    H134445   5.433   2.350   0.736  0.6667  0.6302 -0.6629
 4318TIP3    H234446   5.412   2.482   0.664  0.0423 -0.0194 -1.6805
 4319TIP3   OH234447   2.645   5.194  14.180 -0.1691  0.3246  0.4226
 4319TIP3    H134448   2.552   5.176  14.167 -0.4918  0.0769  2.8500
 4319TIP3    H234449   2.689   5.126  14.129 -1.3399 -0.4591  0.4281
 4320TIP3   OH234450   2.816   0.984   3.004  0.2236  0.1462 -0.3865
 4320TIP3    H134451   2.796   1.042   2.931  0.0761  0.3735 -0.1686
 4320TIP3    H234452   2.807   1.040   3.082 -1.5505 -0.5703 -0.0465
 4321TIP3   OH234453   4.270   5.835  15.735 -0.5441  0.0496  0.1245
 4321TIP3    H134454   4.291   5.760  15.792 -1.9181  1.0761  2.0555
 4321TIP3    H234455   4.178   5.823  15.713 -0.7937  1.1876  0.5072
 4322TIP3   OH234456   0.110   0.973  17.013  0.0270 -0.1657  0.5425
 4322TIP3    H134457   0.124   0.995  17.105  2.4745  2.5874 -0.4144
 4322TIP3    H234458   0.187   0.921  16.989  0.7922  1.4498 -0.6181
 4323TIP3   OH234459   2.150   1.861   5.696 -0.0698 -0.1733  0.3928
 4323TIP3    H134460   2.120   1.859   5.787  1.2793 -1.6930  0.8241
 4323TIP3    H234461   2.244   1.879   5.702 -0.3788  2.0375 -0.8221
 4324TIP3   OH234462   2.318   3.412   5.531  0.4239  0.3873 -0.7744
 4324TIP3    H134463   2.412   3.410   5.518  0.4526 -0.3853 -0.4715
 4324TIP3    H234464   2.295   3.505   5.530  1.1772  0.5716 -0.8984
 4325TIP3   OH234465   4.749   3.175  13.056 -0.4963  0.1287 -0.0544
 4325TIP3    H134466   4.818   3.123  13.096 -1.7152 -0.3209  1.5122
 4325TIP3    H234467   4.779   3.190  12.966  0.1694 -2.7381 -0.3680
 4326TIP3   OH234468   0.507   6.142   3.380  0.0156  0.1699 -0.0939
 4326TIP3    H134469   0.465   6.157   3.295  1.1763 -0.5121 -0.7943
 4326TIP3    H234470   0.595   6.177   3.370  0.3282 -0.3927  0.6488
 4327TIP3   OH234471   1.843   0.175   5.687 -0.1065  0.0843  0.0512
 4327TIP3    H134472   1.764   0.211   5.647 -0.8479  0.8399  2.0896
 4327TIP3    H234473   1.835   0.199   5.780  0.1668 -3.9408  1.1957
 4328TIP3   OH234474   6.696   0.408  15.087 -0.1817  0.6383  0.2806
 4328TIP3    H134475   6.605   0.429  15.104 -0.8679 -2.1154  0.2163
 4328TIP3    H234476   6.693   0.336  15.024  2.0771  1.9931 -1.4693
 4329TIP3   OH234477   5.757   1.502   4.549 -0.3388 -0.3626 -0.3372
 4329TIP3    H134478   5.795   1.545   4.626 -0.1593  1.1137 -1.2418
 4329TIP3    H234479   5.827   1.504   4.483 -1.3311  0.6242 -1.3670
 4330TIP3   OH234480   2.324   4.864   5.809 -0.0864 -0.1782  0.4399
 4330TIP3    H134481   2.305   4.813   5.730 -0.8091 -0.3212  0.7046
 4330TIP3    H234482   2.324   4.799   5.880 -0.8593  0.1671  0.7604
 4331TIP3   OH234483   3.619   0.714  15.118  0.0990 -0.4207 -0.0609
 4331TIP3    H134484   3.649   0.794  15.076  1.2090 -0.9176 -0.2255
 4331TIP3    H234485   3.538   0.739  15.162 -0.0451  0.5698 -0.8750
 4332TIP3   OH234486   0.250   0.390   2.062  0.3650 -0.5211 -0.0989
 4332TIP3    H134487   0.187   0.455   2.032 -2.0080 -1.2880  3.0275
 4332TIP3    H234488   0.235   0.314   2.006 -1.1358 -0.4965  0.2503
 4333TIP3   OH234489   0.270   1.389   1.467  0.3006  0.0969  0.2976
 4333TIP3    H134490   0.269   1.313   1.525 -0.0041  2.0895  3.0153
 4333TIP3    H234491   0.187   1.433   1.485 -1.0398 -0.6208 -3.6546
 4334TIP3   OH234492   1.193   4.632   0.157 -0.6577 -0.5120  0.0107
 4334TIP3    H134493   1.121   4.606   0.214 -1.2432  0.9638 -0.0326
 4334TIP3    H234494   1.243   4.551   0.143 -1.2426 -1.1658  1.5481
 4335TIP3   OH234495   6.234   5.235  14.357  0.2810 -0.3882  0.3080
 4335TIP3    H134496   6.302   5.256  14.292 -0.0041 -0.2111  0.0661
 4335TIP3    H234497   6.195   5.319  14.379  1.1732 -0.3071  1.5961
 4336TIP3   OH234498   2.347   4.379   0.056  0.1189  0.0903  0.7384
 4336TIP3    H134499   2.359   4.383   0.151  1.4946  1.1389  0.5393
 4336TIP3    H234500   2.378   4.292   0.032 -0.1056 -0.1315  1.2239
 4337TIP3   OH234501   5.740   2.980  14.720 -0.1005 -0.3328 -0.2602
 4337TIP3    H134502   5.719   3.073  14.729  0.0807 -0.4529  1.5591
 4337TIP3    H234503   5.834   2.977  14.706  0.0263 -0.2674  0.5220
 4338TIP3   OH234504   3.720   1.237  10.548 -0.3010  0.2395  0.3087
 4338TIP3    H134505   3.627   1.250  10.568 -1.0024 -0.7574 -2.1161
 4338TIP3    H234506   3.740   1.150  10.581 -0.4987  0.0700 -0.0109
 4339TIP3   OH234507   0.712   0.557  15.842  0.2030  0.4366 -0.0810
 4339TIP3    H134508   0.763   0.611  15.781 -1.4079  0.5307 -1.3611
 4339TIP3    H234509   0.760   0.474  15.846  1.7609  1.3322  0.5871
 4340TIP3   OH234510   6.204   5.230  16.250  0.2133 -0.7026 -0.0324
 4340TIP3    H134511   6.288   5.257  16.214  0.6114  0.9648  2.0692
 4340TIP3    H234512   6.145   5.303  16.230 -0.0057 -0.5683  1.0689
 4341TIP3   OH234513   3.458   3.527  15.318 -0.2336 -0.6192 -0.2739
 4341TIP3    H134514   3.473   3.494  15.406  0.6123  2.5652  0.8393
 4341TIP3    H234515   3.363   3.541  15.314 -0.2060 -0.2416  0.3365
 4342TIP3   OH234516   0.280   3.260  15.988 -0.1628 -0.0153 -0.4868
 4342TIP3    H134517   0.366   3.234  15.954  0.8529  0.2735  1.7751
 4342TIP3    H234518   0.257   3.338  15.939  0.5812 -0.4493 -1.5428
 4343TIP3   OH234519   3.081   4.101  15.489 -0.2413  0.8242  0.2091
 4343TIP3    H134520   3.120   4.101  15.401 -0.0836  0.1265  0.2787
 4343TIP3    H234521   3.073   4.194  15.511 -0.1841  1.0042 -0.5008
 4344TIP3   OH234522   2.445   3.111   2.339 -0.2072  0.5697 -0.1819
 4344TIP3    H134523   2.356   3.108   2.375 -0.5496  0.3515 -1.0442
 4344TIP3    H234524   2.439   3.066   2.255  1.0090 -0.6140  0.3561
 4345TIP3   OH234525   1.658   5.613   0.372 -0.0963  0.9459 -0.1247
 4345TIP3    H134526   1.619   5.565   0.445  3.2952 -2.0343 -0.1115
 4345TIP3    H234527   1.637   5.561   0.295  3.5558 -0.7055 -0.1198
 4346TIP3   OH234528   3.312   3.703   4.682  0.0915 -0.5652  0.4246
 4346TIP3    H134529   3.232   3.748   4.656  1.0950 -0.0687 -1.9298
 4346TIP3    H234530   3.342   3.751   4.760 -0.2322  1.2448 -0.5345
 4347TIP3   OH234531   5.615   1.825  10.161  0.1358  0.3868 -0.4268
 4347TIP3    H134532   5.666   1.906  10.160  0.3560  0.2848  1.2541
 4347TIP3    H234533   5.540   1.844  10.105  0.0551  1.8469  0.1421
 4348TIP3   OH234534   2.574   1.738  14.942  0.2732 -0.9801  0.2481
 4348TIP3    H134535   2.498   1.793  14.962  0.2026 -0.4208 -1.4766
 4348TIP3    H234536   2.638   1.760  15.009  0.1978  1.1227 -0.3381
 4349TIP3   OH234537   6.286   0.775  17.207  0.2273  0.1716 -0.3821
 4349TIP3    H134538   6.264   0.687  17.238 -1.4582  1.1759  1.4262
 4349TIP3    H234539   6.382   0.776  17.203  0.4283 -0.7242  2.8610
 4350TIP3   OH234540   1.752   0.773   1.916  0.1062  0.1070 -0.4972
 4350TIP3    H134541   1.669   0.782   1.870 -0.8391 -0.5830  1.0318
 4350TIP3    H234542   1.795   0.858   1.905 -1.4678  0.9749 -0.0200
 4351TIP3   OH234543   5.941   1.624   0.957 -0.8917  0.0521  0.1701
 4351TIP3    H134544   5.961   1.565   0.884 -0.9720  0.4585 -0.1848
 4351TIP3    H234545   5.960   1.573   1.035 -2.9647 -1.1886 -0.0914
 4352TIP3   OH234546   1.451   0.834   5.827  0.8852 -0.9217  0.4675
 4352TIP3    H134547   1.520   0.784   5.783  5.1007  3.2668  1.9480
 4352TIP3    H234548   1.403   0.876   5.756  3.4494  0.5427 -0.4428
 4353TIP3   OH234549   1.880   1.249   1.433  0.5253 -0.0678  0.2857
 4353TIP3    H134550   1.852   1.158   1.421  1.3833 -0.4654  1.2500
 4353TIP3    H234551   1.882   1.285   1.344 -0.1466 -0.8817 -0.0756
 4354TIP3   OH234552   1.734   1.973  13.946 -0.3357 -0.1609  0.3119
 4354TIP3    H134553   1.806   2.030  13.921  0.0210 -0.9411 -0.4602
 4354TIP3    H234554   1.661   2.032  13.961  0.1627  0.5414 -0.0033
 4355TIP3   OH234555   4.717   4.153  13.820  0.1958  0.3810  0.3780
 4355TIP3    H134556   4.684   4.071  13.784  2.9454 -0.3333 -0.6272
 4355TIP3    H234557   4.806   4.161  13.784  0.4984  3.0653  1.6171
 4356TIP3   OH234558   1.048   2.947   4.088 -0.1721  0.1011 -0.5792
 4356TIP3    H134559   1.144   2.949   4.088 -0.1766  0.4110 -1.4602
 4356TIP3    H234560   1.022   3.037   4.107 -0.3038 -0.5771  2.8369
 4357TIP3   OH234561   2.845   1.824  14.654  0.0838  0.0003 -0.0921
 4357TIP3    H134562   2.878   1.734  14.647 -1.3371 -0.4838 -0.6760
 4357TIP3    H234563   2.750   1.815  14.655 -0.0459  1.3971  1.4557
 4358TIP3   OH234564   4.864   3.562  10.480 -0.3011 -0.0860  0.0260
 4358TIP3    H134565   4.862   3.501  10.406  0.7835 -0.7592  0.5409
 4358TIP3    H234566   4.787   3.618  10.467 -0.8139 -0.9963 -0.9302
 4359TIP3   OH234567   3.910   4.490  16.294 -0.1342  0.9727  0.3966
 4359TIP3    H134568   3.877   4.572  16.256  3.7606  3.0665  1.2747
 4359TIP3    H234569   3.978   4.518  16.355  0.8970 -2.9235  1.1466
 4360TIP3   OH234570   5.131   4.823  14.295  0.0972  0.1167 -0.2175
 4360TIP3    H134571   5.059   4.773  14.335  0.1910  0.5000  0.4421
 4360TIP3    H234572   5.208   4.796  14.345  0.2369  0.5210 -0.2178
 4361TIP3   OH234573   6.418   0.210  16.932  0.0674 -0.0409 -0.4491
 4361TIP3    H134574   6.345   0.170  16.979  0.4267 -1.5415 -1.1269
 4361TIP3    H234575   6.451   0.140  16.875  0.1948  1.4675 -2.2812
 4362TIP3   OH234576   1.018   0.596  11.347 -0.0002  0.2174 -0.3499
 4362TIP3    H134577   1.036   0.557  11.432 -0.9775  2.7490  1.0648
 4362TIP3    H234578   1.094   0.652  11.329 -0.8912  1.5855  0.0371
 4363TIP3   OH234579   1.237   6.461  15.124  0.8583  0.2734  0.0463
 4363TIP3    H134580   1.233   6.392  15.057 -2.1546  0.1602  0.2696
 4363TIP3    H234581   1.303   6.522  15.091  0.4053 -0.4663 -2.3566
 4364TIP3   OH234582   1.782   1.079   0.591 -0.0681  0.2464  0.0943
 4364TIP3    H134583   1.813   1.093   0.680 -0.6776  1.2738  0.1602
 4364TIP3    H234584   1.849   1.119   0.536  2.2962 -3.8063 -0.1398
 4365TIP3   OH234585   6.764   0.189   3.221  0.3109  0.3747  0.1341
 4365TIP3    H134586   6.774   0.172   3.128  1.4286 -0.9027  0.4722
 4365TIP3    H234587   6.764   0.102   3.261  1.0478  0.9662  1.4371
 4366TIP3   OH234588   4.560   3.965  12.520 -0.2186 -0.4290  0.5042
 4366TIP3    H134589   4.585   3.926  12.604 -0.2430 -3.0104 -0.6479
 4366TIP3    H234590   4.559   3.892  12.459 -0.0980  1.4386 -1.7981
 4367TIP3   OH234591   1.068   0.989  14.106  0.4601  0.1905  0.0864
 4367TIP3    H134592   1.159   1.020  14.111  0.3086  0.4106  1.7958
 4367TIP3    H234593   1.016   1.062  14.140 -0.2062 -0.5798  0.7425
 4368TIP3   OH234594   1.885   4.460  11.814 -0.6616  0.4000  0.1391
 4368TIP3    H134595   1.821   4.432  11.879  0.9054 -1.5687  0.8775
 4368TIP3    H234596   1.886   4.391  11.748  1.5435 -0.2014  0.7548
 4369TIP3   OH234597   0.432   6.360  16.457 -0.1226 -0.2463 -0.2836
 4369TIP3    H134598   0.367   6.426  16.484 -0.5716 -0.6000 -0.4832
 4369TIP3    H234599   0.459   6.388  16.370 -2.4118 -1.8688 -1.5574
 4370TIP3   OH234600   3.984   2.435  14.510  0.1280  0.0940 -0.5657
 4370TIP3    H134601   4.050   2.394  14.455  0.7037 -2.3505  1.8118
 4370TIP3    H234602   4.033   2.500  14.562  0.1785  0.1542 -0.6893
 4371TIP3   OH234603   5.375   6.160   0.124  0.0446  0.4961  0.4883
 4371TIP3    H134604   5.389   6.209   0.205 -1.5103 -0.0349  1.1107
 4371TIP3    H234605   5.281   6.164   0.110  0.3247  0.6751 -1.3722
 4372TIP3   OH234606   0.160   2.458  11.324 -0.4454  0.5557 -0.3181
 4372TIP3    H134607   0.254   2.441  11.320 -1.0608 -3.6908  0.3044
 4372TIP3    H234608   0.125   2.417  11.245 -2.1682 -1.5047  1.4336
 4373TIP3   OH234609   6.694   6.319  13.238  0.1034  0.0780  0.1252
 4373TIP3    H134610   6.700   6.260  13.313  0.1711  0.5397  0.4833
 4373TIP3    H234611   6.601   6.317  13.213 -0.2933  1.3901  1.4103
 4374TIP3   OH234612   0.171   2.195  17.145 -0.3866  0.0570  0.2142
 4374TIP3    H134613   0.124   2.279  17.139 -1.1989 -0.2892  1.5502
 4374TIP3    H234614   0.113   2.139  17.196  0.4636 -1.1126 -0.0975
 4375TIP3   OH234615   4.582   1.729  12.829 -0.4694 -0.1281 -0.5586
 4375TIP3    H134616   4.612   1.719  12.739 -1.9221 -0.2741 -1.0220
 4375TIP3    H234617   4.493   1.694  12.830 -0.9016  0.9547  0.6535
 4376TIP3   OH234618   1.633   4.455  12.211  0.1545  0.6031  0.7890
 4376TIP3    H134619   1.556   4.493  12.169 -0.6184 -0.3583  1.3108
 4376TIP3    H234620   1.664   4.523  12.270 -1.9179  0.0436  2.5999
 4377TIP3   OH234621   4.535   1.287   0.503  0.1765 -0.5851  0.1622
 4377TIP3    H134622   4.565   1.225   0.569  1.0943  2.0496  2.2827
 4377TIP3    H234623   4.444   1.263   0.487 -0.1084 -1.1598  2.5141
 4378TIP3   OH234624   4.941   1.620  14.296  0.0719 -0.0580  0.1165
 4378TIP3    H134625   5.029   1.656  14.297  0.2369 -0.4107 -0.8089
 4378TIP3    H234626   4.947   1.538  14.344 -0.1599  0.8055  1.6468
 4379TIP3   OH234627   4.441   2.144  11.971 -0.3417 -0.8291 -0.0520
 4379TIP3    H134628   4.410   2.199  12.043  0.8642  0.9512 -0.8792
 4379TIP3    H234629   4.491   2.202  11.915 -0.9537 -2.2665 -2.1777
 4380TIP3   OH234630   2.516   2.666  17.149 -0.1496  0.3024 -0.2897
 4380TIP3    H134631   2.498   2.758  17.128  0.0841  0.4427  0.1167
 4380TIP3    H234632   2.581   2.670  17.219  1.3338 -0.2127 -1.6306
 4381TIP3   OH234633   4.793   4.361  11.828  0.6976 -0.3929 -0.3616
 4381TIP3    H134634   4.833   4.274  11.824  1.0373 -0.3604  1.7017
 4381TIP3    H234635   4.855   4.417  11.781  0.3705 -1.2787 -1.8962
 4382TIP3   OH234636   0.041   3.588  11.927 -0.1875  0.1660  0.2329
 4382TIP3    H134637   0.048   3.598  12.022 -0.7073 -2.0729  0.5356
 4382TIP3    H234638   0.131   3.573  11.898 -0.2371 -0.9638  0.6229
 4383TIP3   OH234639   6.793   1.033   1.626  0.1946  0.4798  0.3447
 4383TIP3    H134640   6.722   1.016   1.688 -1.2530 -1.2813 -1.7175
 4383TIP3    H234641   6.818   0.946   1.595 -0.2042  1.4130 -2.7116
 4384TIP3   OH234642   4.956   0.613  11.400  0.4210  0.6710  0.2120
 4384TIP3    H134643   4.991   0.669  11.331  0.4021  1.3909  0.7845
 4384TIP3    H234644   4.883   0.663  11.437  0.0932  0.0632  0.3964
 4385TIP3   OH234645   3.682   0.758   2.234  0.2164  0.2876 -0.0604
 4385TIP3    H134646   3.701   0.671   2.270  1.8692  0.7347  0.1979
 4385TIP3    H234647   3.685   0.816   2.311 -0.7052  0.6017 -0.2581
 4386TIP3   OH234648   4.066   3.114   5.253 -0.3130 -0.1910  0.0616
 4386TIP3    H134649   4.089   3.036   5.203 -0.4979 -0.9048  1.0603
 4386TIP3    H234650   3.992   3.152   5.207 -0.0165 -0.4228 -0.6123
 4387TIP3   OH234651   4.948   6.607  12.963  0.3076  0.6335  0.2253
 4387TIP3    H134652   5.028   6.624  13.012 -0.5398  1.4243  1.3539
 4387TIP3    H234653   4.888   6.678  12.988 -1.9644 -1.8130  2.1036
 4388TIP3   OH234654   5.036   1.692   5.091  0.5228 -0.4951  0.1488
 4388TIP3    H134655   5.107   1.666   5.150  0.3498 -2.2528 -0.3913
 4388TIP3    H234656   5.000   1.771   5.132  1.4543 -0.7460  1.5254
 4389TIP3   OH234657   1.850   1.756  14.159 -0.4665 -0.5716 -0.1376
 4389TIP3    H134658   1.839   1.686  14.224 -0.1910 -1.3587 -0.9291
 4389TIP3    H234659   1.778   1.743  14.097 -1.6958  1.1759  0.8962
 4390TIP3   OH234660   1.536   5.251  15.610  0.1533 -0.2411 -0.1497
 4390TIP3    H134661   1.600   5.272  15.542  0.6863 -1.5474 -0.0568
 4390TIP3    H234662   1.585   5.252  15.692 -0.0566 -0.7027 -0.0154
 4391TIP3   OH234663   5.524   6.733  15.299  0.0421  0.1221  0.3959
 4391TIP3    H134664   5.473   6.679  15.359  0.2746  0.3568  0.8072
 4391TIP3    H234665   5.555   6.806  15.353 -0.7715  0.9856 -0.2992
 4392TIP3   OH234666   6.759   4.255   3.850 -0.1727 -0.5087  0.6375
 4392TIP3    H134667   6.778   4.204   3.928  0.9984  0.8108  1.2490
 4392TIP3    H234668   6.664   4.266   3.851 -0.2190 -0.9588  1.6007
 4393TIP3   OH234669   3.860   4.667  13.427  0.2153  0.3656  0.5000
 4393TIP3    H134670   3.886   4.672  13.335 -1.4563  0.4220  0.0188
 4393TIP3    H234671   3.797   4.738  13.437 -0.5794 -0.4545  1.3608
 4394TIP3   OH234672   5.945   0.852  12.334  0.0419  0.1536  0.1239
 4394TIP3    H134673   5.999   0.903  12.273  0.6030  0.9655  1.2815
 4394TIP3    H234674   5.895   0.918  12.382 -1.5234 -0.5648 -0.5058
 4395TIP3   OH234675   2.891   4.502   1.763 -0.1452  0.3370  0.1053
 4395TIP3    H134676   2.938   4.583   1.745  1.2220  0.6774  4.6811
 4395TIP3    H234677   2.811   4.530   1.806  0.3334 -0.7365  1.7042
 4396TIP3   OH234678   2.206   6.641  16.594 -0.1294 -0.1885 -0.7724
 4396TIP3    H134679   2.233   6.707  16.659  0.8927 -0.0555 -1.3161
 4396TIP3    H234680   2.252   6.561  16.621 -1.1612 -0.6164 -0.2675
 4397TIP3   OH234681   4.856   1.910  13.882  0.0824 -1.2023 -0.5332
 4397TIP3    H134682   4.833   1.942  13.795  0.3901 -1.8306 -0.8495
 4397TIP3    H234683   4.774   1.879  13.919  0.0593 -1.5263 -0.8524
 4398TIP3   OH234684   0.422   4.488   5.744  0.1918  0.2612 -0.6005
 4398TIP3    H134685   0.483   4.562   5.737  1.0543 -0.3358  0.5063
 4398TIP3    H234686   0.381   4.498   5.830 -1.2875  0.6513 -1.3351
 4399TIP3   OH234687   2.392   2.918  13.488  0.0320  0.3209 -0.2180
 4399TIP3    H134688   2.379   2.998  13.538 -2.9205  0.3150 -0.8556
 4399TIP3    H234689   2.337   2.853  13.531  2.1516 -1.3237  0.1058
 4400TIP3   OH234690   5.446   0.932  14.305  0.1592 -0.7360 -0.3120
 4400TIP3    H134691   5.359   0.935  14.344 -0.6409 -0.8091 -2.0567
 4400TIP3    H234692   5.463   0.839  14.291  0.3505 -0.7004 -0.3151
 4401TIP3   OH234693   5.773   2.224  15.036 -0.1854 -0.1762 -0.0668
 4401TIP3    H134694   5.727   2.262  14.961  0.1271  1.5445  0.5960
 4401TIP3    H234695   5.865   2.244  15.021 -0.0912 -0.0687  0.6387
 4402TIP3   OH234696   6.260   4.861  14.761 -0.6479  0.2911  0.3517
 4402TIP3    H134697   6.225   4.794  14.819 -0.2427 -0.2323 -0.0101
 4402TIP3    H234698   6.288   4.931  14.821  0.3434 -0.5051  0.8475
 4403TIP3   OH234699   4.510   0.903  15.378  0.1912 -0.0741  0.4546
 4403TIP3    H134700   4.506   0.807  15.375  0.7645 -0.0733 -0.4964
 4403TIP3    H234701   4.603   0.922  15.392  0.0013  0.3366  1.1720
 4404TIP3   OH234702   6.138   4.260  14.875  0.0591  0.2149  0.0156
 4404TIP3    H134703   6.141   4.176  14.921  1.0267 -0.5777 -1.4808
 4404TIP3    H234704   6.207   4.312  14.916  1.7283 -0.9090 -1.2976
 4405TIP3   OH234705   5.024   6.593  16.144  0.0487 -0.8416  0.2803
 4405TIP3    H134706   4.942   6.641  16.159 -1.2238 -2.3451 -1.5975
 4405TIP3    H234707   5.008   6.506  16.182  0.8837 -1.0437  0.1758
 4406TIP3   OH234708   2.223   4.757  16.417  0.0885  0.0951  0.1506
 4406TIP3    H134709   2.160   4.759  16.344 -0.8738 -0.1403  0.9675
 4406TIP3    H234710   2.189   4.690  16.476  0.7805  0.3908  0.8878
 4407TIP3   OH234711   3.086   5.037  16.836 -0.3657 -0.0124  0.0725
 4407TIP3    H134712   3.055   5.108  16.892 -0.9433 -1.1460  1.1973
 4407TIP3    H234713   3.142   4.984  16.893 -2.1552 -2.0089 -0.0003
 4408TIP3   OH234714   0.306   5.444   1.165 -0.1191 -0.0798  0.2576
 4408TIP3    H134715   0.370   5.512   1.189  0.4077 -0.3399 -0.3931
 4408TIP3    H234716   0.305   5.445   1.069 -0.9257 -0.2356  0.2677
 4409TIP3   OH234717   3.178   3.425   4.332 -0.2537 -0.3311 -0.4160
 4409TIP3    H134718   3.259   3.470   4.307 -1.4111  0.8869 -2.1037
 4409TIP3    H234719   3.120   3.494   4.363 -0.4029 -1.2925  1.5224
 4410TIP3   OH234720   1.156   6.596   4.736 -0.0669 -0.4486  0.1608
 4410TIP3    H134721   1.096   6.648   4.790 -0.3578 -1.1665  0.5478
 4410TIP3    H234722   1.210   6.660   4.690 -0.0153  0.1759  1.0908
 4411TIP3   OH234723   3.456   3.180   0.462  0.1339 -0.9701 -0.5673
 4411TIP3    H134724   3.548   3.194   0.440  0.1551 -0.2345 -0.0343
 4411TIP3    H234725   3.408   3.247   0.413  0.1559  0.4662  1.3385
 4412TIP3   OH234726   1.316   2.667  13.755 -0.2579  0.4013  0.0062
 4412TIP3    H134727   1.293   2.585  13.711 -1.5327  0.3162  0.8275
 4412TIP3    H234728   1.331   2.642  13.846  0.3312  0.9223  0.0512
 4413TIP3   OH234729   1.069   6.515  13.428 -0.5284  0.2582  0.7960
 4413TIP3    H134730   0.992   6.555  13.470 -1.1591  1.8161 -1.7542
 4413TIP3    H234731   1.142   6.569  13.458 -0.6379 -0.1312  1.8016
 4414TIP3   OH234732   6.323   3.573   1.548  0.1359  0.5449  0.0784
 4414TIP3    H134733   6.334   3.495   1.493 -1.3365  1.4957 -1.6417
 4414TIP3    H234734   6.292   3.539   1.632 -2.0224 -0.6440 -1.1553
 4415TIP3   OH234735   3.246   5.816  12.397 -0.2155  0.0096  0.4681
 4415TIP3    H134736   3.151   5.826  12.407 -0.1193  2.4828 -0.7560
 4415TIP3    H234737   3.259   5.722  12.381 -2.4868 -0.2891  0.2729
 4416TIP3   OH234738   2.095   5.396  15.473 -0.0887  0.0534 -0.7716
 4416TIP3    H134739   2.188   5.385  15.455  0.2940 -0.3642  1.4314
 4416TIP3    H234740   2.084   5.489  15.489  0.0228  0.0291 -0.5605
 4417TIP3   OH234741   6.246   0.282  17.276  0.4085 -0.1630  0.2570
 4417TIP3    H134742   6.216   0.211  17.332  1.3483 -1.4131 -0.7994
 4417TIP3    H234743   6.209   0.361  17.315 -1.1406 -1.2913  1.0954
 4418TIP3   OH234744   4.228   2.978   3.096 -0.1338 -0.1495  0.3196
 4418TIP3    H134745   4.155   2.928   3.131 -0.4665 -1.2233 -1.8265
 4418TIP3    H234746   4.261   3.028   3.171 -2.3931 -0.4338  1.5532
 4419TIP3   OH234747   3.239   4.107  17.008  0.4487  0.1603 -0.3856
 4419TIP3    H134748   3.212   4.193  17.042  1.0352 -0.3436  1.3763
 4419TIP3    H234749   3.231   4.048  17.083 -0.6514 -1.4865 -1.7649
 4420TIP3   OH234750   5.132   3.656  14.585  0.5262 -0.4799 -0.1605
 4420TIP3    H134751   5.106   3.684  14.672 -1.9457  1.2567 -1.4198
 4420TIP3    H234752   5.084   3.574  14.570  0.6277 -0.5584 -0.0537
 4421TIP3   OH234753   3.894   6.190   1.502  0.4307 -0.2296  0.0463
 4421TIP3    H134754   3.894   6.108   1.551  0.5086 -0.0703  0.3094
 4421TIP3    H234755   3.922   6.257   1.565  1.0822 -0.1133 -0.3624
 4422TIP3   OH234756   2.299   3.723   0.738  0.1043  0.5120 -0.1025
 4422TIP3    H134757   2.223   3.717   0.797 -1.5345  1.6684 -2.0211
 4422TIP3    H234758   2.311   3.634   0.705 -0.6616  0.3892 -0.0593
 4423TIP3   OH234759   1.682   6.449  11.820 -0.0351 -0.2964  0.2206
 4423TIP3    H134760   1.700   6.437  11.726  0.7444 -1.5676  0.5329
 4423TIP3    H234761   1.602   6.503  11.822  1.2759  1.7908 -1.1787
 4424TIP3   OH234762   1.606   6.033   6.552 -0.0287 -0.2909 -0.0960
 4424TIP3    H134763   1.593   6.071   6.639 -0.7941 -1.7447  0.4433
 4424TIP3    H234764   1.701   6.028   6.543  0.0606 -1.0615  1.0944
 4425TIP3   OH234765   5.238   3.813  13.054 -0.0076  0.1872 -0.0824
 4425TIP3    H134766   5.264   3.725  13.027  0.4004  0.0585  0.7083
 4425TIP3    H234767   5.167   3.799  13.116 -2.4563  0.5613 -2.7098
 4426TIP3   OH234768   6.020   5.895  14.971  0.0469 -0.9907 -0.1767
 4426TIP3    H134769   5.988   5.983  14.955 -0.9387 -1.5654 -1.3801
 4426TIP3    H234770   5.954   5.837  14.934  1.4162 -2.2231 -0.7821
 4427TIP3   OH234771   0.991   6.783  14.311  0.3699 -0.7529  0.1509
 4427TIP3    H134772   1.080   6.760  14.338  0.4956 -0.0334  0.3489
 4427TIP3    H234773   0.986   6.752  14.221  1.8168  1.8330 -0.8625
 4428TIP3   OH234774   5.504   1.709   0.259  0.1193  0.4639 -0.1487
 4428TIP3    H134775   5.502   1.658   0.340  1.9339  0.4263 -0.0957
 4428TIP3    H234776   5.520   1.644   0.190  0.3148  0.7007 -0.3287
 4429TIP3   OH234777   0.656   6.819   2.252  0.0021  0.0932  0.4318
 4429TIP3    H134778   0.745   6.784   2.258 -0.1583 -0.4877 -0.4553
 4429TIP3    H234779   0.669   6.910   2.222  0.1935 -0.8489 -2.5281
 4430TIP3   OH234780   1.725   2.961   0.691  0.1595 -0.1326  0.0010
 4430TIP3    H134781   1.689   3.042   0.728  1.3075  1.0950 -1.4897
 4430TIP3    H234782   1.807   2.947   0.740  0.4599  0.1593 -0.4158
 4431TIP3   OH234783   6.253   6.338  13.728 -0.1144  0.0085  0.7859
 4431TIP3    H134784   6.157   6.337  13.730 -0.1293  1.3487  1.0533
 4431TIP3    H234785   6.279   6.282  13.802 -0.6672 -1.5277 -0.1468
 4432TIP3   OH234786   0.456   4.700  16.157 -0.5173 -0.0102  0.3200
 4432TIP3    H134787   0.377   4.685  16.106 -0.7867  2.2634  0.0256
 4432TIP3    H234788   0.424   4.728  16.243 -0.0822  2.7081 -0.3468
 4433TIP3   OH234789   1.295   3.154  13.816  0.5090  0.1530  0.3764
 4433TIP3    H134790   1.372   3.136  13.763 -0.4536 -1.6210 -0.4495
 4433TIP3    H234791   1.229   3.182  13.753  0.2932  1.1046  1.0155
 4434TIP3   OH234792   1.938   1.917   1.384 -0.7315  0.2654  0.4819
 4434TIP3    H134793   1.894   2.002   1.379 -0.2136  0.4074 -3.0561
 4434TIP3    H234794   2.030   1.939   1.400 -0.4641  0.4501 -1.2110
 4435TIP3   OH234795   1.827   4.982   3.067 -0.3140 -0.2275 -0.4174
 4435TIP3    H134796   1.773   5.061   3.072 -1.6678 -1.0712 -1.4210
 4435TIP3    H234797   1.843   4.970   2.973 -0.1557 -1.1812 -0.2664
 4436TIP3   OH234798   3.756   6.240  15.543  0.1910 -0.2869 -0.5786
 4436TIP3    H134799   3.833   6.193  15.576 -0.5637 -1.5006 -0.5000
 4436TIP3    H234800   3.792   6.314  15.495  1.3615  0.3569  1.2323
 4437TIP3   OH234801   6.283   6.787   4.265 -0.1245 -0.1235 -0.1186
 4437TIP3    H134802   6.344   6.814   4.197 -0.1512  0.3727  0.0526
 4437TIP3    H234803   6.222   6.728   4.221  1.6767 -2.2542  0.1454
 4438TIP3   OH234804   6.376   4.347  12.907 -0.2202  0.2763  0.0668
 4438TIP3    H134805   6.317   4.414  12.872 -0.3221  0.7233  1.0938
 4438TIP3    H234806   6.446   4.396  12.949  0.2653 -0.2600 -0.1158
 4439TIP3   OH234807   0.654   0.664  11.506 -0.3883 -0.4917 -0.1011
 4439TIP3    H134808   0.613   0.637  11.588 -0.9444  0.9006  0.0821
 4439TIP3    H234809   0.730   0.716  11.533 -0.2587 -0.4892 -0.4661
 4440TIP3   OH234810   0.973   3.819   3.393  0.5396  0.7623  0.0513
 4440TIP3    H134811   0.897   3.876   3.378  0.4615  0.5516 -0.3552
 4440TIP3    H234812   0.968   3.797   3.486  1.0152  2.0572  0.3984
 4441TIP3   OH234813   2.067   5.840  12.267 -0.0358  0.0556 -0.2650
 4441TIP3    H134814   1.988   5.846  12.321  0.3706 -0.4577  0.4000
 4441TIP3    H234815   2.124   5.909  12.298  0.2563 -0.3299  0.0580
 4442TIP3   OH234816   4.922   0.417  11.940  0.1055 -0.6697 -0.0254
 4442TIP3    H134817   4.996   0.359  11.924 -0.1066 -0.9577  0.0284
 4442TIP3    H234818   4.959   0.505  11.939  0.8010 -0.9185  2.1368
 4443TIP3   OH234819   3.789   1.403  14.993  0.5797 -0.2833 -0.2386
 4443TIP3    H134820   3.794   1.323  15.047 -0.1090  0.0418  0.3262
 4443TIP3    H234821   3.746   1.467  15.050  0.2567  0.2047 -1.0267
 4444TIP3   OH234822   6.217   4.064   2.939  0.6128  0.0812  0.7733
 4444TIP3    H134823   6.201   4.005   3.013  2.2188  0.8673  1.7711
 4444TIP3    H234824   6.312   4.069   2.933  0.4800  1.9346  0.1824
 4445TIP3   OH234825   5.764   3.890  10.128 -0.0977 -0.2286  0.0341
 4445TIP3    H134826   5.705   3.821  10.159  1.2507 -0.5476  1.9533
 4445TIP3    H234827   5.846   3.874  10.174  0.1830  2.7679  0.6438
 4446TIP3   OH234828   3.359   4.844  16.679  0.1609  0.0224 -0.3128
 4446TIP3    H134829   3.361   4.776  16.745  0.9857 -0.4495 -0.8160
 4446TIP3    H234830   3.267   4.851  16.654 -0.0704 -0.1793  0.4798
 4447TIP3   OH234831   2.215   2.392   2.168 -0.1645  0.4582 -0.1840
 4447TIP3    H134832   2.174   2.449   2.103 -0.8846 -0.9473 -0.9848
 4447TIP3    H234833   2.308   2.413   2.162 -0.5635  2.4967  0.4838
 4448TIP3   OH234834   0.374   0.392  15.431 -0.2867 -0.1159 -0.0782
 4448TIP3    H134835   0.339   0.308  15.461 -2.6585  0.6035 -0.7733
 4448TIP3    H234836   0.390   0.441  15.512  2.1821 -1.6098  0.3909
 4449TIP3   OH234837   1.055   4.427  11.511 -0.0163  0.1856 -0.4625
 4449TIP3    H134838   1.132   4.371  11.508  0.4231  0.8069 -1.0384
 4449TIP3    H234839   1.076   4.500  11.451 -0.5330  1.0002  0.3336
 4450TIP3   OH234840   1.872   3.025   3.616  0.1489 -0.3530  0.4300
 4450TIP3    H134841   1.930   3.086   3.660  0.1510  0.3019 -0.4650
 4450TIP3    H234842   1.799   3.012   3.677  0.2151  0.4429  0.6738
 4451TIP3   OH234843   5.901   0.347   5.828  0.5886 -0.6296  0.2858
 4451TIP3    H134844   5.848   0.273   5.860 -0.6694 -0.0125 -0.3425
 4451TIP3    H234845   5.837   0.416   5.812  1.7130  0.4205  0.3550
 4452TIP3   OH234846   3.660   6.491   3.966 -0.1227  0.3551  0.5328
 4452TIP3    H134847   3.724   6.450   4.025 -0.8094  0.2179  1.1868
 4452TIP3    H234848   3.601   6.539   4.023 -0.5555  0.5612 -0.0786
 4453TIP3   OH234849   4.289   6.584  10.240 -0.2419  0.2047  0.0043
 4453TIP3    H134850   4.254   6.628  10.163  0.3754 -0.4315 -0.6557
 4453TIP3    H234851   4.322   6.655  10.295 -0.8139  0.6748 -0.2460
 4454TIP3   OH234852   1.040   5.715   4.783 -0.0685 -0.4063  0.8684
 4454TIP3    H134853   1.026   5.786   4.721  0.3989 -1.3431 -0.3376
 4454TIP3    H234854   0.955   5.701   4.824 -0.1624  0.8344  1.1067
 4455TIP3   OH234855   5.402   4.433  11.893 -0.0425 -0.4094  0.0757
 4455TIP3    H134856   5.493   4.405  11.888  0.1978  0.7391 -2.0921
 4455TIP3    H234857   5.391   4.496  11.822 -1.5933  2.1578  2.4884
 4456TIP3   OH234858   1.520   6.626  12.133  0.0061  0.3263 -0.0554
 4456TIP3    H134859   1.531   6.721  12.132  1.6448  0.1581  0.8396
 4456TIP3    H234860   1.547   6.599  12.221  0.9230 -1.1281 -0.7713
 4457TIP3   OH234861   3.979   1.666  14.993 -0.4518  0.1011 -0.1695
 4457TIP3    H134862   4.007   1.701  14.908 -1.8971 -1.2591 -1.2229
 4457TIP3    H234863   3.907   1.723  15.020 -0.5779 -0.0056 -0.2807
 4458TIP3   OH234864   6.397   2.305   4.530 -0.0916 -0.4681 -0.1515
 4458TIP3    H134865   6.320   2.274   4.579 -0.6957 -0.8140 -1.3039
 4458TIP3    H234866   6.376   2.396   4.507 -0.2330 -0.6184 -0.6186
 4459TIP3   OH234867   5.767   1.468   0.630  0.0495  0.0269 -0.1391
 4459TIP3    H134868   5.843   1.512   0.592  0.9552 -1.0737  0.3765
 4459TIP3    H234869   5.803   1.410   0.697 -1.2060 -0.8405 -0.1876
 4460TIP3   OH234870   2.849   0.800  14.829  0.4783 -0.3442  0.4495
 4460TIP3    H134871   2.786   0.812  14.758  1.0084 -1.4552 -0.2265
 4460TIP3    H234872   2.832   0.873  14.888 -1.6222 -0.7616  0.4171
 4461TIP3   OH234873   2.549   4.350  15.551  0.0963  1.3289 -0.2145
 4461TIP3    H134874   2.480   4.284  15.537  1.2321 -0.5794  2.6498
 4461TIP3    H234875   2.619   4.324  15.491  0.7868 -0.5020  1.3348
 4462TIP3   OH234876   1.168   4.337   3.330 -0.8523 -0.2564  0.3006
 4462TIP3    H134877   1.163   4.245   3.304 -0.9405  0.2386 -1.5166
 4462TIP3    H234878   1.243   4.341   3.390 -0.5077 -1.4065 -0.0439
 4463TIP3   OH234879   2.416   1.753   1.966 -0.2750 -0.6620  0.4803
 4463TIP3    H134880   2.339   1.809   1.962  0.1411 -0.1115  0.0833
 4463TIP3    H234881   2.419   1.722   2.056 -0.9299 -0.6478  0.5076
 4464TIP3   OH234882   1.231   6.356   2.317 -0.2950  0.4887  0.3629
 4464TIP3    H134883   1.136   6.349   2.308 -0.2924  0.1815  0.5582
 4464TIP3    H234884   1.263   6.363   2.227 -0.4130 -0.6357  0.2284
 4465TIP3   OH234885   3.055   0.264   1.070  0.1642  0.5541 -0.1725
 4465TIP3    H134886   3.079   0.247   1.161 -0.8696 -0.0290  0.0035
 4465TIP3    H234887   2.959   0.266   1.071  0.0683 -1.7038 -1.6346
 4466TIP3   OH234888   0.413   4.008   2.873  0.7934  0.0143 -0.1462
 4466TIP3    H134889   0.434   3.958   2.951 -0.0626 -1.4316 -0.8052
 4466TIP3    H234890   0.321   4.033   2.885  0.3497 -1.0903 -1.1270
 4467TIP3   OH234891   4.616   4.689   3.271  0.0308 -0.2811 -0.4171
 4467TIP3    H134892   4.529   4.682   3.309 -1.4918 -1.6940 -3.9219
 4467TIP3    H234893   4.633   4.603   3.233  2.4761  0.3025 -0.7589
 4468TIP3   OH234894   3.943   1.308   2.831  0.0903 -0.1924 -0.2171
 4468TIP3    H134895   4.014   1.334   2.772 -0.7786  0.4025 -1.0277
 4468TIP3    H234896   3.909   1.227   2.793  1.7207 -1.6565  1.3820
 4469TIP3   OH234897   6.089   2.866   2.419  0.1839  0.3424 -0.2662
 4469TIP3    H134898   6.099   2.961   2.412 -0.3188  0.7634  3.5188
 4469TIP3    H234899   6.164   2.838   2.471 -0.5819 -1.0631  0.0970
 4470TIP3   OH234900   0.930   5.441   3.091 -0.0785  0.4052 -0.1683
 4470TIP3    H134901   0.874   5.485   3.027  0.0166  0.0186 -0.5197
 4470TIP3    H234902   0.880   5.445   3.173 -1.9453 -2.4912 -1.0851
 4471TIP3   OH234903   4.059   2.318  14.998  0.2693  0.2965 -0.0568
 4471TIP3    H134904   4.008   2.395  14.974 -0.6833 -0.4545 -0.5190
 4471TIP3    H234905   4.150   2.349  15.003 -0.1142  1.4496 -0.1513
 4472TIP3   OH234906   3.978   6.614   0.003 -0.1246  0.6318  0.2185
 4472TIP3    H134907   4.066   6.641   0.031 -0.3413  1.3005  0.2751
 4472TIP3    H234908   3.920   6.659   0.065 -0.4942 -0.0027  0.3291
 4473TIP3   OH234909   4.675   2.842  17.039  0.3191 -0.9008 -0.1586
 4473TIP3    H134910   4.691   2.748  17.036 -1.4194 -1.2508  0.7217
 4473TIP3    H234911   4.608   2.858  16.973 -1.1588 -0.6918  1.3447
 4474TIP3   OH234912   2.090   4.333  13.009 -0.3009 -0.5959  0.3020
 4474TIP3    H134913   2.078   4.346  13.103  0.6507 -1.5112  0.5647
 4474TIP3    H234914   2.017   4.277  12.983 -0.5222 -0.4062  0.5077
 4475TIP3   OH234915   4.609   0.963   0.476 -0.3507 -0.2731 -0.2563
 4475TIP3    H134916   4.584   0.981   0.386 -0.2046 -0.0148 -0.2438
 4475TIP3    H234917   4.530   0.923   0.515 -0.6059  0.1560 -0.3347
 4476TIP3   OH234918   3.694   3.145   5.669 -0.3417  0.2485 -0.3665
 4476TIP3    H134919   3.667   3.088   5.597 -1.4461  1.2589 -0.7704
 4476TIP3    H234920   3.781   3.176   5.644  0.3202 -1.3286 -0.0929
 4477TIP3   OH234921   0.772   0.502  13.373 -0.2238  0.1161  0.1742
 4477TIP3    H134922   0.849   0.508  13.430 -1.6255  0.8271  2.0231
 4477TIP3    H234923   0.783   0.418  13.327  1.4266  0.0032  0.7243
 4478TIP3   OH234924   1.883   0.327   1.659 -0.1718  0.1115  0.1120
 4478TIP3    H134925   1.855   0.386   1.730  0.1008 -0.3478  0.6006
 4478TIP3    H234926   1.802   0.285   1.631 -0.6260  1.8213 -1.2695
 4479TIP3   OH234927   6.403   4.320  11.685  0.1226  0.1368  0.4743
 4479TIP3    H134928   6.333   4.385  11.681 -0.3259 -0.4013 -0.7678
 4479TIP3    H234929   6.475   4.360  11.636 -0.8121 -1.0632 -1.9386
 4480TIP3   OH234930   4.760   0.502   5.465  0.4511  0.6480 -0.4280
 4480TIP3    H134931   4.728   0.591   5.481  3.4624  1.4496  1.5947
 4480TIP3    H234932   4.778   0.499   5.371 -0.3163  1.9636 -0.6172
 4481TIP3   OH234933   4.636   4.135  17.076  0.1147 -0.5669  0.2030
 4481TIP3    H134934   4.683   4.114  16.996 -0.9051 -1.1730 -0.2500
 4481TIP3    H234935   4.582   4.058  17.093  0.6056 -0.6099  1.6886
 4482TIP3   OH234936   2.947   6.122  15.870  0.2277  0.1134  0.3366
 4482TIP3    H134937   2.882   6.175  15.916  0.1230  1.1190 -0.9400
 4482TIP3    H234938   3.031   6.164  15.888  0.2276  0.2975 -0.0773
 4483TIP3   OH234939   4.889   2.767   0.475 -0.2123  0.2073  0.7196
 4483TIP3    H134940   4.855   2.731   0.557  1.1669 -1.0628  0.7551
 4483TIP3    H234941   4.813   2.771   0.417 -1.2501  1.3276  2.1091
 4484TIP3   OH234942   4.415   6.820   0.860  0.1319 -0.7825 -0.4412
 4484TIP3    H134943   4.412   6.913   0.836 -0.9443 -1.0098 -1.2312
 4484TIP3    H234944   4.323   6.793   0.864  0.2610 -0.9670  3.2137
 4485TIP3   OH234945   1.535   4.237  12.626 -0.0462  0.1677 -0.7934
 4485TIP3    H134946   1.468   4.205  12.565 -1.5656  0.5171  0.6630
 4485TIP3    H234947   1.546   4.166  12.689 -2.3580  1.8245  1.5911
 4486TIP3   OH234948   5.530   1.007   3.299  0.1854 -0.1979 -0.3438
 4486TIP3    H134949   5.500   1.049   3.379 -0.4850 -1.3874  0.0407
 4486TIP3    H234950   5.575   0.928   3.328 -0.7650 -1.0602 -1.1596
 4487TIP3   OH234951   6.015   5.004   2.762  0.5032 -0.4448 -0.5818
 4487TIP3    H134952   5.955   4.947   2.810  0.3394 -0.1464 -0.4352
 4487TIP3    H234953   6.085   5.023   2.824  0.2836 -0.0471 -0.4574
 4488TIP3   OH234954   3.189   2.757   5.614  0.4517  0.3492  0.2116
 4488TIP3    H134955   3.221   2.768   5.524  1.4862  0.3209  0.5642
 4488TIP3    H234956   3.095   2.748   5.605  0.7266 -1.6132 -1.0558
 4489TIP3   OH234957   3.737   3.491   0.745  0.7806 -0.2615  0.4993
 4489TIP3    H134958   3.820   3.462   0.785  0.9967  1.7449  1.5962
 4489TIP3    H234959   3.747   3.586   0.737 -1.1642 -0.0891  0.0015
 4490TIP3   OH234960   2.454   5.872  17.068 -0.0116  0.1790 -0.7161
 4490TIP3    H134961   2.439   5.937  16.999 -0.0492  3.0004  1.8249
 4490TIP3    H234962   2.367   5.837  17.087 -0.4053  1.2927 -0.3730
 4491TIP3   OH234963   2.386   3.969   0.581  0.4718  0.0449  0.6406
 4491TIP3    H134964   2.370   3.874   0.585  0.3745  0.0364  0.0209
 4491TIP3    H234965   2.305   4.006   0.545  1.0108  0.2248 -0.3973
 4492TIP3   OH234966   3.441   4.995  11.968 -0.4440  0.9753 -0.3576
 4492TIP3    H134967   3.419   5.064  11.906 -1.5193  1.2371  0.3050
 4492TIP3    H234968   3.359   4.976  12.014 -0.2667 -0.9788 -0.7673
 4493TIP3   OH234969   4.349   1.381  14.401 -0.4750  0.2647 -0.0629
 4493TIP3    H134970   4.326   1.457  14.348 -1.9758 -1.0907 -1.4385
 4493TIP3    H234971   4.298   1.391  14.482  0.2160  1.2842  0.2496
 4494TIP3   OH234972   0.191   5.361   0.797  0.3814 -0.2467  0.5300
 4494TIP3    H134973   0.220   5.283   0.749 -0.5148  0.7570 -1.7116
 4494TIP3    H234974   0.097   5.349   0.809  0.0316  0.9502 -0.8006
 4495TIP3   OH234975   0.494   5.168   0.540  0.1258  0.4696  0.3469
 4495TIP3    H134976   0.402   5.168   0.566  0.5225  0.7062  1.8054
 4495TIP3    H234977   0.513   5.260   0.519 -0.4133  0.1489 -1.6418
 4496TIP3   OH234978   2.668   5.920   4.405 -0.3361  0.6196 -0.2228
 4496TIP3    H134979   2.603   5.865   4.362 -2.3766  1.9478  1.0874
 4496TIP3    H234980   2.620   5.998   4.432  1.7895  1.6122  0.8449
 4497TIP3   OH234981   6.819   2.910   4.654  0.4040  0.1266 -0.3089
 4497TIP3    H134982   6.805   2.929   4.561  0.7109 -2.5307 -0.9366
 4497TIP3    H234983   6.735   2.879   4.686  0.4243  0.5818  0.2034
 4498TIP3   OH234984   1.173   3.908  15.220  0.4635 -0.2935 -0.1826
 4498TIP3    H134985   1.226   3.988  15.225 -0.9083  0.7760 -2.1714
 4498TIP3    H234986   1.128   3.904  15.305 -1.0432  2.2327 -0.7976
 4499TIP3   OH234987   1.738   4.123  10.929  0.3522  0.1622 -0.0055
 4499TIP3    H134988   1.723   4.101  10.837 -1.1436 -2.1286  0.7348
 4499TIP3    H234989   1.668   4.184  10.951 -0.1523 -0.4217  0.0027
 4500TIP3   OH234990   1.607   1.037   2.207 -0.1551  0.2153  0.3106
 4500TIP3    H134991   1.573   1.033   2.118 -1.6237  0.7978  0.8363
 4500TIP3    H234992   1.532   1.017   2.262  0.6553  0.2680  1.4411
 4501TIP3   OH234993   0.671   6.693  15.700  0.1662 -0.3915 -0.1052
 4501TIP3    H134994   0.722   6.684  15.780 -0.0764 -0.0441  0.0923
 4501TIP3    H234995   0.590   6.644  15.717 -0.6553  1.1499  0.5394
 4502TIP3   OH234996   5.374   2.962  12.154  0.6026 -0.9546  0.0411
 4502TIP3    H134997   5.439   2.977  12.085  0.4071  2.5177  0.5566
 4502TIP3    H234998   5.290   2.985  12.113  0.2731 -0.6289  0.8949
 4503TIP3   OH234999   6.394   0.838  13.822 -0.6507 -0.9763  0.0825
 4503TIP3    H135000   6.404   0.880  13.908 -0.6880 -1.3602  0.2728
 4503TIP3    H235001   6.483   0.834  13.787 -0.7207 -0.1758 -0.2030
 4504TIP3   OH235002   2.446   4.847   6.203 -0.3645  0.0332 -0.0376
 4504TIP3    H135003   2.412   4.761   6.229  1.6559 -1.5969 -2.4631
 4504TIP3    H235004   2.530   4.854   6.249  1.0527 -0.8437 -2.3861
 4505TIP3   OH235005   4.083   1.716  16.889  0.2803 -0.3740 -0.3803
 4505TIP3    H135006   4.055   1.729  16.799 -0.2034  0.1312 -0.1636
 4505TIP3    H235007   4.122   1.800  16.915 -2.0239  0.3976  0.7386
 4506TIP3   OH235008   3.169   1.705  15.684  0.1587 -0.1015  0.0010
 4506TIP3    H135009   3.152   1.689  15.777 -1.9719  3.0728  0.2378
 4506TIP3    H235010   3.242   1.767  15.682  0.2751 -0.2475 -0.4310
 4507TIP3   OH235011   4.756   2.892   1.825 -0.3521  0.1218 -0.1019
 4507TIP3    H135012   4.691   2.822   1.826 -0.6783  0.4127 -0.5137
 4507TIP3    H235013   4.796   2.889   1.912  1.5044 -2.2960 -0.9890
 4508TIP3   OH235014   3.679   5.540  12.557 -0.4913  0.1436  0.1060
 4508TIP3    H135015   3.584   5.543  12.549 -0.6894 -1.0390  1.7403
 4508TIP3    H235016   3.708   5.631  12.548 -1.8257  0.5888  0.3104
 4509TIP3   OH235017   6.013   0.905   0.081  0.2435 -0.2304  0.2947
 4509TIP3    H135018   6.048   0.835   0.136  0.1759  0.5001  1.2756
 4509TIP3    H235019   6.065   0.982   0.104 -1.6620  0.7590  1.4407
 4510TIP3   OH235020   6.478   2.195   0.189  0.6021 -0.1212  0.2109
 4510TIP3    H135021   6.511   2.285   0.195  1.9631 -0.5496 -0.6654
 4510TIP3    H235022   6.408   2.191   0.255  2.1290  0.8786  1.9335
 4511TIP3   OH235023   2.544   1.501   0.282  0.1230  0.2018 -0.2028
 4511TIP3    H135024   2.596   1.575   0.252  3.9866 -1.5142  1.9158
 4511TIP3    H235025   2.471   1.540   0.331  0.4307  2.6009 -1.6102
 4512TIP3   OH235026   3.616   5.709  11.358  0.0570 -0.4690 -0.1588
 4512TIP3    H135027   3.585   5.637  11.303  0.2537 -0.8804  0.2588
 4512TIP3    H235028   3.621   5.670  11.446 -0.7166  0.3057  0.2347
 4513TIP3   OH235029   3.115   3.358  13.820 -0.2341  0.4580  0.0751
 4513TIP3    H135030   3.099   3.450  13.797 -2.3543 -0.0458 -0.5677
 4513TIP3    H235031   3.103   3.311  13.737 -1.1706 -0.6139  0.8144
 4514TIP3   OH235032   3.744   4.152   4.449 -0.3191  0.2428  0.4493
 4514TIP3    H135033   3.680   4.221   4.433 -0.1221  0.4786  0.6945
 4514TIP3    H235034   3.712   4.078   4.397 -1.7714 -0.2200  1.9425
 4515TIP3   OH235035   0.056   5.959  14.793 -0.1636 -0.3232  0.1655
 4515TIP3    H135036   0.004   6.039  14.803 -0.9625 -0.7486 -0.5213
 4515TIP3    H235037   0.030   5.904  14.866  0.1507 -0.0811  0.4577
 4516TIP3   OH235038   2.991   6.228  11.136 -0.5542 -0.2573  0.0373
 4516TIP3    H135039   3.022   6.318  11.142  0.9855 -0.7898  0.4287
 4516TIP3    H235040   2.952   6.221  11.049 -0.4115  0.7050 -0.1098
 4517TIP3   OH235041   0.822   4.274  11.420  0.3568  0.5836 -0.0819
 4517TIP3    H135042   0.841   4.236  11.506  0.9706 -0.6870 -0.7663
 4517TIP3    H235043   0.880   4.350  11.414  1.4958 -0.2699 -0.0252
 4518TIP3   OH235044   0.430   5.171  11.171  0.2724 -0.3847  0.3303
 4518TIP3    H135045   0.334   5.178  11.176  0.4175  1.9913  0.3037
 4518TIP3    H235046   0.450   5.188  11.079  0.6531 -2.3074  0.0284
 4519TIP3   OH235047   1.606   6.396   3.589 -0.4308  0.4191 -0.7769
 4519TIP3    H135048   1.597   6.353   3.504 -2.2637 -0.1760 -0.3055
 4519TIP3    H235049   1.517   6.419   3.614  0.2492  2.0486  0.2595
 4520TIP3   OH235050   2.497   5.049  15.566 -0.2093  0.5116 -0.1571
 4520TIP3    H135051   2.417   5.005  15.534  0.9063  0.1782 -2.6186
 4520TIP3    H235052   2.559   4.978  15.580 -0.0069  0.8652  0.7629
 4521TIP3   OH235053   1.059   0.347  17.193  0.3275  0.5160 -0.5514
 4521TIP3    H135054   1.113   0.409  17.144  0.9351  0.3251 -0.1239
 4521TIP3    H235055   1.037   0.279  17.129 -0.2197  1.0895 -0.9819
 4522TIP3   OH235056   3.195   6.595   0.506  0.5467 -0.0989  0.3275
 4522TIP3    H135057   3.155   6.678   0.534  0.0842 -0.5180  0.9144
 4522TIP3    H235058   3.277   6.591   0.556  0.3587 -0.2069  0.6291
 4523TIP3   OH235059   4.681   1.660   2.642  0.3078 -0.1420 -0.1513
 4523TIP3    H135060   4.681   1.724   2.571 -3.4649  0.7486  0.5682
 4523TIP3    H235061   4.773   1.637   2.653  1.4210  2.8691 -2.4594
 4524TIP3   OH235062   2.719   2.227   1.204  0.2948 -0.4679 -0.1659
 4524TIP3    H135063   2.782   2.218   1.275  0.8561 -2.0620 -0.8422
 4524TIP3    H235064   2.766   2.200   1.125 -0.9620 -0.8295 -0.8191
 4525TIP3   OH235065   4.704   5.605  14.349 -0.2962  0.2612  0.4736
 4525TIP3    H135066   4.785   5.613  14.400 -0.3505  1.4771  0.3693
 4525TIP3    H235067   4.673   5.694  14.339  0.7199  0.2643 -3.3212
 4526TIP3   OH235068   4.570   5.441  12.483  0.0167  0.3426  0.2087
 4526TIP3    H135069   4.575   5.385  12.406 -0.5909  0.7546 -0.1362
 4526TIP3    H235070   4.622   5.518  12.461  0.3250  0.2006  0.4367
 4527TIP3   OH235071   4.701   3.307   2.571  0.3482 -0.2772  0.2596
 4527TIP3    H135072   4.628   3.367   2.553 -0.3590 -0.6682  1.7397
 4527TIP3    H235073   4.677   3.227   2.524 -0.1906 -0.4079  0.7478
 4528TIP3   OH235074   3.240   6.801   1.739 -0.3165  0.0036 -0.0398
 4528TIP3    H135075   3.211   6.799   1.830 -0.6472  0.3584 -0.1377
 4528TIP3    H235076   3.172   6.850   1.693 -1.0024 -1.5886 -0.7710
 4529TIP3   OH235077   3.583   1.866  14.878 -0.0918 -0.2175 -0.1478
 4529TIP3    H135078   3.618   1.955  14.879  1.5996 -0.8514 -1.2753
 4529TIP3    H235079   3.505   1.872  14.821  0.1390  0.4948 -0.3995
 4530TIP3   OH235080   3.841   2.525  16.819 -0.3834  0.1509 -0.2174
 4530TIP3    H135081   3.787   2.513  16.742  0.4559 -0.7603 -0.6768
 4530TIP3    H235082   3.793   2.588  16.873 -1.7389 -0.4269 -0.7435
 4531TIP3   OH235083   4.660   4.168   3.587 -0.5136  0.2502 -0.0589
 4531TIP3    H135084   4.750   4.198   3.577 -0.6212  0.6340  0.1050
 4531TIP3    H235085   4.639   4.124   3.505 -0.5856  1.2256 -0.5645
 4532TIP3   OH235086   1.240   5.467   1.522 -0.2497 -0.3168 -0.6065
 4532TIP3    H135087   1.332   5.487   1.505 -0.2489 -0.0849 -0.3209
 4532TIP3    H235088   1.240   5.374   1.546 -0.0760 -0.2847 -0.4871
 4533TIP3   OH235089   3.942   6.630   5.428 -0.3405  0.5229 -0.2263
 4533TIP3    H135090   3.926   6.588   5.514 -2.7913  0.7212 -0.5457
 4533TIP3    H235091   3.879   6.702   5.425  2.0589  2.6469 -0.8070
 4534TIP3   OH235092   6.699   0.795  13.680 -0.5848  0.5399  0.0931
 4534TIP3    H135093   6.693   0.701  13.700 -0.9198 -0.0240 -2.5329
 4534TIP3    H235094   6.792   0.809  13.663 -0.5073  0.7380  0.6637
 4535TIP3   OH235095   5.320   2.666   3.770  0.1381 -0.0273  0.2483
 4535TIP3    H135096   5.260   2.734   3.800  0.2618 -0.4773  1.5539
 4535TIP3    H235097   5.294   2.650   3.679 -0.0478  1.5780  0.0041
 4536TIP3   OH235098   1.414   1.575   5.718  0.0668 -0.1682 -0.5748
 4536TIP3    H135099   1.349   1.506   5.708 -0.4237  0.1797  0.1693
 4536TIP3    H235100   1.382   1.629   5.790 -0.1212  1.4513 -1.8217
 4537TIP3   OH235101   4.002   0.760  16.875  0.0426  0.2649  0.2175
 4537TIP3    H135102   3.981   0.717  16.958 -1.0945 -1.7787 -1.1143
 4537TIP3    H235103   4.098   0.755  16.869  0.1515  0.6111  1.4810
 4538TIP3   OH235104   4.908   1.034   3.600 -0.0356 -0.1827  0.1665
 4538TIP3    H135105   4.832   1.005   3.549 -0.4271  0.8576  0.1584
 4538TIP3    H235106   4.982   1.025   3.540 -0.4958  1.0665 -0.6125
 4539TIP3   OH235107   4.125   3.833   4.608  0.2849 -0.0640  0.0005
 4539TIP3    H135108   4.214   3.825   4.643  0.2480  1.4376  0.5082
 4539TIP3    H235109   4.092   3.915   4.647 -1.8374 -1.3328  0.9867
 4540TIP3   OH235110   0.020   1.564  13.024 -0.1086 -0.0368 -0.6341
 4540TIP3    H135111  -0.061   1.579  13.074  0.5716 -0.8861  0.7418
 4540TIP3    H235112   0.019   1.470  13.005  2.2471 -0.7545  2.4191
 4541TIP3   OH235113   6.667   5.825   1.140  0.2020  0.3975  0.3255
 4541TIP3    H135114   6.604   5.759   1.167 -1.1407  1.2573 -0.6280
 4541TIP3    H235115   6.744   5.809   1.195 -1.1214 -0.1728  2.0564
 4542TIP3   OH235116   3.468   1.921  16.251 -0.1255  0.5647 -0.2318
 4542TIP3    H135117   3.553   1.955  16.280  0.1158 -1.2721  1.3682
 4542TIP3    H235118   3.407   1.945  16.320 -0.3564 -0.4443 -0.0769
 4543TIP3   OH235119   3.449   6.608   2.539  0.2694  0.0002  0.0757
 4543TIP3    H135120   3.528   6.658   2.562  0.5792 -0.8048  0.7929
 4543TIP3    H235121   3.479   6.544   2.475  0.1565 -0.1685  0.1916
 4544TIP3   OH235122   0.441   5.369   4.945 -0.2128  0.1573  0.1539
 4544TIP3    H135123   0.411   5.334   5.028 -1.7141 -0.9787 -0.8542
 4544TIP3    H235124   0.447   5.464   4.960 -0.7131 -0.0086  1.4556
 4545TIP3   OH235125   6.171   3.318   3.271 -0.2665  0.2544 -0.6931
 4545TIP3    H135126   6.092   3.293   3.222 -1.0615 -2.7141  1.9528
 4545TIP3    H235127   6.147   3.399   3.316 -1.8948 -0.6763  0.1726
 4546TIP3   OH235128   1.702   2.318  11.774  0.3094  0.1891 -0.1416
 4546TIP3    H135129   1.732   2.245  11.828 -1.1681 -2.7715 -3.1311
 4546TIP3    H235130   1.780   2.345  11.725  1.0144  1.1387  1.4354
 4547TIP3   OH235131   2.508   0.487  14.594  0.5770 -0.2763  0.5240
 4547TIP3    H135132   2.593   0.520  14.563  0.9343 -1.4525  0.2514
 4547TIP3    H235133   2.455   0.482  14.515  1.0447 -1.9171  0.2908
 4548TIP3   OH235134   0.448   6.053   6.049  0.0438 -0.7552 -0.2921
 4548TIP3    H135135   0.447   6.001   6.129  0.6414 -0.1842  0.0868
 4548TIP3    H235136   0.478   5.992   5.981 -0.1444 -1.1461 -0.0223
 4549TIP3   OH235137   1.806   6.663  11.998  0.2056  0.1031 -0.1049
 4549TIP3    H135138   1.748   6.698  12.066  0.6051 -0.2200  0.4113
 4549TIP3    H235139   1.747   6.624  11.934 -0.1612  0.0131  0.2837
 4550TIP3   OH235140   3.096   6.468   5.088  0.3001 -0.5420  0.0663
 4550TIP3    H135141   3.082   6.558   5.059  0.4340 -0.8954 -1.1090
 4550TIP3    H235142   3.060   6.466   5.177 -2.1249 -0.0247 -0.8724
 4551TIP3   OH235143   6.654   5.240  15.949  0.1886  0.4222  0.2876
 4551TIP3    H135144   6.679   5.250  15.857  0.4118 -0.1159  0.2916
 4551TIP3    H235145   6.689   5.319  15.992  1.7951 -0.2688  0.2735
 4552TIP3   OH235146   2.493   4.165  11.920 -0.3403 -0.3162  0.2934
 4552TIP3    H135147   2.472   4.080  11.881 -0.8191  0.9482 -2.3136
 4552TIP3    H235148   2.476   4.154  12.014  1.9827 -3.8072  0.3730
 4553TIP3   OH235149   3.058   0.297   2.688 -0.3122 -0.2319 -0.4898
 4553TIP3    H135150   2.975   0.252   2.673  0.2151 -1.5501  0.4283
 4553TIP3    H235151   3.077   0.282   2.781  0.7805  0.3241 -0.6137
 4554TIP3   OH235152   4.235   1.954  11.954  0.8164  0.1606  0.1563
 4554TIP3    H135153   4.288   2.034  11.954  0.3460  0.4784 -1.0419
 4554TIP3    H235154   4.173   1.966  11.882  0.0617 -0.8349  0.6358
 4555TIP3   OH235155   2.885   6.126  15.207 -0.0705  0.5538  0.0335
 4555TIP3    H135156   2.803   6.138  15.159  0.4758  0.5117 -0.9047
 4555TIP3    H235157   2.898   6.208  15.254 -0.3373  0.7746 -0.2814
 4556TIP3   OH235158   1.745   4.132  14.915  0.5385 -0.0430  0.1945
 4556TIP3    H135159   1.693   4.097  14.987 -0.4051 -0.1894 -0.5443
 4556TIP3    H235160   1.691   4.201  14.877  0.5261 -0.7350 -1.0785
 4557TIP3   OH235161   3.080   1.030   2.370  0.5011  0.6195 -0.4550
 4557TIP3    H135162   3.103   1.064   2.284  0.1673  1.1366 -0.3427
 4557TIP3    H235163   3.100   0.936   2.365  0.2086  0.5895 -1.1945
 4558TIP3   OH235164   1.918   0.174  15.397  0.2417  0.5121 -0.1281
 4558TIP3    H135165   1.854   0.243  15.417 -0.8177 -0.5107  0.0774
 4558TIP3    H235166   1.986   0.184  15.463 -0.6673  0.4040  0.8323
 4559TIP3   OH235167   0.384   2.665   5.188 -0.3217 -0.7265  0.0009
 4559TIP3    H135168   0.351   2.575   5.190  1.6536 -1.4628  1.3107
 4559TIP3    H235169   0.443   2.670   5.263 -2.3139  2.4455  1.4081
 4560TIP3   OH235170   5.209   0.585  15.756  0.2793 -0.8094  0.2389
 4560TIP3    H135171   5.303   0.574  15.771  0.3334 -0.1487  0.4000
 4560TIP3    H235172   5.200   0.586  15.661  1.0648  4.0307  0.0907
 4561TIP3   OH235173   6.163   4.225   4.239  0.1853  0.4628 -0.4632
 4561TIP3    H135174   6.122   4.173   4.309  0.3579 -0.5718 -1.1229
 4561TIP3    H235175   6.094   4.236   4.174  1.0069 -1.4633 -1.6732
 4562TIP3   OH235176   0.255   2.487  10.619 -0.3723 -0.0027  0.2068
 4562TIP3    H135177   0.218   2.479  10.531  3.0606  2.7732 -1.6406
 4562TIP3    H235178   0.311   2.410  10.629  0.3833  0.4371 -0.6399
 4563TIP3   OH235179   1.963   2.982   6.566  0.3373 -0.4901 -0.0695
 4563TIP3    H135180   1.936   2.921   6.497 -1.4618  1.0476 -0.7671
 4563TIP3    H235181   2.003   2.926   6.633 -2.9253 -2.6825  0.1604
 4564TIP3   OH235182   2.872   4.154  12.180 -0.6689  0.4947 -0.0031
 4564TIP3    H135183   2.859   4.067  12.142 -1.4270  0.4567  0.3256
 4564TIP3    H235184   2.876   4.213  12.105 -0.9004  0.2678 -0.1941
 4565TIP3   OH235185   4.038   0.222   5.483  0.1105 -0.0059 -0.1399
 4565TIP3    H135186   4.129   0.199   5.500  0.6849  1.3560 -1.2570
 4565TIP3    H235187   3.991   0.139   5.482  1.4225 -0.7544 -0.0969
 4566TIP3   OH235188   2.771   4.834  16.578 -0.0703  0.0390 -0.1478
 4566TIP3    H135189   2.838   4.794  16.633  0.1801 -3.0144 -2.5604
 4566TIP3    H235190   2.767   4.925  16.608  1.4767 -0.9857  3.4942
 4567TIP3   OH235191   2.522   6.040   3.985 -0.7513  0.2863 -0.0216
 4567TIP3    H135192   2.449   6.084   3.940 -1.3122 -0.4356  0.1813
 4567TIP3    H235193   2.589   6.032   3.917 -1.7513 -1.1821 -0.8772
 4568TIP3   OH235194   5.770   5.291   6.258 -0.2184  0.1009 -0.6058
 4568TIP3    H135195   5.713   5.223   6.292 -0.4019  0.1021 -0.9091
 4568TIP3    H235196   5.710   5.359   6.225 -0.0400  0.3686 -0.3825
 4569TIP3   OH235197   1.544   0.430   2.368 -0.2348 -0.3869  0.5998
 4569TIP3    H135198   1.551   0.411   2.274 -0.2151  1.6052  0.1844
 4569TIP3    H235199   1.615   0.491   2.386  0.4908 -1.6759  2.1745
 4570TIP3   OH235200   2.486   0.356  16.712 -0.3895 -0.8954  0.0456
 4570TIP3    H135201   2.571   0.387  16.682 -1.0226  1.3871  0.4891
 4570TIP3    H235202   2.424   0.393  16.650 -1.2870 -0.2516  1.3109
 4571TIP3   OH235203   0.341   5.868   0.671 -0.0785  0.6112  0.2801
 4571TIP3    H135204   0.313   5.781   0.639  0.5527  0.0541  1.2250
 4571TIP3    H235205   0.330   5.925   0.595  1.1387 -0.6476 -0.8818
 4572TIP3   OH235206   3.448   2.615  17.250  0.1240 -0.3066  0.3707
 4572TIP3    H135207   3.491   2.530  17.263  1.3621  0.2754  0.1804
 4572TIP3    H235208   3.424   2.616  17.157  0.2517 -0.3801  0.3374
 4573TIP3   OH235209   3.581   5.651   1.045 -0.1218 -0.1043  0.0689
 4573TIP3    H135210   3.579   5.712   0.971  1.2117 -0.1132  0.0163
 4573TIP3    H235211   3.616   5.702   1.118 -0.5941 -0.3444  0.4675
 4574TIP3   OH235212   5.684   3.453  16.394  0.5702  0.6053 -0.1584
 4574TIP3    H135213   5.722   3.511  16.460  1.3291 -0.5109  0.3999
 4574TIP3    H235214   5.658   3.376  16.443  0.1238  0.2215 -1.0009
 4575TIP3   OH235215   0.787   2.134   2.973 -0.1050 -0.4553  0.2576
 4575TIP3    H135216   0.801   2.062   3.034 -0.7467 -0.2763  0.6152
 4575TIP3    H235217   0.842   2.206   3.007 -2.3387  0.4593  2.0259
 4576TIP3   OH235218   3.604   3.029  10.828 -0.0722 -0.0849 -0.2324
 4576TIP3    H135219   3.674   3.031  10.762  1.1731  2.6625  1.1034
 4576TIP3    H235220   3.562   3.114  10.822 -1.1986 -0.5136  1.2063
 4577TIP3   OH235221   1.133   2.725  15.326  0.0373  0.1398 -0.0943
 4577TIP3    H135222   1.139   2.794  15.259  1.0280 -0.1442 -0.3132
 4577TIP3    H235223   1.184   2.652  15.289 -1.2022 -0.8040  0.0271
 4578TIP3   OH235224   5.556   4.738  15.946  0.0054 -0.4308  0.0127
 4578TIP3    H135225   5.603   4.820  15.963  0.5558 -0.5897 -0.7254
 4578TIP3    H235226   5.625   4.671  15.943 -0.3862 -0.8376  0.0394
 4579TIP3   OH235227   2.675   5.625  14.261 -0.4904  0.4272 -0.3234
 4579TIP3    H135228   2.734   5.665  14.325 -1.5084 -0.2028  1.0419
 4579TIP3    H235229   2.607   5.690  14.246 -1.2241 -0.1082  0.6119
 4580TIP3   OH235230   4.732   4.188  12.125  0.0943 -0.0205 -0.5331
 4580TIP3    H135231   4.769   4.113  12.079  0.5107  0.3716 -0.8477
 4580TIP3    H235232   4.686   4.151  12.200  0.2589 -0.5904 -0.7150
 4581TIP3   OH235233   6.491   3.677   3.839 -0.6388 -0.1974 -0.0837
 4581TIP3    H135234   6.542   3.712   3.766  2.6257 -1.3376  1.5356
 4581TIP3    H235235   6.507   3.582   3.835 -0.6610 -0.2934  1.8972
 4582TIP3   OH235236   6.007   3.419  15.597  0.0756  0.1626 -0.3623
 4582TIP3    H135237   6.076   3.464  15.549 -1.0492  1.9445 -0.3544
 4582TIP3    H235238   6.041   3.331  15.612  2.1999  0.9246 -0.6198
 4583TIP3   OH235239   1.785   3.105   2.441 -0.3574 -0.1545 -0.5192
 4583TIP3    H135240   1.720   3.050   2.399 -1.9356  2.7291 -2.0171
 4583TIP3    H235241   1.844   3.131   2.370  0.5464 -0.1632  0.2184
 4584TIP3   OH235242   0.016   0.875  11.427  0.0039 -0.4491 -0.6386
 4584TIP3    H135243  -0.063   0.890  11.480 -0.2572 -2.3315 -0.4412
 4584TIP3    H235244  -0.016   0.878  11.336  0.2308  1.5811 -0.6641
 4585TIP3   OH235245   6.820   0.119  15.546 -0.5301  0.3798 -0.4426
 4585TIP3    H135246   6.818   0.023  15.544  0.0038  0.3047  1.7812
 4585TIP3    H235247   6.783   0.145  15.462 -1.2768 -1.7703 -0.8168
 4586TIP3   OH235248   0.142   3.222  15.242 -0.3749 -0.7028  0.1125
 4586TIP3    H135249   0.134   3.131  15.270  0.2508 -0.4692  1.0900
 4586TIP3    H235250   0.065   3.238  15.188 -0.9925 -1.5321  0.7316
 4587TIP3   OH235251   3.370   6.818  14.027  0.0256  0.3660 -0.1556
 4587TIP3    H135252   3.441   6.785  14.083  0.6241  0.2431 -0.9897
 4587TIP3    H235253   3.367   6.912  14.045 -0.1866  0.2364  0.5294
 4588TIP3   OH235254   3.972   3.933  17.038  0.8227 -0.4455  0.5658
 4588TIP3    H135255   4.028   3.997  16.994  0.4167 -1.2522 -1.2170
 4588TIP3    H235256   3.890   3.980  17.054  0.3955 -0.5708 -1.0655
 4589TIP3   OH235257   2.540   2.557  15.537 -0.1475 -0.2962  0.1876
 4589TIP3    H135258   2.476   2.487  15.525  0.2141 -0.3942 -1.1456
 4589TIP3    H235259   2.569   2.580  15.449  2.7088 -1.2261  0.8254
 4590TIP3   OH235260   0.918   2.364   0.914  0.4709 -0.1313  0.5256
 4590TIP3    H135261   0.906   2.271   0.898  3.3346 -0.1734 -1.6962
 4590TIP3    H235262   0.892   2.406   0.832  1.7638  0.7708  0.5565
 4591TIP3   OH235263   5.002   1.733  11.118  0.1432 -0.6446 -0.7326
 4591TIP3    H135264   4.978   1.825  11.133  2.2402 -0.1883 -0.0765
 4591TIP3    H235265   4.918   1.689  11.103 -1.0093  1.0867  0.4551
 4592TIP3   OH235266   1.233   3.795  15.599 -0.3432  0.2173  0.2521
 4592TIP3    H135267   1.259   3.791  15.691 -0.5347 -0.2781  0.2841
 4592TIP3    H235268   1.201   3.708  15.579 -2.4481  0.9423  0.3485
 4593TIP3   OH235269   0.773   3.112   0.952  0.2678  0.9702 -0.3022
 4593TIP3    H135270   0.747   3.062   1.029 -0.9357 -0.2735 -1.4876
 4593TIP3    H235271   0.796   3.198   0.987  2.6251 -0.4412  1.8016
 4594TIP3   OH235272   6.173   3.311  12.462 -0.3431  0.2658  0.1913
 4594TIP3    H135273   6.266   3.311  12.438  0.0734 -0.0177  1.7617
 4594TIP3    H235274   6.129   3.347  12.386  0.7233 -2.4603 -1.8052
 4595TIP3   OH235275   5.089   5.544   0.564 -0.2650  0.4064 -0.2265
 4595TIP3    H135276   5.118   5.615   0.621 -0.5349 -0.0977  0.5519
 4595TIP3    H235277   5.122   5.567   0.477  0.3422  1.0675  0.1796
 4596TIP3   OH235278   1.407   0.458   5.409  0.0705 -0.2661  0.9215
 4596TIP3    H135279   1.436   0.486   5.323 -3.2246 -0.1899 -0.2375
 4596TIP3    H235280   1.446   0.372   5.421  0.8303 -0.1347 -0.4934
 4597TIP3   OH235281   0.191   2.083   3.870 -0.5186  0.2075 -0.3743
 4597TIP3    H135282   0.206   2.161   3.815  1.7256  0.5726  0.7352
 4597TIP3    H235283   0.224   2.108   3.956 -2.0277 -1.1459  0.6097
 4598TIP3   OH235284   5.932   2.035   2.778 -0.0370 -0.0956  0.0925
 4598TIP3    H135285   5.965   2.089   2.706  0.1793  0.3467  0.5229
 4598TIP3    H235286   5.981   2.065   2.855 -0.8746  0.0347  0.5853
 4599TIP3   OH235287   1.295   5.055  13.136  0.5883  0.1069  0.4313
 4599TIP3    H135288   1.316   5.146  13.159 -0.3407  0.1735  1.0677
 4599TIP3    H235289   1.201   5.047  13.154  0.7295 -1.0737  0.6938
 4600TIP3   OH235290   0.483   2.895  16.859  0.1412  0.6435 -0.7366
 4600TIP3    H135291   0.542   2.909  16.933  0.6678  1.0883 -1.2361
 4600TIP3    H235292   0.471   2.982  16.821 -1.1936  0.6282 -0.3757
 4601TIP3   OH235293   1.658   4.023  13.422 -1.0895  0.1131  0.1110
 4601TIP3    H135294   1.622   4.093  13.369 -1.9612 -1.8589 -1.9804
 4601TIP3    H235295   1.649   4.053  13.512 -1.9820  2.4029 -0.7268
 4602TIP3   OH235296   2.887   2.467   5.187  0.3630  0.4640  0.0223
 4602TIP3    H135297   2.963   2.447   5.132 -0.6339 -0.4792 -1.0435
 4602TIP3    H235298   2.899   2.559   5.212  0.7652  0.9499 -1.9008
 4603TIP3   OH235299   5.634   6.548  11.187 -0.1455  0.2166  0.5517
 4603TIP3    H135300   5.601   6.577  11.102  0.3221 -0.1483  0.2409
 4603TIP3    H235301   5.617   6.454  11.189  0.7487  0.0467  0.4386
 4604TIP3   OH235302   4.053   2.372   5.137  0.1823 -0.5821  0.0991
 4604TIP3    H135303   4.013   2.289   5.164 -1.1719  0.1521  0.4004
 4604TIP3    H235304   3.980   2.434   5.134  0.6372 -0.1079 -3.0687
 4605TIP3   OH235305   3.370   5.758   0.241  0.2070  0.3351 -0.5640
 4605TIP3    H135306   3.359   5.666   0.265  1.2803  0.1435 -0.8012
 4605TIP3    H235307   3.291   5.779   0.192 -0.0151 -0.4829 -0.5662
 4606TIP3   OH235308   2.985   5.874   1.254  0.1759 -0.2326  0.2261
 4606TIP3    H135309   2.946   5.926   1.184  0.8284 -1.4127 -1.0366
 4606TIP3    H235310   2.995   5.935   1.327 -4.8158 -0.1004  0.9336
 4607TIP3   OH235311   1.757   2.074  12.854  0.3014  0.1847 -0.2747
 4607TIP3    H135312   1.781   2.162  12.883  1.2438 -0.2474  0.2906
 4607TIP3    H235313   1.816   2.056  12.781 -0.0632  0.1203 -0.5532
 4608TIP3   OH235314   3.514   1.435   0.485 -0.3527 -0.1925 -0.2461
 4608TIP3    H135315   3.515   1.426   0.390 -0.6996 -0.6946 -0.2018
 4608TIP3    H235316   3.559   1.519   0.502 -0.3449 -0.0761 -0.8492
 4609TIP3   OH235317   3.750   4.822  15.252 -0.6536  0.6789  0.6538
 4609TIP3    H135318   3.659   4.822  15.221 -0.0827  0.8750 -1.0932
 4609TIP3    H235319   3.789   4.746  15.210  0.6348  2.0256 -0.6081
 4610TIP3   OH235320   1.423   1.830  11.767  0.2458  0.1326  0.1812
 4610TIP3    H135321   1.430   1.924  11.780 -0.7459  0.3762 -0.9783
 4610TIP3    H235322   1.367   1.820  11.690  0.1010 -1.4099  0.4646
 4611TIP3   OH235323   4.007   1.084  15.669 -0.2358 -0.1126 -0.0504
 4611TIP3    H135324   3.940   1.146  15.698  0.8517  0.3543  1.5413
 4611TIP3    H235325   3.960   1.022  15.614 -1.9182  0.3565  0.8212
 4612TIP3   OH235326   3.653   5.599  14.439 -0.0783  0.7077  0.3523
 4612TIP3    H135327   3.621   5.512  14.460  3.0016 -1.0634 -1.9380
 4612TIP3    H235328   3.728   5.613  14.497  0.7259  0.9288 -0.7080
 4613TIP3   OH235329   4.470   4.389  13.145 -0.0942  0.1866  0.2729
 4613TIP3    H135330   4.528   4.330  13.098  0.6954  0.5484  0.7748
 4613TIP3    H235331   4.528   4.439  13.203 -1.0731 -0.5728  1.9761
 4614TIP3   OH235332   0.003   1.268   1.021 -0.3342  0.3800 -0.3346
 4614TIP3    H135333   0.073   1.324   1.053  0.2992 -1.5611  1.7962
 4614TIP3    H235334  -0.063   1.269   1.091 -1.1820 -0.0364 -1.1104
 4615TIP3   OH235335   6.206   2.528   0.143 -0.4814  0.7355 -0.3627
 4615TIP3    H135336   6.256   2.490   0.216 -0.4102  0.0730 -0.7517
 4615TIP3    H235337   6.122   2.551   0.183 -0.7854 -0.4926 -0.2674
 4616TIP3   OH235338   2.121   0.220  13.615  0.0889  0.3339 -0.2174
 4616TIP3    H135339   2.213   0.229  13.637  0.1242  0.2960 -0.3530
 4616TIP3    H235340   2.094   0.138  13.658  0.4214 -0.3024 -1.2003
 4617TIP3   OH235341   6.703   4.147  12.745  0.9561  0.1777 -0.2881
 4617TIP3    H135342   6.742   4.193  12.819 -1.2085  0.4998  0.6992
 4617TIP3    H235343   6.712   4.207  12.671 -0.9316  1.8040  0.7568
 4618TIP3   OH235344   4.569   3.442   3.912 -0.5393 -0.5525 -0.0306
 4618TIP3    H135345   4.493   3.392   3.942 -0.3369 -0.2414  1.0425
 4618TIP3    H235346   4.545   3.473   3.825 -2.1733  0.6284  0.8165
 4619TIP3   OH235347   5.649   3.824  15.354  0.5236 -0.3076  0.0650
 4619TIP3    H135348   5.740   3.797  15.369  0.8760  0.6018 -0.3897
 4619TIP3    H235349   5.655   3.891  15.286 -0.3836  0.5071  0.7725
 4620TIP3   OH235350   1.714   5.325   0.869 -0.3123  0.0715  0.1572
 4620TIP3    H135351   1.702   5.327   0.964  1.8963 -0.5267  0.4770
 4620TIP3    H235352   1.676   5.242   0.842 -1.6320  0.5900  0.4197
 4621TIP3   OH235353   5.207   1.595   4.373 -0.9042 -0.1438 -0.2883
 4621TIP3    H135354   5.157   1.514   4.385  2.9153 -2.5761  0.0345
 4621TIP3    H235355   5.297   1.571   4.397  0.2464  4.3318  0.2265
 4622TIP3   OH235356   3.068   1.276   1.831 -0.1242  0.8206  0.5194
 4622TIP3    H135357   3.021   1.281   1.914 -1.2722  1.3846 -0.1412
 4622TIP3    H235358   2.998   1.269   1.765  0.7074  1.8036 -0.4897
 4623TIP3   OH235359   1.227   4.884   5.406  0.5705  0.7259  0.4529
 4623TIP3    H135360   1.132   4.883   5.392  0.1818 -0.0372  2.9375
 4623TIP3    H235361   1.246   4.974   5.432  0.9666  1.5710 -2.5693
 4624TIP3   OH235362   4.905   5.455  13.611 -0.5925  0.6098  0.3526
 4624TIP3    H135363   4.962   5.447  13.687  0.7612 -0.5003 -0.7590
 4624TIP3    H235364   4.823   5.491  13.646  1.1063  3.2008  1.8004
 4625TIP3   OH235365   5.985   2.774  15.530 -0.1206  0.0787 -0.2666
 4625TIP3    H135366   6.027   2.696  15.494 -1.8527 -1.0141 -0.0087
 4625TIP3    H235367   6.000   2.768  15.624  2.3983  1.7091 -0.5245
 4626TIP3   OH235368   4.019   2.627  11.179 -0.1736  0.0590  0.5431
 4626TIP3    H135369   3.938   2.622  11.229 -0.4587  1.1708  0.2092
 4626TIP3    H235370   4.021   2.546  11.127 -0.2112 -0.7650  1.8157
 4627TIP3   OH235371   6.498   4.856  12.756  0.4533  0.2625 -0.1015
 4627TIP3    H135372   6.412   4.839  12.718  0.7515 -1.0073 -0.2219
 4627TIP3    H235373   6.491   4.828  12.847  0.8279 -0.1718 -0.2004
 4628TIP3   OH235374   1.398   6.028   6.767  0.0524 -0.4643 -1.2789
 4628TIP3    H135375   1.384   6.066   6.854  0.4742 -1.0512 -0.9486
 4628TIP3    H235376   1.311   5.997   6.740 -0.0583 -0.3800 -1.0190
 4629TIP3   OH235377   4.217   3.789  13.990  0.2131  0.3077  0.2086
 4629TIP3    H135378   4.220   3.694  13.978 -2.1126 -0.0648  2.0551
 4629TIP3    H235379   4.229   3.801  14.085 -1.9411  1.6586  0.3474
 4630TIP3   OH235380   0.590   2.585  15.451  0.1159  0.1379 -0.2176
 4630TIP3    H135381   0.618   2.584  15.543 -0.0740  0.7591 -0.1556
 4630TIP3    H235382   0.671   2.578  15.401  0.2317 -0.0467 -0.0047
 4631TIP3   OH235383   0.009   6.161  17.182 -0.1884  0.0894 -1.1691
 4631TIP3    H135384  -0.033   6.186  17.264 -0.7364 -0.6258 -1.2233
 4631TIP3    H235385   0.046   6.074  17.199  1.4451  0.7798 -1.0661
 4632TIP3   OH235386   1.523   5.711  14.787 -0.5744 -0.5673  1.1096
 4632TIP3    H135387   1.565   5.782  14.835 -1.6301  0.3204  0.7521
 4632TIP3    H235388   1.585   5.638  14.791  0.9615  0.6913  0.6511
 4633TIP3   OH235389   0.447   2.459  12.820  0.6174 -0.2567  0.3971
 4633TIP3    H135390   0.496   2.529  12.778  1.2006 -0.2955  0.9884
 4633TIP3    H235391   0.507   2.426  12.888 -0.6258  0.4103  1.8591
 4634TIP3   OH235392   3.605   1.471  15.167  0.3045  0.5157  0.0758
 4634TIP3    H135393   3.632   1.415  15.240 -0.0370 -0.6561 -0.6749
 4634TIP3    H235394   3.590   1.557  15.206  1.7363  0.3136  1.0865
 4635TIP3   OH235395   1.818   5.281  16.146  0.3214 -0.5597  0.1163
 4635TIP3    H135396   1.746   5.220  16.129  1.0336 -0.9724 -1.5280
 4635TIP3    H235397   1.896   5.236  16.111  0.8720  1.2140 -1.0142
 4636TIP3   OH235398   5.229   2.297  11.637  0.3259  0.4050 -0.7041
 4636TIP3    H135399   5.217   2.224  11.576 -1.2832  1.4382 -1.6620
 4636TIP3    H235400   5.144   2.305  11.682  1.2922  0.0465  1.2722
 4637TIP3   OH235401   4.427   4.165   3.965  0.6272  0.2044  0.1970
 4637TIP3    H135402   4.395   4.239   4.018 -0.8395 -0.1310 -0.1976
 4637TIP3    H235403   4.348   4.131   3.923  1.5250 -0.6794 -0.7646
 4638TIP3   OH235404   2.024   2.087  17.129  0.5123 -0.8414 -0.3745
 4638TIP3    H135405   2.037   2.161  17.071  0.1122 -1.1268 -0.8379
 4638TIP3    H235406   1.945   2.044  17.095  0.3505 -1.0872  0.2937
 4639TIP3   OH235407   3.174   5.870   0.438 -0.0409 -0.1879  0.4287
 4639TIP3    H135408   3.270   5.863   0.438 -0.0622 -0.7335 -1.2729
 4639TIP3    H235409   3.150   5.857   0.347 -1.6251  1.8176  0.5510
 4640TIP3   OH235410   4.042   2.518  11.926  0.3621  0.2068  0.2715
 4640TIP3    H135411   4.062   2.610  11.943  0.8027  0.0469  0.6363
 4640TIP3    H235412   4.076   2.501  11.838  1.3442  0.0849  0.6657
 4641TIP3   OH235413   6.541   1.187   5.201  0.1811  0.5492  0.1840
 4641TIP3    H135414   6.582   1.265   5.164  1.2062 -0.0616  0.0227
 4641TIP3    H235415   6.528   1.209   5.294  0.2089  1.0158  0.0779
 4642TIP3   OH235416   4.894   5.744   4.016  0.5006 -0.5234 -0.1830
 4642TIP3    H135417   4.977   5.789   4.032 -0.3063  0.3227  1.7002
 4642TIP3    H235418   4.829   5.793   4.066 -0.8770 -2.1541 -0.3095
 4643TIP3   OH235419   0.040   5.749   1.792 -0.2164 -0.2372  0.4516
 4643TIP3    H135420   0.030   5.835   1.832 -1.2837 -0.0908 -0.0969
 4643TIP3    H235421   0.133   5.730   1.798 -0.3037 -0.0603  2.6679
 4644TIP3   OH235422   3.533   2.654  14.906 -0.0445 -0.2387 -0.5220
 4644TIP3    H135423   3.562   2.590  14.841  0.1419 -1.1389  0.4439
 4644TIP3    H235424   3.478   2.604  14.966 -0.5099  0.6666 -0.1898
 4645TIP3   OH235425   2.335   3.472  13.870 -0.2464 -0.6791 -0.1978
 4645TIP3    H135426   2.350   3.527  13.948  1.1457 -2.0263  0.5204
 4645TIP3    H235427   2.290   3.395  13.904 -1.2204 -0.4688 -1.0215
 4646TIP3   OH235428   0.778   0.114   0.576  0.1498 -0.5887 -0.2746
 4646TIP3    H135429   0.828   0.127   0.496  0.1285  0.3208 -0.1522
 4646TIP3    H235430   0.839   0.069   0.635  1.2876  1.6169  0.3053
 4647TIP3   OH235431   6.770   2.543   3.670 -0.4673  0.8713 -0.1716
 4647TIP3    H135432   6.814   2.495   3.600 -1.4504 -0.2215 -0.0706
 4647TIP3    H235433   6.772   2.635   3.642  1.7835  0.8365 -0.1850
 4648TIP3   OH235434   3.897   1.043   0.256 -0.0650 -0.6293 -0.0506
 4648TIP3    H135435   3.895   1.116   0.195 -1.0033 -1.1373 -0.6341
 4648TIP3    H235436   3.951   0.976   0.213 -0.6910 -0.9705 -0.3170
 4649TIP3   OH235437   4.085   1.018  12.853  0.2308  0.1912 -0.5228
 4649TIP3    H135438   4.088   1.034  12.948 -1.3481 -0.5672 -0.3257
 4649TIP3    H235439   4.153   1.075  12.817  0.5312  0.8421  1.0229
 4650TIP3   OH235440   0.115   6.078  14.330  0.1399  0.2097 -0.0485
 4650TIP3    H135441   0.116   6.150  14.394  0.6735 -1.4307  1.8265
 4650TIP3    H235442   0.049   6.105  14.266  0.8294  2.7057  0.2120
 4651TIP3   OH235443   0.743   3.348  17.092 -0.0992 -0.3353 -0.4811
 4651TIP3    H135444   0.796   3.271  17.114  0.0213 -0.1909 -0.2664
 4651TIP3    H235445   0.786   3.385  17.015  0.4199  0.0845  0.0079
 4652TIP3   OH235446   2.785   0.714   2.292 -0.2032  0.6139 -0.4921
 4652TIP3    H135447   2.793   0.747   2.381  0.3781  1.3345 -0.8088
 4652TIP3    H235448   2.691   0.713   2.275 -0.5290 -1.9747  1.0319
 4653TIP3   OH235449   0.076   2.545   3.936  0.4369  0.0169 -0.6681
 4653TIP3    H135450   0.143   2.480   3.960  1.8386  0.7122 -2.5760
 4653TIP3    H235451   0.058   2.528   3.844 -1.9738 -0.0777 -0.2058
 4654TIP3   OH235452   3.642   0.966  11.740 -0.0628 -0.6104  0.0096
 4654TIP3    H135453   3.562   0.933  11.779 -0.7148 -0.2519 -0.9971
 4654TIP3    H235454   3.707   0.898  11.759 -0.4356 -0.5918  1.3989
 4655TIP3   OH235455   3.360   2.792  13.652 -0.1629  0.0781  0.0447
 4655TIP3    H135456   3.411   2.870  13.677 -0.9727  0.7084 -0.2324
 4655TIP3    H235457   3.315   2.767  13.732  1.8986 -1.5279  0.7517
 4656TIP3   OH235458   5.021   3.056   0.607  0.7724  0.5042  0.2674
 4656TIP3    H135459   5.038   3.140   0.651 -0.2125  1.2159 -0.6909
 4656TIP3    H235460   5.009   3.079   0.515  0.7795 -0.7340 -0.0503
 4657TIP3   OH235461   2.079   6.807  13.742  0.0724 -0.3827  0.2571
 4657TIP3    H135462   2.143   6.735  13.748 -0.2598 -0.5332  2.6217
 4657TIP3    H235463   1.994   6.763  13.742 -0.1255 -0.0174  1.4619
 4658TIP3   OH235464   1.186   0.904   2.892 -0.3013 -0.9637 -0.3076
 4658TIP3    H135465   1.236   0.832   2.931 -0.5699 -0.6139  0.7114
 4658TIP3    H235466   1.252   0.967   2.864 -0.0569 -1.6927 -1.3787
 4659TIP3   OH235467   6.714   0.692  14.481  0.0358 -0.1750  0.5170
 4659TIP3    H135468   6.769   0.747  14.538 -1.7063  0.9307  1.1937
 4659TIP3    H235469   6.644   0.661  14.539 -0.3960 -1.0656 -0.4674
 4660TIP3   OH235470   1.208   0.664   1.847  0.9268 -0.1833 -0.1643
 4660TIP3    H135471   1.138   0.682   1.785  0.3913  0.2175  0.5436
 4660TIP3    H235472   1.263   0.599   1.803  0.6198  0.1758 -1.0931
 4661TIP3   OH235473   1.508   1.828   3.246 -0.5635  0.1679  0.1012
 4661TIP3    H135474   1.413   1.831   3.242 -0.6116 -0.7405  0.5696
 4661TIP3    H235475   1.528   1.767   3.317  0.3643 -0.6237 -0.8203
 4662TIP3   OH235476   6.080   3.978   0.353 -0.2491 -0.6501  0.3040
 4662TIP3    H135477   6.065   4.000   0.261 -0.2276  0.9099  0.6501
 4662TIP3    H235478   6.168   3.941   0.355 -0.3025 -0.8173 -0.3295
 4663TIP3   OH235479   5.410   1.362   0.868  0.2409  0.4736 -0.1142
 4663TIP3    H135480   5.412   1.306   0.790 -1.6549 -0.7485  0.6934
 4663TIP3    H235481   5.466   1.436   0.845  0.2744 -0.2167 -2.3858
 4664TIP3   OH235482   1.812   5.900   2.274 -0.1612  0.6207  0.0298
 4664TIP3    H135483   1.872   5.886   2.348 -1.5574 -2.1627  0.6892
 4664TIP3    H235484   1.836   5.832   2.210  0.0315  2.0497 -1.4504
 4665TIP3   OH235485   0.561   6.566   1.165 -0.2829  0.1221 -0.2848
 4665TIP3    H135486   0.486   6.607   1.207  0.0301  0.4563 -0.0503
 4665TIP3    H235487   0.637   6.601   1.211  0.1722  1.9332 -2.3268
 4666TIP3   OH235488   4.307   0.044   2.279  0.3582 -0.0078 -0.2710
 4666TIP3    H135489   4.312   0.079   2.190  3.0474 -1.0385 -0.5725
 4666TIP3    H235490   4.352   0.109   2.333  0.3032 -0.2476  0.0683
 4667TIP3   OH235491   1.815   2.700  11.993  0.6748 -0.5175  0.2714
 4667TIP3    H135492   1.834   2.709  11.899 -1.7376  0.1931 -0.1864
 4667TIP3    H235493   1.720   2.713  11.999  1.0168  1.0112  3.0037
 4668TIP3   OH235494   3.280   0.162  16.735 -0.3761 -0.1433 -0.6440
 4668TIP3    H135495   3.337   0.089  16.759  1.2766  1.7418  1.3687
 4668TIP3    H235496   3.283   0.164  16.639  4.7453  1.1973 -0.5720
 4669TIP3   OH235497   3.995   3.520  11.444  0.0236  0.2704  1.3438
 4669TIP3    H135498   3.960   3.532  11.356 -0.0868  0.2240  1.3813
 4669TIP3    H235499   3.987   3.426  11.461  1.3738  0.0486  0.8384
 4670TIP3   OH235500   0.887   3.453   5.052  0.7371  0.1768 -0.0908
 4670TIP3    H135501   0.931   3.531   5.019  2.3775 -0.0852  1.3542
 4670TIP3    H235502   0.914   3.448   5.144  0.8631 -2.1955 -0.2248
 4671TIP3   OH235503   4.173   6.373   0.967  0.4030  0.2767 -0.0712
 4671TIP3    H135504   4.195   6.465   0.977  2.2642 -0.2306  0.6507
 4671TIP3    H235505   4.197   6.352   0.877  0.7982  0.2847  0.0306
 4672TIP3   OH235506   0.563   5.432  14.637 -0.3993  0.4412 -0.3431
 4672TIP3    H135507   0.493   5.458  14.577  0.8741  1.3001 -1.4907
 4672TIP3    H235508   0.623   5.381  14.584 -0.0362 -0.1210  0.5884
 4673TIP3   OH235509   5.671   1.563  12.315  0.2987 -0.0332  0.1976
 4673TIP3    H135510   5.583   1.579  12.282  0.5466  0.0974 -0.4062
 4673TIP3    H235511   5.696   1.646  12.357 -0.1140 -0.2835  0.9473
 4674TIP3   OH235512   5.835   5.630  15.626 -0.5515  0.3554  0.0079
 4674TIP3    H135513   5.867   5.658  15.712 -0.9984  1.3991 -0.1529
 4674TIP3    H235514   5.914   5.613  15.575 -0.2728  0.6730  0.3339
 4675TIP3   OH235515   1.425   2.396  17.024 -0.1374 -0.1864  0.0002
 4675TIP3    H135516   1.362   2.441  16.967 -2.0655  0.1416  2.3162
 4675TIP3    H235517   1.374   2.371  17.101  1.8893 -2.6309  0.6164
 4676TIP3   OH235518   6.402   5.497   2.694 -0.7297  0.0536 -0.6653
 4676TIP3    H135519   6.373   5.572   2.641  0.6622  0.4414 -0.9161
 4676TIP3    H235520   6.344   5.497   2.770  1.1061  3.2686  0.8685
 4677TIP3   OH235521   6.088   3.151   6.731  0.3604  0.1336  0.4062
 4677TIP3    H135522   6.044   3.169   6.648  2.6935 -1.0014 -1.1356
 4677TIP3    H235523   6.113   3.059   6.726  2.5748  0.6339  1.3425
 4678TIP3   OH235524   5.237   2.996  12.388 -0.0598  0.4593  0.2516
 4678TIP3    H135525   5.293   2.965  12.317 -1.0167 -1.5733  0.3406
 4678TIP3    H235526   5.172   3.050  12.345 -1.1066 -1.4039 -0.5683
 4679TIP3   OH235527   4.953   1.189  12.363  0.1781  0.2472  0.0590
 4679TIP3    H135528   4.889   1.259  12.346 -2.2803 -2.0927 -0.6303
 4679TIP3    H235529   4.991   1.171  12.277 -2.0722 -1.9298 -0.5322
 4680TIP3   OH235530   4.464   5.915   4.761 -0.1061 -0.8759  0.6293
 4680TIP3    H135531   4.540   5.970   4.740 -0.4285 -1.4612 -2.3589
 4680TIP3    H235532   4.489   5.828   4.730 -2.4928 -0.7955 -1.6482
 4681TIP3   OH235533   1.698   4.059  13.696  0.1292 -0.0251  0.4521
 4681TIP3    H135534   1.641   4.078  13.771 -0.3774 -1.4554  0.4460
 4681TIP3    H235535   1.774   4.015  13.734 -0.2336 -0.9627  0.1272
 4682TIP3   OH235536   2.142   0.460   4.142  0.0882 -0.2890 -0.0608
 4682TIP3    H135537   2.093   0.461   4.060 -2.5042  1.3344  1.4321
 4682TIP3    H235538   2.178   0.548   4.150  0.5011 -0.4998  0.4680
 4683TIP3   OH235539   1.945   0.681  12.905 -0.8301 -0.0101  0.0495
 4683TIP3    H135540   1.976   0.771  12.912  1.9757 -0.9892  0.6535
 4683TIP3    H235541   1.859   0.682  12.948 -1.3346  2.5765 -0.9182
 4684TIP3   OH235542   3.873   4.452  13.967  0.2146 -0.0675 -0.5103
 4684TIP3    H135543   3.843   4.513  14.035 -1.1495 -0.8213 -0.4036
 4684TIP3    H235544   3.948   4.408  14.006  1.0657  1.3648 -0.4971
 4685TIP3   OH235545   4.656   4.949   4.241 -0.0117 -0.0900 -0.2955
 4685TIP3    H135546   4.610   4.866   4.240 -0.0199 -0.0811 -0.7928
 4685TIP3    H235547   4.621   4.997   4.167 -1.1314  0.9695  0.8962
 4686TIP3   OH235548   3.594   1.291   1.701 -0.1811  0.8084 -0.0583
 4686TIP3    H135549   3.527   1.290   1.769  1.2005  2.1466  1.3818
 4686TIP3    H235550   3.573   1.217   1.645 -2.2921  0.6532  0.9130
 4687TIP3   OH235551   0.368   1.146  14.194 -0.3316 -0.0124  0.7209
 4687TIP3    H135552   0.460   1.136  14.220 -0.3789 -1.7433  0.2786
 4687TIP3    H235553   0.372   1.172  14.102 -0.2804 -0.8558  0.4760
 4688TIP3   OH235554   0.534   0.135   5.939 -0.0917  0.2170  0.2879
 4688TIP3    H135555   0.554   0.044   5.916  0.9802  0.7901 -1.1420
 4688TIP3    H235556   0.525   0.134   6.035  0.1814 -1.3405  0.3136
 4689TIP3   OH235557   1.408   1.261   3.438 -0.2367 -0.1611 -0.1835
 4689TIP3    H135558   1.437   1.178   3.476 -3.0098 -0.4559  1.3725
 4689TIP3    H235559   1.478   1.323   3.461  1.4703 -1.8505 -0.6606
 4690TIP3   OH235560   1.758   1.829  16.195  0.3096 -0.1607 -1.0165
 4690TIP3    H135561   1.815   1.806  16.268  0.2547 -0.1095 -0.9571
 4690TIP3    H235562   1.669   1.816  16.230  0.2872 -0.3936 -1.1583
 4691TIP3   OH235563   4.254   4.806  15.849  0.9202  0.2046 -0.1226
 4691TIP3    H135564   4.221   4.886  15.807  1.2184  0.9908  1.1144
 4691TIP3    H235565   4.187   4.784  15.913  1.2932 -0.0137  0.1881
 4692TIP3   OH235566   4.715   2.558   5.614  0.0755  0.4037 -0.0145
 4692TIP3    H135567   4.734   2.592   5.527  2.2055  0.0727  0.3119
 4692TIP3    H235568   4.631   2.598   5.638  0.5238  2.1736 -1.3239
 4693TIP3   OH235569   3.239   5.790  14.208 -0.5939 -0.1074 -0.9129
 4693TIP3    H135570   3.209   5.781  14.298 -0.3660  1.7640 -0.6330
 4693TIP3    H235571   3.306   5.722  14.198 -0.2128  0.0446  0.5057
 4694TIP3   OH235572   4.440   1.910  11.762 -0.4704 -0.1060 -0.3511
 4694TIP3    H135573   4.505   1.879  11.824 -0.2853 -2.2891 -1.6054
 4694TIP3    H235574   4.363   1.931  11.815 -0.1917 -1.6080  0.6430
 4695TIP3   OH235575   6.056   4.051  13.614  0.9465 -0.2840 -0.0900
 4695TIP3    H135576   6.120   3.988  13.582  0.5811  0.1773 -1.8008
 4695TIP3    H235577   5.986   4.048  13.548 -0.1769  0.1523  1.0782
 4696TIP3   OH235578   4.664   2.207  13.916  0.2292  0.6023 -0.2879
 4696TIP3    H135579   4.665   2.233  13.824 -0.5200  0.0630 -0.4518
 4696TIP3    H235580   4.707   2.121  13.917 -0.9240  0.0114 -0.3320
 4697TIP3   OH235581   6.788   5.917  14.049 -0.0078  0.3022  0.2206
 4697TIP3    H135582   6.872   5.960  14.034 -0.4548  0.9143 -0.5715
 4697TIP3    H235583   6.730   5.987  14.079 -0.7193  0.2519 -1.0105
 4698TIP3   OH235584   2.312   3.463  11.963 -0.3714  0.1245 -0.3279
 4698TIP3    H135585   2.286   3.391  11.906 -0.9587 -1.1619  1.4905
 4698TIP3    H235586   2.381   3.425  12.019  1.3600  1.8243 -1.2396
 4699TIP3   OH235587   4.357   1.769   2.186 -0.0295  0.0665 -0.1494
 4699TIP3    H135588   4.280   1.715   2.204  0.0590  0.0589  0.2145
 4699TIP3    H235589   4.334   1.818   2.107 -0.5249  0.2969  0.1370
 4700TIP3   OH235590   6.400   6.029  14.366 -0.0765 -0.2991 -0.1104
 4700TIP3    H135591   6.375   5.979  14.444 -0.3039 -0.7871 -0.4945
 4700TIP3    H235592   6.479   6.075  14.392 -0.4117 -0.0913  0.5638
 4701TIP3   OH235593   6.329   2.763  13.330 -0.2443  0.4541 -0.4728
 4701TIP3    H135594   6.302   2.671  13.326 -0.1444  0.4104 -0.1769
 4701TIP3    H235595   6.361   2.775  13.420  0.0683  0.6860 -0.6136
 4702TIP3   OH235596   1.648   1.459   0.129 -0.4050  0.3283 -0.1076
 4702TIP3    H135597   1.615   1.375   0.160 -1.7085  0.5694 -0.7960
 4702TIP3    H235598   1.576   1.520   0.146  0.0425  1.0398 -0.7895
 4703TIP3   OH235599   6.185   0.081   1.797  0.7650 -0.1827  0.3466
 4703TIP3    H135600   6.123   0.028   1.747 -1.0971  1.8616  0.3969
 4703TIP3    H235601   6.246   0.115   1.731  1.0677 -1.1632  0.1155
 4704TIP3   OH235602   0.784   5.828  12.451  0.3217  0.0257 -0.0064
 4704TIP3    H135603   0.764   5.913  12.412  3.1726  1.1140  0.7932
 4704TIP3    H235604   0.850   5.790  12.393 -0.9115 -1.6884 -0.3534
 4705TIP3   OH235605   3.550   4.376  10.324  0.5720 -0.2374  0.1897
 4705TIP3    H135606   3.548   4.291  10.367  0.9273  0.0313  0.7435
 4705TIP3    H235607   3.490   4.367  10.250 -1.5707 -0.0975  1.8551
 4706TIP3   OH235608   3.459   2.602  13.489 -0.0989  0.2239 -0.6541
 4706TIP3    H135609   3.535   2.658  13.474 -0.4082  0.6007 -0.8294
 4706TIP3    H235610   3.416   2.640  13.565  2.3896 -2.6798  2.3542
 4707TIP3   OH235611   5.297   4.637  16.369  0.8078 -0.1415 -0.0811
 4707TIP3    H135612   5.281   4.693  16.445  1.6740 -0.7745  0.5833
 4707TIP3    H235613   5.271   4.550  16.397 -0.7311 -0.0451 -1.1860
 4708TIP3   OH235614   5.152   0.513  12.712  0.6209 -0.5659  0.2671
 4708TIP3    H135615   5.175   0.582  12.774 -0.3136  0.1393 -0.1646
 4708TIP3    H235616   5.097   0.453  12.762 -1.9767  1.1703 -0.4693
 4709TIP3   OH235617   3.516   2.083  17.201 -0.0692 -0.7299 -0.0280
 4709TIP3    H135618   3.587   2.021  17.183  1.0387  0.0135  1.5918
 4709TIP3    H235619   3.482   2.057  17.286  0.1953  0.6683  0.5224
 4710TIP3   OH235620   2.956   1.220   3.814  0.5930  0.0826 -0.0295
 4710TIP3    H135621   2.896   1.146   3.813  0.6152  0.0582  0.3109
 4710TIP3    H235622   2.909   1.289   3.767  0.9661 -0.4469 -1.1836
 4711TIP3   OH235623   3.525   2.615   4.882  0.0686  0.5399  0.4356
 4711TIP3    H135624   3.451   2.581   4.832  1.0265  0.9235 -1.2668
 4711TIP3    H235625   3.542   2.547   4.948 -2.0320  0.6330  1.1358
 4712TIP3   OH235626   6.276   2.844   0.138  0.0624 -0.1043 -0.3564
 4712TIP3    H135627   6.185   2.815   0.125 -0.5283  0.9756  1.2245
 4712TIP3    H235628   6.312   2.782   0.202 -0.0008  0.3091  0.0820
 4713TIP3   OH235629   0.849   0.402   2.369 -0.3343 -0.0717 -0.5868
 4713TIP3    H135630   0.893   0.465   2.426 -0.4241 -0.8313  0.3186
 4713TIP3    H235631   0.896   0.320   2.382 -0.2383 -0.2142 -1.7446
 4714TIP3   OH235632   5.829   2.485  15.464 -0.0076 -0.2568 -0.4041
 4714TIP3    H135633   5.823   2.468  15.558 -0.3699 -0.9453 -0.5519
 4714TIP3    H235634   5.914   2.448  15.439  0.8896  1.5023 -0.0156
 4715TIP3   OH235635   0.264   2.555   0.622  0.1170 -0.2538  0.4610
 4715TIP3    H135636   0.353   2.561   0.587 -0.2661  0.9992 -0.3086
 4715TIP3    H235637   0.240   2.645   0.642 -1.1294 -0.5509  0.3175
 4716TIP3   OH235638   2.218   2.123   3.751  0.4109  0.1838  0.1442
 4716TIP3    H135639   2.255   2.203   3.787 -1.7055  0.3942  1.8821
 4716TIP3    H235640   2.137   2.150   3.708  1.0432 -0.6326 -1.6207
 4717TIP3   OH235641   0.233   0.959  15.268 -0.3190  0.2091 -0.1101
 4717TIP3    H135642   0.140   0.947  15.285 -0.4426  0.5216 -0.5659
 4717TIP3    H235643   0.277   0.917  15.342 -0.8326  0.4945  0.3530
 4718TIP3   OH235644   0.804   0.738   0.821 -0.0337  0.3808 -0.4961
 4718TIP3    H135645   0.718   0.773   0.797 -0.1207  1.1329  0.8747
 4718TIP3    H235646   0.787   0.684   0.898  0.5762 -0.3148 -0.8409
 4719TIP3   OH235647   3.554   2.345  17.282  0.0225  0.3749 -0.6904
 4719TIP3    H135648   3.593   2.268  17.240 -0.6577  0.5188 -1.6148
 4719TIP3    H235649   3.481   2.310  17.333  0.1662  0.3160 -0.5298
 4720TIP3   OH235650   2.570   4.599   4.994 -0.4114  0.0532 -0.0038
 4720TIP3    H135651   2.565   4.598   5.090 -1.7629 -0.7123 -0.0597
 4720TIP3    H235652   2.487   4.639   4.966  1.7034  4.1122 -0.8012
 4721TIP3   OH235653   2.416   6.158  14.443  0.1773 -0.0049 -0.2555
 4721TIP3    H135654   2.478   6.183  14.512  1.6573  1.1443 -1.9576
 4721TIP3    H235655   2.349   6.107  14.489  1.6312 -0.0943  1.8687
 4722TIP3   OH235656   1.757   4.492  15.662  0.2339 -0.3356 -0.2929
 4722TIP3    H135657   1.724   4.581  15.660  1.4650  0.1293 -0.5213
 4722TIP3    H235658   1.852   4.502  15.674  0.5170 -1.5799 -1.4045
 4723TIP3   OH235659   3.375   0.794  15.235 -0.4148 -0.3152 -0.2213
 4723TIP3    H135660   3.365   0.889  15.238 -0.6418 -0.2955 -1.3185
 4723TIP3    H235661   3.327   0.762  15.312  0.2679  0.5023  0.5412
 4724TIP3   OH235662   4.804   4.360  15.357 -0.3255 -0.1920 -0.4070
 4724TIP3    H135663   4.875   4.302  15.384  0.0100  0.7005  0.6455
 4724TIP3    H235664   4.725   4.305  15.365 -0.0392 -0.4497  0.8146
 4725TIP3   OH235665   3.711   2.114  14.894 -0.0681 -0.2017 -0.3668
 4725TIP3    H135666   3.738   2.161  14.973  0.8651  0.1190 -0.8727
 4725TIP3    H235667   3.632   2.159  14.864  0.0036  0.1359 -0.0442
 4726TIP3   OH235668   4.067   2.537   1.488  0.1082  0.2420  0.4232
 4726TIP3    H135669   4.156   2.546   1.453  0.1418  0.7540  0.6370
 4726TIP3    H235670   4.010   2.562   1.415  0.1672  0.8715  0.5889
 4727TIP3   OH235671   5.750   1.328   4.851 -0.7534 -0.1252 -0.3162
 4727TIP3    H135672   5.774   1.406   4.800 -1.6398  0.2790 -0.1335
 4727TIP3    H235673   5.828   1.306   4.900 -0.0924 -0.1094 -1.3420
 4728TIP3   OH235674   5.633   3.403   3.436  0.0350 -1.1618 -0.2996
 4728TIP3    H135675   5.720   3.384   3.402  1.3049  0.9296  1.6195
 4728TIP3    H235676   5.624   3.498   3.428 -2.1771 -1.3679 -0.6765
 4729TIP3   OH235677   4.685   0.105  13.982  0.2074  0.2830 -0.6348
 4729TIP3    H135678   4.600   0.068  13.957 -0.4337  0.5443  1.0880
 4729TIP3    H235679   4.706   0.061  14.064  1.7621  0.2105 -1.0701
 4730TIP3   OH235680   0.890   6.302   1.379 -0.1439 -0.0011  0.3817
 4730TIP3    H135681   0.910   6.210   1.367 -3.2229 -0.8380  1.2014
 4730TIP3    H235682   0.811   6.303   1.433  1.2542  3.1790  2.5582
 4731TIP3   OH235683   4.969   0.584  15.252  0.0061 -0.1268 -0.3267
 4731TIP3    H135684   4.900   0.634  15.295  1.0174  0.3296  0.8121
 4731TIP3    H235685   4.968   0.498  15.294 -0.4219 -0.4025 -0.8972
 4732TIP3   OH235686   0.070   0.364   6.432 -0.5200  0.3225 -0.5414
 4732TIP3    H135687   0.048   0.436   6.491 -0.0472 -0.6652  0.8823
 4732TIP3    H235688   0.151   0.328   6.468 -1.1737 -1.4223 -0.7618
 4733TIP3   OH235689   5.768   1.779   1.589 -0.1517  0.3124 -0.7288
 4733TIP3    H135690   5.836   1.841   1.561  1.4514 -1.7822 -1.5797
 4733TIP3    H235691   5.794   1.755   1.678 -0.1136 -0.0369 -0.8361
 4734TIP3   OH235692   4.811   5.582   0.325  0.4789  0.0593  0.0582
 4734TIP3    H135693   4.863   5.618   0.397 -0.9709  0.3849  0.9767
 4734TIP3    H235694   4.745   5.526   0.368 -0.2322  0.0274 -1.0317
 4735TIP3   OH235695   1.587   1.635   4.147 -0.2186  0.1217 -0.6166
 4735TIP3    H135696   1.602   1.546   4.178 -2.5191 -0.5480 -1.3554
 4735TIP3    H235697   1.596   1.629   4.052  0.8159  0.9396 -0.5804
 4736TIP3   OH235698   5.841   2.225  16.826  0.4787 -0.9428  0.4851
 4736TIP3    H135699   5.824   2.319  16.831  1.2073 -0.8047  0.4487
 4736TIP3    H235700   5.782   2.193  16.758  1.0470 -0.3072 -0.3166
 4737TIP3   OH235701   0.359   1.268  13.939  0.1355 -0.0235  0.8221
 4737TIP3    H135702   0.363   1.361  13.918  1.0764 -0.2591 -0.0959
 4737TIP3    H235703   0.334   1.226  13.857 -0.6791 -0.5439  1.3327
 4738TIP3   OH235704   0.240   6.801  15.373 -0.4107  0.1548  0.2497
 4738TIP3    H135705   0.174   6.734  15.355  1.3023 -1.1818 -1.2022
 4738TIP3    H235706   0.226   6.867  15.305 -1.3010  0.6985  0.9443
 4739TIP3   OH235707   4.367   2.858   2.318 -0.5045  0.0266  0.4904
 4739TIP3    H135708   4.305   2.789   2.297 -0.3805 -0.1188  0.6007
 4739TIP3    H235709   4.375   2.854   2.414  0.0584 -0.2808  0.4276
 4740TIP3   OH235710   3.278   1.011   4.180 -0.1323 -0.0254  0.3470
 4740TIP3    H135711   3.247   1.007   4.089  1.8326 -0.0451 -0.3442
 4740TIP3    H235712   3.321   1.096   4.186  0.7367 -0.4972  0.9163
 4741TIP3   OH235713   1.859   4.430   3.855  0.5913 -0.1196  0.0051
 4741TIP3    H135714   1.933   4.438   3.914  2.4578  0.6310 -2.3566
 4741TIP3    H235715   1.810   4.512   3.866  2.4613  1.2274 -1.4591
 4742TIP3   OH235716   0.184   3.829   1.820  0.6370 -0.0368  0.4918
 4742TIP3    H135717   0.153   3.895   1.883 -0.0566 -0.7377  0.8994
 4742TIP3    H235718   0.204   3.753   1.874 -0.8807 -0.9665 -0.2264
 4743TIP3   OH235719   6.356   5.846   0.609  0.4743 -0.4194 -0.2502
 4743TIP3    H135720   6.285   5.875   0.667 -0.0416 -0.8504 -0.6591
 4743TIP3    H235721   6.436   5.879   0.650  0.0595 -0.1934  0.3779
 4744TIP3   OH235722   0.378   4.696  12.114  0.7728 -0.7157 -0.2206
 4744TIP3    H135723   0.354   4.782  12.149  2.4619  0.4364 -1.8354
 4744TIP3    H235724   0.298   4.644  12.123 -0.6586  1.3817 -0.3569
 4745TIP3   OH235725   5.734   2.826   5.448  0.6262 -0.8550 -0.5450
 4745TIP3    H135726   5.752   2.867   5.363  2.3618  1.7287  1.0157
 4745TIP3    H235727   5.796   2.753   5.453  0.5356 -1.0078 -1.4520
 4746TIP3   OH235728   3.010   3.218  16.966 -0.5768 -0.0855  0.4016
 4746TIP3    H135729   3.055   3.204  17.049 -0.6609  1.2830  0.6838
 4746TIP3    H235730   3.023   3.311  16.947 -2.3681  0.0889 -0.0415
 4747TIP3   OH235731   6.004   4.139   4.910 -0.3247 -0.3397  0.6493
 4747TIP3    H135732   5.953   4.125   4.830  1.1897  0.5195 -0.4844
 4747TIP3    H235733   6.016   4.051   4.946 -2.8118 -0.5438  1.0899
 4748TIP3   OH235734   5.834   4.132  13.900 -0.2199 -0.4579 -0.3080
 4748TIP3    H135735   5.877   4.134  13.985  0.3491 -0.3614 -0.5961
 4748TIP3    H235736   5.741   4.116  13.920 -0.4617  1.7952  0.4607
 4749TIP3   OH235737   5.731   2.507   3.972 -0.0685  0.1758 -0.1494
 4749TIP3    H135738   5.697   2.586   4.014 -1.0195 -0.5777  0.5095
 4749TIP3    H235739   5.735   2.529   3.879 -1.2355  0.6778 -0.0822
 4750TIP3   OH235740   2.729   1.541  15.111 -0.2545  0.3244  0.4177
 4750TIP3    H135741   2.800   1.508  15.167 -0.4139  1.2715  1.1814
 4750TIP3    H235742   2.771   1.604  15.054 -0.9899  3.1732  2.9106
 4751TIP3   OH235743   6.388   3.203  12.293 -0.3824 -0.0112 -0.0142
 4751TIP3    H135744   6.384   3.112  12.323  1.2996 -0.0203  0.2335
 4751TIP3    H235745   6.412   3.197  12.200 -2.7213  0.1108 -0.6400
 4752TIP3   OH235746   2.043   0.303  15.607 -0.0609  0.2868 -0.2513
 4752TIP3    H135747   1.962   0.327  15.561 -0.5646  0.2620  0.6134
 4752TIP3    H235748   2.027   0.329  15.697  2.1215  3.2428 -0.6584
 4753TIP3   OH235749   6.691   6.740   2.817  0.1919 -0.1376  0.0140
 4753TIP3    H135750   6.681   6.678   2.745 -1.0667 -1.4968  1.3149
 4753TIP3    H235751   6.754   6.698   2.876  2.1686  1.5258 -0.8514
 4754TIP3   OH235752   4.331   4.824   5.762 -0.2708  0.4034 -0.3228
 4754TIP3    H135753   4.407   4.798   5.814 -1.2678  0.0205  0.9528
 4754TIP3    H235754   4.274   4.871   5.823 -1.8677 -0.8246 -0.8285
 4755TIP3   OH235755   3.219   2.249  11.573 -0.3628  0.2431 -0.0167
 4755TIP3    H135756   3.132   2.235  11.611  0.6492 -4.6684  0.7510
 4755TIP3    H235757   3.215   2.208  11.487  1.5743 -1.3269  0.6046
 4756TIP3   OH235758   1.461   2.741   3.913 -0.0518  0.4510  0.3970
 4756TIP3    H135759   1.409   2.749   3.993  1.0263 -0.4692  1.2029
 4756TIP3    H235760   1.440   2.653   3.880  1.3538 -0.1052  0.9843
 4757TIP3   OH235761   5.414   0.024  12.550  0.1575 -0.6714 -0.4140
 4757TIP3    H135762   5.339   0.008  12.494 -0.5762  0.9415  0.0624
 4757TIP3    H235763   5.406   0.117  12.574 -0.3141 -1.6031  3.3932
 4758TIP3   OH235764   1.982   5.063  16.094 -0.4429  0.2455  0.3712
 4758TIP3    H135765   1.924   4.995  16.059 -0.6099  0.1680  0.7931
 4758TIP3    H235766   2.062   5.016  16.116 -0.7560  0.0809  1.1801
 4759TIP3   OH235767   1.044   2.852   0.146  0.6716 -0.4281  0.4249
 4759TIP3    H135768   1.111   2.790   0.174  0.9138 -0.2780  0.1815
 4759TIP3    H235769   0.965   2.823   0.190  1.1480  0.0896  1.6277
 4760TIP3   OH235770   3.413   3.744   1.109  0.3782  0.3579  0.7723
 4760TIP3    H135771   3.367   3.828   1.108 -0.5480 -0.1163 -2.2261
 4760TIP3    H235772   3.499   3.763   1.072 -0.1901 -0.1724 -0.8580
 4761TIP3   OH235773   5.097   0.127   5.377 -0.1274  0.0519  0.6046
 4761TIP3    H135774   5.137   0.040   5.380 -0.6060 -0.2110 -0.3719
 4761TIP3    H235775   5.171   0.188   5.371  0.1454 -0.4013 -0.7299
 4762TIP3   OH235776   5.900   6.659  10.399  0.1638  0.0965 -0.3090
 4762TIP3    H135777   5.990   6.632  10.417  0.1706  1.0896  1.1785
 4762TIP3    H235778   5.849   6.578  10.399  0.8925 -0.3584 -0.1800
 4763TIP3   OH235779   6.650   5.155   0.519  0.0250  0.0763  0.3187
 4763TIP3    H135780   6.615   5.241   0.498  0.7873  0.0518 -1.1029
 4763TIP3    H235781   6.598   5.094   0.466 -0.5720 -0.3615  1.3833
 4764TIP3   OH235782   4.659   1.684   4.264  0.0178  0.0006 -0.5741
 4764TIP3    H135783   4.580   1.707   4.312  1.2861  2.7482  0.2843
 4764TIP3    H235784   4.629   1.623   4.196 -2.7064  0.5078  0.1198
 4765TIP3   OH235785   4.633   6.038   1.662  0.2279 -0.1467 -0.3209
 4765TIP3    H135786   4.720   6.069   1.636  0.0665 -0.8003 -1.7093
 4765TIP3    H235787   4.574   6.111   1.641  0.4553  0.3952  0.8588
 4766TIP3   OH235788   4.343   0.712  14.072 -0.6228 -0.0666  0.0446
 4766TIP3    H135789   4.352   0.629  14.025  0.9216  0.0959  0.0530
 4766TIP3    H235790   4.318   0.686  14.161  1.0805 -0.5859  0.3763
 4767TIP3   OH235791   1.554   5.335   2.452  0.2305 -0.0040  0.2745
 4767TIP3    H135792   1.474   5.371   2.413  0.3436  0.9397  0.9054
 4767TIP3    H235793   1.624   5.361   2.391  0.5772  2.5212  1.6658
 4768TIP3   OH235794   3.040   5.112  14.246 -0.0806 -0.2946 -0.7250
 4768TIP3    H135795   3.061   5.196  14.205 -2.8685 -0.1450 -2.0025
 4768TIP3    H235796   3.036   5.050  14.173  3.1406 -1.8547  0.3400
 4769TIP3   OH235797   0.864   1.773  16.348 -0.6818  0.5012 -0.5909
 4769TIP3    H135798   0.926   1.728  16.291 -0.6173 -1.4952  0.9864
 4769TIP3    H235799   0.868   1.864  16.320  2.1351  0.2348 -1.2717
 4770TIP3   OH235800   0.457   4.551  17.113 -0.1001 -0.1920  0.1259
 4770TIP3    H135801   0.404   4.521  17.040  2.8046 -0.3994 -1.9748
 4770TIP3    H235802   0.490   4.470  17.153  1.3978 -0.0227 -0.7251
 4771TIP3   OH235803   6.326   6.046   5.470  0.6284 -0.5308 -0.0117
 4771TIP3    H135804   6.356   6.101   5.398 -2.1868  1.6758  0.3889
 4771TIP3    H235805   6.236   6.023   5.447 -0.1487 -0.1891  2.5369
 4772TIP3   OH235806   0.878   1.317   5.677 -0.7208  0.3444  0.9271
 4772TIP3    H135807   0.816   1.372   5.725 -0.4887  1.0746  0.3919
 4772TIP3    H235808   0.833   1.233   5.669 -1.5495  0.7942  0.7605
 4773TIP3   OH235809   3.650   6.803  16.307  0.3942  0.0239  0.2615
 4773TIP3    H135810   3.579   6.819  16.245  0.9775 -0.5073 -0.5624
 4773TIP3    H235811   3.726   6.846  16.268  0.1543  2.1229  2.0096
 4774TIP3   OH235812   4.104   6.747   0.567 -0.0476 -0.1146  0.1950
 4774TIP3    H135813   4.027   6.690   0.575 -0.0800 -0.1477 -0.3288
 4774TIP3    H235814   4.160   6.702   0.504 -0.6258  1.0453 -1.1734
 4775TIP3   OH235815   5.115   3.252  15.602  0.5876  0.6702  0.1867
 4775TIP3    H135816   5.120   3.243  15.507 -1.3691  0.3303  0.0837
 4775TIP3    H235817   5.178   3.188  15.635  2.4704  1.9423 -0.8935
 4776TIP3   OH235818   5.138   5.340  17.034  0.2562  0.4697 -0.4896
 4776TIP3    H135819   5.232   5.343  17.056  0.2159  0.5613 -0.3286
 4776TIP3    H235820   5.094   5.348  17.119  0.1142 -0.6273 -0.4556
 4777TIP3   OH235821   6.153   0.099   3.086 -0.3169 -0.0693 -0.0363
 4777TIP3    H135822   6.120   0.183   3.115 -1.1812 -0.4315  0.0330
 4777TIP3    H235823   6.248   0.110   3.083 -0.5494  1.6572 -2.3840
 4778TIP3   OH235824   3.877   0.437   3.210 -0.1251  0.4316  0.0780
 4778TIP3    H135825   3.955   0.487   3.187  0.0353 -0.5568 -1.5923
 4778TIP3    H235826   3.888   0.353   3.166 -0.6623 -0.8883  2.3823
 4779TIP3   OH235827   1.859   4.882  14.185  0.4296 -0.3049  0.5944
 4779TIP3    H135828   1.936   4.858  14.237  0.7391 -1.7453 -0.4835
 4779TIP3    H235829   1.891   4.946  14.121  1.1018 -2.0129 -0.8247
 4780TIP3   OH235830   1.617   1.341   6.355 -0.0260 -0.0679 -0.0322
 4780TIP3    H135831   1.565   1.420   6.363 -0.2827 -0.1596 -0.7186
 4780TIP3    H235832   1.660   1.331   6.440 -0.7052  0.3036  0.3579
 4781TIP3   OH235833   4.192   0.351   3.594  0.2030 -1.0728  0.0745
 4781TIP3    H135834   4.213   0.362   3.687  1.2360 -1.3367 -0.1143
 4781TIP3    H235835   4.099   0.370   3.588  0.3309 -0.0562  1.0043
 4782TIP3   OH235836   3.558   4.500  11.489 -0.3363  0.4667  0.0007
 4782TIP3    H135837   3.585   4.450  11.566  1.2080 -0.4110 -1.0666
 4782TIP3    H235838   3.517   4.579  11.524  2.6218  1.3014  1.7530
 4783TIP3   OH235839   2.830   5.411  15.931 -0.2344  0.3581  0.1822
 4783TIP3    H135840   2.887   5.467  15.878  0.3264 -0.8960 -0.5862
 4783TIP3    H235841   2.786   5.355  15.866 -0.6623 -0.1845  0.9373
 4784TIP3   OH235842   0.487   2.048  12.214 -0.6270 -0.4859 -0.4305
 4784TIP3    H135843   0.525   2.134  12.234  0.4270 -0.7257 -1.3614
 4784TIP3    H235844   0.542   1.986  12.261 -2.1583 -0.5670  1.2688
 4785TIP3   OH235845   0.316   3.637   3.007  0.4083 -0.2379  0.4092
 4785TIP3    H135846   0.294   3.553   3.047 -1.6948 -0.3463 -0.8659
 4785TIP3    H235847   0.292   3.702   3.074 -1.7209 -0.4871 -0.0608
 4786TIP3   OH235848   3.400   5.794  13.517 -0.1995  0.1861 -0.1777
 4786TIP3    H135849   3.416   5.845  13.437 -0.0213  1.3990  0.6191
 4786TIP3    H235850   3.487   5.779  13.554 -0.3695  0.7905  0.4848
 4787TIP3   OH235851   4.559   0.529  14.415 -0.0719  0.1916 -0.3526
 4787TIP3    H135852   4.635   0.488  14.457 -1.4269 -2.0016  0.0556
 4787TIP3    H235853   4.535   0.468  14.346 -0.7717  1.4483 -1.2308
 4788TIP3   OH235854   2.505   4.476   4.124  0.0389  0.2776  0.0778
 4788TIP3    H135855   2.526   4.423   4.201 -0.9789 -1.3638 -0.7492
 4788TIP3    H235856   2.563   4.551   4.131  1.5708 -0.9683  1.2630
 4789TIP3   OH235857   2.346   1.978  16.831  0.2461 -0.3360  0.1636
 4789TIP3    H135858   2.357   2.062  16.875  0.2602  0.1180 -0.7137
 4789TIP3    H235859   2.252   1.966  16.825  0.2367  0.3425 -1.1018
 4790TIP3   OH235860   2.002   6.393  13.219 -0.1088 -0.1089  0.0423
 4790TIP3    H135861   1.990   6.446  13.298 -0.6595 -0.3329  0.1105
 4790TIP3    H235862   1.966   6.307  13.242  0.6823 -0.4834 -0.1047
 4791TIP3   OH235863   3.690   2.819   6.506  0.1872  0.1869 -0.1461
 4791TIP3    H135864   3.652   2.845   6.422 -0.4476  0.5594  0.2492
 4791TIP3    H235865   3.619   2.832   6.569 -0.0957 -2.2668  0.1060
 4792TIP3   OH235866   5.294   3.421   3.382  0.1172  0.3300  0.1356
 4792TIP3    H135867   5.356   3.472   3.434  2.7055 -0.9931 -1.5741
 4792TIP3    H235868   5.295   3.461   3.295 -1.4006  0.2545  0.0622
 4793TIP3   OH235869   3.234   2.360  13.580 -0.2852  0.1352 -0.0383
 4793TIP3    H135870   3.302   2.338  13.644 -1.0008 -1.2861  0.2579
 4793TIP3    H235871   3.156   2.314  13.611 -1.6184  2.4573  0.0840
 4794TIP3   OH235872   3.435   4.204   4.119 -0.8493  0.1116  0.6555
 4794TIP3    H135873   3.381   4.137   4.162 -2.9521  1.6034  0.4283
 4794TIP3    H235874   3.387   4.225   4.039  2.4827 -1.8672 -1.9631
 4795TIP3   OH235875   1.959   5.944  12.031  0.4105 -0.2299  0.3269
 4795TIP3    H135876   2.007   5.953  11.948 -0.2579 -1.5859 -0.2235
 4795TIP3    H235877   2.024   5.912  12.093  0.7708  0.2125  0.1819
 4796TIP3   OH235878   4.102   2.447   0.404 -0.4860  0.3527 -0.1775
 4796TIP3    H135879   4.197   2.434   0.404 -0.4120  0.8871  0.7913
 4796TIP3    H235880   4.078   2.457   0.496 -1.6977 -1.3207 -0.2824
 4797TIP3   OH235881   6.067   5.363   2.295 -0.5712  0.5834  0.8345
 4797TIP3    H135882   5.998   5.423   2.324 -1.0567  0.6829 -0.5137
 4797TIP3    H235883   6.108   5.407   2.220 -0.6458 -0.5583  0.1125
 4798TIP3   OH235884   6.669   1.353  15.522 -0.8066  0.0086  0.3768
 4798TIP3    H135885   6.668   1.402  15.440  0.6784 -1.8860 -0.8445
 4798TIP3    H235886   6.656   1.418  15.590 -0.0887  1.9121 -1.2596
 4799TIP3   OH235887   6.334   1.071  13.632 -0.2474 -0.4133  0.2532
 4799TIP3    H135888   6.336   1.007  13.703  2.2746  0.4380  0.9815
 4799TIP3    H235889   6.276   1.140  13.664 -0.9648 -1.1260  0.5073
 4800TIP3   OH235890   0.668   3.161   3.896  0.2367  0.0012  0.1284
 4800TIP3    H135891   0.673   3.105   3.973 -0.5388  0.9147  0.8597
 4800TIP3    H235892   0.676   3.101   3.822  1.8537 -0.7812  0.9201
 4801TIP3   OH235893   5.627   5.349  14.796  0.2751 -0.0490 -0.1067
 4801TIP3    H135894   5.574   5.390  14.864  0.4040  1.3403 -0.8305
 4801TIP3    H235895   5.687   5.292  14.844  0.6915  1.2784  0.9837
 4802TIP3   OH235896   5.240   3.952  15.944 -0.6569 -0.7400 -0.8622
 4802TIP3    H135897   5.314   3.948  15.885  2.2810  4.4638  2.0944
 4802TIP3    H235898   5.268   3.903  16.021 -0.0670  1.4779  0.3771
 4803TIP3   OH235899   0.932   3.101  13.813  0.5738 -0.0105 -0.1444
 4803TIP3    H135900   1.017   3.077  13.778  0.8235 -0.1106  0.5290
 4803TIP3    H235901   0.894   3.018  13.843  0.5221  0.1304  0.1804
 4804TIP3   OH235902   2.374   1.724  16.303 -0.0751 -0.5479 -0.0913
 4804TIP3    H135903   2.446   1.762  16.252 -0.5492 -0.1785 -0.4877
 4804TIP3    H235904   2.377   1.771  16.386  1.1474 -1.6480  0.4957
 4805TIP3   OH235905   5.153   5.342   2.016 -0.0239 -0.8223  0.3016
 4805TIP3    H135906   5.111   5.395   2.084 -1.4097 -2.7160  0.9748
 4805TIP3    H235907   5.089   5.339   1.945 -1.1995 -3.9161  1.4219
 4806TIP3   OH235908   4.567   0.681  15.046 -0.3704  0.0897 -0.3197
 4806TIP3    H135909   4.489   0.708  14.997 -0.2191 -1.2417 -1.3303
 4806TIP3    H235910   4.567   0.585  15.040  0.9402  0.0393  0.2980
 4807TIP3   OH235911   4.987   0.701   3.942  0.7246 -0.1021  0.0156
 4807TIP3    H135912   5.042   0.626   3.921 -1.4021 -1.9303  0.8187
 4807TIP3    H235913   4.932   0.713   3.865 -1.2432 -1.5130  1.1550
 4808TIP3   OH235914   4.777   0.353   6.087  0.1582  0.1753 -1.1249
 4808TIP3    H135915   4.697   0.304   6.105  0.5335 -0.2458 -0.6025
 4808TIP3    H235916   4.814   0.373   6.173  0.4322  0.6749 -1.3545
 4809TIP3   OH235917   6.782   2.836   0.382 -0.1082 -0.4122  0.1831
 4809TIP3    H135918   6.832   2.909   0.420 -1.2217  0.0959  0.6819
 4809TIP3    H235919   6.803   2.840   0.289  2.6342 -1.6599  0.6847
 4810TIP3   OH235920   5.427   6.739  12.261  0.2039  0.0305  0.0941
 4810TIP3    H135921   5.460   6.658  12.298  2.9157 -0.3174 -2.8763
 4810TIP3    H235922   5.490   6.806  12.289  1.8804 -0.1179 -3.0793
 4811TIP3   OH235923   0.329   2.698  12.229 -0.0901  0.0774  0.4329
 4811TIP3    H135924   0.328   2.728  12.138  0.6600  1.3749  0.8514
 4811TIP3    H235925   0.314   2.603  12.223  0.5077  0.0728 -1.0687
 4812TIP3   OH235926   2.815   2.054   3.068 -0.3371  0.0009 -0.1328
 4812TIP3    H135927   2.733   2.021   3.105 -2.5290  0.8144 -3.9306
 4812TIP3    H235928   2.813   2.148   3.085  0.0856 -0.0656  0.2815
 4813TIP3   OH235929   6.340   1.913  13.900 -0.3751 -0.4075  0.5630
 4813TIP3    H135930   6.369   1.865  13.978 -1.5916 -2.1977 -0.0515
 4813TIP3    H235931   6.420   1.950  13.863  0.4552 -1.1754  1.5722
 4814TIP3   OH235932   3.528   1.416  13.636  0.5953  0.2952 -0.1432
 4814TIP3    H135933   3.582   1.472  13.580  2.0856  0.4016  1.3742
 4814TIP3    H235934   3.565   1.426  13.724 -0.7410 -1.0715  0.6038
 4815TIP3   OH235935   3.608   4.717  15.911 -0.4946 -0.3801  0.0677
 4815TIP3    H135936   3.599   4.771  15.833 -3.6436 -2.2409 -0.8957
 4815TIP3    H235937   3.690   4.669  15.897  0.7562  1.8099 -0.4485
 4816TIP3   OH235938   3.082   3.182   3.252 -0.0916  0.0906 -0.0087
 4816TIP3    H135939   3.039   3.142   3.328  1.1032 -2.3346 -0.5635
 4816TIP3    H235940   3.175   3.183   3.275 -0.0673  2.3379 -0.1404
 4817TIP3   OH235941   1.873   6.662  14.830 -0.6443 -0.9312 -0.3001
 4817TIP3    H135942   1.961   6.648  14.864 -0.1863  2.6972  0.2546
 4817TIP3    H235943   1.883   6.662  14.735  0.1597  0.4356 -0.2248
 4818TIP3   OH235944   0.885   3.218  13.222 -0.3520 -0.0214 -0.7324
 4818TIP3    H135945   0.971   3.220  13.180  0.4764 -1.6549  0.8382
 4818TIP3    H235946   0.902   3.190  13.311 -2.3660  1.0972  0.0409
 4819TIP3   OH235947   0.440   0.185  15.156 -0.0929 -0.5540 -0.5205
 4819TIP3    H135948   0.349   0.198  15.182  0.3861 -1.8780  1.8760
 4819TIP3    H235949   0.444   0.218  15.066 -2.3001  2.0378  0.2800
 4820TIP3   OH235950   4.312   3.038  15.046  0.5616 -0.3202  0.1578
 4820TIP3    H135951   4.274   3.097  15.111  1.5921  0.7037 -0.1568
 4820TIP3    H235952   4.341   2.962  15.097 -0.1544 -0.2592  0.6595
 4821TIP3   OH235953   3.546   4.135  10.462 -0.0172 -1.2477  1.2365
 4821TIP3    H135954   3.637   4.108  10.454  0.5671  0.6951  0.9872
 4821TIP3    H235955   3.495   4.057  10.440  1.5759 -1.2404 -2.8980
 4822TIP3   OH235956   0.893   4.766   6.515 -0.5432  0.4692 -0.1456
 4822TIP3    H135957   0.987   4.750   6.513 -0.2894  1.7410  1.0689
 4822TIP3    H235958   0.882   4.850   6.469 -0.8571  1.2680  1.3447
 4823TIP3   OH235959   0.362   4.428   3.639 -0.2367 -1.5284 -0.3182
 4823TIP3    H135960   0.311   4.432   3.558 -0.2900 -0.2376 -0.2349
 4823TIP3    H235961   0.297   4.420   3.709 -0.5711  2.7918  0.0085
 4824TIP3   OH235962   6.546   1.246   3.118  0.2502  0.7616  0.2734
 4824TIP3    H135963   6.534   1.259   3.024 -0.7853  0.7689  0.4099
 4824TIP3    H235964   6.466   1.279   3.158  1.3486  2.2928  1.2885
 4825TIP3   OH235965   0.280   6.692   2.313  0.3399 -0.0694  0.3166
 4825TIP3    H135966   0.289   6.722   2.223 -1.2471 -1.9381 -0.4967
 4825TIP3    H235967   0.358   6.639   2.329  0.4251 -0.0732 -0.1112
 4826TIP3   OH235968   4.251   1.711  13.365  0.4485  0.2147 -0.1609
 4826TIP3    H135969   4.168   1.667  13.348  0.1801  0.0447  1.4702
 4826TIP3    H235970   4.298   1.652  13.424  1.2518  0.8303 -0.1713
 4827TIP3   OH235971   1.784   6.620  15.254  0.5730  0.8224 -0.0902
 4827TIP3    H135972   1.791   6.681  15.181  1.5328  1.4952  0.5481
 4827TIP3    H235973   1.867   6.628  15.301  0.1688  0.0385  0.7974
 4828TIP3   OH235974   0.624   6.813   4.544 -0.1679 -0.4185  0.0167
 4828TIP3    H135975   0.718   6.801   4.555 -0.1163  0.0712  0.1653
 4828TIP3    H235976   0.593   6.834   4.633 -0.2496  0.4575 -0.2110
 4829TIP3   OH235977   3.166   2.542  14.231  0.9199  0.2359 -0.1916
 4829TIP3    H135978   3.191   2.491  14.308 -0.7503 -1.9968 -1.0801
 4829TIP3    H235979   3.246   2.588  14.205  2.6068 -2.2660  0.4047
 4830TIP3   OH235980   4.378   2.385  13.760 -0.2137  0.0481  0.7333
 4830TIP3    H135981   4.300   2.343  13.796  1.2172 -1.3547  2.2574
 4830TIP3    H235982   4.402   2.331  13.685 -0.0887 -0.1695  0.9276
 4831TIP3   OH235983   2.308   5.963  15.714 -0.4396 -0.1671  0.0853
 4831TIP3    H135984   2.359   5.907  15.656 -0.6766  0.0755 -0.3586
 4831TIP3    H235985   2.366   5.981  15.788 -0.7371 -1.8719  0.7468
 4832TIP3   OH235986   0.426   6.299  10.514 -0.6691 -0.0799  1.1727
 4832TIP3    H135987   0.434   6.355  10.591 -1.5527  0.9933  0.4921
 4832TIP3    H235988   0.405   6.213  10.550 -1.8071  0.5695  2.1013
 4833TIP3   OH235989   2.931   2.821   4.552 -0.2084  0.6199 -0.5486
 4833TIP3    H135990   2.994   2.749   4.539  0.0774  0.8022 -0.2103
 4833TIP3    H235991   2.845   2.779   4.547 -0.0402 -0.3803  2.8967
 4834TIP3   OH235992   5.754   0.636   2.310  0.2620 -0.1056  0.3320
 4834TIP3    H135993   5.814   0.598   2.374 -0.4944 -1.0134  0.5061
 4834TIP3    H235994   5.755   0.575   2.236  1.0161  0.8605 -0.4752
 4835TIP3   OH235995   4.722   4.764   2.601  0.2944  0.4193 -0.4793
 4835TIP3    H135996   4.708   4.731   2.512  2.3354  2.5340 -1.6437
 4835TIP3    H235997   4.777   4.842   2.589 -0.9704  1.8314  2.4970
 4836TIP3   OH235998   3.112   3.993   4.966  0.3892 -0.0197 -0.6730
 4836TIP3    H135999   3.145   3.903   4.963  0.7378  0.0345  1.0456
 4836TIP3    H236000   3.041   3.990   5.031 -0.0388  0.8143 -1.0954
 4837TIP3   OH236001   3.234   0.802   3.162 -0.2041  0.8222  0.0240
 4837TIP3    H136002   3.171   0.827   3.230 -2.3057 -3.0278 -0.3646
 4837TIP3    H236003   3.196   0.836   3.081 -1.8032 -1.3876 -0.1944
 4838TIP3   OH236004   2.744   6.495  14.603 -0.3581 -0.6418 -0.0666
 4838TIP3    H136005   2.732   6.473  14.695 -0.9796 -1.2267 -0.2835
 4838TIP3    H236006   2.658   6.522  14.572 -0.1758 -0.5412 -0.5036
 4839TIP3   OH236007   4.986   5.355   3.280  0.2892  0.5469 -0.2381
 4839TIP3    H136008   4.967   5.449   3.279  2.4220  1.0204  0.5919
 4839TIP3    H236009   5.074   5.349   3.318 -0.2717 -1.8771  0.7459
 4840TIP3   OH236010   0.577   0.855  12.384 -0.3457  0.1797  0.2385
 4840TIP3    H136011   0.520   0.805  12.443 -1.4618 -0.3045 -1.2186
 4840TIP3    H236012   0.526   0.863  12.303  2.3337 -1.7344 -1.7064
 4841TIP3   OH236013   4.820   5.102  12.146  0.6143 -0.1512  0.4237
 4841TIP3    H136014   4.747   5.152  12.183 -1.3368 -2.2485 -0.4470
 4841TIP3    H236015   4.842   5.148  12.065  1.9151  1.8703  1.8692
 4842TIP3   OH236016   3.121   6.119   4.421 -0.4400  0.1292 -0.5477
 4842TIP3    H136017   3.122   6.024   4.414 -0.1997 -0.0235  1.2183
 4842TIP3    H236018   3.035   6.140   4.456  0.4018  0.3399  1.4642
 4843TIP3   OH236019   0.242   5.752  12.039  0.0707  0.1471 -0.0860
 4843TIP3    H136020   0.234   5.675  11.983 -0.1932  0.6916 -0.8062
 4843TIP3    H236021   0.160   5.757  12.087  0.1111 -0.0529  0.0018
 4844TIP3   OH236022   3.697   3.724   1.480  0.1358 -0.8070 -0.3480
 4844TIP3    H136023   3.641   3.754   1.408  2.2384 -1.6868 -2.4144
 4844TIP3    H236024   3.785   3.749   1.454  0.9343 -0.9710  2.0545
 4845TIP3   OH236025   4.231   5.876  11.451 -0.1977  0.1086  0.0718
 4845TIP3    H136026   4.287   5.901  11.378  0.5070  0.5734  0.7600
 4845TIP3    H236027   4.144   5.866  11.413  0.0998  0.6902 -0.7603
 4846TIP3   OH236028   5.565   2.825  14.098  0.2429 -0.0634  0.5245
 4846TIP3    H136029   5.503   2.887  14.059  0.9376  1.6135  1.9655
 4846TIP3    H236030   5.521   2.741  14.094 -1.1228  0.6801 -0.6679
 4847TIP3   OH236031   6.730   6.023  16.068 -0.4068  0.1707 -0.7755
 4847TIP3    H136032   6.787   6.020  16.145 -0.7584  1.8837 -0.4330
 4847TIP3    H236033   6.772   6.087  16.010 -0.6102 -0.4650 -1.6300
 4848TIP3   OH236034   1.846   4.197   6.557  0.1573 -0.2944 -0.0270
 4848TIP3    H136035   1.847   4.293   6.554 -0.4567 -0.2760  0.1998
 4848TIP3    H236036   1.765   4.172   6.511 -1.1124 -0.5904  2.2752
 4849TIP3   OH236037   4.863   6.614   3.611  0.5853  0.0030  0.5387
 4849TIP3    H136038   4.823   6.539   3.567 -2.1796  1.8611 -0.1822
 4849TIP3    H236039   4.888   6.580   3.697 -0.2292 -1.8558  0.0775
 4850TIP3   OH236040   1.182   1.130   1.524 -0.1856  0.7361 -0.0056
 4850TIP3    H136041   1.136   1.047   1.512  2.3927 -0.3954 -2.5616
 4850TIP3    H236042   1.184   1.142   1.619 -2.4989 -0.9886  0.3181
 4851TIP3   OH236043   0.793   4.550   1.534 -0.6667 -0.0060 -0.0099
 4851TIP3    H136044   0.737   4.560   1.456 -0.4918  0.2286 -0.1060
 4851TIP3    H236045   0.738   4.503   1.597 -1.0922  0.5055  0.0128
 4852TIP3   OH236046   1.211   1.963  14.228  0.4627 -0.2740  0.1015
 4852TIP3    H136047   1.261   1.929  14.303  0.7156  1.1863  0.6188
 4852TIP3    H236048   1.129   1.994  14.267 -0.0726 -0.9522 -0.4722
 4853TIP3   OH236049   2.670   0.483   3.686 -0.4039 -0.3845  0.5543
 4853TIP3    H136050   2.727   0.472   3.609 -0.9870  1.9831 -0.2773
 4853TIP3    H236051   2.696   0.413   3.746  2.0999 -0.4751 -0.5778
 4854TIP3   OH236052   2.305   0.078  14.517 -0.1664  0.5234 -0.1788
 4854TIP3    H136053   2.323   0.094  14.609  0.4054  2.2869 -0.5775
 4854TIP3    H236054   2.275  -0.013  14.513  2.0263 -0.2988  1.4139
 4855TIP3   OH236055   4.982   5.283  11.491 -1.3148 -0.4264 -0.0510
 4855TIP3    H136056   4.895   5.254  11.518 -1.5164  0.6656  0.4998
 4855TIP3    H236057   5.001   5.232  11.412 -1.6424 -2.0553  0.8966
 4856TIP3   OH236058   2.862   1.635   1.141 -0.2205  0.1546 -0.1519
 4856TIP3    H136059   2.816   1.552   1.155 -2.1333  1.2893  0.5310
 4856TIP3    H236060   2.923   1.617   1.069  0.9462 -2.4105  1.4137
 4857TIP3   OH236061   1.339   5.195  16.726  0.4547 -0.3594  0.3943
 4857TIP3    H136062   1.283   5.187  16.803 -0.0466  0.3028  0.0995
 4857TIP3    H236063   1.281   5.180  16.652  0.3219  1.8102  0.0111
 4858TIP3   OH236064   1.586   4.531   1.778  0.0234 -0.0044 -0.3231
 4858TIP3    H136065   1.596   4.495   1.866  2.4071  1.0126 -0.1481
 4858TIP3    H236066   1.597   4.626   1.789 -0.4515  0.2113 -1.5938
 4859TIP3   OH236067   1.916   5.661  14.042 -0.1382 -0.0530  0.1682
 4859TIP3    H136068   1.899   5.585  14.098 -0.8128  1.0906  1.5330
 4859TIP3    H236069   1.869   5.642  13.961  1.4870 -2.0889 -0.3548
 4860TIP3   OH236070   2.482   0.318   5.930 -0.2319 -0.6507 -0.1245
 4860TIP3    H136071   2.446   0.315   6.018 -3.1383 -1.3910 -1.2816
 4860TIP3    H236072   2.480   0.411   5.907  0.9282 -0.4065  0.7230
 4861TIP3   OH236073   2.124   4.109   3.987  0.0599 -0.1121  0.1756
 4861TIP3    H136074   2.171   4.026   3.985  1.9749  0.9371 -0.1605
 4861TIP3    H236075   2.073   4.109   3.906  0.5778 -0.6792 -0.1589
 4862TIP3   OH236076   2.124   0.194   4.101 -0.1428  0.0878 -0.0034
 4862TIP3    H136077   2.140   0.284   4.130  2.4551 -0.5226  0.6088
 4862TIP3    H236078   2.045   0.168   4.147 -0.6385  1.8871  0.2094
 4863TIP3   OH236079   3.043   2.823  14.750 -0.0397  0.3907  0.0769
 4863TIP3    H136080   2.960   2.831  14.797  0.9316 -0.5965  2.0337
 4863TIP3    H236081   3.058   2.910  14.713 -0.1113  1.6464  2.8881
 4864TIP3   OH236082   5.707   4.894  11.425  0.0186  0.7165  0.0694
 4864TIP3    H136083   5.801   4.887  11.439 -0.3854  0.8878  3.0824
 4864TIP3    H236084   5.669   4.817  11.467 -1.2294  0.7242 -0.9763
 4865TIP3   OH236085   0.360   5.080   4.178  0.1116  0.7302 -0.2147
 4865TIP3    H136086   0.346   5.128   4.097 -0.1050  1.1692  0.0847
 4865TIP3    H236087   0.276   5.082   4.223  0.6520  1.8758  0.7655
 4866TIP3   OH236088   2.123   4.779   4.826  0.7491  0.4198  0.0351
 4866TIP3    H136089   2.055   4.836   4.862  0.0458  0.1331 -0.8037
 4866TIP3    H236090   2.097   4.767   4.735  0.6778 -1.5450  0.2984
 4867TIP3   OH236091   0.436   0.861  11.513  0.4310 -0.7911 -0.5089
 4867TIP3    H136092   0.481   0.858  11.597 -0.7935 -0.3905  0.1656
 4867TIP3    H236093   0.481   0.795  11.459  1.8794 -0.3118  0.1161
 4868TIP3   OH236094   0.255   4.960   2.874 -0.2849 -0.0597  0.2585
 4868TIP3    H136095   0.198   4.992   2.804 -0.6550 -1.1881  0.0295
 4868TIP3    H236096   0.196   4.921   2.938  0.2721 -2.2123 -0.4926
 4869TIP3   OH236097   2.785   5.716   4.610 -0.2810  0.3381 -0.2348
 4869TIP3    H136098   2.821   5.801   4.634 -0.0991 -0.0955  1.0752
 4869TIP3    H236099   2.731   5.734   4.533  3.3888  0.8493 -2.8150
 4870TIP3   OH236100   2.472   6.262  12.347  0.2664  0.0083  0.1892
 4870TIP3    H136101   2.494   6.355  12.345  0.2869 -0.0065 -0.7891
 4870TIP3    H236102   2.442   6.243  12.258  0.0953 -0.8802  0.4316
 4871TIP3   OH236103   0.102   5.708   6.277 -0.1164  0.6728 -0.0054
 4871TIP3    H136104   0.037   5.682   6.212 -0.3750  1.0843  0.0910
 4871TIP3    H236105   0.091   5.644   6.348  2.1359 -1.5977 -1.6082
 4872TIP3   OH236106   0.448   4.592   6.609  0.4808 -0.3810  0.7684
 4872TIP3    H136107   0.529   4.640   6.588  0.4060  0.2467  1.8759
 4872TIP3    H236108   0.394   4.656   6.655  0.3870 -1.5481  2.3161
 4873TIP3   OH236109   3.028   3.123  15.906 -0.0556 -0.3072  0.1830
 4873TIP3    H136110   2.964   3.192  15.925 -1.3912 -1.4175 -0.1653
 4873TIP3    H236111   2.985   3.042  15.935  1.2660 -1.0549  0.0921
 4874TIP3   OH236112   3.596   2.442  14.704 -0.5754 -0.0170  0.0153
 4874TIP3    H136113   3.665   2.378  14.687 -0.4807  0.2975 -0.8253
 4874TIP3    H236114   3.532   2.396  14.758 -0.0676 -0.5397  0.1646
 4875TIP3   OH236115   4.002   5.893   3.076  0.0496 -0.1227  0.3244
 4875TIP3    H136116   4.070   5.960   3.075  0.5610 -0.6301  0.5952
 4875TIP3    H236117   4.047   5.812   3.052 -0.6736 -0.2739 -0.5446
 4876TIP3   OH236118   2.400   5.395  11.464 -0.6732  0.4425  0.1207
 4876TIP3    H136119   2.413   5.490  11.464 -0.6510  0.4452  1.2133
 4876TIP3    H236120   2.325   5.382  11.406  0.4398  0.9487 -1.4672
 4877TIP3   OH236121   3.976   5.448  14.652  0.0170 -0.0694 -0.4304
 4877TIP3    H136122   3.956   5.535  14.617 -2.8934 -0.2471  0.6130
 4877TIP3    H236123   3.945   5.387  14.584 -0.2998 -0.3049 -0.0805
 4878TIP3   OH236124   2.592   3.717   3.056 -0.5878  0.4745 -0.9060
 4878TIP3    H136125   2.661   3.652   3.049 -0.9795  0.0761 -1.1553
 4878TIP3    H236126   2.570   3.738   2.965 -1.6852 -0.3642 -0.8456
 4879TIP3   OH236127   2.420   3.408   5.957  0.0327 -0.3950  0.0679
 4879TIP3    H136128   2.479   3.383   6.029  0.4006 -0.9984 -0.4452
 4879TIP3    H236129   2.350   3.343   5.960  0.1734 -0.5625 -0.2714
 4880TIP3   OH236130   3.511   2.639   0.581  0.4206  0.2262 -0.3395
 4880TIP3    H136131   3.542   2.550   0.596 -1.0615 -0.1669  0.4426
 4880TIP3    H236132   3.590   2.687   0.555  0.7235 -2.0025 -4.0210
 4881TIP3   OH236133   2.058   2.308   4.805 -0.1729  0.1953 -0.2661
 4881TIP3    H136134   1.975   2.280   4.842 -0.3849  0.7964 -0.2781
 4881TIP3    H236135   2.104   2.227   4.784 -0.2371 -0.1375  0.8828
 4882TIP3   OH236136   3.571   0.311  12.962 -0.1786  0.3739 -0.5447
 4882TIP3    H136137   3.624   0.251  13.014 -0.8282  1.3290  1.2275
 4882TIP3    H236138   3.507   0.254  12.918  0.7007 -0.4847 -0.7297
 4883TIP3   OH236139   3.229   5.357  13.882  0.0818  0.0573  0.3099
 4883TIP3    H136140   3.245   5.450  13.897  1.9404 -0.0148 -1.0208
 4883TIP3    H236141   3.281   5.336  13.804 -3.4787 -1.2067 -1.8232
 4884TIP3   OH236142   1.879   6.779  16.897 -0.0821  0.0586  0.5370
 4884TIP3    H136143   1.930   6.808  16.972  1.1534  0.6380 -0.5035
 4884TIP3    H236144   1.916   6.693  16.875  0.1049  0.2511  0.0968
 4885TIP3   OH236145   6.146   2.613  10.880 -0.2347  0.0852  0.0891
 4885TIP3    H136146   6.103   2.560  10.812  0.4132 -1.6221  0.9717
 4885TIP3    H236147   6.074   2.643  10.936 -0.6193  0.1852 -0.4564
 4886TIP3   OH236148   4.626   0.896  12.981  0.1716  0.2465  0.3792
 4886TIP3    H136149   4.672   0.919  13.063  0.4925 -0.5537  0.4302
 4886TIP3    H236150   4.559   0.833  13.008  0.4323 -0.2000 -0.0022
 4887TIP3   OH236151   1.762   0.560   2.085  0.3537 -0.2582  0.5507
 4887TIP3    H136152   1.832   0.500   2.060  1.1442  1.0994 -0.5969
 4887TIP3    H236153   1.745   0.611   2.006 -0.3921  0.9282  1.4617
 4888TIP3   OH236154   4.383   6.297  16.483 -0.2149  0.2046  1.3638
 4888TIP3    H136155   4.427   6.227  16.531 -1.2505 -0.3677  1.4973
 4888TIP3    H236156   4.293   6.296  16.515 -1.1932 -0.8533 -1.2796
 4889TIP3   OH236157   2.118   5.361  14.273  0.4761  0.2947  0.8141
 4889TIP3    H136158   2.193   5.410  14.305  0.5976  0.5779  0.0912
 4889TIP3    H236159   2.146   5.325  14.189  0.9086 -2.2195  1.9851
 4890TIP3   OH236160   0.037   2.577   0.095  0.3066  0.0851 -0.4544
 4890TIP3    H136161   0.011   2.520   0.168 -1.5293 -0.2023 -1.3099
 4890TIP3    H236162   0.099   2.523   0.045  1.4354  0.2144  0.7537
 4891TIP3   OH236163   0.259   4.559  15.176  0.1008  0.4725  0.2777
 4891TIP3    H136164   0.214   4.488  15.222 -2.1079  1.5549 -0.1331
 4891TIP3    H236165   0.320   4.514  15.117 -0.7296 -1.0515  0.5444
 4892TIP3   OH236166   0.870   3.675  15.030  0.5915 -0.0379 -0.1019
 4892TIP3    H136167   0.781   3.700  15.053  0.7433  1.2293 -0.8189
 4892TIP3    H236168   0.911   3.756  15.000  1.9666 -0.6148  0.1500
 4893TIP3   OH236169   4.844   1.234  14.724 -0.2911  0.2772  0.3942
 4893TIP3    H136170   4.751   1.251  14.715 -0.3026  0.1620  0.2937
 4893TIP3    H236171   4.886   1.317  14.700 -0.3423  0.1235 -0.2428
 4894TIP3   OH236172   2.830   1.376   4.950 -0.0150 -0.2867  0.1130
 4894TIP3    H136173   2.922   1.402   4.956  0.3893 -1.3930 -1.0895
 4894TIP3    H236174   2.830   1.300   4.892 -1.7615  0.0827 -0.4142
 4895TIP3   OH236175   0.912   4.986  16.202  0.1001 -0.7308  0.0393
 4895TIP3    H136176   0.993   4.943  16.231 -0.2749 -1.5717 -0.1503
 4895TIP3    H236177   0.901   4.956  16.111 -0.9201 -1.3366  0.3692
 4896TIP3   OH236178   3.353   1.093  15.828 -0.3230 -0.2956  0.4400
 4896TIP3    H136179   3.265   1.056  15.843 -0.5348  0.3814  0.8705
 4896TIP3    H236180   3.366   1.086  15.733 -1.2666  0.5442  0.2423
 4897TIP3   OH236181   5.197   2.065   5.781  0.4341 -0.0738  0.1153
 4897TIP3    H136182   5.265   2.054   5.848  0.1800  1.1474  0.6007
 4897TIP3    H236183   5.117   2.080   5.831 -0.1176 -1.0788 -0.4579
 4898TIP3   OH236184   0.690   1.409   4.070 -0.2757 -0.0669 -0.0955
 4898TIP3    H136185   0.632   1.363   4.131 -0.3830  2.2645  1.6417
 4898TIP3    H236186   0.632   1.434   3.998 -0.4040 -1.8069 -0.6192
 4899TIP3   OH236187   1.044   3.226  15.398  0.3900 -1.0775  0.0416
 4899TIP3    H136188   1.132   3.214  15.433 -0.5027 -1.3315  2.2638
 4899TIP3    H236189   1.042   3.318  15.370  0.9284 -0.6667  1.3009
 4900TIP3   OH236190   6.559   6.199   1.323 -0.1760  0.5765  0.0232
 4900TIP3    H136191   6.491   6.137   1.348  0.8213 -0.4647  0.2040
 4900TIP3    H236192   6.544   6.216   1.230  0.5857 -1.2984 -0.4682
 4901TIP3   OH236193   4.104   2.186   0.768 -0.4434 -0.1653 -0.2051
 4901TIP3    H136194   4.019   2.176   0.725  0.3002  1.8091 -2.2756
 4901TIP3    H236195   4.168   2.177   0.697  1.0406 -0.7561  1.1690
 4902TIP3   OH236196   1.815   1.101   4.326 -0.3678  0.1302 -0.1163
 4902TIP3    H136197   1.725   1.067   4.322 -0.6393  0.9935 -1.6408
 4902TIP3    H236198   1.827   1.125   4.418 -1.9891  0.7384 -0.0397
 4903TIP3   OH236199   5.742   3.197   5.940  0.7009 -0.1854 -0.0670
 4903TIP3    H136200   5.682   3.156   6.002  1.1746 -0.7327  0.0346
 4903TIP3    H236201   5.689   3.209   5.861 -0.5706  2.6218  1.1549
 4904TIP3   OH236202   2.727   1.951   6.005 -0.3041 -0.1255 -0.3773
 4904TIP3    H136203   2.708   1.983   6.093 -4.5854  2.7968 -2.2103
 4904TIP3    H236204   2.789   2.015   5.969  0.4047 -0.5758  0.0363
 4905TIP3   OH236205   2.630   4.098   0.948 -0.1805  0.2741 -0.2317
 4905TIP3    H136206   2.606   4.014   0.909  0.8900 -0.0709 -0.1721
 4905TIP3    H236207   2.713   4.122   0.905  0.0652  0.7800  0.5025
 4906TIP3   OH236208   6.699   5.574   0.605 -0.2637  0.7339 -0.5717
 4906TIP3    H136209   6.708   5.653   0.552 -2.7565  1.7770  0.5249
 4906TIP3    H236210   6.744   5.506   0.553 -0.8273  2.1636 -3.0146
 4907TIP3   OH236211   1.873   2.517  16.423  0.7056  0.9146 -0.6264
 4907TIP3    H136212   1.886   2.611  16.434  2.1619  0.4665  1.7646
 4907TIP3    H236213   1.951   2.487  16.376  0.0853  0.9250 -1.6885
 4908TIP3   OH236214   3.149   6.711   3.573  0.4603 -0.2648 -0.1072
 4908TIP3    H136215   3.174   6.659   3.649 -0.7379 -0.9473 -0.1727
 4908TIP3    H236216   3.132   6.647   3.504  1.4602  0.3417 -0.9455
 4909TIP3   OH236217   1.593   1.696  15.275 -0.2323  0.1939  0.2597
 4909TIP3    H136218   1.607   1.607  15.307  0.6071 -0.1527 -1.0402
 4909TIP3    H236219   1.524   1.687  15.209 -0.9900  0.6969  0.9662
 4910TIP3   OH236220   1.801   6.131   5.105 -0.0524  0.6758  0.0089
 4910TIP3    H136221   1.882   6.182   5.109 -0.1036  0.7130  0.6869
 4910TIP3    H236222   1.740   6.188   5.058  0.3227  0.6273 -0.5499
 4911TIP3   OH236223   1.977   2.943   0.789  1.0334 -0.3250  0.0811
 4911TIP3    H136224   2.023   2.874   0.741  1.8830 -0.5501  1.1868
 4911TIP3    H236225   2.029   3.022   0.773  1.2442 -0.3745  0.5127
 4912TIP3   OH236226   3.745   4.264  14.278 -0.1584 -0.3771 -0.3010
 4912TIP3    H136227   3.809   4.329  14.250  0.4935 -0.9259 -0.0919
 4912TIP3    H236228   3.702   4.236  14.197 -0.5422  0.4195 -0.3726
 4913TIP3   OH236229   1.508   0.465   2.107 -0.1285  0.3881 -0.4536
 4913TIP3    H136230   1.603   0.477   2.108 -0.2122  1.0263 -0.1435
 4913TIP3    H236231   1.490   0.425   2.022  0.5187 -0.5828 -0.1444
 4914TIP3   OH236232   0.336   0.271   0.316  0.0748  0.2343  0.1501
 4914TIP3    H136233   0.428   0.256   0.339  0.4428  2.1580 -0.0048
 4914TIP3    H236234   0.302   0.184   0.296  0.6925 -1.0932  4.4370
 4915TIP3   OH236235   4.634   1.258  16.911  0.0743 -0.5294 -0.7605
 4915TIP3    H136236   4.668   1.207  16.837 -0.0557 -1.7130 -0.0162
 4915TIP3    H236237   4.702   1.249  16.978  0.1882  0.5416 -0.7244
 4916TIP3   OH236238   1.875   1.035  16.172 -0.2279  0.1181 -0.2110
 4916TIP3    H136239   1.848   1.077  16.090  0.2597  0.9080  0.0183
 4916TIP3    H236240   1.950   1.088  16.202  0.9928 -1.4722 -0.3813
 4917TIP3   OH236241   6.405   2.287  13.006  0.0948 -0.2683  0.7381
 4917TIP3    H136242   6.395   2.219  12.939 -0.8061 -0.6086  1.2054
 4917TIP3    H236243   6.491   2.325  12.989  0.4315 -1.2444  0.2016
 4918TIP3   OH236244   5.481   0.619  12.643  0.4010  0.3563 -0.1794
 4918TIP3    H136245   5.405   0.667  12.675 -0.1315  0.1043 -1.0547
 4918TIP3    H236246   5.546   0.627  12.713 -0.1875  1.1492  0.2789
 4919TIP3   OH236247   5.350   2.636   5.304 -0.0448 -0.3452 -0.2816
 4919TIP3    H136248   5.265   2.664   5.338 -0.0304 -0.1620 -0.3933
 4919TIP3    H236249   5.406   2.629   5.381  0.5224  1.9582 -0.4688
 4920TIP3   OH236250   4.800   4.066   5.950 -0.8737 -0.0477 -0.0349
 4920TIP3    H136251   4.896   4.069   5.942 -0.9716  1.4951 -0.7837
 4920TIP3    H236252   4.776   4.154   5.978 -1.9694 -0.8362  1.5198
 4921TIP3   OH236253   4.010   3.662  14.416  0.4851 -0.2755  0.0809
 4921TIP3    H136254   3.919   3.662  14.447  0.2906  0.9703 -0.4568
 4921TIP3    H236255   4.054   3.596  14.470 -0.8221 -1.1717  0.0886
 4922TIP3   OH236256   1.328   5.394   5.462 -0.1079 -0.4027 -0.7908
 4922TIP3    H136257   1.297   5.445   5.388  0.1800 -1.2027 -1.4757
 4922TIP3    H236258   1.390   5.452   5.507 -1.0267  0.4397 -0.5985
 4923TIP3   OH236259   4.378   0.657   4.837 -0.5123 -0.1155  0.1633
 4923TIP3    H136260   4.421   0.743   4.828 -1.3377  0.3637  0.7443
 4923TIP3    H236261   4.354   0.653   4.930  0.4443 -1.4199  0.3697
 4924TIP3   OH236262   3.608   5.613   3.676  0.8760  0.1161  0.0093
 4924TIP3    H136263   3.551   5.690   3.669 -0.0086 -0.6770 -1.7701
 4924TIP3    H236264   3.565   5.558   3.742  0.8858  0.6042  0.4315
 4925TIP3   OH236265   4.138   5.710  14.306  0.2646 -0.5249 -0.4764
 4925TIP3    H136266   4.196   5.775  14.346 -1.6721  0.5261  0.7372
 4925TIP3    H236267   4.100   5.755  14.231 -2.0777  0.2837  1.1178
 4926TIP3   OH236268   5.835   3.195  11.107 -0.3648 -0.1562  0.2132
 4926TIP3    H136269   5.863   3.217  11.196 -2.9006 -2.4537  1.6417
 4926TIP3    H236270   5.741   3.213  11.106 -0.7680 -2.1828 -1.3014
 4927TIP3   OH236271   2.618   3.154  12.484  0.1975  0.3951  0.0263
 4927TIP3    H136272   2.530   3.117  12.479  0.0237  0.7523  0.4826
 4927TIP3    H236273   2.673   3.089  12.440  0.1172 -1.0711  2.0604
 4928TIP3   OH236274   2.038   6.271  16.803 -0.2187  0.0669 -0.1492
 4928TIP3    H136275   2.058   6.209  16.873  1.2093 -1.0547 -1.4989
 4928TIP3    H236276   2.054   6.357  16.842  0.3295 -0.5389  0.9848
 4929TIP3   OH236277   4.247   0.198   4.153 -0.1247  0.8733 -0.0397
 4929TIP3    H136278   4.298   0.141   4.211 -0.4411  0.5951 -0.0327
 4929TIP3    H236279   4.302   0.209   4.076  0.5193  1.6557  0.5234
 4930TIP3   OH236280   6.111   1.168  13.733 -0.6869  0.3160 -0.9522
 4930TIP3    H136281   6.046   1.184  13.665 -2.1532 -1.4808 -0.0345
 4930TIP3    H236282   6.061   1.172  13.815  0.4410 -0.6073 -0.1973
 4931TIP3   OH236283   0.090   3.199   5.353  0.0623  0.3448 -0.0429
 4931TIP3    H136284   0.185   3.209   5.342  0.3164 -0.4187  1.3442
 4931TIP3    H236285   0.061   3.284   5.386  0.4727  0.1438  0.8417
 4932TIP3   OH236286   3.357   0.622  13.773 -0.0263 -0.8910 -0.4853
 4932TIP3    H136287   3.381   0.612  13.681 -1.3162 -1.9192 -0.7195
 4932TIP3    H236288   3.426   0.575  13.821  0.7794 -0.1435 -0.8980
 4933TIP3   OH236289   6.042   5.902  10.939  0.1600  0.4390 -0.2547
 4933TIP3    H136290   6.133   5.928  10.924  0.2459 -0.2931 -1.0388
 4933TIP3    H236291   5.992   5.948  10.871  0.1499 -0.4299 -0.8388
 4934TIP3   OH236292   0.038   6.130   5.380 -0.0311 -0.4733 -0.2510
 4934TIP3    H136293   0.109   6.174   5.334  0.7426  0.0122  1.3857
 4934TIP3    H236294   0.045   6.039   5.354  0.4292 -0.2074 -1.0607
 4935TIP3   OH236295   6.013   3.068  12.020  0.0688  0.3126  0.6325
 4935TIP3    H136296   6.104   3.037  12.014  0.7763  2.3508  0.4058
 4935TIP3    H236297   6.012   3.123  12.099 -1.2690 -0.6184  1.2794
 4936TIP3   OH236298   3.975   4.008   3.267  0.1714  0.3578  0.1135
 4936TIP3    H136299   3.975   3.936   3.203 -1.1159 -0.3302  0.8918
 4936TIP3    H236300   3.923   4.077   3.225 -1.2321 -0.3410  0.6869
 4937TIP3   OH236301   2.736   0.632   6.269  0.5005  0.0387  0.0838
 4937TIP3    H136302   2.811   0.666   6.222  0.4567  0.0016 -0.0140
 4937TIP3    H236303   2.661   0.679   6.232  0.3909 -0.4883 -0.3678
 4938TIP3   OH236304   0.551   1.643   2.581  0.0863  0.0550  0.1439
 4938TIP3    H136305   0.511   1.730   2.590 -0.4714 -0.3380  1.5451
 4938TIP3    H236306   0.479   1.587   2.551 -0.1806 -0.4354  1.6644
 4939TIP3   OH236307   1.608   0.482  13.613  0.8128 -0.0377  0.3257
 4939TIP3    H136308   1.668   0.484  13.538 -0.3955  1.5135 -0.6298
 4939TIP3    H236309   1.652   0.534  13.680  1.6899 -1.0530  0.5575
 4940TIP3   OH236310   1.231   0.556  16.966  0.1244 -0.2132 -0.3538
 4940TIP3    H136311   1.247   0.625  17.031 -0.5821  0.0853 -0.4939
 4940TIP3    H236312   1.154   0.586  16.918 -0.0263 -0.9811 -0.5921
 4941TIP3   OH236313   4.587   2.006   6.584 -0.1100  0.4740  0.2846
 4941TIP3    H136314   4.555   2.056   6.509 -1.6639 -1.1882 -0.2131
 4941TIP3    H236315   4.521   1.938   6.596  0.0901  0.7432  3.1975
 4942TIP3   OH236316   1.676   2.991   1.183  0.4829 -0.0510 -0.4103
 4942TIP3    H136317   1.720   2.909   1.160 -0.4021 -0.3649 -0.9933
 4942TIP3    H236318   1.591   2.965   1.216  1.1469  0.4973  1.8014
 4943TIP3   OH236319   5.447   5.319   4.652  0.4060  0.3770  0.2196
 4943TIP3    H136320   5.522   5.355   4.604 -0.8321  1.0921 -1.2284
 4943TIP3    H236321   5.405   5.395   4.691 -0.2758  0.1181 -0.0103
 4944TIP3   OH236322   2.610   3.393   0.037 -0.1651 -0.1741  0.1618
 4944TIP3    H136323   2.666   3.332   0.085 -1.3861 -0.8133  0.8085
 4944TIP3    H236324   2.580   3.343  -0.039  1.0445  0.5444 -0.8083
 4945TIP3   OH236325   0.867   6.408  13.036  0.4878  0.2772  0.2353
 4945TIP3    H136326   0.838   6.326  12.996 -0.3942 -0.0926  1.6108
 4945TIP3    H236327   0.868   6.391  13.130  0.8834  1.6564  0.4999
 4946TIP3   OH236328   4.970   6.106  11.176 -0.2702  0.3058  0.6380
 4946TIP3    H136329   4.962   6.101  11.271 -2.2260 -0.0184  0.4829
 4946TIP3    H236330   4.884   6.134  11.146  0.8494  2.2456 -0.9345
 4947TIP3   OH236331   6.569   4.102   6.107 -0.4192 -0.5729  0.3576
 4947TIP3    H136332   6.552   4.030   6.047 -2.5801 -0.5521  0.8912
 4947TIP3    H236333   6.557   4.063   6.194  0.4892 -0.0607  0.7216
 4948TIP3   OH236334   5.650   4.152   1.403  0.4791 -0.1796  0.2449
 4948TIP3    H136335   5.739   4.188   1.408  0.4252 -0.0856  0.5872
 4948TIP3    H236336   5.593   4.225   1.425  0.4732 -0.9160  2.8561
 4949TIP3   OH236337   1.808   5.219   4.968 -0.3653  0.2414  0.4786
 4949TIP3    H136338   1.736   5.199   4.907 -0.0330  0.7350 -0.0699
 4949TIP3    H236339   1.767   5.270   5.037 -1.1729 -1.9987  1.7344
 4950TIP3   OH236340   2.768   1.903   3.575  0.1777  0.2244 -0.2051
 4950TIP3    H136341   2.726   1.817   3.583  0.6241 -0.0823 -1.1293
 4950TIP3    H236342   2.728   1.955   3.645 -2.1861  0.1077 -1.4149
 4951TIP3   OH236343   2.619   3.769   0.137  0.0074  0.5051 -0.0601
 4951TIP3    H136344   2.580   3.835   0.080 -0.0005 -1.1275 -1.9954
 4951TIP3    H236345   2.544   3.730   0.183 -0.1673  0.5667 -0.2924
 4952TIP3   OH236346   5.149   3.859   0.630 -0.1486  0.2176  0.0442
 4952TIP3    H136347   5.067   3.824   0.596  0.1355 -0.5285  0.1203
 4952TIP3    H236348   5.129   3.880   0.721 -0.8238  1.9326 -0.4739
 4953TIP3   OH236349   3.837   5.891   2.023  0.1070 -0.1620 -0.8157
 4953TIP3    H136350   3.759   5.885   1.967 -0.3073  1.9562 -0.5157
 4953TIP3    H236351   3.827   5.819   2.085 -2.8787  1.4849  0.7322
 4954TIP3   OH236352   4.890   0.309   5.814 -0.0565  0.1905 -0.2391
 4954TIP3    H136353   4.924   0.220   5.801 -0.1808  0.0253  0.5156
 4954TIP3    H236354   4.893   0.322   5.909  0.2423  1.1080 -0.3707
 4955TIP3   OH236355   3.844   1.829   2.698  0.6720 -0.2843  0.3642
 4955TIP3    H136356   3.850   1.904   2.639  2.5498  0.1464  1.0515
 4955TIP3    H236357   3.837   1.753   2.640 -3.5351  0.5352 -0.3157
 4956TIP3   OH236358   6.645   6.576   2.583 -0.6083  0.0810 -0.7663
 4956TIP3    H136359   6.710   6.632   2.541  0.7443  0.4681  1.7472
 4956TIP3    H236360   6.678   6.487   2.571  0.1402  0.2383  0.0105
 4957TIP3   OH236361   5.136   2.664  15.301 -0.1570  0.4905 -0.4388
 4957TIP3    H136362   5.052   2.661  15.256  0.0488  0.7128 -0.8431
 4957TIP3    H236363   5.138   2.750  15.343  0.8013  1.3784 -2.2594
 4958TIP3   OH236364   1.538   0.918   3.013 -0.2754 -0.4603 -0.3626
 4958TIP3    H136365   1.476   0.965   3.068 -1.1333  0.2906 -1.9397
 4958TIP3    H236366   1.624   0.944   3.046 -0.7617  0.8139 -0.0575
 4959TIP3   OH236367   1.065   1.979   4.816  0.0234  0.0198 -0.0635
 4959TIP3    H136368   1.073   1.984   4.911 -1.0298  1.0518 -0.0064
 4959TIP3    H236369   1.148   1.943   4.786  0.0968 -0.9495  1.3001
 4960TIP3   OH236370   2.672   1.259  14.930  0.2860 -0.1612 -0.1155
 4960TIP3    H136371   2.637   1.221  14.849  0.9005 -1.0245  0.0243
 4960TIP3    H236372   2.638   1.348  14.930  0.2052 -0.1787 -1.2872
 4961TIP3   OH236373   3.194   4.366   1.406  0.1008  0.0832  0.4466
 4961TIP3    H136374   3.268   4.330   1.455  0.4185 -2.1212 -1.5881
 4961TIP3    H236375   3.230   4.438   1.355  0.1466  1.1495  1.9477
 4962TIP3   OH236376   3.186   6.162   6.018  0.3111 -0.2153  0.1826
 4962TIP3    H136377   3.127   6.126   6.084  0.1323 -1.0701 -0.4357
 4962TIP3    H236378   3.269   6.117   6.034  0.3693 -0.1519  0.0561
 4963TIP3   OH236379   5.708   5.615  11.307 -0.8153 -0.1962  0.0951
 4963TIP3    H136380   5.771   5.653  11.245  0.4595  0.4803  1.7730
 4963TIP3    H236381   5.740   5.526  11.321 -0.7698 -0.1539  0.2526
 4964TIP3   OH236382   2.408   0.788  13.634 -0.2054 -0.3082  0.5940
 4964TIP3    H136383   2.476   0.721  13.628  0.3393  0.1021  2.0745
 4964TIP3    H236384   2.346   0.753  13.698 -0.5449  0.0682  0.4756
 4965TIP3   OH236385   3.184   2.132   5.496  0.2957  0.8615  0.2658
 4965TIP3    H136386   3.175   2.135   5.591 -0.2581 -1.1332  0.3054
 4965TIP3    H236387   3.120   2.196   5.463 -0.7338  0.3277  1.1953
 4966TIP3   OH236388   0.851   1.361  15.864 -0.4515 -0.0427 -0.4046
 4966TIP3    H136389   0.779   1.299  15.854 -0.5601  0.3485 -2.2490
 4966TIP3    H236390   0.832   1.408  15.944 -3.1895  1.2576 -1.7666
 4967TIP3   OH236391   0.580   2.383   0.144  0.2899  0.4434  0.3830
 4967TIP3    H136392   0.641   2.343   0.082  0.2550 -0.0556  0.6731
 4967TIP3    H236393   0.527   2.310   0.176  0.5982  0.6422  1.3411
 4968TIP3   OH236394   2.295   0.139  16.404 -0.6022 -0.7947 -0.5868
 4968TIP3    H136395   2.240   0.066  16.377  0.4611 -2.0902  0.6425
 4968TIP3    H236396   2.323   0.180  16.322 -0.3415 -2.4332 -1.3278
 4969TIP3   OH236397   5.195   6.596   5.981 -0.3512 -0.5019  0.2802
 4969TIP3    H136398   5.284   6.603   6.015  0.8974 -0.6371 -2.8022
 4969TIP3    H236399   5.164   6.686   5.976  0.3754 -0.2967 -0.5590
 4970TIP3   OH236400   0.204   3.969  16.693  0.1505 -0.6231 -0.2507
 4970TIP3    H136401   0.181   3.906  16.625 -0.3525  1.0735 -1.6986
 4970TIP3    H236402   0.253   3.919  16.757 -2.3630 -3.0351 -0.1115
 4971TIP3   OH236403   4.166   2.870  11.173  0.4961  0.0272 -0.1827
 4971TIP3    H136404   4.240   2.851  11.232  0.1502  0.9491  0.5475
 4971TIP3    H236405   4.102   2.802  11.193  1.8648 -1.9135 -2.1211
 4972TIP3   OH236406   0.604   1.403  10.627  0.4891  0.3970 -0.3862
 4972TIP3    H136407   0.550   1.432  10.554  1.1567 -1.4381 -1.6674
 4972TIP3    H236408   0.678   1.358  10.585  0.0127 -2.1931  1.4297
 4973TIP3   OH236409   4.071   1.879  16.236 -0.0606 -0.0400 -0.0156
 4973TIP3    H136410   4.162   1.909  16.244  0.2263 -0.8975 -0.0251
 4973TIP3    H236411   4.024   1.929  16.303  0.7009 -0.6584  1.0040
 4974TIP3   OH236412   6.515   5.402   1.264  0.1820 -0.0821  0.5871
 4974TIP3    H136413   6.589   5.346   1.289 -0.1863 -0.6915  0.3176
 4974TIP3    H236414   6.450   5.341   1.230  0.5694  0.7148 -1.6279
 4975TIP3   OH236415   6.314   2.671  12.171  0.2547  0.5194  0.7782
 4975TIP3    H136416   6.242   2.731  12.150 -1.0369 -0.7251  1.5896
 4975TIP3    H236417   6.368   2.720  12.234  1.2848  2.2392 -1.3409
 4976TIP3   OH236418   3.732   0.788   4.614  0.1141  0.0844 -0.1153
 4976TIP3    H136419   3.737   0.841   4.535 -1.4623 -0.0735 -0.3312
 4976TIP3    H236420   3.704   0.702   4.584  2.1088 -0.7533  0.3042
 4977TIP3   OH236421   2.906   4.929  14.419 -0.0594 -0.3054 -0.2355
 4977TIP3    H136422   2.878   4.985  14.491 -2.7971 -0.8914 -0.8115
 4977TIP3    H236423   2.992   4.963  14.394  0.0870  1.0824  2.0426
 4978TIP3   OH236424   5.441   3.179  14.930 -0.7332 -0.3221 -0.2519
 4978TIP3    H136425   5.348   3.160  14.941 -1.2060  2.1400  0.2421
 4978TIP3    H236426   5.470   3.207  15.016  0.0997  0.4230 -0.7652
 4979TIP3   OH236427   2.887   0.904  14.345  1.0624  0.4681 -0.3133
 4979TIP3    H136428   2.889   0.871  14.434  1.8376 -0.1613 -0.5526
 4979TIP3    H236429   2.876   0.827  14.290 -0.3775  0.9481 -0.7249
 4980TIP3   OH236430   0.456   3.364  14.384  0.5611  0.3564 -0.4177
 4980TIP3    H136431   0.386   3.364  14.319  0.4451 -0.3218 -0.2946
 4980TIP3    H236432   0.531   3.403  14.339  1.3943 -2.8795 -1.9640
 4981TIP3   OH236433   2.221   4.823   5.527  0.2643 -0.3475  0.0269
 4981TIP3    H136434   2.281   4.877   5.475 -0.3790  0.5779  0.2353
 4981TIP3    H236435   2.150   4.801   5.467  0.1683 -0.3604  0.1447
 4982TIP3   OH236436   0.975   5.911  16.316 -0.0559 -0.4353  0.0937
 4982TIP3    H136437   0.901   5.863  16.352 -0.1837  0.0961  0.5597
 4982TIP3    H236438   0.990   5.982  16.379 -0.2362  0.4625 -0.8620
 4983TIP3   OH236439   5.307   6.410  13.889 -0.3554  0.3600  0.0883
 4983TIP3    H136440   5.272   6.367  13.811  0.4018 -0.0766 -0.0177
 4983TIP3    H236441   5.402   6.395  13.885 -0.4364 -0.7826  1.7516
 4984TIP3   OH236442   0.551   4.195   0.187  0.2643 -0.0959 -0.1756
 4984TIP3    H136443   0.483   4.160   0.245  0.7119 -1.5514 -0.4964
 4984TIP3    H236444   0.616   4.124   0.182  0.0488 -0.1485 -2.7361
 4985TIP3   OH236445   0.959   1.948   4.299 -0.0246 -0.2374  0.4015
 4985TIP3    H136446   0.951   1.912   4.387  0.8710 -0.9801  0.1931
 4985TIP3    H236447   1.054   1.956   4.285 -0.1784  0.8132 -0.1155
 4986TIP3   OH236448   3.428   3.868   4.861 -0.1711 -0.6231 -0.1605
 4986TIP3    H136449   3.374   3.946   4.850 -1.7289 -1.7521 -0.6944
 4986TIP3    H236450   3.489   3.871   4.787  0.3345  0.5046  0.2863
 4987TIP3   OH236451   4.586   3.977   2.815  0.0442 -0.0544 -0.2980
 4987TIP3    H136452   4.504   3.946   2.777  0.3716 -1.7513  0.3529
 4987TIP3    H236453   4.626   3.899   2.853  1.0120  1.1099  1.1511
 4988TIP3   OH236454   4.274   1.316   5.885  0.6945  0.3496  0.8524
 4988TIP3    H136455   4.210   1.371   5.840  2.5912  2.4576  0.6286
 4988TIP3    H236456   4.258   1.331   5.978 -0.2755 -0.4998  0.8270
 4989TIP3   OH236457   6.725   1.647   1.232  0.2939  0.4347 -0.6481
 4989TIP3    H136458   6.802   1.590   1.234  1.4308  1.9628 -0.2356
 4989TIP3    H236459   6.688   1.632   1.145  2.0409  0.9567 -1.5021
 4990TIP3   OH236460   2.707   0.130   2.881  0.2844 -0.1108  0.0460
 4990TIP3    H136461   2.734   0.057   2.825  0.3829 -0.8191  1.0003
 4990TIP3    H236462   2.644   0.179   2.828  0.8882 -0.3863 -0.9306
 4991TIP3   OH236463   4.586   1.858   1.571 -0.5364  0.2430  0.6382
 4991TIP3    H136464   4.654   1.884   1.633 -1.2188 -1.0487  1.9921
 4991TIP3    H236465   4.538   1.939   1.551  1.7050  1.2599 -0.7653
 4992TIP3   OH236466   6.443   4.764  14.506 -0.4155 -0.3007 -0.1028
 4992TIP3    H136467   6.426   4.739  14.415  1.7335  0.3648 -0.7194
 4992TIP3    H236468   6.516   4.708  14.533 -0.1384  0.4559  0.7503
 4993TIP3   OH236469   0.176   1.060  11.555 -0.0197  0.3634 -0.4261
 4993TIP3    H136470   0.148   1.007  11.631  0.7372  1.6975  0.8107
 4993TIP3    H236471   0.170   1.000  11.481 -2.9223 -0.3662  0.2986
 4994TIP3   OH236472   2.248   0.673  12.304 -0.1529 -0.2127  0.3073
 4994TIP3    H136473   2.237   0.674  12.399  0.2051 -1.7155  0.3705
 4994TIP3    H236474   2.173   0.624  12.271  0.5234 -0.9922 -0.0792
 4995TIP3   OH236475   2.305   2.870   3.175  0.0608 -0.3688 -0.1785
 4995TIP3    H136476   2.330   2.956   3.206  1.6053 -0.6707 -0.5591
 4995TIP3    H236477   2.311   2.813   3.252  0.7179 -0.4790 -0.3134
 4996TIP3   OH236478   0.268   2.114  16.429 -0.0295  0.0007  0.0405
 4996TIP3    H136479   0.221   2.130  16.512  1.2336 -0.6942  0.9056
 4996TIP3    H236480   0.229   2.176  16.368 -1.3382  0.1840  1.0287
 4997TIP3   OH236481   3.975   3.955  14.859 -0.3076  0.1585 -0.0160
 4997TIP3    H136482   3.922   3.885  14.898  0.0763 -0.5101 -0.6896
 4997TIP3    H236483   3.960   3.948  14.765  1.3352 -0.3358 -0.2585
 4998TIP3   OH236484   4.628   1.056   5.300  0.1625 -0.2166 -0.0107
 4998TIP3    H136485   4.538   1.084   5.283  0.1228  0.3398  1.0770
 4998TIP3    H236486   4.663   1.034   5.213 -0.3112  1.7239 -0.7194
 4999TIP3   OH236487   4.842   0.113  11.492  0.4609  0.2089 -0.6239
 4999TIP3    H136488   4.931   0.128  11.523  0.4844  0.6450 -0.8907
 4999TIP3    H236489   4.808   0.045  11.549 -0.1391  2.2754  1.5685
 5000TIP3   OH236490   4.074   6.300  16.244 -0.0860  0.0158  0.2022
 5000TIP3    H136491   4.124   6.295  16.162 -0.0596  1.3517  0.1166
 5000TIP3    H236492   4.031   6.385  16.239  0.0552  0.1727  1.6537
 5001TIP3   OH236493   1.682   1.098   2.791  0.0147 -0.2457 -0.4857
 5001TIP3    H136494   1.681   1.114   2.697 -1.3055 -1.0343 -0.6201
 5001TIP3    H236495   1.639   1.013   2.802 -2.6092  1.1799  1.0423
 5002TIP3   OH236496   2.767   2.535   6.276  0.1438  0.3370 -0.4038
 5002TIP3    H136497   2.685   2.582   6.288 -0.2390 -0.5004  0.2932
 5002TIP3    H236498   2.745   2.461   6.221  0.2479 -0.3662  0.4830
 5003TIP3   OH236499   4.737   3.990   1.099 -0.1803 -0.8461  0.0374
 5003TIP3    H136500   4.737   4.055   1.029  0.5026  0.3015  1.0719
 5003TIP3    H236501   4.676   4.025   1.164 -0.8422 -1.9215  0.0149
 5004TIP3   OH236502   0.472   2.900   5.036  0.8980 -0.6098  0.1376
 5004TIP3    H136503   0.428   2.816   5.051  0.5850 -0.5954 -0.6684
 5004TIP3    H236504   0.468   2.945   5.120  0.5089 -1.1471  0.4078
 5005TIP3   OH236505   3.511   4.818   0.379 -0.0992  0.6501  0.1477
 5005TIP3    H136506   3.561   4.744   0.413  1.5315  0.6177 -2.2477
 5005TIP3    H236507   3.573   4.891   0.378 -0.4730  0.9676 -1.4881
 5006TIP3   OH236508   0.884   0.073   1.345 -0.1385  0.0455  0.0628
 5006TIP3    H136509   0.930   0.010   1.289 -0.5127  1.2411 -1.6389
 5006TIP3    H236510   0.891   0.036   1.433  1.0199 -1.5661 -0.6679
 5007TIP3   OH236511   2.638   5.257  13.041  0.2032 -0.4494  0.5622
 5007TIP3    H136512   2.703   5.288  13.103  0.5565  2.5748 -1.2416
 5007TIP3    H236513   2.688   5.204  12.979  0.4925 -0.3386  0.7000
 5008TIP3   OH236514   1.403   0.679   3.030  0.0220  0.9376  0.3195
 5008TIP3    H136515   1.377   0.683   3.122  0.8124  2.5940  0.4858
 5008TIP3    H236516   1.469   0.748   3.020  0.0076  0.7247 -1.4683
 5009TIP3   OH236517   1.200   5.207   3.675 -0.1808 -0.1229 -0.2062
 5009TIP3    H136518   1.242   5.146   3.736 -0.6186 -0.1980  0.0241
 5009TIP3    H236519   1.205   5.164   3.590 -1.7127 -1.1179  0.1780
 5010TIP3   OH236520   0.606   2.178   4.337  0.0499  0.3623 -0.3832
 5010TIP3    H136521   0.531   2.136   4.379 -0.0661 -0.7306 -1.6646
 5010TIP3    H236522   0.577   2.268   4.322  0.6775  1.2203  3.3129
 5011TIP3   OH236523   5.586   5.492   2.192 -0.2194 -0.6257 -0.0174
 5011TIP3    H136524   5.634   5.572   2.170 -1.8688 -0.2438 -2.4501
 5011TIP3    H236525   5.494   5.518   2.185 -0.7832 -2.0666  1.7937
 5012TIP3   OH236526   3.712   6.020   4.294  0.4493 -0.0193 -0.1982
 5012TIP3    H136527   3.752   5.933   4.292  1.8266  0.5986  0.2850
 5012TIP3    H236528   3.682   6.035   4.204 -0.7010 -1.3895 -0.0741
 5013TIP3   OH236529   5.099   4.559  11.938  0.0183  0.8269  0.1818
 5013TIP3    H136530   5.110   4.512  11.855  1.3602 -1.6801  1.7265
 5013TIP3    H236531   5.179   4.611  11.946  0.6920 -0.2657  0.7032
 5014TIP3   OH236532   1.214   0.055  15.737 -0.5390 -0.4247  0.0844
 5014TIP3    H136533   1.247   0.039  15.648 -1.7873 -1.5815 -0.1964
 5014TIP3    H236534   1.281   0.017  15.794  0.9654  1.5888 -0.2904
 5015TIP3   OH236535   2.796   0.017  13.922 -0.0074 -0.6059  0.4598
 5015TIP3    H136536   2.756  -0.010  13.840 -0.6281  1.5238  0.0119
 5015TIP3    H236537   2.888  -0.005  13.913 -0.1609 -0.8174 -0.6336
 5016TIP3   OH236538   5.531   3.140   6.120 -0.0639 -0.0696 -0.3800
 5016TIP3    H136539   5.511   3.231   6.096 -2.1407 -0.9400 -2.0877
 5016TIP3    H236540   5.467   3.118   6.187  1.0472  0.0086  0.7214
 5017TIP3   OH236541   4.506   6.558  12.960 -0.3395  0.6641 -0.1966
 5017TIP3    H136542   4.522   6.494  12.891  0.7457  0.7438 -0.0192
 5017TIP3    H236543   4.419   6.536  12.994  0.5795 -1.5770  0.8049
 5018TIP3   OH236544   4.080   5.411  16.094 -0.0672 -0.1718 -0.7319
 5018TIP3    H136545   4.101   5.504  16.097 -0.2898 -0.0892 -1.4848
 5018TIP3    H236546   3.999   5.403  16.144 -0.3573  0.1291 -1.1506
 5019TIP3   OH236547   0.152   2.898  11.363  0.9298 -0.1207  0.0273
 5019TIP3    H136548   0.184   2.816  11.402 -0.9482 -0.6102  0.5788
 5019TIP3    H236549   0.201   2.967  11.408 -0.6493 -0.7078  2.7277
 5020TIP3   OH236550   4.418   1.389   4.780  0.0631 -0.1474 -0.5268
 5020TIP3    H136551   4.409   1.451   4.852 -0.6840 -0.4034 -0.3968
 5020TIP3    H236552   4.363   1.315   4.804  2.2856 -1.6381  0.1262
 5021TIP3   OH236553   5.931   3.469   4.859 -0.4853 -0.0573  0.7766
 5021TIP3    H136554   5.924   3.403   4.791  0.3499  0.6147  0.0346
 5021TIP3    H236555   5.909   3.551   4.815  0.6046  0.4540  1.1805
 5022TIP3   OH236556   0.198   1.398  13.695 -0.1783 -0.0902 -1.0103
 5022TIP3    H136557   0.129   1.332  13.704 -0.1445  0.0286  0.2091
 5022TIP3    H236558   0.156   1.471  13.652 -0.8791  0.0481 -0.1121
 5023TIP3   OH236559   2.820   3.774  13.959  0.7908 -0.7133 -0.2230
 5023TIP3    H136560   2.756   3.725  13.906 -0.9332  3.0813 -1.8541
 5023TIP3    H236561   2.876   3.817  13.895 -1.1565  3.7594  0.8903
 5024TIP3   OH236562   3.140   4.354  13.728 -0.5153  0.2437  0.7716
 5024TIP3    H136563   3.100   4.432  13.766 -2.3902  1.2673 -3.0409
 5024TIP3    H236564   3.072   4.287  13.734  0.0194 -0.2537  1.3160
 5025TIP3   OH236565   1.161   6.261  14.068  0.4058 -0.5848 -0.5973
 5025TIP3    H136566   1.069   6.270  14.041  0.5126 -0.5133 -0.9428
 5025TIP3    H236567   1.166   6.175  14.108  0.3433 -0.8870 -1.2230
 5026TIP3   OH236568   6.503   3.733  17.106 -0.4718  0.3357  0.1539
 5026TIP3    H136569   6.433   3.746  17.170 -0.4865 -0.1475  0.2402
 5026TIP3    H236570   6.461   3.684  17.034 -0.0467 -0.5912  0.5318
 5027TIP3   OH236571   2.036   2.317   5.170  0.0493 -0.2848 -0.4111
 5027TIP3    H136572   1.980   2.245   5.144 -2.7221  1.9132 -0.7260
 5027TIP3    H236573   2.104   2.321   5.102  2.1808 -4.4989  1.2649
 5028TIP3   OH236574   1.131   0.089  12.604  0.1971 -0.1420  0.0965
 5028TIP3    H136575   1.099   0.106  12.692  0.2829  1.6887 -0.2073
 5028TIP3    H236576   1.200   0.153  12.590 -1.0866  0.8528 -1.9863
 5029TIP3   OH236577   4.709   6.454  11.943 -0.2465  0.2337 -0.2375
 5029TIP3    H136578   4.767   6.405  11.884 -0.1493  2.2661 -1.9109
 5029TIP3    H236579   4.641   6.489  11.886 -1.7846 -0.1404  1.3471
 5030TIP3   OH236580   5.236   5.438   4.433  0.5024  0.2451 -0.0523
 5030TIP3    H136581   5.263   5.445   4.524 -0.9238 -0.9248  0.4798
 5030TIP3    H236582   5.224   5.529   4.404 -1.8343  0.5711  1.7908
 5031TIP3   OH236583   6.453   0.363   4.766  0.5649  0.1977  0.3436
 5031TIP3    H136584   6.422   0.414   4.841 -2.2720 -0.8284 -0.1028
 5031TIP3    H236585   6.377   0.353   4.710  2.5196  0.4858 -2.4595
 5032TIP3   OH236586   1.329   1.166   5.885 -0.1840 -0.0533  0.1204
 5032TIP3    H136587   1.316   1.251   5.844  0.3472 -0.0452 -0.0390
 5032TIP3    H236588   1.415   1.137   5.853 -0.8298 -1.1291 -0.6556
 5033TIP3   OH236589   1.031   0.193  11.682  0.4026 -0.5343  0.2106
 5033TIP3    H136590   1.044   0.110  11.636 -0.2049 -0.7251  0.3693
 5033TIP3    H236591   1.026   0.168  11.774 -3.2523 -0.7947  0.0334
 5034TIP3   OH236592   5.873   3.715   4.735 -0.3342 -0.2266 -0.0562
 5034TIP3    H136593   5.823   3.785   4.778  0.6144 -0.9867  2.3679
 5034TIP3    H236594   5.912   3.758   4.658 -1.0890  1.4923  0.4860
 5035TIP3   OH236595   1.839   1.775   2.871 -0.4872 -0.3157  0.6463
 5035TIP3    H136596   1.827   1.852   2.927 -0.6421 -0.5993  1.0050
 5035TIP3    H236597   1.867   1.811   2.787 -2.9457  0.3015  0.0527
 5036TIP3   OH236598   2.047   1.400  13.763 -0.1561  0.0579 -0.3918
 5036TIP3    H136599   1.966   1.434  13.727 -2.2096 -0.3635  3.6080
 5036TIP3    H236600   2.077   1.466  13.825  0.7479 -1.2884  0.6482
 5037TIP3   OH236601   4.376   5.219   3.405 -0.5995 -0.6970  0.5150
 5037TIP3    H136602   4.304   5.221   3.468 -4.0650 -1.0378 -3.2867
 5037TIP3    H236603   4.365   5.298   3.353  1.3068 -1.1575 -0.6355
 5038TIP3   OH236604   5.035   2.588   6.303 -0.1049  0.1047  0.6522
 5038TIP3    H136605   4.975   2.658   6.328  0.9835  1.0967  0.5344
 5038TIP3    H236606   4.992   2.507   6.332 -1.6113  0.7746  0.3280
 5039TIP3   OH236607   1.942   4.258  15.166  0.1946  0.1816  0.2847
 5039TIP3    H136608   1.928   4.328  15.230  0.3897  0.3838  0.1081
 5039TIP3    H236609   1.949   4.304  15.082 -2.9208 -0.2986 -0.2937
 5040TIP3   OH236610   2.368   1.540   3.822  0.4131 -0.2132 -0.2620
 5040TIP3    H136611   2.315   1.572   3.896  1.9405  1.4728  0.1381
 5040TIP3    H236612   2.377   1.446   3.838 -0.7941 -0.1835  0.7165
 5041TIP3   OH236613   1.988   4.924   4.307  0.6680  0.4164 -0.8443
 5041TIP3    H136614   1.939   4.875   4.374 -0.8576  0.2389 -2.0690
 5041TIP3    H236615   1.959   4.887   4.224  0.5222  2.4858 -1.7267
 5042TIP3   OH236616   5.469   2.905   3.545  0.2842 -0.3132 -0.2275
 5042TIP3    H136617   5.384   2.932   3.579  0.2987 -1.0939  0.4186
 5042TIP3    H236618   5.449   2.859   3.464 -0.1418 -3.1860  1.4771
 5043TIP3   OH236619   2.040   3.701  15.706 -0.1877  0.4758 -0.0362
 5043TIP3    H136620   1.972   3.679  15.770  0.3945  0.1251  0.4627
 5043TIP3    H236621   2.045   3.625  15.649  0.2772  0.2139  0.3531
 5044TIP3   OH236622   0.470   4.597  14.630 -0.4168  0.0451  0.4146
 5044TIP3    H136623   0.426   4.661  14.685  1.3861  0.6130  1.2335
 5044TIP3    H236624   0.458   4.514  14.676 -1.2683  0.0717  0.2440
 5045TIP3   OH236625   0.058   1.451  11.816 -0.3161  0.2022 -0.4745
 5045TIP3    H136626   0.086   1.541  11.800  0.6910  0.3684  2.0303
 5045TIP3    H236627   0.138   1.405  11.839 -1.4234 -0.3107  2.5569
 5046TIP3   OH236628   5.806   3.042  15.060  0.0813 -0.1847 -0.2288
 5046TIP3    H136629   5.712   3.032  15.076 -0.4236  1.2734 -2.1179
 5046TIP3    H236630   5.821   2.998  14.977  1.1289 -0.5737  0.1632
 5047TIP3   OH236631   2.938   1.367  15.616 -0.2864  0.1072 -0.8534
 5047TIP3    H136632   2.882   1.412  15.552 -0.7050 -1.7895 -1.8462
 5047TIP3    H236633   2.918   1.274  15.605  1.6677 -0.4606  0.1034
 5048TIP3   OH236634   4.253   1.282  17.161 -0.2130 -0.0554  0.5397
 5048TIP3    H136635   4.182   1.219  17.171  0.3051 -0.7520 -0.0939
 5048TIP3    H236636   4.247   1.312  17.071 -0.0975  0.3615  0.6669
 5049TIP3   OH236637   3.889   1.147   2.303 -0.3821  0.8880 -0.1476
 5049TIP3    H136638   3.947   1.112   2.236 -0.8306  2.4027 -1.3574
 5049TIP3    H236639   3.802   1.148   2.262 -1.5184 -2.2717  1.9624
 5050TIP3   OH236640   6.711   0.580   2.622  0.0761  0.7378  0.1103
 5050TIP3    H136641   6.648   0.630   2.570  1.1234  2.3072  0.3077
 5050TIP3    H236642   6.745   0.514   2.562 -1.7097 -0.0969 -0.0142
 5051TIP3   OH236643   2.200   4.372  13.961  0.1940  0.0085  0.0998
 5051TIP3    H136644   2.230   4.376  13.870  1.4663 -1.9021  0.4115
 5051TIP3    H236645   2.156   4.287  13.968 -1.1826  0.7657  0.9014
 5052TIP3   OH236646   1.325   3.538   1.718 -0.5164  0.1755  0.6056
 5052TIP3    H136647   1.239   3.565   1.749 -0.8610  0.5945 -0.6727
 5052TIP3    H236648   1.350   3.605   1.654  0.8354  0.1533  1.0784
 5053TIP3   OH236649   3.147   1.880   5.367 -0.1229 -0.3127  0.1485
 5053TIP3    H136650   3.208   1.818   5.405  0.4826  0.0690 -0.1970
 5053TIP3    H236651   3.165   1.963   5.411 -1.1345 -0.4353  0.8279
 5054TIP3   OH236652   0.196   1.774   6.401 -0.5365  0.1196  0.5397
 5054TIP3    H136653   0.128   1.737   6.457 -2.0511  2.4713  0.3183
 5054TIP3    H236654   0.256   1.817   6.461 -1.2154  1.1300  0.5148
 5055TIP3   OH236655   1.539   6.599   4.168  0.9116 -0.1740 -0.0303
 5055TIP3    H136656   1.512   6.626   4.256  2.4442 -0.5771  0.5749
 5055TIP3    H236657   1.615   6.543   4.183  2.4965  1.4727 -1.7437
 5056TIP3   OH236658   4.752   6.485   2.213 -0.6735 -0.3897 -0.0935
 5056TIP3    H136659   4.778   6.488   2.121 -0.7207 -3.3734 -0.2384
 5056TIP3    H236660   4.833   6.470   2.261 -0.2428  3.6623  0.6616
 5057TIP3   OH236661   6.769   0.187   2.927  0.5983  0.7739 -0.1453
 5057TIP3    H136662   6.848   0.240   2.915  1.9918 -1.1943 -0.0250
 5057TIP3    H236663   6.761   0.137   2.845  0.0911  0.1666  0.2695
 5058TIP3   OH236664   4.998   3.568   1.304  0.1769  0.0266 -0.6145
 5058TIP3    H136665   4.952   3.494   1.266 -2.4680 -0.0690  2.5481
 5058TIP3    H236666   5.078   3.531   1.342 -0.6935 -1.0691  0.1702
 5059TIP3   OH236667   5.679   1.286   2.205  0.1043  0.5852 -0.1636
 5059TIP3    H136668   5.592   1.325   2.208 -0.0512  0.2545 -0.3321
 5059TIP3    H236669   5.717   1.306   2.290 -1.0210 -1.2666  0.8144
 5060TIP3   OH236670   2.306   6.777  14.121 -0.2922 -0.0490  0.6455
 5060TIP3    H136671   2.382   6.823  14.155 -0.5365  0.0422  1.0724
 5060TIP3    H236672   2.331   6.752  14.032 -0.3568  1.3803  0.2093
 5061TIP3   OH236673   4.628   1.090  13.905 -0.6502 -0.3013 -0.0350
 5061TIP3    H136674   4.556   1.061  13.961 -0.0716  1.0695  1.4451
 5061TIP3    H236675   4.688   1.135  13.964 -0.1340  1.3877 -1.7940
 5062TIP3   OH236676   0.152   6.009   0.248 -0.2906  0.2619 -0.0495
 5062TIP3    H136677   0.191   5.927   0.279 -2.1157 -1.8991 -3.1390
 5062TIP3    H236678   0.218   6.075   0.264  1.4602 -1.9187  2.0524
 5063TIP3   OH236679   2.530   6.590  17.259 -0.2986  0.5509 -0.3376
 5063TIP3    H136680   2.599   6.656  17.263  1.3211 -1.0022 -1.8485
 5063TIP3    H236681   2.489   6.593  17.346  2.2577  0.8748  0.8915
 5064TIP3   OH236682   0.974   2.245   5.104  0.3820 -0.4588  0.2731
 5064TIP3    H136683   0.991   2.151   5.108  0.7396 -0.4692 -1.2053
 5064TIP3    H236684   1.061   2.285   5.101  0.2328 -0.1850 -0.7999
 5065TIP3   OH236685   3.314   3.328   2.140 -0.5965  0.1219  0.5591
 5065TIP3    H136686   3.364   3.379   2.077  2.0103  0.5917  2.8907
 5065TIP3    H236687   3.312   3.240   2.104  1.0649  0.3373 -0.0995
 5066TIP3   OH236688   0.121   0.861   5.315 -0.9408  0.2143  0.8117
 5066TIP3    H136689   0.057   0.797   5.284  0.6510 -0.4035 -1.2873
 5066TIP3    H236690   0.206   0.824   5.291  0.0959  2.3312  1.0775
 5067TIP3   OH236691   6.120   1.613  14.038 -0.1515 -0.2833 -0.0403
 5067TIP3    H136692   6.042   1.623  14.092  0.5196 -1.4593  1.1600
 5067TIP3    H236693   6.183   1.675  14.076 -0.2804  0.2121 -0.6217
 5068TIP3   OH236694   6.016   0.488  16.394 -0.8280 -0.1141 -0.0679
 5068TIP3    H136695   6.090   0.523  16.345 -1.4552 -1.1832 -1.8213
 5068TIP3    H236696   6.051   0.411  16.439  0.1629  1.7931  2.5576
 5069TIP3   OH236697   1.307   0.581  15.298  0.0310  0.0153 -0.0264
 5069TIP3    H136698   1.308   0.491  15.333  0.0466 -0.3612 -0.9702
 5069TIP3    H236699   1.370   0.628  15.351  1.2600 -0.9542 -0.5983
 5070TIP3   OH236700   6.069   5.505  11.694 -0.3383 -0.4559 -0.1392
 5070TIP3    H136701   6.122   5.529  11.771 -0.0872  1.0762 -0.7658
 5070TIP3    H236702   6.127   5.519  11.620 -0.8608 -1.0916 -0.6646
 5071TIP3   OH236703   4.191   2.687   2.099 -0.1451 -0.3239 -0.9906
 5071TIP3    H136704   4.268   2.648   2.056  0.8581  0.3309  0.1759
 5071TIP3    H236705   4.159   2.751   2.036 -0.2918 -1.2520 -1.8755
 5072TIP3   OH236706   4.695   1.373   1.870  0.4657  0.0715 -0.6842
 5072TIP3    H136707   4.656   1.300   1.823 -0.5043  1.6312 -2.3582
 5072TIP3    H236708   4.688   1.349   1.963 -0.8887 -1.4185 -1.1592
 5073TIP3   OH236709   6.756   2.407  17.149 -0.3435  0.1297 -0.0528
 5073TIP3    H136710   6.690   2.384  17.084  0.2859 -0.5957 -0.4522
 5073TIP3    H236711   6.718   2.380  17.232 -0.5591 -0.2597 -0.2755
 5074TIP3   OH236712   0.593   2.424   5.456 -0.0380  0.1390 -0.1260
 5074TIP3    H136713   0.585   2.329   5.449 -0.0634  0.2397 -1.6170
 5074TIP3    H236714   0.675   2.438   5.502 -0.2216 -0.6033  0.4427
 5075TIP3   OH236715   3.842   4.108   2.952  0.0626 -0.0671  0.0729
 5075TIP3    H136716   3.761   4.073   2.917  0.4891 -1.8667  0.8263
 5075TIP3    H236717   3.891   4.031   2.980  0.8356  1.1533  2.1899
 5076TIP3   OH236718   1.229   2.512  11.507 -0.3182  0.0026 -0.3515
 5076TIP3    H136719   1.215   2.432  11.456  0.2332 -1.3614  1.5833
 5076TIP3    H236720   1.148   2.523  11.556 -0.7894  1.2311 -1.3797
 5077TIP3   OH236721   3.022   6.031   5.532 -0.2997 -0.3141 -0.2581
 5077TIP3    H136722   2.992   5.940   5.532 -0.8886 -0.1273  0.7220
 5077TIP3    H236723   3.117   6.024   5.547  0.1633 -0.8927 -3.2437
 5078TIP3   OH236724   0.471   6.220  11.481 -0.5233  0.3265 -0.8208
 5078TIP3    H136725   0.542   6.195  11.539 -0.5968  0.9285 -0.4680
 5078TIP3    H236726   0.458   6.144  11.424  0.3219  0.1720 -0.8099
 5079TIP3   OH236727   0.969   3.364  10.970 -0.1994  0.5954  0.3833
 5079TIP3    H136728   0.950   3.289  10.914  1.8929  0.2507  0.0869
 5079TIP3    H236729   0.956   3.440  10.913 -0.0784  0.3402  0.0103
 5080TIP3   OH236730   1.749   1.153  15.509  0.4800 -0.2144  0.0190
 5080TIP3    H136731   1.759   1.162  15.414  1.0393  2.4134  0.3017
 5080TIP3    H236732   1.758   1.241  15.543  1.9113 -1.3348  2.6929
 5081TIP3   OH236733   5.663   5.317   5.550  0.7011 -0.1230 -0.2572
 5081TIP3    H136734   5.726   5.375   5.594 -0.9379  0.8399  0.8609
 5081TIP3    H236735   5.579   5.339   5.590 -0.4354 -1.0097 -2.1416
 5082TIP3   OH236736   2.622   5.751   1.105 -0.0517 -0.1609  0.0085
 5082TIP3    H136737   2.712   5.781   1.093  0.7657 -2.1090  0.9400
 5082TIP3    H236738   2.569   5.813   1.056  1.7296  1.5004  0.1201
 5083TIP3   OH236739   1.245   6.723   2.978 -0.8698 -0.5522  0.6394
 5083TIP3    H136740   1.246   6.814   3.009  0.4603 -0.1963 -0.4004
 5083TIP3    H236741   1.269   6.671   3.054  0.2022  0.1211  0.7679
 5084TIP3   OH236742   4.968   3.119  15.822  0.0084 -0.4025  0.2786
 5084TIP3    H136743   4.997   3.152  15.737  1.1033 -2.1328 -0.0574
 5084TIP3    H236744   4.902   3.182  15.851  0.7797  1.0954 -1.1014
 5085TIP3   OH236745   4.539   4.426  17.104  0.8609 -0.0841 -0.6081
 5085TIP3    H136746   4.588   4.345  17.093 -0.2682 -0.9395  0.4715
 5085TIP3    H236747   4.455   4.410  17.060  0.1545  0.0418  0.6636
 5086TIP3   OH236748   5.222   0.446   4.682  0.0356  0.0795  0.0412
 5086TIP3    H136749   5.126   0.443   4.674  0.0123 -1.3899  0.6607
 5086TIP3    H236750   5.252   0.487   4.601 -1.0866 -0.0492 -0.4470
 5087TIP3   OH236751   1.650   6.741  16.740  0.6939 -0.3580  0.6271
 5087TIP3    H136752   1.572   6.715  16.788 -0.2088 -0.1603 -0.6878
 5087TIP3    H236753   1.720   6.744  16.805 -0.5442  0.0974  1.9375
 5088TIP3   OH236754   3.593   0.508   5.178  0.2221  0.3128 -0.4499
 5088TIP3    H136755   3.564   0.494   5.087 -0.1991  0.4556 -0.3391
 5088TIP3    H236756   3.512   0.520   5.227  0.5299  2.6974 -0.4594
 5089TIP3   OH236757   1.670   0.463   0.415  0.5617 -0.6644 -0.2033
 5089TIP3    H136758   1.741   0.452   0.352 -0.0630 -0.9507 -0.8676
 5089TIP3    H236759   1.597   0.413   0.377 -0.7694  1.6616 -0.7634
 5090TIP3   OH236760   3.962   4.813   4.025 -0.2364 -0.5019 -0.4349
 5090TIP3    H136761   3.886   4.862   3.994 -0.4514 -0.6715 -0.1856
 5090TIP3    H236762   4.018   4.804   3.948  0.3222  1.0813 -0.2318
 5091TIP3   OH236763   0.737   6.319   4.257  0.2454  0.0775 -0.3989
 5091TIP3    H136764   0.728   6.408   4.292  1.3577  0.5242 -1.1991
 5091TIP3    H236765   0.732   6.262   4.334  0.6087  0.9030  0.2487
 5092TIP3   OH236766   2.831   4.395   1.096 -0.1305  0.4854 -0.4123
 5092TIP3    H136767   2.846   4.474   1.148  0.5159 -0.5261  1.0077
 5092TIP3    H236768   2.737   4.394   1.080  0.0074  2.0951 -1.3728
 5093TIP3   OH236769   1.074   3.962   5.286 -0.7380  0.3116  0.1880
 5093TIP3    H136770   1.064   4.014   5.207 -0.6925 -0.5914 -0.4152
 5093TIP3    H236771   1.157   3.915   5.275 -0.6728  0.2749  0.8144
 5094TIP3   OH236772   6.784   5.259   5.122  0.2197  0.2888 -0.0753
 5094TIP3    H136773   6.835   5.188   5.083 -3.0699 -1.0245 -2.2178
 5094TIP3    H236774   6.818   5.338   5.081  0.6381 -0.5413 -1.3600
 5095TIP3   OH236775   1.195   4.761   1.619  0.7573 -0.2209 -0.0685
 5095TIP3    H136776   1.177   4.672   1.589  0.0320  0.4706 -1.7611
 5095TIP3    H236777   1.231   4.805   1.542 -0.7796  1.4855  0.1539
 5096TIP3   OH236778   5.447   4.228   1.120 -0.2402  0.4940 -0.0822
 5096TIP3    H136779   5.522   4.206   1.064  0.3052  2.1164 -0.0029
 5096TIP3    H236780   5.481   4.293   1.181 -1.6933  1.1458  0.0338
 5097TIP3   OH236781   5.055   3.251  10.940  0.0267 -0.1435 -0.4487
 5097TIP3    H136782   5.133   3.287  10.900  0.4496 -2.2041 -1.5583
 5097TIP3    H236783   5.083   3.225  11.028 -0.0771  1.4321  0.0622
 5098TIP3   OH236784   0.565   3.277   6.190 -0.3786  0.4504  0.0199
 5098TIP3    H136785   0.585   3.184   6.202 -0.4152  0.4290 -0.0867
 5098TIP3    H236786   0.573   3.314   6.278  1.6266  0.7270 -0.2516
 5099TIP3   OH236787   3.976   4.645  16.532 -0.1516  0.0597  0.1110
 5099TIP3    H136788   3.940   4.717  16.584 -0.9413  1.6100 -2.4913
 5099TIP3    H236789   4.068   4.670  16.517  0.4110 -0.9713  1.7152
 5100TIP3   OH236790   1.673   3.139   3.149 -0.2786 -0.0223  0.4664
 5100TIP3    H136791   1.741   3.151   3.215 -0.6334  1.8429  0.5265
 5100TIP3    H236792   1.690   3.209   3.085 -1.7728  0.0797  0.1705
 5101TIP3   OH236793   1.580   3.494   2.150  0.1770  0.2486 -0.1069
 5101TIP3    H136794   1.562   3.483   2.057 -2.9269 -2.4115  0.7410
 5101TIP3    H236795   1.546   3.581   2.172  3.3034  2.0450 -1.8945
 5102TIP3   OH236796   5.652   0.631   0.878  0.4420 -0.2265  0.4222
 5102TIP3    H136797   5.586   0.564   0.893 -0.5763  0.6020 -0.3379
 5102TIP3    H236798   5.603   0.713   0.870  1.4149  0.1816 -1.6254
 5103TIP3   OH236799   6.578   4.765   0.293 -0.3602  0.2611  0.3103
 5103TIP3    H136800   6.667   4.763   0.326 -0.4071 -1.3140  0.3671
 5103TIP3    H236801   6.557   4.858   0.285  1.4713  0.6318 -0.2452
 5104TIP3   OH236802   4.522   3.380  16.162  0.5565 -0.1516 -0.2000
 5104TIP3    H136803   4.526   3.312  16.095  2.9546  1.0775 -1.3551
 5104TIP3    H236804   4.609   3.380  16.201 -0.0354  0.9138  1.1611
 5105TIP3   OH236805   4.358   3.284  13.613 -0.2151 -0.3537 -0.3507
 5105TIP3    H136806   4.328   3.365  13.572  0.6956  0.5611  0.7651
 5105TIP3    H236807   4.334   3.293  13.705  2.2496 -0.1636  0.3095
 5106TIP3   OH236808   2.905   6.470   3.031 -0.6678 -0.2371  0.1303
 5106TIP3    H136809   2.942   6.534   2.970 -1.9312  0.2730 -0.1016
 5106TIP3    H236810   2.902   6.388   2.982 -0.2711 -0.1761  0.0015
 5107TIP3   OH236811   4.379   4.297  15.721  0.0805 -0.1208 -0.1835
 5107TIP3    H136812   4.347   4.332  15.638  0.1278  0.6326  0.1088
 5107TIP3    H236813   4.392   4.375  15.776  1.5889 -0.4865 -0.0130
 5108TIP3   OH236814   3.935   0.004  12.946 -0.6938  0.0612 -0.3234
 5108TIP3    H136815   3.931  -0.067  12.881 -0.3217 -0.2905  0.0396
 5108TIP3    H236816   3.958   0.082  12.895 -2.7289  0.2574 -0.9878
 5109TIP3   OH236817   5.701   1.184   0.892  0.2644  0.2501  0.0381
 5109TIP3    H136818   5.678   1.242   0.964 -1.1553 -0.5981  0.2907
 5109TIP3    H236819   5.739   1.106   0.934  0.1633  0.0877 -0.1682
 5110TIP3   OH236820   4.152   6.593   2.552  0.5504  0.1470  0.1171
 5110TIP3    H136821   4.150   6.603   2.457 -0.5283  0.5991  0.1830
 5110TIP3    H236822   4.108   6.671   2.586  0.0009 -0.4995  0.9400
 5111TIP3   OH236823   3.466   1.192   4.765  0.6992  0.5432 -0.0534
 5111TIP3    H136824   3.534   1.125   4.774  0.6558  0.3942 -0.7700
 5111TIP3    H236825   3.387   1.143   4.742  0.6948  0.8480 -0.7051
 5112TIP3   OH236826   2.207   5.505  16.708  0.1092 -0.1036 -0.2396
 5112TIP3    H136827   2.253   5.559  16.644  0.2378  0.3221  0.2117
 5112TIP3    H236828   2.115   5.527  16.697  0.1513  0.1284 -0.1345
 5113TIP3   OH236829   4.942   5.941   4.297 -0.4314 -0.0890 -0.2050
 5113TIP3    H136830   4.902   5.917   4.380  1.9564  2.2969  1.7330
 5113TIP3    H236831   4.890   6.016   4.266  0.1439  0.5620  0.3826
 5114TIP3   OH236832   4.970   0.577   1.754 -0.3389 -0.7072  0.1266
 5114TIP3    H136833   5.009   0.650   1.801 -2.0942 -0.5356  1.3658
 5114TIP3    H236834   5.000   0.587   1.664  0.0633  1.0993  0.4479
 5115TIP3   OH236835   5.419   4.449  13.431 -0.3329 -0.6463 -0.2667
 5115TIP3    H136836   5.504   4.414  13.402  0.2453  1.0958 -0.7576
 5115TIP3    H236837   5.406   4.527  13.378 -2.4973 -1.1472 -0.5360
 5116TIP3   OH236838   1.337   0.631   6.113  0.5665 -0.0190  0.1144
 5116TIP3    H136839   1.326   0.677   6.196 -0.1394 -1.9179  1.1086
 5116TIP3    H236840   1.386   0.552   6.136 -0.9630 -1.3130 -1.0015
 5117TIP3   OH236841   1.869   0.332  14.238  0.5400  0.1653 -0.7137
 5117TIP3    H136842   1.932   0.264  14.263 -1.4528 -0.8607  1.7373
 5117TIP3    H236843   1.820   0.349  14.319 -2.5165  0.7071 -2.6294
 5118TIP3   OH236844   4.459   5.219  11.941  0.3615  0.5918  0.2796
 5118TIP3    H136845   4.381   5.180  11.981  1.6713 -1.6145  0.7145
 5118TIP3    H236846   4.517   5.236  12.015  0.9997  0.6281 -0.2289
 5119TIP3   OH236847   3.258   5.545  12.411 -0.3171 -0.2120  0.1134
 5119TIP3    H136848   3.270   5.467  12.466  2.2418  0.3643  0.4041
 5119TIP3    H236849   3.221   5.511  12.329  1.1161 -1.7868  0.0974
 5120TIP3   OH236850   3.087   1.484  14.359  0.0276  0.5798 -0.9127
 5120TIP3    H136851   3.036   1.564  14.368 -0.3699  0.1007  1.5371
 5120TIP3    H236852   3.160   1.495  14.421  1.4258  0.1395 -2.4481
 5121TIP3   OH236853   5.616   6.296   0.038  0.3707  0.0653  1.0372
 5121TIP3    H136854   5.604   6.208   0.074 -0.1764  0.6824  2.3875
 5121TIP3    H236855   5.677   6.283  -0.035 -0.9199 -1.6525  0.2345
 5122TIP3   OH236856   4.512   4.485  14.918 -0.6145  0.4927  0.6459
 5122TIP3    H136857   4.420   4.508  14.901  0.1710  2.5476 -0.9968
 5122TIP3    H236858   4.552   4.482  14.832  0.8029 -0.8077  1.3306
 5123TIP3   OH236859   2.688   4.125   2.259 -0.4194 -0.1740  0.1205
 5123TIP3    H136860   2.778   4.095   2.246  0.1628  1.3993  0.4123
 5123TIP3    H236861   2.680   4.132   2.354 -0.3574  1.1425  0.0297
 5124TIP3   OH236862   1.362   5.470   5.135  0.0081  0.0941 -0.1312
 5124TIP3    H136863   1.267   5.488   5.135 -0.4120 -2.0686 -0.1633
 5124TIP3    H236864   1.391   5.502   5.050 -0.3180  2.5818  0.6473
 5125TIP3   OH236865   5.021   4.832  11.527 -0.3459 -0.4354  0.0587
 5125TIP3    H136866   4.941   4.883  11.514  0.8185  1.9840  1.9987
 5125TIP3    H236867   5.062   4.829  11.440 -1.5108  0.0504 -0.5189
 5126TIP3   OH236868   0.125   0.820   5.570 -0.2154 -0.1503 -0.7458
 5126TIP3    H136869   0.139   0.849   5.480  0.6605  1.1128 -0.2165
 5126TIP3    H236870   0.053   0.874   5.602  1.1908  1.2312  0.1337
 5127TIP3   OH236871   3.164   1.005   1.321  0.7874 -0.1717 -0.7333
 5127TIP3    H136872   3.191   1.084   1.273 -0.9229 -0.1133 -1.6235
 5127TIP3    H236873   3.176   0.934   1.259 -0.0462 -0.2839 -0.7731
 5128TIP3   OH236874   0.157   1.966   0.945  0.5302  0.1057 -0.2003
 5128TIP3    H136875   0.133   2.015   0.866  1.2235 -0.8672 -1.0232
 5128TIP3    H236876   0.243   1.999   0.969  0.2503  0.5159  0.2528
 5129TIP3   OH236877   3.145   1.126   0.036  0.1621  0.4318 -0.2066
 5129TIP3    H136878   3.120   1.178   0.113 -2.6383  1.6451 -1.8626
 5129TIP3    H236879   3.116   1.038   0.057  0.1806  0.5894  0.4932
 5130TIP3   OH236880   1.590   0.826   1.180 -0.2469  0.1131  0.6111
 5130TIP3    H136881   1.628   0.740   1.167 -2.2183 -0.4717 -1.7113
 5130TIP3    H236882   1.499   0.809   1.204 -0.6462  1.5257  0.1538
 5131TIP3   OH236883   6.801   3.991  17.227 -0.3666  0.4356 -0.4542
 5131TIP3    H136884   6.888   4.024  17.249 -0.6130  0.9794 -0.2810
 5131TIP3    H236885   6.800   3.985  17.132 -1.0236  2.9054 -0.6301
 5132TIP3   OH236886   2.166   1.582   6.263 -0.5112 -0.1879 -0.1827
 5132TIP3    H136887   2.247   1.532   6.274 -2.2971 -3.1209  0.0027
 5132TIP3    H236888   2.175   1.656   6.324  1.2178 -1.5068  1.1974
 5133TIP3   OH236889   3.856   5.175   0.611 -0.8691 -0.6146  0.3673
 5133TIP3    H136890   3.927   5.134   0.563 -0.7727 -0.1635  0.1145
 5133TIP3    H236891   3.869   5.150   0.702 -0.0565 -0.0707  0.4077
 5134TIP3   OH236892   4.017   3.747  16.709  0.3497  0.4372  0.5564
 5134TIP3    H136893   4.013   3.652  16.715 -0.2244  0.4798  0.8934
 5134TIP3    H236894   4.066   3.774  16.787 -1.7993  0.5836  1.9043
 5135TIP3   OH236895   5.289   2.305   4.413 -0.3331  0.3209 -0.5216
 5135TIP3    H136896   5.345   2.366   4.461  0.2049 -0.7564  0.2242
 5135TIP3    H236897   5.345   2.230   4.394 -1.6000 -0.9277  0.5653
 5136TIP3   OH236898   3.785   1.736  12.312 -0.1325 -0.2505  0.4280
 5136TIP3    H136899   3.748   1.824  12.311 -0.8546 -0.5229  1.5048
 5136TIP3    H236900   3.859   1.741  12.372  0.9804  0.0498 -0.9385
 5137TIP3   OH236901   3.465   4.320   5.788 -0.4189  0.7745 -0.4651
 5137TIP3    H136902   3.407   4.276   5.850  1.6324 -0.3613  0.6957
 5137TIP3    H236903   3.406   4.361   5.725 -2.4641 -0.8831  0.3164
 5138TIP3   OH236904   0.084   5.458   5.752 -0.2363 -0.3556 -0.0179
 5138TIP3    H136905  -0.004   5.423   5.741  0.0680 -0.7907 -1.1285
 5138TIP3    H236906   0.100   5.453   5.846 -1.3936 -0.2757  0.1933
 5139TIP3   OH236907   6.055   5.187  14.961 -0.3295 -0.4008  0.2727
 5139TIP3    H136908   6.074   5.115  15.022 -1.5124  0.5381  1.7802
 5139TIP3    H236909   6.019   5.256  15.017  0.1641  1.1094 -1.2687
 5140TIP3   OH236910   3.464   6.294   0.479 -0.3552  0.5760 -0.3200
 5140TIP3    H136911   3.481   6.385   0.453  0.1349  0.1533 -1.4774
 5140TIP3    H236912   3.499   6.288   0.568  0.7985  1.1461 -0.7337
 5141TIP3   OH236913   3.749   4.954   1.215  0.2945 -0.0420  0.2789
 5141TIP3    H136914   3.754   5.006   1.134 -0.2533  0.0658  0.3165
 5141TIP3    H236915   3.787   5.011   1.282 -0.3657  0.3302  0.3324
 5142TIP3   OH236916   5.196   2.709  16.671  0.1939  0.3912  0.4490
 5142TIP3    H136917   5.198   2.685  16.578 -1.0917  4.6900 -0.7839
 5142TIP3    H236918   5.285   2.735  16.691  0.4921 -0.6135  0.4783
 5143TIP3   OH236919   4.679   5.268   4.816  0.8508 -0.3966  0.3573
 5143TIP3    H136920   4.752   5.295   4.760  0.3465 -2.4592 -1.3336
 5143TIP3    H236921   4.603   5.266   4.759 -0.1235 -0.4108  1.6179
 5144TIP3   OH236922   2.392   5.257  14.961  0.0305  0.1246 -0.4441
 5144TIP3    H136923   2.459   5.206  14.916  1.0044 -0.1426  1.2694
 5144TIP3    H236924   2.372   5.328  14.901  1.8416  0.1992 -0.9988
 5145TIP3   OH236925   2.697   2.502  12.166  0.0592 -0.0668  0.0807
 5145TIP3    H136926   2.708   2.463  12.080  0.0392  1.1320 -0.4835
 5145TIP3    H236927   2.648   2.438  12.216  0.3179 -0.8918 -0.7157
 5146TIP3   OH236928   3.846   3.620   2.669 -0.3638  0.3789  0.1537
 5146TIP3    H136929   3.890   3.705   2.658 -0.1765  0.3732  0.8609
 5146TIP3    H236930   3.767   3.628   2.616  0.6122  0.2970 -1.3429
 5147TIP3   OH236931   0.372   3.821   5.518  0.0585 -0.1665  0.0673
 5147TIP3    H136932   0.460   3.810   5.554  0.0044 -3.0419 -0.4748
 5147TIP3    H236933   0.362   3.915   5.506  2.7288  0.2806  0.9460
 5148TIP3   OH236934   4.932   4.509   2.375  0.6054  0.0627  0.2907
 5148TIP3    H136935   5.001   4.445   2.355 -0.1676 -0.8473  0.5532
 5148TIP3    H236936   4.937   4.521   2.469  1.1259  0.8386  0.1782
 5149TIP3   OH236937   4.760   6.694   2.788 -0.1140  0.5467 -0.3274
 5149TIP3    H136938   4.759   6.604   2.757 -0.3178 -0.1377  1.6233
 5149TIP3    H236939   4.670   6.725   2.774  0.4646  1.1874 -2.9858
 5150TIP3   OH236940   2.022   3.718   4.355  0.4026 -0.3087 -0.0427
 5150TIP3    H136941   1.931   3.703   4.329  0.4775  2.0085 -1.8399
 5150TIP3    H236942   2.052   3.634   4.388 -2.0465 -1.4130 -0.5455
 5151TIP3   OH236943   0.718   2.990   2.272 -0.0932 -0.6601 -0.1045
 5151TIP3    H136944   0.737   3.083   2.289  1.0876 -0.8823 -0.2030
 5151TIP3    H236945   0.669   2.962   2.350  1.7759 -0.6172  1.1251
 5152TIP3   OH236946   2.530   3.649   4.339 -0.1226 -0.4598 -0.0809
 5152TIP3    H136947   2.546   3.628   4.431  0.9031 -0.3582 -0.2314
 5152TIP3    H236948   2.595   3.596   4.291 -0.1662  0.0422 -0.6977
 5153TIP3   OH236949   3.372   3.904  15.783 -0.3689 -0.2636 -0.1853
 5153TIP3    H136950   3.339   3.982  15.739  1.1232 -0.2674 -1.3763
 5153TIP3    H236951   3.312   3.834  15.757 -0.5772  0.1042 -0.7016
 5154TIP3   OH236952   4.249   4.548   3.914 -0.6153 -0.1718 -0.1734
 5154TIP3    H136953   4.312   4.595   3.968  0.2529 -0.6807 -0.7231
 5154TIP3    H236954   4.246   4.460   3.952 -1.3300 -0.0174  0.1248
 5155TIP3   OH236955   1.887   3.136  16.285  0.2820  0.5138  0.2749
 5155TIP3    H136956   1.942   3.162  16.358  0.8800 -0.9223  0.3552
 5155TIP3    H236957   1.941   3.150  16.208  0.6330 -0.5380  0.3240
 5156TIP3   OH236958   0.335   2.943   2.318 -0.0043  0.5944  0.2248
 5156TIP3    H136959   0.310   3.031   2.290  0.1184  0.0071 -1.7807
 5156TIP3    H236960   0.315   2.887   2.243  1.7947 -0.7870  0.7506
 5157TIP3   OH236961   6.540   5.868  11.534  0.2674  0.3345  0.0446
 5157TIP3    H136962   6.580   5.783  11.553  0.3912  0.1949 -0.8205
 5157TIP3    H236963   6.525   5.867  11.439  0.0715  1.1919  0.0615
 5158TIP3   OH236964   5.441   6.092  16.680  0.5202  0.2210 -0.3605
 5158TIP3    H136965   5.424   6.125  16.591  0.6592 -0.2904 -0.5810
 5158TIP3    H236966   5.391   6.150  16.737  2.9874  2.5814 -0.4832
 5159TIP3   OH236967   5.116   2.198   5.557  0.4402 -0.7238  0.1726
 5159TIP3    H136968   5.130   2.281   5.603  0.2025 -0.1588 -0.7761
 5159TIP3    H236969   5.136   2.131   5.623 -0.5743  0.0808  1.3350
 5160TIP3   OH236970   6.044   4.037  12.042  0.1897  0.1982 -0.2270
 5160TIP3    H136971   6.035   3.967  11.977  0.5851 -1.2398  1.2411
 5160TIP3    H236972   6.064   4.115  11.991  0.1976 -0.8522 -1.8512
 5161TIP3   OH236973   0.138   4.538  16.657  0.0614  0.4354 -0.0467
 5161TIP3    H136974   0.122   4.585  16.575 -2.7681 -0.1784  0.1284
 5161TIP3    H236975   0.197   4.466  16.632  0.0654  0.8732 -1.3280
 5162TIP3   OH236976   0.210   6.781  13.314  0.1670 -0.6554 -0.8868
 5162TIP3    H136977   0.192   6.700  13.362 -0.6294  0.0147 -0.0214
 5162TIP3    H236978   0.229   6.845  13.383 -0.3793  0.1756 -1.5054
 5163TIP3   OH236979   4.752   4.658   4.429  0.7956  0.3642 -0.1656
 5163TIP3    H136980   4.726   4.579   4.381  2.7710 -0.3320 -0.1345
 5163TIP3    H236981   4.670   4.702   4.448 -0.4847 -2.3870  1.0138
 5164TIP3   OH236982   6.289   0.040   3.405  0.2589 -0.7635 -0.0941
 5164TIP3    H136983   6.344   0.085   3.341  0.6800  0.8384  1.3387
 5164TIP3    H236984   6.199   0.061   3.380  0.4112 -0.4810 -0.4041
 5165TIP3   OH236985   5.483   5.236  15.391 -0.1505  0.1217 -0.2730
 5165TIP3    H136986   5.562   5.241  15.337  0.0790 -1.6018 -0.1146
 5165TIP3    H236987   5.492   5.309  15.453  0.9437  0.3819 -0.7303
 5166TIP3   OH236988   4.889   4.470   4.655 -0.3364  0.3232 -0.0306
 5166TIP3    H136989   4.799   4.439   4.649 -0.8439  1.4504  1.5181
 5166TIP3    H236990   4.942   4.392   4.638 -1.5954 -0.9273  1.5510
 5167TIP3   OH236991   2.728   6.508   2.760  0.2114 -0.5920 -0.0319
 5167TIP3    H136992   2.792   6.444   2.729  0.7032 -0.4741  0.7370
 5167TIP3    H236993   2.771   6.593   2.747 -0.1552 -0.4540 -0.3760
 5168TIP3   OH236994   0.637   0.906  15.698 -0.0568 -0.0553 -0.2014
 5168TIP3    H136995   0.716   0.853  15.710  0.2362  0.6481  1.0613
 5168TIP3    H236996   0.637   0.929  15.605  0.2982 -1.5032 -0.5663
 5169TIP3   OH236997   0.217   1.077   0.586 -0.1096 -0.2489 -0.1630
 5169TIP3    H136998   0.207   1.027   0.667  1.0552 -0.0423  0.1240
 5169TIP3    H236999   0.311   1.074   0.567 -0.2275  0.5748 -0.9400
 5170TIP3   OH237000   4.009   3.188   2.694  0.0179 -0.2144  0.0129
 5170TIP3    H137001   4.078   3.133   2.732  0.5713 -0.2188 -0.9966
 5170TIP3    H237002   4.054   3.268   2.667 -0.7255  0.6074  1.1594
 5171TIP3   OH237003   1.515   1.824  13.286 -0.1969 -0.0976  0.1922
 5171TIP3    H137004   1.441   1.797  13.231  0.3638 -0.6281 -0.2967
 5171TIP3    H237005   1.581   1.855  13.224 -0.0373  0.4518  0.6356
 5172TIP3   OH237006   4.556   2.772  15.983 -0.1584  0.6081  0.0508
 5172TIP3    H137007   4.580   2.685  16.014 -0.6790 -0.6159 -2.8395
 5172TIP3    H237008   4.601   2.832  16.043  1.3762 -1.6152  1.2000
 5173TIP3   OH237009   4.646   1.844  14.675  0.1970 -0.6042 -0.1930
 5173TIP3    H137010   4.645   1.826  14.769  4.4452 -0.3904  0.0056
 5173TIP3    H237011   4.687   1.931  14.668 -0.7314 -0.3079 -2.1984
 5174TIP3   OH237012   6.370   2.647   4.673 -0.3700  0.2607  0.1201
 5174TIP3    H137013   6.456   2.606   4.669 -0.3084  0.4789 -0.9852
 5174TIP3    H237014   6.388   2.741   4.668 -0.6687  0.3041 -0.1845
 5175TIP3   OH237015   0.540   5.587   2.296  0.6105 -0.2667  0.1755
 5175TIP3    H137016   0.447   5.573   2.313  0.7949 -3.1321 -0.9081
 5175TIP3    H237017   0.585   5.528   2.357  1.7263  0.8703  0.4806
 5176TIP3   OH237018   0.820   5.785  16.013  0.0599  0.1131 -0.2533
 5176TIP3    H137019   0.772   5.773  16.094  1.6938  0.9918  0.8762
 5176TIP3    H237020   0.870   5.704  16.002  0.7439  0.4633  0.2485
 5177TIP3   OH237021   5.932   4.428  12.672 -0.1388  0.1539 -0.1408
 5177TIP3    H137022   5.877   4.383  12.736  1.1425  0.9237  1.5730
 5177TIP3    H237023   5.917   4.521  12.689  0.8203  0.3650 -0.3885
 5178TIP3   OH237024   0.414   4.924   5.034 -0.0200 -0.5564  0.1312
 5178TIP3    H137025   0.436   5.005   4.988  1.3285 -0.6025  0.6607
 5178TIP3    H237026   0.325   4.938   5.067 -0.7567 -0.2848 -1.9294
 5179TIP3   OH237027   2.546   2.479  12.601 -0.1095  0.1513 -1.1351
 5179TIP3    H137028   2.535   2.385  12.592 -1.0397  0.1309  0.0298
 5179TIP3    H237029   2.566   2.510  12.513  1.0173 -1.2297 -1.3792
 5180TIP3   OH237030   1.526   5.625  13.656 -0.2637 -0.3229 -0.5385
 5180TIP3    H137031   1.431   5.623  13.662 -0.2188  1.8435  1.5706
 5180TIP3    H237032   1.546   5.714  13.627  1.2066 -0.0830  1.1450
 5181TIP3   OH237033   1.989   4.014  12.497  0.3966 -0.1210 -0.5143
 5181TIP3    H137034   1.981   4.029  12.403 -1.9506  1.7563 -0.0967
 5181TIP3    H237035   1.899   4.000  12.526  0.6405  2.6926  1.9115
 5182TIP3   OH237036   3.820   1.200  15.242 -0.6073  0.8285 -0.3494
 5182TIP3    H137037   3.910   1.185  15.271 -0.3044 -2.0347 -2.4558
 5182TIP3    H237038   3.766   1.173  15.316  0.2129 -2.1294 -0.7750
 5183TIP3   OH237039   2.121   1.024  16.534  0.5519 -0.0739  0.2929
 5183TIP3    H137040   2.212   1.050  16.524  0.1503  1.2931  0.0813
 5183TIP3    H237041   2.073   1.077  16.470 -0.7369  1.1727  2.2332
 5184TIP3   OH237042   4.226   0.467   6.217 -0.6726  0.3875 -0.3381
 5184TIP3    H137043   4.295   0.529   6.242  0.1837 -0.3451 -0.8530
 5184TIP3    H237044   4.272   0.384   6.205 -1.2075  0.4495 -3.1421
 5185TIP3   OH237045   3.971   3.723  16.453 -0.5457 -0.2619  0.0846
 5185TIP3    H137046   3.915   3.789  16.413  0.1261 -0.2803 -0.8969
 5185TIP3    H237047   3.964   3.739  16.547  0.0702  1.5644 -0.1774
 5186TIP3   OH237048   5.918   3.768   1.806 -0.3493  0.3822  0.2896
 5186TIP3    H137049   5.880   3.737   1.888  1.0887 -1.0796  0.4187
 5186TIP3    H237050   6.004   3.803   1.830  0.0169  0.0959 -0.5632
 5187TIP3   OH237051   1.423   4.553   6.170  0.8513 -0.2425 -0.3273
 5187TIP3    H137052   1.350   4.536   6.111 -0.0160  0.9132  0.3987
 5187TIP3    H237053   1.388   4.539   6.258  0.7828  2.6991  0.1628
 5188TIP3   OH237054   3.739   6.507  11.183 -0.3202 -0.4285  0.0941
 5188TIP3    H137055   3.654   6.473  11.154 -0.1279  0.0512 -1.0835
 5188TIP3    H237056   3.722   6.545  11.269 -1.6217  0.9439 -0.7468
 5189TIP3   OH237057   5.070   2.558  11.774  0.2799  0.3859 -0.6668
 5189TIP3    H137058   5.016   2.510  11.836  0.4695  0.8880 -0.0981
 5189TIP3    H237059   5.121   2.619  11.829  2.1063 -0.7088 -1.0860
 5190TIP3   OH237060   3.840   3.358   5.979  0.9013  0.0604  0.0171
 5190TIP3    H137061   3.851   3.367   5.885 -1.5134  3.0563 -0.0635
 5190TIP3    H237062   3.887   3.433   6.016  0.5100 -0.2257  1.1204
 5191TIP3   OH237063   0.749   4.393  12.939  0.3107  1.1129  0.0613
 5191TIP3    H137064   0.744   4.481  12.903 -3.5906  1.2708  0.6998
 5191TIP3    H237065   0.694   4.340  12.881  2.0158 -0.7699  0.1011
 5192TIP3   OH237066   5.161   6.561  14.078  0.2287  0.0427  0.0944
 5192TIP3    H137067   5.225   6.498  14.043  1.7176  0.8815  1.2525
 5192TIP3    H237068   5.103   6.579  14.005  0.1196 -2.2383 -0.4302
 5193TIP3   OH237069   3.421   6.327   6.085 -0.0631  0.3188 -0.3568
 5193TIP3    H137070   3.330   6.336   6.057 -0.0500 -0.3066 -0.6152
 5193TIP3    H237071   3.458   6.414   6.073 -0.2926  0.2764 -1.4674
 5194TIP3   OH237072   4.290   0.048   0.242  0.3275  0.1160 -0.3628
 5194TIP3    H137073   4.262  -0.029   0.292  1.1384 -0.1544 -0.3217
 5194TIP3    H237074   4.276   0.121   0.302  0.9956 -0.1731  0.1584
 5195TIP3   OH237075   2.252   3.214   3.937  0.0255  0.6891 -0.2767
 5195TIP3    H137076   2.304   3.277   3.887 -0.0899  2.2274  1.5078
 5195TIP3    H237077   2.284   3.222   4.026  0.8695 -2.6743 -0.1933
 5196TIP3   OH237078   0.588   2.429   1.085  0.2062 -0.6602 -0.1629
 5196TIP3    H137079   0.610   2.383   1.166 -0.1766 -1.9579 -0.7947
 5196TIP3    H237080   0.582   2.521   1.111 -1.6975 -1.2609  1.6484
 5197TIP3   OH237081   2.761   4.636   4.750  0.4111 -0.2332  0.1660
 5197TIP3    H137082   2.670   4.623   4.777  0.0080 -1.8480 -1.8356
 5197TIP3    H237083   2.813   4.608   4.824 -0.7153 -0.2794  0.9519
 5198TIP3   OH237084   1.637   2.146  16.506  0.1628 -0.0328 -0.0743
 5198TIP3    H137085   1.561   2.107  16.549  0.4168  2.0571  2.4171
 5198TIP3    H237086   1.621   2.133  16.413 -2.1882 -1.5287  0.4878
 5199TIP3   OH237087   6.339   6.555   2.217  0.1319  0.0267 -0.5544
 5199TIP3    H137088   6.337   6.651   2.218  0.3648  0.0367 -1.1559
 5199TIP3    H237089   6.269   6.529   2.278 -1.4656  0.5605 -2.1246
 5200TIP3   OH237090   2.855   1.723  14.932 -0.1369  0.1869  0.2318
 5200TIP3    H137091   2.778   1.769  14.901  0.0922  0.1286 -0.4435
 5200TIP3    H237092   2.867   1.652  14.868 -0.1240 -0.4224  0.9057
 5201TIP3   OH237093   5.239   5.179  15.115 -0.1392 -0.6167  0.0383
 5201TIP3    H137094   5.218   5.230  15.193  1.9731 -0.5094  0.5404
 5201TIP3    H237095   5.154   5.145  15.086 -0.9800 -0.4535  2.2302
 5202TIP3   OH237096   2.668   4.595   1.905  0.0542  0.0304 -0.0559
 5202TIP3    H137097   2.638   4.686   1.912 -0.3926 -0.0392 -0.8877
 5202TIP3    H237098   2.610   4.557   1.839  0.5351 -0.7346 -0.0354
 5203TIP3   OH237099   1.793   5.131  12.775 -0.9125 -0.3014 -0.3619
 5203TIP3    H137100   1.857   5.060  12.769  1.1612  1.4159  0.9308
 5203TIP3    H237101   1.796   5.172  12.688 -0.5011 -0.4406 -0.4178
 5204TIP3   OH237102   3.350   1.489  15.599  0.2233 -0.6432  0.0972
 5204TIP3    H137103   3.271   1.543  15.608 -0.0099 -0.9939  0.1404
 5204TIP3    H237104   3.328   1.425  15.532  0.4701 -0.7475  0.1154
 5205TIP3   OH237105   0.228   4.162   3.113 -0.0965 -0.7821  0.4840
 5205TIP3    H137106   0.180   4.228   3.062 -1.5682 -2.1715  0.0013
 5205TIP3    H237107   0.173   4.146   3.189  1.7726  0.7755  2.2180
 5206TIP3   OH237108   5.806   0.260   4.939  0.0194  0.0740 -0.1855
 5206TIP3    H137109   5.732   0.294   4.990 -0.1605  1.0909 -1.1140
 5206TIP3    H237110   5.803   0.308   4.856  0.1189 -1.7828 -1.2991
 5207TIP3   OH237111   2.011   2.425   0.274  0.6810 -1.1492  0.3576
 5207TIP3    H137112   2.073   2.359   0.305  2.0967 -1.4882 -3.0136
 5207TIP3    H237113   2.059   2.507   0.278  0.5154 -1.0352  0.0525
 5208TIP3   OH237114   3.960   5.325   3.828  0.5381 -0.1437 -0.6899
 5208TIP3    H137115   3.982   5.418   3.832 -0.1973 -0.0019  0.0988
 5208TIP3    H237116   4.014   5.285   3.897 -1.3161  0.1408  0.9601
 5209TIP3   OH237117   2.420   3.923   0.294 -0.5197 -0.3370  0.1302
 5209TIP3    H137118   2.387   3.844   0.250 -0.9190 -0.5861  0.8560
 5209TIP3    H237119   2.345   3.982   0.296 -0.6944 -0.5746  1.0278
 5210TIP3   OH237120   3.183   3.955   3.568 -0.6618 -0.4037 -0.5526
 5210TIP3    H137121   3.274   3.977   3.549 -0.8665  1.0935  0.1655
 5210TIP3    H237122   3.184   3.924   3.659 -0.9061 -0.1305 -0.4552
 5211TIP3   OH237123   1.284   4.880  15.999 -0.7111  0.0768  0.1164
 5211TIP3    H137124   1.270   4.816  15.930 -1.1453 -2.6016  2.6278
 5211TIP3    H237125   1.379   4.886  16.007 -0.6706 -1.2157  0.7137
 5212TIP3   OH237126   4.264   2.139   0.558  0.2365 -0.0485  0.0191
 5212TIP3    H137127   4.308   2.079   0.619 -2.7694 -0.9053  1.4603
 5212TIP3    H237128   4.321   2.141   0.481  1.6847 -2.7936  0.9344
 5213TIP3   OH237129   1.321   3.289   0.454  0.5493  0.3915  0.1369
 5213TIP3    H137130   1.380   3.290   0.529  0.9418  0.1363 -0.1674
 5213TIP3    H237131   1.306   3.196   0.437  0.7727  0.4472 -0.3525
 5214TIP3   OH237132   3.230   1.900   1.976  0.7091 -0.9380 -0.3968
 5214TIP3    H137133   3.255   1.900   1.883  1.1237  0.5896 -0.3037
 5214TIP3    H237134   3.164   1.969   1.982 -0.0896 -1.7606  0.2488
 5215TIP3   OH237135   0.393   3.078  14.957 -0.8599  0.1347  0.1375
 5215TIP3    H137136   0.391   2.983  14.966 -0.7028  0.0003 -1.1920
 5215TIP3    H237137   0.384   3.111  15.047  1.0783 -1.1545  0.8483
 5216TIP3   OH237138   0.325   0.107   4.099  0.1443  0.2773 -0.1859
 5216TIP3    H137139   0.278   0.190   4.101 -0.2092  0.1404 -1.7673
 5216TIP3    H237140   0.316   0.076   4.008  0.2648 -1.4840  0.3719
 5217TIP3   OH237141   5.395   4.875  12.336  0.0970  0.3539 -0.2981
 5217TIP3    H137142   5.479   4.828  12.335 -0.4192 -0.5702 -0.6153
 5217TIP3    H237143   5.329   4.806  12.346 -0.6818  0.9837 -1.0443
 5218TIP3   OH237144   0.931   2.694   3.138  0.9005  0.3773  0.0205
 5218TIP3    H137145   1.005   2.633   3.131 -0.8767 -1.7077 -1.5933
 5218TIP3    H237146   0.885   2.668   3.217  1.6687  1.4447  0.8315
 5219TIP3   OH237147   6.477   0.108  13.140  0.3069  0.0010 -0.7345
 5219TIP3    H137148   6.567   0.079  13.151  0.5791  0.8926 -0.6397
 5219TIP3    H237149   6.450   0.138  13.227  0.6111  1.7205 -1.2257
 5220TIP3   OH237150   4.298   5.106   0.094  0.2095  0.4900 -0.3882
 5220TIP3    H137151   4.342   5.086   0.176 -0.3685  2.4409  0.4187
 5220TIP3    H237152   4.245   5.028   0.076 -0.5848  0.5256  1.6937
 5221TIP3   OH237153   4.745   0.030   2.373  0.8727  0.4431  0.1176
 5221TIP3    H137154   4.803  -0.032   2.419  2.0213  1.3187 -0.1441
 5221TIP3    H237155   4.688   0.064   2.442  0.8216 -0.2468  0.4245
 5222TIP3   OH237156   1.378   5.620   4.522  0.2092  0.5404  0.2083
 5222TIP3    H137157   1.359   5.677   4.597 -0.0850  1.1518 -0.3195
 5222TIP3    H237158   1.328   5.658   4.450  2.1750  1.2462 -0.8332
 5223TIP3   OH237159   1.535   5.972  16.326 -0.5904  0.3179 -0.6087
 5223TIP3    H137160   1.449   5.943  16.295  0.1860 -0.4807 -2.1027
 5223TIP3    H237161   1.582   5.891  16.346 -0.2698  0.7589  0.4730
 5224TIP3   OH237162   4.067   1.208   3.055  0.3147  0.4693 -0.2804
 5224TIP3    H137163   4.075   1.268   3.129  0.1945  0.0554  0.0669
 5224TIP3    H237164   4.019   1.258   2.989  0.3952  0.8274 -0.0722
 5225TIP3   OH237165   1.404   0.207  12.623 -0.0738 -0.1703 -0.2783
 5225TIP3    H137166   1.370   0.256  12.548 -2.1833  1.4345  1.6831
 5225TIP3    H237167   1.466   0.267  12.665  1.6261 -1.3157 -1.0473
 5226TIP3   OH237168   0.169   6.028   2.894 -0.4943 -0.3728 -0.5647
 5226TIP3    H137169   0.234   5.977   2.845 -0.5146 -0.2351 -0.7316
 5226TIP3    H237170   0.154   5.976   2.974 -0.9863 -0.9488 -1.0307
 5227TIP3   OH237171   5.115   2.861   3.811  0.0378  0.7175 -0.1642
 5227TIP3    H137172   5.126   2.885   3.719  1.1329 -0.5652 -0.3850
 5227TIP3    H237173   5.021   2.843   3.820  0.1040 -0.2577 -1.3210
 5228TIP3   OH237174   6.208   6.379  12.982  0.3625  0.0382 -0.0136
 5228TIP3    H137175   6.151   6.439  12.933  0.5665  0.1794 -0.0772
 5228TIP3    H237176   6.171   6.293  12.965  0.9779 -0.0114 -1.1732
 5229TIP3   OH237177   5.365   3.821   0.243 -0.5396  0.9437  0.4851
 5229TIP3    H137178   5.270   3.810   0.243 -0.7253  2.5011  1.8123
 5229TIP3    H237179   5.393   3.785   0.327 -0.0621  1.4679  0.5475
 5230TIP3   OH237180   2.857   2.678  13.385  0.2450 -0.2226 -0.8094
 5230TIP3    H137181   2.799   2.622  13.334  0.2163 -0.0577 -0.9554
 5230TIP3    H237182   2.798   2.735  13.434  0.2218 -1.4413  0.6107
 5231TIP3   OH237183   3.666   3.705  15.279 -0.3838 -0.1384  0.0076
 5231TIP3    H137184   3.581   3.663  15.289 -0.7957  0.9723  1.4405
 5231TIP3    H237185   3.729   3.639  15.309 -0.9846  0.0392  1.7513
 5232TIP3   OH237186   2.347   1.718   0.991 -0.3075 -0.7710 -0.2962
 5232TIP3    H137187   2.306   1.672   1.064  1.8810  1.6120  2.5558
 5232TIP3    H237188   2.274   1.761   0.946 -1.5032 -0.8085  1.5591
 5233TIP3   OH237189   5.338   4.494  14.592  0.6137 -0.3772  0.5078
 5233TIP3    H137190   5.396   4.428  14.555  1.0526  0.9891 -1.3187
 5233TIP3    H237191   5.250   4.462  14.575  0.8149  0.1398 -1.5930
 5234TIP3   OH237192   4.785   0.112  14.995 -0.4922 -0.6051  0.2054
 5234TIP3    H137193   4.873   0.086  14.970  0.0502  0.0201  1.3948
 5234TIP3    H237194   4.732   0.034  14.983  0.1183 -0.8334 -1.0299
 5235TIP3   OH237195   5.441   6.255   2.624  0.2564 -0.2601 -0.0218
 5235TIP3    H137196   5.498   6.311   2.677  0.1261  0.3190 -0.4875
 5235TIP3    H237197   5.471   6.269   2.534  0.2543 -0.9838 -0.1368
 5236TIP3   OH237198   0.673   2.021   2.359 -0.5036 -0.1856 -0.4904
 5236TIP3    H137199   0.709   2.080   2.425 -1.3354 -0.0411 -0.1524
 5236TIP3    H237200   0.744   1.959   2.340  0.5629  1.2527 -1.2546
 5237TIP3   OH237201   0.021   6.296  12.081  0.8904 -0.6736 -0.3406
 5237TIP3    H137202   0.008   6.351  12.158 -0.6970 -1.2413 -0.1836
 5237TIP3    H237203   0.114   6.275  12.082  1.3267  1.2271  0.1218
 5238TIP3   OH237204   2.462   2.514   5.376 -0.2066 -1.0631 -0.3020
 5238TIP3    H137205   2.384   2.467   5.404 -0.0628 -1.5469 -0.6987
 5238TIP3    H237206   2.513   2.449   5.328  0.9247 -1.0372  0.8274
 5239TIP3   OH237207   0.258   1.163   3.127 -0.1416  0.5823 -0.4194
 5239TIP3    H137208   0.246   1.218   3.205 -0.2457 -0.7115  0.4999
 5239TIP3    H237209   0.333   1.201   3.082  1.6028 -0.2091  1.7255
 5240TIP3   OH237210   6.614   2.194  15.122 -0.4161 -0.7502 -0.4796
 5240TIP3    H137211   6.626   2.099  15.132  0.7319 -0.7835 -2.0065
 5240TIP3    H237212   6.660   2.232  15.196  0.2251 -1.3418 -0.5676
 5241TIP3   OH237213   0.838   6.063   4.130 -0.1075 -0.5867  0.7006
 5241TIP3    H137214   0.933   6.063   4.122 -0.1412 -0.4538  0.2797
 5241TIP3    H237215   0.819   6.140   4.184  0.0859 -1.1826  1.6319
 5242TIP3   OH237216   4.876   0.670  13.699  0.0562  0.0540 -0.2721
 5242TIP3    H137217   4.961   0.706  13.724  0.0004  0.2144 -0.3126
 5242TIP3    H237218   4.818   0.746  13.694  0.3740  0.1811 -2.1924
 5243TIP3   OH237219   4.485   2.603  10.520 -0.0383  0.3189 -0.0023
 5243TIP3    H137220   4.446   2.600  10.433  1.1999  0.0060 -0.5522
 5243TIP3    H237221   4.446   2.680  10.562 -0.6008  0.4927 -0.8430
 5244TIP3   OH237222   0.736   1.949   5.222 -0.5282  0.2896 -0.2796
 5244TIP3    H137223   0.825   1.916   5.219 -0.3328  0.9525 -2.3581
 5244TIP3    H237224   0.683   1.872   5.244  0.3050 -0.5822 -1.3048
 5245TIP3   OH237225   0.562   5.136  11.943  0.0567 -0.0885  0.3361
 5245TIP3    H137226   0.635   5.172  11.892 -0.0962  0.8660  0.7972
 5245TIP3    H237227   0.493   5.121  11.878  0.7503 -1.2949 -0.1582
 5246TIP3   OH237228   0.464   1.690   4.344  0.0470  0.1612 -0.6050
 5246TIP3    H137229   0.392   1.696   4.281 -1.2390  0.2072  0.8481
 5246TIP3    H237230   0.502   1.778   4.345  0.2536  0.0858 -1.5195
 5247TIP3   OH237231   0.365   5.934   2.349  0.3127  0.4579 -0.6412
 5247TIP3    H137232   0.359   5.933   2.445 -0.3625  1.3250 -0.6693
 5247TIP3    H237233   0.282   5.971   2.321  0.8061  0.8725 -1.5460
 5248TIP3   OH237234   1.634   5.551   4.884 -0.1551  0.0202 -0.8554
 5248TIP3    H137235   1.629   5.472   4.831 -0.2570 -1.4566  1.2995
 5248TIP3    H237236   1.728   5.569   4.891  0.0074 -1.2476  0.5288
 5249TIP3   OH237237   4.196   3.707   6.292  0.5938  0.0031 -0.7447
 5249TIP3    H137238   4.250   3.783   6.312 -0.7032  1.0656 -1.1639
 5249TIP3    H237239   4.196   3.655   6.372  0.2455  1.2385  0.0764
 5250TIP3   OH237240   5.999   4.275  16.080 -0.0594  0.0980  0.5141
 5250TIP3    H137241   5.915   4.242  16.051  0.3186 -0.1142 -0.3666
 5250TIP3    H237242   6.047   4.292  15.999  1.4757 -1.6580  1.0254
 5251TIP3   OH237243   1.997   4.910  11.745  0.7595 -0.1061  0.5169
 5251TIP3    H137244   1.937   4.846  11.708  1.5125 -0.1049 -0.7338
 5251TIP3    H237245   1.963   4.926  11.833 -2.0700  1.1409 -0.7143
 5252TIP3   OH237246   0.248   5.339  15.746  0.2346 -0.0721 -0.0730
 5252TIP3    H137247   0.266   5.431  15.730  1.0476 -0.4211 -1.1749
 5252TIP3    H237248   0.303   5.292  15.684 -2.1122 -1.2385 -1.3644
 5253TIP3   OH237249   6.111   5.815   4.891  0.5121  0.3756 -0.6089
 5253TIP3    H137250   6.036   5.766   4.857  0.6140  1.7735 -2.9564
 5253TIP3    H237251   6.161   5.840   4.813  3.3760 -0.4105  0.8953
 5254TIP3   OH237252   0.546   3.146   5.468  0.0148 -0.1713 -0.3853
 5254TIP3    H137253   0.511   3.230   5.496 -2.3663 -2.0228  2.5652
 5254TIP3    H237254   0.605   3.120   5.539  2.1790 -0.2003 -2.1363
 5255TIP3   OH237255   3.114   6.052  11.326 -0.3153 -0.3930 -0.5710
 5255TIP3    H137256   3.067   6.063  11.409  0.6545 -3.6096  0.4869
 5255TIP3    H237257   3.077   6.119  11.268 -1.9860  1.0093  2.0134
 5256TIP3   OH237258   2.330   5.388  12.874  0.5893 -0.3317 -0.3835
 5256TIP3    H137259   2.385   5.436  12.813 -0.6889  1.6411 -0.0097
 5256TIP3    H237260   2.316   5.448  12.947 -1.6682 -0.9685 -0.2454
 5257TIP3   OH237261   1.218   3.758  14.978  0.1045  0.7828  0.6664
 5257TIP3    H137262   1.131   3.768  14.939 -0.4219  0.6920  1.7946
 5257TIP3    H237263   1.218   3.818  15.052  1.3488  1.4669  0.1274
 5258TIP3   OH237264   4.341   5.546  14.085 -0.0454 -0.5593 -0.2416
 5258TIP3    H137265   4.305   5.535  14.173  0.4961 -0.0840  0.0382
 5258TIP3    H237266   4.267   5.532  14.027 -1.3677  3.2167  0.4003
 5259TIP3   OH237267   3.098   2.027  17.089  0.0342  0.4005  0.2090
 5259TIP3    H137268   3.139   2.111  17.067  2.0370 -0.3664  0.8880
 5259TIP3    H237269   3.078   1.988  17.004  2.3790  0.0164 -0.2056
 5260TIP3   OH237270   5.068   0.658   6.536  0.7488  0.0991  0.0840
 5260TIP3    H137271   5.066   0.571   6.575 -0.5764  0.1671  0.1800
 5260TIP3    H237272   5.015   0.712   6.595  0.0546  0.5561 -0.9482
 5261TIP3   OH237273   1.257   5.425  14.040  0.4523  0.0528 -0.0478
 5261TIP3    H137274   1.199   5.387  14.106 -1.0611  1.6866 -0.4015
 5261TIP3    H237275   1.314   5.353  14.014 -1.3209 -1.5667  0.4380
 5262TIP3   OH237276   1.115   4.265   4.841 -0.2023 -0.1648 -0.7199
 5262TIP3    H137277   1.174   4.193   4.819  0.4485 -0.0956  0.7712
 5262TIP3    H237278   1.027   4.229   4.829  0.1264 -1.1305 -0.2354
 5263TIP3   OH237279   1.869   3.884  13.857 -0.7465  0.1420 -0.3521
 5263TIP3    H137280   1.872   3.903  13.951  0.5822 -0.0135 -0.3473
 5263TIP3    H237281   1.816   3.804  13.850 -0.3543 -0.1836  0.3260
 5264TIP3   OH237282   2.565   3.637   5.101 -0.0440 -0.2371  0.0157
 5264TIP3    H137283   2.539   3.679   5.183  0.7265  0.3762 -0.0419
 5264TIP3    H237284   2.588   3.548   5.126 -1.6354 -0.6265  0.1540
 5265TIP3   OH237285   4.753   0.981  11.650 -0.7690  0.8065 -0.4494
 5265TIP3    H137286   4.759   0.960  11.743 -1.6680 -0.0680 -0.5821
 5265TIP3    H237287   4.678   1.040  11.643 -1.4235 -0.0589 -0.7705
 5266TIP3   OH237288   4.759   0.797  12.436  0.1491  0.1845  0.1636
 5266TIP3    H137289   4.731   0.851  12.510 -3.2471 -0.3941 -0.5779
 5266TIP3    H237290   4.750   0.707  12.469  2.5056 -0.0289  0.3011
 5267TIP3   OH237291   0.242   1.194  13.398  0.1272  0.0452  0.2794
 5267TIP3    H137292   0.307   1.214  13.465  0.8490 -1.5810  0.0809
 5267TIP3    H237293   0.161   1.180  13.447  0.2787  0.4682  0.6588
 5268TIP3   OH237294   6.708   2.763   5.141 -0.0109  0.1901 -0.2842
 5268TIP3    H137295   6.792   2.807   5.128 -0.6120  1.5195  0.2178
 5268TIP3    H237296   6.647   2.834   5.161 -1.2591 -0.7629 -0.6723
 5269TIP3   OH237297   6.458   0.231   1.857  0.3676  0.0853 -0.4818
 5269TIP3    H137298   6.545   0.201   1.883  0.3396 -0.1319 -0.6373
 5269TIP3    H237299   6.454   0.214   1.763  0.3996  0.6881 -0.5941
 5270TIP3   OH237300   1.729   1.056   3.107  0.0789 -0.1597  0.4397
 5270TIP3    H137301   1.767   1.048   3.194  0.7381 -1.9555  0.0138
 5270TIP3    H237302   1.804   1.070   3.049 -0.4111  1.7090  0.2159
 5271TIP3   OH237303   5.550   6.335   2.989  0.2206 -0.2003 -0.4312
 5271TIP3    H137304   5.620   6.283   3.030  0.3319  1.4746  1.5717
 5271TIP3    H237305   5.591   6.373   2.912  0.8806 -1.0214 -0.5010
 5272TIP3   OH237306   4.088   3.134  11.026  0.3796 -0.6599 -0.0446
 5272TIP3    H137307   4.168   3.158  10.978 -0.6417  1.1817 -0.8561
 5272TIP3    H237308   4.077   3.205  11.090 -0.8023 -0.7276 -0.1709
 5273TIP3   OH237309   1.413   2.043   2.623 -0.6868 -0.2664  0.5054
 5273TIP3    H137310   1.405   2.132   2.655  0.5194 -0.0813  0.3222
 5273TIP3    H237311   1.506   2.034   2.600 -1.1719 -0.9439 -1.2753
 5274TIP3   OH237312   3.098   3.565  11.019 -0.3992  0.0208 -0.2112
 5274TIP3    H137313   3.142   3.649  11.005  0.6532 -0.6799 -1.1617
 5274TIP3    H237314   3.157   3.516  11.075 -0.8617 -0.2149  0.0748
 5275TIP3   OH237315   5.461   5.695  14.831 -0.2790 -0.1466 -0.7892
 5275TIP3    H137316   5.540   5.680  14.882 -0.7167 -0.0446 -0.0799
 5275TIP3    H237317   5.397   5.728  14.894 -0.7903  0.0791 -1.4191
 5276TIP3   OH237318   5.510   2.310  16.540  0.6862  0.2907  0.4431
 5276TIP3    H137319   5.506   2.241  16.474  1.4431  0.9369 -0.2926
 5276TIP3    H237320   5.419   2.324  16.565  0.4967 -0.7411  0.3587
 5277TIP3   OH237321   2.007   1.681  12.228  0.2186  0.0489  0.2975
 5277TIP3    H137322   2.050   1.646  12.150 -4.0677 -2.1223 -1.2380
 5277TIP3    H237323   1.988   1.604  12.282 -2.8337  0.7405  0.2989
 5278TIP3   OH237324   2.288   2.514  15.120  0.1036  0.0862 -0.7140
 5278TIP3    H137325   2.202   2.511  15.162  0.3815  2.0724  0.0558
 5278TIP3    H237326   2.273   2.562  15.038  0.3365 -0.2442 -0.9522
 5279TIP3   OH237327   3.662   5.531  15.475  0.1903 -0.3296  0.2168
 5279TIP3    H137328   3.685   5.515  15.383  1.3390 -0.6833  0.5546
 5279TIP3    H237329   3.658   5.444  15.513 -0.7713 -0.2074  0.3927
 5280TIP3   OH237330   6.032   1.463   2.574  0.7158 -0.4579  0.4732
 5280TIP3    H137331   5.985   1.541   2.545 -0.0321 -0.3604  1.8821
 5280TIP3    H237332   6.122   1.475   2.543  0.5030  0.7762  0.3423
 5281TIP3   OH237333   5.463   4.222  17.063 -0.2045  0.5044 -0.1812
 5281TIP3    H137334   5.370   4.216  17.087 -0.1410  1.3661  0.2991
 5281TIP3    H237335   5.496   4.133  17.074 -0.4390  0.6372  1.8609
 5282TIP3   OH237336   5.055   2.911   5.649  0.0205  0.4773  0.0120
 5282TIP3    H137337   4.990   2.975   5.620 -0.9152 -0.8777 -0.9551
 5282TIP3    H237338   5.004   2.842   5.692  1.0539  0.5823  1.4532
 5283TIP3   OH237339   0.692   0.557  15.175  0.0887 -0.3681 -0.3906
 5283TIP3    H137340   0.597   0.561  15.164  0.1971  0.9578 -1.0105
 5283TIP3    H237341   0.714   0.465  15.164 -1.3839 -1.0519  2.0525
 5284TIP3   OH237342   0.433   5.888   3.736  0.4458 -0.0224  0.4386
 5284TIP3    H137343   0.420   5.941   3.815  0.7828  1.7172 -0.6297
 5284TIP3    H237344   0.369   5.817   3.743 -1.6127  1.8101  0.8209
 5285TIP3   OH237345   2.777   4.739  13.947 -0.0076  0.3120  0.0542
 5285TIP3    H137346   2.848   4.680  13.972 -0.1008  0.8807  1.7409
 5285TIP3    H237347   2.777   4.807  14.015 -0.3994  1.8313 -1.4177
 5286TIP3   OH237348   3.152   2.075   1.497  0.1856 -0.5318 -0.4439
 5286TIP3    H137349   3.083   2.012   1.520 -1.2664  1.6148  1.3833
 5286TIP3    H237350   3.112   2.130   1.429  0.2342  0.4215  0.2844
 5287TIP3   OH237351   0.298   2.366   2.021  0.6066 -0.2516 -0.0575
 5287TIP3    H137352   0.203   2.368   2.030  0.4605  0.1379 -1.6225
 5287TIP3    H237353   0.325   2.457   2.035  0.5725 -0.0288 -1.4091
 5288TIP3   OH237354   0.334   0.894   3.125  0.0248 -0.5929  0.2400
 5288TIP3    H137355   0.290   0.978   3.111  1.7328  0.0802 -1.2850
 5288TIP3    H237356   0.349   0.859   3.037  2.8579 -0.5866  0.6512
 5289TIP3   OH237357   5.227   3.082   4.735  0.2213 -0.2613 -0.1040
 5289TIP3    H137358   5.290   3.067   4.805  1.4424  1.8108 -0.7306
 5289TIP3    H237359   5.159   3.136   4.775  1.3882  1.7217 -0.6968
 5290TIP3   OH237360   6.784   0.878   1.980  0.5905  0.2667 -0.3061
 5290TIP3    H137361   6.803   0.810   2.045  0.9495  0.3266 -0.3469
 5290TIP3    H237362   6.857   0.939   1.988  0.3040  0.6147 -0.3142
 5291TIP3   OH237363   3.396   1.680  12.175  0.3005 -0.2622  0.1717
 5291TIP3    H137364   3.343   1.636  12.108  0.3781 -0.1456  0.0340
 5291TIP3    H237365   3.399   1.618  12.247 -1.1126  0.2767  0.6997
 5292TIP3   OH237366   0.224   6.072  13.978  0.6650 -0.1209  0.4972
 5292TIP3    H137367   0.252   6.163  13.984  0.5962 -0.1157  0.7497
 5292TIP3    H237368   0.271   6.037  13.902  0.6332  0.1434  0.3551
 5293TIP3   OH237369   1.101   6.408   4.550  0.1067  0.0402  0.2876
 5293TIP3    H137370   1.099   6.488   4.602 -0.6154  0.0629  0.2298
 5293TIP3    H237371   1.146   6.432   4.469 -1.0290  0.6494 -0.1659
 5294TIP3   OH237372   5.873   5.062  17.044 -0.2779  0.2187 -0.4905
 5294TIP3    H137373   5.879   4.985  17.102  0.3628  0.2146 -0.5557
 5294TIP3    H237374   5.948   5.116  17.069  1.0322 -0.5977 -2.4784
 5295TIP3   OH237375   4.138   6.512   6.017 -0.1336  0.4926 -0.0670
 5295TIP3    H137376   4.161   6.590   5.966  0.7655  1.1781  1.3666
 5295TIP3    H237377   4.194   6.443   5.981 -0.4177  0.6688 -0.8592
 5296TIP3   OH237378   0.883   0.753  15.742  0.0425  0.2316 -0.0985
 5296TIP3    H137379   0.945   0.727  15.673  1.9801 -1.2394  2.1183
 5296TIP3    H237380   0.918   0.837  15.773 -1.5377  1.5170 -1.6917
 5297TIP3   OH237381   4.087   4.277   1.760  0.4384  0.1606  0.2054
 5297TIP3    H137382   4.120   4.362   1.788  1.0600 -0.5066  1.5796
 5297TIP3    H237383   4.008   4.297   1.709  2.1635  1.7104 -1.9503
 5298TIP3   OH237384   3.681   1.195  12.879 -0.1004 -0.9855 -0.1684
 5298TIP3    H137385   3.631   1.271  12.852  4.2227  2.5105  0.9940
 5298TIP3    H237386   3.658   1.127  12.816 -1.5724  2.3015 -3.3327
 5299TIP3   OH237387   2.751   0.627   0.806 -0.3293  0.2068  0.0148
 5299TIP3    H137388   2.844   0.606   0.795 -0.0414  1.0104  0.8171
 5299TIP3    H237389   2.733   0.693   0.739 -0.3838 -0.1310 -0.3027
 5300TIP3   OH237390   0.779   4.260   6.172 -0.2531  0.4532 -0.7854
 5300TIP3    H137391   0.793   4.321   6.099  0.5326  0.6216 -0.5022
 5300TIP3    H237392   0.821   4.303   6.247 -0.3337 -0.1018 -0.4215
 5301TIP3   OH237393   5.245   4.103  16.400 -0.2255  0.7119  0.3296
 5301TIP3    H137394   5.153   4.090  16.377 -0.3812 -0.2295  1.4368
 5301TIP3    H237395   5.276   4.015  16.423  0.8321  1.0952  0.3951
 5302TIP3   OH237396   0.199   5.118   3.610 -0.1025  0.7525 -0.0054
 5302TIP3    H137397   0.239   5.074   3.535  0.4140 -0.3774  0.9128
 5302TIP3    H237398   0.265   5.112   3.679 -0.3571  2.2576  0.3900
 5303TIP3   OH237399   5.471   2.123  11.209 -0.4354 -0.7582  0.1251
 5303TIP3    H137400   5.520   2.159  11.284 -1.8683  0.0538  0.6907
 5303TIP3    H237401   5.495   2.179  11.136  0.0170 -0.7973  0.2381
 5304TIP3   OH237402   2.349   4.082   6.293 -0.4337 -0.0342  0.7194
 5304TIP3    H137403   2.394   4.159   6.258  0.1306  0.0785  1.6923
 5304TIP3    H237404   2.268   4.078   6.243  0.8782 -0.5605 -1.4335
 5305TIP3   OH237405   6.201   5.711  14.368  0.2665  0.0977  0.4796
 5305TIP3    H137406   6.127   5.652  14.377 -0.4972  0.8143 -0.9547
 5305TIP3    H237407   6.163   5.799  14.372  1.1073  0.4828  0.2411
 5306TIP3   OH237408   3.349   4.627  13.785 -0.0040 -0.1415  0.1654
 5306TIP3    H137409   3.301   4.567  13.843  1.8562  0.3572  2.2678
 5306TIP3    H237410   3.329   4.714  13.818 -1.5330  0.3790 -1.9965
 5307TIP3   OH237411   0.874   0.833  11.573  0.2713  0.3088  0.0880
 5307TIP3    H137412   0.944   0.769  11.585 -0.7094 -0.6856  0.5896
 5307TIP3    H237413   0.915   0.918  11.591  1.1814 -0.3219  1.0184
 5308TIP3   OH237414   4.473   6.477   2.177 -0.5487 -0.3828  0.5301
 5308TIP3    H137415   4.564   6.449   2.170 -0.6835 -0.8656  0.6301
 5308TIP3    H237416   4.469   6.525   2.259  0.0986  1.5690 -0.5574
 5309TIP3   OH237417   4.616   6.213   6.582  0.1476  0.2196 -0.6436
 5309TIP3    H137418   4.551   6.232   6.650  0.4560 -0.7022 -0.0847
 5309TIP3    H237419   4.575   6.240   6.500 -0.4873  0.7156 -0.1576
 5310TIP3   OH237420   5.593   6.000  14.878 -0.6456  0.7959 -0.3947
 5310TIP3    H137421   5.675   5.951  14.878 -0.2490  1.4245 -1.9643
 5310TIP3    H237422   5.616   6.085  14.915 -0.7254  0.7811 -0.3107
 5311TIP3   OH237423   0.816   2.019  16.268  0.5622  0.4681  0.0715
 5311TIP3    H137424   0.769   2.081  16.324  0.6402  1.3135 -0.7824
 5311TIP3    H237425   0.797   2.049  16.179 -2.6759 -3.0455 -0.5443
 5312TIP3   OH237426   4.296   3.032  13.848 -0.1825 -0.4492 -0.4466
 5312TIP3    H137427   4.361   3.057  13.781 -1.9235 -0.0038 -2.0077
 5312TIP3    H237428   4.347   3.026  13.929  1.3571  2.5138 -1.1123
 5313TIP3   OH237429   1.926   3.951  13.145 -0.0295 -0.0568  0.1605
 5313TIP3    H137430   1.831   3.937  13.146  0.2979 -2.6014  2.4216
 5313TIP3    H237431   1.949   3.967  13.236  1.6694  0.9717 -0.4265
 5314TIP3   OH237432   3.252   4.418   2.907  0.8074 -0.3821 -0.4568
 5314TIP3    H137433   3.275   4.412   2.814  2.3737  1.0893 -0.1747
 5314TIP3    H237434   3.156   4.424   2.907  0.8427  0.3910 -2.0225
 5315TIP3   OH237435   5.092   2.307  12.017 -0.0185 -0.3444  0.0376
 5315TIP3    H137436   5.187   2.320  12.020 -0.2439  2.3116 -2.7354
 5315TIP3    H237437   5.057   2.375  12.075 -0.2756 -0.7505  0.3592
 5316TIP3   OH237438   1.813   4.608  17.015 -0.0939 -0.0747 -0.7989
 5316TIP3    H137439   1.902   4.633  17.042  0.3567 -0.9098 -1.5090
 5316TIP3    H237440   1.826   4.548  16.942 -1.1812 -2.1917  0.7116
 5317TIP3   OH237441   4.789   4.570  14.072  0.2142  0.2555 -0.4138
 5317TIP3    H137442   4.763   4.478  14.071 -0.1473  0.3351  0.8335
 5317TIP3    H237443   4.716   4.615  14.115  1.0691  0.9114  0.3694
 5318TIP3   OH237444   3.686   2.813   0.819 -0.4710  0.3850 -0.3829
 5318TIP3    H137445   3.648   2.859   0.894 -0.3502  0.4182 -0.3419
 5318TIP3    H237446   3.626   2.739   0.804  0.9817 -1.2365  1.5111
 5319TIP3   OH237447   2.325   2.975   4.837  0.1151 -0.4688 -0.1246
 5319TIP3    H137448   2.264   3.004   4.770 -0.5233 -0.6473  0.3730
 5319TIP3    H237449   2.310   2.881   4.846 -0.3951 -0.2997  0.8531
 5320TIP3   OH237450   6.298   1.117  12.048 -0.3380 -0.0729  0.0713
 5320TIP3    H137451   6.370   1.073  12.002  1.4134 -0.7578  3.3490
 5320TIP3    H237452   6.332   1.205  12.067 -1.3497  0.4741 -0.5746
 5321TIP3   OH237453   1.350   4.950  12.193 -0.4451 -0.1624  0.0226
 5321TIP3    H137454   1.379   5.014  12.128 -1.0476  1.4198  1.2974
 5321TIP3    H237455   1.430   4.908  12.223 -0.0911 -0.3761 -1.1709
 5322TIP3   OH237456   0.161   1.337   2.609  0.3427 -0.0480  0.1750
 5322TIP3    H137457   0.081   1.363   2.564  0.9361  0.2311 -0.7273
 5322TIP3    H237458   0.136   1.261   2.662 -1.1515  1.6320  1.9734
 5323TIP3   OH237459   3.073   0.057   5.196  0.0028  0.1393 -0.0632
 5323TIP3    H137460   3.069   0.139   5.246  1.1513 -0.1235  0.4632
 5323TIP3    H237461   2.984   0.023   5.201 -0.8314  2.0066 -1.4157
 5324TIP3   OH237462   2.510   5.162  11.326 -0.2671  0.1705 -0.7260
 5324TIP3    H137463   2.453   5.088  11.306 -0.1268 -0.3638  0.8268
 5324TIP3    H237464   2.450   5.232  11.354 -0.1554 -0.5926  1.5276
 5325TIP3   OH237465   2.436   1.397  13.399  0.3790 -0.2213  0.3629
 5325TIP3    H137466   2.384   1.449  13.460 -0.4598 -1.1321  0.4377
 5325TIP3    H237467   2.522   1.388  13.441 -0.4959 -1.7141  1.9162
 5326TIP3   OH237468   2.618   1.430  15.769 -0.4929  0.6323  0.7559
 5326TIP3    H137469   2.594   1.349  15.724 -0.8006  1.0648  0.1398
 5326TIP3    H237470   2.543   1.448  15.826 -0.2159  0.2274  1.2565
 5327TIP3   OH237471   4.192   5.904   1.062 -0.2127  0.3936 -0.3257
 5327TIP3    H137472   4.235   5.910   1.147  3.0867  0.7655 -1.9438
 5327TIP3    H237473   4.169   5.812   1.053  0.5727  0.1210  0.4159
 5328TIP3   OH237474   1.181   6.015  14.173 -0.6914 -0.8069  0.4735
 5328TIP3    H137475   1.137   5.933  14.196 -1.0022 -1.3754 -1.9418
 5328TIP3    H237476   1.274   5.993  14.176 -0.7011 -0.6841  1.7893
 5329TIP3   OH237477   4.995   5.013   3.924  0.0963 -0.4847 -0.2359
 5329TIP3    H137478   5.081   4.973   3.936  0.6560  0.8177  0.1654
 5329TIP3    H237479   4.990   5.081   3.991 -0.4080  0.8125 -1.5508
 5330TIP3   OH237480   0.351   1.057   1.310 -0.0947 -0.8141  0.3821
 5330TIP3    H137481   0.270   1.060   1.360 -0.8803  1.9629 -0.9586
 5330TIP3    H237482   0.322   1.056   1.218  1.3777 -0.9557 -0.0948
 5331TIP3   OH237483   4.208   5.303  14.562 -0.6151  0.2565 -0.3737
 5331TIP3    H137484   4.150   5.361  14.612  0.5322  2.1522 -1.1671
 5331TIP3    H237485   4.193   5.216  14.598 -2.0387  1.1274  1.1865
 5332TIP3   OH237486   3.974   4.573  15.529  0.2941  0.2970 -0.0612
 5332TIP3    H137487   4.015   4.540  15.609  1.0762 -1.5082 -1.1854
 5332TIP3    H237488   3.934   4.496  15.489 -2.1830  1.6115 -0.1984
 5333TIP3   OH237489   2.689   5.488  13.334  0.4406 -0.7695  0.1017
 5333TIP3    H137490   2.693   5.562  13.273 -2.3735 -1.6768 -1.2243
 5333TIP3    H237491   2.682   5.529  13.420 -1.3035  0.5504 -0.6346
 5334TIP3   OH237492   4.952   2.389   1.425  0.1244  0.1163  0.5855
 5334TIP3    H137493   4.967   2.342   1.508  1.8024 -1.3764 -0.5249
 5334TIP3    H237494   5.024   2.451   1.420  0.5955 -0.5019 -0.2515
 5335TIP3   OH237495   5.948   1.963  16.369 -0.4198 -0.2409 -0.5160
 5335TIP3    H137496   5.937   1.941  16.462 -0.4777 -0.7938 -0.6498
 5335TIP3    H237497   5.941   2.058  16.366 -0.0217 -0.1869  0.1069
 5336TIP3   OH237498   6.662   5.650  14.095 -0.9608  0.3563 -0.4000
 5336TIP3    H137499   6.707   5.727  14.062 -0.7569  0.2092 -0.4646
 5336TIP3    H237500   6.575   5.682  14.119 -1.5138  0.2256 -2.1932
 5337TIP3   OH237501   2.300   5.334   5.705 -0.3651  0.3821 -0.0459
 5337TIP3    H137502   2.363   5.392   5.664 -0.5968  1.3224  0.8934
 5337TIP3    H237503   2.218   5.352   5.659 -0.3931  0.6548  0.1094
 5338TIP3   OH237504   0.752   3.643  13.259  0.3227 -1.1800 -0.0199
 5338TIP3    H137505   0.658   3.655  13.273  0.7091  1.6414  0.5178
 5338TIP3    H237506   0.768   3.677  13.171  1.1515  0.3027  0.6911
 5339TIP3   OH237507   5.411   6.809   5.119  0.5889  0.4849  0.1900
 5339TIP3    H137508   5.467   6.862   5.177 -0.3128 -0.3872  1.8987
 5339TIP3    H237509   5.447   6.721   5.126 -0.4422  0.0897  0.5929
 5340TIP3   OH237510   5.859   2.333  13.939  0.6643 -0.4776 -0.4863
 5340TIP3    H137511   5.833   2.261  13.881 -1.0374  0.0786 -0.4468
 5340TIP3    H237512   5.786   2.395  13.934  0.7386 -0.1688  1.8340
 5341TIP3   OH237513   5.173   4.441  17.040  0.0008 -0.8194 -0.3364
 5341TIP3    H137514   5.248   4.486  17.001 -0.4229  0.6753  0.5384
 5341TIP3    H237515   5.097   4.494  17.015 -0.3398 -0.1265  2.0075
 5342TIP3   OH237516   0.118   1.112  13.974  0.5304 -0.4505  0.1450
 5342TIP3    H137517   0.180   1.069  13.916  0.2433  2.1121 -2.1935
 5342TIP3    H237518   0.170   1.177  14.021  0.4385 -1.3738  1.5506
 5343TIP3   OH237519   6.513   0.698   2.519  0.0760 -0.5849 -0.0165
 5343TIP3    H137520   6.495   0.738   2.434 -0.1384 -2.7207 -0.9886
 5343TIP3    H237521   6.466   0.753   2.582 -2.1332 -0.6414 -1.5740
 5344TIP3   OH237522   1.479   0.045   2.832 -0.5504  0.7934 -0.7631
 5344TIP3    H137523   1.402  -0.008   2.854 -0.9653  1.9308  0.5828
 5344TIP3    H237524   1.548   0.011   2.889 -1.0538  2.2775  0.7688
 5345TIP3   OH237525   2.110   3.023   1.389 -0.2952  0.2074 -0.2687
 5345TIP3    H137526   2.119   2.947   1.447 -0.9008 -0.7521 -1.3859
 5345TIP3    H237527   2.021   3.053   1.403  0.0871  0.9879  0.4940
 5346TIP3   OH237528   0.729   4.554  15.551 -0.1716  0.6625 -0.0429
 5346TIP3    H137529   0.819   4.584  15.539 -0.8999  2.8086 -0.3777
 5346TIP3    H237530   0.686   4.625  15.598 -1.8226 -0.1342 -0.2965
 5347TIP3   OH237531   5.447   2.928   5.701  0.0881  0.2293 -0.0156
 5347TIP3    H137532   5.454   2.836   5.727 -1.3261  0.6378  1.9232
 5347TIP3    H237533   5.447   2.925   5.605  1.1963 -1.6803 -0.0036
 5348TIP3   OH237534   3.479   6.536   5.255 -0.6962 -0.5235 -0.4611
 5348TIP3    H137535   3.431   6.463   5.217 -2.6846  0.5084  0.0157
 5348TIP3    H237536   3.557   6.544   5.200 -1.0263 -2.2430 -1.2239
 5349TIP3   OH237537   1.457   5.240  14.743  0.1047  0.2260 -0.3104
 5349TIP3    H137538   1.370   5.258  14.707  0.4967 -0.0436 -1.4290
 5349TIP3    H237539   1.489   5.165  14.692  1.0429  0.4014 -0.0014
 5350TIP3   OH237540   0.807   1.363  12.212 -0.1515  0.6315  0.3701
 5350TIP3    H137541   0.776   1.448  12.245 -0.8653  1.2748 -1.8723
 5350TIP3    H237542   0.779   1.300  12.278 -0.5125  2.0172  1.5689
 5351TIP3   OH237543   4.002   2.632  17.199  0.0771  0.7329  0.5779
 5351TIP3    H137544   3.909   2.611  17.189 -0.5177  4.3147 -1.9560
 5351TIP3    H237545   4.008   2.675  17.285 -0.2020 -1.2434  1.6273
 5352TIP3   OH237546   2.485   3.995  16.344 -0.5568 -0.0767 -0.5427
 5352TIP3    H137547   2.439   3.917  16.374  0.1077  0.0735  0.9152
 5352TIP3    H237548   2.436   4.068  16.382  1.4611  0.0556  1.9387
 5353TIP3   OH237549   2.277   2.596  14.849  0.2350  0.5994  0.5044
 5353TIP3    H137550   2.367   2.615  14.821 -0.3683  2.4431 -0.3266
 5353TIP3    H237551   2.255   2.514  14.804  1.1732  0.6523 -0.0746
 5354TIP3   OH237552   0.961   0.287   1.200  0.1402 -0.3261 -0.4433
 5354TIP3    H137553   0.928   0.216   1.255  0.9425  0.6010  1.2873
 5354TIP3    H237554   0.954   0.254   1.111 -3.5560 -0.9215 -0.0116
 5355TIP3   OH237555   1.667   6.233   0.941  0.0271  0.7262  0.0780
 5355TIP3    H137556   1.582   6.278   0.948 -0.7275 -0.5982 -0.3794
 5355TIP3    H237557   1.712   6.253   1.023 -1.5400 -0.1775  1.1987
 5356TIP3   OH237558   6.762   3.430   6.149 -0.6276  0.4192 -0.4810
 5356TIP3    H137559   6.674   3.418   6.184 -0.6631  0.8978 -0.4019
 5356TIP3    H237560   6.753   3.415   6.055 -1.1665  2.2728 -0.7612
 5357TIP3   OH237561   4.706   0.974   2.224 -0.0682 -0.1721  0.1131
 5357TIP3    H137562   4.800   0.991   2.220 -0.3775  1.6048  0.1387
 5357TIP3    H237563   4.676   0.988   2.134 -0.2284 -1.2687 -0.0103
 5358TIP3   OH237564   4.763   2.323   5.757 -0.0704 -0.2024 -0.0757
 5358TIP3    H137565   4.734   2.384   5.690  0.6985  0.8765  0.5648
 5358TIP3    H237566   4.856   2.341   5.768  0.3552 -2.0141 -0.4151
 5359TIP3   OH237567   6.654   4.267  11.813 -0.5505 -0.2140  0.6945
 5359TIP3    H137568   6.740   4.242  11.781  0.3804  0.1426  2.8548
 5359TIP3    H237569   6.620   4.328  11.747  0.9576 -0.1435 -0.0257
 5360TIP3   OH237570   3.838   2.298  12.325  0.1290 -0.7983  0.3265
 5360TIP3    H137571   3.863   2.217  12.282 -1.5614 -1.6852  0.9839
 5360TIP3    H237572   3.871   2.288  12.415 -2.2958 -1.8655  1.1261
 5361TIP3   OH237573   5.750   3.240  13.229 -0.1109 -0.2037  0.3454
 5361TIP3    H137574   5.701   3.191  13.296  1.1299 -2.1780 -0.1388
 5361TIP3    H237575   5.780   3.319  13.274 -0.2453 -0.9694  1.8167
 5362TIP3   OH237576   6.412   6.111   0.085  0.3956 -0.7392 -0.4180
 5362TIP3    H137577   6.488   6.067   0.124  0.6705  0.3406  0.2930
 5362TIP3    H237578   6.342   6.098   0.148  0.2687 -0.8360 -0.5786
 5363TIP3   OH237579   1.313   1.949  15.118  0.0357  0.4597 -0.1006
 5363TIP3    H137580   1.266   1.877  15.076 -1.1878  1.5052 -0.5484
 5363TIP3    H237581   1.403   1.941  15.084  0.3336 -1.8036  1.1050
 5364TIP3   OH237582   0.739   2.586   3.671 -0.0634  0.2703  0.4016
 5364TIP3    H137583   0.812   2.647   3.678 -0.5090  0.9057 -0.3184
 5364TIP3    H237584   0.678   2.613   3.739 -0.9885  1.6579 -0.9631
 5365TIP3   OH237585   5.703   6.678  11.837  0.1778 -0.2743 -0.1084
 5365TIP3    H137586   5.680   6.722  11.755  0.6165 -0.9375 -0.5971
 5365TIP3    H237587   5.625   6.687  11.892  0.1663  0.8525 -0.3065
 5366TIP3   OH237588   3.730   1.164   3.112  0.1529 -0.5387  0.3474
 5366TIP3    H137589   3.704   1.098   3.048  0.5136  2.3639 -2.9524
 5366TIP3    H237590   3.824   1.151   3.123 -0.0964 -1.7475  1.1883
 5367TIP3   OH237591   2.572   4.777   3.624 -0.4571  0.2527  1.0092
 5367TIP3    H137592   2.637   4.827   3.674 -0.2934 -0.7480  1.8019
 5367TIP3    H237593   2.492   4.783   3.677 -0.3796 -0.4994  1.2148
 5368TIP3   OH237594   2.718   6.389  13.726  0.7587  0.3240  0.3499
 5368TIP3    H137595   2.748   6.439  13.802  1.0112 -0.6690  0.9167
 5368TIP3    H237596   2.781   6.316  13.719  1.0897  0.7316 -1.1663
 5369TIP3   OH237597   6.139   0.285   2.408  0.1074 -0.1623 -0.0792
 5369TIP3    H137598   6.173   0.359   2.358 -1.2000  1.5459  1.4465
 5369TIP3    H237599   6.211   0.260   2.466 -0.1067  1.2790  0.8325
 5370TIP3   OH237600   6.339   6.216   5.206 -0.1234  0.0189  0.2912
 5370TIP3    H137601   6.426   6.244   5.177 -1.3132  1.9548 -1.5245
 5370TIP3    H237602   6.293   6.192   5.125 -1.4052 -0.6316  1.1935
 5371TIP3   OH237603   0.201   0.734  13.241 -0.5132  0.0251  0.3373
 5371TIP3    H137604   0.119   0.780  13.226 -1.3978 -0.6611  2.8358
 5371TIP3    H237605   0.256   0.799  13.286  0.2557  0.4136 -1.1379
 5372TIP3   OH237606   6.505   3.842   1.584  0.2584 -0.2098 -0.1758
 5372TIP3    H137607   6.486   3.770   1.523  1.9402 -1.9311  1.2408
 5372TIP3    H237608   6.571   3.894   1.539 -0.4310  0.0339 -0.9133
 5373TIP3   OH237609   3.734   6.468  10.552  0.6808 -0.1805 -0.0544
 5373TIP3    H137610   3.639   6.475  10.543  0.6480 -0.0226  0.3913
 5373TIP3    H237611   3.747   6.410  10.627  0.9409 -0.7473 -0.5303
 5374TIP3   OH237612   4.652   5.414   0.469 -0.1173  0.7246  0.5647
 5374TIP3    H137613   4.656   5.410   0.564  0.4395 -0.3350  0.5029
 5374TIP3    H237614   4.559   5.422   0.449 -0.2210  1.1758  1.1979
 5375TIP3   OH237615   2.709   5.240   0.199 -0.0416 -0.2970  0.4496
 5375TIP3    H137616   2.772   5.272   0.135  0.0813 -1.0521  0.1877
 5375TIP3    H237617   2.631   5.218   0.147 -0.4403  0.4190  0.7417
 5376TIP3   OH237618   5.036   0.969  17.033 -0.6289 -0.3050  0.3757
 5376TIP3    H137619   5.046   0.950  16.939 -1.4373  3.6667 -0.5881
 5376TIP3    H237620   5.086   0.900  17.076 -0.4912 -2.4194 -2.9554
 5377TIP3   OH237621   1.914   1.572   0.475  0.1157  0.0810  0.3303
 5377TIP3    H137622   1.878   1.592   0.388 -0.1600 -0.8879  0.2120
 5377TIP3    H237623   1.877   1.638   0.532 -0.3098  0.2668 -0.1548
 5378TIP3   OH237624   1.174   4.352  13.762 -0.1885  0.1970 -0.0630
 5378TIP3    H137625   1.186   4.322  13.672  2.2958  1.6308 -0.2407
 5378TIP3    H237626   1.153   4.273  13.811  0.5304 -0.9203 -1.5233
 5379TIP3   OH237627   4.580   2.138   6.176  0.0665  0.0207  0.5579
 5379TIP3    H137628   4.669   2.103   6.188  0.5047  0.7124 -0.6703
 5379TIP3    H237629   4.587   2.231   6.198 -0.0879  0.3428 -0.7492
 5380TIP3   OH237630   5.845   0.693   0.659  0.4121  0.7754 -0.3417
 5380TIP3    H137631   5.898   0.622   0.694  0.4897  0.7802 -0.4499
 5380TIP3    H237632   5.766   0.694   0.714 -0.8527 -1.1918 -2.0515
 5381TIP3   OH237633   5.698   0.944   1.098  0.1323 -0.0150  0.9249
 5381TIP3    H137634   5.793   0.938   1.088  0.1104  0.6780  0.2167
 5381TIP3    H237635   5.684   0.971   1.189  0.5892 -0.6922  1.1931
 5382TIP3   OH237636   6.706   6.479   4.442  0.5977  0.3381 -0.0941
 5382TIP3    H137637   6.752   6.540   4.500 -0.5071  0.7246  0.3918
 5382TIP3    H237638   6.613   6.500   4.453  0.3719  0.4326 -2.0490
 5383TIP3   OH237639   3.980   0.901   1.931 -0.3619 -0.1563  0.2388
 5383TIP3    H137640   4.070   0.911   1.965  0.3179  0.7457 -1.7798
 5383TIP3    H237641   3.961   0.808   1.944 -0.0041  0.0664  2.7348
 5384TIP3   OH237642   1.562   6.303   2.368  0.4164  0.2235  0.5024
 5384TIP3    H137643   1.544   6.211   2.388 -1.0316  0.6526  1.2828
 5384TIP3    H237644   1.652   6.304   2.337  0.0683 -1.6196 -0.6227
 5385TIP3   OH237645   0.040   1.057  16.285 -0.4003  0.3061 -0.4337
 5385TIP3    H137646   0.085   1.131  16.327  2.5933 -0.6890 -1.7568
 5385TIP3    H237647   0.048   1.074  16.191  1.5620 -2.3341 -0.8002
 5386TIP3   OH237648   3.944   2.961  12.546 -0.7681 -0.0609 -0.2642
 5386TIP3    H137649   4.018   2.976  12.487 -1.7928  0.1639 -1.5186
 5386TIP3    H237650   3.906   2.878  12.516 -2.9084  1.3862 -1.6569
 5387TIP3   OH237651   1.364   0.840   4.848  0.0698 -0.0448  0.3037
 5387TIP3    H137652   1.304   0.777   4.889 -0.1850  0.1876  0.2863
 5387TIP3    H237653   1.410   0.880   4.922 -0.1229  0.1062  0.3405
 5388TIP3   OH237654   3.209   3.428  11.651  0.2351 -1.4863 -0.1234
 5388TIP3    H137655   3.128   3.385  11.626 -1.6410  1.6471  0.3726
 5388TIP3    H237656   3.238   3.473  11.571  0.8136 -1.5324  0.0538
 5389TIP3   OH237657   1.031   5.829   4.003 -0.4736  0.2121 -0.7169
 5389TIP3    H137658   0.987   5.785   4.076  2.0338  1.2086  1.4894
 5389TIP3    H237659   1.046   5.760   3.939 -0.3308 -1.2680  0.8764
 5390TIP3   OH237660   3.279   4.295   1.087 -0.5391 -0.1980 -0.3925
 5390TIP3    H137661   3.323   4.330   1.010 -1.4330  0.8224 -0.4416
 5390TIP3    H237662   3.262   4.371   1.142  1.2223 -1.0726  1.4152
 5391TIP3   OH237663   5.675   5.601  11.014  0.2293  0.1861 -0.1062
 5391TIP3    H137664   5.751   5.562  10.970 -0.2627 -1.1794  0.2252
 5391TIP3    H237665   5.610   5.531  11.017 -0.2726  0.6883  1.5090
 5392TIP3   OH237666   2.324   4.066  13.279  0.1960 -0.0054 -0.0079
 5392TIP3    H137667   2.299   3.977  13.255  0.0863 -0.1993  0.8146
 5392TIP3    H237668   2.241   4.113  13.288  0.1816 -0.2323  1.1166
 5393TIP3   OH237669   5.240   2.067  11.785  0.9358  0.2164 -0.6833
 5393TIP3    H137670   5.207   2.155  11.772  0.0826 -0.1653 -1.1479
 5393TIP3    H237671   5.207   2.018  11.710 -1.2374 -1.2527  1.1707
 5394TIP3   OH237672   3.948   0.019  11.498  1.1152 -0.0248 -0.3312
 5394TIP3    H137673   3.892   0.052  11.568  0.4093 -1.2568 -0.3107
 5394TIP3    H237674   4.036   0.048  11.522  1.0988 -1.5974  1.7963
 5395TIP3   OH237675   1.683   3.434  13.482 -0.4509 -0.0163  0.1596
 5395TIP3    H137676   1.638   3.453  13.564  0.7780  1.0252  0.6215
 5395TIP3    H237677   1.656   3.505  13.423 -0.1211  0.1228  0.1705
 5396TIP3   OH237678   1.027   4.142   2.394  0.8193  0.3322 -0.5083
 5396TIP3    H137679   0.941   4.162   2.431  0.3011  0.0442 -1.5446
 5396TIP3    H237680   1.056   4.063   2.439  1.0556  1.0770  0.6621
 5397TIP3   OH237681   1.013   2.425  13.170 -0.5896 -0.2127  0.2162
 5397TIP3    H137682   1.026   2.386  13.256 -0.6548  2.5416  1.5141
 5397TIP3    H237683   1.101   2.440  13.136 -0.5630 -2.2593 -0.6791
 5398TIP3   OH237684   5.206   3.115  14.107 -0.0275 -0.5101  0.3369
 5398TIP3    H137685   5.176   3.193  14.153  1.5485 -0.0034  0.5381
 5398TIP3    H237686   5.163   3.042  14.152  0.9330  0.0268  2.1787
 5399TIP3   OH237687   2.830   3.333  15.941 -0.3727 -0.6873 -0.3225
 5399TIP3    H137688   2.816   3.329  15.847 -0.6056 -1.5627 -0.2531
 5399TIP3    H237689   2.813   3.424  15.964  0.3695 -0.3060 -1.2332
 5400TIP3   OH237690   6.218   4.627   5.485  0.2502 -0.2285 -0.2175
 5400TIP3    H137691   6.181   4.685   5.418 -0.2860 -1.2257 -0.7908
 5400TIP3    H237692   6.210   4.539   5.448 -2.1522 -1.0485  2.1190
 5401TIP3   OH237693   1.344   5.992   0.161  0.1878  0.2645  0.0651
 5401TIP3    H137694   1.331   6.083   0.135  0.4520  0.0236 -0.9224
 5401TIP3    H237695   1.389   5.952   0.087  0.7988 -0.4727  0.8233
 5402TIP3   OH237696   4.178   4.875   0.007 -0.3410  0.4911  0.1287
 5402TIP3    H137697   4.218   4.792  -0.019 -1.7470 -0.5336  1.1481
 5402TIP3    H237698   4.091   4.850   0.039 -0.5199  2.2864  1.0613
 5403TIP3   OH237699   4.135   1.027  14.535  0.3068  0.1579  0.3063
 5403TIP3    H137700   4.057   0.995  14.582 -0.7292  1.1277 -0.7363
 5403TIP3    H237701   4.171   1.095  14.592 -0.2432  0.4737  0.2787
 5404TIP3   OH237702   5.291   3.359   5.781 -0.0468 -0.4618  0.2401
 5404TIP3    H137703   5.341   3.380   5.703  1.6214 -1.7942  0.9264
 5404TIP3    H237704   5.273   3.265   5.774  1.0081 -0.8105  1.9389
 5405TIP3   OH237705   5.766   2.779   1.237  0.8076 -0.3604 -0.1488
 5405TIP3    H137706   5.681   2.787   1.193  0.2533 -2.3192  0.5409
 5405TIP3    H237707   5.756   2.703   1.294  2.0813  1.1125  2.0904
 5406TIP3   OH237708   6.811   1.063  12.834 -0.1523 -1.0301  0.2653
 5406TIP3    H137709   6.725   1.105  12.833 -0.2216 -1.1909 -0.8146
 5406TIP3    H237710   6.817   1.023  12.921  0.2019  1.8196  1.6112
 5407TIP3   OH237711   3.065   0.879  15.200  0.6105  0.1886 -0.0334
 5407TIP3    H137712   3.098   0.966  15.223 -0.3946  0.4400  0.4722
 5407TIP3    H237713   3.092   0.866  15.109  0.8329  1.0018 -0.0839
 5408TIP3   OH237714   6.565   3.399   3.840  0.1677 -0.2919  0.3297
 5408TIP3    H137715   6.570   3.398   3.936 -2.2391  0.0274  0.4828
 5408TIP3    H237716   6.515   3.321   3.817  0.2870 -0.0923 -0.6353
 5409TIP3   OH237717   0.180   2.692   4.949  0.5867 -0.2919 -0.0160
 5409TIP3    H137718   0.218   2.662   5.032 -0.6847  0.4090  0.8340
 5409TIP3    H237719   0.156   2.783   4.965  1.2961  0.1735 -1.5041
 5410TIP3   OH237720   0.344   6.508   2.520 -0.3156  0.0317  0.4222
 5410TIP3    H137721   0.288   6.460   2.459 -0.9504  1.1184  0.1341
 5410TIP3    H237722   0.416   6.541   2.466  0.1413 -0.6186  0.6267
 5411TIP3   OH237723   0.903   1.095  12.169 -0.4360  0.1559  0.1003
 5411TIP3    H137724   0.891   1.173  12.114  0.5755  0.5920  0.4927
 5411TIP3    H237725   0.893   1.128  12.258  0.9984  0.0311  0.3158
 5412TIP3   OH237726   0.696   0.436   4.454 -0.4942 -0.2785  0.5428
 5412TIP3    H137727   0.710   0.405   4.543 -0.4687  0.2169  0.7128
 5412TIP3    H237728   0.728   0.526   4.455 -0.9758 -0.1009  0.1657
 5413TIP3   OH237729   6.378   1.580  15.461  0.4151  0.1536  0.2790
 5413TIP3    H137730   6.395   1.493  15.427  0.6412  0.7162 -1.1038
 5413TIP3    H237731   6.333   1.626  15.389  0.9006  1.3698  0.7310
 5414TIP3   OH237732   1.477   6.047   0.634  0.1676  0.8481 -0.2543
 5414TIP3    H137733   1.567   6.069   0.658  0.9368 -1.3408 -1.0551
 5414TIP3    H237734   1.457   5.967   0.682  0.2267 -1.1748 -3.4189
 5415TIP3   OH237735   1.612   5.261  11.787  0.4372  0.2568  0.4143
 5415TIP3    H137736   1.612   5.356  11.801  1.9783  0.1697  1.0736
 5415TIP3    H237737   1.643   5.224  11.870 -1.5039 -0.9163  0.6533
 5416TIP3   OH237738   4.377   1.756   1.895 -0.1098 -0.1291  0.5414
 5416TIP3    H137739   4.393   1.781   1.804 -0.5300  0.3906  0.6068
 5416TIP3    H237740   4.358   1.662   1.891 -0.7801  0.0258  0.0129
 5417TIP3   OH237741   5.483   0.039  15.044 -0.1475  0.3305  0.2013
 5417TIP3    H137742   5.403   0.081  15.076  0.3739  0.4126  1.4329
 5417TIP3    H237743   5.517  -0.008  15.120  0.5301 -0.3908 -0.5403
 5418TIP3   OH237744   3.785   4.753   3.327  0.5282  0.4257  0.2114
 5418TIP3    H137745   3.720   4.735   3.394  1.2112  0.8950  1.0142
 5418TIP3    H237746   3.858   4.795   3.375  0.4189  2.0915 -1.0266
 5419TIP3   OH237747   1.602   6.357  12.543  0.6719  0.0713  0.1057
 5419TIP3    H137748   1.570   6.356  12.453  1.2627  0.5827 -0.1157
 5419TIP3    H237749   1.633   6.269  12.559 -2.6015 -1.0111  0.9706
 5420TIP3   OH237750   3.961   5.135  13.897 -0.0737 -0.1157  0.0682
 5420TIP3    H137751   3.961   5.048  13.936 -2.3257 -0.9116 -1.6214
 5420TIP3    H237752   3.976   5.120  13.803 -2.0280  1.1694 -0.4860
 5421TIP3   OH237753   2.843   0.522  13.953 -0.0318 -0.0711 -0.1574
 5421TIP3    H137754   2.860   0.432  13.983  0.5874  0.9253  2.6114
 5421TIP3    H237755   2.929   0.553  13.924  0.0284  0.0797  0.1800
 5422TIP3   OH237756   4.782   2.048  13.071 -0.1333 -0.1363  0.3394
 5422TIP3    H137757   4.756   1.956  13.078  0.6056 -0.5642 -2.1969
 5422TIP3    H237758   4.712   2.096  13.116 -2.9355 -1.5894 -2.3261
 5423TIP3   OH237759   5.070   0.324   2.510 -0.3687 -0.2470 -0.2586
 5423TIP3    H137760   5.029   0.277   2.437 -1.3821 -1.5846  1.1317
 5423TIP3    H237761   5.003   0.383   2.542  0.4362  1.1367 -1.0864
 5424TIP3   OH237762   1.202   3.784  11.342 -0.3442  0.6353 -0.1630
 5424TIP3    H137763   1.273   3.764  11.403 -1.0428 -1.7555 -0.0688
 5424TIP3    H237764   1.226   3.737  11.262 -2.9351 -2.2404  0.6435
 5425TIP3   OH237765   0.189   3.398   4.205 -0.3232  0.3299 -1.0355
 5425TIP3    H137766   0.139   3.320   4.181  1.7704 -0.7904 -1.9010
 5425TIP3    H237767   0.277   3.366   4.223 -0.0034  2.1999  0.9337
 5426TIP3   OH237768   2.145   5.187  11.518  0.0969 -0.5616 -0.1749
 5426TIP3    H137769   2.055   5.156  11.522  0.2019 -0.7559  0.9346
 5426TIP3    H237770   2.160   5.227  11.604  0.7833  0.2505 -0.6668
 5427TIP3   OH237771   5.160   1.882  15.137  0.7979  0.1766 -0.1136
 5427TIP3    H137772   5.189   1.940  15.067  2.3955  0.9371  1.1316
 5427TIP3    H237773   5.117   1.940  15.200  1.8245 -0.0498  0.8248
 5428TIP3   OH237774   0.410   5.353   2.806  0.7050  0.2775  0.0387
 5428TIP3    H137775   0.418   5.421   2.739  1.0049  0.2650  0.0587
 5428TIP3    H237776   0.398   5.402   2.888  0.2491  0.2895 -0.0371
 5429TIP3   OH237777   2.209   4.260  12.249 -0.0534  0.3300 -0.3827
 5429TIP3    H137778   2.213   4.258  12.345 -1.2907  0.9160 -0.3194
 5429TIP3    H237779   2.296   4.230  12.221 -0.0950 -1.0435  0.9144
 5430TIP3   OH237780   3.115   0.798   5.358  0.3927 -0.2920  0.4587
 5430TIP3    H137781   3.124   0.868   5.423  0.8002 -0.4375  0.5611
 5430TIP3    H237782   3.198   0.799   5.310 -0.2837  0.4711 -0.7175
 5431TIP3   OH237783   2.546   2.637  12.364  0.2879  0.4746  0.1754
 5431TIP3    H137784   2.521   2.708  12.306 -0.9280 -0.6559 -0.6926
 5431TIP3    H237785   2.618   2.593  12.319 -1.6432 -1.3371 -1.2562
 5432TIP3   OH237786   0.037   2.442   5.069  0.3735  0.4572  0.2834
 5432TIP3    H137787   0.006   2.366   5.020  1.2523 -0.6960  1.5057
 5432TIP3    H237788  -0.037   2.503   5.067  0.0815  0.0627 -1.6992
 5433TIP3   OH237789   5.938   6.296   2.801  0.3308  0.2729  0.0795
 5433TIP3    H137790   5.942   6.369   2.863  0.7218  0.5647 -0.2898
 5433TIP3    H237791   6.013   6.241   2.823 -1.0911 -1.0965  1.6844
 5434TIP3   OH237792   4.342   1.966   1.228  0.4350 -0.8185  0.1549
 5434TIP3    H137793   4.346   1.885   1.280  0.5227  0.0262  1.4999
 5434TIP3    H237794   4.310   2.032   1.290  2.2101  0.5960 -0.3855
 5435TIP3   OH237795   0.253   2.516  16.537 -0.6286  0.3368 -0.0597
 5435TIP3    H137796   0.213   2.597  16.505 -1.8175 -0.2388 -0.0551
 5435TIP3    H237797   0.286   2.538  16.624 -0.8411  0.8446 -0.1062
 5436TIP3   OH237798   0.750   2.929   2.701 -0.0773  0.6719  0.1200
 5436TIP3    H137799   0.672   2.876   2.719 -0.0056  1.5524  3.1959
 5436TIP3    H237800   0.811   2.868   2.661 -1.2423 -0.7561  0.4670
 5437TIP3   OH237801   3.815   2.050  15.755 -0.0420  0.2256 -0.5779
 5437TIP3    H137802   3.808   1.955  15.760 -1.6557  0.4220  1.6150
 5437TIP3    H237803   3.877   2.073  15.824 -2.2972  0.9998  1.2599
 5438TIP3   OH237804   2.330   4.086   6.753 -0.1883 -0.2520  0.0238
 5438TIP3    H137805   2.342   4.026   6.679 -1.0987 -0.8726  0.3676
 5438TIP3    H237806   2.241   4.118   6.744 -0.0478  0.2558  0.4315
 5439TIP3   OH237807   1.478   0.580   5.651 -0.5768 -0.2884 -0.6881
 5439TIP3    H137808   1.438   0.522   5.586 -2.6969 -1.0706  1.2502
 5439TIP3    H237809   1.411   0.589   5.719  1.4253  0.8635  1.1731
 5440TIP3   OH237810   0.473   4.070  15.934 -0.1321 -0.1138 -0.0975
 5440TIP3    H137811   0.562   4.073  15.901  0.6466 -0.6197  1.8986
 5440TIP3    H237812   0.428   4.141  15.888  1.3105  0.2311 -1.0173
 5441TIP3   OH237813   2.774   6.568  16.856  0.2005  0.4221  0.3729
 5441TIP3    H137814   2.711   6.627  16.814 -2.6150 -2.2653  0.7177
 5441TIP3    H237815   2.798   6.506  16.787  1.0207  0.2349  0.8157
 5442TIP3   OH237816   5.396   5.148   5.630 -0.7337  0.0659  0.4025
 5442TIP3    H137817   5.409   5.206   5.706  0.2061  0.6019 -0.1493
 5442TIP3    H237818   5.364   5.206   5.561 -1.5505 -0.4155  0.3732
 5443TIP3   OH237819   6.192   5.498  13.811  0.1411  0.2409  0.7790
 5443TIP3    H137820   6.233   5.580  13.785  2.6252 -1.4885 -0.9801
 5443TIP3    H237821   6.098   5.512  13.794  0.8760  1.6166 -2.5817
 5444TIP3   OH237822   1.143   4.086  15.992 -0.0357  0.2735 -0.0428
 5444TIP3    H137823   1.053   4.100  16.023 -0.8510  0.1149 -2.1898
 5444TIP3    H237824   1.198   4.100  16.069 -1.9358 -0.1165  1.4241
 5445TIP3   OH237825   2.264   5.867  11.608 -0.2051 -0.3917  0.5046
 5445TIP3    H137826   2.341   5.916  11.581 -0.5875 -0.3514 -0.5332
 5445TIP3    H237827   2.278   5.779  11.572 -0.9532 -0.2001 -0.2674
 5446TIP3   OH237828   2.736   4.635   3.896  0.3172  0.0008  0.5964
 5446TIP3    H137829   2.739   4.727   3.869 -0.8186 -0.1695 -0.1547
 5446TIP3    H237830   2.655   4.601   3.857  0.3306 -1.1196  1.5007
 5447TIP3   OH237831   0.540   0.174  15.630  0.0071 -0.4912 -0.0897
 5447TIP3    H137832   0.542   0.164  15.725 -0.5443 -0.0649 -0.0295
 5447TIP3    H237833   0.455   0.215  15.612 -0.0488 -0.9136 -0.7979
 5448TIP3   OH237834   5.725   1.971  14.837 -0.0227  0.1250  0.2732
 5448TIP3    H137835   5.783   2.046  14.828  0.1695 -0.1199 -0.5423
 5448TIP3    H237836   5.779   1.895  14.814 -1.0282  0.0226 -1.9309
 5449TIP3   OH237837   5.866   1.576   4.841  0.3208 -0.3500  0.0153
 5449TIP3    H137838   5.808   1.650   4.856  0.9138  0.0649  0.2624
 5449TIP3    H237839   5.903   1.591   4.754 -2.5710 -2.3892 -1.6689
 5450TIP3   OH237840   3.626   6.268   5.405 -0.0201 -0.2000  0.0561
 5450TIP3    H137841   3.581   6.199   5.454 -1.1682  0.4645 -0.0292
 5450TIP3    H237842   3.582   6.349   5.431  0.4401  0.3479 -0.8188
 5451TIP3   OH237843   5.499   4.518   1.754  0.0420  0.4120 -0.2881
 5451TIP3    H137844   5.489   4.519   1.849  0.9721  2.1326 -0.1839
 5451TIP3    H237845   5.436   4.583   1.723 -2.4633 -2.3009 -1.1284
 5452TIP3   OH237846   0.823   4.176   4.781 -0.5525 -0.0802  0.3574
 5452TIP3    H137847   0.777   4.160   4.699 -0.0929 -0.6598  0.2035
 5452TIP3    H237848   0.755   4.199   4.844 -0.8653  0.8088 -0.2925
 5453TIP3   OH237849   0.129   5.188   4.067 -0.2922 -0.0103 -0.4684
 5453TIP3    H137850   0.066   5.235   4.012 -1.0586  0.8919  1.1166
 5453TIP3    H237851   0.104   5.096   4.059 -1.5595  0.2937 -0.2243
 5454TIP3   OH237852   1.099   6.069  13.321  0.3043 -0.1361  0.1696
 5454TIP3    H137853   1.018   6.018  13.319 -0.6332  1.3152  0.8879
 5454TIP3    H237854   1.165   6.007  13.351 -0.8838 -0.8527  1.3520
 5455TIP3   OH237855   4.800   5.376   3.736 -0.1637 -0.2819  0.2930
 5455TIP3    H137856   4.888   5.407   3.756 -0.6341  0.3918  1.3432
 5455TIP3    H237857   4.782   5.411   3.648 -0.1674  1.2959  0.9094
 5456TIP3   OH237858   3.364   3.582  13.820  0.2496  0.6243 -0.1789
 5456TIP3    H137859   3.282   3.573  13.772 -0.5560 -0.2703  1.3292
 5456TIP3    H237860   3.345   3.549  13.908  2.7398 -1.4177 -0.3369
 5457TIP3   OH237861   2.816   4.484  15.255 -0.3692 -0.5680 -0.0706
 5457TIP3    H137862   2.853   4.523  15.334  1.6722  0.4292 -1.4785
 5457TIP3    H237863   2.723   4.473  15.275 -0.2192  1.2948  1.8335
 5458TIP3   OH237864   4.385   5.557  11.403  0.0026  0.0357  0.5940
 5458TIP3    H137865   4.429   5.641  11.395 -0.2442  0.0905 -0.3094
 5458TIP3    H237866   4.296   5.573  11.369  0.0182 -0.6328  0.2147
 5459TIP3   OH237867   3.233   3.813  13.162 -0.1919  0.4061 -0.7693
 5459TIP3    H137868   3.259   3.902  13.137  0.5683  0.7508  1.1993
 5459TIP3    H237869   3.254   3.759  13.086  2.1921  1.4160 -0.8556
 5460TIP3   OH237870   4.935   5.851  14.261 -0.2498 -0.2456  0.5086
 5460TIP3    H137871   4.970   5.779  14.314 -1.4123 -0.1740  1.4032
 5460TIP3    H237872   4.915   5.812  14.176 -1.9637 -1.2704  1.3586
 5461TIP3   OH237873   6.467   5.052  16.052  0.2093  0.8082 -0.1264
 5461TIP3    H137874   6.506   5.131  16.016 -0.1441  0.7186 -0.7025
 5461TIP3    H237875   6.530   4.982  16.032 -0.2109  0.6773 -0.9806
 5462TIP3   OH237876   5.805   1.158   0.083 -0.3731 -0.3507 -0.3264
 5462TIP3    H137877   5.801   1.068   0.051 -1.4009 -0.7864  0.9842
 5462TIP3    H237878   5.751   1.208   0.021  1.5740 -0.3009 -2.0436
 5463TIP3   OH237879   6.783   6.048   0.987  0.3051  0.6345 -0.0790
 5463TIP3    H137880   6.748   5.963   1.015  1.5921  0.7876  2.0625
 5463TIP3    H237881   6.710   6.109   0.999  0.4439  0.4592  1.7372
 5464TIP3   OH237882   4.425   0.788   1.765  0.2538 -0.4011  0.0432
 5464TIP3    H137883   4.388   0.874   1.782  1.7504 -0.1472  2.2168
 5464TIP3    H237884   4.385   0.731   1.831  1.1473 -0.8152  0.2439
 5465TIP3   OH237885   4.793   5.633   3.003  0.2010  0.2926  0.3221
 5465TIP3    H137886   4.707   5.632   2.961 -0.5919 -2.8497  1.8410
 5465TIP3    H237887   4.785   5.698   3.073 -0.3698  1.2812 -0.6560
 5466TIP3   OH237888   4.942   3.674  10.797 -0.6664 -0.1083 -0.3409
 5466TIP3    H137889   4.890   3.607  10.753 -1.5637  1.2439 -1.3640
 5466TIP3    H237890   4.996   3.712  10.728  0.1113 -0.0268  0.3057
 5467TIP3   OH237891   4.042   2.046   5.099 -0.2883  0.5131 -0.3266
 5467TIP3    H137892   4.137   2.056   5.091 -0.1277 -0.9907 -0.3546
 5467TIP3    H237893   4.028   2.025   5.191 -0.5059 -0.1595 -0.5119
 5468TIP3   OH237894   2.688   2.822   1.881 -0.1081 -0.1728  0.3390
 5468TIP3    H137895   2.690   2.790   1.791 -0.9054 -0.8761  0.5705
 5468TIP3    H237896   2.760   2.775   1.924 -0.1520 -0.3266  0.2427
 5469TIP3   OH237897   6.355   5.584  12.262 -0.0625 -0.0983 -0.1835
 5469TIP3    H137898   6.349   5.670  12.305  0.0846 -0.2651  0.1730
 5469TIP3    H237899   6.449   5.569  12.252 -0.0934 -0.1201 -0.4452
 5470TIP3   OH237900   3.291   0.181  11.540  0.0604 -0.4091  0.0495
 5470TIP3    H137901   3.352   0.205  11.470 -1.1341 -1.1655 -1.2531
 5470TIP3    H237902   3.257   0.265  11.572  1.3391 -0.0133  0.4139
 5471TIP3   OH237903   0.539   2.634  11.217  0.2831 -0.1642 -0.1552
 5471TIP3    H137904   0.556   2.725  11.239 -0.3671 -0.3493  1.1226
 5471TIP3    H237905   0.626   2.595  11.207  0.5924  1.0417 -2.7227
 5472TIP3   OH237906   2.784   2.122  12.483 -0.2330  0.2731 -0.3775
 5472TIP3    H137907   2.832   2.189  12.530  2.4900 -0.9728 -1.2711
 5472TIP3    H237908   2.841   2.099  12.409 -1.5076 -2.3399 -0.6031
 5473TIP3   OH237909   3.754   4.149  12.487  0.1724 -0.1255 -0.2197
 5473TIP3    H137910   3.835   4.184  12.449 -1.0720  1.0344 -1.9046
 5473TIP3    H237911   3.725   4.218  12.547 -0.0772 -0.0927 -0.3754
 5474TIP3   OH237912   4.701   0.507   1.790 -0.4732 -0.1647  0.4942
 5474TIP3    H137913   4.694   0.575   1.857 -0.6869  0.1062  0.1983
 5474TIP3    H237914   4.793   0.508   1.764 -0.1118 -1.1354  1.6816
 5475TIP3   OH237915   5.722   5.159  10.977 -0.0569  0.4480 -0.4502
 5475TIP3    H137916   5.677   5.182  10.895  0.2142  1.1572 -0.4103
 5475TIP3    H237917   5.815   5.168  10.956  0.0604 -0.6519 -0.4275
 5476TIP3   OH237918   3.823   4.794  11.461  0.4872  0.3033  0.8309
 5476TIP3    H137919   3.763   4.816  11.389  0.7259  0.4394  0.6729
 5476TIP3    H237920   3.840   4.877  11.504  1.5061  0.4597  0.1436
 5477TIP3   OH237921   3.688   5.162  13.399 -0.8910  0.2156 -0.4311
 5477TIP3    H137922   3.593   5.174  13.393 -1.1098 -0.0685  1.9798
 5477TIP3    H237923   3.699   5.090  13.461  0.9404  2.3908  1.8886
 5478TIP3   OH237924   2.807   3.052  16.079 -0.3285 -0.1619  0.3710
 5478TIP3    H137925   2.873   3.105  16.125  0.2685 -0.9630  0.4443
 5478TIP3    H237926   2.745   3.116  16.045  1.9617  0.8661 -2.0998
 5479TIP3   OH237927   2.183   1.310   1.240  0.8896 -0.4752  0.0635
 5479TIP3    H137928   2.257   1.256   1.267  0.4368 -0.3045  1.6548
 5479TIP3    H237929   2.144   1.261   1.167  1.2019 -1.7142  0.7104
 5480TIP3   OH237930   5.532   1.471   3.776  0.4315 -0.0189  0.3924
 5480TIP3    H137931   5.464   1.490   3.841  3.0627  0.3718  3.1238
 5480TIP3    H237932   5.584   1.402   3.816  2.9800  1.2438 -0.6616
 5481TIP3   OH237933   1.721   6.014   1.765 -0.2599  0.5068 -0.0238
 5481TIP3    H137934   1.700   5.948   1.832  1.0987  0.0592 -0.0231
 5481TIP3    H237935   1.699   6.097   1.806 -0.5421  0.1533  0.5493
 5482TIP3   OH237936   4.608   2.759  13.793  0.6913 -0.0409 -0.4638
 5482TIP3    H137937   4.643   2.757  13.704  1.4173 -0.7055 -0.1634
 5482TIP3    H237938   4.627   2.673  13.828 -1.3466 -0.4582 -0.3320
 5483TIP3   OH237939   0.883   5.696   2.213  0.2576 -0.2713  0.6211
 5483TIP3    H137940   0.863   5.750   2.136 -0.0070  0.1585  0.9853
 5483TIP3    H237941   0.803   5.646   2.228  0.8581 -1.5334 -0.3317
 5484TIP3   OH237942   3.466   3.301  15.776  0.5107 -0.4539  0.4415
 5484TIP3    H137943   3.452   3.279  15.684  0.6162  0.1503  0.2782
 5484TIP3    H237944   3.396   3.363  15.797  1.6114  0.9100  0.2230
 5485TIP3   OH237945   0.655   5.465  11.732  0.0549  0.0854  0.1546
 5485TIP3    H137946   0.617   5.551  11.717 -0.4360 -0.1471  0.0317
 5485TIP3    H237947   0.580   5.407  11.745  0.4486  0.2227  3.3583
 5486TIP3   OH237948   0.517   3.249  13.469  0.0847  0.1327 -0.2264
 5486TIP3    H137949   0.436   3.300  13.476 -0.3118 -0.6228  0.8444
 5486TIP3    H237950   0.571   3.281  13.541  1.6936  2.2617 -2.2896
 5487TIP3   OH237951   3.544   2.287   2.881  0.3830 -0.1157  0.2382
 5487TIP3    H137952   3.591   2.302   2.963  0.2376  1.6088  0.0244
 5487TIP3    H237953   3.452   2.304   2.902  0.6080  2.8440 -0.8162
 5488TIP3   OH237954   3.943   3.186   1.245  0.5708  0.2126  0.6553
 5488TIP3    H137955   3.939   3.099   1.284 -0.8560 -0.6807 -1.3997
 5488TIP3    H237956   4.021   3.182   1.188  0.8559  0.4898  1.0224
 5489TIP3   OH237957   0.003   4.052   1.900  0.3895  0.6517 -0.4089
 5489TIP3    H137958   0.072   4.118   1.897 -0.3072  1.3561 -0.8528
 5489TIP3    H237959  -0.043   4.069   1.982  0.0947  0.8315 -0.6125
 5490TIP3   OH237960   5.210   6.272  12.043 -0.1682  0.0659 -0.3315
 5490TIP3    H137961   5.227   6.339  12.109 -1.7277 -0.4225  0.5996
 5490TIP3    H237962   5.282   6.280  11.981  1.4591  0.3933  1.5515
 5491TIP3   OH237963   4.219   3.600  16.341 -0.7692 -0.2224  0.0010
 5491TIP3    H137964   4.200   3.513  16.307  0.2786 -0.0810 -0.9348
 5491TIP3    H237965   4.141   3.623  16.392 -2.0125 -0.7530 -1.6322
 5492TIP3   OH237966   4.055   1.918   3.599 -0.6648 -0.0780  0.2217
 5492TIP3    H137967   4.139   1.880   3.575 -0.2118  0.7938  0.4203
 5492TIP3    H237968   4.059   1.928   3.694 -0.8889  0.2267  0.1994
 5493TIP3   OH237969   4.666   3.040   6.534 -0.3281 -0.4624 -0.1306
 5493TIP3    H137970   4.657   3.117   6.477 -2.2764 -0.3106  0.3483
 5493TIP3    H237971   4.745   3.057   6.585 -0.2388  0.8090 -0.6653
 5494TIP3   OH237972   0.016   3.338  11.833  0.6131 -0.4400  0.0997
 5494TIP3    H137973  -0.048   3.281  11.876 -0.3055 -0.8890 -1.8158
 5494TIP3    H237974  -0.007   3.426  11.862 -0.9485 -0.5912 -0.6536
 5495TIP3   OH237975   5.497   1.374  16.161 -0.1044  0.2678 -0.5012
 5495TIP3    H137976   5.585   1.411  16.166 -0.5934  1.4338 -0.3633
 5495TIP3    H237977   5.473   1.358  16.252  1.0922 -2.8245 -0.6640
 5496TIP3   OH237978   2.447   5.801  14.308 -0.9264  0.5304  0.2457
 5496TIP3    H137979   2.355   5.774  14.301 -1.1746  1.8655 -2.4297
 5496TIP3    H237980   2.454   5.840  14.395 -3.2771  1.6980 -0.0285
 5497TIP3   OH237981   5.676   3.810   5.720  0.1083 -0.0603  0.2319
 5497TIP3    H137982   5.695   3.882   5.779  1.6221 -0.1414 -0.1325
 5497TIP3    H237983   5.615   3.846   5.656 -2.1857 -0.1886  2.2719
 5498TIP3   OH237984   0.907   0.329  15.821 -0.3342  0.0552 -0.0540
 5498TIP3    H137985   0.869   0.273  15.754  0.3793  0.6693 -0.9850
 5498TIP3    H237986   0.941   0.268  15.887 -0.6682 -0.5660 -0.4531
 5499TIP3   OH237987   3.688   0.309   0.979  0.1173  0.0194 -0.2917
 5499TIP3    H137988   3.617   0.273   1.033 -0.6627 -0.6736 -1.7227
 5499TIP3    H237989   3.668   0.402   0.972 -1.6218 -0.4347 -2.0222
 5500TIP3   OH237990   6.008   3.230   1.210  0.5061  0.0445 -0.1818
 5500TIP3    H137991   6.084   3.182   1.175  0.3396 -0.4548  0.1281
 5500TIP3    H237992   5.944   3.161   1.228  0.3693  0.3641  0.5416
 5501TIP3   OH237993   4.320   1.448   5.039  0.2253 -0.9183  0.1778
 5501TIP3    H137994   4.249   1.390   5.012 -2.4137  1.3055  2.1425
 5501TIP3    H237995   4.353   1.409   5.120 -1.2598  0.0436  1.2640
 5502TIP3   OH237996   0.043   1.822   2.077  0.0646 -0.6218 -0.2126
 5502TIP3    H137997   0.128   1.809   2.035  0.7266  2.9917 -0.1425
 5502TIP3    H237998   0.048   1.770   2.158  2.4967  0.1426  0.1530
 5503TIP3   OH237999   1.024   6.194  12.807  0.2006  0.5300 -0.2694
 5503TIP3    H138000   0.946   6.144  12.831 -0.0329  0.2188 -1.5890
 5503TIP3    H238001   1.078   6.194  12.885 -0.5711 -0.3259  0.2764
 5504TIP3   OH238002   0.754   1.668  11.224  0.2140  0.3232 -0.1497
 5504TIP3    H138003   0.721   1.653  11.135 -0.3266  1.0866 -0.0814
 5504TIP3    H238004   0.697   1.736  11.260  1.2045  0.8981  0.3490
 5505TIP3   OH238005   4.871   1.615  11.677 -0.0247  0.1978  0.6689
 5505TIP3    H138006   4.828   1.668  11.744 -0.1389 -1.5169  2.0097
 5505TIP3    H238007   4.820   1.631  11.597 -1.0171  0.8544  1.4251
 5506TIP3   OH238008   0.240   2.765   2.132  0.6958  0.0224  0.8707
 5506TIP3    H138009   0.211   2.852   2.106 -1.2261 -1.1955 -1.2498
 5506TIP3    H238010   0.268   2.723   2.050  2.0108 -1.2210  1.9231
 5507TIP3   OH238011   2.375   6.731   3.518 -0.2759  0.1281  0.3734
 5507TIP3    H138012   2.411   6.683   3.592  1.4396  1.1545  0.2448
 5507TIP3    H238013   2.376   6.669   3.446  2.8738  0.5718 -0.0511
 5508TIP3   OH238014   4.004   1.207   0.452  0.2456  0.3618 -0.4958
 5508TIP3    H138015   3.968   1.142   0.391 -1.7017 -0.8459  1.8419
 5508TIP3    H238016   4.087   1.169   0.481  0.2515  0.0469 -0.9089
 5509TIP3   OH238017   4.471   4.111  16.237 -0.1712 -0.3323 -0.4294
 5509TIP3    H138018   4.377   4.127  16.229 -0.1315  0.0338 -0.1624
 5509TIP3    H238019   4.512   4.194  16.213  0.1163 -0.7575 -1.4354
 5510TIP3   OH238020   4.771   5.104   0.807 -0.0514  0.1048 -0.7827
 5510TIP3    H138021   4.830   5.163   0.759  0.1115 -0.9417 -1.9089
 5510TIP3    H238022   4.808   5.100   0.895  2.3847 -1.5736 -1.8151
 5511TIP3   OH238023   1.156   1.541   5.200 -0.3038  0.7315 -0.0347
 5511TIP3    H138024   1.178   1.574   5.288 -2.5735  1.5271  0.2669
 5511TIP3    H238025   1.222   1.579   5.143  0.3270  1.3919  1.1096
 5512TIP3   OH238026   5.644   1.578  16.882 -0.1360 -0.2183  0.6057
 5512TIP3    H138027   5.660   1.609  16.971 -0.6948 -2.3930  1.4958
 5512TIP3    H238028   5.624   1.485  16.892  0.1357 -0.5797 -1.8349
 5513TIP3   OH238029   2.387   5.013   1.619 -0.4682 -0.6026 -0.2449
 5513TIP3    H138030   2.420   5.062   1.693 -2.8634  0.0508  0.4404
 5513TIP3    H238031   2.414   4.923   1.635  0.5810 -0.1635  0.4753
 5514TIP3   OH238032   1.258   4.603   4.403  0.1548 -1.1186  0.1687
 5514TIP3    H138033   1.167   4.633   4.397 -0.3660 -2.5940  0.3481
 5514TIP3    H238034   1.305   4.675   4.446 -0.8979 -0.2819 -0.0747
 5515TIP3   OH238035   1.044   1.430  15.048 -0.9307 -0.0629 -0.1787
 5515TIP3    H138036   1.044   1.410  15.142 -2.3272 -0.1523 -0.2008
 5515TIP3    H238037   1.023   1.524  15.043  1.2259  0.4569 -0.3152
 5516TIP3   OH238038   4.985   3.636   3.300 -0.3609  0.0408 -0.2090
 5516TIP3    H138039   4.971   3.548   3.263  0.7789  0.1039 -0.8011
 5516TIP3    H238040   5.037   3.620   3.378 -1.5860  0.0422  0.6222
 5517TIP3   OH238041   1.800   6.018   1.109 -0.2011 -0.4716  0.5218
 5517TIP3    H138042   1.807   5.959   1.033  0.3558 -0.0789  0.2749
 5517TIP3    H238043   1.878   6.072   1.106 -1.3249  1.1782  0.0047
 5518TIP3   OH238044   1.366   2.225  17.286  0.1423  0.1297  0.0649
 5518TIP3    H138045   1.441   2.210  17.343  0.5661 -0.8202 -0.7447
 5518TIP3    H238046   1.326   2.305  17.321  0.1230 -0.6783  1.9810
 5519TIP3   OH238047   1.075   6.712   5.503 -0.1455  0.5331  0.4033
 5519TIP3    H138048   1.115   6.787   5.545 -2.5260  2.5283 -0.7257
 5519TIP3    H238049   1.126   6.699   5.423  1.7287 -0.5767  1.7523
 5520TIP3   OH238050   4.635   2.187  15.992 -0.3403  0.1682  1.1416
 5520TIP3    H138051   4.706   2.166  16.052  0.3326  0.8483  0.5911
 5520TIP3    H238052   4.600   2.102  15.965  1.1247 -0.1998  0.3865
 5521TIP3   OH238053   3.909   6.523   0.783  0.0417  0.2350  0.2628
 5521TIP3    H138054   3.914   6.596   0.844 -0.3246 -0.4701  1.1483
 5521TIP3    H238055   3.882   6.448   0.836 -1.0426 -0.2244 -0.8837
 5522TIP3   OH238056   4.748   4.187   6.584 -0.8370  0.5869  0.4318
 5522TIP3    H138057   4.748   4.214   6.492 -0.2695  0.3618  0.3658
 5522TIP3    H238058   4.689   4.112   6.587  1.1213 -1.0138 -0.2261
 5523TIP3   OH238059   2.839   5.035  12.479  0.3579 -0.2906  0.2843
 5523TIP3    H138060   2.922   5.047  12.433  0.5133  0.1797  0.6794
 5523TIP3    H238061   2.773   5.040  12.410  0.5460  1.0068  0.1817
 5524TIP3   OH238062   0.145   4.273   4.561  0.3119 -0.0063 -0.0315
 5524TIP3    H138063   0.187   4.306   4.640  1.7975  0.5447 -1.0223
 5524TIP3    H238064   0.180   4.328   4.491 -0.6614 -0.7623 -1.1227
 5525TIP3   OH238065   6.536   1.034  11.902 -0.3576 -0.0236 -0.5071
 5525TIP3    H138066   6.535   1.127  11.927 -0.7180 -0.0712 -0.3452
 5525TIP3    H238067   6.482   1.030  11.823 -0.3276 -0.0930 -0.5236
 5526TIP3   OH238068   5.112   2.681   5.446 -0.3693 -0.1264 -0.6357
 5526TIP3    H138069   5.132   2.633   5.527  0.0003  2.7191  1.0174
 5526TIP3    H238070   5.016   2.680   5.441 -0.4027 -0.1423 -0.0550
 5527TIP3   OH238071   2.572   4.388   4.810  0.3072 -0.1757 -0.1040
 5527TIP3    H138072   2.483   4.363   4.788  0.4854 -0.7023 -0.2214
 5527TIP3    H238073   2.563   4.447   4.885 -0.0726 -0.9112  0.4213
 5528TIP3   OH238074   5.233   2.285  16.578 -0.1109  0.2416  0.2551
 5528TIP3    H138075   5.179   2.300  16.655 -1.5044  0.0575 -0.6653
 5528TIP3    H238076   5.210   2.197  16.549 -0.7173  0.8518 -1.2118
 5529TIP3   OH238077   5.001   4.545  11.297  0.8174 -0.0861 -0.5227
 5529TIP3    H138078   4.986   4.494  11.217  1.0716 -1.8954  0.5611
 5529TIP3    H238079   4.913   4.574  11.323  0.3523 -1.9238  0.0884
 5530TIP3   OH238080   5.242   3.810   5.076  0.2699 -0.4573  0.2158
 5530TIP3    H138081   5.218   3.901   5.058 -0.8179 -0.7398  0.2079
 5530TIP3    H238082   5.192   3.786   5.154 -0.1546 -1.3312 -0.3152
 5531TIP3   OH238083   3.858   4.519   4.314 -0.2722 -0.6773  0.4829
 5531TIP3    H138084   3.878   4.606   4.348 -0.4545 -0.5106  0.1622
 5531TIP3    H238085   3.837   4.467   4.392  2.1603 -1.0607  0.9433
 5532TIP3   OH238086   1.665   4.185  15.991  0.2909  0.4636 -0.3318
 5532TIP3    H138087   1.688   4.214  16.080  0.6806 -0.4119 -0.1413
 5532TIP3    H238088   1.730   4.227  15.935  0.9600 -0.1733 -0.0402
 5533TIP3   OH238089   2.500   6.119  11.006  0.1333  0.3283  0.5165
 5533TIP3    H138090   2.487   6.181  11.079  3.6690  1.0859  0.5996
 5533TIP3    H238091   2.516   6.175  10.930  1.8847 -0.4314  0.2929
 5534TIP3   OH238092   3.308   1.927  12.824 -0.3385  0.3814  0.2923
 5534TIP3    H138093   3.275   1.842  12.854 -0.8523  0.5084  0.0960
 5534TIP3    H238094   3.402   1.922  12.838 -0.1751 -0.7704 -1.0277
 5535TIP3   OH238095   0.981   0.170  14.068 -0.1871 -0.1394 -0.7695
 5535TIP3    H138096   0.983   0.264  14.087 -0.9865  0.0884 -1.7780
 5535TIP3    H238097   0.892   0.143  14.091  0.3885 -0.8915  0.6181
 5536TIP3   OH238098   6.391   4.466   5.881 -0.4162  0.1696 -0.0234
 5536TIP3    H138099   6.375   4.511   5.964 -0.5457 -0.6282  0.3939
 5536TIP3    H238100   6.308   4.421   5.862  0.0916 -0.8905  0.2013
 5537TIP3   OH238101   2.406   1.173  16.886 -0.0053  0.0763  0.2263
 5537TIP3    H138102   2.462   1.097  16.867 -0.9383 -0.6571  0.3807
 5537TIP3    H238103   2.317   1.142  16.867 -0.3466  1.2685 -0.1105
 5538TIP3   OH238104   4.223   6.057   3.126  0.2005 -0.7915 -0.2200
 5538TIP3    H138105   4.281   6.129   3.101 -0.2726  0.0594  1.0843
 5538TIP3    H238106   4.265   6.018   3.203  0.3482 -1.7995 -0.7971
 5539TIP3   OH238107   6.773   2.240   4.909 -0.0006  0.2199 -0.0390
 5539TIP3    H138108   6.867   2.245   4.892 -0.1212  1.5478 -0.4147
 5539TIP3    H238109   6.748   2.152   4.883  1.1050 -0.0814 -0.1049
 5540TIP3   OH238110   2.148   5.279   5.269 -0.1046 -0.0641 -0.3093
 5540TIP3    H138111   2.225   5.231   5.300 -1.3884 -3.2733 -1.8613
 5540TIP3    H238112   2.101   5.303   5.348  1.6735  0.5811  0.5932
 5541TIP3   OH238113   3.181   5.335   5.093  0.3277  0.2922  0.1763
 5541TIP3    H138114   3.222   5.256   5.129 -1.0693 -0.4332  0.2115
 5541TIP3    H238115   3.124   5.366   5.164 -0.1449  0.5764 -0.3273
 5542TIP3   OH238116   3.958   0.802   3.773 -0.1968  0.1209  0.4658
 5542TIP3    H138117   3.921   0.721   3.807 -0.2520 -0.8880 -1.8508
 5542TIP3    H238118   3.901   0.871   3.808 -1.3137 -0.9995  0.9172
 5543TIP3   OH238119   6.533   5.622  14.796  0.4461 -0.1177 -0.1069
 5543TIP3    H138120   6.608   5.662  14.753 -0.0727  1.5911  0.5553
 5543TIP3    H238121   6.571   5.556  14.855  1.3644  0.1757 -0.3720
 5544TIP3   OH238122   0.023   2.209   3.601 -0.1188 -0.1621  0.2285
 5544TIP3    H138123   0.099   2.268   3.603 -0.6599  0.4905  2.1410
 5544TIP3    H238124  -0.002   2.206   3.508  1.8897  0.0460 -0.3533
 5545TIP3   OH238125   6.798   6.020   4.141 -0.1681  0.0349 -0.0719
 5545TIP3    H138126   6.833   5.944   4.188  0.7518 -0.6573 -1.8055
 5545TIP3    H238127   6.755   5.982   4.064  2.3597  1.3772 -2.2083
 5546TIP3   OH238128   3.289   5.767  16.685  0.7682 -0.2625 -0.1555
 5546TIP3    H138129   3.309   5.861  16.691 -2.0005  0.3332  0.6794
 5546TIP3    H238130   3.293   5.736  16.775 -0.8585 -0.3632 -0.1105
 5547TIP3   OH238131   3.788   2.260  14.666 -0.1474  0.8377 -0.3519
 5547TIP3    H138132   3.811   2.191  14.729  1.6067  1.2345 -0.5290
 5547TIP3    H238133   3.858   2.258  14.602 -1.1662  1.4255 -1.5040
 5548TIP3   OH238134   1.288   6.293  15.367 -0.6062 -0.0387  0.1724
 5548TIP3    H138135   1.281   6.354  15.441 -0.8278  1.9819 -1.4659
 5548TIP3    H238136   1.275   6.348  15.289 -0.6295 -2.1592 -1.3689
 5549TIP3   OH238137   2.342   0.454  13.336  0.4768 -0.1359  0.3042
 5549TIP3    H138138   2.294   0.531  13.368  2.0680  1.5947 -1.3358
 5549TIP3    H238139   2.434   0.480  13.343  0.9580 -0.9667 -2.5452
 5550TIP3   OH238140   0.934   5.072  14.975  0.2003 -0.3918  0.3530
 5550TIP3    H138141   0.838   5.079  14.973  0.2123 -0.1905  0.4092
 5550TIP3    H238142   0.955   5.014  14.903 -0.0057 -0.9144  0.7105
 5551TIP3   OH238143   2.219   0.489   3.095  0.5339 -0.1556 -0.5303
 5551TIP3    H138144   2.299   0.521   3.053  0.6470  0.0240 -0.1712
 5551TIP3    H238145   2.232   0.394   3.103  0.9814 -0.0354  0.1284
 5552TIP3   OH238146   5.165   3.644  16.987 -0.0813  1.4708  0.4444
 5552TIP3    H138147   5.104   3.572  16.999  0.2612  0.9960 -0.6717
 5552TIP3    H238148   5.164   3.662  16.893 -0.2671  3.0068  0.7206
 5553TIP3   OH238149   2.392   3.761  11.276 -0.1184 -0.1515 -0.0081
 5553TIP3    H138150   2.383   3.705  11.198  0.4952 -1.4311  0.8238
 5553TIP3    H238151   2.486   3.764  11.293 -0.0890  1.6444 -0.3825
 5554TIP3   OH238152   1.194   3.047   4.853  0.1351  0.5286  0.1732
 5554TIP3    H138153   1.117   3.101   4.838 -0.9572 -0.2953  2.6050
 5554TIP3    H238154   1.179   2.969   4.801  0.6285  1.5139 -1.4976
 5555TIP3   OH238155   2.308   1.031   5.325 -0.0067  0.6425  1.1663
 5555TIP3    H138156   2.357   1.111   5.347 -0.5423  1.0949  0.7232
 5555TIP3    H238157   2.266   1.051   5.241  1.6709 -0.9143 -0.0720
 5556TIP3   OH238158   5.318   4.234  11.533 -0.2501 -0.9301  0.0881
 5556TIP3    H138159   5.248   4.222  11.469 -1.2826  1.4222  0.7481
 5556TIP3    H238160   5.389   4.275  11.483 -0.4763 -0.5186  0.1030
 5557TIP3   OH238161   6.386   5.035  13.812  0.0523  0.0192 -0.0802
 5557TIP3    H138162   6.443   5.063  13.884 -0.9903  0.4587  0.5817
 5557TIP3    H238163   6.324   4.975  13.853  0.4565 -1.0018 -0.9356
 5558TIP3   OH238164   5.305   5.532  11.572  0.0547  0.1468 -0.0780
 5558TIP3    H138165   5.228   5.491  11.609  0.5563 -0.2484  0.5399
 5558TIP3    H238166   5.349   5.462  11.523  0.5226  0.1266  0.3669
 5559TIP3   OH238167   2.751   4.459   2.800  0.0039 -0.2163 -0.5684
 5559TIP3    H138168   2.662   4.426   2.795 -0.6005  1.1008  0.8772
 5559TIP3    H238169   2.750   4.540   2.748  0.5639 -0.6021 -1.1927
 5560TIP3   OH238170   4.085   5.780  13.120  0.8470 -0.4630  0.2563
 5560TIP3    H138171   4.063   5.862  13.164 -0.7945 -1.9677  2.3561
 5560TIP3    H238172   4.030   5.779  13.041 -0.6598 -0.4362  1.2731
 5561TIP3   OH238173   3.665   5.504   2.434 -0.1766 -0.0074  0.2994
 5561TIP3    H138174   3.722   5.548   2.497 -0.5936 -0.3069  0.8971
 5561TIP3    H238175   3.593   5.470   2.487 -0.3918 -0.5032 -0.3028
 5562TIP3   OH238176   3.217   2.792   4.396  0.3348  0.1488 -0.3055
 5562TIP3    H138177   3.142   2.842   4.428  0.9351  0.3591  0.8392
 5562TIP3    H238178   3.179   2.715   4.353 -0.5118 -0.5891  1.6978
 5563TIP3   OH238179   6.562   1.379   1.876  0.0264 -0.4506  0.2691
 5563TIP3    H138180   6.608   1.295   1.884 -0.9392 -0.8434  1.9014
 5563TIP3    H238181   6.610   1.425   1.807  1.9708 -1.4354  0.9003
 5564TIP3   OH238182   3.824   6.406   1.181  0.6426  0.7874  0.5757
 5564TIP3    H138183   3.823   6.455   1.099  1.1184  1.6188  1.0547
 5564TIP3    H238184   3.812   6.473   1.249 -1.5417 -0.1097  1.0981
 5565TIP3   OH238185   4.920   5.987  14.929 -0.1729  0.5103 -0.5373
 5565TIP3    H138186   4.838   5.967  14.884  0.6125 -2.0222 -0.9604
 5565TIP3    H238187   4.951   5.902  14.961  2.4568  1.3417 -0.6904
 5566TIP3   OH238188   5.378   2.897   0.093 -0.1231 -0.2500  0.0569
 5566TIP3    H138189   5.470   2.877   0.076  0.2862  1.3621  0.2681
 5566TIP3    H238190   5.354   2.840   0.166  0.9872 -0.0229  0.6100
 5567TIP3   OH238191   1.731   1.596   4.436 -0.7902  0.1791  0.4486
 5567TIP3    H138192   1.681   1.674   4.462  0.7682  0.5292  2.5355
 5567TIP3    H238193   1.811   1.631   4.397 -1.5562 -0.3965 -1.7425
 5568TIP3   OH238194   3.135   5.038   1.156 -0.3794 -0.4880  0.1736
 5568TIP3    H138195   3.043   5.029   1.181  0.3394 -0.8704  2.7151
 5568TIP3    H238196   3.168   5.110   1.210  1.1561 -1.1840  0.1923
 5569TIP3   OH238197   6.116   4.704   4.834 -0.3638 -1.2350 -0.2361
 5569TIP3    H138198   6.207   4.699   4.861 -0.4517 -1.9131 -0.0608
 5569TIP3    H238199   6.092   4.614   4.810 -1.1133 -1.1446  0.1465
 5570TIP3   OH238200   0.585   0.576   1.782  0.0690  0.2336 -0.4635
 5570TIP3    H138201   0.605   0.504   1.721 -2.5598  0.7213 -1.9803
 5570TIP3    H238202   0.504   0.549   1.825 -0.3025  1.7575 -0.1851
 5571TIP3   OH238203   5.372   1.430   3.040 -0.5628  0.0495  0.3807
 5571TIP3    H138204   5.349   1.483   3.116  0.1057 -0.9930  1.3245
 5571TIP3    H238205   5.450   1.383   3.066  0.6835  0.9383 -1.5594
 5572TIP3   OH238206   2.862   5.360   4.707 -0.9272  0.0159  0.4962
 5572TIP3    H138207   2.862   5.404   4.792 -1.1238  1.7471 -0.3785
 5572TIP3    H238208   2.772   5.367   4.677 -0.4577  1.0862 -0.6926
 5573TIP3   OH238209   1.589   2.402  12.274  0.1289 -0.3350 -0.0899
 5573TIP3    H138210   1.611   2.473  12.215 -1.3775  0.0623 -0.1841
 5573TIP3    H238211   1.498   2.417  12.298  0.2142 -1.4336  1.0074
 5574TIP3   OH238212   2.179   5.301  16.883  0.2068  0.1285  0.0850
 5574TIP3    H138213   2.131   5.356  16.945  1.5997  1.7079 -0.1902
 5574TIP3    H238214   2.202   5.360  16.811  1.2209 -0.9582 -0.4954
 5575TIP3   OH238215   3.779   0.829  13.040  0.0117 -0.4883  0.6023
 5575TIP3    H138216   3.810   0.854  12.953 -1.4210 -0.0608  0.2048
 5575TIP3    H238217   3.853   0.783  13.080  0.5003 -1.1065 -1.0145
 5576TIP3   OH238218   0.310   6.788   5.717  0.3471 -0.2113  0.2884
 5576TIP3    H138219   0.267   6.858   5.766 -1.9193 -1.6570  0.4623
 5576TIP3    H238220   0.336   6.725   5.783 -1.2100 -1.3752 -0.1724
 5577TIP3   OH238221   2.838   4.368  15.717  0.0783 -0.2184 -0.4265
 5577TIP3    H138222   2.758   4.346  15.669  0.5127 -0.8976 -0.8536
 5577TIP3    H238223   2.875   4.442  15.669 -1.4164  1.5282  1.0439
 5578TIP3   OH238224   3.325   6.066   4.082  0.1954  0.1257  0.5191
 5578TIP3    H138225   3.410   6.103   4.058  0.7700 -0.2493  1.9652
 5578TIP3    H238226   3.302   6.111   4.163  1.5851 -3.7080  3.1331
 5579TIP3   OH238227   4.344   3.061   5.274 -0.0985 -0.3822  0.2367
 5579TIP3    H138228   4.386   3.063   5.360  1.6770  1.2556 -0.6288
 5579TIP3    H238229   4.250   3.061   5.293  0.2723 -0.3398  2.1625
 5580TIP3   OH238230   3.205   1.854   0.203 -0.2396 -0.2130  0.4150
 5580TIP3    H138231   3.182   1.786   0.140 -0.2677  0.0029  0.1885
 5580TIP3    H238232   3.222   1.808   0.285 -0.2317 -0.4917  0.2537
 5581TIP3   OH238233   0.367   6.542   1.411 -0.2698 -0.6080 -0.2987
 5581TIP3    H138234   0.398   6.452   1.423  1.0066 -0.1941 -0.4346
 5581TIP3    H238235   0.443   6.596   1.431 -0.8241  0.4186 -0.9320
 5582TIP3   OH238236   2.956   6.670  10.520  0.5041 -0.0771  0.2532
 5582TIP3    H138237   2.982   6.762  10.515  1.3205 -0.1227  2.5959
 5582TIP3    H238238   2.864   6.672  10.546  0.3649  0.0899 -0.2627
 5583TIP3   OH238239   6.080   1.526   5.797 -0.2313 -1.1573 -0.0874
 5583TIP3    H138240   6.035   1.443   5.782 -0.3518 -0.9837 -0.6749
 5583TIP3    H238241   6.011   1.592   5.795 -0.1136 -1.0246  0.2138
 5584TIP3   OH238242   2.908   5.672   4.928 -0.2038  0.6462  0.6113
 5584TIP3    H138243   2.872   5.696   4.842  1.2920  1.8354  0.2928
 5584TIP3    H238244   2.873   5.739   4.987  0.4083  1.0365  0.5385
 5585TIP3   OH238245   2.705   2.533   3.406 -0.1736  0.2619  0.1018
 5585TIP3    H138246   2.657   2.549   3.325 -0.2601  1.3154  0.3517
 5585TIP3    H238247   2.641   2.547   3.475 -0.4947 -2.1222  0.3138
 5586TIP3   OH238248   0.354   3.037   4.138 -0.0060 -0.3102  0.7219
 5586TIP3    H138249   0.369   2.951   4.099  0.0869 -0.2129  0.5425
 5586TIP3    H238250   0.333   3.093   4.064 -1.3846 -0.4729  0.9799
 5587TIP3   OH238251   3.370   5.152   4.041 -0.2534  0.4536  0.4080
 5587TIP3    H138252   3.394   5.221   4.103 -0.1030 -0.8553  1.8708
 5587TIP3    H238253   3.454   5.119   4.008 -0.3021  0.5775  0.1602
 5588TIP3   OH238254   6.376   4.362  13.903  0.7040  0.2295 -0.3159
 5588TIP3    H138255   6.470   4.382  13.904  1.2701 -2.3146  0.1600
 5588TIP3    H238256   6.369   4.280  13.951 -1.6650 -0.1006 -1.1928
 5589TIP3   OH238257   0.098   2.389  11.811  0.5017  0.7850 -0.0447
 5589TIP3    H138258   0.167   2.322  11.815 -1.5020 -1.3119  0.6196
 5589TIP3    H238259   0.074   2.405  11.902 -0.0190  1.3592 -0.2755
 5590TIP3   OH238260   3.439   0.069   4.160 -0.1676  0.0152  0.5140
 5590TIP3    H138261   3.490   0.146   4.135  0.8443 -0.5032  0.9688
 5590TIP3    H238262   3.443   0.068   4.256  0.1575 -0.8273  0.4965
 5591TIP3   OH238263   5.549   4.467   1.257 -0.1806  0.8305 -0.4974
 5591TIP3    H138264   5.599   4.461   1.175 -2.4767 -0.6401 -1.8329
 5591TIP3    H238265   5.460   4.487   1.229 -1.4139 -1.5871  1.5252
 5592TIP3   OH238266   3.282   5.094   5.192 -0.2853  0.3417  0.0920
 5592TIP3    H138267   3.351   5.033   5.166  0.2535  0.6758  0.7044
 5592TIP3    H238268   3.271   5.078   5.286 -1.1314  0.2035 -0.0304
 5593TIP3   OH238269   2.703   4.048   0.363 -1.2855  0.6907  0.0599
 5593TIP3    H138270   2.624   4.020   0.409 -0.4375 -1.1713  0.4050
 5593TIP3    H238271   2.674   4.062   0.273 -1.9895 -0.0641  0.1659
 5594TIP3   OH238272   1.605   4.808   0.945  0.0921 -0.1491 -0.5740
 5594TIP3    H138273   1.680   4.771   0.992 -1.0947 -2.0455 -0.1135
 5594TIP3    H238274   1.529   4.762   0.981 -1.1956  0.9873 -1.7795
 5595TIP3   OH238275   5.090   1.940  15.547  0.0243 -0.1657  0.3250
 5595TIP3    H138276   5.100   1.848  15.523  1.6539  0.2350 -0.6479
 5595TIP3    H238277   5.077   1.985  15.464  0.3339  0.6103  0.6884
 5596TIP3   OH238278   5.523   6.231   1.806  0.4992 -0.2261  0.5573
 5596TIP3    H138279   5.615   6.250   1.789 -0.2554  2.2357 -1.0358
 5596TIP3    H238280   5.516   6.136   1.797  2.5101 -0.2412 -1.2367
 5597TIP3   OH238281   6.445   2.481  16.854 -0.3078  0.6036 -0.0991
 5597TIP3    H138282   6.468   2.523  16.771  0.8118 -1.3946 -0.8305
 5597TIP3    H238283   6.455   2.550  16.920  4.6034  0.7215 -0.8196
 5598TIP3   OH238284   6.055   0.731  14.030  0.4774  0.1515 -0.4254
 5598TIP3    H138285   6.000   0.799  13.991 -1.5357 -2.3302 -2.0677
 5598TIP3    H238286   6.048   0.746  14.125 -1.2769  1.1984 -0.7056
 5599TIP3   OH238287   3.559   5.760  15.933  0.1230 -0.8655 -0.2100
 5599TIP3    H138288   3.520   5.678  15.900  1.3224 -2.0657  1.2948
 5599TIP3    H238289   3.625   5.783  15.867 -0.0933 -1.1995 -0.5464
 5600TIP3   OH238290   5.103   5.304  13.763 -0.1870  0.0229 -0.1609
 5600TIP3    H138291   5.113   5.210  13.780 -0.9653 -0.2662 -1.3032
 5600TIP3    H238292   5.057   5.337  13.840  2.2506 -0.0743  1.3921
 5601TIP3   OH238293   0.309   1.108  12.715 -0.2698 -0.2158 -0.4358
 5601TIP3    H138294   0.226   1.085  12.674 -0.6760  1.3518 -0.5179
 5601TIP3    H238295   0.285   1.133  12.805  0.0803  0.3801 -0.5026
 5602TIP3   OH238296   4.947   1.697   1.907  0.0409  0.0952 -0.0383
 5602TIP3    H138297   5.013   1.742   1.853  0.8153 -1.6416 -0.5688
 5602TIP3    H238298   4.912   1.629   1.849 -0.7238 -0.3500  0.9404
 5603TIP3   OH238299   2.383   1.655   5.824 -0.2874  0.1855 -0.7252
 5603TIP3    H138300   2.434   1.713   5.881 -0.1951 -0.8386  0.2430
 5603TIP3    H238301   2.293   1.661   5.857 -0.4355  0.4380 -1.1680
 5604TIP3   OH238302   0.779   5.925  12.692 -0.7469 -0.1499 -0.3430
 5604TIP3    H138303   0.699   5.874  12.683 -0.3419 -0.8531 -0.0278
 5604TIP3    H238304   0.834   5.896  12.619  0.4799 -2.0436  1.2697
 5605TIP3   OH238305   4.316   2.290  16.042 -0.3446  0.5708 -0.5317
 5605TIP3    H138306   4.306   2.299  15.947 -1.6266  2.8508 -0.2198
 5605TIP3    H238307   4.391   2.344  16.064  0.1032 -0.1541 -0.2727
 5606TIP3   OH238308   5.092   2.964  11.407  0.1706 -0.9154 -0.1231
 5606TIP3    H138309   5.022   2.905  11.433 -1.6052  0.6511 -1.2698
 5606TIP3    H238310   5.055   3.052  11.416  1.6615 -0.0979 -1.6143
 5607TIP3   OH238311   3.265   2.325   0.097  0.2358 -0.3957 -0.5107
 5607TIP3    H138312   3.292   2.386   0.167  1.7186 -0.3493 -1.1209
 5607TIP3    H238313   3.189   2.279   0.134  2.1950 -1.7916  1.9281
 5608TIP3   OH238314   3.225   2.204   1.168  0.2051  0.2527 -0.2165
 5608TIP3    H138315   3.299   2.264   1.178 -0.9362  1.4535  1.4558
 5608TIP3    H238316   3.195   2.216   1.078  0.7834  1.2599 -0.2749
 5609TIP3   OH238317   2.683   2.182  16.853  0.1041 -0.5616 -0.2478
 5609TIP3    H138318   2.768   2.221  16.874 -0.6682  1.3073 -0.4359
 5609TIP3    H238319   2.696   2.088  16.862  2.3788 -0.3356 -0.9533
 5610TIP3   OH238320   5.751   1.119   5.649 -0.2445 -0.0332  0.2178
 5610TIP3    H138321   5.728   1.085   5.736  0.4548 -1.1880 -0.0391
 5610TIP3    H238322   5.840   1.089   5.635 -0.0670  0.8482 -0.5673
 5611TIP3   OH238323   3.605   3.690   5.974 -0.1358 -0.1469 -0.0265
 5611TIP3    H138324   3.686   3.651   6.007 -0.1832  0.0331  0.3079
 5611TIP3    H238325   3.625   3.784   5.968 -0.4391 -0.0571  0.4013
 5612TIP3   OH238326   0.009   5.309   4.675 -0.2811  0.3492 -0.0091
 5612TIP3    H138327   0.096   5.301   4.715  0.1160  1.0542 -0.7262
 5612TIP3    H238328   0.004   5.236   4.614 -0.6703 -0.4011  0.8943
 5613TIP3   OH238329   6.240   0.388  10.962  0.3394 -0.5199  0.2887
 5613TIP3    H138330   6.229   0.351  10.874 -0.0301 -1.7684  0.8442
 5613TIP3    H238331   6.226   0.482  10.951  1.4277 -0.5156 -1.1832
 5614TIP3   OH238332   0.982   6.691   0.317 -0.2434  0.1488 -0.4706
 5614TIP3    H138333   0.900   6.641   0.317  0.4727 -1.0326  0.2780
 5614TIP3    H238334   0.962   6.769   0.369 -0.8073 -0.2840 -0.0279
 5615TIP3   OH238335   5.818   0.753  15.391  0.5809  0.1386  0.1629
 5615TIP3    H138336   5.773   0.831  15.424  0.1570 -0.2139  0.4223
 5615TIP3    H238337   5.834   0.772  15.298  1.3293  0.9248  0.4456
 5616TIP3   OH238338   2.667   3.408   3.228 -0.2239  0.2164 -0.2061
 5616TIP3    H138339   2.729   3.472   3.193  0.4583  0.0567  0.6887
 5616TIP3    H238340   2.658   3.343   3.159  1.2579 -0.1950 -0.0298
 5617TIP3   OH238341   1.143   5.328   0.003  0.2256  0.0662 -0.5237
 5617TIP3    H138342   1.049   5.320   0.021  0.6216 -0.8843  1.1561
 5617TIP3    H238343   1.169   5.241  -0.027  0.2705  0.7435 -2.5608
 5618TIP3   OH238344   3.686   0.655  15.491  0.1095  0.4882 -0.2948
 5618TIP3    H138345   3.748   0.623  15.425 -0.5337 -0.4095 -0.4743
 5618TIP3    H238346   3.603   0.660  15.444 -0.4748 -0.7215  0.5973
 5619TIP3   OH238347   1.140   1.139  11.886 -0.2442  0.6582  0.1793
 5619TIP3    H138348   1.091   1.205  11.935  2.1811  0.9012  2.3997
 5619TIP3    H238349   1.191   1.093  11.953  1.1077 -0.8306 -1.8138
 5620TIP3   OH238350   0.128   5.338  13.625 -0.6150 -0.6097 -0.2002
 5620TIP3    H138351   0.183   5.275  13.578  0.5642  0.8524 -0.8322
 5620TIP3    H238352   0.040   5.321  13.592 -0.2502 -1.6222 -0.7012
 5621TIP3   OH238353   0.336   6.435  14.464  0.0760 -0.1654  0.0849
 5621TIP3    H138354   0.365   6.470  14.548  0.3176 -2.8032  1.1689
 5621TIP3    H238355   0.405   6.374  14.439  0.1016  0.7687 -2.1701
 5622TIP3   OH238356   1.217   1.193  13.033 -0.4117  0.3009 -0.3090
 5622TIP3    H138357   1.208   1.257  12.963 -0.0301  0.7409  0.0518
 5622TIP3    H238358   1.292   1.140  13.008  1.2188  1.9703  0.9782
 5623TIP3   OH238359   0.769   1.618   1.941  0.5149 -0.2990 -0.3815
 5623TIP3    H138360   0.839   1.650   1.998  0.7967 -0.0278 -0.8775
 5623TIP3    H238361   0.813   1.601   1.857 -0.3438  1.5182 -1.2166
 5624TIP3   OH238362   5.404   1.581  12.251 -0.3758  0.8082 -0.1007
 5624TIP3    H138363   5.334   1.560  12.189  0.2085 -0.6136 -0.2910
 5624TIP3    H238364   5.359   1.618  12.326 -1.3264  0.0726 -0.2972
 5625TIP3   OH238365   0.821   3.701  15.423 -0.2706  0.4564 -0.2588
 5625TIP3    H138366   0.788   3.642  15.491 -0.1633 -0.2431 -0.8065
 5625TIP3    H238367   0.743   3.741  15.386 -0.4077 -0.0532 -0.5221
 5626TIP3   OH238368   0.049   5.485   3.035  0.0133 -0.4921  0.2754
 5626TIP3    H138369  -0.002   5.437   2.970  0.9209 -0.6488 -0.3347
 5626TIP3    H238370  -0.006   5.487   3.113 -0.0747 -2.4272  0.2819
 5627TIP3   OH238371   4.906   5.240   0.193  0.3820  0.0945  0.5225
 5627TIP3    H138372   4.968   5.305   0.226  1.8768 -0.7937 -0.4662
 5627TIP3    H238373   4.883   5.272   0.106  0.4726 -0.2536  0.3694
 5628TIP3   OH238374   4.107   2.211  15.324 -0.2816  0.0969 -0.2491
 5628TIP3    H138375   4.107   2.117  15.307 -0.3282 -0.0970  0.8031
 5628TIP3    H238376   4.198   2.238  15.307 -0.2164 -0.1703 -0.3361
 5629TIP3   OH238377   1.639   1.743   2.413  0.2345 -0.5046 -0.0703
 5629TIP3    H138378   1.652   1.649   2.421 -0.5547 -0.4461  2.3502
 5629TIP3    H238379   1.609   1.756   2.323  1.3880 -2.4171 -0.7657
 5630TIP3   OH238380   5.520   0.626  11.314  0.0290  0.1211  0.1318
 5630TIP3    H138381   5.556   0.609  11.401 -0.7879 -0.4402  0.3610
 5630TIP3    H238382   5.439   0.576  11.311 -0.5860  1.1421 -0.4962
 5631TIP3   OH238383   5.241   5.123   2.668  0.2140 -0.2235  0.3806
 5631TIP3    H138384   5.258   5.213   2.696  0.4143 -0.1550  0.0482
 5631TIP3    H238385   5.299   5.069   2.722 -0.6357 -0.2456  1.2886
 5632TIP3   OH238386   6.614   2.039  15.489  0.1274  0.0946  0.1918
 5632TIP3    H138387   6.618   1.946  15.470 -0.8134 -0.2460  1.6444
 5632TIP3    H238388   6.548   2.073  15.429  0.3368 -0.1991 -0.2053
 5633TIP3   OH238389   3.291   5.174   4.458 -0.4046 -0.7137  0.2237
 5633TIP3    H138390   3.314   5.142   4.546 -1.8440  0.0977  0.9233
 5633TIP3    H238391   3.198   5.195   4.465 -0.4035 -0.1518 -1.3685
 5634TIP3   OH238392   5.554   2.302   4.231 -0.3956 -0.8034 -0.2931
 5634TIP3    H138393   5.559   2.267   4.142  2.0396 -2.2254  0.3502
 5634TIP3    H238394   5.631   2.357   4.239 -0.9049 -0.2366  0.7699
 5635TIP3   OH238395   6.568   3.189  15.352  0.1351  0.1465 -0.0050
 5635TIP3    H138396   6.506   3.224  15.288  2.4716  1.4817 -1.5735
 5635TIP3    H238397   6.583   3.099  15.323 -2.0840 -0.6593  1.1955
 5636TIP3   OH238398   3.890   3.659  12.336  0.1492 -0.3869 -0.2309
 5636TIP3    H138399   3.856   3.729  12.279 -0.1127  0.1779  0.6158
 5636TIP3    H238400   3.853   3.579  12.299 -2.3820  0.2275  0.8340
 5637TIP3   OH238401   0.165   3.701   0.771 -0.1069  0.0261 -0.4518
 5637TIP3    H138402   0.241   3.702   0.829 -0.6247  0.8225  0.2192
 5637TIP3    H238403   0.201   3.725   0.685  0.2215  1.6634  0.1170
 5638TIP3   OH238404   1.013   5.099  13.137  0.6436  0.4265  0.5587
 5638TIP3    H138405   0.976   5.162  13.075 -1.7397 -0.9756  0.5179
 5638TIP3    H238406   1.031   5.151  13.215  1.5099  1.7445 -0.4790
 5639TIP3   OH238407   1.485   4.321  16.673  0.6044 -0.6583 -0.3371
 5639TIP3    H138408   1.492   4.274  16.756 -2.5968 -2.3289 -0.9129
 5639TIP3    H238409   1.414   4.384  16.688  1.3360  0.3909 -1.2190
 5640TIP3   OH238410   4.667   4.383   5.446 -0.0345  0.0093  0.1253
 5640TIP3    H138411   4.737   4.448   5.440  0.2253 -0.1580  1.1631
 5640TIP3    H238412   4.707   4.310   5.494 -0.4988 -0.6745 -0.5114
 5641TIP3   OH238413   0.880   6.476   0.095 -0.0662  0.3305 -0.3721
 5641TIP3    H138414   0.967   6.515   0.092  0.7834 -1.3553  1.2929
 5641TIP3    H238415   0.836   6.519   0.169 -0.6682  1.1801 -1.2092
 5642TIP3   OH238416   1.590   4.116  14.492  0.2460 -0.2067  0.3215
 5642TIP3    H138417   1.573   4.095  14.584 -0.6235 -1.6482 -0.1343
 5642TIP3    H238418   1.604   4.031  14.450  0.1996  0.3929 -0.9555
 5643TIP3   OH238419   6.057   2.343  15.344  0.4660 -0.0763  0.3570
 5643TIP3    H138420   6.129   2.333  15.283 -0.6007 -0.0080 -0.9368
 5643TIP3    H238421   6.061   2.265  15.400  0.9217 -0.5621 -0.3558
 5644TIP3   OH238422   4.813   4.887  11.195 -0.2583 -0.2862  0.0256
 5644TIP3    H138423   4.784   4.964  11.145  0.8217  1.6755  2.2973
 5644TIP3    H238424   4.909   4.890  11.188 -0.1980 -1.3413  0.3090
 5645TIP3   OH238425   3.756   4.080   3.470 -0.4812  0.5331  0.2700
 5645TIP3    H138426   3.823   4.036   3.418 -0.8829 -2.5702  2.2953
 5645TIP3    H238427   3.713   4.139   3.408  2.6262  0.9773 -1.5846
 5646TIP3   OH238428   0.261   0.398   5.573  0.6811 -0.1829 -0.0941
 5646TIP3    H138429   0.318   0.331   5.536 -0.6679 -1.9130  0.8528
 5646TIP3    H238430   0.279   0.395   5.667 -1.7333 -1.5711  0.3716
 5647TIP3   OH238431   1.921   2.603  13.090 -0.2221 -0.6786  0.1463
 5647TIP3    H138432   1.930   2.567  13.178  0.8825  1.7635  1.0870
 5647TIP3    H238433   2.008   2.595  13.052  0.4920  2.4671  1.0005
 5648TIP3   OH238434   0.753   4.372  14.658 -0.5526  0.3174  0.0664
 5648TIP3    H138435   0.818   4.311  14.691  0.4217  1.6022  0.5531
 5648TIP3    H238436   0.700   4.320  14.596  0.5327 -0.8764  0.1247
 5649TIP3   OH238437   4.428   1.358   2.105 -0.0531 -0.1815  0.1975
 5649TIP3    H138438   4.429   1.266   2.131 -0.3354  0.2247  1.6746
 5649TIP3    H238439   4.508   1.394   2.143 -0.3418  0.3672  0.2842
 5650TIP3   OH238440   4.891   2.019   2.590 -0.0714  0.1703  0.4616
 5650TIP3    H138441   4.934   2.082   2.533 -0.8553  0.2469 -0.0501
 5650TIP3    H238442   4.869   2.068   2.669 -0.1131  0.3785  0.3196
 5651TIP3   OH238443   4.552   3.319   1.550 -0.1945  0.3062  0.8104
 5651TIP3    H138444   4.484   3.309   1.484  0.5566 -0.7034  0.1682
 5651TIP3    H238445   4.566   3.231   1.583  1.3094  0.3917  0.4197
 5652TIP3   OH238446   4.110   4.060  10.644 -0.2844  0.3659  0.0048
 5652TIP3    H138447   4.071   4.038  10.560 -0.3655 -0.8341  0.3503
 5652TIP3    H238448   4.193   4.013  10.646 -0.4818  0.0269  0.7707
 5653TIP3   OH238449   3.709   4.073  12.092  0.3019 -0.2107 -0.0000
 5653TIP3    H138450   3.629   4.121  12.112  0.3522  0.0143 -0.3314
 5653TIP3    H238451   3.775   4.142  12.079  0.4825 -0.3850 -0.0050
 5654TIP3   OH238452   6.773   0.748   3.031 -0.4734 -0.1119  0.2597
 5654TIP3    H138453   6.715   0.684   3.073 -1.0290 -0.1737 -0.5869
 5654TIP3    H238454   6.811   0.797   3.103 -1.0593 -0.5268  0.8566
 5655TIP3   OH238455   0.806   5.773  15.077  0.0666 -0.2146  0.0004
 5655TIP3    H138456   0.721   5.729  15.071 -0.2866  0.2713  1.1583
 5655TIP3    H238457   0.815   5.818  14.993 -0.0726 -1.5662 -0.7642
 5656TIP3   OH238458   6.693   4.148   2.959 -0.0846  0.6532 -0.3187
 5656TIP3    H138459   6.632   4.200   3.011  0.0686 -1.2606  1.8553
 5656TIP3    H238460   6.646   4.129   2.877 -0.7434  2.7862 -0.4425
 5657TIP3   OH238461   3.658   0.920   2.460  0.4038 -0.1365 -0.4051
 5657TIP3    H138462   3.713   0.977   2.513  0.2472  0.7584 -1.1873
 5657TIP3    H238463   3.568   0.946   2.481  0.3075 -0.6119 -0.2067
 5658TIP3   OH238464   4.156   5.064  14.686 -0.2860  0.1733  0.2149
 5658TIP3    H138465   4.147   4.979  14.729  0.1780  0.1903  0.3444
 5658TIP3    H238466   4.156   5.127  14.758 -0.0933  0.2433  0.1529
 5659TIP3   OH238467   3.516   5.065   0.847  0.0816  0.5742 -0.1521
 5659TIP3    H138468   3.603   5.087   0.881  0.6121  0.3616 -1.3543
 5659TIP3    H238469   3.479   5.004   0.912  0.5249  1.2496  0.7384
 5660TIP3   OH238470   6.618   3.111   2.763 -0.1296 -0.3980  0.3637
 5660TIP3    H138471   6.685   3.094   2.829  0.4632  1.8404  0.3916
 5660TIP3    H238472   6.548   3.155   2.812 -0.9023 -1.2462  0.0239
 5661TIP3   OH238473   4.273   3.421   0.463 -0.3565 -0.6901 -0.0819
 5661TIP3    H138474   4.257   3.502   0.414  1.2357  0.2987  0.9737
 5661TIP3    H238475   4.365   3.402   0.447 -0.3372 -1.4634  0.9224
 5662TIP3   OH238476   1.517   2.969   4.647 -0.0664  1.2693 -0.9505
 5662TIP3    H138477   1.506   2.981   4.742 -0.2709  2.7694 -1.1604
 5662TIP3    H238478   1.568   3.045   4.619 -0.1189  0.8996 -2.0736
 5663TIP3   OH238479   5.231   2.021   1.545 -0.1263  0.3468  0.5594
 5663TIP3    H138480   5.289   2.070   1.603 -0.3811  0.1184  1.0102
 5663TIP3    H238481   5.209   1.941   1.594  1.2013 -0.7819 -0.6195
 5664TIP3   OH238482   6.211   6.657   5.156  0.1168 -0.3657  0.3626
 5664TIP3    H138483   6.236   6.584   5.213 -1.1726 -0.0996  1.3085
 5664TIP3    H238484   6.248   6.635   5.071  1.0374 -1.3783  1.0104
 5665TIP3   OH238485   3.959   2.380   2.519  0.0228  0.5493  0.4599
 5665TIP3    H138486   3.947   2.325   2.597 -1.2606 -1.1322 -0.8683
 5665TIP3    H238487   4.049   2.411   2.525  1.1506 -2.5698  0.7487
 5666TIP3   OH238488   4.128   4.248  12.809  0.6969  0.0857 -0.5436
 5666TIP3    H138489   4.053   4.196  12.782  0.5466 -0.3663  0.7427
 5666TIP3    H238490   4.185   4.187  12.856  2.5231  0.0945 -2.6039
 5667TIP3   OH238491   1.661   5.684  11.347 -0.3678  0.6447 -0.3757
 5667TIP3    H138492   1.566   5.684  11.361 -0.5224  0.2072 -1.3659
 5667TIP3    H238493   1.674   5.629  11.270  0.8359 -0.4719  0.5998
 5668TIP3   OH238494   5.832   4.754   0.307 -0.1219  0.2361 -0.3071
 5668TIP3    H138495   5.780   4.674   0.305  0.6173 -0.2280 -1.0852
 5668TIP3    H238496   5.878   4.751   0.391  1.1617 -0.9723 -1.0313
 5669TIP3   OH238497   1.129   3.389   3.356 -0.1623  0.3749  0.0589
 5669TIP3    H138498   1.039   3.379   3.387  0.2386  0.0600  1.1712
 5669TIP3    H238499   1.180   3.398   3.437  0.7334  1.0963 -0.5825
 5670TIP3   OH238500   2.963   2.986  11.856 -0.1535 -0.3096  0.2416
 5670TIP3    H138501   3.019   3.040  11.912 -1.2103 -0.1558  1.1797
 5670TIP3    H238502   3.001   2.994  11.769  1.0600  0.0893  0.7971
 5671TIP3   OH238503   1.989   3.714   1.118  0.4927  0.4542  0.3622
 5671TIP3    H138504   2.016   3.633   1.163  0.9065  1.0853  1.2575
 5671TIP3    H238505   1.981   3.779   1.188 -4.1598  0.1328  0.3190
 5672TIP3   OH238506   1.915   4.509   0.935 -0.2308 -0.4585 -0.1907
 5672TIP3    H138507   1.996   4.516   0.985  0.1931  1.6697 -1.1143
 5672TIP3    H238508   1.944   4.480   0.848 -0.2879  1.5346 -0.8971
 5673TIP3   OH238509   5.705   5.096  13.601  0.4873 -0.5078  0.2782
 5673TIP3    H138510   5.787   5.108  13.554 -0.6939 -2.3602 -2.3793
 5673TIP3    H238511   5.721   5.022  13.659  0.2520 -1.9570 -1.4530
 5674TIP3   OH238512   0.111   6.789  13.809  0.4213  0.5079 -0.2298
 5674TIP3    H138513   0.071   6.852  13.868 -1.2618 -0.1341 -0.6639
 5674TIP3    H238514   0.124   6.711  13.863  0.3481  0.4522 -0.2924
 5675TIP3   OH238515   0.536   6.370  11.075 -0.4588  0.4809  0.1189
 5675TIP3    H138516   0.456   6.328  11.043 -0.1275 -0.8334  0.9766
 5675TIP3    H238517   0.520   6.464  11.063 -2.0125  0.2233  0.0336
 5676TIP3   OH238518   5.376   2.225   5.961 -0.1350  0.8962  0.0372
 5676TIP3    H138519   5.393   2.318   5.949 -0.3942  1.1971  1.8373
 5676TIP3    H238520   5.335   2.219   6.047 -2.0100 -0.6666 -0.9340
 5677TIP3   OH238521   4.380   6.095  15.670  0.7871 -0.0523  0.7945
 5677TIP3    H138522   4.324   6.153  15.723 -1.9550  0.1991 -2.2216
 5677TIP3    H238523   4.354   6.007  15.696  0.0943  0.0705  0.5339
 5678TIP3   OH238524   2.546   3.237   0.390 -0.2409  0.7357  0.0637
 5678TIP3    H138525   2.577   3.165   0.445 -2.2901  0.2838  0.6757
 5678TIP3    H238526   2.537   3.198   0.303 -2.3674 -0.0682  0.6143
 5679TIP3   OH238527   1.879   2.400   4.349  0.3775  0.8930 -0.5318
 5679TIP3    H138528   1.895   2.317   4.395  1.6139  0.5558 -1.5045
 5679TIP3    H238529   1.875   2.466   4.417 -2.7668 -0.2330  0.4548
 5680TIP3   OH238530   5.872   6.226   0.466  0.5612 -0.0043  0.1394
 5680TIP3    H138531   5.852   6.315   0.438  0.7171  0.9579  2.9835
 5680TIP3    H238532   5.964   6.214   0.445  0.2131 -0.0147 -1.4928
 5681TIP3   OH238533   4.215   0.082   5.204  0.3690 -0.0575 -0.0245
 5681TIP3    H138534   4.134   0.122   5.237 -0.1941  0.0469 -1.5150
 5681TIP3    H238535   4.274   0.156   5.191  0.6437 -0.1121  0.8504
 5682TIP3   OH238536   1.225   3.999   0.970  0.5228 -0.4845 -0.4028
 5682TIP3    H138537   1.214   3.943   0.893  2.5011 -0.1012 -0.9997
 5682TIP3    H238538   1.232   3.938   1.043 -1.1839 -0.8593 -0.5349
 5683TIP3   OH238539   1.949   5.937  14.358  0.2104 -0.2213  0.1658
 5683TIP3    H138540   1.905   6.014  14.322  0.5453 -0.9816 -1.9656
 5683TIP3    H238541   1.917   5.929  14.447 -3.4616 -0.3466 -1.1059
 5684TIP3   OH238542   3.809   6.055   3.749 -0.0132 -0.9572 -0.0749
 5684TIP3    H138543   3.729   6.055   3.695  0.9249 -2.3859 -1.5135
 5684TIP3    H238544   3.830   5.962   3.761  0.5152 -0.6308  1.7120
 5685TIP3   OH238545   4.334   2.728  11.608 -0.1053  0.1645 -0.1788
 5685TIP3    H138546   4.338   2.751  11.701  0.4295  1.9531 -0.6262
 5685TIP3    H238547   4.379   2.643  11.602  1.0326  0.6714  1.0091
 5686TIP3   OH238548   1.560   0.115  14.437 -0.2281 -0.0401 -0.1078
 5686TIP3    H138549   1.641   0.166  14.438  0.0161 -0.4316  0.4095
 5686TIP3    H238550   1.495   0.175  14.401  0.1926  0.4295 -0.0984
 5687TIP3   OH238551   6.185   2.798  17.100  0.1364  0.5023 -0.0303
 5687TIP3    H138552   6.202   2.870  17.040 -1.0275  1.2660  0.5482
 5687TIP3    H238553   6.167   2.723  17.043  0.0626  0.9696 -0.6195
 5688TIP3   OH238554   6.309   2.128   3.983  0.3476 -0.4725 -0.1307
 5688TIP3    H138555   6.260   2.121   3.901  0.1065  0.2879 -0.0555
 5688TIP3    H238556   6.255   2.081   4.047  1.1848 -2.2264 -0.6778
 5689TIP3   OH238557   6.812   0.388   0.145  0.3425 -0.3490 -0.9754
 5689TIP3    H138558   6.854   0.315   0.190 -0.9872  0.1664  1.1529
 5689TIP3    H238559   6.847   0.466   0.188 -0.5784  0.1709 -1.1556
 5690TIP3   OH238560   2.490   3.136  13.699  0.0731  0.1664 -0.0717
 5690TIP3    H138561   2.581   3.130  13.726 -0.0515 -2.7223 -0.1684
 5690TIP3    H238562   2.486   3.214  13.643  2.0152  1.5045  1.5975
 5691TIP3   OH238563   5.706   6.529  16.011 -0.1716  0.0246  0.1556
 5691TIP3    H138564   5.680   6.613  15.973 -0.4036 -0.4674 -0.7723
 5691TIP3    H238565   5.643   6.514  16.082 -0.2052  0.5659  0.2409
 5692TIP3   OH238566   0.698   1.993  13.928 -0.4394  0.0067  0.1172
 5692TIP3    H138567   0.786   1.976  13.896 -0.4962  1.7032 -0.9627
 5692TIP3    H238568   0.649   2.022  13.851 -2.0028 -1.1364  0.6644
 5693TIP3   OH238569   2.474   6.536  15.133  0.4273 -0.4279  0.2178
 5693TIP3    H138570   2.488   6.631  15.132 -0.5570 -0.2828 -0.3028
 5693TIP3    H238571   2.527   6.503  15.060  1.0843 -0.3266  0.6463
 5694TIP3   OH238572   4.362   1.452   0.076 -0.5878 -0.3133  0.1254
 5694TIP3    H138573   4.413   1.371   0.065  0.1077  0.1931 -0.4769
 5694TIP3    H238574   4.275   1.430   0.043  0.1061 -0.2872 -1.7895
 5695TIP3   OH238575   0.578   3.707  13.583  0.0221 -0.0448  0.7535
 5695TIP3    H138576   0.640   3.645  13.622  0.8296  0.2798  0.0146
 5695TIP3    H238577   0.622   3.792  13.590  0.4570 -0.0587 -1.3790
 5696TIP3   OH238578   4.540   0.571  12.718  0.2717 -0.3455  0.2241
 5696TIP3    H138579   4.558   0.561  12.811  0.8948  0.0374  0.1503
 5696TIP3    H238580   4.598   0.507  12.675  1.7910  1.1593 -0.0385
 5697TIP3   OH238581   3.584   3.275  15.258  0.3292  0.5631 -0.0507
 5697TIP3    H138582   3.539   3.206  15.307  0.3652 -0.0285 -0.8392
 5697TIP3    H238583   3.532   3.354  15.276 -1.1255 -0.1330 -1.0466
 5698TIP3   OH238584   2.563   3.467   5.708 -0.0463  0.5940  0.0238
 5698TIP3    H138585   2.496   3.479   5.775  0.9407 -0.9164  1.3265
 5698TIP3    H238586   2.612   3.391   5.737  1.4277  0.8963 -1.5894
 5699TIP3   OH238587   1.371   3.223  11.501 -0.0940 -0.1455 -0.0493
 5699TIP3    H138588   1.405   3.290  11.442 -0.5193 -0.1250 -0.2694
 5699TIP3    H238589   1.426   3.231  11.579  0.3269 -0.0311 -0.3564
 5700TIP3   OH238590   1.884   6.312   3.641  0.0421 -0.1156  0.0481
 5700TIP3    H138591   1.804   6.358   3.617 -0.0154  0.7342  1.7809
 5700TIP3    H238592   1.855   6.241   3.699  0.3355 -1.1353 -1.0288
 5701TIP3   OH238593   6.704   6.477  16.799 -0.4738 -0.0716 -0.0060
 5701TIP3    H138594   6.727   6.480  16.706  0.4171  1.7475  0.2562
 5701TIP3    H238595   6.778   6.519  16.843 -1.4283  0.1287  1.4192
 5702TIP3   OH238596   0.217   5.682  16.305  0.2038  0.2451 -0.4311
 5702TIP3    H138597   0.239   5.625  16.232 -1.0564  1.9924 -2.2547
 5702TIP3    H238598   0.296   5.733  16.322  0.1186  0.7328 -1.4628
 5703TIP3   OH238599   3.229   4.823   3.425  0.4772  0.3055  0.8005
 5703TIP3    H138600   3.198   4.828   3.334 -1.2957 -1.4278  1.2750
 5703TIP3    H238601   3.149   4.821   3.477  1.4850  0.5288  2.3699
 5704TIP3   OH238602   1.003   0.474   0.951  0.2071  0.4739 -1.0406
 5704TIP3    H138603   1.008   0.489   0.856 -1.4114  2.2811 -0.8589
 5704TIP3    H238604   0.909   0.477   0.970  0.4120 -1.4524  0.3984
 5705TIP3   OH238605   6.110   0.393   4.302  0.2370  0.1045 -0.2714
 5705TIP3    H138606   6.099   0.423   4.212 -1.1159  0.1152 -0.1213
 5705TIP3    H238607   6.071   0.305   4.302  0.1142  0.1578  0.3243
 5706TIP3   OH238608   5.019   3.721   1.081  0.1146  0.3024 -0.2167
 5706TIP3    H138609   4.948   3.688   1.026  0.0223 -0.7320  0.5180
 5706TIP3    H238610   5.001   3.685   1.167  1.1768  0.5813  0.1227
 5707TIP3   OH238611   0.231   2.290  13.401  0.2225 -0.1967 -0.1520
 5707TIP3    H138612   0.224   2.350  13.476 -0.3119  1.3605 -1.4365
 5707TIP3    H238613   0.206   2.204  13.437 -0.4309  0.6083  1.3577
 5708TIP3   OH238614   0.585   1.189  12.330 -0.9149  0.2618  0.1503
 5708TIP3    H138615   0.510   1.217  12.382  0.2967  2.2684  0.9097
 5708TIP3    H238616   0.640   1.140  12.392 -0.6362  0.5554  0.1374
 5709TIP3   OH238617   2.232   3.775   1.015 -0.2873 -0.1493 -0.0748
 5709TIP3    H138618   2.291   3.718   1.064  0.2213  1.3670  1.1328
 5709TIP3    H238619   2.144   3.751   1.044 -0.1619 -1.1983 -0.5552
 5710TIP3   OH238620   4.448   2.834   0.699 -0.0692  0.4985  0.5141
 5710TIP3    H138621   4.446   2.911   0.756 -2.2040  0.7841  0.0947
 5710TIP3    H238622   4.365   2.837   0.652  1.0361 -0.5460 -1.5535
 5711TIP3   OH238623   6.556   2.216  14.309  0.4542  0.2395  0.5645
 5711TIP3    H138624   6.625   2.263  14.261 -0.1192  1.8352  1.2517
 5711TIP3    H238625   6.582   2.124  14.305  2.2038  0.7282  0.1118
 5712TIP3   OH238626   1.128   6.435   0.935 -0.2606 -0.1269 -0.2036
 5712TIP3    H138627   1.114   6.410   1.027 -0.1082 -0.5390 -0.2901
 5712TIP3    H238628   1.149   6.528   0.939 -0.5335 -0.0775  0.1546
 5713TIP3   OH238629   4.505   6.648   2.392 -0.3923 -0.0393  0.2311
 5713TIP3    H138630   4.586   6.697   2.407 -1.9298  2.1317  1.9102
 5713TIP3    H238631   4.445   6.714   2.355 -2.0122 -1.0656  0.9888
 5714TIP3   OH238632   3.107   3.772  17.035  0.6577  0.2668  0.0093
 5714TIP3    H138633   3.079   3.815  17.116 -1.8389  1.1687 -1.2625
 5714TIP3    H238634   3.156   3.838  16.988  2.9641 -0.5606  1.1576
 5715TIP3   OH238635   2.683   2.786   5.371 -0.3454 -0.3801 -0.3093
 5715TIP3    H138636   2.634   2.860   5.334 -0.8116 -0.6073 -0.1505
 5715TIP3    H238637   2.757   2.774   5.311 -0.7955 -0.3968 -0.8705
 5716TIP3   OH238638   1.915   0.724  15.441 -0.0399  0.2149 -0.1288
 5716TIP3    H138639   1.898   0.704  15.534  1.7069  1.0659  0.3848
 5716TIP3    H238640   1.993   0.778  15.442 -0.4156  0.8270 -2.0737
 5717TIP3   OH238641   0.236   4.162  14.414 -0.1162 -0.1825  0.5211
 5717TIP3    H138642   0.261   4.253  14.394  0.0783 -0.3520 -0.0138
 5717TIP3    H238643   0.302   4.109  14.370 -0.4821 -0.5984  0.4721
 5718TIP3   OH238644   0.987   2.440  12.071  0.5164  0.0873 -0.1260
 5718TIP3    H138645   0.929   2.476  12.004 -0.4306 -0.7430  0.2415
 5718TIP3    H238646   1.040   2.375  12.024 -0.1668 -0.5155 -0.0754
 5719TIP3   OH238647   3.265   5.085   4.725  0.5120 -0.3526  0.4196
 5719TIP3    H138648   3.232   5.168   4.758 -0.4917 -0.2807 -0.7168
 5719TIP3    H238649   3.233   5.019   4.787 -1.2304 -0.2106 -0.2881
 5720TIP3   OH238650   0.442   5.724  15.697  0.5748 -0.5198  0.1897
 5720TIP3    H138651   0.477   5.737  15.609 -0.4608  0.5937 -0.0679
 5720TIP3    H238652   0.363   5.671  15.684  0.2732 -0.1318  0.4101
 5721TIP3   OH238653   0.487   6.158   2.845  0.7042 -0.5349 -0.2763
 5721TIP3    H138654   0.455   6.087   2.788 -0.4232  1.0741 -1.7032
 5721TIP3    H238655   0.466   6.238   2.797 -0.0888  0.8741  2.3257
 5722TIP3   OH238656   4.438   5.973   4.286  0.0001  0.0264  0.3261
 5722TIP3    H138657   4.461   6.043   4.347 -1.2696  1.0500 -0.3575
 5722TIP3    H238658   4.470   6.003   4.201 -1.4791  0.2679 -0.1533
 5723TIP3   OH238659   4.177   1.655   5.779  0.1066  0.1191  0.2190
 5723TIP3    H138660   4.119   1.660   5.702 -0.1012 -0.8294  0.3010
 5723TIP3    H238661   4.134   1.591   5.836  1.1690 -0.4874  0.3436
 5724TIP3   OH238662   3.662   4.643  16.451 -0.2015  0.0061 -0.3827
 5724TIP3    H138663   3.611   4.573  16.411  0.6592  0.8555 -3.0473
 5724TIP3    H238664   3.753   4.621  16.432  0.3336 -0.2869  2.3338
 5725TIP3   OH238665   2.260   4.719   3.307 -0.1371 -0.6496 -0.3182
 5725TIP3    H138666   2.180   4.701   3.257  0.1707  0.2612 -1.1430
 5725TIP3    H238667   2.284   4.634   3.344 -1.2186 -1.0295 -0.4594
 5726TIP3   OH238668   6.210   5.099  14.033 -0.2880  0.0926  0.2038
 5726TIP3    H138669   6.193   5.008  14.059  0.9068 -0.2636 -0.1970
 5726TIP3    H238670   6.284   5.126  14.088 -1.0525  1.0413  0.7727
 5727TIP3   OH238671   0.290   3.354  12.156 -0.1045  0.0062  0.3597
 5727TIP3    H138672   0.289   3.423  12.222 -1.5687  0.0688  0.2860
 5727TIP3    H238673   0.294   3.402  12.072 -1.1890  0.0152  0.3058
 5728TIP3   OH238674   1.670   0.205  11.452  0.1329  0.2990 -0.1874
 5728TIP3    H138675   1.643   0.232  11.540 -0.9268  0.8796 -0.6840
 5728TIP3    H238676   1.635   0.272  11.394 -0.9581 -1.1754 -1.2609
 5729TIP3   OH238677   3.667   6.456   0.173  0.1046 -0.0257 -0.1361
 5729TIP3    H138678   3.640   6.515   0.243  2.9463 -0.3137  1.2736
 5729TIP3    H238679   3.597   6.463   0.107 -0.8252  3.0034  1.0822
 5730TIP3   OH238680   6.808   1.577  11.447  0.1357 -0.3606 -0.4712
 5730TIP3    H138681   6.856   1.500  11.417  1.4886  0.2435  0.0950
 5730TIP3    H238682   6.755   1.545  11.520 -0.7360 -1.1413 -1.4284
 5731TIP3   OH238683   3.675   1.108  16.761 -0.1704 -0.5561 -0.3195
 5731TIP3    H138684   3.643   1.023  16.791 -0.8211  0.6551  2.5854
 5731TIP3    H238685   3.597   1.163  16.757  0.5366  0.4741 -0.1488
 5732TIP3   OH238686   5.117   5.641   4.238 -0.1147 -0.1476  0.6041
 5732TIP3    H138687   5.048   5.577   4.222 -0.9277  0.1997  2.5556
 5732TIP3    H238688   5.070   5.724   4.245  0.5300  0.1230  1.6990
 5733TIP3   OH238689   2.757   3.158   1.451 -0.1099 -0.0868  0.7470
 5733TIP3    H138690   2.671   3.153   1.409  0.5325 -0.6527 -0.5511
 5733TIP3    H238691   2.804   3.224   1.400 -0.0353  0.7905  1.9488
 5734TIP3   OH238692   3.161   6.462   2.078  0.4342 -0.6141  0.2592
 5734TIP3    H138693   3.243   6.411   2.075  0.8380  0.0306  0.1029
 5734TIP3    H238694   3.123   6.441   2.163  0.1723 -1.8272 -0.1440
 5735TIP3   OH238695   1.145   5.058   0.410  0.3691  0.2238  0.0988
 5735TIP3    H138696   1.060   5.018   0.430  0.5962  0.2206  1.0545
 5735TIP3    H238697   1.205   5.021   0.474  1.9349 -2.6567 -2.8940
 5736TIP3   OH238698   2.251   6.812   5.673 -0.5296  0.1170  0.1751
 5736TIP3    H138699   2.198   6.738   5.703  0.0592 -0.2038  0.4425
 5736TIP3    H238700   2.334   6.802   5.720  0.3369 -0.2700 -1.3850
 5737TIP3   OH238701   0.378   0.394   4.976  0.0213  0.5970 -0.5709
 5737TIP3    H138702   0.312   0.387   5.045  0.4091  1.4901 -0.1102
 5737TIP3    H238703   0.368   0.483   4.941 -1.3222 -0.3858 -2.8431
 5738TIP3   OH238704   2.618   2.812  13.091  0.3002 -0.1296  0.1095
 5738TIP3    H138705   2.546   2.870  13.117  1.6394  0.9841  1.4001
 5738TIP3    H238706   2.631   2.756  13.168 -0.4348 -1.6190 -0.8250
 5739TIP3   OH238707   5.449   4.675   2.634  0.1735 -0.0113 -0.1253
 5739TIP3    H138708   5.476   4.752   2.584  0.7476 -0.2074 -0.1288
 5739TIP3    H238709   5.497   4.683   2.717 -0.8719  0.3797  0.4465
 5740TIP3   OH238710   1.117   3.651   3.238 -0.0884 -0.4481  0.2819
 5740TIP3    H138711   1.096   3.562   3.268  1.5306 -0.3504  1.7546
 5740TIP3    H238712   1.071   3.708   3.299 -1.1181 -0.2564 -0.6590
 5741TIP3   OH238713   3.531   6.438   3.717 -0.3222 -0.3588  0.1072
 5741TIP3    H138714   3.582   6.430   3.798 -2.5033 -0.0722  1.5463
 5741TIP3    H238715   3.476   6.515   3.730 -0.1976  0.1190 -1.9477
 5742TIP3   OH238716   0.445   1.643   0.027 -0.2409 -0.2237 -0.0168
 5742TIP3    H138717   0.444   1.689  -0.057 -0.8952 -1.4883 -0.7153
 5742TIP3    H238718   0.476   1.555   0.005 -0.9959 -0.7350  0.9658
 5743TIP3   OH238719   1.449   0.691   4.093  0.2291  0.6141  0.1508
 5743TIP3    H138720   1.478   0.685   4.184  0.0970  0.3380  0.1756
 5743TIP3    H238721   1.381   0.758   4.094  1.7935  2.2562 -0.1467
 5744TIP3   OH238722   1.388   4.918   1.513  0.3562 -0.0592 -0.4244
 5744TIP3    H138723   1.404   4.896   1.605 -1.4272  1.8376  0.3815
 5744TIP3    H238724   1.474   4.938   1.478  0.9303  0.3993  1.1824
 5745TIP3   OH238725   2.524   4.037   4.783  0.1751  0.6666 -0.3271
 5745TIP3    H138726   2.432   4.056   4.795  0.1804  0.6437 -0.2513
 5745TIP3    H238727   2.527   3.978   4.707  0.2051  1.3930 -0.8924
 5746TIP3   OH238728   0.849   1.690   3.112  0.5827  0.5154  0.0881
 5746TIP3    H138729   0.849   1.785   3.100  0.2762  0.2024 -2.5423
 5746TIP3    H238730   0.923   1.659   3.060  0.3571 -0.7688  0.5009
 5747TIP3   OH238731   5.825   2.877   3.164  0.1406  0.3752 -0.2624
 5747TIP3    H138732   5.904   2.929   3.175 -0.2496  1.2325 -1.3824
 5747TIP3    H238733   5.804   2.844   3.251  0.9684  1.2657  0.2667
 5748TIP3   OH238734   2.441   1.094  12.413 -0.2379 -0.2117 -0.3026
 5748TIP3    H138735   2.475   1.006  12.394 -0.3187 -0.8336  2.2076
 5748TIP3    H238736   2.349   1.090  12.387  0.2733 -0.1780 -2.1945
 5749TIP3   OH238737   3.981   5.075   5.613  0.5078  0.6777 -0.7257
 5749TIP3    H138738   4.055   5.106   5.665  1.3846 -0.2319 -1.4209
 5749TIP3    H238739   3.909   5.135   5.636  0.1613 -1.1212  3.3396
 5750TIP3   OH238740   2.960   6.281   3.706 -0.0471 -0.3761 -0.1109
 5750TIP3    H138741   3.006   6.228   3.641  1.2589  1.8374 -1.0488
 5750TIP3    H238742   3.026   6.345   3.735 -1.8641  1.3989  0.2118
 5751TIP3   OH238743   1.407   6.212   4.539  0.1338  0.0093 -0.1414
 5751TIP3    H138744   1.434   6.121   4.550 -1.4930 -0.4492  0.0962
 5751TIP3    H238745   1.361   6.233   4.620  1.1965  1.2961  0.1382
 5752TIP3   OH238746   3.121   5.539   3.478  0.0571  0.0033 -0.0645
 5752TIP3    H138747   3.131   5.619   3.425  0.6975  0.8037  1.2227
 5752TIP3    H238748   3.151   5.565   3.565 -0.7540 -1.3645  0.6313
 5753TIP3   OH238749   2.219   2.542   1.016 -0.6318  0.0471  0.0173
 5753TIP3    H138750   2.124   2.538   1.028 -0.4194 -0.2821  1.8334
 5753TIP3    H238751   2.240   2.635   1.019 -0.8647  0.1033 -0.1149
 5754TIP3   OH238752   3.389   2.273   5.113  0.7667 -0.9718  0.1436
 5754TIP3    H138753   3.397   2.213   5.188  1.4274 -0.9723  0.0817
 5754TIP3    H238754   3.476   2.313   5.106  0.7414 -1.0530 -0.6874
 5755TIP3   OH238755   3.386   2.355   5.830  0.3186  0.1702 -0.1126
 5755TIP3    H138756   3.431   2.293   5.771  1.6184  1.4845 -0.5290
 5755TIP3    H238757   3.351   2.422   5.772 -1.2185 -0.2454  0.3258
 5756TIP3   OH238758   1.321   2.271   0.964 -0.1439  0.1719 -0.5949
 5756TIP3    H138759   1.391   2.272   0.899 -0.4176  1.8470 -0.8903
 5756TIP3    H238760   1.320   2.360   1.000 -1.3754 -0.1440  0.2018
 5757TIP3   OH238761   4.445   6.179   2.064 -0.0217  0.5251  0.2806
 5757TIP3    H138762   4.460   6.193   2.158 -0.0732  0.1696  0.3452
 5757TIP3    H238763   4.414   6.088   2.059 -1.3400  0.9784  0.0620
 5758TIP3   OH238764   4.714   6.084  12.068  0.3708  0.4615 -0.3449
 5758TIP3    H138765   4.648   6.043  12.012  1.0697  1.6245 -2.0680
 5758TIP3    H238766   4.789   6.099  12.010  1.9715 -0.3489  1.4602
 5759TIP3   OH238767   6.733   5.827   2.826 -0.0002 -0.0606  0.0236
 5759TIP3    H138768   6.660   5.856   2.880  1.3042  2.3021  0.5958
 5759TIP3    H238769   6.799   5.796   2.888 -0.4474 -2.1144 -0.4858
 5760TIP3   OH238770   0.800   5.656   5.529 -0.3284 -0.3461 -0.6048
 5760TIP3    H138771   0.809   5.697   5.615 -1.7696 -0.2672 -0.4755
 5760TIP3    H238772   0.885   5.669   5.487  0.9265 -1.7729  1.4002
 5761TIP3   OH238773   3.415   5.071   1.349 -0.0512  0.6234 -0.1779
 5761TIP3    H138774   3.349   5.132   1.382  0.2972  1.3354 -0.7534
 5761TIP3    H238775   3.469   5.125   1.290 -1.3537 -0.8730 -2.7848
 5762TIP3   OH238776   2.572   0.925  11.508  0.5918 -0.5406  0.0326
 5762TIP3    H138777   2.667   0.935  11.504  0.4630  1.5511  1.2902
 5762TIP3    H238778   2.554   0.895  11.597  0.1594 -2.1764 -0.5959
 5763TIP3   OH238779   0.564   2.067   1.459  0.6230  0.6535 -0.2602
 5763TIP3    H138780   0.522   2.004   1.517  0.8320  1.5625  0.8883
 5763TIP3    H238781   0.496   2.091   1.396  0.6515 -0.9914 -0.9415
 5764TIP3   OH238782   3.153   0.321  16.058 -0.6270 -0.3043 -0.0506
 5764TIP3    H138783   3.077   0.339  16.113 -1.3240 -0.0539 -1.0879
 5764TIP3    H238784   3.165   0.226  16.064 -1.3765 -0.4176 -0.3545
 5765TIP3   OH238785   5.552   3.778   4.789 -0.1285  0.5196  0.1933
 5765TIP3    H138786   5.578   3.781   4.881 -2.2132  1.7607  0.7684
 5765TIP3    H238787   5.471   3.827   4.785  0.8357  2.0107 -2.6569
 5766TIP3   OH238788   4.623   5.765  16.874 -0.1268 -0.7040 -0.4766
 5766TIP3    H138789   4.652   5.856  16.860  0.6989 -0.5115  2.0916
 5766TIP3    H238790   4.701   5.712  16.856 -0.4418 -0.8641 -1.3885
 5767TIP3   OH238791   0.266   4.153   0.309 -0.4151  0.2418 -0.1468
 5767TIP3    H138792   0.181   4.118   0.280 -0.4262  0.4523 -0.3633
 5767TIP3    H238793   0.326   4.080   0.299 -0.4620  0.2494 -0.4978
 5768TIP3   OH238794   4.764   5.003  14.065  0.0315 -0.8353 -0.2545
 5768TIP3    H138795   4.843   5.042  14.102 -0.0276 -1.6439  0.7475
 5768TIP3    H238796   4.707   4.986  14.140 -0.7941 -0.9305 -0.8890
 5769TIP3   OH238797   3.614   0.211  16.660 -0.3053 -0.0149 -0.0807
 5769TIP3    H138798   3.580   0.272  16.594  1.3287  0.1950 -0.7328
 5769TIP3    H238799   3.564   0.130  16.645 -0.1674  0.1293 -1.3825
 5770TIP3   OH238800   3.624   1.343  16.056 -0.3319 -0.4849  0.1009
 5770TIP3    H138801   3.649   1.256  16.022  0.7136  0.2535 -1.0791
 5770TIP3    H238802   3.529   1.339  16.063 -0.2604 -1.8833  0.4817
 5771TIP3   OH238803   6.190   3.775   4.368 -0.3273 -0.1671  0.1569
 5771TIP3    H138804   6.230   3.689   4.360  0.1885  0.0956 -0.1434
 5771TIP3    H238805   6.259   3.830   4.407 -0.7346  0.0477  0.5799
 5772TIP3   OH238806   1.852   3.931   2.651 -0.2683  0.8869  0.2119
 5772TIP3    H138807   1.916   4.002   2.663  1.6105 -1.1026  2.7235
 5772TIP3    H238808   1.789   3.944   2.722 -0.9449  1.0647 -0.4160
 5773TIP3   OH238809   3.131   6.366   1.817  0.3439 -0.4731 -0.2191
 5773TIP3    H138810   3.141   6.427   1.890 -0.0223  0.3837 -0.8819
 5773TIP3    H238811   3.051   6.317   1.838  0.3683 -0.3920  0.0655
 5774TIP3   OH238812   0.329   4.962  16.386 -0.4359 -0.3233  0.2048
 5774TIP3    H138813   0.285   5.014  16.453 -0.5418 -1.1346  0.7838
 5774TIP3    H238814   0.357   4.883  16.433  2.3100  0.4969  0.0494
 5775TIP3   OH238815   1.312   1.557   6.556  0.3435  0.2487  0.0236
 5775TIP3    H138816   1.358   1.513   6.628 -0.8878 -0.4700  0.3854
 5775TIP3    H238817   1.370   1.548   6.481  0.6735 -0.9078  0.4033
 5776TIP3   OH238818   0.803   3.329  12.606  0.4394 -0.3979  0.0623
 5776TIP3    H138819   0.835   3.316  12.696  0.8079 -1.2694 -0.1864
 5776TIP3    H238820   0.745   3.405  12.612  0.1928 -0.6554  1.1095
 5777TIP3   OH238821   2.275   4.185  14.579 -0.4855  0.5974 -0.2049
 5777TIP3    H138822   2.286   4.113  14.641 -0.6531  1.2033  0.5308
 5777TIP3    H238823   2.357   4.235  14.586 -0.3544  0.4593 -0.7377
 5778TIP3   OH238824   1.082   3.750   6.282  0.6481  0.0011 -0.0529
 5778TIP3    H138825   1.172   3.780   6.267  1.4681 -1.2607  2.0374
 5778TIP3    H238826   1.057   3.791   6.365 -0.1086 -0.9028  0.1723
 5779TIP3   OH238827   5.174   0.985  13.943 -0.0857 -0.0384 -0.0464
 5779TIP3    H138828   5.198   0.905  13.989 -1.9894 -0.1747  0.7558
 5779TIP3    H238829   5.103   0.958  13.884 -0.5494  0.9851  0.0294
 5780TIP3   OH238830   4.434   0.203  11.460 -0.2486  0.3731  0.1737
 5780TIP3    H138831   4.516   0.169  11.424 -0.0185  2.8144 -1.7313
 5780TIP3    H238832   4.417   0.283  11.410 -2.5053  1.2432  2.2332
 5781TIP3   OH238833   3.759   1.297   3.628 -0.6060  1.2375 -0.3192
 5781TIP3    H138834   3.813   1.238   3.575 -0.6745 -0.1106  1.0868
 5781TIP3    H238835   3.819   1.335   3.691 -1.4456 -1.1481  2.0045
 5782TIP3   OH238836   4.307   5.910  17.222  0.1454 -0.1718 -0.0671
 5782TIP3    H138837   4.225   5.880  17.260  1.9112 -0.7017  3.6239
 5782TIP3    H238838   4.340   5.834  17.173 -1.0899 -0.2594 -0.7756
 5783TIP3   OH238839   1.765   1.634   3.502 -0.4851  0.2151  0.2937
 5783TIP3    H138840   1.674   1.661   3.491 -0.4769  1.3288  2.5742
 5783TIP3    H238841   1.814   1.717   3.502  0.0774 -0.0784  2.8354
 5784TIP3   OH238842   0.131   1.459  14.089  0.1088  0.0219 -0.2517
 5784TIP3    H138843   0.205   1.495  14.137  0.1171 -1.0337  0.5336
 5784TIP3    H238844   0.167   1.432  14.004  0.1261  1.7391 -0.8023
 5785TIP3   OH238845   0.838   0.964  14.490  0.1954 -0.1544  0.2005
 5785TIP3    H138846   0.857   0.932  14.579  1.3832  1.0269  0.3878
 5785TIP3    H238847   0.848   1.059  14.496  0.6081 -0.0928 -1.2830
 5786TIP3   OH238848   6.712   1.297   0.224  0.3445  0.5075 -0.1731
 5786TIP3    H138849   6.727   1.262   0.312  0.9164 -0.4052 -0.6264
 5786TIP3    H238850   6.655   1.232   0.182  1.8370 -0.1480 -1.1964
 5787TIP3   OH238851   6.379   5.013  13.321  0.0251  0.2465  0.0449
 5787TIP3    H138852   6.413   5.070  13.390  0.7022  0.0201 -0.0975
 5787TIP3    H238853   6.337   4.941  13.367  0.9173 -0.1632  0.2235
 5788TIP3   OH238854   5.731   1.902   0.255 -0.1340 -0.2642 -0.1873
 5788TIP3    H138855   5.672   1.840   0.297 -0.1569  0.6200  1.0970
 5788TIP3    H238856   5.802   1.847   0.220 -0.3019 -1.0479  0.6774
 5789TIP3   OH238857   6.252   6.792   6.613 -0.0329 -0.0266 -0.3921
 5789TIP3    H138858   6.254   6.884   6.587 -1.5737  0.0069 -0.4490
 5789TIP3    H238859   6.197   6.790   6.691  0.8486 -0.7647  0.2246
 5790TIP3   OH238860   0.136   6.739  14.647 -0.0521 -0.3941  0.2530
 5790TIP3    H138861   0.212   6.682  14.658  0.5372  0.6440  1.8383
 5790TIP3    H238862   0.061   6.683  14.668  0.4206 -0.9630  0.4396
 5791TIP3   OH238863   3.429   1.143   0.006  0.0569 -0.0243 -0.2140
 5791TIP3    H138864   3.474   1.224  -0.018 -0.3840  0.0166 -0.9083
 5791TIP3    H238865   3.338   1.168   0.021 -0.4667 -0.6750 -2.1782
 5792TIP3   OH238866   0.302   1.213   3.919  0.1514  0.4382  0.4246
 5792TIP3    H138867   0.380   1.181   3.875 -0.2170  2.1843 -1.5988
 5792TIP3    H238868   0.230   1.162   3.882  0.0496  0.6368  0.3464
 5793TIP3   OH238869   0.793   5.798  15.600  0.0027  0.6597  0.5795
 5793TIP3    H138870   0.768   5.714  15.562 -1.7683  0.7873  1.3903
 5793TIP3    H238871   0.879   5.783  15.639 -0.0403 -0.6090  0.1965
 5794TIP3   OH238872   5.442   0.320  11.613  0.2916  0.1719  0.0482
 5794TIP3    H138873   5.427   0.277  11.529  0.6994  1.2674 -0.6031
 5794TIP3    H238874   5.376   0.283  11.671 -2.2321  1.8233 -1.6426
 5795TIP3   OH238875   1.444   5.445   0.470  0.1638 -0.5673  0.5104
 5795TIP3    H138876   1.417   5.410   0.386 -0.0355 -1.4096  0.9168
 5795TIP3    H238877   1.361   5.466   0.515  0.2488 -0.8168  0.7855
 5796TIP3   OH238878   0.877   0.552   4.006 -0.1069 -0.3017 -0.0638
 5796TIP3    H138879   0.970   0.543   4.023 -0.2694  0.2021  1.1032
 5796TIP3    H238880   0.842   0.599   4.082 -1.0215  0.9852 -1.2438
 5797TIP3   OH238881   5.593   3.760   2.271 -0.4499 -0.4985  0.1146
 5797TIP3    H138882   5.547   3.808   2.339  0.4008  0.0721  0.3018
 5797TIP3    H238883   5.526   3.739   2.206 -1.0752 -0.2066  0.6626
 5798TIP3   OH238884   2.642   6.789  12.511 -0.4067 -0.0442  1.0898
 5798TIP3    H138885   2.566   6.847  12.517  0.2661  0.7575  1.9102
 5798TIP3    H238886   2.680   6.789  12.599  1.4955  0.8726  0.2987
 5799TIP3   OH238887   5.971   2.025   5.114 -0.4220  0.0043 -0.5644
 5799TIP3    H138888   6.013   1.953   5.067  1.3542  0.5234  0.2198
 5799TIP3    H238889   5.907   1.982   5.171 -0.6282 -0.8157 -1.3949
 5800TIP3   OH238890   1.219   4.067  16.630 -0.0560  0.0252  0.0603
 5800TIP3    H138891   1.144   4.108  16.588  0.5877 -1.0841 -2.2285
 5800TIP3    H238892   1.293   4.124  16.608 -0.1287  0.9179  2.0034
 5801TIP3   OH238893   4.330   5.941   2.003 -0.0087  0.2038 -0.2421
 5801TIP3    H138894   4.346   5.853   2.038  2.3714  0.2531 -1.0654
 5801TIP3    H238895   4.254   5.932   1.947  2.3488 -2.2051 -3.2150
 5802TIP3   OH238896   2.253   5.374  14.003  0.6330 -0.4047 -0.2638
 5802TIP3    H138897   2.318   5.326  13.952 -0.1134 -0.6166 -1.0428
 5802TIP3    H238898   2.202   5.422  13.937  0.9649  0.9487  0.4535
 5803TIP3   OH238899   1.268   0.030   1.109 -0.0178  0.6848  0.0470
 5803TIP3    H138900   1.257   0.083   1.029 -0.5401  0.8792  0.2510
 5803TIP3    H238901   1.361   0.043   1.132  0.2805  0.1802 -0.8435
 5804TIP3   OH238902   1.936   4.941  15.823 -0.3418  0.5445  0.2823
 5804TIP3    H138903   2.021   4.897  15.833 -0.7269 -0.1798  0.4324
 5804TIP3    H238904   1.949   5.001  15.750  0.1397  0.0262 -0.0678
 5805TIP3   OH238905   4.638   2.694  11.404 -0.0608  0.2507  0.0912
 5805TIP3    H138906   4.589   2.614  11.423  0.3192  0.4860  2.2092
 5805TIP3    H238907   4.636   2.702  11.309 -0.6511 -1.9295 -0.1015
 5806TIP3   OH238908   3.300   4.028  13.772 -0.5803  0.3581  0.4839
 5806TIP3    H138909   3.362   3.958  13.792 -1.0781  0.0195  0.8647
 5806TIP3    H238910   3.246   4.035  13.851 -1.4262  0.2180 -0.0735
 5807TIP3   OH238911   6.035   1.576   0.607 -0.1134  0.0303  0.6922
 5807TIP3    H138912   6.105   1.574   0.672  1.2309 -0.4183 -0.7563
 5807TIP3    H238913   6.078   1.601   0.526 -1.8627  1.0720  0.0449
 5808TIP3   OH238914   3.794   2.366   1.386  0.7424  0.3408 -0.1694
 5808TIP3    H138915   3.830   2.278   1.400 -0.4004  0.1279  1.5692
 5808TIP3    H238916   3.734   2.355   1.313  0.7034 -0.3007 -0.0494
 5809TIP3   OH238917   5.368   4.482   0.448  0.0382  0.3334 -0.4143
 5809TIP3    H138918   5.275   4.473   0.467  0.1319 -0.1170 -0.1747
 5809TIP3    H238919   5.379   4.446   0.360  0.2798 -1.1953  0.2361
 5810TIP3   OH238920   3.586   1.555  11.504 -0.8935  0.2251 -0.6021
 5810TIP3    H138921   3.513   1.520  11.453 -0.3551 -2.6928  0.4954
 5810TIP3    H238922   3.663   1.510  11.469  0.1233  1.7451 -0.3769
 5811TIP3   OH238923   3.825   1.407  16.305  0.0049  0.0935 -0.1439
 5811TIP3    H138924   3.793   1.369  16.223 -0.4171 -1.2864  0.6333
 5811TIP3    H238925   3.892   1.469  16.278  1.4366 -1.9264 -1.4291
 5812TIP3   OH238926   2.006   3.625  14.769 -0.3145  0.2227 -0.5308
 5812TIP3    H138927   2.069   3.574  14.718 -0.0312  0.2634 -0.2235
 5812TIP3    H238928   1.971   3.689  14.707  0.4301  0.6271 -0.5332
 5813TIP3   OH238929   2.141   6.306  16.535  0.0282  0.2449 -1.0350
 5813TIP3    H138930   2.146   6.299  16.630  1.8986  3.7659 -0.7877
 5813TIP3    H238931   2.047   6.313  16.516 -0.4039 -1.2069  0.4301
 5814TIP3   OH238932   3.604   4.548   5.348  0.3440 -0.0827  0.3696
 5814TIP3    H138933   3.579   4.466   5.392  0.2939  0.7764  1.9751
 5814TIP3    H238934   3.677   4.581   5.400  0.1964  1.0258 -0.1236
 5815TIP3   OH238935   5.045   1.805   2.650  0.0461  0.1120  0.3201
 5815TIP3    H138936   4.982   1.876   2.634  0.9682  1.2409  1.6565
 5815TIP3    H238937   5.115   1.821   2.587 -0.2270 -0.2168 -0.0729
 5816TIP3   OH238938   0.531   0.114  15.889  0.2112  0.0615 -0.7301
 5816TIP3    H138939   0.514   0.023  15.911  1.3385 -0.0329 -0.2166
 5816TIP3    H238940   0.595   0.143  15.954  0.5520  0.9415 -1.4416
 5817TIP3   OH238941   6.157   1.069   5.346  0.2154 -0.2697 -0.3407
 5817TIP3    H138942   6.100   1.052   5.271 -1.4162 -0.0694  0.8094
 5817TIP3    H238943   6.204   0.988   5.360  0.6663 -0.2456 -1.6971
 5818TIP3   OH238944   4.194   4.075  15.021  0.5322 -0.1774  0.2894
 5818TIP3    H138945   4.179   4.018  15.096  1.4518 -1.0200 -0.1679
 5818TIP3    H238946   4.147   4.033  14.949  2.2072 -0.9950 -0.3315
 5819TIP3   OH238947   5.346   4.987  12.088 -0.0140  0.4099  0.1599
 5819TIP3    H138948   5.273   4.930  12.063  1.7417 -0.3214 -3.5943
 5819TIP3    H238949   5.389   4.940  12.159 -0.8718 -1.0866 -0.2734
 5820TIP3   OH238950   5.815   6.625  12.078  0.0283  0.1421 -0.1324
 5820TIP3    H138951   5.774   6.608  11.994 -1.2631  1.2770  0.2494
 5820TIP3    H238952   5.825   6.720  12.081  0.3795  0.0786  0.8424
 5821TIP3   OH238953   4.494   3.815  11.159  0.7181 -0.4593 -0.0108
 5821TIP3    H138954   4.517   3.810  11.251  2.1835  1.1854 -0.2698
 5821TIP3    H238955   4.454   3.730  11.139  3.3596 -2.0396  1.3260
 5822TIP3   OH238956   2.897   6.172  14.006 -0.0202 -0.1024 -0.1326
 5822TIP3    H138957   2.919   6.262  13.984 -1.1839  0.1529 -0.2821
 5822TIP3    H238958   2.842   6.179  14.084 -0.2124 -0.6689 -0.2106
 5823TIP3   OH238959   4.872   2.040  15.719 -0.8567 -0.0466  0.0995
 5823TIP3    H138960   4.921   2.021  15.639  0.1526 -1.1750  0.9678
 5823TIP3    H238961   4.851   2.133  15.712  1.3031  0.4406 -0.3680
 5824TIP3   OH238962   2.574   1.151  13.641 -0.5685  0.0120  0.8094
 5824TIP3    H138963   2.618   1.237  13.637 -1.2298  0.3816  1.5634
 5824TIP3    H238964   2.494   1.167  13.689 -1.9871 -0.4898 -1.3218
 5825TIP3   OH238965   5.475   5.643  12.287  0.0587 -0.1554 -0.4521
 5825TIP3    H138966   5.526   5.720  12.261 -0.4069  0.1741 -0.3902
 5825TIP3    H238967   5.435   5.612  12.206 -0.7075  0.3698 -0.2794
 5826TIP3   OH238968   3.718   6.717  13.364  0.5336 -0.4891 -0.3808
 5826TIP3    H138969   3.639   6.770  13.357  0.4876 -0.5708 -0.4942
 5826TIP3    H238970   3.751   6.711  13.274  1.5002  0.7991 -0.1149
 5827TIP3   OH238971   1.559   6.447   3.302 -0.2682 -0.0276 -0.5497
 5827TIP3    H138972   1.466   6.425   3.314 -0.3512 -0.8641 -2.5762
 5827TIP3    H238973   1.603   6.363   3.293  0.3681  0.4311 -1.7673
 5828TIP3   OH238974   1.123   4.563   3.811 -0.3005  0.0253  0.4370
 5828TIP3    H138975   1.170   4.491   3.852 -1.8738 -0.6720  1.0611
 5828TIP3    H238976   1.093   4.528   3.728 -0.0884  0.3338  0.2290
 5829TIP3   OH238977   3.626   0.303  11.943  0.5497 -0.3105 -0.3198
 5829TIP3    H138978   3.623   0.252  12.024 -0.3620 -1.3386 -0.9792
 5829TIP3    H238979   3.553   0.269  11.891  1.0108  0.4689 -1.4964
 5830TIP3   OH238980   0.107   1.609   6.765 -0.0257  0.0946  0.5141
 5830TIP3    H138981   0.077   1.525   6.799  1.9942 -0.3470  1.2477
 5830TIP3    H238982   0.195   1.620   6.801  0.0214  2.1819 -0.1646
 5831TIP3   OH238983   2.010   0.659  16.744 -0.1764  0.6371 -0.4819
 5831TIP3    H138984   1.956   0.641  16.821 -1.0078  1.8062 -0.7814
 5831TIP3    H238985   1.965   0.730  16.698  0.3408  0.0140 -2.0147
 5832TIP3   OH238986   4.561   0.060   5.676  0.0265 -0.4746 -0.7714
 5832TIP3    H138987   4.544   0.083   5.767 -2.0182  0.0521 -1.2841
 5832TIP3    H238988   4.616   0.131   5.643 -1.6971  0.8680 -0.7882
 5833TIP3   OH238989   0.301   2.595  15.158 -0.8468  0.5392  0.0004
 5833TIP3    H138990   0.298   2.572  15.251 -1.7032  1.3964  0.1848
 5833TIP3    H238991   0.395   2.600  15.138 -0.6495 -0.4393  0.6068
 5834TIP3   OH238992   1.937   6.117  13.998  0.0545 -0.5060  0.3167
 5834TIP3    H138993   1.927   6.088  14.089 -0.1134 -0.2710  0.3720
 5834TIP3    H238994   1.904   6.206  13.998 -0.1862 -0.5960 -0.0323
 5835TIP3   OH238995   2.622   6.225  11.283 -0.4008  0.4415 -0.3894
 5835TIP3    H138996   2.528   6.233  11.296 -0.6196  0.0534 -1.6486
 5835TIP3    H238997   2.649   6.310  11.247 -0.7837 -0.4061 -2.7950
 5836TIP3   OH238998   5.504   2.038  17.065  0.7165 -0.2002  0.1659
 5836TIP3    H138999   5.413   2.067  17.068  0.2113 -1.6785 -0.3072
 5836TIP3    H239000   5.505   1.959  17.120  2.0774  0.7558  1.5565
 5837TIP3   OH239001   3.884   3.170  16.008 -0.1711  0.4383  0.0055
 5837TIP3    H139002   3.827   3.246  16.001 -0.5803  0.0552 -0.9387
 5837TIP3    H239003   3.858   3.114  15.935 -0.7972 -1.2425  1.4857
 5838TIP3   OH239004   3.728   6.747  16.771  0.1776  0.4243  0.2663
 5838TIP3    H139005   3.640   6.785  16.781 -0.8819 -1.3637 -1.8689
 5838TIP3    H239006   3.772   6.768  16.854 -1.7934  2.5028  0.8597
 5839TIP3   OH239007   0.348   5.521  14.155 -0.5683  0.1475 -0.4073
 5839TIP3    H139008   0.313   5.444  14.201 -1.3101  0.9757  0.4353
 5839TIP3    H239009   0.279   5.587  14.164  0.3652  1.1388 -0.5038
 5840TIP3   OH239010   0.255   0.105   4.689  0.0342  0.2955 -0.2376
 5840TIP3    H139011   0.239   0.041   4.620  1.5037  0.1232 -0.4345
 5840TIP3    H239012   0.179   0.162   4.687 -0.3935 -0.3001 -1.3470
 5841TIP3   OH239013   6.298   1.267   4.283 -0.0026  0.0681 -0.0237
 5841TIP3    H139014   6.282   1.218   4.363  1.1048  0.0287  0.1837
 5841TIP3    H239015   6.388   1.300   4.293 -1.0396  2.9350  0.2590
 5842TIP3   OH239016   0.340   3.762  11.051  0.4677  0.9370 -0.0126
 5842TIP3    H139017   0.353   3.766  10.957 -0.2824  0.6625 -0.1290
 5842TIP3    H239018   0.318   3.851  11.077  0.8674  1.0529 -0.0613
 5843TIP3   OH239019   5.524   4.783  16.279 -0.5286 -0.2456  0.3032
 5843TIP3    H139020   5.464   4.720  16.318 -1.1700  0.7066  0.8653
 5843TIP3    H239021   5.552   4.742  16.197 -0.3104 -1.6101  1.0594
 5844TIP3   OH239022   6.505   1.827   0.716 -0.2655  0.0494  0.1215
 5844TIP3    H139023   6.554   1.745   0.708  0.5580  0.6030 -0.5378
 5844TIP3    H239024   6.548   1.874   0.787  0.4676  0.7374 -0.7617
 5845TIP3   OH239025   6.640   4.850  13.234  0.0767 -0.1088  0.0778
 5845TIP3    H139026   6.729   4.874  13.208  0.3037 -0.1777  0.7659
 5845TIP3    H239027   6.619   4.911  13.304 -0.5913  0.1915 -0.3846
 5846TIP3   OH239028   3.901   3.910  14.595  0.2139  0.6279 -0.0600
 5846TIP3    H139029   3.899   3.941  14.504  0.5147  0.8074 -0.0036
 5846TIP3    H239030   3.813   3.873  14.609  0.3820 -0.0151 -0.6414
 5847TIP3   OH239031   1.441   4.676   3.751 -0.1327 -0.1978  0.3136
 5847TIP3    H139032   1.488   4.653   3.831 -1.0315 -1.0241  0.6113
 5847TIP3    H239033   1.362   4.721   3.781  0.3104  0.9551 -0.1765
 5848TIP3   OH239034   2.497   6.140   4.501  0.3855  0.1758  0.8513
 5848TIP3    H139035   2.437   6.157   4.428 -0.9564 -0.4551  1.7976
 5848TIP3    H239036   2.509   6.226   4.542  2.2304  0.7997 -0.9020
 5849TIP3   OH239037   0.135   5.625   4.037 -0.8361  0.0908  0.0237
 5849TIP3    H139038   0.059   5.569   4.024 -0.4056 -0.6556  0.6632
 5849TIP3    H239039   0.153   5.663   3.951 -3.1023  1.8078  0.2597
 5850TIP3   OH239040   5.785   1.698  11.741  0.1228  0.5830 -0.6521
 5850TIP3    H139041   5.831   1.781  11.729  0.5363  0.2422 -1.4489
 5850TIP3    H239042   5.692   1.721  11.741  0.1642  0.8203 -2.7365
 5851TIP3   OH239043   0.912   3.889  16.588  0.4907 -0.3155  0.4539
 5851TIP3    H139044   0.930   3.951  16.517 -1.7497  1.4447  1.3511
 5851TIP3    H239045   0.910   3.803  16.545 -0.2712  0.6506 -1.5147
 5852TIP3   OH239046   2.887   6.630  15.836  0.0877  0.3778 -0.7725
 5852TIP3    H139047   2.856   6.622  15.926  2.9910 -0.5020  0.2035
 5852TIP3    H239048   2.881   6.542  15.801 -0.6833  0.6511 -1.3491
 5853TIP3   OH239049   4.800   2.441   4.990  0.2884 -0.6632  0.3513
 5853TIP3    H139050   4.817   2.498   4.916  0.4758 -0.1562  0.7816
 5853TIP3    H239051   4.805   2.498   5.067 -1.2866 -0.8958  0.6547
 5854TIP3   OH239052   3.953   5.774  12.872 -0.1450 -0.5175 -0.1069
 5854TIP3    H139053   4.045   5.769  12.848  0.2357 -0.5424  1.2858
 5854TIP3    H239054   3.906   5.786  12.789  1.1508  0.0160 -0.7715
 5855TIP3   OH239055   1.490   6.408  16.223 -0.6934  0.6067  0.2492
 5855TIP3    H139056   1.549   6.339  16.253  0.4482  1.0770 -0.8974
 5855TIP3    H239057   1.403   6.368  16.226 -0.1428 -0.5745  0.4798
 5856TIP3   OH239058   2.579   2.317   3.732  0.5359  0.0205  0.7686
 5856TIP3    H139059   2.635   2.390   3.757  0.9660  0.1469 -0.5514
 5856TIP3    H239060   2.640   2.247   3.707  0.1562 -1.2980  3.3820
 5857TIP3   OH239061   0.809   2.377  12.564  0.0653  0.2205 -0.0356
 5857TIP3    H139062   0.739   2.441  12.573  0.5007  0.5620  0.9552
 5857TIP3    H239063   0.857   2.404  12.486 -0.4782  0.3929 -0.3081
 5858TIP3   OH239064   6.580   3.156   0.230 -0.0648 -0.1522 -0.1456
 5858TIP3    H139065   6.528   3.211   0.172  0.2177  0.1144 -0.1465
 5858TIP3    H239066   6.554   3.067   0.208 -3.1610  0.0357  2.3162
 5859TIP3   OH239067   5.303   2.856  17.088  0.0626 -0.0903  0.4182
 5859TIP3    H139068   5.289   2.880  17.179  1.5850 -0.3571  0.7361
 5859TIP3    H239069   5.360   2.926  17.053 -2.5942  1.4164 -1.0520
 5860TIP3   OH239070   0.706   3.001  12.848 -0.1108 -0.4581  0.1327
 5860TIP3    H139071   0.703   3.047  12.764  1.9272 -0.2284  0.1703
 5860TIP3    H239072   0.624   3.025  12.892 -1.9594 -1.7899 -2.4006
 5861TIP3   OH239073   2.226   4.254   2.997  0.0009  0.0149  0.1483
 5861TIP3    H139074   2.246   4.225   3.086  0.0604 -0.6944 -0.0871
 5861TIP3    H239075   2.135   4.285   3.002 -0.0544 -0.1810  0.4233
 5862TIP3   OH239076   2.297   6.605   6.311 -0.0408  0.4058  0.7135
 5862TIP3    H139077   2.362   6.549   6.352  0.7864 -0.0603 -1.1941
 5862TIP3    H239078   2.220   6.549   6.299  1.1297 -0.6706 -2.1280
 5863TIP3   OH239079   3.002   4.058  12.442 -0.3929  0.6060 -0.4569
 5863TIP3    H139080   3.047   4.028  12.521  1.1115  0.0013 -1.5317
 5863TIP3    H239081   3.060   4.124  12.405 -1.3026  1.2060 -0.8370
 5864TIP3   OH239082   2.532   3.823   0.892  0.1831  0.3969  0.4290
 5864TIP3    H139083   2.561   3.763   0.961 -1.0682 -0.2930  0.3779
 5864TIP3    H239084   2.459   3.777   0.850  2.0248  0.0446 -2.5026
 5865TIP3   OH239085   1.753   5.501   5.406  0.0914  0.3169  0.3767
 5865TIP3    H139086   1.794   5.568   5.461  1.0846  0.3950 -0.4519
 5865TIP3    H239087   1.761   5.534   5.317 -2.0056  0.4343  0.2164
 5866TIP3   OH239088   3.337   1.459   2.335  0.4096 -0.0992 -0.3395
 5866TIP3    H139089   3.250   1.449   2.296  0.9673  0.1232 -1.6761
 5866TIP3    H239090   3.391   1.395   2.289  1.3516  1.0048 -0.8013
 5867TIP3   OH239091   4.313   3.095   5.565  0.3211  0.2510 -0.0413
 5867TIP3    H139092   4.260   3.112   5.643  0.6213  1.8795 -0.1927
 5867TIP3    H239093   4.357   3.178   5.546  0.6858 -0.2815 -1.6131
 5868TIP3   OH239094   2.211   1.509   0.293 -0.2646 -0.0703 -0.1581
 5868TIP3    H139095   2.257   1.428   0.273 -1.8264 -1.0152 -0.0549
 5868TIP3    H239096   2.120   1.482   0.305 -0.3174  1.2525  2.8147
 5869TIP3   OH239097   2.497   6.133   1.872 -0.9193  0.0680 -0.5899
 5869TIP3    H139098   2.477   6.194   1.800 -3.1927  0.6983  0.5181
 5869TIP3    H239099   2.533   6.188   1.941  1.1393 -0.5226 -1.1494
 5870TIP3   OH239100   5.579   4.087  14.010 -0.1487  0.0086 -0.3624
 5870TIP3    H139101   5.556   4.042  14.091  0.2845 -0.0291 -0.2607
 5870TIP3    H239102   5.545   4.176  14.022 -2.2057 -0.6596 -1.1204
 5871TIP3   OH239103   2.293   5.734   0.880 -0.0855 -0.1612  0.3291
 5871TIP3    H139104   2.318   5.812   0.929  0.1340 -0.2193  0.3133
 5871TIP3    H239105   2.220   5.697   0.928 -0.5873  0.3936 -0.0087
 5872TIP3   OH239106   4.211   2.150  17.159 -0.1981  0.1257 -0.4862
 5872TIP3    H139107   4.123   2.120  17.185  0.0870  0.7299  1.1963
 5872TIP3    H239108   4.237   2.088  17.091 -1.6075 -0.5505 -0.4456
 5873TIP3   OH239109   2.203   4.333  13.302  0.2104  0.6802  0.0184
 5873TIP3    H139110   2.284   4.337  13.250  0.5917  1.3774  0.6542
 5873TIP3    H239111   2.170   4.423  13.301 -0.2083  0.5301  0.3076
 5874TIP3   OH239112   5.116   1.997   0.013  0.2538 -0.3039  0.3626
 5874TIP3    H139113   5.202   2.039   0.004  0.6822 -0.5936  2.7400
 5874TIP3    H239114   5.123   1.944   0.092 -2.3209  0.1899  0.9891
 5875TIP3   OH239115   4.763   3.340  13.438 -0.3240 -0.0844 -0.3312
 5875TIP3    H139116   4.757   3.424  13.484 -0.2688 -0.6395  0.7137
 5875TIP3    H239117   4.739   3.360  13.348  1.0459  1.3144 -0.3997
 5876TIP3   OH239118   0.618   4.555  16.562  0.7590 -0.0825  0.1217
 5876TIP3    H139119   0.665   4.628  16.602 -0.7498  0.5383  0.7996
 5876TIP3    H239120   0.678   4.522  16.494  1.7543  1.2928  0.3066
 5877TIP3   OH239121   3.815   6.134   0.687  0.0466  0.0029  0.1261
 5877TIP3    H139122   3.847   6.044   0.687 -0.8024 -0.3096  0.9909
 5877TIP3    H239123   3.729   6.128   0.728 -0.3404  1.0967 -0.5064
 5878TIP3   OH239124   4.688   6.181  13.507 -0.1880 -0.3324 -0.0711
 5878TIP3    H139125   4.603   6.175  13.551 -0.3359 -0.9595 -0.4250
 5878TIP3    H239126   4.709   6.090  13.485  0.7181 -0.2107  0.2856
 5879TIP3   OH239127   6.580   3.353  16.575  0.5204 -0.4549 -0.0615
 5879TIP3    H139128   6.579   3.276  16.632  0.2454 -0.2123  0.2642
 5879TIP3    H239129   6.672   3.362  16.549  0.7124 -0.3523  0.6420
 5880TIP3   OH239130   2.084   4.876  11.428  0.4499 -0.4730  0.0310
 5880TIP3    H139131   2.001   4.869  11.381  0.5955  1.6591 -0.5593
 5880TIP3    H239132   2.060   4.874  11.521 -0.0814 -1.7198 -0.1258
 5881TIP3   OH239133   5.428   4.147  11.132  0.0233 -0.0230 -0.1440
 5881TIP3    H139134   5.385   4.233  11.142  0.2028 -0.1504  1.9812
 5881TIP3    H239135   5.508   4.166  11.083 -1.1081  0.6402 -1.7800
 5882TIP3   OH239136   5.674   3.821   6.459  0.0910 -0.3825 -0.9442
 5882TIP3    H139137   5.713   3.884   6.520 -1.5686 -0.0527 -0.1701
 5882TIP3    H239138   5.590   3.799   6.500 -0.0817 -1.8073 -2.0598
 5883TIP3   OH239139   6.063   0.166  15.242  0.2195 -0.0106  0.4455
 5883TIP3    H139140   6.096   0.129  15.160 -0.7970  1.7510 -0.7946
 5883TIP3    H239141   5.978   0.123  15.256 -0.0346  0.3727  0.0802
 5884TIP3   OH239142   0.029   2.406  10.463  0.7318 -0.4477  1.1122
 5884TIP3    H139143  -0.033   2.478  10.469  1.0597 -0.3196  3.3139
 5884TIP3    H239144  -0.025   2.329  10.446  0.3895  0.2905 -1.3454
 5885TIP3   OH239145   0.259   1.308  15.944  0.0908  0.0424  0.7546
 5885TIP3    H139146   0.315   1.319  16.021  0.0851 -0.7233  0.8770
 5885TIP3    H239147   0.304   1.241  15.892  0.3364  0.8941 -0.1396
 5886TIP3   OH239148   2.422   6.467  14.818 -0.3201 -0.1438 -0.6856
 5886TIP3    H139149   2.414   6.560  14.798 -0.6120 -0.0250 -0.0328
 5886TIP3    H239150   2.515   6.455  14.839 -0.8271  0.6390  2.2731
 5887TIP3   OH239151   0.630   3.580  12.787  0.1825  0.1510 -1.0289
 5887TIP3    H139152   0.631   3.516  12.859 -0.0668  0.1416 -1.0339
 5887TIP3    H239153   0.638   3.665  12.831 -3.1746  0.3826 -0.7312
 5888TIP3   OH239154   6.429   0.485   5.232 -0.2080  0.3072  0.1406
 5888TIP3    H139155   6.398   0.441   5.153  0.2111 -0.5203  0.4307
 5888TIP3    H239156   6.350   0.505   5.281 -0.3854 -0.4983  0.1980
 5889TIP3   OH239157   5.107   1.653  16.794 -0.4321 -0.0283  0.2012
 5889TIP3    H139158   5.119   1.623  16.884  2.1944  1.2905  0.3295
 5889TIP3    H239159   5.100   1.748  16.801  0.6985  0.1675 -1.0661
 5890TIP3   OH239160   4.959   5.435  13.338  0.3400 -0.0554 -0.4412
 5890TIP3    H139161   4.920   5.444  13.425  0.1975  3.3192 -0.7962
 5890TIP3    H239162   4.886   5.442  13.278  1.1188  3.9858 -1.0256
 5891TIP3   OH239163   4.192   3.209  15.223  0.6356 -0.2166  0.0768
 5891TIP3    H139164   4.164   3.261  15.148  0.0666 -0.8020 -0.1145
 5891TIP3    H239165   4.220   3.275  15.287 -0.5763  0.3702  0.0373
 5892TIP3   OH239166   0.857   5.631   4.513  0.3847 -0.0716  0.1504
 5892TIP3    H139167   0.857   5.709   4.457 -0.9938 -0.0496  0.1619
 5892TIP3    H239168   0.949   5.613   4.529  0.7268  1.3564 -0.1433
 5893TIP3   OH239169   3.367   0.604   2.185 -0.1370 -0.3333  0.1093
 5893TIP3    H139170   3.373   0.582   2.278 -2.0356 -2.2161 -0.1744
 5893TIP3    H239171   3.294   0.665   2.179  2.1538  2.5454  0.2513
 5894TIP3   OH239172   3.015   5.354   3.203 -0.4390  0.2638 -0.0603
 5894TIP3    H139173   2.976   5.289   3.261  0.0052  1.0151  1.1016
 5894TIP3    H239174   3.016   5.435   3.255  1.3400  0.5957 -0.5749
 5895TIP3   OH239175   3.527   4.300  10.656  0.2778  0.5444 -0.6659
 5895TIP3    H139176   3.498   4.248  10.731  0.8439  0.4785 -0.4829
 5895TIP3    H239177   3.513   4.244  10.580  0.7046  0.1882 -0.4901
 5896TIP3   OH239178   6.212   4.404  15.939  0.3184  0.0934  0.3184
 5896TIP3    H139179   6.298   4.444  15.928  0.2703  1.0966  3.0984
 5896TIP3    H239180   6.150   4.471  15.910  0.4555 -0.2679 -0.7913
 5897TIP3   OH239181   4.814   1.823   5.923  0.3765 -0.2056 -0.3795
 5897TIP3    H139182   4.890   1.818   5.980  0.5340 -1.6257 -0.6983
 5897TIP3    H239183   4.850   1.840   5.836  0.4392 -2.1566 -0.7530
 5898TIP3   OH239184   2.378   0.345   2.399 -0.1404  0.3342  0.2435
 5898TIP3    H139185   2.407   0.420   2.347  1.3657  0.7501  1.6277
 5898TIP3    H239186   2.337   0.384   2.476 -0.7261 -0.2838  0.2521
 5899TIP3   OH239187   0.534   3.253   4.258  0.3626 -0.0413 -0.3593
 5899TIP3    H139188   0.489   3.175   4.224  0.2393 -0.6089  1.0987
 5899TIP3    H239189   0.626   3.230   4.256  0.1976 -1.0524  2.0748
 5900TIP3   OH239190   5.151   4.125   2.280 -0.4048 -0.7393 -0.1697
 5900TIP3    H139191   5.112   4.149   2.196 -3.5245 -1.8360  0.8771
 5900TIP3    H239192   5.186   4.207   2.314 -3.0910  0.6515 -0.5838
 5901TIP3   OH239193   1.916   0.243  13.917  0.1577  0.0640 -0.6119
 5901TIP3    H139194   1.933   0.206  13.830 -1.1501 -0.1611 -0.7749
 5901TIP3    H239195   1.821   0.248  13.923  0.2332 -0.0353  0.8558
 5902TIP3   OH239196   0.068   0.889   4.671  0.0975  0.1924  0.7706
 5902TIP3    H139197   0.113   0.836   4.736 -0.8725 -1.2131  0.3071
 5902TIP3    H239198  -0.025   0.877   4.690 -0.2440 -1.1685 -1.5636
 5903TIP3   OH239199   6.024   3.612   1.352 -0.0772  0.0058  0.1644
 5903TIP3    H139200   5.957   3.658   1.403 -1.0381 -0.0381 -1.0365
 5903TIP3    H239201   5.979   3.534   1.318  0.9063 -0.6263  0.3053
 5904TIP3   OH239202   2.384   2.030   6.584 -0.0469  0.1748 -0.1248
 5904TIP3    H139203   2.441   1.964   6.623  0.6491  0.5082 -0.5743
 5904TIP3    H239204   2.296   2.003   6.609  0.1190 -1.7826 -1.5367
 5905TIP3   OH239205   2.198   0.667  13.418  0.4236  0.2428 -0.2835
 5905TIP3    H139206   2.205   0.675  13.323  2.8870  1.7092 -0.0250
 5905TIP3    H239207   2.126   0.726  13.441 -0.4887 -0.4682 -1.2690
 5906TIP3   OH239208   4.945   5.014  10.533 -0.1374 -0.7957  0.4754
 5906TIP3    H139209   4.927   4.920  10.539 -2.5451 -0.3431  0.7143
 5906TIP3    H239210   4.865   5.052  10.497  1.4514  0.9715 -1.2584
 5907TIP3   OH239211   1.118   1.202  13.342  0.1428  0.2284 -0.1857
 5907TIP3    H139212   1.191   1.224  13.283  0.2185 -0.7627 -0.4784
 5907TIP3    H239213   1.160   1.159  13.416 -0.1857 -0.7475 -0.5632
 5908TIP3   OH239214   5.082   0.028   5.927 -0.5066 -0.7705  0.0130
 5908TIP3    H139215   5.056   0.094   5.991 -0.6843 -0.9812  0.1620
 5908TIP3    H239216   5.047   0.059   5.844 -0.6919 -0.7340  0.1038
 5909TIP3   OH239217   5.764   6.062   3.836 -0.2792  0.2110 -0.3171
 5909TIP3    H139218   5.770   6.111   3.919  0.4632  0.8411 -0.7308
 5909TIP3    H239219   5.807   5.979   3.854  0.7019  0.7059 -0.3196
 5910TIP3   OH239220   0.373   3.341   5.664 -0.0745  0.4566 -0.0380
 5910TIP3    H139221   0.340   3.256   5.695  0.7532  0.7872  1.8422
 5910TIP3    H239222   0.299   3.401   5.675 -0.6251 -0.0043 -1.2630
 5911TIP3   OH239223   0.512   6.136   0.281 -0.5961  0.4029 -0.1618
 5911TIP3    H139224   0.455   6.179   0.217 -0.2638 -0.0857 -0.8055
 5911TIP3    H239225   0.600   6.160   0.254 -0.5504  3.4277  2.4850
 5912TIP3   OH239226   6.406   5.194   1.692  0.0416  0.0501  0.7050
 5912TIP3    H139227   6.484   5.206   1.746 -0.0004 -1.4908  1.1153
 5912TIP3    H239228   6.335   5.178   1.754 -0.1658 -0.8912  0.2406
 5913TIP3   OH239229   6.461   6.484  14.514  0.2868  0.3330  0.2743
 5913TIP3    H139230   6.491   6.527  14.434 -3.1824 -1.4045 -2.1460
 5913TIP3    H239231   6.373   6.520  14.529  0.2737 -0.5138  2.4144
 5914TIP3   OH239232   5.438   3.785  16.937  0.0988 -0.2758  0.3455
 5914TIP3    H139233   5.398   3.859  16.892 -0.7836 -1.3711 -0.6975
 5914TIP3    H239234   5.366   3.744  16.985  0.2776 -1.3614 -0.3138
 5915TIP3   OH239235   0.708   6.143  11.673 -0.4254  0.3144 -0.5216
 5915TIP3    H139236   0.723   6.053  11.703 -0.8585  0.3479 -0.2075
 5915TIP3    H239237   0.776   6.157  11.607  0.7045  0.3256  0.6182
 5916TIP3   OH239238   0.708   1.475   5.831 -0.1439  0.1153 -0.0990
 5916TIP3    H139239   0.755   1.448   5.910  0.0893 -0.8869 -0.5741
 5916TIP3    H239240   0.700   1.570   5.839  1.6017  0.2474  0.1813
 5917TIP3   OH239241   3.756   5.481  16.908  0.1280  0.5065  1.0238
 5917TIP3    H139242   3.828   5.507  16.965  1.1586  0.3696 -0.1905
 5917TIP3    H239243   3.765   5.386  16.901  0.1257  0.5435  0.4930
 5918TIP3   OH239244   3.324   2.473   3.958  0.0689 -0.0307 -0.0400
 5918TIP3    H139245   3.236   2.445   3.931  1.1061 -2.4329 -1.1109
 5918TIP3    H239246   3.315   2.491   4.051 -1.0517 -2.6293  0.4190
 5919TIP3   OH239247   1.638   4.729  16.297  0.2659 -0.0648  0.2540
 5919TIP3    H139248   1.560   4.676  16.316 -1.2349  2.1186  0.3203
 5919TIP3    H239249   1.641   4.734  16.201  0.0886  0.1846  0.2618
 5920TIP3   OH239250   0.164   3.315   6.201  0.0622 -0.2627 -0.1420
 5920TIP3    H139251   0.243   3.368   6.206  0.0244 -0.2637  0.6557
 5920TIP3    H239252   0.092   3.378   6.210  0.0053 -0.3809  0.2572
 5921TIP3   OH239253   4.086   1.697   4.329  0.1773  0.3163  0.0005
 5921TIP3    H139254   4.126   1.624   4.376 -0.5563  1.5128  2.5669
 5921TIP3    H239255   4.051   1.753   4.397  0.6520  3.0615 -1.9262
 5922TIP3   OH239256   1.405   2.150   5.240  0.0754 -0.0474 -0.1292
 5922TIP3    H139257   1.369   2.215   5.301  0.3741  0.1687 -0.1771
 5922TIP3    H239258   1.471   2.103   5.291  0.6817  0.4661 -0.4122
 5923TIP3   OH239259   6.818   5.322  14.723  0.0401 -0.0740  0.1631
 5923TIP3    H139260   6.837   5.400  14.671  2.0333 -0.9454 -0.4776
 5923TIP3    H239261   6.825   5.249  14.660 -1.0924 -0.8476  0.8997
 5924TIP3   OH239262   2.043   3.696  13.064  0.2458 -0.0315  0.1427
 5924TIP3    H139263   2.002   3.782  13.079  2.7980  1.4067 -0.8429
 5924TIP3    H239264   2.004   3.665  12.983 -0.2724  0.4691  0.1978
 5925TIP3   OH239265   1.229   2.525  16.862  0.2777 -0.7340  0.0499
 5925TIP3    H139266   1.161   2.458  16.856 -0.7064  0.2998 -0.3560
 5925TIP3    H239267   1.218   2.579  16.784  1.7028 -0.6792 -0.1348
 5926TIP3   OH239268   3.652   4.886   4.911  0.5488  0.1715  0.3828
 5926TIP3    H139269   3.659   4.794   4.884  0.9950  0.7570 -1.5561
 5926TIP3    H239270   3.576   4.888   4.968 -0.5545 -1.1013 -0.9972
 5927TIP3   OH239271   4.743   1.306   2.178  0.7084 -0.2014 -0.1515
 5927TIP3    H139272   4.743   1.226   2.230 -2.8224  0.5893  1.1923
 5927TIP3    H239273   4.767   1.375   2.240  0.8069  0.1986 -0.6269
 5928TIP3   OH239274   6.055   5.610  14.056  0.5132 -0.1976  0.3966
 5928TIP3    H139275   6.134   5.582  14.103  0.2016 -0.0697  0.9964
 5928TIP3    H239276   5.993   5.538  14.070  0.4635 -0.2209  0.0613
 5929TIP3   OH239277   5.928   2.886  16.848  0.0730  0.1075  0.3700
 5929TIP3    H139278   5.888   2.951  16.906 -0.0091 -0.4132  0.8940
 5929TIP3    H239279   5.922   2.803  16.896  1.7975  0.0238  0.4819
 5930TIP3   OH239280   0.143   5.919  13.748 -0.5946  0.3800 -0.0091
 5930TIP3    H139281   0.175   5.833  13.777  1.3290  0.0299 -2.9933
 5930TIP3    H239282   0.088   5.949  13.820  0.9249 -2.1239  2.2981
 5931TIP3   OH239283   3.187   3.342  12.244  0.5024  0.1371  0.5742
 5931TIP3    H139284   3.207   3.359  12.337  1.0838  0.9978  0.3017
 5931TIP3    H239285   3.231   3.259  12.225  4.0354  2.0157 -0.0278
 5932TIP3   OH239286   2.946   3.779  14.359  0.0987  0.1558 -0.0066
 5932TIP3    H139287   2.957   3.814  14.271 -0.7676 -0.7919 -0.5058
 5932TIP3    H239288   2.852   3.764  14.367 -0.1833  2.7125  2.0496
 5933TIP3   OH239289   0.630   0.568   2.327 -0.1333  0.5638 -0.1662
 5933TIP3    H139290   0.615   0.581   2.420  0.4638  2.3193 -0.2927
 5933TIP3    H239291   0.716   0.526   2.322  0.7688  2.3172  0.0222
 5934TIP3   OH239292   0.386   2.118   4.479 -0.1383  0.5095  0.0527
 5934TIP3    H139293   0.364   2.066   4.557 -0.4574 -0.2852 -0.5571
 5934TIP3    H239294   0.372   2.208   4.506  2.0127  0.4121  1.6476
 5935TIP3   OH239295   2.987   2.254  12.630  0.1210  0.2682 -0.5498
 5935TIP3    H139296   3.021   2.243  12.719 -0.0375 -0.3729 -0.5650
 5935TIP3    H239297   3.029   2.184  12.579 -0.8328 -0.2386 -0.6719
 5936TIP3   OH239298   0.828   3.284   1.993  0.0599 -0.7934  0.3480
 5936TIP3    H139299   0.814   3.243   2.078 -0.6876 -1.7827 -0.2520
 5936TIP3    H239300   0.746   3.272   1.946  0.7570 -1.0124 -0.8359
 5937TIP3   OH239301   4.790   5.870   3.162  0.2153 -0.2814  0.1722
 5937TIP3    H139302   4.829   5.924   3.231 -0.0452  0.2827 -0.1111
 5937TIP3    H239303   4.722   5.926   3.124  0.1638 -0.6909 -0.3497
 5938TIP3   OH239304   5.982   5.025  13.591 -0.8143 -0.2144 -0.1436
 5938TIP3    H139305   6.057   5.071  13.628 -0.3033 -1.2529  0.1542
 5938TIP3    H239306   5.982   5.050  13.499 -0.0715 -0.2187 -0.1514
 5939TIP3   OH239307   5.506   6.616   1.200  0.0791 -0.1573  0.7764
 5939TIP3    H139308   5.525   6.696   1.249  0.9825 -0.7084  1.3480
 5939TIP3    H239309   5.525   6.545   1.262  1.6892 -0.8797 -0.5095
 5940TIP3   OH239310   6.654   3.828  12.319  0.4171 -0.0489 -0.6182
 5940TIP3    H139311   6.637   3.752  12.374 -2.8119 -1.1934 -3.0391
 5940TIP3    H239312   6.640   3.903  12.376  0.0683 -1.2377  0.8845
 5941TIP3   OH239313   5.525   5.758   0.850 -0.1640  0.2566 -0.1500
 5941TIP3    H139314   5.497   5.696   0.782  0.4285 -1.1267  0.8490
 5941TIP3    H239315   5.616   5.776   0.829  0.4423 -1.2692  1.0603
 5942TIP3   OH239316   4.464   5.654   3.187  0.0172  0.1830  0.0160
 5942TIP3    H139317   4.432   5.707   3.114 -1.0885  0.5855  0.7834
 5942TIP3    H239318   4.518   5.714   3.238  2.6311 -0.6840 -1.6685
 5943TIP3   OH239319   3.368   6.220   1.841 -0.4758 -0.6447  0.0102
 5943TIP3    H139320   3.286   6.256   1.805 -1.1293 -2.2253 -0.1404
 5943TIP3    H239321   3.366   6.245   1.933  0.3626  1.9417 -0.6394
 5944TIP3   OH239322   5.776   4.112  16.067 -0.6370  0.5616  0.0063
 5944TIP3    H139323   5.727   4.103  16.148  0.8172  1.0775  0.9584
 5944TIP3    H239324   5.842   4.042  16.071  0.9170  2.0372  0.3514
 5945TIP3   OH239325   5.514   5.804   5.838  0.3066  0.3713 -1.0302
 5945TIP3    H139326   5.537   5.831   5.926 -0.2705  0.1537 -0.8113
 5945TIP3    H239327   5.489   5.885   5.793  0.0207  0.4005 -0.8176
 5946TIP3   OH239328   2.381   2.069   6.321  0.2746 -0.3254 -0.0459
 5946TIP3    H139329   2.373   2.072   6.416  0.6261  1.3595 -0.0597
 5946TIP3    H239330   2.370   1.976   6.299 -2.3311 -0.4081  1.4116
 5947TIP3   OH239331   3.341   1.066  15.315  0.2145 -0.0721 -0.2821
 5947TIP3    H139332   3.399   1.052  15.389 -0.0042 -1.8416 -0.4394
 5947TIP3    H239333   3.293   1.146  15.338  1.0103  0.0767  0.9177
 5948TIP3   OH239334   4.413   3.072  14.636  0.3256  0.1085  0.3817
 5948TIP3    H139335   4.461   3.038  14.560  0.3777  0.4942  0.2415
 5948TIP3    H239336   4.327   3.095  14.602 -1.0900 -3.5665  1.2660
 5949TIP3   OH239337   4.920   0.829   6.713 -0.1844 -0.3652  0.2595
 5949TIP3    H139338   4.857   0.894   6.745 -0.6025 -0.1478 -0.9665
 5949TIP3    H239339   4.875   0.745   6.724  0.4214 -0.4823  2.0027
 5950TIP3   OH239340   0.482   1.383  17.187 -0.3133  0.2635 -0.2225
 5950TIP3    H139341   0.544   1.420  17.123 -0.5861 -1.3588 -1.4756
 5950TIP3    H239342   0.448   1.304  17.144 -1.1915 -0.3687  1.5798
 5951TIP3   OH239343   1.560   3.665  11.755 -0.3418 -0.5363 -0.3225
 5951TIP3    H139344   1.604   3.598  11.808 -0.2315 -0.4699 -0.3323
 5951TIP3    H239345   1.629   3.705  11.703 -0.4252 -0.4884 -0.3973
 5952TIP3   OH239346   1.710   1.851   1.222 -0.2790  0.9576 -0.1698
 5952TIP3    H139347   1.672   1.934   1.249 -0.7323 -0.3710  3.4939
 5952TIP3    H239348   1.803   1.858   1.247 -0.5337  0.0259  1.1212
 5953TIP3   OH239349   6.700   2.865   2.615 -0.5262  0.1466  0.1488
 5953TIP3    H139350   6.639   2.863   2.542  0.9637  1.7180 -1.1744
 5953TIP3    H239351   6.672   2.938   2.669  1.2898  2.0948 -1.4813
 5954TIP3   OH239352   2.057   0.623   0.497 -0.1340  0.1187 -0.8082
 5954TIP3    H139353   2.024   0.665   0.576 -1.6294 -1.1017 -0.7658
 5954TIP3    H239354   2.116   0.554   0.530  1.3988  1.3849 -0.8483
 5955TIP3   OH239355   6.505   0.517  15.815 -0.1705  0.0614 -0.3220
 5955TIP3    H139356   6.539   0.566  15.890  0.5064 -1.9593  0.7403
 5955TIP3    H239357   6.415   0.496  15.840  0.5223 -1.9091  0.6335
 5956TIP3   OH239358   2.385   5.614   0.506 -0.1101  0.3307 -0.0392
 5956TIP3    H139359   2.424   5.549   0.565  0.7283  1.4849  0.7038
 5956TIP3    H239360   2.300   5.577   0.482  0.2668 -0.9344  0.5473
 5957TIP3   OH239361   0.342   6.068  17.190  0.1417  0.1534 -0.0665
 5957TIP3    H139362   0.267   6.009  17.202  2.8923 -3.9101 -1.7580
 5957TIP3    H239363   0.319   6.120  17.113 -1.1803 -0.6734 -0.2472
 5958TIP3   OH239364   5.639   3.813  12.692 -0.1874  0.4077 -1.1105
 5958TIP3    H139365   5.707   3.748  12.679 -0.8371 -0.0485 -2.2895
 5958TIP3    H239366   5.560   3.762  12.709 -0.1807  0.9345  0.5518
 5959TIP3   OH239367   4.925   3.040  16.282 -0.4762  0.0263  0.2930
 5959TIP3    H139368   4.890   2.987  16.354 -0.6961 -0.2197  0.0070
 5959TIP3    H239369   4.847   3.074  16.238 -0.3839 -1.1303 -0.8022
 5960TIP3   OH239370   2.407   6.465  12.721 -0.2152 -0.7023 -0.0121
 5960TIP3    H139371   2.320   6.429  12.705 -0.9985  0.4551  1.5039
 5960TIP3    H239372   2.393   6.559  12.731  1.0806 -0.5961  1.0230
 5961TIP3   OH239373   2.140   3.712  17.029 -0.0641  0.3038  0.2341
 5961TIP3    H139374   2.066   3.659  17.060 -0.3097 -0.2792 -1.2898
 5961TIP3    H239375   2.100   3.787  16.985  0.2718  0.9038  0.9449
 5962TIP3   OH239376   6.367   6.804  14.169 -0.0549  0.2408  0.2133
 5962TIP3    H139377   6.278   6.835  14.156  0.5930  2.6816  1.4019
 5962TIP3    H239378   6.420   6.855  14.107  0.4998 -1.4138 -0.7132
 5963TIP3   OH239379   5.972   2.217  13.573  0.1804 -0.4446  0.3920
 5963TIP3    H139380   6.044   2.158  13.550  0.7522 -0.2424  1.6545
 5963TIP3    H239381   5.946   2.190  13.661 -0.7185  0.0468  0.2806
 5964TIP3   OH239382   4.537   0.939   0.210  0.3696 -0.5248 -0.6141
 5964TIP3    H139383   4.594   0.862   0.205  0.1145 -0.8637  1.3117
 5964TIP3    H239384   4.466   0.921   0.150  0.2724 -1.8389 -0.1193
 5965TIP3   OH239385   5.850   3.116   2.537  0.4994 -0.6108  0.0239
 5965TIP3    H139386   5.861   3.210   2.524  0.7917 -0.6848 -0.2543
 5965TIP3    H239387   5.903   3.075   2.469  0.0835 -0.9774 -0.0859
 5966TIP3   OH239388   3.745   2.876   2.132 -0.3015 -0.2589  0.0327
 5966TIP3    H139389   3.728   2.930   2.209 -1.4275 -1.3710  0.6037
 5966TIP3    H239390   3.834   2.843   2.144 -0.4089 -0.2872  0.7839
 5967TIP3   OH239391   2.716   4.190  15.392 -0.9927 -0.1270  0.1316
 5967TIP3    H139392   2.800   4.186  15.346 -1.7385 -0.3766 -1.2424
 5967TIP3    H239393   2.700   4.100  15.421 -1.1029 -0.2097 -0.1864
 5968TIP3   OH239394   4.985   3.281   5.826  0.2035 -0.1463 -0.6155
 5968TIP3    H139395   4.966   3.321   5.741 -1.6275  1.1348  0.3475
 5968TIP3    H239396   5.070   3.317   5.852  0.6211 -0.3064 -1.7591
 5969TIP3   OH239397   3.850   3.710   0.960  0.2243  0.0602 -0.0724
 5969TIP3    H139398   3.905   3.750   0.893 -0.7825 -0.0087 -0.9533
 5969TIP3    H239399   3.890   3.625   0.976  1.4055  0.7255  0.5984
 5970TIP3   OH239400   4.564   1.751  14.950  0.1407  0.0986 -0.2001
 5970TIP3    H139401   4.582   1.658  14.962  0.9066  0.3494  0.6119
 5970TIP3    H239402   4.468   1.757  14.948  0.0632 -0.5048  1.3315
 5971TIP3   OH239403   2.974   5.808  13.523 -0.4672  0.4565  0.2686
 5971TIP3    H139404   2.967   5.825  13.617 -0.9290  2.5953 -0.1394
 5971TIP3    H239405   3.013   5.888  13.487 -0.1379 -0.4087 -1.3450
 5972TIP3   OH239406   6.693   2.670  11.575 -0.2403 -0.1018 -0.2905
 5972TIP3    H139407   6.711   2.763  11.589 -1.0710  0.2952 -1.7332
 5972TIP3    H239408   6.598   2.665  11.572 -0.2435 -1.2582  1.3601
 5973TIP3   OH239409   2.841   2.382  13.849 -0.0588 -0.4021 -0.2543
 5973TIP3    H139410   2.810   2.421  13.768  0.3855 -0.3140 -0.3851
 5973TIP3    H239411   2.770   2.397  13.912 -1.3773 -2.4684 -1.1868
 5974TIP3   OH239412   2.813   4.665   0.723 -0.6996  0.3634 -0.0868
 5974TIP3    H139413   2.808   4.654   0.628  0.2576  1.3354 -0.2640
 5974TIP3    H239414   2.883   4.606   0.750 -0.1711  0.9521 -0.1497
 5975TIP3   OH239415   1.636   1.497   4.765  0.3865  0.2060  0.2697
 5975TIP3    H139416   1.618   1.427   4.828 -0.0545 -0.3193 -0.4365
 5975TIP3    H239417   1.719   1.535   4.795 -0.1461  0.3953  1.5442
 5976TIP3   OH239418   0.870   0.657   3.254  0.0068 -0.1807 -0.0127
 5976TIP3    H139419   0.919   0.685   3.331 -2.4552 -0.6890  1.8165
 5976TIP3    H239420   0.890   0.563   3.246  1.4405  0.1830 -0.9367
 5977TIP3   OH239421   4.369   1.872   0.974 -0.3310  0.4363 -0.2260
 5977TIP3    H139422   4.349   1.874   1.067 -0.2777  0.1490 -0.2084
 5977TIP3    H239423   4.460   1.899   0.967  0.2108 -1.3231 -0.0407
 5978TIP3   OH239424   2.447   5.594   4.581  0.2720  0.0284  0.8657
 5978TIP3    H139425   2.394   5.581   4.660  1.3246  0.0171  1.5765
 5978TIP3    H239426   2.445   5.688   4.566 -0.0223  0.0184  0.8343
 5979TIP3   OH239427   2.084   4.122   2.598 -0.1693  0.2467 -0.3382
 5979TIP3    H139428   2.173   4.088   2.605 -0.5172 -0.3827  1.4627
 5979TIP3    H239429   2.046   4.075   2.524  0.5519 -0.5207 -0.2345
 5980TIP3   OH239430   3.502   4.547   4.480  0.1776 -0.0042  0.5629
 5980TIP3    H139431   3.563   4.620   4.471  0.6367 -0.1154  2.5678
 5980TIP3    H239432   3.539   4.478   4.426  1.1813  0.3476  0.7922
 5981TIP3   OH239433   1.772   6.463   2.985  0.3258  0.0012 -0.1218
 5981TIP3    H139434   1.762   6.558   2.977  1.5397 -0.0095 -1.8724
 5981TIP3    H239435   1.750   6.445   3.076 -0.2011  1.9218  0.1610
 5982TIP3   OH239436   0.885   4.556  11.685 -0.3072  0.5321 -0.1038
 5982TIP3    H139437   0.949   4.591  11.747  1.2654  1.1238 -2.0142
 5982TIP3    H239438   0.938   4.518  11.615 -2.0549  0.0066 -1.1628
 5983TIP3   OH239439   3.615   0.063  14.212 -0.1453  0.0353  0.0938
 5983TIP3    H139440   3.664   0.114  14.277  2.7814 -0.7284 -1.4366
 5983TIP3    H239441   3.631  -0.028  14.235 -1.8527 -0.2400  0.2668
 5984TIP3   OH239442   0.851   2.142  13.325 -0.2927  0.2242 -0.2108
 5984TIP3    H139443   0.878   2.230  13.353  0.7216  0.5492 -2.1318
 5984TIP3    H239444   0.907   2.083  13.375  1.3177  0.7866 -1.3252
 5985TIP3   OH239445   3.888   4.880   0.897  0.3595 -0.4020  0.0711
 5985TIP3    H139446   3.812   4.824   0.917 -1.1501  0.9155 -1.8657
 5985TIP3    H239447   3.856   4.969   0.911  0.6340  0.3267 -3.6278
 5986TIP3   OH239448   1.743   1.588  12.501  0.0234 -0.0723 -0.1811
 5986TIP3    H139449   1.759   1.585  12.407  2.0478 -0.0998  0.1289
 5986TIP3    H239450   1.830   1.579  12.540 -1.0771 -3.0777  1.7620
 5987TIP3   OH239451   1.292   1.119  16.587  0.0661  0.3827 -0.0042
 5987TIP3    H139452   1.207   1.161  16.593  0.8402  1.7028  2.2960
 5987TIP3    H239453   1.355   1.192  16.586  1.2308 -0.5994 -0.5443
 5988TIP3   OH239454   5.653   5.073   4.215 -0.3452 -0.0061  0.2612
 5988TIP3    H139455   5.574   5.119   4.244 -1.0121 -0.9466 -0.0294
 5988TIP3    H239456   5.623   4.985   4.195  0.6185 -0.1199 -0.7262
 5989TIP3   OH239457   1.058   4.249  13.216  0.1973  0.2442 -0.5333
 5989TIP3    H139458   1.060   4.290  13.130  0.6974 -1.2491 -1.2581
 5989TIP3    H239459   0.968   4.263  13.247 -0.7220 -1.2574 -2.3497
 5990TIP3   OH239460   4.027   3.715  15.374 -0.1326 -0.1425  0.0690
 5990TIP3    H139461   3.998   3.634  15.332 -1.5090 -1.0033  2.5376
 5990TIP3    H239462   3.957   3.778  15.355 -1.6791 -1.0521  2.5380
 5991TIP3   OH239463   1.986   4.587   0.544 -0.0922  0.4756 -0.9328
 5991TIP3    H139464   1.988   4.552   0.455  0.2005 -0.4440 -0.5690
 5991TIP3    H239465   2.033   4.523   0.597  1.4706  1.9847 -0.4478
 5992TIP3   OH239466   2.211   6.605  11.825  0.1899  0.4234  0.6536
 5992TIP3    H139467   2.189   6.513  11.840 -0.3434  0.5499  0.6565
 5992TIP3    H239468   2.132   6.642  11.785  0.8114  0.5935 -0.4545
 5993TIP3   OH239469   3.831   2.235  16.325 -0.7748  0.1493 -0.2324
 5993TIP3    H139470   3.905   2.294  16.309  0.4860 -1.5180 -0.6556
 5993TIP3    H239471   3.827   2.227  16.420  0.1112 -0.3727 -0.2289
 5994TIP3   OH239472   4.958   6.139  16.391  0.3923  0.2731  0.2803
 5994TIP3    H139473   4.959   6.108  16.481  1.7460 -0.8134 -0.0915
 5994TIP3    H239474   5.003   6.071  16.341 -2.7836 -0.5240 -1.6783
 5995TIP3   OH239475   3.026   2.125   4.987 -0.5700 -0.4994 -0.3714
 5995TIP3    H139476   3.074   2.050   5.022 -0.6050  0.5042  1.9033
 5995TIP3    H239477   3.075   2.150   4.908  0.2790 -1.9820 -0.3417
 5996TIP3   OH239478   1.090   6.166  16.463 -0.1087 -0.1192  0.9700
 5996TIP3    H139479   1.161   6.171  16.398 -0.1089  1.0198  1.0360
 5996TIP3    H239480   1.064   6.257  16.476 -1.5227 -0.5171  1.0184
 5997TIP3   OH239481   2.028   4.868  16.979  0.3644  0.2496  0.2565
 5997TIP3    H139482   2.017   4.956  16.942  1.4886  0.4645  0.4304
 5997TIP3    H239483   2.036   4.811  16.902 -2.0440  0.0576  0.1110
 5998TIP3   OH239484   5.658   5.581  12.768  0.0027  0.2224  0.3105
 5998TIP3    H139485   5.613   5.502  12.739 -0.4100  0.7501 -0.5115
 5998TIP3    H239486   5.613   5.606  12.849  0.3202 -0.5348  0.7325
 5999TIP3   OH239487   4.292   4.397   3.112 -0.0363  0.2715  0.2499
 5999TIP3    H139488   4.251   4.338   3.049 -0.3305 -0.4861  1.1348
 5999TIP3    H239489   4.219   4.444   3.152  0.2387  1.6871 -0.8763
 6000TIP3   OH239490   0.147   6.405   3.216  0.5907 -0.2659 -0.3710
 6000TIP3    H139491   0.230   6.421   3.262 -0.0045  0.6993  0.3990
 6000TIP3    H239492   0.151   6.313   3.191  0.7365 -0.9526  2.0317
 6001TIP3   OH239493   2.701   4.860   4.575 -0.1690 -0.5552  0.8557
 6001TIP3    H139494   2.745   4.790   4.624 -1.1603 -0.7238  1.5216
 6001TIP3    H239495   2.770   4.925   4.561  0.6394 -1.4288  0.6754
 6002TIP3   OH239496   5.041   5.869   5.030  0.2399 -0.0977 -0.0976
 6002TIP3    H139497   5.002   5.900   4.948  1.7329 -1.8978 -1.5353
 6002TIP3    H239498   5.130   5.844   5.006  0.7157 -0.6120  2.1098
 6003TIP3   OH239499   1.016   1.919  12.810  0.0893 -0.4125  0.3229
 6003TIP3    H139500   1.005   1.892  12.901  1.6486 -0.6048  0.4641
 6003TIP3    H239501   1.028   2.014  12.814 -0.6824 -0.3042  0.2312
 6004TIP3   OH239502   5.103   3.073  13.202 -0.2920  0.1014  0.1026
 6004TIP3    H139503   5.082   3.157  13.244 -2.7094 -1.0164  1.2191
 6004TIP3    H239504   5.193   3.055  13.229 -0.2322  1.6812  0.9993
 6005TIP3   OH239505   3.530   3.984   0.190 -0.2939 -0.5046  0.3550
 6005TIP3    H139506   3.573   4.069   0.199  2.4508 -2.0230  2.1003
 6005TIP3    H239507   3.470   3.980   0.264  0.3905 -0.5707  0.9024
 6006TIP3   OH239508   4.552   0.316  14.247 -0.5349  0.1896  0.1863
 6006TIP3    H139509   4.563   0.307  14.152  0.4399  0.8723  0.2287
 6006TIP3    H239510   4.590   0.236  14.283  0.7324  0.7473  0.0998
 6007TIP3   OH239511   6.288   4.823  13.505  0.4258 -0.3041  0.2111
 6007TIP3    H139512   6.323   4.745  13.462 -0.5866 -0.6161 -0.0659
 6007TIP3    H239513   6.260   4.792  13.591 -1.8668 -0.7414 -0.6281
 6008TIP3   OH239514   2.380   1.878  12.574  0.1104  0.3175  0.5299
 6008TIP3    H139515   2.391   1.801  12.518  1.1671 -0.1538  1.3604
 6008TIP3    H239516   2.330   1.939  12.520 -0.1543 -0.6801 -0.3941
 6009TIP3   OH239517   4.220   1.092  11.286 -0.2864 -0.2420  0.4533
 6009TIP3    H139518   4.288   1.145  11.329  0.6437 -0.6484 -0.4894
 6009TIP3    H239519   4.243   1.094  11.193 -1.2691 -0.8363  0.1886
 6010TIP3   OH239520   5.848   1.021   2.269  0.6734 -0.1919  0.2098
 6010TIP3    H139521   5.814   1.072   2.196 -0.0455  0.2532  0.8575
 6010TIP3    H239522   5.888   1.086   2.327  1.0236 -0.5196  0.3373
 6011TIP3   OH239523   2.172   3.308   0.881  0.0141  0.0170  0.4905
 6011TIP3    H139524   2.171   3.218   0.916  2.8245 -0.9754 -1.8395
 6011TIP3    H239525   2.264   3.332   0.879 -0.6941  2.9486  0.8970
 6012TIP3   OH239526   1.947   4.368   4.204 -0.7779  0.2033  0.6414
 6012TIP3    H139527   1.856   4.395   4.199 -0.3572  1.4692 -0.3841
 6012TIP3    H239528   1.996   4.441   4.166  0.8140  0.4298  3.0107
 6013TIP3   OH239529   6.099   2.279  11.729  0.4243  0.2118 -0.1277
 6013TIP3    H139530   6.017   2.244  11.762  0.3380  0.8651  0.3731
 6013TIP3    H239531   6.166   2.240  11.783  0.4512 -0.3784 -0.5854
 6014TIP3   OH239532   2.129   4.613   2.675 -0.1979  0.3195 -0.0996
 6014TIP3    H139533   2.092   4.642   2.591 -1.9620  0.1618  0.6279
 6014TIP3    H239534   2.095   4.525   2.688 -2.6933  1.5832  2.4140
 6015TIP3   OH239535   6.754   1.381   5.112  0.7547  0.5418 -0.0616
 6015TIP3    H139536   6.765   1.315   5.044  0.3142  2.2444 -1.7985
 6015TIP3    H239537   6.802   1.345   5.187  1.1606 -1.3973 -1.1945
 6016TIP3   OH239538   5.864   6.618   4.340 -0.2644 -0.3795 -1.4567
 6016TIP3    H139539   5.909   6.654   4.264  0.9181  1.3237  0.0267
 6016TIP3    H239540   5.934   6.585   4.397 -1.0170 -0.1384 -0.3632
 6017TIP3   OH239541   3.523   4.842   3.158  1.1256  0.3354  0.3572
 6017TIP3    H139542   3.540   4.862   3.250 -1.8061  1.3531  0.7219
 6017TIP3    H239543   3.557   4.753   3.146 -0.3567 -0.6513  3.0130
 6018TIP3   OH239544   4.579   5.062  14.598 -0.0374 -0.1863 -0.0749
 6018TIP3    H139545   4.667   5.034  14.573  0.4345  0.1157  1.2369
 6018TIP3    H239546   4.566   5.144  14.550  1.5403  1.3044  1.9217
 6019TIP3   OH239547   5.510   0.806   0.602  0.2822 -0.0622 -0.7128
 6019TIP3    H139548   5.548   0.834   0.518 -0.0233 -0.7121 -1.0631
 6019TIP3    H239549   5.519   0.711   0.602 -2.8807 -0.3991 -1.5299
 6020TIP3   OH239550   6.318   4.965  16.817 -0.9623  0.6258 -0.2999
 6020TIP3    H139551   6.374   4.941  16.743 -1.4686 -0.0701 -0.4531
 6020TIP3    H239552   6.232   4.932  16.794 -0.9983 -0.1381  0.8747
 6021TIP3   OH239553   1.411   0.188  13.013  0.0461 -0.2074 -0.1786
 6021TIP3    H139554   1.451   0.102  13.022  0.1564 -0.0935  0.5064
 6021TIP3    H239555   1.363   0.185  12.930 -2.8953 -2.1465  1.5044
 6022TIP3   OH239556   5.883   5.771  11.171  0.0065  0.3783 -0.3347
 6022TIP3    H139557   5.815   5.835  11.150 -0.6815 -0.4014 -0.5339
 6022TIP3    H239558   5.950   5.785  11.104  0.0058  1.0997 -0.1892
 6023TIP3   OH239559   5.769   4.081   2.155  0.0800 -0.0153 -0.2058
 6023TIP3    H139560   5.858   4.109   2.137 -0.4221  0.0920 -2.6141
 6023TIP3    H239561   5.772   3.986   2.151 -0.2812  0.0391 -2.2224
 6024TIP3   OH239562   4.623   6.774  11.994 -0.3893  0.4553 -0.4982
 6024TIP3    H139563   4.552   6.837  12.011 -0.3748 -0.2164  2.2045
 6024TIP3    H239564   4.652   6.746  12.081  1.8408 -0.8200 -1.6121
 6025TIP3   OH239565   2.216   6.695  13.250  0.6229 -0.5098 -0.1406
 6025TIP3    H139566   2.138   6.750  13.241 -1.0150 -2.7290 -0.0737
 6025TIP3    H239567   2.231   6.689  13.344  1.0206  0.0888 -0.1618
 6026TIP3   OH239568   5.274   4.662  13.250 -0.0965 -0.3123 -0.0213
 6026TIP3    H139569   5.328   4.726  13.296  0.8675 -0.9529 -0.2638
 6026TIP3    H239570   5.191   4.708  13.234  0.2832  0.5844  0.5575
 6027TIP3   OH239571   6.157   3.851  16.983 -0.4324 -0.2220 -0.3831
 6027TIP3    H139572   6.206   3.769  16.978 -0.1155 -0.1031  0.5960
 6027TIP3    H239573   6.179   3.887  17.069 -1.9288  0.0280 -0.0833
 6028TIP3   OH239574   1.514   1.125   1.460 -0.4539 -0.8036 -0.6105
 6028TIP3    H139575   1.517   1.219   1.478 -1.3276 -0.6755 -1.0918
 6028TIP3    H239576   1.425   1.099   1.484  0.4503 -1.9571  1.6555
 6029TIP3   OH239577   4.941   3.451  14.778 -0.6362 -0.3287  0.1876
 6029TIP3    H139578   5.031   3.465  14.808 -0.8970  1.1785  0.3257
 6029TIP3    H239579   4.949   3.437  14.684 -0.3422  0.8394  0.0313
 6030TIP3   OH239580   3.277   4.917   0.106  0.0394 -0.7335  0.9269
 6030TIP3    H139581   3.296   4.823   0.115 -0.0173 -0.6921  1.5108
 6030TIP3    H239582   3.326   4.958   0.178  0.9291 -0.1929  0.0247
 6031TIP3   OH239583   6.466   2.630  15.395 -0.1253 -0.0643  0.6148
 6031TIP3    H139584   6.375   2.598  15.392  0.6031 -2.5825  2.8875
 6031TIP3    H239585   6.464   2.703  15.457 -0.7019  0.2644  0.2101
 6032TIP3   OH239586   1.491   4.685   2.753  0.0141  0.3713  0.3540
 6032TIP3    H139587   1.440   4.762   2.729  1.9569  1.7903  0.5702
 6032TIP3    H239588   1.483   4.626   2.678 -4.4767 -0.8742  1.6629
 6033TIP3   OH239589   4.546   4.228  14.245 -0.1045  0.8526  0.2600
 6033TIP3    H139590   4.611   4.278  14.294  0.3503  0.2295  0.3049
 6033TIP3    H239591   4.590   4.145  14.225 -1.6805 -0.5592  2.3875
 6034TIP3   OH239592   5.139   0.895  12.634  0.1292 -0.6266 -0.0201
 6034TIP3    H139593   5.053   0.936  12.619 -0.6485 -2.3023 -0.2911
 6034TIP3    H239594   5.186   0.958  12.688 -1.2295  0.3863  0.0330
 6035TIP3   OH239595   0.711   4.630  15.258 -0.0253  0.6108 -0.0892
 6035TIP3    H139596   0.657   4.647  15.182  0.7870 -0.7688 -0.9995
 6035TIP3    H239597   0.650   4.599  15.325 -0.4402 -0.3903 -0.9221
 6036TIP3   OH239598   1.692   3.460   3.327 -0.2855  0.4372 -0.1032
 6036TIP3    H139599   1.771   3.458   3.274  0.7559 -0.2836  1.4397
 6036TIP3    H239600   1.628   3.506   3.273  0.8083 -0.0707 -1.8784
 6037TIP3   OH239601   3.244   4.932   6.472 -0.3645  0.2715  0.3348
 6037TIP3    H139602   3.176   4.990   6.507 -1.1422 -0.8314  0.6805
 6037TIP3    H239603   3.314   4.935   6.537 -0.4131  0.8067  0.3624
 6038TIP3   OH239604   4.803   2.173   4.181 -0.1505  0.1790 -0.0491
 6038TIP3    H139605   4.755   2.107   4.131  0.7839 -3.4306  3.5415
 6038TIP3    H239606   4.895   2.149   4.173  0.0308 -0.5448  3.2769
 6039TIP3   OH239607   6.380   6.548  14.006 -0.1204  0.2617  0.0698
 6039TIP3    H139608   6.425   6.616  14.057  0.1311 -0.5822  0.9795
 6039TIP3    H239609   6.449   6.486  13.982 -0.6099 -0.4800  0.5645
 6040TIP3   OH239610   2.616   2.515  13.367 -0.1955  0.0803 -0.4314
 6040TIP3    H139611   2.618   2.478  13.279  1.0102  0.9621 -0.7881
 6040TIP3    H239612   2.542   2.472  13.409  0.9977 -2.5090 -0.9077
 6041TIP3   OH239613   2.955   2.106  11.469  0.4203 -0.3447  0.2941
 6041TIP3    H139614   2.884   2.155  11.427  0.6977  1.0629  1.4241
 6041TIP3    H239615   3.025   2.107  11.405  0.2868  0.4291  0.1472
 6042TIP3   OH239616   4.511   6.261   3.386  0.0859 -0.1133  0.9130
 6042TIP3    H139617   4.476   6.309   3.311  1.5222  1.5786  1.2923
 6042TIP3    H239618   4.466   6.176   3.384 -0.8496  0.4127 -1.0795
 6043TIP3   OH239619   5.610   1.267   4.516 -0.4227 -0.3272 -0.4587
 6043TIP3    H139620   5.669   1.246   4.443  0.9493 -1.6161  0.9980
 6043TIP3    H239621   5.619   1.362   4.528  0.9660 -0.4457 -0.5701
 6044TIP3   OH239622   2.857   2.236   4.729 -0.0951  0.0132 -0.2524
 6044TIP3    H139623   2.781   2.209   4.780  0.4877  0.6846  0.9815
 6044TIP3    H239624   2.819   2.284   4.655 -0.8598  1.0717  0.8000
 6045TIP3   OH239625   5.657   6.406   2.722  0.0639  0.0073  0.2667
 6045TIP3    H139626   5.661   6.502   2.730  1.8090 -0.0145 -0.3213
 6045TIP3    H239627   5.747   6.379   2.704 -0.0733 -1.9207  2.2375
 6046TIP3   OH239628   5.049   2.359  14.209  0.2403 -0.0570 -0.0450
 6046TIP3    H139629   5.135   2.375  14.249 -0.5120  0.7798  1.2908
 6046TIP3    H239630   5.054   2.270  14.176  1.5741 -0.0759  0.1612
 6047TIP3   OH239631   0.047   2.161  14.381  0.0960  0.2684  0.2771
 6047TIP3    H139632   0.136   2.154  14.416  0.0943 -0.5296  0.1277
 6047TIP3    H239633   0.019   2.250  14.405  1.3878  0.9888 -0.7711
 6048TIP3   OH239634   3.564   1.402  17.258  0.5108  0.0468 -0.6423
 6048TIP3    H139635   3.634   1.460  17.288 -0.1051 -0.3951  1.7969
 6048TIP3    H239636   3.501   1.460  17.216  0.9018  0.8721 -0.1127
 6049TIP3   OH239637   2.376   4.977   3.215  0.2447 -0.2024 -0.4807
 6049TIP3    H139638   2.359   4.885   3.235 -1.7857  0.4758  1.1261
 6049TIP3    H239639   2.310   4.999   3.149  0.3855  0.2123 -0.4817
 6050TIP3   OH239640   1.421   6.781  15.868  0.2652  0.8288 -0.5953
 6050TIP3    H139641   1.429   6.688  15.889 -0.1717  0.7880 -0.6124
 6050TIP3    H239642   1.506   6.804  15.829  0.2848  0.3829 -0.8147
 6051TIP3   OH239643   2.455   0.611  15.062  0.5291  0.1088 -0.1783
 6051TIP3    H139644   2.543   0.629  15.027  1.2771 -1.4607  0.8306
 6051TIP3    H239645   2.413   0.559  14.993  0.7293  0.0741 -0.2776
 6052TIP3   OH239646   2.739   4.973   4.230  0.3259 -0.2995  0.1105
 6052TIP3    H139647   2.719   5.016   4.147  2.2231 -0.7412 -0.5941
 6052TIP3    H239648   2.778   5.042   4.284  1.0074 -0.5292 -0.0971
 6053TIP3   OH239649   1.268   2.619  11.842  0.0568 -0.4630 -0.4728
 6053TIP3    H139650   1.350   2.581  11.812 -0.3738 -0.3414 -1.8439
 6053TIP3    H239651   1.202   2.584  11.783 -1.1026 -1.6673  1.4950
 6054TIP3   OH239652   0.151   3.018  15.990  0.0828 -0.3045  0.4249
 6054TIP3    H139653   0.184   3.108  15.990 -2.2062  0.6328  3.6241
 6054TIP3    H239654   0.184   2.980  16.072 -0.6589 -1.7387  0.0762
 6055TIP3   OH239655   6.219   0.721   5.685 -0.6850 -0.0197  0.5959
 6055TIP3    H139656   6.238   0.742   5.777  0.9850  0.2061  0.2233
 6055TIP3    H239657   6.176   0.636   5.688  1.4120 -1.0887  1.4623
 6056TIP3   OH239658   4.919   0.148   1.907  0.0910  0.6553  0.4787
 6056TIP3    H139659   4.842   0.092   1.906 -0.6804  1.7343 -0.6199
 6056TIP3    H239660   4.987   0.094   1.949 -0.0479 -1.8672 -2.3849
 6057TIP3   OH239661   5.234   5.116  11.417  0.0305 -0.4656 -0.4807
 6057TIP3    H139662   5.293   5.052  11.456 -0.3174 -1.5998 -1.7630
 6057TIP3    H239663   5.150   5.101  11.461 -0.2358 -1.4015 -1.2871
 6058TIP3   OH239664   2.358   4.931  11.311 -0.6454  0.1855  0.1218
 6058TIP3    H139665   2.287   4.940  11.374 -0.1796  1.0148  0.5438
 6058TIP3    H239666   2.335   4.853  11.259 -0.4572 -1.1856  2.0480
 6059TIP3   OH239667   3.835   6.390  12.221 -0.0769 -0.7290  0.3822
 6059TIP3    H139668   3.746   6.399  12.188 -0.2120 -1.1916  0.6223
 6059TIP3    H239669   3.831   6.316  12.281  0.1682  0.1166  1.4435
 6060TIP3   OH239670   1.263   4.794   5.073 -0.2019 -0.2356  0.5929
 6060TIP3    H139671   1.220   4.854   5.134 -0.9052  0.6588 -0.7538
 6060TIP3    H239672   1.190   4.748   5.030  0.1858  0.7733 -1.1931
 6061TIP3   OH239673   4.000   4.264   3.506 -0.5283  0.3425 -0.0155
 6061TIP3    H139674   3.984   4.358   3.516  0.5448  0.6507 -1.0436
 6061TIP3    H239675   3.913   4.226   3.492 -0.9064  1.2735 -0.2317
 6062TIP3   OH239676   0.383   5.780  16.890  0.0596 -0.6231 -0.2433
 6062TIP3    H139677   0.297   5.820  16.890 -0.8596 -2.5424  0.0987
 6062TIP3    H239678   0.443   5.852  16.908 -1.6697  0.3184  2.0090
 6063TIP3   OH239679   1.995   2.248  15.983  0.1142  0.3570 -0.2788
 6063TIP3    H139680   1.968   2.266  15.893  0.8254  0.3645 -0.4930
 6063TIP3    H239681   1.928   2.188  16.017 -1.2827  1.9905 -0.1318
 6064TIP3   OH239682   5.946   6.575   4.882  0.2352 -0.4123 -0.2017
 6064TIP3    H139683   5.940   6.567   4.978  1.8364 -2.2777 -0.2258
 6064TIP3    H239684   5.968   6.487   4.852 -1.6593 -0.1601 -2.4407
 6065TIP3   OH239685   0.692   5.545  15.486  0.4386 -0.3868  0.4940
 6065TIP3    H139686   0.765   5.487  15.506 -0.0930 -1.6006 -0.9688
 6065TIP3    H239687   0.614   5.491  15.501 -0.0662 -0.0319 -0.7656
 6066TIP3   OH239688   3.763   0.001   0.193  0.6150  0.2916  0.4431
 6066TIP3    H139689   3.835   0.052   0.154 -0.6249 -0.1681 -2.5896
 6066TIP3    H239690   3.684   0.049   0.169 -0.3143 -0.9932  0.8748
 6067TIP3   OH239691   0.601   5.406   2.481  0.3638  0.7065  0.3817
 6067TIP3    H139692   0.628   5.325   2.522  3.4349  1.8217  0.6676
 6067TIP3    H239693   0.552   5.453   2.549  0.0843 -0.1347  0.7623
 6068TIP3   OH239694   1.609   5.044   1.390  0.0928  0.1272 -0.4013
 6068TIP3    H139695   1.672   4.975   1.370 -0.9278 -1.2210  0.9215
 6068TIP3    H239696   1.661   5.115   1.427  0.8626 -0.9014  0.5021
 6069TIP3   OH239697   5.487   5.703  16.383  0.3631 -0.2275  0.3565
 6069TIP3    H139698   5.469   5.653  16.463  1.2198 -1.0212  0.0582
 6069TIP3    H239699   5.558   5.655  16.340 -0.4878 -0.1308 -1.1839
 6070TIP3   OH239700   3.475   6.328  12.611  1.0765 -0.8490  0.2758
 6070TIP3    H139701   3.527   6.248  12.613  0.1230 -1.6085 -2.5504
 6070TIP3    H239702   3.507   6.376  12.534 -0.4808 -0.0344  0.1068
 6071TIP3   OH239703   6.344   0.274   5.518  0.6652  0.3724  0.0308
 6071TIP3    H139704   6.357   0.179   5.523  0.5875  0.4536  2.0413
 6071TIP3    H239705   6.372   0.297   5.429 -0.1425 -1.6463 -0.7788
 6072TIP3   OH239706   2.727   5.519   2.316 -0.7933  0.0310  0.1501
 6072TIP3    H139707   2.755   5.577   2.244 -1.0589 -1.3740 -1.1197
 6072TIP3    H239708   2.784   5.442   2.308  0.8328  0.8834  2.9912
 6073TIP3   OH239709   5.883   0.117  11.159 -0.4362  0.1334  0.2198
 6073TIP3    H139710   5.844   0.157  11.082  0.1730  2.4606  1.0923
 6073TIP3    H239711   5.962   0.073  11.127 -0.8669  0.0049 -0.6615
 6074TIP3   OH239712   3.600   1.910  11.736 -0.5114 -0.3484  0.1471
 6074TIP3    H139713   3.554   1.842  11.786 -0.3623 -0.7987 -0.3287
 6074TIP3    H239714   3.530   1.969  11.706 -0.4469  0.9981  2.4686
 6075TIP3   OH239715   3.452   4.225  17.248  0.1394 -0.6578 -0.5951
 6075TIP3    H139716   3.515   4.275  17.196  1.6712  0.6480  2.4390
 6075TIP3    H239717   3.498   4.204  17.329 -2.3587 -2.2425  0.4752
 6076TIP3   OH239718   5.460   1.548   6.326  0.1652 -0.0181  0.2350
 6076TIP3    H139719   5.444   1.475   6.386 -0.8815 -0.5028 -0.6176
 6076TIP3    H239720   5.400   1.533   6.253  2.2237 -0.0880 -1.5025
 6077TIP3   OH239721   0.085   3.993   6.226  0.1688 -0.2240  0.3631
 6077TIP3    H139722   0.110   3.913   6.271  1.3717 -0.2859 -0.3932
 6077TIP3    H239723   0.168   4.033   6.199 -0.4865  0.1396 -1.2086
 6078TIP3   OH239724   5.967   3.040  15.468 -0.0248  0.4407  0.4619
 6078TIP3    H139725   5.993   2.952  15.496  0.0386  0.7599  1.4087
 6078TIP3    H239726   5.875   3.047  15.495  0.0972  0.8283  0.7769
 6079TIP3   OH239727   4.633   1.417   5.130 -0.2634  0.1048 -0.1164
 6079TIP3    H139728   4.568   1.401   5.198 -1.0260 -1.2540 -1.1420
 6079TIP3    H239729   4.612   1.505   5.098 -0.4691  0.3898  0.7747
 6080TIP3   OH239730   5.604   3.874  11.939  0.7927 -0.3302 -0.2814
 6080TIP3    H139731   5.658   3.863  11.861  0.8936 -0.9897 -0.1182
 6080TIP3    H239732   5.566   3.788  11.955  2.3037 -0.6987  1.5005
 6081TIP3   OH239733   4.725   2.833  10.858  0.1292  0.0677 -0.0559
 6081TIP3    H139734   4.764   2.921  10.849 -2.1898  1.2857  1.2987
 6081TIP3    H239735   4.705   2.806  10.769  1.0307  0.8385 -0.5038
 6082TIP3   OH239736   1.504   2.772  12.262  0.3679 -0.1550 -0.2249
 6082TIP3    H139737   1.541   2.837  12.322  1.0344 -0.1411 -0.6453
 6082TIP3    H239738   1.457   2.711  12.318  1.6612 -0.5971  0.3995
 6083TIP3   OH239739   3.788   1.074   2.032 -0.4599 -0.0451 -0.0584
 6083TIP3    H139740   3.863   1.021   2.004  0.8138  1.2743  0.7901
 6083TIP3    H239741   3.793   1.153   1.978 -2.2843 -0.7158 -1.2385
 6084TIP3   OH239742   2.806   5.042   3.087  0.2936  0.0508  0.2159
 6084TIP3    H139743   2.807   5.108   3.157 -0.2480  1.6695 -1.2723
 6084TIP3    H239744   2.899   5.030   3.066  0.4613 -0.4341  1.1903
 6085TIP3   OH239745   3.814   5.815  10.604 -0.2695  0.0092  0.1807
 6085TIP3    H139746   3.787   5.851  10.519  2.3829  0.3333 -0.5698
 6085TIP3    H239747   3.805   5.721  10.594 -0.0403  0.0492 -0.4677
 6086TIP3   OH239748   5.415   3.457   4.830 -0.0275 -0.3765  0.6973
 6086TIP3    H139749   5.367   3.389   4.878 -0.6065 -0.2934  0.2454
 6086TIP3    H239750   5.442   3.519   4.897  1.5808 -1.6690  1.2937
 6087TIP3   OH239751   5.010   0.196   4.279 -0.2588 -0.2361  0.1674
 6087TIP3    H139752   5.096   0.203   4.320 -0.8478  1.9915  1.1172
 6087TIP3    H239753   4.957   0.149   4.344 -0.1241 -0.3448  0.1994
 6088TIP3   OH239754   1.758   2.594   3.628  0.3846  0.4398  0.6484
 6088TIP3    H139755   1.781   2.643   3.707 -0.2262  0.4425  0.8290
 6088TIP3    H239756   1.736   2.506   3.659 -0.7405  0.6919  0.5959
 6089TIP3   OH239757   2.090   5.341  15.735  0.0811 -0.1538 -0.2794
 6089TIP3    H139758   2.100   5.310  15.645 -0.1790  2.7249 -1.3399
 6089TIP3    H239759   2.144   5.420  15.739 -0.4594  0.1226  1.9130
 6090TIP3   OH239760   2.143   5.559  14.558  0.5673  0.6086  0.4062
 6090TIP3    H139761   2.161   5.620  14.486 -0.2373 -0.2877 -0.5667
 6090TIP3    H239762   2.081   5.496  14.522  0.3664 -0.0264  1.8072
 6091TIP3   OH239763   5.037   3.774   4.241 -0.3799 -0.7662 -0.1044
 6091TIP3    H139764   5.058   3.801   4.330 -0.7387  0.9893 -0.5259
 6091TIP3    H239765   5.071   3.685   4.234  2.2524  0.1200  0.8629
 6092TIP3   OH239766   3.862   5.136  12.674 -0.4312 -0.1977 -0.8187
 6092TIP3    H139767   3.795   5.103  12.615  2.3895 -2.0495 -3.1565
 6092TIP3    H239768   3.891   5.058  12.722  1.0882  0.2684 -0.9576
 6093TIP3   OH239769   3.631   2.862   4.917 -0.5155  0.0322  0.0964
 6093TIP3    H139770   3.686   2.839   4.992 -0.4669 -0.0991  0.0216
 6093TIP3    H239771   3.586   2.780   4.895  0.9544 -0.4355 -1.2571
 6094TIP3   OH239772   3.574   2.351  11.463 -0.6971  0.0628 -0.3849
 6094TIP3    H139773   3.529   2.412  11.405  0.1940  0.9728 -0.1304
 6094TIP3    H239774   3.643   2.313  11.410  0.0742  0.8447  0.0497
 6095TIP3   OH239775   4.275   6.807   2.985 -0.1907  0.1045  0.1149
 6095TIP3    H139776   4.331   6.869   2.938  0.4548  1.1770  2.2030
 6095TIP3    H239777   4.321   6.792   3.068 -0.8939 -2.3266  0.1108
 6096TIP3   OH239778   2.454   4.519  13.866 -0.4609  0.0213  0.3683
 6096TIP3    H139779   2.413   4.591  13.913  0.7126  1.3079 -0.5569
 6096TIP3    H239780   2.481   4.556  13.782 -0.7483 -1.7496 -0.5427
 6097TIP3   OH239781   0.949   0.159   2.217  0.6163 -0.1509  0.5764
 6097TIP3    H139782   1.003   0.193   2.146  1.4496 -0.0322  1.2475
 6097TIP3    H239783   0.958   0.064   2.210  0.8073 -0.1356  0.5964
 6098TIP3   OH239784   1.847   3.617   2.922  0.3531 -0.0464 -0.1520
 6098TIP3    H139785   1.865   3.675   2.847  0.2186 -1.2030 -1.0850
 6098TIP3    H239786   1.754   3.598   2.916  0.1080  0.7598  0.9740
 6099TIP3   OH239787   2.775   1.837  12.886 -0.6890  0.3025 -0.9188
 6099TIP3    H139788   2.682   1.859  12.893 -0.5513  1.1071 -1.5620
 6099TIP3    H239789   2.782   1.789  12.803 -0.4956  0.4706 -1.0006
 6100TIP3   OH239790   0.202   4.723  16.037  0.0983 -0.8955 -0.1682
 6100TIP3    H139791   0.209   4.815  16.013  0.0626 -0.5980  0.9169
 6100TIP3    H239792   0.184   4.724  16.131 -0.0797 -2.0072 -0.1821
 6101TIP3   OH239793   5.574   1.913   3.168  0.0143 -0.1449 -0.1450
 6101TIP3    H139794   5.661   1.899   3.131 -0.0007 -0.7499  0.0516
 6101TIP3    H239795   5.580   1.884   3.259  0.1377  1.6500  0.4425
 6102TIP3   OH239796   5.903   3.258   2.902  0.9489 -0.3486 -0.1827
 6102TIP3    H139797   5.929   3.303   2.982  1.2303 -0.1172 -0.4004
 6102TIP3    H239798   5.860   3.326   2.850 -0.0775 -0.7240  0.1681
 6103TIP3   OH239799   4.695   4.251   6.312 -0.2674 -0.5128 -0.3158
 6103TIP3    H139800   4.601   4.271   6.316 -0.4569 -1.4613  0.0108
 6103TIP3    H239801   4.718   4.261   6.220 -0.3552  1.1881 -0.1818
 6104TIP3   OH239802   5.786   4.040  11.197  0.6594 -0.4716 -0.4793
 6104TIP3    H139803   5.807   4.133  11.200 -1.3203  0.0023  0.0703
 6104TIP3    H239804   5.819   4.010  11.112  2.2569  0.4747 -0.2106
 6105TIP3   OH239805   0.105   3.981  12.294  0.5341 -0.3581  0.5678
 6105TIP3    H139806   0.071   4.019  12.213  1.3792  0.9609  0.8091
 6105TIP3    H239807   0.190   3.944  12.270 -0.2428 -2.0439  0.3554
 6106TIP3   OH239808   2.870   2.126   5.844 -0.3808 -0.2063 -0.1215
 6106TIP3    H139809   2.885   2.220   5.857 -1.4507 -0.0583  0.0261
 6106TIP3    H239810   2.958   2.089   5.839  0.0506  0.6893  0.6561
 6107TIP3   OH239811   0.690   4.260   2.333 -0.5112  0.3520 -0.3928
 6107TIP3    H139812   0.754   4.330   2.344  0.6235 -0.4882 -1.5896
 6107TIP3    H239813   0.607   4.298   2.365 -0.0069  2.3565 -1.4143
 6108TIP3   OH239814   3.964   5.616   4.617 -0.2590  0.2465  0.4580
 6108TIP3    H139815   4.056   5.640   4.608 -0.4942 -0.0370 -3.2938
 6108TIP3    H239816   3.916   5.697   4.598 -0.8232  0.0895  1.1849
 6109TIP3   OH239817   1.458   2.789   5.532 -0.4569 -0.5226  0.9140
 6109TIP3    H139818   1.477   2.834   5.615 -1.5521  0.4912  0.6283
 6109TIP3    H239819   1.544   2.767   5.496  0.0321 -0.7654  2.2093
 6110TIP3   OH239820   6.073   2.921  12.963  0.3917 -0.4663  0.5057
 6110TIP3    H139821   5.985   2.949  12.990  0.5210 -0.3039  0.7605
 6110TIP3    H239822   6.124   3.003  12.959  0.8477 -0.6989  1.5219
 6111TIP3   OH239823   0.536   4.163  15.098  0.4068 -0.6472 -0.1642
 6111TIP3    H139824   0.531   4.082  15.047  0.8547 -0.4526 -0.5266
 6111TIP3    H239825   0.447   4.199  15.094  0.4559 -0.5860 -0.9004
 6112TIP3   OH239826   1.283   1.742  11.494  0.4446 -0.4338  0.2909
 6112TIP3    H139827   1.279   1.699  11.409 -1.0622 -1.0831  0.6798
 6112TIP3    H239828   1.233   1.685  11.552  1.7895 -0.2085  1.7105
 6113TIP3   OH239829   3.178   2.774   6.339 -0.2198  0.1909 -0.5664
 6113TIP3    H139830   3.212   2.697   6.385 -0.2826  0.2101 -0.4886
 6113TIP3    H239831   3.222   2.772   6.254  0.6116  0.6839 -0.1468
 6114TIP3   OH239832   1.090   4.136   0.325  0.1437  0.1755  0.4110
 6114TIP3    H139833   1.124   4.074   0.260 -1.6775  0.0521 -0.4738
 6114TIP3    H239834   1.073   4.216   0.275 -0.2508  0.4297  0.9476
 6115TIP3   OH239835   1.746   5.764   0.029  0.6357 -0.2150 -0.0079
 6115TIP3    H139836   1.670   5.820   0.041  1.2307  0.8552 -1.1578
 6115TIP3    H239837   1.818   5.812   0.069  1.3660  0.3908 -1.9784
 6116TIP3   OH239838   2.349   2.744  16.781  0.1885 -0.3864 -0.2699
 6116TIP3    H139839   2.389   2.695  16.853 -1.2106  1.5833  1.9328
 6116TIP3    H239840   2.255   2.731  16.793 -0.1252  1.4678 -0.6666
 6117TIP3   OH239841   2.491   3.166   3.655  0.3161  0.1052  0.2264
 6117TIP3    H139842   2.481   3.233   3.722  1.3940  0.7290 -0.2261
 6117TIP3    H239843   2.403   3.155   3.619 -0.2103 -0.0116  1.5090
 6118TIP3   OH239844   5.766   2.469  14.736 -0.0952  0.0203 -0.7107
 6118TIP3    H139845   5.847   2.423  14.716  1.0019  0.8183  1.7029
 6118TIP3    H239846   5.711   2.405  14.780 -0.1193 -0.0377 -0.8226
 6119TIP3   OH239847   3.179   4.475   2.299 -0.4814 -0.3935 -0.7535
 6119TIP3    H139848   3.110   4.451   2.361 -0.6071  0.0946 -0.6997
 6119TIP3    H239849   3.236   4.533   2.349 -1.9207  1.9844 -1.7896
 6120TIP3   OH239850   5.822   1.929  14.445  0.4373 -0.2105 -0.3193
 6120TIP3    H139851   5.774   2.011  14.459  1.2605  0.2932 -0.3896
 6120TIP3    H239852   5.914   1.955  14.444  0.6207 -0.8476 -2.3871
 6121TIP3   OH239853   2.817   0.260  14.031 -0.2413  0.2396  0.4543
 6121TIP3    H139854   2.788   0.255  14.122 -2.0894 -0.8665 -0.1583
 6121TIP3    H239855   2.833   0.169  14.006  0.3228  0.5395 -0.3090
 6122TIP3   OH239856   2.549   6.141   5.006  0.7500 -0.0339 -0.1892
 6122TIP3    H139857   2.466   6.188   4.998  0.3952 -0.6726 -0.3553
 6122TIP3    H239858   2.534   6.059   4.958  1.0125 -0.7646  0.9575
 6123TIP3   OH239859   3.567   2.172   3.859  0.3481  0.2193  0.0856
 6123TIP3    H139860   3.575   2.266   3.877  1.2940  0.5851 -2.1210
 6123TIP3    H239861   3.517   2.167   3.777  2.2580 -1.1044 -1.0373
 6124TIP3   OH239862   5.960   6.045  17.039  0.1570 -0.4343 -0.1570
 6124TIP3    H139863   5.882   6.095  17.066 -0.0025 -0.3411 -0.7839
 6124TIP3    H239864   5.943   5.956  17.070 -0.8043 -0.7137 -1.4580
 6125TIP3   OH239865   0.589   4.857   3.683 -0.0742  0.6254 -0.2057
 6125TIP3    H139866   0.675   4.875   3.720 -0.2624  1.9065 -0.3793
 6125TIP3    H239867   0.572   4.766   3.706  1.3150  0.3720 -0.1531
 6126TIP3   OH239868   3.585   5.272   4.661 -0.0750 -0.2581  0.1619
 6126TIP3    H139869   3.646   5.329   4.615 -0.9051  0.3480 -0.2004
 6126TIP3    H239870   3.597   5.186   4.620  0.8706 -0.2505  0.4201
 6127TIP3   OH239871   0.144   0.620  11.380 -0.0030 -0.5111  0.0362
 6127TIP3    H139872   0.113   0.551  11.438 -0.2734 -1.3344 -1.0815
 6127TIP3    H239873   0.134   0.700  11.432  2.2971 -1.5158  2.0943
 6128TIP3   OH239874   4.288   5.923  14.774  0.3454  0.8204  0.6037
 6128TIP3    H139875   4.377   5.951  14.751  0.3871 -0.5683 -1.0020
 6128TIP3    H239876   4.231   5.984  14.726  0.4448 -0.4910 -1.2400
 6129TIP3   OH239877   3.440   1.798   5.015 -0.3117 -0.5351 -0.2833
 6129TIP3    H139878   3.395   1.735   5.071 -0.5452  0.4219  0.6095
 6129TIP3    H239879   3.504   1.745   4.966  0.1729 -1.3167  1.1717
 6130TIP3   OH239880   3.387   1.789   3.768  0.6087  0.1730  0.7298
 6130TIP3    H139881   3.344   1.746   3.694  1.5569 -1.0274  0.8500
 6130TIP3    H239882   3.446   1.722   3.802  1.7932  1.4559  1.2060
 6131TIP3   OH239883   5.152   3.655   2.268  0.3633  0.4521  0.1271
 6131TIP3    H139884   5.094   3.593   2.224  0.2007  0.5239  0.2406
 6131TIP3    H239885   5.146   3.735   2.214  0.6637  0.3308 -0.0850
 6132TIP3   OH239886   4.832   5.122   0.444  0.2716  0.0717 -0.5088
 6132TIP3    H139887   4.908   5.067   0.459  0.9783  0.6482 -1.8411
 6132TIP3    H239888   4.848   5.162   0.358 -0.0538  2.6015  0.5622
 6133TIP3   OH239889   0.506   5.571  17.034  0.5188 -0.0982  0.1823
 6133TIP3    H139890   0.466   5.654  17.008  1.0351 -0.1300 -0.7420
 6133TIP3    H239891   0.571   5.595  17.100  1.6361  0.4007 -1.0878
 6134TIP3   OH239892   3.345   5.898  17.141  0.0119  0.2417 -0.5617
 6134TIP3    H139893   3.390   5.954  17.078  0.0148 -1.9209 -2.5482
 6134TIP3    H239894   3.252   5.905  17.118  0.0781 -1.0851 -1.2842
 6135TIP3   OH239895   6.181   6.641  13.155 -0.3247  0.0645 -0.2405
 6135TIP3    H139896   6.212   6.654  13.065  1.0777  1.6463  0.4501
 6135TIP3    H239897   6.261   6.643  13.208 -1.0014 -2.1518  0.9323
 6136TIP3   OH239898   4.154   5.003  12.633 -0.2932 -0.5452  0.1721
 6136TIP3    H139899   4.247   5.028  12.635 -0.3417 -0.4074  0.7171
 6136TIP3    H239900   4.119   5.048  12.556  0.2496 -1.1651 -0.4575
 6137TIP3   OH239901   6.405   2.447   2.135 -0.1004  0.0044  0.2080
 6137TIP3    H139902   6.477   2.494   2.177 -0.9970  1.4104  0.2168
 6137TIP3    H239903   6.340   2.436   2.205 -0.1008 -0.8148  0.0785
 6138TIP3   OH239904   0.945   3.259  12.854 -0.5819 -0.3980 -0.5343
 6138TIP3    H139905   0.965   3.235  12.945 -1.0250  1.3518  0.0383
 6138TIP3    H239906   1.030   3.283  12.816 -0.3626 -1.3430 -0.6711
 6139TIP3   OH239907   2.964   5.942   3.273  0.0369 -0.3114 -0.6424
 6139TIP3    H139908   2.937   5.947   3.181 -1.0459  3.1445 -0.2253
 6139TIP3    H239909   2.910   5.873   3.310 -0.8422 -0.4837 -2.1998
 6140TIP3   OH239910   2.651   4.454  13.396  0.4582 -0.3124  0.6175
 6140TIP3    H139911   2.708   4.384  13.428  3.4437  2.3655  1.4176
 6140TIP3    H239912   2.706   4.532  13.398 -2.9777  2.2062  0.3991
 6141TIP3   OH239913   1.852   0.325   0.583  0.5392  0.0551  0.6350
 6141TIP3    H139914   1.791   0.280   0.641  1.3682 -0.8793  0.8006
 6141TIP3    H239915   1.796   0.365   0.516 -0.2662 -0.6498  0.8716
 6142TIP3   OH239916   3.497   3.132  12.705 -0.0128 -0.0944  0.5770
 6142TIP3    H139917   3.585   3.102  12.681 -0.1545 -1.2113  1.3937
 6142TIP3    H239918   3.497   3.129  12.801 -0.9370 -0.0832  0.5772
 6143TIP3   OH239919   2.289   0.118   1.086  0.4539 -0.5711  0.2150
 6143TIP3    H139920   2.199   0.144   1.066  0.4066 -0.4110  0.6340
 6143TIP3    H239921   2.302   0.037   1.037 -0.1363 -0.9455  0.6681
 6144TIP3   OH239922   2.914   1.053   4.209  0.2551 -0.1658  0.5832
 6144TIP3    H139923   2.880   1.065   4.297  1.1466 -0.2064  0.9405
 6144TIP3    H239924   2.916   0.959   4.196 -1.6192 -0.1173 -0.1832
 6145TIP3   OH239925   3.272   2.031   2.705  0.4940  0.2261 -0.4562
 6145TIP3    H139926   3.232   2.082   2.775 -1.5100 -1.2863 -0.4443
 6145TIP3    H239927   3.223   2.057   2.626 -0.5881 -1.6669 -0.4356
 6146TIP3   OH239928   4.942   0.932  13.805  0.1029 -0.2043  0.0749
 6146TIP3    H139929   4.911   0.998  13.743 -0.8677  0.6457  1.4421
 6146TIP3    H239930   4.866   0.911  13.858  1.0022 -0.6775  1.1962
 6147TIP3   OH239931   6.540   3.639  16.651  0.2822  0.2196  0.3747
 6147TIP3    H139932   6.541   3.552  16.612 -0.6525  0.1486  0.5113
 6147TIP3    H239933   6.579   3.626  16.737 -0.2352 -0.1448  0.5586
 6148TIP3   OH239934   4.413   0.768  15.660 -0.2162  0.2959  0.5256
 6148TIP3    H139935   4.437   0.700  15.598  2.1881 -0.3695  2.0971
 6148TIP3    H239936   4.497   0.810  15.683 -1.3278  2.0061  1.5991
 6149TIP3   OH239937   1.017   5.828   5.081  0.6439 -0.3797 -0.4515
 6149TIP3    H139938   0.953   5.879   5.130  2.3271  0.2102  1.1606
 6149TIP3    H239939   0.964   5.775   5.022 -1.2949  0.7135  0.2525
 6150TIP3   OH239940   6.032   4.504  15.587 -0.8583  0.4433  0.0955
 6150TIP3    H139941   6.122   4.498  15.616 -1.3017  0.2047  1.4503
 6150TIP3    H239942   6.023   4.594  15.555 -0.3450  0.6873  0.6361
 6151TIP3   OH239943   4.958   2.347   0.173 -0.1191 -0.7363  0.4491
 6151TIP3    H139944   5.047   2.319   0.156  0.1057 -0.4791  1.1717
 6151TIP3    H239945   4.961   2.385   0.261 -0.9129 -0.6268  0.4361
 6152TIP3   OH239946   3.595   4.717  16.702  0.2769  0.3436 -0.7392
 6152TIP3    H139947   3.517   4.771  16.685 -0.0413  0.3490  0.7375
 6152TIP3    H239948   3.596   4.654  16.630 -1.1061  0.3205 -0.7511
 6153TIP3   OH239949   3.751   3.426   4.055  0.2107  0.6775  0.0798
 6153TIP3    H139950   3.748   3.385   4.142  0.2412  0.5837  0.0366
 6153TIP3    H239951   3.842   3.456   4.046  1.0883 -2.1550 -1.2318
 6154TIP3   OH239952   5.584   4.086  15.123  0.6700 -0.4119  0.0225
 6154TIP3    H139953   5.512   4.148  15.109  1.3475  0.1895 -0.9103
 6154TIP3    H239954   5.662   4.141  15.127  0.9712 -0.9429  2.2602
 6155TIP3   OH239955   0.856   3.122  10.895 -0.1015 -1.0140  0.4378
 6155TIP3    H139956   0.772   3.127  10.941 -0.5142  2.4215 -0.5437
 6155TIP3    H239957   0.832   3.103  10.804  0.0808  0.8658 -0.0237
 6156TIP3   OH239958   1.254   5.894   3.252  0.6265  0.1025  0.5135
 6156TIP3    H139959   1.300   5.948   3.188  0.6673  0.2463  0.6636
 6156TIP3    H239960   1.297   5.913   3.335 -1.7014  2.6402  1.2322
 6157TIP3   OH239961   4.448   4.001   1.608  0.5991  0.2030 -0.2764
 6157TIP3    H139962   4.536   4.029   1.635  1.4041 -1.2014 -1.3871
 6157TIP3    H239963   4.392   4.023   1.683  1.9747  0.6405  0.6486
 6158TIP3   OH239964   1.570   5.822  15.371  0.5195  0.1652 -0.3078
 6158TIP3    H139965   1.502   5.889  15.373 -0.2567 -0.5861 -0.8157
 6158TIP3    H239966   1.648   5.867  15.338 -0.5689  0.3339 -2.7856
 6159TIP3   OH239967   4.241   4.907   0.679  0.2426 -0.0261 -0.2721
 6159TIP3    H139968   4.329   4.877   0.658  0.3613 -1.0107  1.5092
 6159TIP3    H239969   4.183   4.841   0.643  0.3401 -0.5576  0.5428
 6160TIP3   OH239970   5.070   3.063   2.769  0.1986 -0.4311 -0.0750
 6160TIP3    H139971   5.009   3.014   2.714 -0.6063  0.6930 -0.2213
 6160TIP3    H239972   5.155   3.023   2.752 -0.3812 -1.5153 -0.4720
 6161TIP3   OH239973   2.311   0.068  14.821 -0.0797 -0.3913  0.6937
 6161TIP3    H139974   2.359   0.150  14.808  0.1093 -0.8212 -1.6041
 6161TIP3    H239975   2.370   0.013  14.872  0.4206  0.3513  0.9200
 6162TIP3   OH239976   4.916   0.726   0.408  0.3615 -0.3170  0.0152
 6162TIP3    H139977   4.840   0.714   0.352 -1.2693 -0.4236  2.1593
 6162TIP3    H239978   4.956   0.808   0.379 -0.7845 -0.0699 -0.8788
 6163TIP3   OH239979   1.228   0.296  13.490 -0.1982  0.0880  0.0780
 6163TIP3    H139980   1.238   0.203  13.514 -0.1111 -0.2517 -1.1999
 6163TIP3    H239981   1.258   0.299  13.399 -0.4263  1.3360  0.0469
 6164TIP3   OH239982   4.602   2.230   4.676 -0.5257  0.1287 -0.5299
 6164TIP3    H139983   4.663   2.230   4.602  1.6147 -0.4241  1.1583
 6164TIP3    H239984   4.550   2.151   4.665 -0.6911  0.4146 -1.8146
 6165TIP3   OH239985   0.876   1.941  11.894 -0.4108  0.0990 -0.4707
 6165TIP3    H139986   0.950   1.976  11.944 -0.4050  1.5839 -1.5023
 6165TIP3    H239987   0.913   1.919  11.808 -0.7463 -1.0488 -0.3378
 6166TIP3   OH239988   0.230   3.168   2.647 -0.2221  0.5536 -0.0324
 6166TIP3    H139989   0.207   3.080   2.618  0.7685 -0.4881  2.1641
 6166TIP3    H239990   0.321   3.179   2.619  0.4368 -0.0976  1.7659
 6167TIP3   OH239991   2.432   4.598  16.703 -0.5339  0.0558  0.6473
 6167TIP3    H139992   2.507   4.543  16.682 -1.3230 -0.5554 -0.5977
 6167TIP3    H239993   2.445   4.678  16.651 -1.2493 -0.4593 -0.3288
 6168TIP3   OH239994   2.546   3.152  16.012  0.1351  0.3481 -0.2543
 6168TIP3    H139995   2.513   3.093  15.945 -1.8443 -0.1187  1.0952
 6168TIP3    H239996   2.522   3.240  15.981 -0.6797  0.1423 -0.2071
 6169TIP3   OH239997   1.705   1.143  13.613 -0.1943  0.5307  0.0734
 6169TIP3    H139998   1.695   1.175  13.702 -0.8260  0.3777  0.0639
 6169TIP3    H239999   1.782   1.086  13.616  1.0007  2.1077  0.0629
 6170TIP3   OH240000   1.665   4.377   6.190  0.7453  0.4684  0.6065
 6170TIP3    H140001   1.593   4.435   6.165 -0.2525 -0.6426  0.8728
 6170TIP3    H240002   1.744   4.430   6.175 -0.1576  2.0777  1.3408
 6171TIP3   OH240003   6.592   1.891  12.650 -0.2915 -0.3395  0.0300
 6171TIP3    H140004   6.611   1.820  12.712  0.6642  0.3559  0.5350
 6171TIP3    H240005   6.553   1.960  12.704 -0.1795 -0.0327 -0.2794
 6172TIP3   OH240006   3.353   1.271  16.439  0.4824 -0.0377 -0.2892
 6172TIP3    H140007   3.415   1.200  16.454 -1.4590 -1.8970 -0.7787
 6172TIP3    H240008   3.407   1.345  16.412  2.7443 -0.6946  2.1847
 6173TIP3   OH240009   5.779   1.346  14.119 -0.3918  0.2063  0.6311
 6173TIP3    H140010   5.709   1.358  14.054 -0.5147 -0.3488  0.6513
 6173TIP3    H240011   5.744   1.280  14.179  0.5011 -0.7204  0.1434
 6174TIP3   OH240012   3.084   1.474  12.529 -0.1235 -0.4063 -0.6255
 6174TIP3    H140013   3.011   1.417  12.554 -2.0260  1.6874 -1.3096
 6174TIP3    H240014   3.109   1.518  12.610  1.0209 -1.8136 -0.1989
 6175TIP3   OH240015   6.085   0.244   5.044 -1.1307  0.5053 -0.4933
 6175TIP3    H140016   6.061   0.196   5.124  1.2462 -0.2788 -0.1973
 6175TIP3    H240017   6.001   0.270   5.005 -2.3165  2.1024  2.9530
 6176TIP3   OH240018   2.016   2.207   2.047  0.1418  0.1850  0.3463
 6176TIP3    H140019   2.096   2.258   2.058  0.3502 -0.2148  0.6981
 6176TIP3    H240020   1.998   2.172   2.134  1.1001 -1.9836 -0.2872
 6177TIP3   OH240021   6.806   1.920   1.197  0.1929 -0.0320 -0.8665
 6177TIP3    H140022   6.766   1.839   1.231  0.5063 -0.5654 -1.7611
 6177TIP3    H240023   6.846   1.894   1.115  0.4519  1.0080 -1.0708
 6178TIP3   OH240024   3.817   6.729  13.794 -0.0094 -0.0984 -0.1764
 6178TIP3    H140025   3.884   6.691  13.736  1.2053  0.8774  0.5574
 6178TIP3    H240026   3.867   6.786  13.853 -1.7809  2.6388 -1.2489
 6179TIP3   OH240027   1.852   1.430   6.006 -0.2898  0.4289 -0.0783
 6179TIP3    H140028   1.814   1.505   6.051  2.1895  1.9567 -0.3774
 6179TIP3    H240029   1.888   1.375   6.076 -1.4122 -0.1080  0.0928
 6180TIP3   OH240030   2.353   2.991  14.904 -0.1893 -0.2269  0.1253
 6180TIP3    H140031   2.340   2.897  14.912  0.9785 -0.4114  0.0009
 6180TIP3    H240032   2.389   3.003  14.816  2.4939 -0.0171  1.1811
 6181TIP3   OH240033   2.025   0.948  12.920 -0.1725  0.4994 -0.1059
 6181TIP3    H140034   2.013   1.012  12.990  0.0252  0.1020  0.2949
 6181TIP3    H240035   2.117   0.958  12.893 -0.2067  0.5482 -0.2060
 6182TIP3   OH240036   0.393   0.772  15.457  0.3655 -0.5075 -0.0392
 6182TIP3    H140037   0.445   0.704  15.498 -0.7158 -1.2032  0.1879
 6182TIP3    H240038   0.337   0.805  15.527 -0.6574 -0.8939 -0.6644
 6183TIP3   OH240039   3.787   5.854   3.509 -0.6564  0.3581  0.0922
 6183TIP3    H140040   3.868   5.802   3.511  0.2940  1.8247  0.2796
 6183TIP3    H240041   3.739   5.821   3.433 -1.4686 -2.8826  1.9326
 6184TIP3   OH240042   5.534   3.609   4.005  0.2496  0.2484 -0.4093
 6184TIP3    H140043   5.513   3.556   4.081 -0.1371 -0.8424 -1.2587
 6184TIP3    H240044   5.625   3.589   3.985  0.3752  0.5948 -0.1742
 6185TIP3   OH240045   2.764   2.755  15.254  0.0416  0.2181 -0.3050
 6185TIP3    H140046   2.747   2.826  15.192  0.9884 -1.0767 -2.0955
 6185TIP3    H240047   2.678   2.729  15.286 -0.3937  1.3956 -0.4952
 6186TIP3   OH240048   2.491   4.991  14.006 -0.1120  0.4246 -0.1614
 6186TIP3    H140049   2.566   4.936  13.983 -0.1670 -0.1623  1.0409
 6186TIP3    H240050   2.497   5.065  13.947  1.2110  0.1963 -0.3267
 6187TIP3   OH240051   5.712   6.244  12.677 -0.3475 -0.3415  1.1056
 6187TIP3    H140052   5.735   6.161  12.720  1.5179  0.1888  1.1661
 6187TIP3    H240053   5.734   6.230  12.585 -1.4034 -0.4078  0.8629
 6188TIP3   OH240054   5.831   3.349   0.315  0.3336 -0.3458 -0.4557
 6188TIP3    H140055   5.905   3.308   0.360 -0.1235 -0.0250  0.6088
 6188TIP3    H240056   5.842   3.442   0.331  0.3162 -0.2079 -1.2448
 6189TIP3   OH240057   0.247   5.948  12.984  0.2921 -0.2581  0.1764
 6189TIP3    H140058   0.212   5.865  12.950 -1.1223  0.5458 -0.3818
 6189TIP3    H240059   0.171   5.992  13.021  1.4189 -0.1402  2.4665
 6190TIP3   OH240060   6.581   6.476  11.500 -0.2237 -0.6679  0.4074
 6190TIP3    H140061   6.658   6.530  11.481 -1.3668  0.6467 -0.6359
 6190TIP3    H240062   6.514   6.539  11.529 -0.8278 -1.8202  1.5751
 6191TIP3   OH240063   6.666   0.301  16.980 -0.3045 -0.2012 -0.4835
 6191TIP3    H140064   6.577   0.273  16.959 -0.8329  0.5014  0.7991
 6191TIP3    H240065   6.720   0.257  16.915 -1.7007  0.2749 -2.0259
 6192TIP3   OH240066   3.874   0.437  16.107 -0.1951 -0.2745  0.1668
 6192TIP3    H140067   3.889   0.494  16.032 -0.7776 -0.5655 -0.1724
 6192TIP3    H240068   3.907   0.487  16.182  1.4039 -0.4371 -0.4114
 6193TIP3   OH240069   3.677   6.386  17.100  1.0260 -0.3216  0.0144
 6193TIP3    H140070   3.769   6.405  17.121  1.0217  0.0829 -0.3374
 6193TIP3    H240071   3.631   6.468  17.117  0.6161 -0.7039  0.8126
 6194TIP3   OH240072   0.346   2.876  10.314  0.9650 -0.8174 -0.4642
 6194TIP3    H140073   0.382   2.920  10.392 -1.5527  0.8253 -0.1739
 6194TIP3    H240074   0.298   2.802  10.349 -0.8804  0.4059 -0.3434
 6195TIP3   OH240075   6.503   1.872  15.284  0.0386  0.0970  0.2686
 6195TIP3    H140076   6.574   1.894  15.224  0.4151 -0.8358  0.3607
 6195TIP3    H240077   6.539   1.804  15.341 -0.9620 -0.4888  0.2321
 6196TIP3   OH240078   0.438   2.026   0.434 -0.2895  0.5194  0.7793
 6196TIP3    H140079   0.514   2.018   0.377 -0.9868  1.5624 -0.3236
 6196TIP3    H240080   0.420   1.936   0.461 -0.5017 -0.1531 -1.4320
 6197TIP3   OH240081   1.268   3.363   2.034  0.1344 -0.2571  0.1534
 6197TIP3    H140082   1.257   3.323   2.120  2.2978 -2.4201 -0.5110
 6197TIP3    H240083   1.348   3.414   2.040  0.3039 -0.4231 -0.5693
 6198TIP3   OH240084   4.263   4.323  13.511  0.5300  0.1143  0.3295
 6198TIP3    H140085   4.237   4.386  13.444  0.4784 -1.6098 -1.3234
 6198TIP3    H240086   4.188   4.320  13.571  0.0725  0.8034 -0.1931
 6199TIP3   OH240087   2.514   2.887   3.688 -1.0229 -0.0043  0.9742
 6199TIP3    H140088   2.511   2.982   3.696 -1.9083  0.0494 -0.0224
 6199TIP3    H240089   2.602   2.869   3.654 -1.6991  0.6390 -1.1923
 6200TIP3   OH240090   0.859   1.124  13.859  0.5390  0.2151 -0.8781
 6200TIP3    H140091   0.779   1.173  13.881  0.2741 -0.1912 -0.9352
 6200TIP3    H240092   0.898   1.175  13.788  1.5393  1.6835  0.6851
 6201TIP3   OH240093   6.429   2.677   1.328 -0.6343 -0.1992 -0.1035
 6201TIP3    H140094   6.514   2.665   1.285 -0.1398 -2.2479  1.3443
 6201TIP3    H240095   6.365   2.669   1.258  0.2255 -2.0207 -0.7288
 6202TIP3   OH240096   0.762   3.562   0.911  0.2302 -0.1955  0.2411
 6202TIP3    H140097   0.819   3.638   0.906  2.3956 -1.9382 -4.1983
 6202TIP3    H240098   0.809   3.501   0.969  0.1493  0.4855  1.0332
 6203TIP3   OH240099   1.556   5.063  13.201 -0.1104 -0.2363  0.4702
 6203TIP3    H140100   1.556   5.131  13.133 -0.4628  0.1573  0.8644
 6203TIP3    H240101   1.471   5.019  13.191  0.5896 -1.4005 -0.5584
 6204TIP3   OH240102   6.525   2.331  12.323  0.0129  0.6677  0.2157
 6204TIP3    H140103   6.569   2.308  12.405  2.0854  2.5181 -0.3443
 6204TIP3    H240104   6.536   2.426  12.315 -1.5341  0.7394 -1.4382
 6205TIP3   OH240105   2.584   3.838  13.184  0.0132  0.2229  0.7095
 6205TIP3    H140106   2.551   3.797  13.105 -0.2955 -0.5681  1.2517
 6205TIP3    H240107   2.577   3.932  13.167  1.7320  0.0894 -0.9489
 6206TIP3   OH240108   3.927   5.678   0.742 -0.4388 -0.1318 -0.5842
 6206TIP3    H140109   3.936   5.754   0.799 -1.3993  1.9856 -3.1562
 6206TIP3    H240110   3.894   5.609   0.799  2.0198  0.8513  2.1727
 6207TIP3   OH240111   2.142   4.340   3.639 -0.2679 -0.3579  0.1427
 6207TIP3    H140112   2.148   4.245   3.640 -2.1119 -0.5062  0.0061
 6207TIP3    H240113   2.054   4.358   3.605  0.0112  1.3908  0.2713
 6208TIP3   OH240114   4.530   3.526   1.717 -0.1555 -0.1067 -0.5276
 6208TIP3    H140115   4.558   3.469   1.646 -0.6562  0.0921 -0.8939
 6208TIP3    H240116   4.435   3.536   1.704 -0.0318  1.0490 -0.6614
 6209TIP3   OH240117   6.674   0.337  12.558 -0.7560 -0.1316 -0.0235
 6209TIP3    H140118   6.669   0.424  12.596  0.9034 -0.7086  1.6062
 6209TIP3    H240119   6.721   0.348  12.475  1.6198  0.1954  1.3376
 6210TIP3   OH240120   1.647   3.508  17.282 -0.7488  0.5000  0.2145
 6210TIP3    H140121   1.572   3.561  17.309 -0.5313  0.5825  0.6675
 6210TIP3    H240122   1.653   3.440  17.349  0.2498  1.1425  0.8016
 6211TIP3   OH240123   6.055   0.238   5.493  0.4406 -0.1979  0.4012
 6211TIP3    H140124   6.149   0.242   5.510  0.9664  0.2817 -2.4287
 6211TIP3    H240125   6.044   0.164   5.433 -1.0068 -0.3074  0.7855
 6212TIP3   OH240126   3.770   2.321   3.396 -0.1257 -0.2480  0.3231
 6212TIP3    H140127   3.807   2.342   3.482 -0.3988 -1.5759  0.7658
 6212TIP3    H240128   3.796   2.230   3.380 -1.6159 -0.5842 -0.1961
 6213TIP3   OH240129   6.302   4.184   0.306  0.0815 -0.4846 -0.5882
 6213TIP3    H140130   6.363   4.236   0.253  1.4857 -0.8204  0.6620
 6213TIP3    H240131   6.217   4.196   0.263  0.7164  1.3291 -1.4147
 6214TIP3   OH240132   0.104   2.252  12.287 -0.1612  0.8432 -0.0769
 6214TIP3    H140133   0.010   2.258  12.306  0.0051  0.9047  0.7442
 6214TIP3    H240134   0.146   2.260  12.372  0.5824  0.4821 -0.4099
 6215TIP3   OH240135   4.963   3.335  15.058 -0.0652 -0.3947 -0.9228
 6215TIP3    H140136   4.884   3.284  15.078 -0.3008  0.3719  0.1049
 6215TIP3    H240137   4.944   3.377  14.974 -1.0116  0.2980 -0.3725
 6216TIP3   OH240138   1.710   0.865  15.285  0.3112 -0.5083  0.7892
 6216TIP3    H140139   1.791   0.821  15.308  1.0673  0.5226  0.1741
 6216TIP3    H240140   1.645   0.831  15.346  1.2240 -1.2898  1.3261
 6217TIP3   OH240141   2.298   4.119  10.291  0.4075 -0.2239 -0.2173
 6217TIP3    H140142   2.346   4.149  10.368 -0.6207  0.7299  0.0521
 6217TIP3    H240143   2.318   4.025  10.286 -1.4049 -0.8267  2.6189
 6218TIP3   OH240144   1.226   0.331  15.375  0.2548 -0.1876  0.3701
 6218TIP3    H140145   1.148   0.329  15.430  0.3867  2.2781  0.6904
 6218TIP3    H240146   1.298   0.313  15.435 -0.0234 -2.3449  0.0941
 6219TIP3   OH240147   4.537   6.183   4.453 -0.5252  0.1732 -0.1098
 6219TIP3    H140148   4.603   6.237   4.410  1.4394 -0.1963  2.3305
 6219TIP3    H240149   4.457   6.236   4.452  0.7801  2.1684  0.1656
 6220TIP3   OH240150   3.352   0.572  17.109 -0.1148 -0.4819  0.1836
 6220TIP3    H140151   3.365   0.656  17.152  1.1253 -0.5758  0.0016
 6220TIP3    H240152   3.431   0.521  17.129 -1.1791 -1.8826  0.9401
 6221TIP3   OH240153   6.314   3.784  10.495  0.2991 -0.3373 -0.2857
 6221TIP3    H140154   6.404   3.814  10.506  0.3675 -0.5858 -0.1694
 6221TIP3    H240155   6.260   3.858  10.523  0.4744 -1.0223  1.9184
 6222TIP3   OH240156   4.241   2.441   3.246  0.1009 -0.6989  0.4503
 6222TIP3    H140157   4.330   2.427   3.280  0.2217 -0.7367  0.1157
 6222TIP3    H240158   4.185   2.388   3.303  0.5185 -2.3247 -0.6062
 6223TIP3   OH240159   4.123   0.073   1.546 -0.0840  0.3755  0.0716
 6223TIP3    H140160   4.040   0.120   1.552  0.3060  1.0226  0.4548
 6223TIP3    H240161   4.189   0.137   1.571  0.5182 -0.1871 -0.0519
 6224TIP3   OH240162   4.563   6.569  13.495  0.0433  0.0840 -0.1235
 6224TIP3    H140163   4.583   6.620  13.416 -0.4826  1.1418  0.4061
 6224TIP3    H240164   4.645   6.569  13.545  0.3012 -0.3610 -0.5440
 6225TIP3   OH240165   4.082   3.961   1.530  0.2717  0.6556 -0.5325
 6225TIP3    H140166   4.089   3.947   1.624  0.3818  1.7816 -0.3565
 6225TIP3    H240167   4.038   3.883   1.497  0.3507  0.1934  0.4348
 6226TIP3   OH240168   3.595   0.076  12.668 -0.0472  0.3883 -0.2472
 6226TIP3    H140169   3.528   0.141  12.687 -1.9685 -1.0541 -1.9082
 6226TIP3    H240170   3.655   0.120  12.608 -0.9205  0.8759 -0.7712
 6227TIP3   OH240171   1.935   0.334   5.353 -0.2439  0.6220 -0.3637
 6227TIP3    H140172   1.998   0.264   5.339  1.3352  1.7559  0.9969
 6227TIP3    H240173   1.934   0.382   5.270  1.8691  1.5436  0.1214
 6228TIP3   OH240174   0.044   6.159  15.043 -0.4119 -0.1020 -0.3346
 6228TIP3    H140175  -0.023   6.113  15.094 -1.2603  0.4806 -0.9162
 6228TIP3    H240176   0.123   6.106  15.054 -0.5430  0.0844  1.7103
 6229TIP3   OH240177   6.629   1.459   4.648 -0.6231 -0.2318  0.0326
 6229TIP3    H140178   6.545   1.434   4.687 -0.6783 -0.1676 -0.0463
 6229TIP3    H240179   6.612   1.541   4.603 -0.1451  0.5953  1.3244
 6230TIP3   OH240180   6.624   5.593   0.070  0.4479  0.3116  0.2083
 6230TIP3    H140181   6.685   5.538   0.118 -0.0606 -0.4712 -0.0380
 6230TIP3    H240182   6.593   5.538  -0.002  2.0590  1.8214 -1.7200
 6231TIP3   OH240183   0.856   2.878  15.561 -0.4537 -0.2308 -0.8392
 6231TIP3    H140184   0.934   2.857  15.510  0.2951 -1.0955  0.6116
 6231TIP3    H240185   0.875   2.842  15.648 -1.3328  1.9689  0.2805
 6232TIP3   OH240186   1.875   6.518  12.713  0.0272  0.5380  0.6009
 6232TIP3    H140187   1.828   6.500  12.794 -1.6306 -0.1671 -0.4651
 6232TIP3    H240188   1.807   6.553  12.654  0.1739 -2.9907 -1.8533
 6233TIP3   OH240189   3.581   5.791  15.515 -0.4035  0.5578  0.0488
 6233TIP3    H140190   3.555   5.819  15.427  1.5464  1.7595 -0.1645
 6233TIP3    H240191   3.616   5.703  15.503 -0.0505  0.7586 -0.3938
 6234TIP3   OH240192   6.552   5.415   5.396  0.0355 -0.0387  0.4317
 6234TIP3    H140193   6.597   5.338   5.432 -0.8438 -0.9181 -0.2985
 6234TIP3    H240194   6.620   5.464   5.351  0.5220 -0.6663  0.4699
 6235TIP3   OH240195   5.802   3.178  13.736 -0.0763 -0.0928 -0.2757
 6235TIP3    H140196   5.804   3.126  13.655 -0.6244 -0.5093 -0.0307
 6235TIP3    H240197   5.805   3.113  13.806  1.1106  0.3052  0.0460
 6236TIP3   OH240198   0.763   2.009  15.210 -0.0071 -0.0970 -0.8037
 6236TIP3    H140199   0.740   2.036  15.299  0.8658 -2.4250  0.1493
 6236TIP3    H240200   0.848   1.966  15.219  0.0910 -0.3509 -2.7718
 6237TIP3   OH240201   2.654   1.598   5.573 -0.1757 -0.3294 -0.0767
 6237TIP3    H140202   2.593   1.618   5.502  0.5510 -2.6832 -1.4151
 6237TIP3    H240203   2.620   1.518   5.613  1.5970 -1.2389 -0.3390
 6238TIP3   OH240204   4.265   1.689  12.432  0.1189  0.2801 -0.4332
 6238TIP3    H140205   4.252   1.737  12.350  1.5554  3.0926  0.9081
 6238TIP3    H240206   4.354   1.655  12.427  0.1170  0.2332 -0.1606
 6239TIP3   OH240207   2.368   3.544  16.329 -0.3663 -0.4484  0.6758
 6239TIP3    H140208   2.353   3.579  16.240  0.2685 -0.2903  0.6318
 6239TIP3    H240209   2.449   3.585  16.357 -1.2600  0.5413  1.8628
 6240TIP3   OH240210   2.070   2.750  14.961 -0.3170  0.1108  0.3449
 6240TIP3    H140211   2.124   2.701  14.899 -0.9272  0.6071 -0.5938
 6240TIP3    H240212   2.000   2.689  14.985  0.5448 -0.4722  1.4268
 6241TIP3   OH240213   4.263   1.726   3.148  0.1831  0.4061  0.5294
 6241TIP3    H140214   4.258   1.764   3.060 -0.8020 -0.4365  0.2082
 6241TIP3    H240215   4.304   1.794   3.201  1.5138  0.6204 -0.7521
 6242TIP3   OH240216   2.649   6.329   0.163  0.0307  0.3292 -0.7857
 6242TIP3    H140217   2.591   6.267   0.118 -0.3949  0.9776 -1.1460
 6242TIP3    H240218   2.710   6.357   0.095  0.8221 -0.4091 -0.3881
 6243TIP3   OH240219   6.460   0.086  14.863  0.1841 -0.1883  0.4257
 6243TIP3    H140220   6.506   0.076  14.780 -2.9949  0.5961 -1.5595
 6243TIP3    H240221   6.451   0.181  14.874  0.4679 -0.2890  1.6115
 6244TIP3   OH240222   4.543   0.275   1.349 -0.0771  0.4548 -0.0340
 6244TIP3    H140223   4.617   0.330   1.375 -0.2628  0.9477 -0.5370
 6244TIP3    H240224   4.466   0.322   1.380 -0.1654 -0.2451  0.8236
 6245TIP3   OH240225   3.633   3.535  11.264  0.1781  0.2882 -0.0904
 6245TIP3    H140226   3.578   3.470  11.221 -0.4184  0.6806  0.0820
 6245TIP3    H240227   3.573   3.604  11.292  0.8367  1.0350 -0.4836
 6246TIP3   OH240228   2.962   1.232  12.879 -0.4148 -0.2357  0.3753
 6246TIP3    H140229   2.919   1.164  12.930 -1.0874  1.2931  1.9026
 6246TIP3    H240230   3.044   1.249  12.925 -0.5818  0.4874  0.4148
 6247TIP3   OH240231   0.114   1.491  13.340  0.5132 -0.0601 -0.9322
 6247TIP3    H140232   0.198   1.479  13.296 -0.2804  0.5497 -2.6499
 6247TIP3    H240233   0.065   1.411  13.320  2.1826 -2.3820  3.6396
 6248TIP3   OH240234   6.025   6.195  12.776  0.2887 -0.4806  0.7012
 6248TIP3    H140235   6.118   6.173  12.772  0.0675 -1.4275  0.6116
 6248TIP3    H240236   5.983   6.130  12.719 -0.2208  1.0666 -0.7153
 6249TIP3   OH240237   2.707   3.122  16.426  0.0514  0.1996 -0.0211
 6249TIP3    H140238   2.754   3.174  16.361 -1.1333  1.8437  0.3882
 6249TIP3    H240239   2.774   3.091  16.486  0.9376  0.1174 -1.0425
 6250TIP3   OH240240   6.558   1.726   0.444  0.4268  0.7667  0.4807
 6250TIP3    H140241   6.636   1.675   0.468  0.4372  0.3663 -0.3851
 6250TIP3    H240242   6.528   1.764   0.527  0.2660 -0.8645  1.1979
 6251TIP3   OH240243   2.206   6.085  14.976 -0.5776  0.0932  0.6993
 6251TIP3    H140244   2.204   6.180  14.965  0.2746  0.0953  0.4714
 6251TIP3    H240245   2.162   6.069  15.059  1.2902  0.9096  1.8947
 6252TIP3   OH240246   0.163   2.106  12.574 -0.4045 -0.0082  0.4211
 6252TIP3    H140247   0.250   2.091  12.538 -0.7123 -1.1772  0.1446
 6252TIP3    H240248   0.179   2.125  12.667  0.1608 -0.0232  0.3292
 6253TIP3   OH240249   3.021   3.463   0.197  0.3098 -0.6931  0.4668
 6253TIP3    H140250   2.950   3.525   0.212  0.0131 -1.3498  1.9069
 6253TIP3    H240251   3.086   3.512   0.147  0.2891  0.9442  1.9933
 6254TIP3   OH240252   4.036   5.056   4.336 -0.4829 -0.0119 -0.5268
 6254TIP3    H140253   4.126   5.082   4.317 -0.1569  0.2725  1.3041
 6254TIP3    H240254   3.988   5.077   4.256  0.6659  1.8443 -0.7730
 6255TIP3   OH240255   1.530   2.544   2.813  0.0651 -0.3599 -0.7895
 6255TIP3    H140256   1.489   2.626   2.785 -2.1518 -1.2565 -0.3294
 6255TIP3    H240257   1.591   2.569   2.882 -0.1424  0.9641 -1.0812
 6256TIP3   OH240258   3.200   2.604  14.745 -0.5465  0.1650  0.9057
 6256TIP3    H140259   3.286   2.645  14.738  0.0825 -1.1043  1.1108
 6256TIP3    H240260   3.138   2.677  14.746  0.3778  1.0396 -1.4398
 6257TIP3   OH240261   6.619   2.681  16.355  0.0160 -0.4741 -0.1348
 6257TIP3    H140262   6.647   2.700  16.445 -1.3780 -0.2580  0.2614
 6257TIP3    H240263   6.578   2.595  16.361 -0.5633 -0.2200 -0.4563
 6258TIP3   OH240264   4.465   2.828  16.882 -0.7545  0.3179  0.3739
 6258TIP3    H140265   4.387   2.884  16.878  0.4123  1.8444 -2.5184
 6258TIP3    H240266   4.454   2.768  16.808  1.6533  1.7545 -1.1987
 6259TIP3   OH240267   6.592   4.940   4.015  0.2808 -0.2617 -0.4787
 6259TIP3    H140268   6.664   4.949   3.953 -0.2580 -0.7336 -1.1828
 6259TIP3    H240269   6.632   4.909   4.095  0.9309 -0.0219 -0.7090
 6260TIP3   OH240270   6.660   0.295  11.261  0.1143  0.1190  0.1605
 6260TIP3    H140271   6.611   0.308  11.179 -0.9361 -1.9734  0.4415
 6260TIP3    H240272   6.605   0.335  11.328  1.1897  2.2491 -0.1666
 6261TIP3   OH240273   1.387   0.639  15.053  0.1339  0.5615 -0.4791
 6261TIP3    H140274   1.344   0.610  15.134  2.2478  0.8747  0.8059
 6261TIP3    H240275   1.319   0.635  14.986 -1.9130  1.1678  1.5105
 6262TIP3   OH240276   0.502   4.352   5.996 -0.2355  0.2400  0.1540
 6262TIP3    H140277   0.579   4.357   6.053  1.1127  0.0535 -1.6049
 6262TIP3    H240278   0.537   4.362   5.908 -2.1470 -0.7163 -0.7367
 6263TIP3   OH240279   0.538   4.981   5.452 -0.1208 -0.0442  0.2510
 6263TIP3    H140280   0.583   4.901   5.425  0.8404  0.1952  1.1047
 6263TIP3    H240281   0.598   5.052   5.430 -0.7706  0.4079 -0.0783
 6264TIP3   OH240282   2.813   4.670  13.415 -0.0322  0.3963 -0.6523
 6264TIP3    H140283   2.784   4.723  13.488 -0.1674  0.0156 -0.4257
 6264TIP3    H240284   2.854   4.732  13.354  0.5779  0.6318 -0.0029
 6265TIP3   OH240285   1.738   6.016  13.747  0.0836  0.6997  0.5484
 6265TIP3    H140286   1.719   5.972  13.830 -1.9951 -0.6455 -0.5800
 6265TIP3    H240287   1.834   6.019  13.743  0.2320 -0.6998  2.2509
 6266TIP3   OH240288   2.040   1.661   4.355  0.1514  0.2987 -0.1742
 6266TIP3    H140289   2.125   1.703   4.349  0.5547 -0.4504  0.2402
 6266TIP3    H240290   2.044   1.588   4.293 -0.3543  0.5414 -0.4976
 6267TIP3   OH240291   2.759   3.511   6.163 -0.0669  0.5555 -0.4256
 6267TIP3    H140292   2.738   3.598   6.197  0.6069  0.0042  1.4498
 6267TIP3    H240293   2.692   3.454   6.202 -0.0545  0.1038 -1.0577
 6268TIP3   OH240294   0.226   1.373   4.943 -0.4371 -0.2820 -0.6067
 6268TIP3    H140295   0.320   1.391   4.940 -0.4308  0.1770  1.9569
 6268TIP3    H240296   0.189   1.434   4.879  0.7850  1.0050 -0.1256
 6269TIP3   OH240297   2.935   3.803   5.448  0.3914 -0.0158  0.2278
 6269TIP3    H140298   2.903   3.860   5.518 -0.0592  0.0855 -0.0577
 6269TIP3    H240299   2.920   3.714   5.480  0.9103  0.0258  0.5896
 6270TIP3   OH240300   1.810   1.453  13.647 -0.7269 -0.2270 -0.0625
 6270TIP3    H140301   1.802   1.378  13.587  1.1293  0.9277 -1.8074
 6270TIP3    H240302   1.743   1.515  13.617  0.5010  0.5419 -1.2745
 6271TIP3   OH240303   6.022   5.480  17.239 -0.8585 -0.2991  0.1355
 6271TIP3    H140304   5.990   5.438  17.159  1.9384 -0.9424 -0.6958
 6271TIP3    H240305   5.993   5.571  17.231  0.5570 -0.0088 -2.3199
 6272TIP3   OH240306   0.761   6.289   5.343 -0.2845  0.3417 -0.4746
 6272TIP3    H140307   0.779   6.256   5.431 -0.2770  2.3481  0.2939
 6272TIP3    H240308   0.713   6.371   5.357 -1.4178  0.0331 -2.3582
 6273TIP3   OH240309   0.741   6.333   0.445  0.1092 -0.6798  0.7449
 6273TIP3    H140310   0.661   6.306   0.491  0.2966 -1.3322  0.6841
 6273TIP3    H240311   0.752   6.268   0.376  0.4093 -0.2921  0.4272
 6274TIP3   OH240312   1.773   0.631  16.893 -0.1188  0.2893 -0.2008
 6274TIP3    H140313   1.734   0.650  16.979 -1.9087  0.5275 -1.0511
 6274TIP3    H240314   1.705   0.582  16.846  1.0021 -0.1950 -1.3415
 6275TIP3   OH240315   2.214   3.039   5.526 -0.0991 -0.2846  0.6070
 6275TIP3    H140316   2.201   3.040   5.431  1.1057  1.2051  0.4422
 6275TIP3    H240317   2.200   2.948   5.551  1.0179 -0.9732 -1.2109
 6276TIP3   OH240318   6.353   1.705   3.418  0.0214  0.6792 -0.0597
 6276TIP3    H140319   6.404   1.766   3.471 -1.2570  1.1545  0.6489
 6276TIP3    H240320   6.406   1.625   3.417  0.1436  0.6941  1.8447
 6277TIP3   OH240321   0.577   2.370   0.797 -0.3619  0.0441 -0.0253
 6277TIP3    H140322   0.491   2.382   0.756 -0.5211  1.3850  0.6565
 6277TIP3    H240323   0.564   2.398   0.887  0.7792  0.1878  0.0996
 6278TIP3   OH240324   2.072   1.873  14.124 -0.3917 -0.6343 -0.2371
 6278TIP3    H140325   2.072   1.914  14.037  0.2051  0.6019  0.3273
 6278TIP3    H240326   1.980   1.856  14.143 -0.5751 -0.3497 -0.8537
 6279TIP3   OH240327   1.430   0.378  14.810 -0.7776  0.1585 -0.0696
 6279TIP3    H140328   1.418   0.291  14.772  1.9832 -0.7693  1.0754
 6279TIP3    H240329   1.523   0.397  14.798 -0.6316  1.4978  2.7089
 6280TIP3   OH240330   1.026   2.631  11.293 -0.2415 -0.5985  0.1982
 6280TIP3    H140331   1.080   2.563  11.332 -0.1593 -0.1719  0.8407
 6280TIP3    H240332   0.953   2.584  11.253 -0.2359 -1.0571  0.7233
 6281TIP3   OH240333   1.254   4.914  16.292 -0.2576 -0.0718 -0.5897
 6281TIP3    H140334   1.191   4.872  16.351 -0.0019 -0.4955 -0.6236
 6281TIP3    H240335   1.235   4.877  16.206  1.1403 -1.4544 -0.3225
 6282TIP3   OH240336   4.685   4.314  14.035  0.1044  0.1430 -0.0178
 6282TIP3    H140337   4.707   4.247  13.969  1.0264  0.4843 -0.0702
 6282TIP3    H240338   4.623   4.271  14.093  0.0866 -0.5071 -0.5078
 6283TIP3   OH240339   3.013   6.192  12.303 -0.0881  0.1310  0.8274
 6283TIP3    H140340   2.943   6.201  12.368  0.6646  0.2312  1.6209
 6283TIP3    H240341   3.081   6.253  12.331  0.5612 -0.3664  0.3653
 6284TIP3   OH240342   1.639   3.282   0.197  0.0926 -0.0241 -0.3330
 6284TIP3    H140343   1.571   3.216   0.183  0.3114 -0.0538 -1.2716
 6284TIP3    H240344   1.675   3.260   0.283 -1.5820  0.4570  0.5101
 6285TIP3   OH240345   1.428   1.689  11.240  0.5455 -0.0585  0.6353
 6285TIP3    H140346   1.455   1.740  11.164  0.2582 -1.3349 -0.3493
 6285TIP3    H240347   1.340   1.657  11.217  1.4061 -2.4234  0.4578
 6286TIP3   OH240348   6.369   2.008   3.098 -0.2688 -0.3489  0.3455
 6286TIP3    H140349   6.437   1.948   3.068  0.1911 -0.2096  1.1066
 6286TIP3    H240350   6.379   2.086   3.044  0.5827 -0.0825  0.8804
 6287TIP3   OH240351   0.818   6.341  15.436 -0.0065  0.5586  0.6972
 6287TIP3    H140352   0.883   6.407  15.460 -1.0257  1.1498  1.9532
 6287TIP3    H240353   0.758   6.340  15.511 -1.3307 -0.0988 -0.3636
 6288TIP3   OH240354   1.909   1.877   2.540  0.4277  0.6015  0.1597
 6288TIP3    H140355   1.839   1.834   2.491  0.2445  0.4802  0.5258
 6288TIP3    H240356   1.885   1.970   2.539  0.2406  0.5563  0.3119
 6289TIP3   OH240357   6.683   5.211   3.002 -0.4179  0.5476 -0.4426
 6289TIP3    H140358   6.702   5.223   3.095 -2.4624 -0.8820  0.1883
 6289TIP3    H240359   6.696   5.117   2.986  2.1590  1.1248 -2.1740
 6290TIP3   OH240360   4.129   0.681   2.932 -0.3085 -0.5658 -0.0068
 6290TIP3    H140361   4.120   0.632   3.014 -1.1664 -1.8223 -0.8433
 6290TIP3    H240362   4.115   0.616   2.863 -2.1507  0.9919 -1.1333
 6291TIP3   OH240363   2.217   4.006  17.255 -0.2465  0.1848 -0.0706
 6291TIP3    H140364   2.240   3.915  17.272 -1.2992 -0.0498  0.0827
 6291TIP3    H240365   2.288   4.056  17.296 -0.6782 -0.4966  1.5366
 6292TIP3   OH240366   3.109   3.305   0.569 -0.2416 -0.0945 -0.0111
 6292TIP3    H140367   3.031   3.361   0.558  0.4386  1.0876  1.0762
 6292TIP3    H240368   3.078   3.231   0.621 -0.7772  0.0664 -0.0921
 6293TIP3   OH240369   6.027   6.735   2.201 -0.0060 -0.5236 -0.2767
 6293TIP3    H140370   6.111   6.770   2.230  0.4029 -2.5866  1.1006
 6293TIP3    H240371   5.975   6.813   2.180  1.7620  0.8127  0.1684
 6294TIP3   OH240372   1.581   1.331   5.171 -0.6380 -0.2510 -0.1622
 6294TIP3    H140373   1.490   1.319   5.199 -0.6815 -1.2009 -0.6979
 6294TIP3    H240374   1.591   1.273   5.095 -0.0450  1.0461 -1.1069
 6295TIP3   OH240375   6.239   3.034   4.094 -0.5198 -0.3356  0.2355
 6295TIP3    H140376   6.266   3.032   4.003  0.1995  0.2829  0.4361
 6295TIP3    H240377   6.156   2.986   4.095 -1.3284  1.0236 -0.9987
 6296TIP3   OH240378   3.921   1.420   2.293  0.0892  0.2091 -0.5909
 6296TIP3    H140379   3.937   1.325   2.298  0.5516  0.2436 -1.3566
 6296TIP3    H240380   3.833   1.431   2.328 -0.3087 -0.6075 -1.3024
 6297TIP3   OH240381   5.138   4.428   0.604  0.0493  0.5269 -0.6783
 6297TIP3    H140382   5.136   4.368   0.678 -0.6935  0.5766 -0.6546
 6297TIP3    H240383   5.135   4.515   0.643  0.6370  0.5749 -0.7321
 6298TIP3   OH240384   4.451   1.038  17.137 -0.5692 -0.1023  0.6042
 6298TIP3    H140385   4.372   1.092  17.130  0.7422  1.8673  0.3890
 6298TIP3    H240386   4.460   0.998  17.050  0.0754  1.7809 -0.2474
 6299TIP3   OH240387   3.908   2.602   5.492 -0.3274 -0.1291  0.5714
 6299TIP3    H140388   3.931   2.622   5.583  0.5176 -1.0341  0.5676
 6299TIP3    H240389   3.814   2.615   5.488 -0.4294 -0.4671  1.6811
 6300TIP3   OH240390   1.890   3.202  14.098 -0.4494 -0.6625  0.4030
 6300TIP3    H140391   1.797   3.188  14.079 -0.8015  2.2512 -0.2147
 6300TIP3    H240392   1.890   3.263  14.172  0.9715  0.1800 -0.2952
 6301TIP3   OH240393   2.710   5.462  10.903 -0.3510 -0.0421  0.7416
 6301TIP3    H140394   2.761   5.543  10.903 -0.1476 -0.0891 -3.0770
 6301TIP3    H240395   2.624   5.488  10.936  0.0093  1.5119  0.4950
 6302TIP3   OH240396   1.458   4.415   5.055  0.2072 -0.7548  0.8974
 6302TIP3    H140397   1.440   4.369   5.137 -2.2419  0.0879  0.8829
 6302TIP3    H240398   1.408   4.366   4.990 -0.4836  0.4874  0.4828
 6303TIP3   OH240399   2.386   0.754  15.511 -0.2178  0.5218  0.2815
 6303TIP3    H140400   2.360   0.695  15.582  0.5031 -1.1510 -0.7977
 6303TIP3    H240401   2.435   0.698  15.451 -1.9149  1.5987 -2.1845
 6304TIP3   OH240402   5.665   1.640  14.707  0.4479  0.0323  0.0459
 6304TIP3    H140403   5.749   1.650  14.752 -0.5029  1.1885  1.5877
 6304TIP3    H240404   5.599   1.646  14.776 -0.8632 -2.5578 -0.9280
 6305TIP3   OH240405   4.827   2.310   0.610 -0.2107 -0.2284 -0.1279
 6305TIP3    H140406   4.911   2.278   0.641  0.0582  3.4025  3.4264
 6305TIP3    H240407   4.849   2.382   0.551 -0.7272  0.8365  0.9362
 6306TIP3   OH240408   2.503   5.795   2.722 -0.0722 -0.4467  0.3420
 6306TIP3    H140409   2.468   5.711   2.694 -2.4159  0.5046  0.2829
 6306TIP3    H240410   2.470   5.806   2.812 -0.2455  0.6223  0.1560
 6307TIP3   OH240411   2.297   2.325  15.717  0.9230  0.0525  0.6186
 6307TIP3    H140412   2.339   2.324  15.803  2.4670  1.6641 -0.1031
 6307TIP3    H240413   2.368   2.314  15.655  0.0780  1.0771 -0.5510
 6308TIP3   OH240414   6.527   1.113   2.591 -0.3200  0.5961  0.2642
 6308TIP3    H140415   6.473   1.151   2.522 -1.0603  1.3578  1.2405
 6308TIP3    H240416   6.477   1.128   2.671  0.0018 -1.2933  0.8310
 6309TIP3   OH240417   0.680   2.401   4.598  0.4868  0.8207 -0.5015
 6309TIP3    H140418   0.717   2.325   4.552 -0.1549 -0.0389  0.3942
 6309TIP3    H240419   0.625   2.443   4.532 -0.7503 -0.6367 -0.4300
 6310TIP3   OH240420   1.390   3.709  14.771 -0.4460  0.1860 -0.3996
 6310TIP3    H140421   1.485   3.707  14.785 -0.3007  1.2237 -1.1633
 6310TIP3    H240422   1.354   3.729  14.857  0.0466  0.0666 -0.1597
 6311TIP3   OH240423   4.460   4.085  11.161 -0.2640  0.4433  0.8136
 6311TIP3    H140424   4.503   4.000  11.162  0.6360  0.8249 -1.4503
 6311TIP3    H240425   4.477   4.123  11.247 -0.6572 -1.6395  1.8209
 6312TIP3   OH240426   1.458   3.117  13.568  0.3825 -0.0732 -0.1269
 6312TIP3    H140427   1.457   3.021  13.567 -2.7171 -0.0723 -0.2736
 6312TIP3    H240428   1.545   3.139  13.603  0.2848 -2.9635  2.1484
 6313TIP3   OH240429   4.177   2.564  14.698 -0.1344 -0.3852 -0.3885
 6313TIP3    H140430   4.101   2.620  14.710  1.2109  1.1174  1.4358
 6313TIP3    H240431   4.225   2.570  14.780  2.2887 -0.7719 -1.7219
 6314TIP3   OH240432   2.370   2.665   0.653  0.4781  0.0894 -0.0295
 6314TIP3    H140433   2.450   2.661   0.705  1.2427  0.7099 -1.1358
 6314TIP3    H240434   2.398   2.640   0.565 -1.0625 -2.2815  0.1129
 6315TIP3   OH240435   4.833   1.016  13.155 -0.0510  0.2255 -0.7571
 6315TIP3    H140436   4.927   1.022  13.174  0.0273 -0.2803 -0.9785
 6315TIP3    H240437   4.790   1.039  13.238  0.2623  0.6583 -0.7116
 6316TIP3   OH240438   6.592   0.908   4.665 -0.0818  0.0127 -0.0610
 6316TIP3    H140439   6.531   0.948   4.727  0.7559  0.4530  0.5094
 6316TIP3    H240440   6.624   0.981   4.612 -2.0978 -0.6107 -2.2097
 6317TIP3   OH240441   4.920   4.589   5.790 -0.2879 -0.1146  0.2657
 6317TIP3    H140442   4.989   4.587   5.856 -0.2052  1.6333  0.2600
 6317TIP3    H240443   4.849   4.538   5.828  0.1839 -0.0634  1.2205
 6318TIP3   OH240444   0.158   3.472   0.419  0.6620  0.0816 -0.3520
 6318TIP3    H140445   0.097   3.441   0.352 -0.9740 -0.9994  1.5847
 6318TIP3    H240446   0.136   3.421   0.497  3.0563  0.7572  0.7999
 6319TIP3   OH240447   0.857   4.532   3.928 -0.5997  0.3687  0.2564
 6319TIP3    H140448   0.810   4.468   3.874 -0.1300 -0.4442  0.8039
 6319TIP3    H240449   0.934   4.555   3.876  0.2147 -0.9344  0.8688
 6320TIP3   OH240450   5.231   6.159  16.165 -0.4864 -0.2064  0.3768
 6320TIP3    H140451   5.324   6.177  16.152 -0.1539 -1.7352  0.5900
 6320TIP3    H240452   5.219   6.069  16.134 -2.3936  0.7942 -1.9401
 6321TIP3   OH240453   4.469   3.531   3.691  0.0612 -0.1945 -0.3792
 6321TIP3    H140454   4.375   3.547   3.676  0.1306  0.4718 -0.1091
 6321TIP3    H240455   4.511   3.615   3.674  0.5994 -0.4558 -0.3537
 6322TIP3   OH240456   1.816   0.058  13.709  0.3485 -0.0422  0.0948
 6322TIP3    H140457   1.736   0.037  13.660  0.5383  0.4591 -0.4485
 6322TIP3    H240458   1.883   0.066  13.641  0.8259 -0.3348  0.5381
 6323TIP3   OH240459   5.328   2.774   1.901  0.0602  0.0284  0.2022
 6323TIP3    H140460   5.324   2.733   1.987  0.3131 -0.5788 -0.0682
 6323TIP3    H240461   5.396   2.840   1.908 -1.8770  1.9581  1.2909
 6324TIP3   OH240462   3.849   1.932   4.056 -0.1062 -0.3041  0.5641
 6324TIP3    H140463   3.846   1.979   3.973 -1.5118 -1.9726 -0.3784
 6324TIP3    H240464   3.867   1.999   4.122  1.4433  0.9682 -1.1263
 6325TIP3   OH240465   5.080   4.293  15.405 -0.1898  0.1484 -0.7138
 6325TIP3    H140466   5.086   4.380  15.444 -0.3572 -0.1012 -0.1181
 6325TIP3    H240467   5.146   4.241  15.451  0.0917  0.0237 -1.2482
 6326TIP3   OH240468   1.667   0.699   5.194  0.0125 -0.3905  0.1064
 6326TIP3    H140469   1.691   0.653   5.275 -1.1324 -1.7826 -0.3362
 6326TIP3    H240470   1.605   0.766   5.222 -0.8137 -1.2306  0.3310
 6327TIP3   OH240471   1.984   1.188   3.537  0.4147 -0.1862  0.0653
 6327TIP3    H140472   2.037   1.145   3.605 -1.8785  0.8069  2.5767
 6327TIP3    H240473   2.033   1.266   3.514  1.1526 -0.4457  0.7251
 6328TIP3   OH240474   4.585   0.458   2.972 -0.0576 -0.1152 -0.7244
 6328TIP3    H140475   4.495   0.491   2.964 -0.4452 -0.5640  1.3909
 6328TIP3    H240476   4.639   0.531   2.942 -0.9687  2.0055  2.5040
 6329TIP3   OH240477   4.888   6.619  12.072  0.5941  0.0685  0.1260
 6329TIP3    H140478   4.845   6.646  12.153 -1.2334  0.0428 -0.8108
 6329TIP3    H240479   4.819   6.573  12.023  1.6791  0.0934 -1.4359
 6330TIP3   OH240480   1.481   0.899  16.988 -0.3556 -0.5731 -0.3779
 6330TIP3    H140481   1.442   0.827  17.037 -1.6815  0.0534 -0.4941
 6330TIP3    H240482   1.428   0.907  16.909  0.7305 -0.4742 -1.1119
 6331TIP3   OH240483   5.433   1.366   2.181  0.4724  0.6808  0.1094
 6331TIP3    H140484   5.376   1.394   2.110  1.1944 -2.1776 -1.6745
 6331TIP3    H240485   5.373   1.346   2.253 -0.3752  2.2366 -0.1428
 6332TIP3   OH240486   6.107   3.351  14.661 -0.6791  0.4299  0.2532
 6332TIP3    H140487   6.052   3.324  14.734  1.5428 -0.0669  1.7898
 6332TIP3    H240488   6.128   3.270  14.615  0.6488  0.3330  1.0253
 6333TIP3   OH240489   4.480   6.107   2.715 -0.4647  0.1243 -0.1724
 6333TIP3    H140490   4.385   6.100   2.712 -0.5401  0.9996 -0.0206
 6333TIP3    H240491   4.511   6.017   2.706 -1.2976 -0.1396 -0.4681
 6334TIP3   OH240492   1.583   2.124  12.232 -0.5491  0.6184 -0.0303
 6334TIP3    H140493   1.587   2.075  12.314 -0.2140 -0.0260 -0.4194
 6334TIP3    H240494   1.543   2.208  12.255  0.2464  0.7447  0.9347
 6335TIP3   OH240495   4.564   2.306  16.734  0.4833 -0.1038  0.2278
 6335TIP3    H140496   4.484   2.339  16.776  0.5260  0.0415  0.1960
 6335TIP3    H240497   4.553   2.327  16.642  0.7558  0.3100  0.2874
 6336TIP3   OH240498   0.905   5.953  14.847  0.4431 -0.3383  0.3719
 6336TIP3    H140499   0.826   6.004  14.860 -0.4819 -1.1956 -1.5767
 6336TIP3    H240500   0.967   6.014  14.808  0.3328  0.0435  0.7973
 6337TIP3   OH240501   5.264   5.423  14.494 -0.0143  0.1014 -0.2098
 6337TIP3    H140502   5.266   5.509  14.451 -1.2868  0.0107 -0.4945
 6337TIP3    H240503   5.255   5.444  14.587 -0.6536  0.2890 -0.3067
 6338TIP3   OH240504   4.232   0.768  15.988  0.4149  0.4826  0.1314
 6338TIP3    H140505   4.287   0.735  16.059 -1.2331 -0.5294  0.9708
 6338TIP3    H240506   4.294   0.802  15.923  2.2587 -3.8392 -0.5741
 6339TIP3   OH240507   4.451   3.224   0.133  0.0048  0.3215 -0.2437
 6339TIP3    H140508   4.366   3.183   0.117  0.4558 -0.6241 -0.2300
 6339TIP3    H240509   4.511   3.151   0.146  0.8875  0.9758 -0.5819
 6340TIP3   OH240510   3.268   4.560   1.249  0.7638 -0.4623 -0.2536
 6340TIP3    H140511   3.291   4.643   1.291  1.1062 -0.1871 -0.9683
 6340TIP3    H240512   3.192   4.582   1.194  0.1567 -0.8753  0.4170
 6341TIP3   OH240513   1.105   3.347   4.845  0.5755  0.0295 -0.4688
 6341TIP3    H140514   1.191   3.341   4.886  0.8042 -0.4480 -1.0097
 6341TIP3    H240515   1.047   3.379   4.914  1.3262  1.0096 -0.2884
 6342TIP3   OH240516   2.521   4.546  14.648  0.0169  0.4274 -0.4649
 6342TIP3    H140517   2.496   4.633  14.678  2.3212  0.6535  0.8385
 6342TIP3    H240518   2.566   4.506  14.722  0.6567 -1.1758 -1.6787
 6343TIP3   OH240519   4.424   0.952   4.797 -0.3942  0.5100  0.7688
 6343TIP3    H140520   4.418   1.034   4.847  0.4177  0.6149  0.6992
 6343TIP3    H240521   4.424   0.980   4.705 -0.5398  0.4002  0.7345
 6344TIP3   OH240522   0.010   2.654  12.339 -0.1456  0.3315  0.5798
 6344TIP3    H140523   0.060   2.724  12.297  1.9046 -0.8301  1.0190
 6344TIP3    H240524   0.075   2.606  12.391 -1.4012 -2.2056 -0.1120
 6345TIP3   OH240525   1.920   6.591   0.175 -0.2686 -0.3917  0.1701
 6345TIP3    H140526   1.908   6.573   0.081 -1.3772  1.3604 -0.0508
 6345TIP3    H240527   2.015   6.595   0.186 -0.1167 -1.3079 -0.7458
 6346TIP3   OH240528   0.620   4.529  13.489 -0.3629 -0.1061  0.1743
 6346TIP3    H140529   0.589   4.546  13.400 -0.5297 -1.1969  0.0263
 6346TIP3    H240530   0.695   4.588  13.500 -1.6183  1.5732  0.0585
 6347TIP3   OH240531   5.067   5.739  13.124  0.1621 -0.4744  0.1623
 6347TIP3    H140532   5.029   5.699  13.045  3.0358 -1.0610 -1.0084
 6347TIP3    H240533   4.993   5.755  13.181 -1.6178 -3.2627 -1.2565
 6348TIP3   OH240534   4.334   4.379  14.649  0.1974  0.0809  0.1054
 6348TIP3    H140535   4.347   4.449  14.585  2.4088  0.1623  0.6033
 6348TIP3    H240536   4.422   4.354  14.676 -0.5870 -2.1022  0.8103
 6349TIP3   OH240537   1.825   5.912  13.467 -0.2719 -0.2362 -0.3493
 6349TIP3    H140538   1.891   5.871  13.522 -0.3845 -0.2751 -0.2440
 6349TIP3    H240539   1.818   6.001  13.500  0.8043  0.2261 -1.3086
 6350TIP3   OH240540   1.748   6.402   6.073 -0.0141 -0.3781  0.4064
 6350TIP3    H140541   1.676   6.339   6.069  0.0744 -0.3946 -1.0207
 6350TIP3    H240542   1.808   6.366   6.139  0.7296 -2.5437 -1.4041
 6351TIP3   OH240543   4.045   5.527   0.362  0.3224  0.7983 -0.2615
 6351TIP3    H140544   3.953   5.526   0.336 -0.6705  1.7221  2.9095
 6351TIP3    H240545   4.072   5.435   0.357 -1.0269  0.3977 -0.4081
 6352TIP3   OH240546   3.176   1.729   6.519 -0.8820 -0.1310 -0.3679
 6352TIP3    H140547   3.165   1.823   6.530 -1.8164 -0.2367 -0.3417
 6352TIP3    H240548   3.094   1.692   6.552 -0.8858 -0.8980 -1.2417
 6353TIP3   OH240549   5.283   3.861   3.470  0.4163 -0.3002  0.1540
 6353TIP3    H140550   5.300   3.851   3.377  1.4240  0.5785  0.2291
 6353TIP3    H240551   5.215   3.797   3.489 -0.3081  0.0065 -1.3261
 6354TIP3   OH240552   3.131   5.067   4.264 -0.0929  0.3508 -0.0291
 6354TIP3    H140553   3.221   5.052   4.292 -0.1215  0.0342 -0.1040
 6354TIP3    H240554   3.121   5.012   4.186 -0.0154  1.2019 -0.6445
 6355TIP3   OH240555   0.107   1.785  14.206 -0.1468  0.4617 -0.1566
 6355TIP3    H140556   0.184   1.729  14.197  0.7978  1.5711  0.8556
 6355TIP3    H240557   0.132   1.868  14.166 -1.5895  0.1441 -1.7839
 6356TIP3   OH240558   2.715   2.683   1.647  0.1281  0.2474 -0.6189
 6356TIP3    H140559   2.778   2.704   1.578  2.1296 -1.1430  0.7439
 6356TIP3    H240560   2.694   2.591   1.634  1.7613 -0.4587  1.5839
 6357TIP3   OH240561   5.075   6.559   2.794 -0.9275 -0.1622  0.0874
 6357TIP3    H140562   5.108   6.512   2.871 -1.4746 -1.1792 -0.3034
 6357TIP3    H240563   5.081   6.651   2.819  0.4223 -0.4138  0.7464
 6358TIP3   OH240564   5.261   2.154   3.950 -0.1540  0.2466 -0.2212
 6358TIP3    H140565   5.207   2.132   4.026 -0.4001  0.0917 -0.4402
 6358TIP3    H240566   5.343   2.187   3.988  0.5328 -1.7985  0.1071
 6359TIP3   OH240567   4.646   4.998   4.870  0.5263  0.3273 -0.0085
 6359TIP3    H140568   4.697   5.077   4.851 -0.9019  1.0002 -1.1052
 6359TIP3    H240569   4.650   4.948   4.788 -1.3091  0.8002 -0.3984
 6360TIP3   OH240570   0.594   3.304   2.269 -0.1158  0.6897  0.0709
 6360TIP3    H140571   0.684   3.278   2.287 -0.2876  0.3495  0.4590
 6360TIP3    H240572   0.592   3.398   2.289  0.6877  1.1769 -2.0475
 6361TIP3   OH240573   1.103   5.142   1.587 -0.2759  0.0053  0.6513
 6361TIP3    H140574   1.011   5.166   1.574 -0.2043  0.4038  0.8661
 6361TIP3    H240575   1.102   5.088   1.666 -0.8204 -3.1098 -1.4132
 6362TIP3   OH240576   4.192   1.442  14.970 -0.2821  0.1548 -0.3779
 6362TIP3    H140577   4.225   1.432  14.881  1.9483  2.1481  0.1808
 6362TIP3    H240578   4.133   1.518  14.965  1.2551  1.4192  0.1648
 6363TIP3   OH240579   3.604   4.608  12.914 -0.3380 -0.4883  0.4993
 6363TIP3    H140580   3.685   4.596  12.864 -0.2222  1.7920  0.0487
 6363TIP3    H240581   3.609   4.699  12.945 -2.5684 -0.4208  0.7376
 6364TIP3   OH240582   2.536   0.284  15.196 -0.3225  0.3580  0.0134
 6364TIP3    H140583   2.563   0.320  15.112 -0.2877 -2.5470 -1.2665
 6364TIP3    H240584   2.585   0.336  15.261 -0.4245  2.6695 -1.7166
 6365TIP3   OH240585   5.133   4.847  13.774 -0.3862  0.0794 -0.1443
 6365TIP3    H140586   5.207   4.819  13.719  0.4043  1.5328  0.1471
 6365TIP3    H240587   5.144   4.797  13.855 -1.3028 -1.7414 -1.1212
 6366TIP3   OH240588   1.047   4.075   3.998  0.0256 -0.0982 -0.2738
 6366TIP3    H140589   1.096   4.057   4.078 -0.7745 -0.3586  0.1709
 6366TIP3    H240590   1.093   4.026   3.930  0.8620  0.3373 -0.0173
 6367TIP3   OH240591   1.515   5.896  13.591 -0.1308 -0.4497  0.4062
 6367TIP3    H140592   1.474   5.913  13.676 -0.1301  1.6315 -0.0035
 6367TIP3    H240593   1.588   5.957  13.587 -0.0138 -0.6737 -1.0239
 6368TIP3   OH240594   1.807   1.457   5.436 -0.3164 -0.3113 -0.7090
 6368TIP3    H140595   1.838   1.445   5.526  3.1945 -1.3335 -1.9624
 6368TIP3    H240596   1.783   1.369   5.407  1.3453 -0.4527 -1.7013
 6369TIP3   OH240597   1.333   3.148   1.897 -0.5888  0.1609 -0.1871
 6369TIP3    H140598   1.372   3.100   1.970 -0.6578 -0.8763 -0.8117
 6369TIP3    H240599   1.352   3.240   1.915  0.4418 -0.1811  0.5180
 6370TIP3   OH240600   5.902   6.634   2.416 -0.4187  0.3894 -0.3773
 6370TIP3    H140601   5.966   6.662   2.481 -1.0748  0.0723  0.4235
 6370TIP3    H240602   5.937   6.665   2.332 -0.7877  3.0041  0.3783
 6371TIP3   OH240603   4.371   0.955   1.339 -0.0857 -0.5870 -0.4478
 6371TIP3    H140604   4.433   0.916   1.401 -0.6083 -2.5313 -1.0998
 6371TIP3    H240605   4.298   0.986   1.394  1.4818  1.8710  0.3409
 6372TIP3   OH240606   1.711   0.434  14.825  0.7044  0.0099 -0.0795
 6372TIP3    H140607   1.795   0.388  14.831  1.3269  1.3743  2.1207
 6372TIP3    H240608   1.734   0.523  14.797 -0.2975 -0.3286 -2.1326
 6373TIP3   OH240609   1.162   2.112   4.116  0.5545 -0.3541  0.6445
 6373TIP3    H140610   1.213   2.194   4.115 -0.9328  0.5846 -0.4925
 6373TIP3    H240611   1.179   2.073   4.030 -1.7306  0.6869 -0.3191
 6374TIP3   OH240612   6.082   0.030  11.017 -0.1592  0.2340 -0.3771
 6374TIP3    H140613   6.074  -0.065  11.031 -2.4845  0.1147 -2.2168
 6374TIP3    H240614   6.071   0.042  10.923  1.5977  2.2389 -0.3719
 6375TIP3   OH240615   0.595   2.486  17.135 -0.2491 -0.2441 -0.2357
 6375TIP3    H140616   0.517   2.542  17.134 -0.2443 -0.2229  0.3988
 6375TIP3    H240617   0.561   2.397  17.145 -0.1641 -0.1750  0.7096
 6376TIP3   OH240618   3.724   3.431  15.859  0.2917  0.3705  0.4220
 6376TIP3    H140619   3.768   3.432  15.774 -0.2608  2.3599  0.1535
 6376TIP3    H240620   3.651   3.370  15.847  0.2032  0.6593 -0.5366
 6377TIP3   OH240621   3.874   3.477  13.840  0.2742 -0.2606  0.2535
 6377TIP3    H140622   3.920   3.490  13.757  1.8181 -1.8851  0.8126
 6377TIP3    H240623   3.791   3.522  13.828  1.8681  2.4861 -0.9075
 6378TIP3   OH240624   4.784   4.058  16.842 -0.1677  0.2838  0.1800
 6378TIP3    H140625   4.796   3.967  16.867 -0.1062  0.5421  1.0984
 6378TIP3    H240626   4.872   4.095  16.840 -0.1126  0.0886 -1.1058
 6379TIP3   OH240627   0.267   3.388  13.481  0.0163  0.1228 -0.3566
 6379TIP3    H140628   0.303   3.406  13.394  1.1936  1.6015  0.4044
 6379TIP3    H240629   0.228   3.472  13.508 -2.4009 -0.9526 -0.3986
 6380TIP3   OH240630   4.531   3.380   0.378 -0.3170  1.0273  0.2265
 6380TIP3    H140631   4.525   3.377   0.282 -0.0052  1.6104  0.1856
 6380TIP3    H240632   4.593   3.311   0.400  0.6322  1.7647 -0.0954
 6381TIP3   OH240633   1.131   2.526   4.081 -0.7008  0.0272 -0.3157
 6381TIP3    H140634   1.131   2.568   3.995 -1.6701  1.2300  0.2747
 6381TIP3    H240635   1.089   2.441   4.066 -2.8834  1.1343 -0.6060
 6382TIP3   OH240636   4.972   0.365  11.072 -0.2115 -0.3242  0.3361
 6382TIP3    H140637   5.063   0.375  11.043 -0.0745 -1.5047  0.3325
 6382TIP3    H240638   4.925   0.341  10.992 -0.5912  0.6789  0.2626
 6383TIP3   OH240639   3.905   5.255  14.475  0.7570  0.0931  0.0777
 6383TIP3    H140640   3.949   5.300  14.402  2.1385 -0.3007  0.6591
 6383TIP3    H240641   3.875   5.173  14.438  0.1337  0.5470 -0.4320
 6384TIP3   OH240642   0.013   3.673  14.199 -0.2814 -0.1257  0.3428
 6384TIP3    H140643   0.097   3.714  14.222 -0.0613 -1.0573  1.1965
 6384TIP3    H240644  -0.030   3.738  14.144  1.1478  0.2201 -0.3856
 6385TIP3   OH240645   5.464   3.699   0.798  0.1563  0.3464  0.1210
 6385TIP3    H140646   5.463   3.792   0.821 -0.5885  0.9338 -2.1356
 6385TIP3    H240647   5.374   3.669   0.811  0.1928  0.1754 -0.0057
 6386TIP3   OH240648   5.647   3.572   5.852 -0.6584 -0.3619 -0.2922
 6386TIP3    H140649   5.660   3.647   5.795 -0.2952  0.5130  0.9238
 6386TIP3    H240650   5.733   3.530   5.858 -0.3104  0.4910  0.9009
 6387TIP3   OH240651   1.462   4.149   1.100 -0.3443 -0.1653 -0.0145
 6387TIP3    H140652   1.557   4.160   1.091 -0.3904 -0.1873 -0.5630
 6387TIP3    H240653   1.433   4.118   1.014 -0.6609 -1.5155  0.5583
 6388TIP3   OH240654   2.336   1.804   6.137  0.3515  0.0650 -0.6558
 6388TIP3    H140655   2.253   1.851   6.153  0.7309  0.5506 -0.0506
 6388TIP3    H240656   2.367   1.782   6.225 -0.2557 -2.1194 -0.9746
 6389TIP3   OH240657   3.003   5.590  11.103  0.7225  0.9134  0.2080
 6389TIP3    H140658   3.091   5.574  11.070  0.8136  1.7476  0.0250
 6389TIP3    H240659   2.956   5.627  11.028  0.1316  0.2088  0.2214
 6390TIP3   OH240660   5.730   5.508   1.315 -0.0815  0.2428  0.2187
 6390TIP3    H140661   5.716   5.556   1.396  1.3401  0.3701  0.4130
 6390TIP3    H240662   5.749   5.576   1.250 -0.3560  0.0860 -0.0282
 6391TIP3   OH240663   1.277   4.938  15.618  0.3337 -0.1818  0.0452
 6391TIP3    H140664   1.334   4.864  15.639  1.5363  0.6162 -0.3420
 6391TIP3    H240665   1.279   4.993  15.697 -0.0758 -0.2598  0.1112
 6392TIP3   OH240666   6.496   0.218   0.603 -0.2718 -0.1272  0.0781
 6392TIP3    H140667   6.456   0.147   0.554  1.2250 -0.4024 -0.7593
 6392TIP3    H240668   6.436   0.292   0.590 -0.2649 -0.3934 -1.5677
 6393TIP3   OH240669   5.100   3.315   0.925  1.2032  0.1305  0.7023
 6393TIP3    H140670   5.007   3.334   0.913  1.3273  0.1701 -0.2012
 6393TIP3    H240671   5.137   3.316   0.837  2.0688  0.1425  1.0557
 6394TIP3   OH240672   0.419   5.773   3.170 -0.0587 -0.2366 -0.5892
 6394TIP3    H140673   0.491   5.731   3.218 -0.8086 -0.0769  0.6839
 6394TIP3    H240674   0.455   5.788   3.083  0.8923 -1.7125 -0.4806
 6395TIP3   OH240675   1.615   6.225  16.447 -0.1087  0.1900 -0.4707
 6395TIP3    H140676   1.611   6.139  16.404  0.6234 -0.1055  0.0512
 6395TIP3    H240677   1.689   6.218  16.507 -0.7741  0.7938  0.4269
 6396TIP3   OH240678   3.876   6.251  11.144 -0.2706 -0.0308 -0.8313
 6396TIP3    H140679   3.847   6.342  11.148 -2.0325 -0.6613  1.7133
 6396TIP3    H240680   3.940   6.244  11.215 -0.9496 -1.0368 -0.3131
 6397TIP3   OH240681   3.841   5.310   0.343  0.0891  0.5765  0.1271
 6397TIP3    H140682   3.822   5.272   0.429 -2.1089 -2.2079 -1.4831
 6397TIP3    H240683   3.791   5.391   0.340 -0.5892  0.1945  1.0952
 6398TIP3   OH240684   6.462   2.442  16.328 -0.3321  0.1702  0.1250
 6398TIP3    H140685   6.398   2.502  16.368 -0.8421  0.3346 -0.9026
 6398TIP3    H240686   6.431   2.355  16.352  1.2070  0.3057  2.8317
 6399TIP3   OH240687   4.289   0.222   0.450 -0.4898 -0.3463 -0.3818
 6399TIP3    H140688   4.348   0.286   0.490  0.3574 -1.3344 -0.0157
 6399TIP3    H240689   4.204   0.240   0.490  0.5371 -1.9658  2.7203
 6400TIP3   OH240690   4.437   2.662  17.131 -0.2248 -0.1034 -0.0154
 6400TIP3    H140691   4.491   2.703  17.063  0.5239  0.6395  1.0091
 6400TIP3    H240692   4.416   2.734  17.191 -0.2857 -0.9062  0.9255
 6401TIP3   OH240693   3.200   3.203   5.067  0.0950  0.7848  0.4928
 6401TIP3    H140694   3.190   3.291   5.104 -0.3233  0.9419  0.0035
 6401TIP3    H240695   3.131   3.152   5.109 -1.1696  1.2594 -0.9843
 6402TIP3   OH240696   1.982   2.500  12.691 -0.3941 -0.0809  0.1554
 6402TIP3    H140697   1.992   2.410  12.721  4.6400  0.5038  0.5960
 6402TIP3    H240698   1.930   2.493  12.611 -0.3905 -3.3119  0.3667
 6403TIP3   OH240699   1.831   4.980   3.675 -0.1098  0.0568 -0.6996
 6403TIP3    H140700   1.884   4.916   3.722 -0.9276 -1.1334 -1.3772
 6403TIP3    H240701   1.868   4.984   3.587 -0.1327  0.4250 -0.6946
 6404TIP3   OH240702   5.514   5.153  16.132 -0.0312  0.5616 -0.0082
 6404TIP3    H140703   5.582   5.104  16.085  0.7887  1.5588  0.1160
 6404TIP3    H240704   5.501   5.232  16.079 -3.0987 -0.8935 -1.5451
 6405TIP3   OH240705   6.180   1.531   4.839 -0.2276 -0.3340  0.2780
 6405TIP3    H140706   6.175   1.500   4.929  0.4002  1.0056  0.7972
 6405TIP3    H240707   6.113   1.600   4.834  1.1401  1.0336  0.3389
 6406TIP3   OH240708   1.026   2.624  16.631  0.2351  0.2225  0.1676
 6406TIP3    H140709   0.965   2.670  16.574 -0.9069 -0.7762  0.5549
 6406TIP3    H240710   1.113   2.651  16.601 -0.3131 -0.9082 -2.5921
 6407TIP3   OH240711   2.661   0.859  14.617  0.6476 -0.3657 -0.5424
 6407TIP3    H140712   2.685   0.950  14.635  1.5170 -0.9860  1.7022
 6407TIP3    H240713   2.577   0.847  14.661  0.1733 -0.4323 -1.4728
 6408TIP3   OH240714   1.841   3.815  10.791  0.0221  0.0747  0.2525
 6408TIP3    H140715   1.791   3.893  10.771  1.8204  1.2070  0.0333
 6408TIP3    H240716   1.841   3.809  10.887  0.7443  0.9258  0.3058
 6409TIP3   OH240717   0.899   1.643   0.066  0.5998  0.1194 -0.4053
 6409TIP3    H140718   0.960   1.569   0.065 -1.1761 -1.4218  0.5219
 6409TIP3    H240719   0.845   1.627   0.144 -0.8466  1.5330 -1.0974
 6410TIP3   OH240720   0.415   6.702  15.980  0.2775  0.3473  0.2821
 6410TIP3    H140721   0.375   6.684  15.895 -0.8489 -0.4490  0.9681
 6410TIP3    H240722   0.501   6.659  15.975  1.1508  2.1892 -1.2470
 6411TIP3   OH240723   3.904   6.270   3.130 -0.0465 -0.6719 -0.3546
 6411TIP3    H140724   3.973   6.230   3.183  2.5343  0.6207 -2.6303
 6411TIP3    H240725   3.916   6.364   3.141 -0.6014 -0.4215 -1.8362
 6412TIP3   OH240726   4.659   5.031  10.387 -0.5473 -0.6553 -0.0898
 6412TIP3    H140727   4.613   4.947  10.380  0.3115 -1.1606  0.1761
 6412TIP3    H240728   4.590   5.096  10.396 -1.2258 -1.3378 -0.2866
 6413TIP3   OH240729   1.963   3.577   5.682 -0.3191  0.4665 -0.7698
 6413TIP3    H140730   1.909   3.654   5.662 -0.6401  0.3495 -0.3679
 6413TIP3    H240731   2.003   3.597   5.767 -2.0398 -0.6677  0.3504
 6414TIP3   OH240732   6.340   5.718  11.803 -0.1418 -0.4684  0.4358
 6414TIP3    H140733   6.295   5.770  11.737 -2.7774 -3.4523 -0.2612
 6414TIP3    H240734   6.430   5.712  11.772 -0.1846  2.1883 -0.3034
 6415TIP3   OH240735   4.897   2.634  16.461 -0.3181  0.2966  0.0737
 6415TIP3    H140736   4.906   2.694  16.535  0.5331 -0.3023  0.4749
 6415TIP3    H240737   4.833   2.675  16.403  0.9826  2.0534 -0.1406
 6416TIP3   OH240738   1.652   3.750  16.007 -0.4520 -0.4817  0.4187
 6416TIP3    H140739   1.711   3.678  16.031  1.1684  1.0209  0.9876
 6416TIP3    H240740   1.596   3.712  15.939  0.2047 -2.3618  0.8881
 6417TIP3   OH240741   2.497   1.254  11.597  0.2617  0.4365  0.2321
 6417TIP3    H140742   2.463   1.234  11.684  1.1515 -0.6178  0.3505
 6417TIP3    H240743   2.459   1.187  11.540  1.4312 -0.2153  0.2087
 6418TIP3   OH240744   6.335   2.230  14.884 -0.3806 -0.1431  0.0169
 6418TIP3    H140745   6.425   2.251  14.860 -0.6612  0.2497 -0.7027
 6418TIP3    H240746   6.319   2.143  14.846 -0.4574 -0.0099 -0.2556
 6419TIP3   OH240747   2.894   2.892   4.893  0.0954  0.3372 -0.0792
 6419TIP3    H140748   2.813   2.885   4.943  0.5040 -1.3858  0.3906
 6419TIP3    H240749   2.875   2.849   4.810 -0.2687  2.2828 -1.0022
 6420TIP3   OH240750   1.828   5.902  11.083 -0.4020  0.6193 -0.1216
 6420TIP3    H140751   1.856   5.811  11.083  0.3773  0.8570  0.0868
 6420TIP3    H240752   1.737   5.899  11.052  0.2023 -0.0437 -1.9066
 6421TIP3   OH240753   5.584   1.588   6.569  0.0494 -0.1061 -0.4493
 6421TIP3    H140754   5.548   1.589   6.481 -1.5070 -1.7136  0.1496
 6421TIP3    H240755   5.561   1.503   6.605  2.1380 -0.1474  0.9347
 6422TIP3   OH240756   6.466   1.527   5.664 -0.4605  0.4370  0.1067
 6422TIP3    H140757   6.388   1.560   5.617  0.2483 -0.2101 -1.5618
 6422TIP3    H240758   6.432   1.495   5.747 -2.1982 -0.9621 -1.0930
 6423TIP3   OH240759   0.677   4.748  11.693  0.2130  0.3149  0.6588
 6423TIP3    H140760   0.741   4.680  11.711  0.0053  0.1937  0.9398
 6423TIP3    H240761   0.601   4.724  11.746  0.2132  0.8747  0.9173
 6424TIP3   OH240762   6.438   4.605  11.028 -0.0663 -0.2358 -1.2951
 6424TIP3    H140763   6.522   4.617  10.984  0.5670 -0.4831 -0.1633
 6424TIP3    H240764   6.403   4.524  10.990  1.2285 -1.3336 -0.1953
 6425TIP3   OH240765   2.072   0.183   5.937 -0.5514 -0.4505  0.5417
 6425TIP3    H140766   2.029   0.238   5.870  0.2527 -0.9343 -0.3813
 6425TIP3    H240767   2.102   0.245   6.003  1.0602  0.3436 -0.8801
 6426TIP3   OH240768   2.934   0.263  11.166 -0.4343 -0.1360 -0.1189
 6426TIP3    H140769   2.977   0.189  11.210 -1.3100 -1.0433 -0.7664
 6426TIP3    H240770   2.892   0.224  11.089 -2.0437  0.8098  0.2587
 6427TIP3   OH240771   4.087   1.500   4.027  0.1173 -0.3125 -0.0571
 6427TIP3    H140772   4.059   1.591   4.038  0.0335 -0.3179 -0.2254
 6427TIP3    H240773   4.183   1.503   4.032  0.0864 -0.2895  0.4879
 6428TIP3   OH240774   2.248   4.502   2.357 -0.3338  0.0258 -0.5311
 6428TIP3    H140775   2.314   4.455   2.407  0.0701 -1.5908 -2.5346
 6428TIP3    H240776   2.179   4.438   2.340 -0.4972  0.5670 -1.9709
 6429TIP3   OH240777   5.074   5.794  14.733  0.5986  0.3120 -0.4208
 6429TIP3    H140778   5.030   5.782  14.817  1.1727 -3.2350 -0.5312
 6429TIP3    H240779   5.154   5.843  14.754  1.6178 -2.0371  1.4587
 6430TIP3   OH240780   3.765   3.410  16.145 -0.4691 -0.8948 -0.1868
 6430TIP3    H140781   3.822   3.473  16.189 -1.2327 -0.9602  0.9277
 6430TIP3    H240782   3.762   3.440  16.054  2.2800 -1.6015 -0.5491
 6431TIP3   OH240783   6.553   6.678   4.790 -0.0293  0.2399  0.1640
 6431TIP3    H140784   6.520   6.617   4.856  0.6640 -0.0759  0.2206
 6431TIP3    H240785   6.575   6.757   4.841  0.9336 -0.1669  0.3738
 6432TIP3   OH240786   1.050   2.747  10.889  0.2871 -0.9854 -0.9285
 6432TIP3    H140787   1.123   2.774  10.833 -0.1630 -0.1600 -1.1288
 6432TIP3    H240788   1.076   2.661  10.922  1.5124 -0.5537 -0.7163
 6433TIP3   OH240789   2.022   5.767   3.354 -0.1713  0.3049  0.4239
 6433TIP3    H140790   1.953   5.756   3.288  0.1656 -1.3072  0.3090
 6433TIP3    H240791   2.059   5.679   3.364  1.4436  1.0303  0.9530
 6434TIP3   OH240792   5.691   0.399   6.319  0.3992 -0.4777 -0.4494
 6434TIP3    H140793   5.700   0.493   6.337 -0.6396 -0.7422  1.5490
 6434TIP3    H240794   5.740   0.357   6.389  1.0553 -1.4390 -1.4751
 6435TIP3   OH240795   6.811   2.147   5.210  0.5064  1.0593 -0.7713
 6435TIP3    H140796   6.749   2.185   5.148 -3.0940  0.0210  2.0154
 6435TIP3    H240797   6.834   2.219   5.268  0.1389  0.9470 -0.4801
 6436TIP3   OH240798   4.740   6.501   1.935  0.5178  0.8477  0.1362
 6436TIP3    H140799   4.675   6.461   1.877  0.5201 -1.5400  1.7254
 6436TIP3    H240800   4.751   6.589   1.900 -3.5178  1.3195 -0.2572
 6437TIP3   OH240801   3.558   0.101   0.511 -0.4871 -0.0532 -0.2818
 6437TIP3    H140802   3.652   0.085   0.517 -0.6158 -0.8123 -0.2340
 6437TIP3    H240803   3.540   0.164   0.581  0.0747  0.5024 -0.6358
 6438TIP3   OH240804   5.700   1.254  13.456 -0.0568  0.3802 -0.2755
 6438TIP3    H140805   5.632   1.320  13.443  0.3104  0.9093  0.4821
 6438TIP3    H240806   5.699   1.235  13.549 -0.3365 -0.8900 -0.5313
 6439TIP3   OH240807   4.528   6.201  13.803  0.0872  0.6176 -0.0381
 6439TIP3    H140808   4.532   6.118  13.757 -0.8561  0.6582 -0.2121
 6439TIP3    H240809   4.512   6.266  13.734 -1.6558  0.6393  0.3752
 6440TIP3   OH240810   5.721   0.945   3.701 -0.6118 -0.0722 -0.0859
 6440TIP3    H140811   5.788   0.999   3.659 -0.1296 -0.9154 -0.4288
 6440TIP3    H240812   5.711   0.869   3.642 -1.9474  0.0906 -0.1010
 6441TIP3   OH240813   0.458   2.204  14.148  0.2649  0.1647  0.3675
 6441TIP3    H140814   0.423   2.273  14.204  1.3021  1.3945 -0.4679
 6441TIP3    H240815   0.446   2.238  14.059  0.1408 -1.0487 -0.0908
 6442TIP3   OH240816   1.561   2.011   2.369 -0.1627 -0.2748 -0.3613
 6442TIP3    H140817   1.577   1.937   2.310  2.9462 -0.2544  0.3601
 6442TIP3    H240818   1.604   1.986   2.451  0.8935  2.2621 -0.0802
 6443TIP3   OH240819   5.374   2.147  14.136 -0.2115  0.2884  0.3801
 6443TIP3    H140820   5.418   2.096  14.068  0.2889 -0.7266  1.4342
 6443TIP3    H240821   5.287   2.108  14.143  0.1825 -0.4873  1.2095
 6444TIP3   OH240822   3.162   4.783  10.553 -0.2187 -0.2526 -0.3598
 6444TIP3    H140823   3.133   4.838  10.626 -1.6942  0.6194 -1.5781
 6444TIP3    H240824   3.087   4.727  10.534  0.2550 -0.6559 -1.0346
 6445TIP3   OH240825   2.253   1.539  16.821  0.0539  0.4172 -0.3429
 6445TIP3    H140826   2.235   1.462  16.767  0.4173  0.0339  0.0811
 6445TIP3    H240827   2.297   1.505  16.898 -1.9528  0.7784  0.9946
 6446TIP3   OH240828   1.159   0.904   0.967 -0.1379  0.3642  0.2749
 6446TIP3    H140829   1.144   0.904   0.873  0.9804 -2.9539  0.0130
 6446TIP3    H240830   1.239   0.852   0.979  0.2949  1.5421  2.9760
 6447TIP3   OH240831   2.370   1.205   3.489 -0.0506  0.4669  0.5578
 6447TIP3    H140832   2.352   1.111   3.480 -2.8279  0.7556  2.3359
 6447TIP3    H240833   2.392   1.234   3.400 -0.2862 -1.6378 -0.2203
 6448TIP3   OH240834   6.743   3.921  14.364  0.1620  0.3643  1.0434
 6448TIP3    H140835   6.700   3.887  14.442  0.6417  1.1637  1.6724
 6448TIP3    H240836   6.833   3.887  14.370 -0.5204 -1.8161 -0.5826
 6449TIP3   OH240837   0.885   4.581  10.998  0.9233  0.6723 -0.0284
 6449TIP3    H140838   0.966   4.546  10.961  1.2142  1.0250  0.2710
 6449TIP3    H240839   0.888   4.674  10.978  1.6809  1.1001  1.9635
 6450TIP3   OH240840   2.764   4.796   2.320 -0.4702  0.4174  0.4302
 6450TIP3    H140841   2.742   4.718   2.372  1.3326 -1.5146 -1.5540
 6450TIP3    H240842   2.698   4.798   2.251  0.0904  0.0171 -0.1250
 6451TIP3   OH240843   4.324   1.439   4.166 -0.4669 -0.8038  0.1473
 6451TIP3    H140844   4.260   1.411   4.232 -0.4814  0.9937  0.9276
 6451TIP3    H240845   4.408   1.438   4.213 -0.5652  1.0622  0.3641
 6452TIP3   OH240846   6.710   5.539   3.903  0.1618 -0.1216 -0.1055
 6452TIP3    H140847   6.722   5.456   3.855 -1.9229 -0.3892 -0.1854
 6452TIP3    H240848   6.632   5.578   3.865 -0.7094  0.3661  2.1138
 6453TIP3   OH240849   1.502   5.062  14.101  0.3980 -0.2234 -0.4433
 6453TIP3    H140850   1.477   5.151  14.075 -0.5075 -0.0772  0.9507
 6453TIP3    H240851   1.581   5.074  14.154 -1.0222 -0.0679  1.6428
 6454TIP3   OH240852   6.420   5.131   2.934 -0.5422 -0.4513  0.1348
 6454TIP3    H140853   6.397   5.157   2.845 -1.4395  1.1756  0.8236
 6454TIP3    H240854   6.509   5.164   2.946  0.2983 -2.2798 -0.7590
 6455TIP3   OH240855   3.289   3.947  13.494 -0.6915 -0.3941 -0.3640
 6455TIP3    H140856   3.266   3.973  13.583  0.4850 -1.5832  0.3133
 6455TIP3    H240857   3.335   3.863  13.505  0.5601  0.0574 -1.9816
 6456TIP3   OH240858   1.092   0.015  15.425 -0.6475  0.6343  0.1091
 6456TIP3    H140859   1.046   0.024  15.341 -1.1827  0.7299  0.4109
 6456TIP3    H240860   1.185   0.019  15.402 -0.7808 -0.1909 -0.5770
 6457TIP3   OH240861   1.378   6.292   2.620  0.8341  0.1787  0.2626
 6457TIP3    H140862   1.416   6.298   2.532  1.6872 -2.5927  0.3754
 6457TIP3    H240863   1.284   6.279   2.604  0.3106  3.8418 -0.0869
 6458TIP3   OH240864   1.318   5.701   2.009 -0.0788  0.3573 -0.5161
 6458TIP3    H140865   1.411   5.712   1.987  0.0042  0.4457 -0.1363
 6458TIP3    H240866   1.318   5.693   2.105 -0.4528  0.2506 -0.5259
 6459TIP3   OH240867   2.113   1.483  12.649 -0.1233  0.0638  0.5026
 6459TIP3    H140868   2.098   1.572  12.617  0.5092  0.4285  1.1988
 6459TIP3    H240869   2.116   1.492  12.744  2.9467 -0.2000  0.4771
 6460TIP3   OH240870   5.820   0.549   1.651  0.8041 -0.0953 -0.1759
 6460TIP3    H140871   5.772   0.478   1.694  0.1745 -0.1933 -1.0464
 6460TIP3    H240872   5.808   0.624   1.710 -0.6945 -0.0263 -0.5502
 6461TIP3   OH240873   1.827   1.274   2.316  0.0705 -0.5625 -0.3154
 6461TIP3    H140874   1.908   1.270   2.367 -0.6991  1.8949  1.1549
 6461TIP3    H240875   1.829   1.359   2.273 -0.4308 -1.6312 -2.5883
 6462TIP3   OH240876   3.232   6.489  14.767  0.5628  0.2496 -0.2937
 6462TIP3    H140877   3.303   6.530  14.717  0.7924  2.5798  1.8483
 6462TIP3    H240878   3.242   6.524  14.855 -2.0635 -0.9492  0.5289
 6463TIP3   OH240879   4.687   3.402  13.187  0.7756  0.3158  0.3406
 6463TIP3    H140880   4.644   3.451  13.117  0.7881 -1.0915 -0.6962
 6463TIP3    H240881   4.709   3.318  13.147 -0.1181 -0.9118  2.3046
 6464TIP3   OH240882   2.627   2.295   6.117  0.0841  0.2750  0.3197
 6464TIP3    H140883   2.554   2.339   6.161  1.8144  1.1360  2.4578
 6464TIP3    H240884   2.636   2.212   6.163  1.7151  1.0457  1.4301
 6465TIP3   OH240885   4.956   1.862   3.858 -0.0085 -0.4403 -0.6791
 6465TIP3    H140886   4.953   1.948   3.899 -0.3983  1.2736 -4.1772
 6465TIP3    H240887   4.868   1.827   3.867 -0.3265  0.3121 -0.8764
 6466TIP3   OH240888   2.724   1.277  15.358  0.4411  0.3838 -0.1374
 6466TIP3    H140889   2.684   1.360  15.383 -0.2218  0.3841 -1.1479
 6466TIP3    H240890   2.660   1.236  15.300  0.1187 -1.5127  1.5062
 6467TIP3   OH240891   0.678   6.648  14.891  0.2493 -0.5328 -0.4398
 6467TIP3    H140892   0.630   6.604  14.821  0.6344 -2.0453  0.2285
 6467TIP3    H240893   0.769   6.623  14.876  0.2282 -1.5489  1.0907
 6468TIP3   OH240894   6.632   2.969   5.712 -0.3786 -0.0695 -0.0472
 6468TIP3    H140895   6.720   2.987   5.677 -0.3340 -0.6722 -0.2497
 6468TIP3    H240896   6.644   2.965   5.807  0.2371 -2.3973 -0.2000
 6469TIP3   OH240897   3.838   1.533  17.221 -0.3325  0.5701 -0.0318
 6469TIP3    H140898   3.864   1.605  17.279  0.3073  0.4110 -0.1278
 6469TIP3    H240899   3.916   1.514  17.169 -0.3393 -0.5612  0.3628
 6470TIP3   OH240900   5.680   2.506  16.607  0.1622 -0.5004  0.6357
 6470TIP3    H140901   5.628   2.434  16.571  1.9344 -1.6939  0.4245
 6470TIP3    H240902   5.767   2.495  16.570  0.4671  1.8027  0.5549
 6471TIP3   OH240903   1.155   2.523  11.021  0.1537 -0.3908  0.5704
 6471TIP3    H140904   1.151   2.436  11.061 -0.3181 -0.8930 -0.5334
 6471TIP3    H240905   1.215   2.513  10.947 -1.2687 -0.2367 -0.6313
 6472TIP3   OH240906   4.638   5.513  13.689  0.6058  0.4987  0.1812
 6472TIP3    H140907   4.575   5.441  13.695 -0.9318  1.7317 -0.7949
 6472TIP3    H240908   4.596   5.585  13.736 -0.4109  2.4688 -3.4931
 6473TIP3   OH240909   1.229   1.429  12.147 -0.1844  0.1959  0.4142
 6473TIP3    H140910   1.235   1.524  12.162  0.4648  0.2136  0.0518
 6473TIP3    H240911   1.317   1.403  12.120 -0.4438 -0.4574  0.1796
 6474TIP3   OH240912   5.620   0.028  13.687  0.2734  0.4648  0.4027
 6474TIP3    H140913   5.652   0.115  13.715 -1.4795  0.6471  1.9424
 6474TIP3    H240914   5.528   0.042  13.667 -0.2786 -1.2731  1.6691
 6475TIP3   OH240915   5.301   1.356  14.227 -0.0625 -0.4952 -0.0249
 6475TIP3    H140916   5.293   1.329  14.318  1.9450 -1.2061 -0.0206
 6475TIP3    H240917   5.367   1.425  14.228  0.7833 -1.2644 -1.0631
 6476TIP3   OH240918   2.743   0.639  11.473 -0.5977 -0.2225  0.0205
 6476TIP3    H140919   2.807   0.568  11.474 -0.8441 -0.4860 -1.4035
 6476TIP3    H240920   2.661   0.597  11.449 -0.9025  0.4167 -0.0840
 6477TIP3   OH240921   6.321   3.463  12.262 -0.3590  0.0551 -0.5030
 6477TIP3    H140922   6.371   3.522  12.206  0.2312 -0.9735 -1.0896
 6477TIP3    H240923   6.357   3.376  12.244  0.3053 -0.2357  1.9695
 6478TIP3   OH240924   4.902   5.911  13.529  0.7910 -0.4320  0.1982
 6478TIP3    H140925   4.903   5.843  13.462  0.9214 -0.1581 -0.0763
 6478TIP3    H240926   4.935   5.867  13.608  2.8455 -0.1772 -0.4818
 6479TIP3   OH240927   3.603   3.955   4.287  0.2326  0.2097 -0.2447
 6479TIP3    H140928   3.565   3.912   4.210 -0.7032  1.4566 -0.5003
 6479TIP3    H240929   3.535   3.948   4.355  0.3163  0.7138 -0.1027
 6480TIP3   OH240930   6.438   3.089  16.521 -0.4581 -0.3650 -0.1986
 6480TIP3    H140931   6.443   3.102  16.616 -1.2045 -2.8151  0.2261
 6480TIP3    H240932   6.347   3.063  16.505 -0.0819 -0.9509 -1.4469
 6481TIP3   OH240933   6.761   3.663   3.304  0.2522  0.6383 -0.6378
 6481TIP3    H140934   6.735   3.621   3.223 -0.2193  1.9896 -1.2087
 6481TIP3    H240935   6.824   3.730   3.277  0.5140  0.7275  0.1708
 6482TIP3   OH240936   2.108   1.357  16.110  0.4384 -0.3134 -0.1019
 6482TIP3    H140937   2.078   1.447  16.116 -2.1113 -1.0082 -1.7224
 6482TIP3    H240938   2.092   1.332  16.019  1.7175 -2.1935  0.1558
 6483TIP3   OH240939   0.514   2.968   0.543 -0.4607  0.0196  0.5757
 6483TIP3    H140940   0.465   3.049   0.557 -2.5235 -1.2137  0.6101
 6483TIP3    H240941   0.467   2.902   0.594  1.5443 -1.1008  1.0312
 6484TIP3   OH240942   2.719   0.651   4.405 -0.5197 -0.1588 -0.4406
 6484TIP3    H140943   2.714   0.620   4.495  0.9750 -0.6558 -0.5171
 6484TIP3    H240944   2.666   0.589   4.355  0.7139 -1.3950 -0.2678
 6485TIP3   OH240945   5.882   6.622   6.399  0.1501 -0.2130 -0.0429
 6485TIP3    H140946   5.971   6.587   6.407 -0.5568 -1.6046  2.0141
 6485TIP3    H240947   5.875   6.686   6.469 -0.3463  0.1695 -0.4395
 6486TIP3   OH240948   3.805   0.918   3.547 -0.5838  0.1050  0.2826
 6486TIP3    H140949   3.734   0.883   3.602 -0.4357  0.6729  0.8362
 6486TIP3    H240950   3.885   0.881   3.584 -0.7262 -2.2553 -1.6421
 6487TIP3   OH240951   2.868   3.104   6.352 -0.0196  0.3149  0.1433
 6487TIP3    H140952   2.791   3.157   6.374  0.5217  1.3685 -0.4811
 6487TIP3    H240953   2.938   3.168   6.341  0.5374 -0.4984 -1.0813
 6488TIP3   OH240954   2.226   1.920   1.449 -0.5453  0.3949 -0.0067
 6488TIP3    H140955   2.292   1.896   1.515  0.0710  0.0918 -0.7201
 6488TIP3    H240956   2.276   1.930   1.368 -1.0884  2.1268 -0.1554
 6489TIP3   OH240957   0.215   5.166   3.075 -0.1533  0.0012  0.0691
 6489TIP3    H140958   0.274   5.239   3.055  0.3231 -0.4308 -0.1147
 6489TIP3    H240959   0.161   5.156   2.996 -1.9134  1.7424  0.9979
 6490TIP3   OH240960   0.067   6.678  11.956  0.1891  0.4855 -0.3160
 6490TIP3    H140961   0.095   6.615  11.889 -1.4257 -2.4674  1.6427
 6490TIP3    H240962  -0.026   6.691  11.939 -0.1723 -0.0676  1.1200
 6491TIP3   OH240963   0.565   4.763  15.016  0.1415 -0.3410 -0.5974
 6491TIP3    H140964   0.532   4.673  15.018  2.2941 -1.1667  0.4864
 6491TIP3    H240965   0.525   4.805  15.092 -0.4176 -0.5589 -0.7710
 6492TIP3   OH240966   0.932   3.748  16.113  0.0145  0.2296 -0.0716
 6492TIP3    H140967   0.897   3.819  16.168  0.1924  1.2652 -1.2654
 6492TIP3    H240968   0.886   3.670  16.142 -1.0660  1.0527  0.4491
 6493TIP3   OH240969   1.110   5.591  13.906 -0.2286  0.3383 -0.6001
 6493TIP3    H140970   1.065   5.534  13.843  0.0702  1.4050 -1.7956
 6493TIP3    H240971   1.162   5.531  13.960 -1.2271 -0.6725 -0.7509
 6494TIP3   OH240972   5.018   4.128   4.303  0.1990  0.2398 -0.4500
 6494TIP3    H140973   5.038   4.056   4.363 -1.4482  0.8885  0.9465
 6494TIP3    H240974   5.098   4.180   4.299  0.4449 -0.0189  0.9503
 6495TIP3   OH240975   6.303   4.791  15.126 -0.0426 -0.0224  0.3219
 6495TIP3    H140976   6.397   4.808  15.123 -0.1441  0.2372 -3.0610
 6495TIP3    H240977   6.295   4.699  15.103 -0.7318  0.4938 -1.5529
 6496TIP3   OH240978   4.071   4.860   3.778 -0.3360 -0.0524  0.1085
 6496TIP3    H140979   4.149   4.898   3.819 -2.1000  0.7371  2.9331
 6496TIP3    H240980   4.007   4.931   3.779 -1.7283 -1.2803 -0.2906
 6497TIP3   OH240981   3.561   5.317  13.845  0.1259  0.3949  0.5234
 6497TIP3    H140982   3.637   5.370  13.819 -0.3841 -0.0096 -1.9316
 6497TIP3    H240983   3.544   5.342  13.935 -1.0677  5.6115 -0.9621
 6498TIP3   OH240984   4.203   6.034  12.786  0.5569 -0.3779 -0.5371
 6498TIP3    H140985   4.233   6.016  12.875 -1.4214  0.5811  0.3414
 6498TIP3    H240986   4.108   6.046  12.794  0.5797  1.4022 -2.5025
 6499TIP3   OH240987   5.694   5.818  15.877 -0.0926 -0.2406  0.2908
 6499TIP3    H140988   5.771   5.769  15.905  0.1328  0.0811  0.2447
 6499TIP3    H240989   5.644   5.832  15.958  1.9883  3.1953  1.1183
 6500TIP3   OH240990   3.081   6.657   4.390  0.0161 -0.1754 -0.4272
 6500TIP3    H140991   3.127   6.736   4.364 -1.4071  1.8306  2.8133
 6500TIP3    H240992   3.150   6.595   4.413  1.2581  2.2634  2.8707
 6501TIP3   OH240993   0.287   0.401   3.950 -0.0122  0.0788  0.2560
 6501TIP3    H140994   0.307   0.349   3.872 -0.5906 -0.4028  0.4264
 6501TIP3    H240995   0.371   0.435   3.979  0.1725  0.5414 -0.7778
 6502TIP3   OH240996   6.232   2.389   2.359  0.0467  0.1968  0.7441
 6502TIP3    H140997   6.168   2.455   2.386 -0.1931 -0.0382  0.7493
 6502TIP3    H240998   6.190   2.305   2.376  0.0077  0.0395 -0.0781
 6503TIP3   OH240999   1.278   0.502  12.790 -0.6327 -0.1792 -0.6528
 6503TIP3    H141000   1.206   0.442  12.771 -1.1269 -0.4875  2.0526
 6503TIP3    H241001   1.238   0.589  12.789 -0.9188 -0.2999  0.2530
 6504TIP3   OH241002   5.542   1.916   2.527 -0.0263  0.8059 -0.1264
 6504TIP3    H141003   5.614   1.969   2.494  0.6759  0.6436  1.0700
 6504TIP3    H241004   5.501   1.969   2.595 -0.6660  0.6592 -0.3885
 6505TIP3   OH241005   1.061   6.522  15.433 -0.0048  0.2660 -0.3695
 6505TIP3    H141006   1.110   6.604  15.431  0.5161 -0.0652 -1.0031
 6505TIP3    H241007   1.005   6.525  15.356 -1.5191  0.9724  0.7318
 6506TIP3   OH241008   4.991   4.292  16.073  0.2766 -0.3322 -0.0543
 6506TIP3    H141009   4.924   4.237  16.031 -0.2661 -0.3126  0.7617
 6506TIP3    H241010   4.940   4.358  16.121  0.7982 -1.7906  2.5732
 6507TIP3   OH241011   1.927   4.535   3.573 -0.3255 -0.0163 -0.0395
 6507TIP3    H141012   1.978   4.609   3.606  1.4231 -1.9005  1.6590
 6507TIP3    H241013   1.853   4.529   3.633  0.0294 -0.1610  0.3985
 6508TIP3   OH241014   4.567   0.249  15.899  0.2514  0.0630  0.8987
 6508TIP3    H141015   4.479   0.280  15.877  0.9782  0.4153 -1.6847
 6508TIP3    H241016   4.557   0.154  15.911 -0.5920  0.1947  1.2876
 6509TIP3   OH241017   6.750   6.047  12.863  0.4295 -0.0863 -0.3509
 6509TIP3    H141018   6.800   5.997  12.798  0.0858  0.2661 -0.8923
 6509TIP3    H241019   6.815   6.073  12.928  0.8001 -0.3476 -0.6147
 6510TIP3   OH241020   2.030   1.394  11.547  0.4112  0.6072 -0.2489
 6510TIP3    H141021   2.002   1.415  11.458  0.2547  1.0733 -0.0938
 6510TIP3    H241022   2.045   1.479  11.588  0.2744  0.3995  0.2354
 6511TIP3   OH241023   0.595   3.693   4.999  0.5009  0.1470 -0.2044
 6511TIP3    H141024   0.538   3.753   4.952 -1.2461 -0.8604  0.5882
 6511TIP3    H241025   0.658   3.749   5.044 -0.0608  1.2901 -0.8436
 6512TIP3   OH241026   0.571   6.768   5.455  0.2669 -0.0354 -0.5402
 6512TIP3    H141027   0.656   6.769   5.499  0.9792 -0.3189 -1.8729
 6512TIP3    H241028   0.514   6.820   5.512  1.5741  0.9621 -0.0973
 6513TIP3   OH241029   3.453   4.990   1.738  0.0685 -0.5597 -0.0062
 6513TIP3    H141030   3.517   5.027   1.678  1.0351 -0.5533  1.0219
 6513TIP3    H241031   3.500   4.920   1.783 -1.1527 -1.7060 -0.4755
 6514TIP3   OH241032   4.773   4.208   3.195  0.1080  0.5988 -0.6324
 6514TIP3    H141033   4.692   4.180   3.239 -1.1227  4.3177 -0.3573
 6514TIP3    H241034   4.792   4.293   3.233  2.8476  0.8566 -2.4738
 6515TIP3   OH241035   3.810   6.111  13.828  0.2971 -0.9070  0.2017
 6515TIP3    H141036   3.774   6.196  13.853 -0.1465 -0.2087 -2.7101
 6515TIP3    H241037   3.741   6.048  13.850 -1.1114 -0.0236 -1.6378
 6516TIP3   OH241038   4.234   1.934  15.950 -0.0331  0.0691  0.8195
 6516TIP3    H141039   4.276   1.927  16.036  0.3296  0.4895  0.6750
 6516TIP3    H241040   4.168   2.002  15.961 -0.8101 -0.7157  1.0981
 6517TIP3   OH241041   1.106   2.781  14.345 -0.0730 -0.5015  0.4357
 6517TIP3    H141042   1.093   2.727  14.424 -0.9004  0.6771  1.1183
 6517TIP3    H241043   1.031   2.760  14.290 -0.3672 -0.0998  0.6790
 6518TIP3   OH241044   3.083   2.155   0.190  0.0094  0.6255 -0.2822
 6518TIP3    H141045   3.044   2.078   0.149  0.0998  0.2403  0.3568
 6518TIP3    H241046   3.121   2.123   0.272  0.0046  1.3548  0.0138
 6519TIP3   OH241047   0.530   0.170   3.790  0.8365 -0.2358  0.0380
 6519TIP3    H141048   0.508   0.211   3.706  1.6572 -0.5303 -0.3336
 6519TIP3    H241049   0.619   0.136   3.777  0.9361 -0.3564  1.0036
 6520TIP3   OH241050   5.157   2.696  11.556 -0.2183  0.1125  0.3539
 6520TIP3    H141051   5.172   2.635  11.629 -0.4553  0.0055  0.3153
 6520TIP3    H241052   5.071   2.673  11.523 -1.5286  2.3313  2.1152
 6521TIP3   OH241053   1.140   0.261  11.956  0.1189 -0.2413 -0.0144
 6521TIP3    H141054   1.216   0.293  11.908  0.8625 -1.2116  0.4865
 6521TIP3    H241055   1.138   0.314  12.036 -0.4999  0.6574 -0.6137
 6522TIP3   OH241056   3.868   4.668  11.179  0.1086  0.1524 -0.4169
 6522TIP3    H141057   3.793   4.644  11.233  0.8884 -0.8660  0.2263
 6522TIP3    H241058   3.881   4.594  11.120 -0.8346  1.3142 -2.1460
 6523TIP3   OH241059   2.454   4.234  14.281 -0.2248 -0.1900 -0.1749
 6523TIP3    H141060   2.479   4.144  14.258  0.7839  0.3900 -1.4169
 6523TIP3    H241061   2.364   4.242  14.249 -0.6405 -1.0372  0.7554
 6524TIP3   OH241062   3.443   2.915  14.122 -0.1196  0.1663  0.1761
 6524TIP3    H141063   3.379   2.986  14.125 -1.7891 -1.3733  1.8317
 6524TIP3    H241064   3.454   2.897  14.028 -0.3082  2.0259 -0.2163
 6525TIP3   OH241065   3.641   3.218  14.884  0.0396  0.1542  0.3525
 6525TIP3    H141066   3.724   3.218  14.933  0.0315  0.7056  0.3690
 6525TIP3    H241067   3.667   3.207  14.793  0.3877  3.5427 -0.0387
 6526TIP3   OH241068   3.029   3.676  15.360  0.1429 -0.0504  0.4346
 6526TIP3    H141069   3.017   3.686  15.455  0.0315  1.5366  0.2574
 6526TIP3    H241070   3.124   3.683  15.347  0.0457  0.9742  0.2853
 6527TIP3   OH241071   1.774   4.017  14.075  0.3778 -0.0542  0.8349
 6527TIP3    H141072   1.836   4.090  14.064  1.1598 -1.0559 -1.9042
 6527TIP3    H241073   1.701   4.039  14.017 -0.2987 -0.5073  1.5113
 6528TIP3   OH241074   0.306   6.225  12.095 -0.4264  0.1179 -0.1290
 6528TIP3    H141075   0.348   6.140  12.109 -1.4096 -0.2740  0.4274
 6528TIP3    H241076   0.360   6.267  12.028  1.9336  0.3431  1.8314
 6529TIP3   OH241077   4.604   3.582  13.801  0.3962  0.0915 -0.4376
 6529TIP3    H141078   4.631   3.637  13.874 -0.2310  0.9848 -0.8641
 6529TIP3    H241079   4.680   3.580  13.743  1.0886 -1.0827  0.4955
 6530TIP3   OH241080   5.237   1.425  11.543 -0.3998 -0.2065  0.3584
 6530TIP3    H141081   5.298   1.352  11.554 -1.2333 -0.9559  0.0331
 6530TIP3    H241082   5.278   1.480  11.476 -0.3008 -0.9397 -0.1942
 6531TIP3   OH241083   4.402   6.489   3.244  0.0305  0.1224 -0.6633
 6531TIP3    H141084   4.349   6.564   3.273  0.1199  0.3864 -1.1686
 6531TIP3    H241085   4.488   6.527   3.225  0.6409 -0.4508  0.9546
 6532TIP3   OH241086   3.394   3.421   3.123 -0.2605 -0.0072 -0.1032
 6532TIP3    H141087   3.392   3.338   3.170  0.8473 -0.3203 -0.5983
 6532TIP3    H241088   3.481   3.457   3.140 -0.2421  0.4043 -0.9876
 6533TIP3   OH241089   5.072   6.600   3.435  0.4522 -0.7003  0.5585
 6533TIP3    H141090   4.991   6.612   3.385  0.7908  2.7747  0.7715
 6533TIP3    H241091   5.045   6.606   3.527  0.7795 -0.7318  0.6580
 6534TIP3   OH241092   5.282   3.433  15.755  0.4156 -0.2829 -0.4252
 6534TIP3    H141093   5.230   3.427  15.675 -0.6072 -1.4351  0.3138
 6534TIP3    H241094   5.265   3.351  15.801 -0.0625  0.9287  1.6215
 6535TIP3   OH241095   2.491   5.564  12.687 -0.7022 -0.2033 -0.4557
 6535TIP3    H141096   2.449   5.649  12.670  0.1521  0.1716 -0.7454
 6535TIP3    H241097   2.554   5.554  12.615 -0.0063 -0.5604  0.1988
 6536TIP3   OH241098   5.733   0.322  11.690  0.6689 -0.0756 -0.4200
 6536TIP3    H141099   5.746   0.409  11.729  0.2167 -0.4135  0.4925
 6536TIP3    H241100   5.648   0.328  11.647  0.3440 -0.2712  0.1987
 6537TIP3   OH241101   0.305   3.845  11.986 -0.3732 -0.0366 -0.6143
 6537TIP3    H141102   0.229   3.793  12.014 -0.1719  0.0044  0.0186
 6537TIP3    H241103   0.315   3.824  11.894 -0.2559 -1.1899 -0.3463
 6538TIP3   OH241104   5.355   1.097   6.011  0.2096  0.7970 -0.4595
 6538TIP3    H141105   5.369   1.096   5.916  1.5338  0.2559 -0.2700
 6538TIP3    H241106   5.367   1.189   6.035  0.0766  0.9034 -0.7916
 6539TIP3   OH241107   4.541   3.115  12.657 -0.0635  0.3794  0.0268
 6539TIP3    H141108   4.624   3.111  12.705 -1.7410 -0.8028  2.9910
 6539TIP3    H241109   4.479   3.068  12.713 -2.7548  1.3158 -2.0707
 6540TIP3   OH241110   6.216   0.047  11.708 -0.4822  0.5575  0.1506
 6540TIP3    H141111   6.200   0.135  11.742 -1.8289  0.3097  0.1837
 6540TIP3    H241112   6.144  -0.006  11.744  0.8653 -0.7735  0.9432
 6541TIP3   OH241113   3.740   5.193   5.242  0.4149 -0.2408 -0.7640
 6541TIP3    H141114   3.666   5.251   5.225  0.2129 -0.1049  0.5096
 6541TIP3    H241115   3.756   5.149   5.159 -0.2288  0.7284 -1.4046
 6542TIP3   OH241116   5.189   3.040  15.201 -0.0992  0.6304  0.2274
 6542TIP3    H141117   5.114   2.982  15.191  0.3719  0.0053  0.2721
 6542TIP3    H241118   5.202   3.078  15.114  0.9512 -1.0259 -0.3635
 6543TIP3   OH241119   0.064   0.220   4.045 -0.3156  0.2298 -0.3149
 6543TIP3    H141120   0.063   0.220   3.949 -2.2147 -0.4656 -0.3102
 6543TIP3    H241121   0.069   0.313   4.068 -2.5702  0.5825 -1.0983
 6544TIP3   OH241122   0.850   1.795   2.350 -0.3916 -0.3126  0.5538
 6544TIP3    H141123   0.855   1.791   2.446  1.4345 -1.4922  0.4506
 6544TIP3    H241124   0.784   1.730   2.327 -1.0735  0.2099  1.0256
 6545TIP3   OH241125   0.786   1.001   0.557 -0.0842  0.1108 -0.5612
 6545TIP3    H141126   0.808   0.932   0.495 -0.5269 -0.2714 -0.2908
 6545TIP3    H241127   0.826   0.973   0.640  1.8516  1.3701 -1.0211
 6546TIP3   OH241128   3.240   2.780   3.523  0.3520 -0.0542  0.3290
 6546TIP3    H141129   3.258   2.840   3.451 -0.3593  1.0365  1.0477
 6546TIP3    H241130   3.173   2.824   3.575  1.1174 -0.6679  1.8727
 6547TIP3   OH241131   4.661   2.285  14.797 -0.3404  0.5616 -0.4737
 6547TIP3    H141132   4.747   2.266  14.834  0.1351  0.7076 -1.5037
 6547TIP3    H241133   4.655   2.230  14.720 -1.3355  0.2683 -0.1985
 6548TIP3   OH241134   3.695   6.294  16.430 -0.1808  0.1644 -0.1131
 6548TIP3    H141135   3.651   6.365  16.384  1.5858  0.4921 -1.3866
 6548TIP3    H241136   3.787   6.320  16.430  0.7024 -2.7259 -1.7890
 6549TIP3   OH241137   2.584   0.307  11.223 -0.2315  0.5218 -0.5230
 6549TIP3    H141138   2.673   0.313  11.187 -0.5662 -1.9246 -1.8642
 6549TIP3    H241139   2.528   0.294  11.147 -1.6618  1.3674  0.3774
 6550TIP3   OH241140   5.223   0.206   5.094 -0.2358 -0.3057 -0.6369
 6550TIP3    H141141   5.257   0.280   5.145 -0.3433  0.4513 -1.6442
 6550TIP3    H241142   5.298   0.147   5.086 -0.0587 -0.1597 -0.1120
 6551TIP3   OH241143   6.150   5.546   0.193  0.4706 -0.0362  0.0006
 6551TIP3    H141144   6.162   5.487   0.267 -0.2970 -0.3746 -0.1399
 6551TIP3    H241145   6.124   5.490   0.121 -1.7968  0.6387  0.2638
 6552TIP3   OH241146   3.073   6.085   6.451  0.2438  0.2635 -0.7131
 6552TIP3    H141147   3.046   6.046   6.368  1.7467  0.4415 -1.2919
 6552TIP3    H241148   3.030   6.030   6.518  1.2538 -1.5892 -1.5452
 6553TIP3   OH241149   5.780   4.066   5.214 -0.0036 -0.0654  0.0586
 6553TIP3    H141150   5.828   4.146   5.194  0.6226 -0.3680  0.3189
 6553TIP3    H241151   5.848   3.999   5.224 -0.5988 -0.9995 -1.8560
 6554TIP3   OH241152   1.671   1.262  16.671  0.1378  0.5663 -0.3048
 6554TIP3    H141153   1.764   1.282  16.664  0.2605  0.3431  0.6517
 6554TIP3    H241154   1.664   1.203  16.746 -0.5239 -1.1143 -1.6675
 6555TIP3   OH241155   0.402   3.044   2.925  0.3612 -0.1972  0.0264
 6555TIP3    H141156   0.410   3.137   2.903  1.0019 -0.1524  0.4193
 6555TIP3    H241157   0.438   2.999   2.849  2.7923 -0.0360  1.0238
 6556TIP3   OH241158   2.709   5.699  13.153  0.3761  0.1271 -0.2421
 6556TIP3    H141159   2.761   5.773  13.122 -0.2167  0.6497  0.0023
 6556TIP3    H241160   2.697   5.644  13.076  2.6838 -0.8405  0.0519
 6557TIP3   OH241161   3.633   4.979  12.489 -0.0067 -0.8772  0.1152
 6557TIP3    H141162   3.630   5.054  12.429 -0.1708 -0.8133  0.2035
 6557TIP3    H241163   3.669   4.908  12.436 -2.3098 -1.4442 -0.7247
 6558TIP3   OH241164   5.161   5.679  14.366  0.0214 -0.8213  0.0498
 6558TIP3    H141165   5.179   5.659  14.274  0.7587 -0.2102  0.0538
 6558TIP3    H241166   5.196   5.767  14.379 -1.0462 -0.4722  0.6454
 6559TIP3   OH241167   2.360   2.709  12.888  0.6276  0.3243 -0.2332
 6559TIP3    H141168   2.316   2.792  12.906  0.1554 -0.1831  0.9454
 6559TIP3    H241169   2.446   2.735  12.853  0.0460  1.3034 -0.9792
 6560TIP3   OH241170   5.475   6.124   4.401 -0.0260  0.3525 -0.4701
 6560TIP3    H141171   5.413   6.156   4.467 -0.4258  0.4306 -0.8800
 6560TIP3    H241172   5.533   6.198   4.384 -0.4150  0.5874 -0.7851
 6561TIP3   OH241173   6.045   0.587  13.371 -0.0329  0.3216 -0.3745
 6561TIP3    H141174   6.083   0.612  13.287 -0.2791 -2.0099 -1.2150
 6561TIP3    H241175   6.107   0.523  13.407 -0.4465  0.5481  0.7617
 6562TIP3   OH241176   1.623   3.594   4.021  0.2338 -0.5349  0.3411
 6562TIP3    H141177   1.621   3.512   4.071  1.3932 -1.0328 -0.4221
 6562TIP3    H241178   1.534   3.604   3.987  0.2652 -1.8389 -0.1391
 6563TIP3   OH241179   6.683   5.311  13.504  0.4548 -0.4549 -0.1344
 6563TIP3    H141180   6.630   5.358  13.439 -1.1778 -3.2280 -0.9405
 6563TIP3    H241181   6.652   5.343  13.588 -1.0709 -0.4994 -0.6535
 6564TIP3   OH241182   3.876   2.054   3.432  0.1384 -0.1753  0.4282
 6564TIP3    H141183   3.964   2.019   3.446  0.4493  0.6936  0.7156
 6564TIP3    H241184   3.835   2.050   3.519  0.2876  0.4521  0.5325
 6565TIP3   OH241185   4.452   3.481   2.560 -0.1670 -0.1010 -0.6043
 6565TIP3    H141186   4.491   3.480   2.473 -0.4495 -0.1231 -0.7288
 6565TIP3    H241187   4.434   3.574   2.577  1.2543  0.0863  0.0362
 6566TIP3   OH241188   5.647   4.774  12.310  0.3565 -0.1756  0.2375
 6566TIP3    H141189   5.651   4.721  12.231  0.6118  1.3533 -0.7968
 6566TIP3    H241190   5.732   4.763  12.351  0.4220 -0.5308 -0.0002
 6567TIP3   OH241191   5.702   1.595   3.556 -0.2812  0.4288 -0.2562
 6567TIP3    H141192   5.645   1.574   3.629  0.7842 -0.2450  0.3906
 6567TIP3    H241193   5.682   1.686   3.535  0.8030  1.2590  2.1572
 6568TIP3   OH241194   3.849   3.711  12.617 -0.4338 -0.0873  0.1171
 6568TIP3    H141195   3.853   3.673  12.529 -1.4015 -2.1221  0.9215
 6568TIP3    H241196   3.789   3.785  12.609 -0.6866 -0.3945 -0.8912
 6569TIP3   OH241197   0.731   2.975  11.609 -0.1727 -0.0537 -0.0727
 6569TIP3    H141198   0.652   3.013  11.571 -0.1519  0.2779  0.2098
 6569TIP3    H241199   0.748   2.897  11.557 -0.7801 -0.2171 -0.0380
 6570TIP3   OH241200   5.123   0.021  12.414 -0.4179 -0.4728  0.0277
 6570TIP3    H141201   5.108  -0.073  12.406  1.7057 -0.8333 -0.1425
 6570TIP3    H241202   5.104   0.056  12.327  1.7006 -1.2236 -0.7893
 6571TIP3   OH241203   2.154   4.423   0.673 -0.1047 -0.5700  0.4770
 6571TIP3    H141204   2.227   4.481   0.650 -0.3959  0.1372  1.2915
 6571TIP3    H241205   2.195   4.354   0.726 -0.0743  0.0395  1.2638
 6572TIP3   OH241206   4.391   5.284   2.511  0.2387  0.1747  0.3139
 6572TIP3    H141207   4.326   5.214   2.509 -1.5020  1.7901 -0.9267
 6572TIP3    H241208   4.379   5.330   2.427  1.1086  2.1670  1.2631
 6573TIP3   OH241209   2.338   6.413  11.482 -0.1829 -0.1171 -0.2794
 6573TIP3    H141210   2.289   6.374  11.555  0.0662  1.2632  0.6403
 6573TIP3    H241211   2.336   6.507  11.499 -0.2249  0.2478 -2.1285
 6574TIP3   OH241212   5.979   5.586   1.004 -0.0085  0.3663 -0.7850
 6574TIP3    H141213   6.014   5.665   0.964 -0.7985  0.4243 -1.3648
 6574TIP3    H241214   6.052   5.551   1.056  0.0508  1.9712  0.2384
 6575TIP3   OH241215   2.743   2.679  16.793 -0.2973  0.1210  0.2977
 6575TIP3    H141216   2.829   2.643  16.772 -0.4100 -0.1682  0.3274
 6575TIP3    H241217   2.692   2.668  16.712 -0.5286 -0.3814  0.5072
 6576TIP3   OH241218   0.289   2.187  14.982  0.4235  0.0671  0.2249
 6576TIP3    H141219   0.257   2.276  14.995 -0.2057  0.1734 -1.8038
 6576TIP3    H241220   0.383   2.192  15.000 -0.0220  0.5990  2.4923
 6577TIP3   OH241221   3.094   4.090  16.041  0.0537 -0.0459 -0.1597
 6577TIP3    H141222   3.084   4.149  15.966 -3.1896  0.8211  0.8750
 6577TIP3    H241223   3.038   4.015  16.021  0.8479 -0.8226  0.4583
 6578TIP3   OH241224   4.757   1.089  12.042  0.1129  0.3173 -0.9058
 6578TIP3    H141225   4.785   1.177  12.018 -0.4460  0.5519 -0.7231
 6578TIP3    H241226   4.713   1.101  12.127  1.7152 -0.4332  0.0580
 6579TIP3   OH241227   1.376   5.785   5.763 -0.0379  0.1980  0.0771
 6579TIP3    H141228   1.280   5.781   5.768  0.0348 -1.5757  0.3585
 6579TIP3    H241229   1.397   5.761   5.673  0.2213 -1.3890  0.5470
 6580TIP3   OH241230   0.977   5.659  17.062  0.2642  0.0342 -0.5322
 6580TIP3    H141231   1.045   5.648  17.128  0.4693  1.3361 -0.5012
 6580TIP3    H241232   1.008   5.609  16.987  1.3702  0.7719 -0.5871
 6581TIP3   OH241233   1.662   5.274   2.220  0.7092 -0.6135  0.3263
 6581TIP3    H141234   1.568   5.264   2.209  0.5195  0.9293  0.5588
 6581TIP3    H241235   1.698   5.190   2.189 -0.6781 -0.9753 -0.3530
 6582TIP3   OH241236   5.914   3.231  15.858 -0.3108  0.2026  0.2832
 6582TIP3    H141237   5.879   3.314  15.825  3.4553  1.7030 -0.1629
 6582TIP3    H241238   5.943   3.251  15.947 -1.0514 -1.1744  0.8576
 6583TIP3   OH241239   0.678   2.273   3.580 -0.1769 -0.4310 -0.6863
 6583TIP3    H141240   0.736   2.326   3.635  0.9902 -1.3717 -0.9857
 6583TIP3    H241241   0.724   2.266   3.496 -1.2336 -0.2841 -1.2933
 6584TIP3   OH241242   3.618   0.282  16.089 -0.3295  0.2070  0.0416
 6584TIP3    H141243   3.704   0.325  16.094 -0.4124  0.3481  0.2591
 6584TIP3    H241244   3.556   0.348  16.119 -0.3923 -0.2690  0.9709
 6585TIP3   OH241245   3.821   1.922   1.489  0.0472  0.1915 -0.2000
 6585TIP3    H141246   3.823   1.869   1.568 -0.4274 -2.6438 -2.0438
 6585TIP3    H241247   3.736   1.904   1.450 -0.3544  2.7483 -0.6087
 6586TIP3   OH241248   5.887   5.390   0.238  0.3608 -0.0808  0.2389
 6586TIP3    H141249   5.846   5.411   0.322  0.3777  1.8468 -0.2057
 6586TIP3    H241250   5.841   5.444   0.174  2.6667  1.1085 -0.4724
 6587TIP3   OH241251   2.147   2.100   4.619 -0.2448 -0.7344  0.0645
 6587TIP3    H141252   2.219   2.039   4.599 -0.6507 -1.2683  0.2162
 6587TIP3    H241253   2.091   2.052   4.679  0.1733  0.3279  1.3366
 6588TIP3   OH241254   2.105   3.480   4.479  0.0863 -0.0559 -0.0638
 6588TIP3    H141255   2.141   3.427   4.408 -0.6473 -1.1699  0.3807
 6588TIP3    H241256   2.170   3.473   4.549  0.6252  0.7301 -0.4743
 6589TIP3   OH241257   1.261   0.936  17.250  0.3169  0.3221  0.1797
 6589TIP3    H141258   1.186   0.960  17.304  0.7262  1.9970  0.0322
 6589TIP3    H241259   1.223   0.903  17.169 -0.2774 -0.6514  0.8428
 6590TIP3   OH241260   3.757   2.958   5.853  0.2374  0.1325  0.0745
 6590TIP3    H141261   3.664   2.967   5.873 -0.4889 -2.9772 -1.4245
 6590TIP3    H241262   3.776   3.027   5.790 -1.9041 -1.1128 -2.0067
 6591TIP3   OH241263   3.035   3.528  14.946  0.7409 -0.5247 -0.0606
 6591TIP3    H141264   3.029   3.621  14.923 -0.9523 -0.2160  1.4919
 6591TIP3    H241265   3.129   3.512  14.958  0.8498  1.6535  2.2867
 6592TIP3   OH241266   2.979   6.725  15.384 -0.1559  0.1702  0.2384
 6592TIP3    H141267   2.962   6.819  15.391 -0.6212  0.0874  0.2193
 6592TIP3    H241268   2.923   6.695  15.313 -1.3363 -0.4460  1.4190
 6593TIP3   OH241269   6.814   5.155  11.521  0.3027 -0.2534 -0.2940
 6593TIP3    H141270   6.788   5.154  11.613  1.0547  2.1838 -0.0061
 6593TIP3    H241271   6.827   5.063  11.498 -2.4760 -1.0675  1.2681
 6594TIP3   OH241272   1.095   0.713  12.783  1.1360  0.0446 -0.5763
 6594TIP3    H141273   1.081   0.711  12.688 -0.5242  1.6530 -0.4085
 6594TIP3    H241274   1.026   0.659  12.819  1.5870 -0.3256 -0.2621
 6595TIP3   OH241275   0.987   1.223  16.533 -0.5378 -0.2181  0.0990
 6595TIP3    H141276   0.928   1.271  16.476 -0.6615  1.3031  1.4716
 6595TIP3    H241277   0.929   1.169  16.587 -0.5432 -0.2106  0.1017
 6596TIP3   OH241278   5.444   0.867   2.923 -0.2393 -0.4171 -0.3346
 6596TIP3    H141279   5.361   0.878   2.969 -0.2591  0.7030 -0.6254
 6596TIP3    H241280   5.421   0.818   2.844 -0.5672 -0.4047 -0.2479
 6597TIP3   OH241281   2.224   5.611  11.791 -0.7926  0.4439 -0.0989
 6597TIP3    H141282   2.226   5.600  11.696 -0.4114  0.7129 -0.1222
 6597TIP3    H241283   2.213   5.522  11.825 -0.7325  0.3259 -0.3863
 6598TIP3   OH241284   1.718   1.506   2.514 -0.0705 -0.3451 -0.6567
 6598TIP3    H141285   1.692   1.436   2.454  0.3627 -0.4323 -0.7394
 6598TIP3    H241286   1.804   1.481   2.546 -0.2309 -0.2221 -0.1126
 6599TIP3   OH241287   6.289   4.298   1.198 -1.0197 -0.0850  0.1949
 6599TIP3    H141288   6.348   4.284   1.124  0.4117 -0.2107  1.3269
 6599TIP3    H241289   6.278   4.211   1.236 -2.2786 -0.1278 -0.2521
 6600TIP3   OH241290   4.942   1.742  12.131 -0.1161  0.0423 -0.0390
 6600TIP3    H141291   4.920   1.735  12.224  0.9818 -1.9857  0.1002
 6600TIP3    H241292   4.869   1.699  12.086 -0.7301  1.1705 -0.1489
 6601TIP3   OH241293   0.628   1.272   2.405 -0.5808 -0.6703  0.1234
 6601TIP3    H141294   0.663   1.270   2.494  1.2073 -1.1226 -0.5813
 6601TIP3    H241295   0.653   1.189   2.367 -0.7804 -0.2138 -1.0212
 6602TIP3   OH241296   6.175   2.174  12.848 -0.0850  0.0609  0.1050
 6602TIP3    H141297   6.085   2.158  12.819  0.1754  0.3072 -0.8760
 6602TIP3    H241298   6.188   2.268  12.835  0.7178 -0.1820 -0.9952
 6603TIP3   OH241299   1.913   0.294  13.462 -0.2248  0.0894 -0.0811
 6603TIP3    H141300   1.885   0.204  13.447 -0.6216  0.3962 -1.2061
 6603TIP3    H241301   1.983   0.287  13.526  0.2378 -1.0780 -0.7039
 6604TIP3   OH241302   2.228   2.350   0.721  0.2990 -0.0763 -0.5840
 6604TIP3    H141303   2.152   2.379   0.669  0.4100  2.4997  0.6249
 6604TIP3    H241304   2.224   2.404   0.800  2.7670 -0.7194 -0.0102
 6605TIP3   OH241305   3.685   3.391  10.978 -0.4740 -0.1682  0.2642
 6605TIP3    H141306   3.768   3.410  10.934  0.0341 -0.3239  1.1272
 6605TIP3    H241307   3.627   3.360  10.909 -0.4383  1.8613 -0.6921
 6606TIP3   OH241308   2.219   2.721   5.937 -0.1697 -0.5132  0.2421
 6606TIP3    H141309   2.209   2.669   6.017  0.4087  1.0363  1.3455
 6606TIP3    H241310   2.210   2.812   5.967 -0.0565  0.0688 -1.4788
 6607TIP3   OH241311   5.230   4.058   0.426 -0.0902  0.1657  0.6562
 6607TIP3    H141312   5.137   4.078   0.415 -0.1493 -0.5785 -0.3359
 6607TIP3    H241313   5.234   3.962   0.429  0.6757  0.1823  0.3671
 6608TIP3   OH241314   0.050   3.453   0.121 -0.2638  0.2769 -0.0811
 6608TIP3    H141315  -0.013   3.492   0.061  0.1364  0.6400 -0.2698
 6608TIP3    H241316   0.133   3.497   0.101 -0.1382  0.4392  0.7686
 6609TIP3   OH241317   0.500   5.706   6.113  0.4853 -0.1067 -0.1252
 6609TIP3    H141318   0.584   5.750   6.097  1.2673 -1.3407  0.5249
 6609TIP3    H241319   0.451   5.768   6.168  2.1747 -0.6461  2.0960
 6610TIP3   OH241320   2.339   0.912   3.751  0.7820 -0.0083  0.1232
 6610TIP3    H141321   2.409   0.873   3.699  0.6875  1.5057 -1.1918
 6610TIP3    H241322   2.275   0.841   3.763  0.5993 -0.2784 -2.2403
 6611TIP3   OH241323   2.127   3.800  12.588  0.3675 -0.2239 -0.5492
 6611TIP3    H141324   2.073   3.878  12.580 -0.1635 -0.6841 -1.6585
 6611TIP3    H241325   2.101   3.746  12.513 -0.3547 -2.1313  1.0431
 6612TIP3   OH241326   4.263   6.116   5.581 -0.2675 -0.3847  0.3621
 6612TIP3    H141327   4.256   6.136   5.487 -3.4902 -0.0686  0.6114
 6612TIP3    H241328   4.260   6.202   5.623  0.7579 -0.5549  0.7947
 6613TIP3   OH241329   5.100   4.171  13.096 -0.3663  0.2810  0.1676
 6613TIP3    H141330   5.019   4.194  13.142  0.1756  0.3591  1.1050
 6613TIP3    H241331   5.142   4.107  13.153  0.3437  0.4170 -0.2001
 6614TIP3   OH241332   6.683   3.171  15.844 -0.4158  0.2480 -0.2139
 6614TIP3    H141333   6.679   3.256  15.800  0.4431 -0.7286 -2.2516
 6614TIP3    H241334   6.751   3.122  15.797  0.6355 -0.8038  2.3176
 6615TIP3   OH241335   2.691   4.107  17.284  0.2825 -0.4384  0.0797
 6615TIP3    H141336   2.747   4.162  17.340  0.4053  0.2111 -0.6756
 6615TIP3    H241337   2.724   4.121  17.196 -0.6879 -0.5177 -0.3027
 6616TIP3   OH241338   1.944   5.062   5.335  0.0270 -0.4132 -0.1794
 6616TIP3    H141339   1.864   5.010   5.331 -0.1156 -0.3133  1.1606
 6616TIP3    H241340   1.915   5.152   5.329  0.1015 -0.4012 -0.3708
 6617TIP3   OH241341   2.790   2.034   0.402 -0.1945 -0.2970 -0.1164
 6617TIP3    H141342   2.711   1.982   0.417  0.8269 -1.6948  0.6625
 6617TIP3    H241343   2.857   1.968   0.380  0.8607  0.8082 -0.2490
 6618TIP3   OH241344   3.520   3.008   3.208  0.2216  0.6077 -0.4305
 6618TIP3    H141345   3.441   3.035   3.256  0.2918 -1.9613  1.2487
 6618TIP3    H241346   3.488   2.948   3.141  0.7288 -0.5377  0.3346
 6619TIP3   OH241347   3.541   3.467   4.707 -0.0737 -0.3869 -0.1926
 6619TIP3    H141348   3.561   3.431   4.620  0.9432 -0.4226  0.0488
 6619TIP3    H241349   3.489   3.546   4.689  0.5150 -0.1449 -0.8552
 6620TIP3   OH241350   0.408   1.792  12.568  0.1047  0.3676  0.0184
 6620TIP3    H141351   0.345   1.817  12.500 -0.5664 -0.5917  0.2830
 6620TIP3    H241352   0.369   1.825  12.649  0.1525  0.1517  0.1291
 6621TIP3   OH241353   0.299   4.199  15.423 -0.1850  0.4659 -0.0631
 6621TIP3    H141354   0.323   4.148  15.500 -0.7974  0.5488  0.1929
 6621TIP3    H241355   0.382   4.225  15.384  0.1651 -1.8938 -0.9815
 6622TIP3   OH241356   4.125   6.710   1.738  0.4764 -0.4452 -0.1352
 6622TIP3    H141357   4.116   6.775   1.669 -0.3794 -0.7348 -0.3003
 6622TIP3    H241358   4.110   6.626   1.694 -0.7670 -0.5814  0.5232
 6623TIP3   OH241359   0.315   1.356   5.594  0.2344 -0.3267 -0.0702
 6623TIP3    H141360   0.281   1.444   5.576  0.3808 -0.6410 -1.9470
 6623TIP3    H241361   0.269   1.329   5.673 -1.2689  0.6574 -0.5794
 6624TIP3   OH241362   0.214   1.647   4.204  0.2401 -0.6106 -0.6059
 6624TIP3    H141363   0.199   1.579   4.268 -0.4443  0.5764  0.5120
 6624TIP3    H241364   0.150   1.630   4.135 -1.9677  0.6350  1.0813
 6625TIP3   OH241365   5.502   3.044  15.897 -0.9525  0.4503 -0.0331
 6625TIP3    H141366   5.596   3.042  15.913 -0.6974 -0.0238 -1.5167
 6625TIP3    H241367   5.477   3.136  15.910 -0.1218  0.7389 -0.4620
 6626TIP3   OH241368   0.342   0.766   2.529  0.1800 -0.2009 -0.2953
 6626TIP3    H141369   0.392   0.847   2.518  0.0750 -0.1234 -0.2098
 6626TIP3    H241370   0.360   0.739   2.619  0.7059 -0.6079 -0.5186
 6627TIP3   OH241371   6.411   3.597   3.472  0.1526  0.5171 -0.0665
 6627TIP3    H141372   6.471   3.645   3.529 -0.6623 -0.5236  1.7291
 6627TIP3    H241373   6.347   3.558   3.532 -2.0389  1.1701 -1.8836
 6628TIP3   OH241374   1.676   6.400   2.641  0.6419 -0.3718  0.0902
 6628TIP3    H141375   1.663   6.394   2.546 -0.3436 -1.9546  0.3162
 6628TIP3    H241376   1.750   6.461   2.651  0.3219  0.3308 -1.6523
 6629TIP3   OH241377   5.923   4.126  14.180 -0.0456 -0.2894  0.1852
 6629TIP3    H141378   5.966   4.140  14.264  1.2958 -1.6555 -0.2371
 6629TIP3    H241379   5.866   4.050  14.194 -1.0164  0.4482  0.2757
 6630TIP3   OH241380   1.197   0.946  11.264 -0.2886 -0.6726  0.3351
 6630TIP3    H141381   1.285   0.982  11.262 -0.6580  0.2736  0.8973
 6630TIP3    H241382   1.209   0.853  11.281  0.5843 -0.4631  0.8814
 6631TIP3   OH241383   5.951   4.891  14.245  1.0606  0.2323 -0.1853
 6631TIP3    H141384   5.857   4.893  14.229  1.4535  0.9214 -2.6789
 6631TIP3    H241385   5.963   4.944  14.324 -0.6032  0.3108  0.0328
 6632TIP3   OH241386   5.803   1.868   0.941 -0.0302 -0.2052  0.0309
 6632TIP3    H141387   5.887   1.869   0.987 -0.1171  0.2692  0.1789
 6632TIP3    H241388   5.791   1.777   0.915  0.6227 -0.2418 -0.1570
 6633TIP3   OH241389   6.168   0.022  16.767  0.4785  0.2120  0.0840
 6633TIP3    H141390   6.151  -0.064  16.806  3.4054  0.5135  2.1562
 6633TIP3    H241391   6.250   0.011  16.719 -0.5754  1.1695 -2.0138
 6634TIP3   OH241392   0.108   4.471   6.172  0.3101 -0.0746 -0.2438
 6634TIP3    H141393   0.073   4.383   6.187 -1.0368  0.2557 -1.3351
 6634TIP3    H241394   0.124   4.505   6.260  2.2736 -1.9313  0.1797
 6635TIP3   OH241395   5.059   5.472  15.137  0.1875  0.4993 -0.2705
 6635TIP3    H141396   5.125   5.436  15.196 -2.0280 -0.3826  1.7215
 6635TIP3    H241397   5.018   5.395  15.097 -1.5006  0.9289  0.5910
 6636TIP3   OH241398   3.230   2.164  13.843  0.2583  0.2425 -0.2614
 6636TIP3    H141399   3.301   2.225  13.864 -0.6605  0.9211  0.9525
 6636TIP3    H241400   3.151   2.210  13.870 -0.3513 -2.0910  2.0873
 6637TIP3   OH241401   6.758   5.784   0.459  0.4080  0.0690  0.6007
 6637TIP3    H141402   6.684   5.771   0.401  0.5028  0.0405  0.4864
 6637TIP3    H241403   6.747   5.873   0.493  0.3344  0.0722  0.5682
 6638TIP3   OH241404   5.735   3.214  11.924 -0.1405 -0.6555 -0.0431
 6638TIP3    H141405   5.794   3.139  11.914  0.6520  0.1925 -1.8592
 6638TIP3    H241406   5.793   3.291  11.921 -1.2054  0.1308 -0.6187
 6639TIP3   OH241407   3.671   0.735   0.058 -0.6751  0.3509  0.0072
 6639TIP3    H141408   3.586   0.777   0.046 -0.2884  0.6659 -1.8422
 6639TIP3    H241409   3.735   0.803   0.032 -0.0059 -0.9332 -1.8378
 6640TIP3   OH241410   4.077   4.644  13.865 -0.8092 -0.2954 -0.5064
 6640TIP3    H141411   4.072   4.664  13.772 -0.3904 -1.0990 -0.7083
 6640TIP3    H241412   4.000   4.590  13.883 -0.7665 -0.3366 -0.4430
 6641TIP3   OH241413   3.739   1.650   4.602 -0.1016  0.0008  0.4212
 6641TIP3    H141414   3.760   1.740   4.579  1.1045 -0.5515 -0.7495
 6641TIP3    H241415   3.644   1.644   4.593  0.1685  0.0648 -3.7294
 6642TIP3   OH241416   6.037   5.409  16.487 -0.2272 -0.5293  0.0376
 6642TIP3    H141417   6.126   5.440  16.502 -0.2075 -0.6657  0.1994
 6642TIP3    H241418   6.023   5.421  16.393  0.3816 -1.6349 -0.1979
 6643TIP3   OH241419   6.628   5.410   0.824 -0.1352 -0.2046 -0.1589
 6643TIP3    H141420   6.642   5.317   0.845 -3.8206 -1.3773 -2.3917
 6643TIP3    H241421   6.631   5.413   0.728  0.1804  2.0751 -0.0957
 6644TIP3   OH241422   2.694   5.089   5.512  0.4574 -0.1652  0.1272
 6644TIP3    H141423   2.749   5.074   5.435  1.0359 -0.1448  0.5288
 6644TIP3    H241424   2.744   5.152   5.565  0.0599 -0.1711  0.5155
 6645TIP3   OH241425   2.056   2.737  16.446 -0.2972  0.0431 -0.4220
 6645TIP3    H141426   2.088   2.647  16.437  0.1407  0.2662 -1.0896
 6645TIP3    H241427   2.109   2.788  16.386 -0.1268  0.8681  0.4119
 6646TIP3   OH241428   3.121   1.643   3.062 -0.0340 -0.1778  0.3656
 6646TIP3    H141429   3.077   1.559   3.071 -3.0029  1.3277  0.5511
 6646TIP3    H241430   3.058   1.707   3.096  0.8449  2.4690 -2.7256
 6647TIP3   OH241431   1.208   0.016  12.041 -0.3674 -0.3757 -0.0411
 6647TIP3    H141432   1.180   0.011  12.132  0.5945  0.2151  0.2902
 6647TIP3    H241433   1.180   0.103  12.012  1.7411  0.5067  0.5091
 6648TIP3   OH241434   4.594   5.526   4.904 -0.5679 -0.1902  0.1747
 6648TIP3    H141435   4.672   5.579   4.926 -0.3553 -0.2785 -0.3553
 6648TIP3    H241436   4.628   5.437   4.895 -0.8184 -0.3098  0.4225
 6649TIP3   OH241437   5.540   5.076  12.578  0.1785  0.4689 -0.5535
 6649TIP3    H141438   5.627   5.048  12.548  1.0007  0.6103  1.6085
 6649TIP3    H241439   5.509   5.003  12.631 -0.3164  1.1292  0.0549
 6650TIP3   OH241440   2.709   4.813   3.198 -0.2888 -0.1019 -0.1020
 6650TIP3    H141441   2.638   4.775   3.146 -0.8853  3.1350 -1.7931
 6650TIP3    H241442   2.729   4.897   3.155  2.0169  0.7980  2.5174
 6651TIP3   OH241443   0.679   2.875  10.934  0.1844 -0.2926  0.4302
 6651TIP3    H141444   0.586   2.855  10.926 -0.2314  0.8623  2.0996
 6651TIP3    H241445   0.697   2.934  10.861 -0.4514 -0.3387  0.2333
 6652TIP3   OH241446   0.888   5.280   5.741 -0.3909 -0.2251  0.2584
 6652TIP3    H141447   0.932   5.352   5.786 -0.4081  0.6383 -1.0538
 6652TIP3    H241448   0.958   5.239   5.690 -0.6692 -0.1849 -0.1616
 6653TIP3   OH241449   3.445   4.808  10.589 -0.1803 -0.4519 -0.3538
 6653TIP3    H141450   3.470   4.717  10.569  3.1896  0.2943  0.2184
 6653TIP3    H241451   3.367   4.824  10.535  1.2967 -2.5225 -3.2161
 6654TIP3   OH241452   2.108   1.085  17.277  0.1501 -0.2725 -0.2646
 6654TIP3    H141453   2.192   1.080  17.231  0.3253 -0.1539  0.0379
 6654TIP3    H241454   2.044   1.102  17.208  0.1796 -1.8331 -0.7044
 6655TIP3   OH241455   2.656   4.582   2.462 -0.3122  0.1992 -0.2146
 6655TIP3    H141456   2.652   4.502   2.408 -1.7429  0.3625 -0.3701
 6655TIP3    H241457   2.567   4.591   2.497  0.5932  0.1054  2.1959
 6656TIP3   OH241458   4.591   3.071   2.519 -0.5362 -0.1161  0.0232
 6656TIP3    H141459   4.655   3.021   2.570 -0.2454  1.9160  1.7352
 6656TIP3    H241460   4.506   3.037   2.548 -0.2770 -1.7226 -1.0819
 6657TIP3   OH241461   0.186   4.344   4.843  0.3484  0.1661 -0.0126
 6657TIP3    H141462   0.259   4.405   4.851 -0.7388  1.8172 -2.0293
 6657TIP3    H241463   0.117   4.381   4.897  0.3746 -0.3894  0.4060
 6658TIP3   OH241464   4.062   5.864  16.416 -0.2171  0.8009  0.2537
 6658TIP3    H141465   4.115   5.936  16.382  0.2946  0.5257  0.4590
 6658TIP3    H241466   4.057   5.802  16.343  2.1339 -0.4777  1.1268
 6659TIP3   OH241467   0.564   3.809  14.012 -0.0478 -0.0941  0.0677
 6659TIP3    H141468   0.629   3.751  13.971  0.2553 -1.7693  2.7706
 6659TIP3    H241469   0.487   3.803  13.956  1.5820  0.6756 -2.3106
 6660TIP3   OH241470   0.641   1.279  13.849  0.0728  0.1816  0.3941
 6660TIP3    H141471   0.569   1.253  13.906  1.4690 -0.7037  1.8145
 6660TIP3    H241472   0.599   1.312  13.770 -1.8937  0.4788  1.5369
 6661TIP3   OH241473   5.055   2.126   0.665 -0.4667 -0.3737  0.2875
 6661TIP3    H141474   5.105   2.045   0.679 -0.3468 -0.1582  1.1425
 6661TIP3    H241475   4.987   2.101   0.602  0.6821 -0.6835 -0.8663
 6662TIP3   OH241476   2.082   5.642   1.044  0.4484  0.3156  0.2452
 6662TIP3    H141477   2.059   5.618   1.134  0.4391  2.0169  0.7015
 6662TIP3    H241478   2.040   5.575   0.990 -3.9835  2.2538  1.1513
 6663TIP3   OH241479   0.087   0.595   6.587 -0.2412  0.0760 -0.4428
 6663TIP3    H141480   0.176   0.630   6.580 -0.4094  0.5317 -0.3225
 6663TIP3    H241481   0.037   0.646   6.524 -0.6095  0.4437  0.1508
 6664TIP3   OH241482   2.524   5.613  14.572  0.3597  0.1794  0.0607
 6664TIP3    H141483   2.499   5.557  14.645 -1.8201  2.0616  0.8026
 6664TIP3    H241484   2.460   5.594  14.504  0.9321  0.1960 -0.4907
 6665TIP3   OH241485   1.127   5.267   3.047 -0.1825  0.1910 -0.6558
 6665TIP3    H141486   1.093   5.185   3.083 -0.8296  0.6077 -0.3237
 6665TIP3    H241487   1.054   5.328   3.052  0.5279  1.0102 -0.1789
 6666TIP3   OH241488   0.786   4.171  14.916  0.2037 -0.2764 -0.8413
 6666TIP3    H141489   0.740   4.119  14.851 -2.4931 -0.2048  0.9368
 6666TIP3    H241490   0.760   4.134  15.000  1.3851  1.4190  0.3202
 6667TIP3   OH241491   4.947   2.742   0.107 -0.5628 -0.8694 -0.3680
 6667TIP3    H141492   5.013   2.701   0.051 -0.8079  1.8457 -2.7809
 6667TIP3    H241493   4.996   2.802   0.163 -0.8289  0.5281 -1.5856
 6668TIP3   OH241494   3.662   4.091  13.090  0.0176  0.2844 -0.9852
 6668TIP3    H141495   3.697   4.063  13.174  0.3900  0.6230 -1.0248
 6668TIP3    H241496   3.719   4.049  13.025 -0.1086  0.2334 -1.0652
 6669TIP3   OH241497   6.108   4.836  16.710  0.3094  0.3461  0.1613
 6669TIP3    H141498   6.118   4.800  16.622  2.8732  0.9751  0.1547
 6669TIP3    H241499   6.022   4.806  16.739  0.6200 -2.2898 -1.4498
 6670TIP3   OH241500   4.731   3.016  13.824 -0.3155 -0.1386 -0.7631
 6670TIP3    H141501   4.744   3.031  13.918 -0.6731 -1.5876 -0.4769
 6670TIP3    H241502   4.679   2.936  13.819  0.2719 -0.4465 -2.2155
 6671TIP3   OH241503   0.969   2.432   1.350 -0.8756 -0.1155  0.1103
 6671TIP3    H141504   1.023   2.388   1.284  1.0771  0.6363  1.1886
 6671TIP3    H241505   0.921   2.499   1.301 -0.9429 -0.8572 -0.8664
 6672TIP3   OH241506   6.536   3.703   0.871  0.1225  0.2072  0.2610
 6672TIP3    H141507   6.542   3.688   0.966  0.9007 -0.3077  0.1287
 6672TIP3    H241508   6.476   3.636   0.840 -0.1946  0.4244  0.3979
 6673TIP3   OH241509   1.776   2.707   1.522 -0.4515 -0.1299 -0.1095
 6673TIP3    H141510   1.791   2.658   1.603  0.1526 -0.3330 -0.3393
 6673TIP3    H241511   1.802   2.797   1.544 -1.7032  0.1292  0.3562
 6674TIP3   OH241512   6.215   3.188   1.443  0.6200  0.0835 -0.3136
 6674TIP3    H141513   6.149   3.193   1.512  1.1513  2.1565  0.0593
 6674TIP3    H241514   6.182   3.121   1.383 -1.3859  0.5016  0.3137
 6675TIP3   OH241515   4.452   0.636   4.179  0.6659 -0.1977  0.2472
 6675TIP3    H141516   4.384   0.690   4.137  0.0460  0.1032  1.6206
 6675TIP3    H241517   4.472   0.681   4.261  2.0681 -0.6439  0.1591
 6676TIP3   OH241518   0.089   0.050   1.645 -0.1666  0.0548 -0.2666
 6676TIP3    H141519   0.083   0.145   1.635 -0.3064 -0.0594 -1.3390
 6676TIP3    H241520   0.049   0.015   1.566 -0.9576 -0.9152  0.5495
 6677TIP3   OH241521   6.082   2.038   0.910 -0.6932 -0.0606 -0.4434
 6677TIP3    H141522   6.020   2.084   0.967 -0.9498  2.1572 -2.4523
 6677TIP3    H241523   6.166   2.083   0.925  0.0601 -1.7689  0.7670
 6678TIP3   OH241524   5.503   3.292  15.683 -0.0933  0.3635  0.3350
 6678TIP3    H141525   5.557   3.367  15.706 -0.3051  0.6570 -0.1290
 6678TIP3    H241526   5.413   3.322  15.693 -0.1782 -0.4496  2.1445
 6679TIP3   OH241527   4.919   1.190  15.511 -0.1073 -0.1027 -0.1583
 6679TIP3    H141528   4.848   1.254  15.498 -0.9226 -0.7961  0.7854
 6679TIP3    H241529   4.890   1.111  15.466  0.9972  0.2356 -1.5024
 6680TIP3   OH241530   6.193   5.995   1.730 -0.1945 -0.6913 -0.1114
 6680TIP3    H141531   6.195   5.979   1.636  0.3390  0.4311 -0.3047
 6680TIP3    H241532   6.280   5.970   1.761 -0.2786 -0.7974  0.0426
 6681TIP3   OH241533   4.538   3.977   4.097 -0.3845 -0.1098  0.1879
 6681TIP3    H141534   4.485   3.903   4.069  1.8300 -0.9212 -2.0515
 6681TIP3    H241535   4.502   4.052   4.049  0.2938 -0.6112 -1.1254
 6682TIP3   OH241536   1.537   2.247  11.092 -0.0308  0.2331  0.3857
 6682TIP3    H141537   1.544   2.193  11.014  0.8661  0.5502  0.2406
 6682TIP3    H241538   1.446   2.238  11.120 -0.0262 -0.8963  0.0376
 6683TIP3   OH241539   1.261   6.104   5.970 -0.2902 -0.4393 -0.0090
 6683TIP3    H141540   1.320   6.033   5.946  0.2672 -0.3627  1.1027
 6683TIP3    H241541   1.188   6.061   6.015  0.1423 -0.2975  0.8374
 6684TIP3   OH241542   5.853   5.488  13.492  0.5730  0.0876  0.0801
 6684TIP3    H141543   5.855   5.511  13.585  1.4145  0.7316 -0.0887
 6684TIP3    H241544   5.811   5.563  13.449 -0.8781 -0.7268  0.0850
 6685TIP3   OH241545   5.422   5.143   5.271  0.0996  0.0121  0.1066
 6685TIP3    H141546   5.435   5.049   5.280 -0.0141 -0.0420 -0.2681
 6685TIP3    H241547   5.472   5.167   5.192 -1.2205 -0.0240 -0.7556
 6686TIP3   OH241548   2.491   5.911   4.839  0.1028  0.5595 -0.0628
 6686TIP3    H141549   2.556   5.845   4.864 -1.4271 -0.5159  1.1845
 6686TIP3    H241550   2.467   5.889   4.749  0.4428  0.1159 -0.0463
 6687TIP3   OH241551   0.526   4.771  13.851 -0.5219  0.0773  0.2944
 6687TIP3    H141552   0.567   4.854  13.830  0.8429 -0.8467 -0.7421
 6687TIP3    H241553   0.561   4.749  13.938 -1.0834  0.6965  0.6828
 6688TIP3   OH241554   4.796   0.957  15.472  0.1664 -0.2695  0.2709
 6688TIP3    H141555   4.806   0.925  15.383  1.0902  3.3210 -1.0070
 6688TIP3    H241556   4.872   0.922  15.519  0.4480 -0.9936 -0.7191
 6689TIP3   OH241557   0.889   1.817   0.567  0.4701 -0.3267  0.2825
 6689TIP3    H141558   0.963   1.878   0.563  1.6479 -1.6410  1.6271
 6689TIP3    H241559   0.876   1.802   0.660 -2.8395  1.4529  0.1715
 6690TIP3   OH241560   0.957   3.584   0.061 -0.2564 -0.4426  0.0675
 6690TIP3    H141561   1.029   3.524   0.045  0.4528 -0.1121  1.8469
 6690TIP3    H241562   0.920   3.554   0.145 -0.3240  1.1569  0.6203
 6691TIP3   OH241563   6.102   6.334   1.133  0.2668  0.4100 -0.3813
 6691TIP3    H141564   6.081   6.362   1.044 -0.7950 -0.2746 -0.3609
 6691TIP3    H241565   6.050   6.391   1.190  0.9594  0.8599 -0.2086
 6692TIP3   OH241566   1.733   5.848  16.605 -0.2158  0.5409  0.1092
 6692TIP3    H141567   1.677   5.825  16.530 -1.4684  2.3468  0.4783
 6692TIP3    H241568   1.813   5.883  16.565  0.5113 -1.5620 -0.4062
 6693TIP3   OH241569   3.050   0.232   4.732 -0.2690  0.6646  0.2256
 6693TIP3    H141570   3.044   0.155   4.675 -0.4841  1.3965 -0.7385
 6693TIP3    H241571   3.123   0.282   4.698  0.1106  0.7076  1.0900
 6694TIP3   OH241572   1.877   5.297  12.564  0.3358 -0.0338  0.1727
 6694TIP3    H141573   1.952   5.333  12.612 -0.5672  1.5982  0.4129
 6694TIP3    H241574   1.910   5.283  12.475  0.8507  1.0265  0.1824
 6695TIP3   OH241575   2.366   3.166   1.020 -0.3579 -0.2405 -0.0080
 6695TIP3    H141576   2.364   3.094   0.956 -0.8265  2.2830 -2.9627
 6695TIP3    H241577   2.455   3.165   1.055 -0.6152 -2.7849  0.6621
 6696TIP3   OH241578   0.780   0.782  15.001 -0.0900  0.2349  0.2151
 6696TIP3    H141579   0.698   0.824  14.973 -1.3590 -3.1780 -1.4791
 6696TIP3    H241580   0.757   0.737  15.082  0.5549  0.5278  0.5670
 6697TIP3   OH241581   0.715   6.725  13.940  0.0980 -0.2429  0.7858
 6697TIP3    H141582   0.715   6.734  13.845  0.6026 -0.3473  0.7697
 6697TIP3    H241583   0.671   6.804  13.972 -2.4135 -1.4415  0.3776
 6698TIP3   OH241584   1.202   1.348  14.787 -0.1107 -0.0281 -0.2377
 6698TIP3    H141585   1.270   1.311  14.844 -1.5780 -1.8420  0.3886
 6698TIP3    H241586   1.141   1.391  14.847  0.2494  1.2022 -0.7568
 6699TIP3   OH241587   1.456   5.138   0.386  0.4645  0.2320  0.3278
 6699TIP3    H141588   1.464   5.214   0.444  0.7558 -0.3146  1.0161
 6699TIP3    H241589   1.415   5.070   0.440 -1.6079  0.4951 -0.8435
 6700TIP3   OH241590   0.297   1.066  10.508  0.0860 -0.3038  0.0554
 6700TIP3    H141591   0.203   1.056  10.520 -0.0116  0.9073  0.3096
 6700TIP3    H241592   0.335   1.045  10.594 -0.0035 -0.1382  0.1364
 6701TIP3   OH241593   0.623   4.114   1.458  0.0593  0.0401 -0.0129
 6701TIP3    H141594   0.575   4.032   1.445  1.4217 -0.8928  0.6874
 6701TIP3    H241595   0.556   4.181   1.466 -1.0795 -1.0471 -0.3411
 6702TIP3   OH241596   2.472   3.302   0.706  0.4519  0.1633 -0.4866
 6702TIP3    H141597   2.457   3.207   0.708  0.4997  0.1108 -2.2656
 6702TIP3    H241598   2.563   3.312   0.680 -0.2028  0.7266 -2.6233
 6703TIP3   OH241599   2.899   2.351  16.961  0.1239 -0.0309 -0.3955
 6703TIP3    H141600   2.876   2.327  17.051 -1.2920  1.3288 -0.3646
 6703TIP3    H241601   2.972   2.412  16.970 -0.8148  1.0638 -0.0838
 6704TIP3   OH241602   0.410   5.356  11.723  0.4383 -0.0861  0.2061
 6704TIP3    H141603   0.368   5.285  11.772  0.0754 -0.1160 -0.1467
 6704TIP3    H241604   0.396   5.333  11.631 -0.4673  0.9045  0.0937
 6705TIP3   OH241605   2.869   5.895   2.330 -0.0586 -0.0525  0.1362
 6705TIP3    H141606   2.801   5.827   2.331 -0.2467  0.1162 -0.7305
 6705TIP3    H241607   2.951   5.846   2.322  0.0015 -0.3028  2.1220
 6706TIP3   OH241608   5.563   6.211   3.323 -0.4563  0.1858  0.3120
 6706TIP3    H141609   5.584   6.220   3.416  2.4223 -2.7124  0.0315
 6706TIP3    H241610   5.622   6.272   3.279  0.2024 -0.5422  0.1893
 6707TIP3   OH241611   4.927   2.943   2.039 -0.2294  0.3307 -0.7153
 6707TIP3    H141612   4.971   2.990   1.968  1.0739  0.4413  0.1427
 6707TIP3    H241613   4.908   3.010   2.105  1.4668 -0.2796  0.4291
 6708TIP3   OH241614   1.469   5.625   1.403  0.3052 -0.5386  0.0110
 6708TIP3    H141615   1.547   5.679   1.418 -1.4537  1.4823  2.4691
 6708TIP3    H241616   1.408   5.684   1.358 -0.6921 -1.3029  0.3433
 6709TIP3   OH241617   3.826   5.726   1.677 -0.1738  0.2494 -0.0222
 6709TIP3    H141618   3.773   5.689   1.747 -0.9727  0.0918 -0.6992
 6709TIP3    H241619   3.893   5.659   1.659 -1.5059 -0.8082 -1.1272
 6710TIP3   OH241620   1.486   2.080  13.075 -0.3155 -0.0192  0.1545
 6710TIP3    H141621   1.454   2.168  13.092 -0.1118  0.1201 -0.1886
 6710TIP3    H241622   1.555   2.066  13.139 -0.7482 -0.1507  0.5964
 6711TIP3   OH241623   2.515   4.597  17.248 -0.5512  0.1197  0.3958
 6711TIP3    H141624   2.482   4.514  17.284 -0.6270 -0.2222 -0.4219
 6711TIP3    H241625   2.440   4.634  17.202  0.1712 -0.6532 -1.4650
 6712TIP3   OH241626   0.742   1.693   5.041  0.3049 -0.4321  0.0018
 6712TIP3    H141627   0.818   1.635   5.038  0.6055 -0.0910  0.9784
 6712TIP3    H241628   0.722   1.702   5.134 -0.3930  0.1905 -0.2031
 6713TIP3   OH241629   4.135   3.654   0.357 -0.6759  0.3448 -0.1001
 6713TIP3    H141630   4.142   3.668   0.451 -2.2241  0.8541 -0.0371
 6713TIP3    H241631   4.047   3.685   0.335 -0.7953 -0.9232 -1.5023
 6714TIP3   OH241632   4.725   3.562  11.702 -0.1212  0.5451 -0.6300
 6714TIP3    H141633   4.744   3.528  11.790 -2.8512  1.1617  0.2546
 6714TIP3    H241634   4.791   3.629  11.688 -0.1155  0.9942  1.3186
 6715TIP3   OH241635   5.864   0.093  10.518  0.2173  0.3299 -0.0074
 6715TIP3    H141636   5.873   0.014  10.465 -1.5702 -0.8146  1.3314
 6715TIP3    H241637   5.796   0.144  10.473  0.1990  0.3473  0.0387
 6716TIP3   OH241638   1.408   2.289  12.723  0.2683  0.3673 -0.5488
 6716TIP3    H141639   1.442   2.249  12.643  1.8806 -1.4914  0.9894
 6716TIP3    H241640   1.348   2.223  12.759  0.5749  0.6213  0.4385
 6717TIP3   OH241641   4.009   6.174   6.219 -0.0587 -0.0193  0.3802
 6717TIP3    H141642   4.092   6.172   6.266  0.1714  1.8288  0.0898
 6717TIP3    H241643   3.974   6.085   6.227  0.8477 -0.2121  2.4539
 6718TIP3   OH241644   2.458   3.300  12.128 -0.0596 -0.0073 -0.4139
 6718TIP3    H141645   2.548   3.283  12.099 -0.2189  1.0315 -1.5432
 6718TIP3    H241646   2.417   3.213  12.128  1.1225 -0.5985  0.8201
 6719TIP3   OH241647   3.759   0.625  16.683 -0.1112 -0.0418 -0.2336
 6719TIP3    H141648   3.731   0.659  16.768 -1.2039 -2.1323  0.2827
 6719TIP3    H241649   3.678   0.612  16.635  0.2925 -1.5520 -0.5309
 6720TIP3   OH241650   0.340   2.408   4.575 -0.1109 -0.9612 -0.5237
 6720TIP3    H141651   0.275   2.438   4.511 -0.8050 -0.8862  0.2170
 6720TIP3    H241652   0.361   2.485   4.627  1.0496 -0.8350 -1.1582
 6721TIP3   OH241653   1.689   1.421  15.570 -0.1222  0.5548 -0.2056
 6721TIP3    H141654   1.625   1.448  15.505  1.8730  4.3913 -0.7381
 6721TIP3    H241655   1.654   1.451  15.653 -0.4892 -0.1263 -0.1204
 6722TIP3   OH241656   3.755   2.399  15.138 -0.5063 -0.6070  0.3040
 6722TIP3    H141657   3.821   2.452  15.093 -0.8663 -0.6729 -0.3068
 6722TIP3    H241658   3.699   2.462  15.182 -1.9283 -0.3594 -1.7691
 6723TIP3   OH241659   4.986   0.891  14.130 -0.7804 -0.3905  0.5813
 6723TIP3    H141660   4.956   0.800  14.125  1.3730 -1.3104  2.8100
 6723TIP3    H241661   5.076   0.884  14.164 -0.4117  2.5602  0.3453
 6724TIP3   OH241662   1.412   6.307   5.350 -0.3840  0.4190 -0.2323
 6724TIP3    H141663   1.335   6.351   5.384 -0.5570  0.0113 -0.0909
 6724TIP3    H241664   1.410   6.323   5.256  1.1387  3.1996  0.1592
 6725TIP3   OH241665   2.434   2.963  13.223 -0.0010 -0.7696  0.2578
 6725TIP3    H141666   2.479   3.047  13.228  1.0121 -1.3563  1.0371
 6725TIP3    H241667   2.419   2.937  13.314  0.1189 -1.6626  0.0280
 6726TIP3   OH241668   1.736   3.643  13.834  1.1875  0.0649 -0.4500
 6726TIP3    H141669   1.726   3.641  13.929  0.5117  0.9762 -0.4901
 6726TIP3    H241670   1.814   3.590  13.817  0.5030 -1.2720  0.4873
 6727TIP3   OH241671   1.180   5.587  12.170 -0.7945  0.5146  0.1646
 6727TIP3    H141672   1.145   5.498  12.176  0.8011 -0.1321  0.2351
 6727TIP3    H241673   1.169   5.624  12.258 -1.4746  0.3920  0.1281
 6728TIP3   OH241674   3.787   1.752  13.063  0.6438 -0.0358  0.4535
 6728TIP3    H141675   3.874   1.763  13.024  0.4697 -1.2673 -0.3110
 6728TIP3    H241676   3.803   1.703  13.144  0.3133 -3.7775 -1.6202
 6729TIP3   OH241677   3.322   4.395  15.347  0.4345 -0.6992  0.6516
 6729TIP3    H141678   3.394   4.351  15.391 -1.6543 -2.4953  2.4155
 6729TIP3    H241679   3.321   4.484  15.384  2.1862 -0.4294  0.0538
 6730TIP3   OH241680   1.071   0.813  11.945  0.3098  0.8625  1.0858
 6730TIP3    H141681   1.160   0.833  11.973  0.5518  2.3379 -0.6508
 6730TIP3    H241682   1.079   0.794  11.852 -1.0417 -0.1315  1.1520
 6731TIP3   OH241683   3.434   3.093  15.985  0.4961  0.5857 -0.1637
 6731TIP3    H141684   3.468   3.167  15.935  1.1377  0.3880 -0.0280
 6731TIP3    H241685   3.447   3.119  16.077  2.4894 -0.4972 -0.1251
 6732TIP3   OH241686   1.045   1.931   2.225  0.3175  0.5286  0.4221
 6732TIP3    H141687   0.979   1.893   2.283  0.0563  2.4627  1.4204
 6732TIP3    H241688   1.002   1.934   2.139 -0.6266  1.0509  0.9053
 6733TIP3   OH241689   6.712   1.336   2.720 -0.0741  0.1724  0.1789
 6733TIP3    H141690   6.784   1.337   2.782  0.8742 -0.7966 -0.8787
 6733TIP3    H241691   6.695   1.243   2.704 -1.3460  0.3932  0.1783
 6734TIP3   OH241692   3.772   3.709   3.484 -0.2418 -0.0863 -0.0772
 6734TIP3    H141693   3.734   3.769   3.549  0.6359  0.4832 -0.0722
 6734TIP3    H241694   3.725   3.729   3.403 -0.3462  0.2224  0.0560
 6735TIP3   OH241695   5.430   2.323  13.381 -0.0478 -0.2826 -0.4054
 6735TIP3    H141696   5.427   2.230  13.403 -0.5043 -0.3222 -0.6250
 6735TIP3    H241697   5.520   2.337  13.350  0.0947 -0.5927 -0.1427
 6736TIP3   OH241698   3.119   0.519   1.847 -0.0590 -0.1124 -0.5685
 6736TIP3    H141699   3.181   0.462   1.893 -1.9570 -0.6695  1.3371
 6736TIP3    H241700   3.108   0.478   1.761  0.4072 -1.2914 -0.0752
 6737TIP3   OH241701   4.676   4.218   2.952  0.1224  0.4637 -0.3313
 6737TIP3    H141702   4.720   4.183   3.030 -1.1319 -0.0035  0.1707
 6737TIP3    H241703   4.656   4.140   2.899  1.2949  0.8065 -1.3057
 6738TIP3   OH241704   6.244   5.932  13.546  0.1120  0.2089  0.5979
 6738TIP3    H141705   6.156   5.971  13.551 -0.2189  0.1817 -3.1510
 6738TIP3    H241706   6.303   6.007  13.542  0.0021  0.2811  0.2417
 6739TIP3   OH241707   5.806   3.584  12.773  0.6360  0.4353 -0.5189
 6739TIP3    H141708   5.759   3.507  12.739  1.6171  0.3267 -1.6581
 6739TIP3    H241709   5.894   3.576  12.736  0.1692  3.2101 -2.3289
 6740TIP3   OH241710   3.398   0.353   5.490  0.2563 -0.2569  0.2634
 6740TIP3    H141711   3.385   0.358   5.585  0.3549  3.2105  0.1750
 6740TIP3    H241712   3.315   0.384   5.453  0.7907  0.0088 -0.7348
 6741TIP3   OH241713   5.797   5.366   3.014  0.5002 -0.2238  0.1335
 6741TIP3    H141714   5.848   5.286   3.026  1.1510  0.2577  0.6009
 6741TIP3    H241715   5.789   5.375   2.919  1.1046 -0.4175  0.0622
 6742TIP3   OH241716   5.476   4.377   5.759  0.4928  0.2818 -0.0017
 6742TIP3    H141717   5.475   4.340   5.847 -0.4364 -0.6400 -0.3837
 6742TIP3    H241718   5.389   4.417   5.749  0.8838  1.0938 -0.2067
 6743TIP3   OH241719   2.204   4.678  12.807 -0.2344 -0.1658  0.0952
 6743TIP3    H141720   2.174   4.762  12.773 -0.4280 -0.1982  0.1837
 6743TIP3    H241721   2.125   4.623  12.808 -0.0084 -0.5094 -0.4493
 6744TIP3   OH241722   3.357   2.853  12.731  0.3366 -0.7509 -0.7246
 6744TIP3    H141723   3.424   2.917  12.706  1.8846 -1.5672  1.2127
 6744TIP3    H241724   3.353   2.793  12.657  0.5080  0.2832 -1.5871
 6745TIP3   OH241725   5.910   2.051   1.559  0.4929  0.0885  0.4790
 6745TIP3    H141726   5.927   2.142   1.536  3.1143 -0.6527 -0.5895
 6745TIP3    H241727   5.941   2.043   1.649  0.2882  0.2224  0.5633
 6746TIP3   OH241728   0.292   5.275   5.137  0.3893  0.0257  0.1408
 6746TIP3    H141729   0.288   5.198   5.195  1.0524  0.4100  0.6952
 6746TIP3    H241730   0.245   5.343   5.185 -4.2071 -1.2404 -2.2628
 6747TIP3   OH241731   5.764   6.026   5.968  0.3550  0.3951 -0.4804
 6747TIP3    H141732   5.683   5.998   6.010  0.6555  1.1996  0.6799
 6747TIP3    H241733   5.822   5.950   5.973 -0.7791 -0.6209 -2.5349
 6748TIP3   OH241734   2.298   3.748  17.268 -0.3762 -0.0461 -0.2234
 6748TIP3    H141735   2.237   3.723  17.199  0.5274 -1.2167 -0.6168
 6748TIP3    H241736   2.323   3.666  17.310 -0.5661  0.6100  1.2082
 6749TIP3   OH241737   5.310   2.876   5.434 -0.9421 -0.3443  0.3507
 6749TIP3    H141738   5.230   2.835   5.468 -0.3524 -1.2009  0.7336
 6749TIP3    H241739   5.349   2.808   5.379 -0.5984  0.1613 -0.0296
 6750TIP3   OH241740   0.549   1.005   1.512  0.0522 -0.4936  0.1577
 6750TIP3    H141741   0.473   1.046   1.469  0.0768 -1.8910 -1.2670
 6750TIP3    H241742   0.623   1.028   1.456  0.3666 -0.8645  0.4211
 6751TIP3   OH241743   3.855   2.044  13.668 -0.1207 -0.0652  0.5019
 6751TIP3    H141744   3.833   2.068  13.578  0.3040  0.1208  0.4466
 6751TIP3    H241745   3.774   2.006  13.703  0.4745 -2.6685 -0.8087
 6752TIP3   OH241746   1.100   5.595  16.189 -0.2064 -0.1420  0.5466
 6752TIP3    H141747   1.150   5.565  16.266  1.3761 -0.2910 -0.5162
 6752TIP3    H241748   1.147   5.672  16.159  1.0291 -1.8513 -2.0907
 6753TIP3   OH241749   1.988   0.468  11.509 -0.0041 -0.5388 -0.6326
 6753TIP3    H141750   1.974   0.442  11.417  0.5960 -0.1289 -0.8403
 6753TIP3    H241751   2.044   0.545  11.504  1.0770 -1.2731  0.1341
 6754TIP3   OH241752   4.906   4.692  14.665  0.6434  0.3486 -0.2435
 6754TIP3    H141753   4.889   4.746  14.743 -0.1314 -1.3177  0.7812
 6754TIP3    H241754   4.972   4.629  14.694  1.6648  0.8420 -1.4815
 6755TIP3   OH241755   0.969   1.693   3.708  0.0528  0.0993 -0.1458
 6755TIP3    H141756   0.954   1.735   3.623 -1.0594 -3.2154 -1.6490
 6755TIP3    H241757   0.883   1.695   3.751 -0.0717 -0.8754 -0.3415
 6756TIP3   OH241758   3.255   1.900  12.269  0.7153 -0.1713  0.1049
 6756TIP3    H141759   3.179   1.847  12.292 -0.1415  0.2066 -1.7565
 6756TIP3    H241760   3.314   1.840  12.225  1.1561 -0.2886  0.8521
 6757TIP3   OH241761   0.936   1.015  15.807 -0.0046  0.1044 -0.0951
 6757TIP3    H141762   0.887   1.096  15.810  0.8436  0.7618 -2.7685
 6757TIP3    H241763   1.027   1.042  15.792  0.5696 -1.2517  0.8439
 6758TIP3   OH241764   0.027   0.234  16.779 -0.0302 -0.6715 -0.3703
 6758TIP3    H141765   0.118   0.220  16.752  0.5992  0.1515  1.2461
 6758TIP3    H241766  -0.022   0.164  16.736  1.4043 -1.2880 -1.0310
 6759TIP3   OH241767   0.179   0.760   2.240  0.1579 -0.2521 -0.0304
 6759TIP3    H141768   0.252   0.713   2.200  0.7900  1.0117 -0.4029
 6759TIP3    H241769   0.207   0.777   2.330  0.9325  1.4112 -0.5485
 6760TIP3   OH241770   2.655   0.415  15.431 -0.5412  0.1031  0.1189
 6760TIP3    H141771   2.734   0.464  15.454  0.6378 -0.4859 -2.4869
 6760TIP3    H241772   2.648   0.348  15.499  1.7867 -0.4628 -0.1428
 6761TIP3   OH241773   5.463   3.544  13.257 -0.4984  0.0015  0.4270
 6761TIP3    H141774   5.454   3.499  13.342  0.5936  0.8316  0.9990
 6761TIP3    H241775   5.375   3.574  13.237 -0.7015  0.1210  1.4554
 6762TIP3   OH241776   0.455   4.844   4.084  0.0852  0.3764 -0.2579
 6762TIP3    H141777   0.440   4.867   3.992  0.8847  1.8415 -0.0345
 6762TIP3    H241778   0.428   4.921   4.133  0.5387 -0.0544  0.6873
 6763TIP3   OH241779   0.188   6.020   1.229 -0.2271  0.1194 -0.3321
 6763TIP3    H141780   0.112   6.071   1.257 -0.9355 -1.2087  0.2017
 6763TIP3    H241781   0.195   6.038   1.135  0.2066  2.0589  0.0473
 6764TIP3   OH241782   2.112   4.306   1.094 -0.1441  0.2904  0.3257
 6764TIP3    H141783   2.136   4.397   1.116  2.0795  0.0833 -1.0492
 6764TIP3    H241784   2.196   4.259   1.094 -0.9068 -1.1393 -1.8406
 6765TIP3   OH241785   0.680   4.401  12.122  0.4002 -0.2938  1.0810
 6765TIP3    H141786   0.589   4.371  12.114  0.1527  0.6648  0.1383
 6765TIP3    H241787   0.732   4.321  12.121 -0.1317 -0.6970 -3.1277
 6766TIP3   OH241788   2.833   2.875  16.989 -0.2475 -0.0320 -0.4775
 6766TIP3    H141789   2.814   2.812  16.919 -0.8028  0.0679 -0.4211
 6766TIP3    H241790   2.822   2.960  16.948 -1.0609  0.0283 -0.1398
 6767TIP3   OH241791   3.172   0.261  15.779  0.2808 -0.5124  0.5227
 6767TIP3    H141792   3.196   0.301  15.863 -2.0731  3.0915 -0.4181
 6767TIP3    H241793   3.104   0.198  15.802  0.5798 -0.4925  1.4879
 6768TIP3   OH241794   6.405   4.136   3.224  0.1051 -0.3895 -0.1806
 6768TIP3    H141795   6.495   4.164   3.239 -0.1865 -0.3560  1.6337
 6768TIP3    H241796   6.412   4.059   3.167  1.2660 -0.4037 -0.0224
 6769TIP3   OH241797   4.493   0.656   3.485  0.4725 -0.3700 -0.0550
 6769TIP3    H141798   4.563   0.652   3.550  0.6865  0.6304 -0.2139
 6769TIP3    H241799   4.534   0.695   3.408  0.3269 -1.9365 -0.9307
 6770TIP3   OH241800   5.694   3.530  16.866  0.2359 -0.4288 -0.0575
 6770TIP3    H141801   5.704   3.599  16.800  1.8303 -1.7036 -1.1965
 6770TIP3    H241802   5.714   3.574  16.949 -1.7741  1.1846 -0.3927
 6771TIP3   OH241803   3.928   1.337   6.742 -0.0177  0.5298 -0.5442
 6771TIP3    H141804   3.894   1.402   6.804 -0.6218 -0.1363 -0.1650
 6771TIP3    H241805   3.856   1.323   6.680 -0.2532 -0.4747 -0.0640
 6772TIP3   OH241806   0.076   5.995   1.942 -0.2033  0.0987  0.1689
 6772TIP3    H141807   0.154   6.034   1.902  0.0684 -0.7393 -0.1533
 6772TIP3    H241808   0.107   5.957   2.024 -0.1122 -0.8309 -0.2797
 6773TIP3   OH241809   2.001   0.806   4.369  0.0658  0.5019  0.4607
 6773TIP3    H141810   1.935   0.737   4.362 -0.0148  0.3696  2.2606
 6773TIP3    H241811   2.035   0.816   4.280 -2.0912  0.2959 -0.4144
 6774TIP3   OH241812   4.063   5.922  11.004 -0.3113 -0.2725  0.5300
 6774TIP3    H141813   4.111   5.975  10.941  0.6688  0.3752  1.8250
 6774TIP3    H241814   3.971   5.931  10.977  0.1185 -0.3164 -1.0307
 6775TIP3   OH241815   6.491   6.711  15.527 -0.0631  0.1639  0.0299
 6775TIP3    H141816   6.414   6.654  15.525 -1.7139  2.1741  2.3390
 6775TIP3    H241817   6.484   6.763  15.447 -1.2296  0.4620  0.3165
 6776TIP3   OH241818   4.516   2.049   5.334  0.4579 -0.0419 -0.2258
 6776TIP3    H141819   4.524   1.997   5.415 -3.0816  1.1670  0.9719
 6776TIP3    H241820   4.520   2.140   5.364  4.3856  0.5003 -2.0735
 6777TIP3   OH241821   2.779   0.739  16.059  0.5483 -0.0704 -0.3863
 6777TIP3    H141822   2.692   0.761  16.093  0.1080  1.5999 -2.4658
 6777TIP3    H241823   2.788   0.645  16.074 -2.0719 -0.4737 -1.1004
 6778TIP3   OH241824   5.508   0.613  11.058  0.1705 -0.4305  0.1743
 6778TIP3    H141825   5.536   0.623  11.149  0.5858  0.6721 -0.0661
 6778TIP3    H241826   5.412   0.617  11.062  0.1087 -1.9869  0.7389
 6779TIP3   OH241827   6.779   2.250  15.604  0.1259  0.7300  0.1542
 6779TIP3    H141828   6.732   2.333  15.601 -0.4389  0.4778  1.5575
 6779TIP3    H241829   6.720   2.187  15.563  0.1176  0.8215  0.0272
 6780TIP3   OH241830   3.674   1.017  15.057 -0.5494 -0.5069 -0.2626
 6780TIP3    H141831   3.746   1.062  15.100  0.2526 -1.6946 -0.3247
 6780TIP3    H241832   3.597   1.070  15.077  0.0018 -0.3671  1.6062
 6781TIP3   OH241833   4.215   0.049   4.902  0.1621  0.2214 -0.0988
 6781TIP3    H141834   4.294   0.103   4.902  1.5489 -1.6592 -3.3027
 6781TIP3    H241835   4.144   0.110   4.920  2.1442  2.2752  0.9906
 6782TIP3   OH241836   4.072   2.891  15.942  0.1334 -0.3692  0.4962
 6782TIP3    H141837   4.031   2.893  15.856  0.0583 -0.7872  0.5224
 6782TIP3    H241838   4.080   2.798  15.963  0.7285 -0.2841  0.6657
 6783TIP3   OH241839   2.664   0.690  16.914 -0.0717 -0.3016 -0.6133
 6783TIP3    H141840   2.592   0.653  16.966  0.3090  0.0868  0.1985
 6783TIP3    H241841   2.734   0.625  16.921  1.2147  1.2926  2.2279
 6784TIP3   OH241842   3.451   3.944  11.066  0.1736 -0.3236  0.4713
 6784TIP3    H141843   3.474   3.860  11.026 -0.4021 -0.1822 -0.1701
 6784TIP3    H241844   3.481   3.937  11.157  0.1710 -1.2010  0.4054
 6785TIP3   OH241845   2.396   3.779   1.358 -0.8111 -0.4062 -0.2314
 6785TIP3    H141846   2.428   3.832   1.286  1.5338 -1.3197  0.0867
 6785TIP3    H241847   2.432   3.820   1.437 -0.9884 -1.0453  0.1944
 6786TIP3   OH241848   1.191   6.556   3.936 -0.3235  0.7767 -0.4788
 6786TIP3    H141849   1.143   6.515   4.008  1.1463 -0.2746 -0.0685
 6786TIP3    H241850   1.204   6.485   3.873  3.6699  0.0995  0.9645
 6787TIP3   OH241851   0.117   2.454   1.781 -0.4741 -0.4462  0.3847
 6787TIP3    H141852   0.125   2.490   1.693  0.7040 -2.0868 -0.1963
 6787TIP3    H241853   0.207   2.435   1.808 -0.5370  2.4979  3.0210
 6788TIP3   OH241854   0.168   3.596   4.479  0.5698 -0.2276  0.0847
 6788TIP3    H141855   0.248   3.604   4.427 -0.4476  0.7788 -1.3537
 6788TIP3    H241856   0.178   3.512   4.524  2.6962  0.1643  0.4036
 6789TIP3   OH241857   3.355   4.116   0.396 -0.3837 -0.5160  0.8954
 6789TIP3    H141858   3.261   4.124   0.380 -0.1876  0.4197  0.1712
 6789TIP3    H241859   3.367   4.147   0.485 -0.5011  1.2465  0.3107
 6790TIP3   OH241860   3.740   2.762  14.057 -0.4567 -0.1593 -0.3557
 6790TIP3    H141861   3.804   2.805  14.000  0.6114 -1.7942 -0.4152
 6790TIP3    H241862   3.675   2.725  13.998  0.5985 -1.7707 -0.5378
 6791TIP3   OH241863   1.267   2.294   4.832 -0.1659 -0.3571  0.2432
 6791TIP3    H141864   1.337   2.247   4.786 -0.2148 -1.1391  0.9649
 6791TIP3    H241865   1.186   2.251   4.803 -0.5384  1.7482 -2.0594
 6792TIP3   OH241866   4.922   1.441   2.426  0.2581 -0.1955 -0.0000
 6792TIP3    H141867   4.979   1.510   2.392  0.0284  0.2566  0.5115
 6792TIP3    H241868   4.926   1.451   2.521  0.0896 -0.7802  0.0720
 6793TIP3   OH241869   3.282   6.189   2.407 -0.1667  0.4706  0.1530
 6793TIP3    H141870   3.204   6.136   2.425 -0.3547  0.5294 -0.4738
 6793TIP3    H241871   3.249   6.278   2.396 -0.0990  0.3837 -0.7866
 6794TIP3   OH241872   4.973   1.913   4.793  0.1980  0.1134  0.1744
 6794TIP3    H141873   5.056   1.955   4.771 -0.5524  1.2908 -0.4746
 6794TIP3    H241874   4.927   1.978   4.847 -0.2158 -0.6152  0.7147
 6795TIP3   OH241875   6.381   2.470   3.643  0.1362 -0.4799 -0.5329
 6795TIP3    H141876   6.451   2.423   3.686  0.6779  0.9741  0.1881
 6795TIP3    H241877   6.312   2.476   3.709  0.1266 -0.1143 -0.5791
 6796TIP3   OH241878   2.621   5.667   3.274  0.0930 -0.3772 -0.3051
 6796TIP3    H141879   2.690   5.656   3.340  0.3140 -0.7209 -0.5925
 6796TIP3    H241880   2.568   5.740   3.307  0.4746 -0.2429  0.0208
 6797TIP3   OH241881   3.762   3.647   3.858 -0.2992  0.2898  0.1044
 6797TIP3    H141882   3.746   3.557   3.885 -0.2662  1.2231  3.4496
 6797TIP3    H241883   3.676   3.689   3.858 -0.1662  0.5673 -0.2381
 6798TIP3   OH241884   4.968   2.519  12.120  0.4779  0.4043  0.7517
 6798TIP3    H141885   4.886   2.505  12.074  0.0180  1.9891  1.0662
 6798TIP3    H241886   4.954   2.481  12.206  0.1579  0.4407  0.7172
 6799TIP3   OH241887   1.873   2.066  16.665  0.5176 -0.6172 -0.6383
 6799TIP3    H141888   1.910   2.154  16.663 -0.2788 -0.2796 -0.8026
 6799TIP3    H241889   1.839   2.052  16.577  0.0773 -0.8444 -0.4351
 6800TIP3   OH241890   6.464   6.325   2.297 -0.4263  0.8176 -0.5710
 6800TIP3    H141891   6.436   6.416   2.283 -0.6431  0.8376 -0.0034
 6800TIP3    H241892   6.386   6.280   2.328  0.3085  1.0204  1.6509
 6801TIP3   OH241893   1.891   6.694   2.202  0.3612 -0.0630  0.1313
 6801TIP3    H141894   1.979   6.675   2.170  0.5153 -1.8452  1.5039
 6801TIP3    H241895   1.899   6.780   2.243  0.8876  0.8415 -1.8201
 6802TIP3   OH241896   2.232   6.033  16.163  0.6783  0.1080 -0.0519
 6802TIP3    H141897   2.184   6.114  16.144 -2.2785 -1.1697  1.6791
 6802TIP3    H241898   2.265   6.045  16.252  2.6743  0.5316 -0.8355
 6803TIP3   OH241899   2.133   6.371  13.997 -0.3448 -0.5275 -0.4122
 6803TIP3    H141900   2.159   6.311  13.927  0.1247 -1.2777  0.3953
 6803TIP3    H241901   2.163   6.328  14.077 -1.6108 -0.0715  0.3165
 6804TIP3   OH241902   1.029   2.797   1.964 -0.9695 -0.1619  0.6174
 6804TIP3    H141903   1.108   2.757   2.000 -1.4301 -1.7623 -0.0894
 6804TIP3    H241904   1.057   2.883   1.934  0.6584 -0.9259 -0.1379
 6805TIP3   OH241905   5.060   5.703   3.511  0.3380 -0.5625 -0.5722
 6805TIP3    H141906   5.049   5.783   3.563 -1.6056  0.3583 -2.3511
 6805TIP3    H241907   5.144   5.667   3.541  0.3131  1.0978  1.6369
 6806TIP3   OH241908   3.795   2.801   5.146 -0.3179 -0.4286 -0.1615
 6806TIP3    H141909   3.766   2.815   5.236 -0.3812 -0.2571 -0.2074
 6806TIP3    H241910   3.881   2.843   5.141 -0.5360  0.0082 -0.3164
 6807TIP3   OH241911   2.788   6.280   0.856  0.1174  0.0454 -0.2085
 6807TIP3    H141912   2.782   6.190   0.889 -1.0176  0.6924  1.3984
 6807TIP3    H241913   2.872   6.283   0.810  0.6804 -1.5181  0.6896
 6808TIP3   OH241914   3.315   6.364  13.325  0.2265  0.3010  0.4337
 6808TIP3    H141915   3.327   6.455  13.352 -0.4547  0.4641  0.1944
 6808TIP3    H241916   3.228   6.341  13.357 -0.1339  0.1395 -0.6686
 6809TIP3   OH241917   4.267   0.814  12.811  0.3482 -0.5182  0.4322
 6809TIP3    H141918   4.261   0.751  12.883 -1.1340 -2.6145 -1.4325
 6809TIP3    H241919   4.219   0.890  12.843  1.1786 -0.7515  2.3089
 6810TIP3   OH241920   1.470   0.158  15.053  0.1407 -0.5302  0.0160
 6810TIP3    H141921   1.563   0.139  15.043  0.5501  1.0687  0.6418
 6810TIP3    H241922   1.436   0.159  14.963  1.4711  2.4181 -0.5052
 6811TIP3   OH241923   1.154   3.919   2.900 -0.5370  0.2945 -0.8174
 6811TIP3    H141924   1.183   3.951   2.985 -1.0160  1.3877 -1.0507
 6811TIP3    H241925   1.168   3.825   2.903 -0.8211  0.2926  0.5738
 6812TIP3   OH241926   1.988   5.000  17.261  0.0238  0.0668 -0.0792
 6812TIP3    H141927   1.986   4.914  17.303 -4.3757 -0.9035 -2.0113
 6812TIP3    H241928   2.044   4.987  17.184 -0.8643 -1.2098 -0.5403
 6813TIP3   OH241929   2.225   1.672  15.930 -0.1980 -0.4682 -0.4033
 6813TIP3    H141930   2.134   1.658  15.956 -0.5959  0.4769 -1.2164
 6813TIP3    H241931   2.246   1.760  15.964  0.2951 -0.5373 -0.5243
 6814TIP3   OH241932   0.475   2.691   5.481  0.2132  0.1707  0.4729
 6814TIP3    H141933   0.416   2.624   5.515 -0.5688 -0.3432 -1.7914
 6814TIP3    H241934   0.557   2.645   5.465 -1.0138 -0.8605 -3.2696
 6815TIP3   OH241935   1.507   3.869   0.069  0.2690 -0.4008 -0.2331
 6815TIP3    H141936   1.495   3.777   0.045 -0.1543  0.1478 -2.1908
 6815TIP3    H241937   1.473   3.918  -0.006 -0.1785  1.3668  1.1083
 6816TIP3   OH241938   2.633   6.697  15.813 -0.1645  0.1636 -0.2112
 6816TIP3    H141939   2.631   6.774  15.869  0.3245 -1.1113  1.6040
 6816TIP3    H241940   2.725   6.671  15.811 -0.4368 -0.8299 -0.1643
 6817TIP3   OH241941   4.701   3.599   1.366 -0.3259  0.0268 -0.5432
 6817TIP3    H141942   4.733   3.668   1.424  0.0032 -0.2077 -0.4406
 6817TIP3    H241943   4.639   3.643   1.308 -1.5027  0.0413  0.7016
 6818TIP3   OH241944   6.358   6.816   5.584  0.4003  0.3649  0.1058
 6818TIP3    H141945   6.417   6.745   5.608  0.7243  0.6878  0.2743
 6818TIP3    H241946   6.292   6.817   5.653 -1.1509 -1.5066 -1.2960
 6819TIP3   OH241947   0.432   0.260   5.394  0.1883 -0.7786  0.6176
 6819TIP3    H141948   0.516   0.215   5.388  1.5679  1.7905 -0.1345
 6819TIP3    H241949   0.441   0.336   5.336 -3.3697 -1.5090 -1.0227
 6820TIP3   OH241950   2.716   3.286   1.689  0.0650  0.1404  0.8503
 6820TIP3    H141951   2.807   3.282   1.718  0.1250 -3.4838  0.3471
 6820TIP3    H241952   2.718   3.253   1.599 -1.5630  1.6227  0.2272
 6821TIP3   OH241953   0.889   5.441  16.726  0.5795 -0.1904 -0.5794
 6821TIP3    H141954   0.823   5.373  16.737 -0.5671  0.8268 -0.9456
 6821TIP3    H241955   0.839   5.517  16.694  1.2361  1.9583  3.2038
 6822TIP3   OH241956   1.653   0.421  15.990  0.0638 -0.1242 -0.0740
 6822TIP3    H141957   1.652   0.501  15.937 -0.5367  0.4645  0.7987
 6822TIP3    H241958   1.592   0.362  15.946 -0.9729  0.6222  0.3328
 6823TIP3   OH241959   1.437   0.305  16.696  0.8126 -0.0724 -0.3740
 6823TIP3    H141960   1.384   0.294  16.617  1.0207 -1.1588 -0.3745
 6823TIP3    H241961   1.513   0.247  16.682  0.8204 -0.3247  0.6447
 6824TIP3   OH241962   0.414   0.126   1.067  0.0258  0.3821 -0.3475
 6824TIP3    H141963   0.437   0.158   0.979 -0.3014  1.0543 -0.1913
 6824TIP3    H241964   0.358   0.195   1.103  0.4329  0.2562  0.5170
 6825TIP3   OH241965   5.424   1.321   4.126 -0.3596  0.1547  0.2219
 6825TIP3    H141966   5.384   1.373   4.056  0.1970 -0.1717 -0.3341
 6825TIP3    H241967   5.349   1.289   4.177 -0.7797  0.1139 -0.4197
 6826TIP3   OH241968   5.769   2.148   3.389  0.3686  0.3372  0.4113
 6826TIP3    H141969   5.771   2.243   3.381 -1.1873  0.2930 -0.7197
 6826TIP3    H241970   5.676   2.127   3.400  0.7052 -1.0547  0.7297
 6827TIP3   OH241971   3.489   3.586  13.225 -0.5405 -0.1620 -0.4843
 6827TIP3    H141972   3.447   3.658  13.273 -2.1145 -0.5490 -1.2391
 6827TIP3    H241973   3.527   3.628  13.148  0.2238  0.1477  0.0542
 6828TIP3   OH241974   3.120   4.384  13.437 -0.4080 -0.6425  0.2742
 6828TIP3    H141975   3.139   4.406  13.528  1.9039  2.3365 -0.8462
 6828TIP3    H241976   3.188   4.321  13.413  0.7991  0.7863 -0.1772
 6829TIP3   OH241977   0.464   5.890   4.812 -0.1460  0.3890 -0.0902
 6829TIP3    H141978   0.381   5.937   4.801  0.4919  1.6574  0.5246
 6829TIP3    H241979   0.509   5.901   4.729 -0.0471  0.7719  0.0131
 6830TIP3   OH241980   2.128   1.662   5.976  0.2643 -0.3413  0.7721
 6830TIP3    H141981   2.035   1.664   5.997  0.3466  1.0551  1.0252
 6830TIP3    H241982   2.172   1.664   6.061  0.5317 -0.4138  0.6359
 6831TIP3   OH241983   3.766   0.189   3.784  0.1348 -0.3220  0.3284
 6831TIP3    H141984   3.821   0.262   3.811  0.3857 -0.3867 -0.0046
 6831TIP3    H241985   3.822   0.136   3.727 -0.3537 -0.2536 -0.2205
 6832TIP3   OH241986   6.692   2.325  13.822  0.9632  0.0730 -0.2086
 6832TIP3    H141987   6.757   2.260  13.797  1.2423  0.0342  0.6038
 6832TIP3    H241988   6.669   2.369  13.740 -0.8841 -2.5167 -1.1592
 6833TIP3   OH241989   6.378   4.696   5.116 -0.3719 -0.1449  0.4463
 6833TIP3    H141990   6.408   4.701   5.207 -0.6374  1.8378  0.4425
 6833TIP3    H241991   6.302   4.753   5.112 -1.4128 -1.5546 -0.6498
 6834TIP3   OH241992   4.249   5.948   0.753 -0.6377  0.1499 -0.3786
 6834TIP3    H141993   4.308   5.938   0.828  1.8397  3.3356 -1.7932
 6834TIP3    H241994   4.173   5.994   0.789  0.9268  2.4752  0.0925
 6835TIP3   OH241995   3.444   4.031   3.850  0.0504 -0.7159  0.1536
 6835TIP3    H141996   3.465   4.090   3.777  3.4063 -1.0346  0.7793
 6835TIP3    H241997   3.368   4.071   3.892  0.7789  1.8789 -0.8974
 6836TIP3   OH241998   1.221   0.223  14.450 -0.1703 -0.5077 -0.4190
 6836TIP3    H141999   1.173   0.207  14.531 -0.5212 -2.5507 -1.0065
 6836TIP3    H242000   1.244   0.136  14.418 -2.3141  0.0977 -3.8677
 6837TIP3   OH242001   4.788   1.798   2.098 -0.0905  0.6466 -0.7662
 6837TIP3    H142002   4.843   1.756   2.031 -2.1189  1.0259 -2.7176
 6837TIP3    H242003   4.734   1.859   2.049 -0.2621  2.3591  1.5100
 6838TIP3   OH242004   5.015   1.377   4.475  0.4001 -0.0348 -0.3381
 6838TIP3    H142005   4.989   1.367   4.567  2.1644  0.9098  0.2729
 6838TIP3    H242006   4.958   1.447   4.442  1.6191  1.5450  0.8103
 6839TIP3   OH242007   2.120   5.507   3.383  0.1601 -0.3230  0.3978
 6839TIP3    H142008   2.209   5.502   3.346  0.7333 -1.0221  1.8268
 6839TIP3    H242009   2.111   5.427   3.434 -0.7870  0.4040  1.3951
 6840TIP3   OH242010   6.143   6.266  13.360 -0.7534 -0.3883 -0.3049
 6840TIP3    H142011   6.162   6.223  13.443 -0.7969 -0.2100 -0.2039
 6840TIP3    H242012   6.140   6.194  13.296 -1.1501 -0.5681 -0.0785
 6841TIP3   OH242013   6.393   3.789  15.510  0.0519 -0.3489 -1.4591
 6841TIP3    H142014   6.419   3.871  15.551 -1.3402 -1.6011  2.0432
 6841TIP3    H242015   6.476   3.748  15.485  0.8804  0.8700 -0.7548
 6842TIP3   OH242016   4.703   1.328  12.932  0.7092 -0.0117  0.3236
 6842TIP3    H142017   4.739   1.381  12.860  0.1262  0.7784  0.6089
 6842TIP3    H242018   4.777   1.313  12.990  0.8574  0.5505  0.2772
 6843TIP3   OH242019   6.483   2.523   2.482  0.2476  0.0018 -0.5847
 6843TIP3    H142020   6.532   2.440   2.485  0.1915  0.0097  0.8373
 6843TIP3    H242021   6.394   2.498   2.457  0.3202 -0.3210 -0.5205
 6844TIP3   OH242022   0.773   2.163   6.213 -0.1433 -0.4835 -0.0919
 6844TIP3    H142023   0.843   2.118   6.165  0.2740 -0.8745  0.8840
 6844TIP3    H242024   0.763   2.246   6.166  0.8133 -0.5166 -0.3780
 6845TIP3   OH242025   0.485   0.588  11.711 -0.6278  0.3035  0.3176
 6845TIP3    H142026   0.497   0.625  11.798  0.5839  1.7620 -0.4473
 6845TIP3    H242027   0.400   0.622  11.682 -0.2142  1.2733  0.2244
 6846TIP3   OH242028   5.789   2.473   4.238  0.3978  0.2735  0.1119
 6846TIP3    H142029   5.750   2.545   4.288  0.2012  0.6181 -0.5344
 6846TIP3    H242030   5.782   2.500   4.147  0.8171 -0.3247 -0.1038
 6847TIP3   OH242031   5.701   5.151  12.832  0.6706 -0.5896  0.4022
 6847TIP3    H142032   5.678   5.189  12.747 -0.1163  0.4382  1.0784
 6847TIP3    H242033   5.632   5.179  12.891  0.2876 -2.7188  1.0168
 6848TIP3   OH242034   3.441   6.022   0.269 -0.2832 -0.3176 -0.0770
 6848TIP3    H142035   3.373   5.958   0.288  0.0329 -0.4103  0.7379
 6848TIP3    H242036   3.395   6.093   0.225 -1.0861  0.0909  1.4006
 6849TIP3   OH242037   0.748   4.647   2.740 -0.0772 -0.1966  0.1849
 6849TIP3    H142038   0.688   4.576   2.717  1.6314 -1.9174  0.8593
 6849TIP3    H242039   0.816   4.604   2.793  1.6267  1.7242 -0.3905
 6850TIP3   OH242040   1.615   2.996   1.892 -0.0786  0.1312  0.0466
 6850TIP3    H142041   1.657   3.081   1.876 -0.5834  0.0175 -2.0408
 6850TIP3    H242042   1.616   2.953   1.807 -0.2306 -1.7924  0.9984
 6851TIP3   OH242043   2.262   3.237   0.439 -0.2916 -0.0796 -0.3279
 6851TIP3    H142044   2.351   3.214   0.413  0.1132  0.8221  0.2448
 6851TIP3    H242045   2.210   3.228   0.359  0.2833 -0.7415 -0.6305
 6852TIP3   OH242046   1.497   3.915   0.730 -0.1145  0.1091 -0.0833
 6852TIP3    H142047   1.457   3.906   0.816  0.8345 -0.6437  0.2791
 6852TIP3    H242048   1.554   3.839   0.722 -0.1503  0.2035 -1.3518
 6853TIP3   OH242049   2.943   1.685  14.256  0.0428  0.7096 -0.0645
 6853TIP3    H142050   2.931   1.777  14.280  0.2869  0.2421  1.8941
 6853TIP3    H242051   2.888   1.674  14.178 -0.9901  2.1829  0.4167
 6854TIP3   OH242052   3.928   6.236   5.437 -0.1510  0.3049  0.4041
 6854TIP3    H142053   3.945   6.197   5.523 -1.1807 -2.4386 -0.5635
 6854TIP3    H242054   3.835   6.216   5.419  0.5450 -0.9149 -2.1471
 6855TIP3   OH242055   2.370   6.490  15.968  0.0055  0.3015 -0.2678
 6855TIP3    H142056   2.416   6.519  15.890 -1.7851 -2.4227 -2.4671
 6855TIP3    H242057   2.278   6.510  15.950 -0.5174 -1.0974  0.7611
 6856TIP3   OH242058   4.149   4.095  11.942  0.2182  0.1442  0.6895
 6856TIP3    H142059   4.188   4.172  11.899 -0.3668  0.2595  0.3602
 6856TIP3    H242060   4.134   4.033  11.871 -0.5089  0.2312  0.7663
 6857TIP3   OH242061   0.217   6.761   6.284  0.2991 -0.2050  0.3406
 6857TIP3    H142062   0.147   6.726   6.229 -0.5698  0.9692  0.6886
 6857TIP3    H242063   0.179   6.766   6.371  0.4373  1.4979  0.3262
 6858TIP3   OH242064   3.438   1.654  12.605  0.2889  0.4836 -0.5186
 6858TIP3    H142065   3.408   1.599  12.533  1.6294 -0.1783 -0.5840
 6858TIP3    H242066   3.450   1.740  12.565  1.6176 -0.0226 -1.2389
 6859TIP3   OH242067   3.731   2.839  11.503 -0.1792 -0.4199  0.6341
 6859TIP3    H142068   3.693   2.894  11.571 -1.6369 -1.4543  0.6628
 6859TIP3    H242069   3.732   2.895  11.425  0.8414  0.5314  1.3094
 6860TIP3   OH242070   1.563   3.942   4.138 -0.2357  0.5550  0.5332
 6860TIP3    H142071   1.553   3.894   4.220  1.5282 -0.3232  0.2621
 6860TIP3    H242072   1.617   4.017   4.160  1.5312 -0.5025 -0.1015
 6861TIP3   OH242073   0.245   0.484  13.123  0.3461  0.5793 -0.6246
 6861TIP3    H142074   0.332   0.478  13.162  0.8993 -0.5052 -1.9983
 6861TIP3    H242075   0.212   0.569  13.151 -0.1132 -0.9294  3.9506
 6862TIP3   OH242076   0.142   5.838   2.214 -0.6003  0.8177  0.5564
 6862TIP3    H142077   0.234   5.820   2.195 -0.8847  1.5556 -1.6094
 6862TIP3    H242078   0.095   5.762   2.181 -1.1023  2.1196 -1.8269
 6863TIP3   OH242079   5.257   6.321  14.232  0.1955  0.6090 -0.0019
 6863TIP3    H142080   5.190   6.315  14.300  0.1093 -2.1062 -0.2617
 6863TIP3    H242081   5.210   6.306  14.151  0.8679  0.1973 -0.3215
 6864TIP3   OH242082   1.843   0.444  13.197 -0.0265 -0.1276  0.0771
 6864TIP3    H142083   1.852   0.392  13.278  1.3252 -0.7612 -0.4501
 6864TIP3    H242084   1.812   0.381  13.132  0.7200 -0.0793 -0.3379
 6865TIP3   OH242085   0.821   3.059  15.321 -0.1247  0.1914  0.0274
 6865TIP3    H142086   0.880   3.134  15.321  1.9733 -1.4234  0.7589
 6865TIP3    H242087   0.802   3.043  15.413 -0.6603 -0.1237 -0.1337
 6866TIP3   OH242088   2.499   4.489   3.845 -0.5363 -0.1126  0.1189
 6866TIP3    H142089   2.483   4.457   3.934  0.3968 -0.4161  0.1833
 6866TIP3    H242090   2.413   4.484   3.803 -1.0526  0.3560  1.0983
 6867TIP3   OH242091   3.602   6.285  15.215 -0.5174 -0.4252 -0.1098
 6867TIP3    H142092   3.538   6.293  15.286  1.3487  0.9255  1.5168
 6867TIP3    H242093   3.599   6.370  15.170  0.1901 -0.2938  0.0736
 6868TIP3   OH242094   5.131   1.134   0.006  0.1088 -0.3326 -0.1071
 6868TIP3    H142095   5.118   1.070  -0.064 -2.8145  1.3396 -1.1569
 6868TIP3    H242096   5.052   1.127   0.060  0.0154  1.9392  0.1021
 6869TIP3   OH242097   6.039   4.136  12.317  0.1231 -0.3848 -0.4501
 6869TIP3    H142098   5.974   4.170  12.378  0.3104  2.0353 -1.5348
 6869TIP3    H242099   5.987   4.089  12.251 -0.2038 -1.5690  0.6339
 6870TIP3   OH242100   5.759   0.418   2.112 -0.5657 -0.4013 -0.1245
 6870TIP3    H142101   5.844   0.374   2.121 -0.3742 -0.1361 -0.6226
 6870TIP3    H242102   5.771   0.478   2.039 -1.0383 -0.0169  0.1120
 6871TIP3   OH242103   4.001   1.603  16.161 -0.0084  0.1726  0.9672
 6871TIP3    H142104   3.915   1.610  16.118  0.1420 -1.0064  0.4510
 6871TIP3    H242105   4.019   1.691  16.192  0.3666  1.3290 -2.3595
 6872TIP3   OH242106   6.122   0.090  14.991 -0.5210 -0.2031  0.1246
 6872TIP3    H142107   6.070   0.133  14.923  1.3837  0.6889 -0.8295
 6872TIP3    H242108   6.161   0.015  14.947  0.9860  0.5623  0.1098
 6873TIP3   OH242109   0.456   5.376   4.577  0.4054 -0.0977 -0.2406
 6873TIP3    H142110   0.515   5.442   4.612  0.6858  0.2255 -1.2939
 6873TIP3    H242111   0.429   5.411   4.492  0.4418 -1.2742 -0.7463
 6874TIP3   OH242112   3.380   2.386   0.841  0.0661  0.0121  0.9341
 6874TIP3    H142113   3.433   2.314   0.805 -1.6140  0.2954 -2.3661
 6874TIP3    H242114   3.292   2.349   0.848 -0.2925  0.9960  1.6176
 6875TIP3   OH242115   0.939   0.088  16.010 -0.3556 -0.7160  0.4753
 6875TIP3    H142116   1.019   0.097  16.061 -1.0684  0.5696  1.3884
 6875TIP3    H242117   0.962   0.026  15.940  1.0321 -1.3956  1.5133
 6876TIP3   OH242118   1.652   5.612   4.456  0.0220 -0.1254 -0.5704
 6876TIP3    H142119   1.562   5.609   4.488 -0.5366 -0.6873 -2.1802
 6876TIP3    H242120   1.667   5.525   4.419  1.3448 -0.1490 -0.0065
 6877TIP3   OH242121   1.083   0.716  14.624  0.0966  0.4961  0.3355
 6877TIP3    H142122   1.014   0.770  14.663 -1.2017 -1.1806  0.4386
 6877TIP3    H242123   1.139   0.692  14.698 -1.8022 -1.8660  1.0428
 6878TIP3   OH242124   5.043   0.008  10.914  0.6115 -0.2509  0.3822
 6878TIP3    H142125   4.993   0.067  10.858  1.6405  0.0756 -0.2077
 6878TIP3    H242126   5.104  -0.035  10.854  0.8598 -0.8239  1.0506
 6879TIP3   OH242127   2.432   0.509   4.529  0.1154 -0.4397 -0.1294
 6879TIP3    H142128   2.375   0.586   4.521 -0.8847 -1.1368  0.2884
 6879TIP3    H242129   2.468   0.516   4.617  1.2233  0.3546 -0.6173
 6880TIP3   OH242130   4.711   3.654  15.940  0.0909  0.5833  0.1897
 6880TIP3    H142131   4.772   3.656  16.014  1.3577  0.1301 -0.8228
 6880TIP3    H242132   4.713   3.743  15.905 -0.5111  0.7987  0.7107
 6881TIP3   OH242133   2.333   0.778  12.016 -0.4044  0.0303  0.1057
 6881TIP3    H142134   2.276   0.771  12.092 -0.4135  0.6904  0.1645
 6881TIP3    H242135   2.337   0.690  11.980 -2.4083  0.2008 -0.5839
 6882TIP3   OH242136   1.375   1.370  15.937 -0.2866 -0.2951  0.1233
 6882TIP3    H142137   1.300   1.324  15.899  0.3984 -0.6726 -0.7843
 6882TIP3    H242138   1.340   1.410  16.017 -1.0999 -1.6711  0.4687
 6883TIP3   OH242139   2.897   4.246  13.833  0.6078 -0.3150 -0.4777
 6883TIP3    H142140   2.819   4.224  13.782  1.1955  0.1105 -1.5787
 6883TIP3    H242141   2.883   4.338  13.859 -0.1622 -0.8377  1.0158
 6884TIP3   OH242142   1.522   3.361  14.105 -0.4869 -0.2422 -0.2829
 6884TIP3    H142143   1.564   3.275  14.102  0.3988  0.1762  0.2835
 6884TIP3    H242144   1.444   3.347  14.159 -0.1128 -0.5880  0.1717
 6885TIP3   OH242145   4.550   4.333  13.593 -0.3741 -0.6612 -0.6514
 6885TIP3    H142146   4.563   4.325  13.687  1.6407 -1.4661 -0.9634
 6885TIP3    H242147   4.455   4.329  13.581 -0.6271 -0.9504  1.2985
 6886TIP3   OH242148   3.696   3.581   4.907 -0.2150  0.5033  0.2302
 6886TIP3    H142149   3.771   3.626   4.868  0.3242 -0.4513  0.1377
 6886TIP3    H242150   3.652   3.538   4.833 -1.5829  2.0813  0.1075
 6887TIP3   OH242151   1.432   5.332   3.034  0.2783 -0.0358 -0.6930
 6887TIP3    H142152   1.366   5.391   2.998 -0.9122 -1.5701 -1.0416
 6887TIP3    H242153   1.426   5.345   3.129 -1.0924 -0.7601 -0.6725
 6888TIP3   OH242154   1.503   0.498  16.864  0.1151 -0.7429 -0.5959
 6888TIP3    H142155   1.489   0.417  16.815  0.7480 -0.8173 -0.6606
 6888TIP3    H242156   1.429   0.502  16.924 -0.2460 -1.0574 -1.0137
 6889TIP3   OH242157   2.835   4.510   5.060 -0.0887  0.3190  0.1734
 6889TIP3    H142158   2.745   4.537   5.039 -0.3469 -1.0452 -0.5257
 6889TIP3    H242159   2.827   4.419   5.087  0.9756  0.4703  1.0532
 6890TIP3   OH242160   0.799   1.322   3.427  0.6004 -0.4860  0.3320
 6890TIP3    H142161   0.754   1.394   3.470  2.4322  0.1739  1.1934
 6890TIP3    H242162   0.729   1.268   3.390 -1.0733 -1.2196  4.3096
 6891TIP3   OH242163   5.543   3.153  12.295 -0.3210 -0.0183  0.1146
 6891TIP3    H142164   5.542   3.244  12.265 -0.3677  0.0172  0.2250
 6891TIP3    H242165   5.465   3.114  12.255  0.0384 -0.1740 -0.4400
 6892TIP3   OH242166   1.260   0.613   5.839  0.2379 -0.1972 -0.1526
 6892TIP3    H142167   1.200   0.680   5.806 -0.4416 -0.8563 -0.2839
 6892TIP3    H242168   1.304   0.654   5.913 -0.0924  0.4241 -0.2979
 6893TIP3   OH242169   0.223   1.352   0.658  0.3817 -0.3468 -0.0318
 6893TIP3    H142170   0.303   1.370   0.707  0.0865  2.7170 -0.5310
 6893TIP3    H242171   0.243   1.274   0.606  3.1645  0.5104 -0.3470
 6894TIP3   OH242172   5.576   1.357  13.936  0.2205  0.2387 -0.7204
 6894TIP3    H142173   5.491   1.319  13.960 -0.8490  1.2632 -2.7396
 6894TIP3    H242174   5.557   1.451  13.924  1.7469  0.5512 -0.7424
 6895TIP3   OH242175   0.195   4.848   2.414  0.2276 -0.2184  0.7553
 6895TIP3    H142176   0.222   4.817   2.328 -0.7648  1.3919 -0.1533
 6895TIP3    H242177   0.259   4.810   2.475  0.3157 -2.2041 -0.5601
 6896TIP3   OH242178   3.038   6.282   1.004 -0.4884  0.6815 -0.2291
 6896TIP3    H142179   3.105   6.348   1.026  0.1885 -0.5024  1.4011
 6896TIP3    H242180   3.041   6.275   0.909  0.7997  1.6053 -0.2704
 6897TIP3   OH242181   3.605   2.878  15.997  1.0309 -0.2510 -0.4795
 6897TIP3    H142182   3.515   2.863  15.968  0.5886 -0.2192  0.8212
 6897TIP3    H242183   3.601   2.962  16.043  1.2163 -1.3045  1.5458
 6898TIP3   OH242184   2.276   3.808   3.549 -0.4905 -0.2882 -0.2163
 6898TIP3    H142185   2.330   3.851   3.614  0.3185 -2.0119  0.2819
 6898TIP3    H242186   2.292   3.715   3.562 -0.9122 -0.6885 -2.3597
 6899TIP3   OH242187   1.056   5.889  13.894 -0.4680 -0.1363  0.2695
 6899TIP3    H142188   1.044   5.926  13.982 -2.1389  0.0746 -0.0485
 6899TIP3    H242189   1.070   5.795  13.910  3.1645  0.4513  1.0306
 6900TIP3   OH242190   6.668   4.152  12.048  0.1116  0.0581  0.0034
 6900TIP3    H142191   6.645   4.169  11.957  0.2499 -0.9428 -0.2186
 6900TIP3    H242192   6.593   4.184  12.099 -0.6722 -0.8738 -0.5566
 6901TIP3   OH242193   6.294   4.629   1.153 -0.5277  0.2646  0.0286
 6901TIP3    H142194   6.288   4.557   1.091 -1.9290  0.9681 -0.6673
 6901TIP3    H242195   6.380   4.668   1.136  0.0045 -0.8896  0.0340
 6902TIP3   OH242196   4.706   0.382   4.511 -0.2574  0.2972 -0.0347
 6902TIP3    H142197   4.631   0.361   4.455 -0.6971  1.0035  0.2855
 6902TIP3    H242198   4.673   0.447   4.573  0.9228  1.5264 -0.6551
 6903TIP3   OH242199   1.584   3.566  12.396 -0.4562 -0.3211 -0.3410
 6903TIP3    H142200   1.605   3.616  12.475 -0.3350 -0.4727 -0.2794
 6903TIP3    H242201   1.651   3.592  12.333  0.3096 -1.3048  0.0641
 6904TIP3   OH242202   3.497   6.687   0.951  0.1155 -0.4722 -0.4939
 6904TIP3    H142203   3.513   6.593   0.943  0.9647 -0.3075 -0.6914
 6904TIP3    H242204   3.559   6.717   1.017 -1.0192 -0.2713  0.5073
 6905TIP3   OH242205   0.902   2.707   4.464 -0.3441 -0.2581  1.0243
 6905TIP3    H142206   0.917   2.644   4.393  0.2358 -0.5658  1.4120
 6905TIP3    H242207   0.818   2.680   4.501 -0.6993 -0.0341  0.3953
 6906TIP3   OH242208   1.785   2.819  12.581 -0.4125  0.5305 -0.3014
 6906TIP3    H142209   1.752   2.796  12.494  0.0839  0.6932 -0.5344
 6906TIP3    H242210   1.826   2.904  12.570 -0.6477  0.7098  0.1698
 6907TIP3   OH242211   0.077   2.175   0.748  0.0342  0.7046  0.0128
 6907TIP3    H142212   0.075   2.266   0.777 -0.9376  0.7501 -0.1661
 6907TIP3    H242213  -0.013   2.157   0.720  0.5554  0.1418 -1.3515
 6908TIP3   OH242214   4.520   5.102   2.131  0.3102  0.2766 -0.1496
 6908TIP3    H142215   4.558   5.180   2.172  0.0890  0.4229 -0.2219
 6908TIP3    H242216   4.555   5.029   2.182  3.6861  0.1437 -2.4536
 6909TIP3   OH242217   5.736   5.702   1.109  0.1778  0.7280 -0.2959
 6909TIP3    H142218   5.829   5.686   1.093  0.0773 -0.5404  0.3439
 6909TIP3    H242219   5.691   5.664   1.033  0.1194  0.4428 -0.1195
 6910TIP3   OH242220   1.038   1.761   0.340  0.5127  0.2023 -0.3190
 6910TIP3    H142221   0.966   1.752   0.278 -0.4017  1.2716  0.5641
 6910TIP3    H242222   0.996   1.776   0.424  1.7605  1.4808  0.0998
 6911TIP3   OH242223   1.952   2.268   1.094 -0.0012 -0.2877 -0.0118
 6911TIP3    H142224   1.941   2.181   1.057 -0.2808 -0.4901  0.5415
 6911TIP3    H242225   2.047   2.278   1.105 -0.0462 -1.0593  1.1881
 6912TIP3   OH242226   0.565   0.865  11.844 -0.0707 -0.2185 -0.6036
 6912TIP3    H142227   0.552   0.799  11.912  0.7080  1.4330  1.1643
 6912TIP3    H242228   0.634   0.921  11.877 -1.3318  2.0343 -1.6708
 6913TIP3   OH242229   2.481   5.679  16.567  0.0726 -0.1640  0.1603
 6913TIP3    H142230   2.554   5.718  16.617  2.0029 -1.1460 -1.8332
 6913TIP3    H242231   2.504   5.695  16.475 -1.9726 -0.9778 -0.5105
 6914TIP3   OH242232   5.613   0.438   4.166 -0.6886  0.3456 -0.2382
 6914TIP3    H142233   5.664   0.514   4.194  0.0233 -0.0469 -0.4589
 6914TIP3    H242234   5.655   0.410   4.084 -0.7738 -0.4531 -0.0081
 6915TIP3   OH242235   1.277   0.180  17.046  0.0601 -0.1450 -0.3825
 6915TIP3    H142236   1.370   0.163  17.034  0.4078 -0.0429  2.0490
 6915TIP3    H242237   1.252   0.229  16.967  1.8219 -0.9927 -1.4977
 6916TIP3   OH242238   3.924   1.438  15.465 -0.2181  0.6666  0.0068
 6916TIP3    H142239   3.965   1.419  15.380 -0.1850  1.7361 -0.2171
 6916TIP3    H242240   3.990   1.490  15.511 -0.8837  1.4694  0.0613
 6917TIP3   OH242241   3.331   5.976  15.336 -0.3634  0.3648  0.0744
 6917TIP3    H142242   3.393   6.005  15.403  1.4220 -0.7568 -1.0643
 6917TIP3    H242243   3.296   6.057  15.299 -0.2000  0.9987  1.2779
 6918TIP3   OH242244   4.249   3.814  12.998  0.1578 -0.1457  0.4449
 6918TIP3    H142245   4.292   3.814  13.084  0.7840  0.6458  0.1352
 6918TIP3    H242246   4.226   3.722  12.984  1.0010 -0.4526  0.9961
 6919TIP3   OH242247   5.761   5.634  16.489  0.0519  0.3621 -0.0871
 6919TIP3    H142248   5.678   5.628  16.536 -0.1525 -0.2333 -0.5142
 6919TIP3    H242249   5.792   5.543  16.484  0.7275  0.5836  0.0760
 6920TIP3   OH242250   6.422   3.509  13.156  0.2411  0.0744  0.3091
 6920TIP3    H142251   6.438   3.585  13.100 -0.6302  1.0318  1.3558
 6920TIP3    H242252   6.422   3.544  13.245  1.3922 -1.4123  0.9155
 6921TIP3   OH242253   6.491   2.307  11.966 -0.1522 -0.2310 -0.2272
 6921TIP3    H142254   6.544   2.386  11.980 -1.1546  0.4227 -0.0108
 6921TIP3    H242255   6.508   2.282  11.876 -0.7404  0.9335 -0.6678
 6922TIP3   OH242256   0.546   3.842  12.442  0.3003  0.2604  0.1789
 6922TIP3    H142257   0.501   3.890  12.511 -0.0281  1.0004 -0.5390
 6922TIP3    H242258   0.493   3.856  12.364  1.0740  0.0751 -0.3927
 6923TIP3   OH242259   1.789   3.314  16.872  0.0236 -0.6467  0.2963
 6923TIP3    H142260   1.740   3.396  16.877 -0.7949 -1.0723 -0.6711
 6923TIP3    H242261   1.753   3.269  16.796  1.1060 -1.4957  0.2763
 6924TIP3   OH242262   1.086   5.715   3.719 -0.7403 -1.0243 -0.3441
 6924TIP3    H142263   1.031   5.775   3.668  0.0243 -0.7355 -0.8380
 6924TIP3    H242264   1.031   5.638   3.733 -2.4225  0.5381  1.9448
 6925TIP3   OH242265   0.603   2.026   0.167 -0.3996  0.1025  0.2432
 6925TIP3    H142266   0.677   2.016   0.107  1.2170 -1.6855  2.3914
 6925TIP3    H242267   0.582   1.936   0.194 -0.7292  0.8682  2.6928
 6926TIP3   OH242268   0.436   3.620   4.734  0.6060  0.3957 -0.1861
 6926TIP3    H142269   0.483   3.640   4.815 -0.2770  0.4772  0.3185
 6926TIP3    H242270   0.371   3.555   4.759 -0.2775  1.0877 -0.6272
 6927TIP3   OH242271   1.279   1.261   0.633 -0.1950  0.3529 -0.4776
 6927TIP3    H142272   1.263   1.298   0.546  2.2910  0.1089 -1.0717
 6927TIP3    H242273   1.360   1.211   0.623 -0.5153 -0.6342  1.7069
 6928TIP3   OH242274   3.370   2.645   1.687 -0.4111  0.0929 -0.0728
 6928TIP3    H142275   3.335   2.630   1.774 -0.5511 -0.2945 -0.1917
 6928TIP3    H242276   3.465   2.638   1.698 -0.3495  1.5079  0.3146
 6929TIP3   OH242277   1.145   5.338   0.950 -0.2355  0.2644 -0.7089
 6929TIP3    H142278   1.092   5.333   0.871 -0.3625 -1.2006 -0.5525
 6929TIP3    H242279   1.230   5.372   0.921 -0.9637  1.7536 -1.1081
 6930TIP3   OH242280   1.117   6.479  14.369 -0.1073 -1.1113 -0.2661
 6930TIP3    H142281   1.151   6.486  14.280 -0.3366  0.8880 -0.2269
 6930TIP3    H242282   1.023   6.497  14.360  0.0232  0.0270  0.4664
 6931TIP3   OH242283   5.562   3.372  13.068  0.2176  0.1315  0.7613
 6931TIP3    H142284   5.522   3.435  13.128  1.3781  2.2260 -0.6071
 6931TIP3    H242285   5.608   3.311  13.126 -2.3256 -0.5022  2.1819
 6932TIP3   OH242286   5.057   5.060   3.386  0.2547  0.5983 -0.1082
 6932TIP3    H142287   5.065   5.059   3.291  0.0751  1.0209 -0.1306
 6932TIP3    H242288   5.023   5.148   3.406  0.5607  0.6115  0.3651
 6933TIP3   OH242289   2.047   6.355   0.654  0.0103 -0.4590 -0.0812
 6933TIP3    H142290   2.002   6.369   0.571  2.2083  1.1507 -1.0464
 6933TIP3    H242291   2.125   6.305   0.632  0.8803  0.4336  0.9031
 6934TIP3   OH242292   1.893   6.002   6.517  0.0195 -0.5189 -0.7150
 6934TIP3    H142293   1.941   5.973   6.595 -1.0498  1.0100  0.5392
 6934TIP3    H242294   1.944   6.075   6.483 -1.8139  1.6920  1.1334
 6935TIP3   OH242295   6.163   0.385   1.213  0.1379  0.3609  0.2966
 6935TIP3    H142296   6.143   0.349   1.300  0.6191  0.4185  0.4300
 6935TIP3    H242297   6.255   0.364   1.199  0.6281  2.1974  0.6873
 6936TIP3   OH242298   3.834   2.993   6.308 -0.3961  0.1123  0.7724
 6936TIP3    H142299   3.742   2.966   6.312  0.3869 -2.8317  0.0217
 6936TIP3    H242300   3.864   2.990   6.399 -0.2682 -1.8378  0.6794
 6937TIP3   OH242301   6.016   6.422  11.660 -0.2456 -0.6774 -0.1455
 6937TIP3    H142302   5.951   6.386  11.721  0.5869 -0.1571  1.0799
 6937TIP3    H242303   6.020   6.358  11.588 -2.2968 -0.5732 -0.3761
 6938TIP3   OH242304   0.989   2.558   1.598  0.1782 -0.4046  0.8675
 6938TIP3    H142305   0.956   2.648   1.604  1.4910  0.0521  1.4608
 6938TIP3    H242306   1.024   2.551   1.510  1.4742  0.1672  1.3306
 6939TIP3   OH242307   2.277   4.506  15.121  0.6435  0.0010  0.1027
 6939TIP3    H142308   2.206   4.569  15.136  0.3632 -0.7446  1.9394
 6939TIP3    H242309   2.257   4.467  15.036 -0.5811  0.5412  0.1395
 6940TIP3   OH242310   0.172   5.612   3.513 -0.1218 -0.1284  0.4870
 6940TIP3    H142311   0.094   5.557   3.504  0.4512 -1.1106  1.3971
 6940TIP3    H242312   0.140   5.701   3.503 -1.1129 -0.6024 -0.7239
 6941TIP3   OH242313   0.636   3.007   1.455  0.0121  0.1223 -0.2160
 6941TIP3    H142314   0.679   3.023   1.539 -0.7435  2.3986 -0.2222
 6941TIP3    H242315   0.597   2.920   1.464  2.1284 -0.7460  0.8259
 6942TIP3   OH242316   0.485   6.552  13.899  1.0450 -0.1589  0.5429
 6942TIP3    H142317   0.476   6.535  13.805 -1.6089 -0.0928  0.7587
 6942TIP3    H242318   0.523   6.640  13.904  1.9398 -0.4782 -0.4534
 6943TIP3   OH242319   4.828   2.773   6.366  0.1062  0.1756 -0.0952
 6943TIP3    H142320   4.736   2.799   6.365  0.1827  0.6328  2.0266
 6943TIP3    H242321   4.866   2.823   6.439  1.5486 -1.6329  0.4295
 6944TIP3   OH242322   5.525   4.801   4.214  0.2990 -0.6172  0.3567
 6944TIP3    H142323   5.592   4.733   4.225 -1.4182 -2.3330  0.4621
 6944TIP3    H242324   5.488   4.811   4.302  0.4805  0.4189  0.3201
 6945TIP3   OH242325   3.548   5.855   1.226 -0.2454 -0.4846  0.4672
 6945TIP3    H142326   3.457   5.863   1.197 -0.5306 -0.9718  1.2091
 6945TIP3    H242327   3.545   5.873   1.320  0.2292 -1.7683  0.7308
 6946TIP3   OH242328   1.778   0.032   0.823  0.2945 -0.0032 -0.0817
 6946TIP3    H142329   1.752  -0.045   0.874  0.6467 -0.1759 -0.1626
 6946TIP3    H242330   1.733   0.105   0.865 -0.2972 -0.3003 -0.2028
 6947TIP3   OH242331   5.693   0.889  12.488  0.0295 -0.2060  0.1151
 6947TIP3    H142332   5.681   0.982  12.465  0.5311 -0.2207 -0.2136
 6947TIP3    H242333   5.605   0.852  12.481  0.0134 -0.0099 -0.9022
 6948TIP3   OH242334   1.717   3.087  13.654  0.2274 -0.3974 -0.3401
 6948TIP3    H142335   1.807   3.112  13.674 -0.5052 -0.1257  2.8210
 6948TIP3    H242336   1.707   3.000  13.694 -1.7385  0.7917  1.8504
 6949TIP3   OH242337   0.947   3.371  15.632  0.0992 -0.0635 -0.1232
 6949TIP3    H142338   1.003   3.325  15.694  1.8342 -0.1544 -1.7045
 6949TIP3    H242339   0.930   3.307  15.562 -1.0774  0.3196 -0.2095
 6950TIP3   OH242340   5.355   3.012   1.068 -0.4488  0.0125  0.0427
 6950TIP3    H142341   5.267   3.049   1.059 -0.5003 -0.0775  0.1727
 6950TIP3    H242342   5.414   3.083   1.043 -0.5410  0.2376  0.4546
 6951TIP3   OH242343   0.588   0.545   2.601 -0.4701 -0.4099  0.3552
 6951TIP3    H142344   0.520   0.593   2.649 -1.0174 -1.0501  0.2252
 6951TIP3    H242345   0.665   0.550   2.657  0.0014  2.1170 -0.4222
 6952TIP3   OH242346   5.322   2.475  11.262  0.4711 -0.1955  0.2008
 6952TIP3    H142347   5.241   2.524  11.272 -0.7463 -1.9181 -0.8969
 6952TIP3    H242348   5.389   2.541  11.246 -1.0934  1.1192 -1.0493
 6953TIP3   OH242349   2.109   2.596  11.876 -0.1068  0.6950  0.2822
 6953TIP3    H142350   2.123   2.643  11.958 -1.3572  1.3822  0.1240
 6953TIP3    H242351   2.187   2.542  11.866 -0.2714  0.0245  2.3142
 6954TIP3   OH242352   5.488   0.203   0.383  0.4386  0.3740 -0.0736
 6954TIP3    H142353   5.548   0.262   0.336  0.9642  0.1346  0.2882
 6954TIP3    H242354   5.472   0.247   0.467 -1.0345  1.1242 -0.7404
 6955TIP3   OH242355   6.122   6.130   3.872  0.1117 -0.0788  0.1128
 6955TIP3    H142356   6.131   6.071   3.947  0.6409 -2.2922 -1.6391
 6955TIP3    H242357   6.207   6.128   3.829  0.2120  2.1764  0.1175
 6956TIP3   OH242358   1.830   2.263  15.769  0.3134 -0.8075 -0.3442
 6956TIP3    H142359   1.883   2.264  15.689 -0.5889 -2.1539 -0.9797
 6956TIP3    H242360   1.775   2.185  15.761  0.0299 -0.8243  1.4843
 6957TIP3   OH242361   1.313   3.978   1.534 -0.8197 -0.4755 -0.3105
 6957TIP3    H142362   1.224   3.958   1.504 -2.0658  2.3831  1.2563
 6957TIP3    H242363   1.314   4.073   1.544  2.3811 -0.4690 -0.0860
 6958TIP3   OH242364   1.168   6.279  16.738  0.0469  0.3663  0.3602
 6958TIP3    H142365   1.210   6.246  16.659  1.9505 -0.7749  1.8363
 6958TIP3    H242366   1.165   6.374  16.726  3.5581  0.5281  0.4521
 6959TIP3   OH242367   4.638   3.610  14.553 -0.2926  0.2105 -0.5171
 6959TIP3    H142368   4.692   3.685  14.527  0.0161 -0.2600 -1.2591
 6959TIP3    H242369   4.549   3.634  14.526 -0.5278  1.1372  1.0307
 6960TIP3   OH242370   4.723   5.959   6.514  0.1454  0.0320 -0.4479
 6960TIP3    H142371   4.694   6.051   6.517  0.3431  0.0740  0.2127
 6960TIP3    H242372   4.797   5.956   6.574 -1.8773 -1.2771  2.0824
 6961TIP3   OH242373   6.107   6.090   0.165 -0.2961 -0.0016 -0.2107
 6961TIP3    H142374   6.119   6.127   0.078 -0.5278  2.4783  0.7697
 6961TIP3    H242375   6.118   5.996   0.153 -2.3705  0.0867 -3.2591
 6962TIP3   OH242376   3.709   4.060   1.553  0.2053  0.0357  0.6836
 6962TIP3    H142377   3.689   4.050   1.460  0.1686 -0.1739  0.7150
 6962TIP3    H242378   3.749   4.147   1.559 -1.3485  0.7674  0.7310
 6963TIP3   OH242379   3.330   1.066  11.590  0.7950  0.0013 -0.2715
 6963TIP3    H142380   3.404   1.126  11.602  1.2975 -0.6551 -0.0933
 6963TIP3    H242381   3.368   0.988  11.549  0.1248 -0.1605 -0.5998
 6964TIP3   OH242382   4.001   4.749  15.923 -0.0689 -0.3069  0.3307
 6964TIP3    H142383   3.966   4.746  16.011 -1.2150  0.1535 -0.1014
 6964TIP3    H242384   3.959   4.676  15.877 -0.8228  0.5293 -0.3192
 6965TIP3   OH242385   2.086   2.160  16.385 -0.2661  0.3931  0.5900
 6965TIP3    H142386   2.015   2.185  16.327  0.0489 -1.2197 -0.4982
 6965TIP3    H242387   2.062   2.198  16.470 -0.5090  3.1523 -0.6433
 6966TIP3   OH242388   5.074   0.953   4.005 -0.2760 -0.6722 -0.5542
 6966TIP3    H142389   5.169   0.950   4.009 -0.3508 -1.0669  1.8443
 6966TIP3    H242390   5.047   0.863   3.988 -0.2600 -0.9842  0.9666
 6967TIP3   OH242391   2.462   5.722   2.270  0.0560 -0.8386 -0.1445
 6967TIP3    H142392   2.502   5.635   2.275  2.3835 -0.0240 -3.1022
 6967TIP3    H242393   2.514   5.775   2.331  0.1132 -0.9794 -0.0692
 6968TIP3   OH242394   3.871   2.764   2.942 -0.3747  0.4514 -0.3762
 6968TIP3    H142395   3.881   2.739   3.034  1.3789  0.1845 -0.6208
 6968TIP3    H242396   3.821   2.845   2.945 -0.9888  0.0375  0.7737
 6969TIP3   OH242397   6.506   1.432   4.989 -0.2845 -0.0354 -0.2145
 6969TIP3    H142398   6.582   1.444   5.046  0.1080 -1.5412 -0.4052
 6969TIP3    H242399   6.496   1.516   4.944 -0.0624  0.8739  1.4242
 6970TIP3   OH242400   2.596   1.852   0.443 -0.6519 -0.3068 -0.1894
 6970TIP3    H142401   2.630   1.788   0.380  1.0226  0.4980 -0.1276
 6970TIP3    H242402   2.620   1.816   0.528  1.8022  1.1759 -0.1979
 6971TIP3   OH242403   3.680   4.153  12.797 -0.5487 -0.3187 -0.0856
 6971TIP3    H142404   3.684   4.233  12.744  0.6822 -0.6608 -0.5163
 6971TIP3    H242405   3.625   4.178  12.872  0.0936  1.0346 -0.0384
 6972TIP3   OH242406   0.681   2.767   5.268  0.1495  0.1082 -0.2283
 6972TIP3    H142407   0.716   2.839   5.216  0.0653  0.7948  0.6457
 6972TIP3    H242408   0.736   2.765   5.346 -1.3074  0.7753  0.8486
 6973TIP3   OH242409   5.130   2.135   6.599 -0.4403 -0.6693  0.0184
 6973TIP3    H142410   5.052   2.079   6.603 -1.3794  0.3810 -2.7329
 6973TIP3    H242411   5.096   2.224   6.610  0.4507 -0.2444 -0.6454
 6974TIP3   OH242412   6.324   3.712   1.305 -0.0368  0.0466  0.0698
 6974TIP3    H142413   6.308   3.678   1.393  1.7208  0.8126  0.7070
 6974TIP3    H242414   6.246   3.764   1.285 -0.3690  0.0123  1.2452
 6975TIP3   OH242415   5.750   1.603  13.978 -0.1763  0.3263 -0.0352
 6975TIP3    H142416   5.808   1.565  14.043 -2.7663 -2.4951  0.7536
 6975TIP3    H242417   5.686   1.654  14.029 -0.4211  0.6214 -0.6230
 6976TIP3   OH242418   4.376   2.064  13.033 -0.4665 -0.1078 -0.2411
 6976TIP3    H142419   4.334   2.150  13.025 -1.5198 -0.6796 -0.8949
 6976TIP3    H242420   4.434   2.073  13.109  1.1495  1.8743 -1.6413
 6977TIP3   OH242421   6.425   6.204   0.446 -0.3108  0.5620 -0.8346
 6977TIP3    H142422   6.385   6.225   0.531 -0.1278  1.3198 -0.9313
 6977TIP3    H242423   6.403   6.112   0.432  2.4797 -0.5813  1.6396
 6978TIP3   OH242424   1.871   0.618  15.701  0.0829  0.3084 -0.1184
 6978TIP3    H142425   1.792   0.623  15.755 -0.4630  2.5517 -1.0754
 6978TIP3    H242426   1.943   0.637  15.762 -0.1828 -0.8634  0.5685
 6979TIP3   OH242427   0.151   5.565   4.705  0.9470 -0.4445  0.0838
 6979TIP3    H142428   0.074   5.516   4.678  0.2202 -0.2586  1.7916
 6979TIP3    H242429   0.225   5.514   4.671  0.0763 -0.0364 -2.5176
 6980TIP3   OH242430   1.237   3.970  11.706  0.4615  0.1058 -0.3105
 6980TIP3    H142431   1.314   3.913  11.714  0.4150  0.2246  1.1011
 6980TIP3    H242432   1.195   3.966  11.792 -0.0971  1.4850 -0.5055
 6981TIP3   OH242433   4.851   2.495  13.232 -0.2145  0.3700 -0.1659
 6981TIP3    H142434   4.903   2.417  13.213  0.9842  1.0109  0.4246
 6981TIP3    H242435   4.914   2.567  13.232 -0.7801  0.9313  2.2599
 6982TIP3   OH242436   2.814   1.987  17.023 -0.1478 -0.2344  0.2121
 6982TIP3    H142437   2.900   2.024  17.044  0.2753 -0.8119 -0.4929
 6982TIP3    H242438   2.764   1.997  17.103  0.8638 -0.7242  0.9219
 6983TIP3   OH242439   2.786   5.675   2.095  0.3203 -0.4852  0.1632
 6983TIP3    H142440   2.847   5.655   2.024  0.4361 -1.4939  0.5527
 6983TIP3    H242441   2.722   5.734   2.054  2.4327  1.8985  0.1669
 6984TIP3   OH242442   0.872   5.441   4.969  0.2383 -0.1304 -0.3581
 6984TIP3    H142443   0.807   5.412   4.905  0.3485 -1.5685  0.1579
 6984TIP3    H242444   0.955   5.435   4.922  0.2351 -0.4472 -0.3262
 6985TIP3   OH242445   0.305   1.098   1.037  0.1001  0.1969  0.2918
 6985TIP3    H142446   0.321   1.190   1.016 -0.9069  0.1631 -0.6715
 6985TIP3    H242447   0.228   1.074   0.984  0.6611 -1.3366  0.1499
 6986TIP3   OH242448   1.352   1.209   2.203  0.6677  0.2266 -0.6911
 6986TIP3    H142449   1.365   1.242   2.114 -1.2891  0.0899 -1.0680
 6986TIP3    H242450   1.364   1.114   2.195  5.3249  0.6629  0.1982
 6987TIP3   OH242451   5.397   1.780  13.221  0.4861  0.2097 -0.3677
 6987TIP3    H142452   5.335   1.853  13.215  1.2304  0.8891  0.0341
 6987TIP3    H242453   5.406   1.764  13.315  0.8520  0.0607 -0.4261
 6988TIP3   OH242454   1.724   1.638   1.399 -0.0604 -0.2753  0.8896
 6988TIP3    H142455   1.701   1.679   1.482 -0.7733  1.5421 -0.1729
 6988TIP3    H242456   1.727   1.710   1.336  0.8741 -1.5587 -0.5824
 6989TIP3   OH242457   5.309   2.218  17.193 -0.2495 -0.6537 -0.7332
 6989TIP3    H142458   5.342   2.306  17.212 -0.4099 -0.7183 -0.1568
 6989TIP3    H242459   5.229   2.233  17.144 -1.5133 -0.4286  1.3390
 6990TIP3   OH242460   5.750   1.956   2.319 -0.1416  0.1903 -0.4055
 6990TIP3    H142461   5.728   1.976   2.228 -0.7030  0.4357 -0.2151
 6990TIP3    H242462   5.820   1.890   2.313  0.3850  0.7993 -1.0136
 6991TIP3   OH242463   3.802   1.120   1.241  0.1569  0.0990 -0.0796
 6991TIP3    H142464   3.827   1.150   1.329  0.3790 -0.5176  0.0711
 6991TIP3    H242465   3.709   1.144   1.233 -0.1745 -0.8573  0.7715
 6992TIP3   OH242466   5.015   0.242   3.775  0.0238 -0.3512 -0.3502
 6992TIP3    H142467   5.076   0.191   3.829  0.8036 -0.4411 -1.3098
 6992TIP3    H242468   4.955   0.282   3.839  1.2764  0.0086  0.6340
 6993TIP3   OH242469   2.388   0.235  16.167 -0.6574 -0.5125  0.6070
 6993TIP3    H142470   2.346   0.233  16.081 -1.5264 -1.7960  1.0441
 6993TIP3    H242471   2.437   0.318  16.167 -1.7597  0.1781 -0.5880
 6994TIP3   OH242472   1.724   1.731  14.703  0.1183  0.4743 -0.0041
 6994TIP3    H142473   1.659   1.660  14.697 -2.3639  2.7619 -1.3463
 6994TIP3    H242474   1.748   1.735  14.795 -1.8890 -0.2260  0.5638
 6995TIP3   OH242475   2.795   6.540  13.940  0.7898  0.2594  0.5166
 6995TIP3    H142476   2.787   6.635  13.951  1.8815  0.7084 -2.0415
 6995TIP3    H242477   2.883   6.520  13.970  0.6276  0.0769  0.8726
 6996TIP3   OH242478   1.717   4.680   3.783 -0.8451  0.0703 -0.3194
 6996TIP3    H142479   1.650   4.734   3.743 -0.9950 -0.5231 -0.8823
 6996TIP3    H242480   1.799   4.727   3.767 -1.2256  1.3216  1.2801
 6997TIP3   OH242481   5.830   0.810  12.022  0.5175 -0.3734  0.0515
 6997TIP3    H142482   5.761   0.815  12.088  1.0450 -0.4152  0.6109
 6997TIP3    H242483   5.911   0.800  12.072  0.9159 -0.4897 -0.6039
 6998TIP3   OH242484   6.248   5.885  16.752  0.8610 -0.1343  0.1122
 6998TIP3    H142485   6.208   5.886  16.665 -0.2847 -2.3533  0.5528
 6998TIP3    H242486   6.185   5.836  16.806  2.3000 -0.1628  1.8030
 6999TIP3   OH242487   6.031   5.212  14.707 -0.2475 -0.3657  0.0052
 6999TIP3    H142488   6.039   5.206  14.802 -0.7659  0.7103  0.1144
 6999TIP3    H242489   5.968   5.144  14.684  1.3548 -1.9653  0.2117
 7000TIP3   OH242490   4.043   0.569   0.068  0.6773  0.0580 -0.0945
 7000TIP3    H142491   4.026   0.486   0.023  0.7405  0.2053 -0.3935
 7000TIP3    H242492   4.097   0.545   0.143 -0.6603 -0.3882  0.7488
 7001TIP3   OH242493   3.618   6.320  14.377  0.3666 -0.2541 -0.4528
 7001TIP3    H142494   3.561   6.246  14.399  0.8628 -0.0795  1.4505
 7001TIP3    H242495   3.557   6.391  14.356 -0.1220 -0.5005  0.0982
 7002TIP3   OH242496   3.430   3.052   4.874  0.4538  0.5138 -0.1749
 7002TIP3    H142497   3.496   2.990   4.903  0.0181 -1.0733 -2.4375
 7002TIP3    H242498   3.449   3.066   4.781 -1.7428  0.8324 -0.6123
 7003TIP3   OH242499   5.204   4.451   1.846  0.4049  0.8939 -0.7118
 7003TIP3    H142500   5.245   4.394   1.781  1.6589  1.3992 -0.3803
 7003TIP3    H242501   5.127   4.486   1.802 -0.1444 -0.7161 -1.0679
 7004TIP3   OH242502   2.337   3.538  15.557  0.4886  0.2249 -0.6671
 7004TIP3    H142503   2.245   3.516  15.574 -0.7020  3.5904 -2.2165
 7004TIP3    H242504   2.343   3.542  15.461  2.2539  0.0618 -0.5721
 7005TIP3   OH242505   1.618   1.396   0.544  0.0500  0.0802 -0.0852
 7005TIP3    H142506   1.711   1.400   0.566 -0.3205  0.6036  1.5300
 7005TIP3    H242507   1.614   1.351   0.460  1.7027 -0.7098  0.2448
 7006TIP3   OH242508   5.534   4.237   5.522 -0.0237  0.0430 -0.2970
 7006TIP3    H142509   5.519   4.280   5.606  0.8862  1.0333 -0.6292
 7006TIP3    H242510   5.446   4.215   5.490 -0.3761 -0.1907  0.8309
 7007TIP3   OH242511   1.859   4.044   6.024  0.0206  0.2144  0.4804
 7007TIP3    H142512   1.809   3.963   6.011  0.3701  0.5557 -3.7170
 7007TIP3    H242513   1.811   4.110   5.974  2.8917  1.2678 -0.9992
 7008TIP3   OH242514   3.773   0.366  14.620  0.1578 -0.1184 -0.4938
 7008TIP3    H142515   3.848   0.423  14.603  1.2205 -1.5589 -0.7856
 7008TIP3    H242516   3.719   0.414  14.682  1.3027  0.9709 -0.3260
 7009TIP3   OH242517   4.134   3.641   0.623  0.0333  0.0120 -0.7783
 7009TIP3    H142518   4.133   3.561   0.676  1.8722 -0.5893 -1.6151
 7009TIP3    H242519   4.113   3.711   0.685 -1.8683 -1.1237 -0.0905
 7010TIP3   OH242520   4.753   3.276   4.624  0.2708  0.2064 -0.2793
 7010TIP3    H142521   4.746   3.218   4.549 -0.5137 -1.9602  1.4162
 7010TIP3    H242522   4.793   3.356   4.589  4.7341 -2.6059 -2.0362
 7011TIP3   OH242523   3.276   6.302  10.414  0.7717 -1.1001  0.6940
 7011TIP3    H142524   3.345   6.367  10.429 -0.0503 -0.5012  1.9654
 7011TIP3    H242525   3.210   6.349  10.363  0.7283 -1.2984  0.5680
 7012TIP3   OH242526   1.854   4.219   2.084 -0.3728 -0.5010 -0.1050
 7012TIP3    H142527   1.796   4.291   2.109  1.3980  1.0740 -0.4013
 7012TIP3    H242528   1.869   4.232   1.990 -0.3602 -1.5049 -0.2467
 7013TIP3   OH242529   1.696   2.386  13.202  0.1839 -0.6226  0.0704
 7013TIP3    H142530   1.763   2.438  13.158 -1.1765 -0.5754 -2.0286
 7013TIP3    H242531   1.678   2.433  13.284  0.0362  1.4037 -1.1043
 7014TIP3   OH242532   4.262   5.010   2.211 -0.5850 -0.1283  0.2773
 7014TIP3    H142533   4.332   5.050   2.159 -0.3948  0.5520  1.0475
 7014TIP3    H242534   4.286   4.917   2.215 -0.3171 -0.0978 -0.3928
 7015TIP3   OH242535   6.808   4.497  12.923 -0.0956  0.9351  0.2627
 7015TIP3    H142536   6.810   4.410  12.960 -0.9300  0.7733 -0.0679
 7015TIP3    H242537   6.900   4.521  12.912  0.1625  0.8854  2.1595
 7016TIP3   OH242538   1.724   0.603   1.044 -0.0642 -0.9410  0.0986
 7016TIP3    H142539   1.802   0.581   0.992  0.2843 -0.7647  0.5459
 7016TIP3    H242540   1.653   0.609   0.979  0.2644 -1.2404 -0.2935
 7017TIP3   OH242541   5.366   3.588  12.886 -0.1301 -0.0948  0.4810
 7017TIP3    H142542   5.367   3.515  12.824  1.2094 -0.8095  1.3183
 7017TIP3    H242543   5.427   3.561  12.955  1.6780  2.5231 -0.0300
 7018TIP3   OH242544   0.358   2.963   3.616  0.2043 -0.5908 -0.2720
 7018TIP3    H142545   0.352   3.052   3.649  0.7125 -0.2532 -1.0620
 7018TIP3    H242546   0.346   2.972   3.521  2.1820 -1.1276 -0.6039
 7019TIP3   OH242547   2.068   3.324   5.665  0.1056 -0.7415  0.4336
 7019TIP3    H142548   2.145   3.336   5.609  0.4510  1.7211  1.3889
 7019TIP3    H242549   2.018   3.405   5.654 -1.9576 -1.9816  0.4554
 7020TIP3   OH242550   5.688   2.115  16.618 -0.2578  0.0672 -0.1489
 7020TIP3    H142551   5.611   2.151  16.574 -0.1335  0.8920  0.2998
 7020TIP3    H242552   5.754   2.109  16.550  0.2242  2.1883  0.0840
 7021TIP3   OH242553   4.524   2.702  14.892  0.0476  0.0074 -0.1510
 7021TIP3    H142554   4.441   2.724  14.935  0.3002  1.5069 -0.4250
 7021TIP3    H242555   4.555   2.624  14.938 -3.0514 -2.4776 -2.0660
 7022TIP3   OH242556   5.240   4.900  12.903  0.0894  0.0340 -0.2834
 7022TIP3    H142557   5.264   4.860  12.819 -1.2989  1.8967 -1.5870
 7022TIP3    H242558   5.238   4.826  12.965  2.1733 -1.1955 -1.6326
 7023TIP3   OH242559   5.592   0.082  13.991  0.2431 -0.0374 -0.0901
 7023TIP3    H142560   5.615   0.003  13.943 -1.6217 -0.2546 -0.6712
 7023TIP3    H242561   5.518   0.119  13.942 -1.6439 -0.1984  2.5403
 7024TIP3   OH242562   6.597   1.073   2.888 -0.3035  0.1856  0.1553
 7024TIP3    H142563   6.527   1.038   2.943  1.1896 -0.2820  1.8551
 7024TIP3    H242564   6.608   1.009   2.818  0.2259 -1.1295  1.4129
 7025TIP3   OH242565   0.741   5.623  13.664 -0.0497 -0.2910  0.0208
 7025TIP3    H142566   0.739   5.717  13.677 -1.3634 -0.4522  1.1235
 7025TIP3    H242567   0.720   5.586  13.750  0.5496 -1.5896 -0.3663
 7026TIP3   OH242568   4.491   2.587   5.258  0.0772  0.2687  0.6103
 7026TIP3    H142569   4.434   2.632   5.321 -0.1616 -0.7511  1.1461
 7026TIP3    H242570   4.432   2.533   5.206  0.4956 -0.4908  0.9035
 7027TIP3   OH242571   6.669   4.811  16.222  0.4048 -0.1247  0.4577
 7027TIP3    H142572   6.670   4.771  16.135  2.4549  0.6182  0.1077
 7027TIP3    H242573   6.760   4.811  16.250 -0.0639  0.7884  2.0800
 7028TIP3   OH242574   6.017   3.523  10.616  0.1113 -0.1590 -0.3565
 7028TIP3    H142575   6.090   3.539  10.676 -1.5660  1.4773  1.3412
 7028TIP3    H242576   5.986   3.436  10.640 -0.3762  0.3733  1.0396
 7029TIP3   OH242577   0.844   0.302   3.823  0.8432  0.2039  0.2609
 7029TIP3    H142578   0.859   0.261   3.738  1.0548 -1.3190  1.0122
 7029TIP3    H242579   0.787   0.376   3.804 -0.0773 -0.8062 -1.0632
 7030TIP3   OH242580   5.782   3.609   2.445 -0.0311 -0.3428  0.0484
 7030TIP3    H142581   5.735   3.675   2.394  1.5274 -0.5251 -1.7016
 7030TIP3    H242582   5.732   3.528   2.433 -1.3940  0.2891  1.3808
 7031TIP3   OH242583   0.662   1.967  12.888 -0.1021  0.8082 -0.1864
 7031TIP3    H142584   0.664   2.059  12.860 -2.9835  0.5200 -1.5286
 7031TIP3    H242585   0.591   1.963  12.952 -1.7178 -0.9434 -2.0275
 7032TIP3   OH242586   1.534   0.333   0.726  0.5304 -0.3261  0.3645
 7032TIP3    H142587   1.496   0.309   0.810 -0.6547 -1.2968 -0.4217
 7032TIP3    H242588   1.520   0.256   0.670  1.0021  0.4187 -0.8121
 7033TIP3   OH242589   5.546   3.595  13.909  0.2104 -0.1569  0.1322
 7033TIP3    H142590   5.608   3.530  13.874 -1.0274 -0.8063 -0.9071
 7033TIP3    H242591   5.575   3.678  13.872 -1.1962 -0.8600 -2.6770
 7034TIP3   OH242592   0.585   6.337   5.628  0.3084  0.5401 -0.0186
 7034TIP3    H142593   0.520   6.293   5.572 -0.4650 -0.8593  1.9021
 7034TIP3    H242594   0.607   6.417   5.581 -2.9213  1.1180 -0.6756
 7035TIP3   OH242595   1.353   2.338   4.069  0.2825 -0.3353 -0.1481
 7035TIP3    H142596   1.324   2.408   4.129 -2.2115 -1.1042 -0.3752
 7035TIP3    H242597   1.410   2.382   4.006  0.3846  1.0983  0.9208
 7036TIP3   OH242598   1.114   2.589  16.289 -0.5892 -0.0484 -0.8532
 7036TIP3    H142599   1.111   2.498  16.259  0.5351 -0.9881  1.8011
 7036TIP3    H242600   1.064   2.589  16.371 -2.2192  2.1452 -1.7764
 7037TIP3   OH242601   4.184   6.622   2.259 -0.0696 -0.0825  0.8094
 7037TIP3    H142602   4.232   6.705   2.270  0.7254 -0.4773  0.3752
 7037TIP3    H242603   4.150   6.626   2.170 -1.2908  0.4178  1.2865
 7038TIP3   OH242604   6.396   2.199  13.615 -0.1843 -0.0233 -0.2119
 7038TIP3    H142605   6.434   2.132  13.672  2.4665  1.0884 -0.6433
 7038TIP3    H242606   6.404   2.164  13.527 -1.1482 -0.2273 -0.2325
 7039TIP3   OH242607   3.259   1.720  16.285 -0.1306 -0.6812  0.3108
 7039TIP3    H142608   3.169   1.747  16.265  0.5268  0.0192 -1.8260
 7039TIP3    H242609   3.314   1.774  16.228  1.6192 -1.5324  1.1442
 7040TIP3   OH242610   2.531   2.152   3.482  0.0716 -0.5340  0.6761
 7040TIP3    H142611   2.518   2.217   3.551 -0.0069  0.7209 -0.5036
 7040TIP3    H242612   2.490   2.191   3.405  0.3130 -1.8451 -0.1202
 7041TIP3   OH242613   5.676   2.260   3.738 -1.3609 -0.3579 -0.1765
 7041TIP3    H142614   5.612   2.291   3.674 -0.1166 -1.0447 -1.8195
 7041TIP3    H242615   5.748   2.227   3.684  0.3874  0.4506  1.6251
 7042TIP3   OH242616   0.713   4.033   2.568  1.0428  0.3464  0.1433
 7042TIP3    H142617   0.715   3.956   2.626  0.1476 -0.5970 -1.0586
 7042TIP3    H242618   0.723   3.997   2.480 -0.0315  1.5508 -0.4918
 7043TIP3   OH242619   6.785   3.332   3.251 -0.0226  0.3813 -0.2657
 7043TIP3    H142620   6.827   3.329   3.337  0.6921 -2.2789 -0.6470
 7043TIP3    H242621   6.692   3.345   3.270 -0.2494 -2.6839  1.1143
 7044TIP3   OH242622   1.328   5.460  16.951 -0.7827  0.4280  0.2890
 7044TIP3    H142623   1.236   5.436  16.948 -0.3266 -1.3716  0.3412
 7044TIP3    H242624   1.342   5.511  16.871 -1.7609  0.5088  0.1653
 7045TIP3   OH242625   1.005   5.769   0.388  0.2894 -0.0272  0.4121
 7045TIP3    H142626   0.970   5.787   0.300  2.1350 -2.2758 -0.8516
 7045TIP3    H242627   1.088   5.725   0.371  0.1085 -1.5754  3.3133
 7046TIP3   OH242628   5.592   1.128   4.755  0.5109 -0.2261 -0.4226
 7046TIP3    H142629   5.600   1.163   4.666  0.8949  1.0071  0.0783
 7046TIP3    H242630   5.628   1.197   4.811 -1.3520 -0.2339  0.8333
 7047TIP3   OH242631   6.794   5.264   5.385  0.2878  0.0262  0.7833
 7047TIP3    H142632   6.794   5.254   5.290  0.8430 -1.1919  0.9093
 7047TIP3    H242633   6.799   5.175   5.419  0.4608  0.4707  1.9571
 7048TIP3   OH242634   6.595   4.335  13.219  0.1579  0.0643 -0.5952
 7048TIP3    H142635   6.577   4.393  13.146  1.7448 -0.9369 -1.8000
 7048TIP3    H242636   6.618   4.393  13.291 -1.1419  1.0339 -0.9384
 7049TIP3   OH242637   6.532   6.343   6.306 -0.3660  0.1551 -0.2066
 7049TIP3    H142638   6.586   6.270   6.335  1.6859  1.6288 -0.2474
 7049TIP3    H242639   6.565   6.419   6.354 -0.3311  1.6570 -2.5120
 7050TIP3   OH242640   4.557   6.241   1.458 -0.1150  0.5114  0.1393
 7050TIP3    H142641   4.463   6.229   1.476 -0.2925 -0.1471 -1.1856
 7050TIP3    H242642   4.560   6.297   1.381  0.5639 -0.4625 -0.5489
 7051TIP3   OH242643   1.091   1.563   4.297 -0.6038  0.1176  0.4289
 7051TIP3    H142644   1.039   1.559   4.217 -1.2017  0.3504  0.7987
 7051TIP3    H242645   1.050   1.498   4.355 -0.3450  0.1451  0.6439
 7052TIP3   OH242646   1.431   2.128  16.033  0.0312  0.6976  0.0497
 7052TIP3    H142647   1.402   2.147  15.944 -0.6339  1.7301  0.4701
 7052TIP3    H242648   1.403   2.204  16.084  0.8952  0.3695  1.0358
 7053TIP3   OH242649   4.343   4.575  12.985  0.0167 -0.1983  1.2115
 7053TIP3    H142650   4.396   4.541  12.913 -2.7096 -1.1743 -0.4201
 7053TIP3    H242651   4.377   4.530  13.062 -0.2594 -2.9921 -0.2100
 7054TIP3   OH242652   6.587   4.021   1.205 -0.4936  0.1899 -0.1839
 7054TIP3    H142653   6.579   4.064   1.289 -0.0707  0.0035 -0.0442
 7054TIP3    H242654   6.564   4.088   1.141 -1.7241  0.0656  0.1201
 7055TIP3   OH242655   4.767   4.797  13.405 -0.0507 -0.0284  0.2148
 7055TIP3    H142656   4.857   4.826  13.419 -0.7808  0.8212  3.6630
 7055TIP3    H242657   4.743   4.753  13.487 -2.6624 -0.5724 -0.7809
 7056TIP3   OH242658   5.285   1.861  11.230 -0.0604 -0.0100  0.1380
 7056TIP3    H142659   5.263   1.954  11.226  2.2295  0.4842 -2.1928
 7056TIP3    H242660   5.329   1.850  11.314 -2.4283  0.4595  1.5113
 7057TIP3   OH242661   4.606   4.130   1.285 -0.2444  0.2191 -0.3636
 7057TIP3    H142662   4.603   4.184   1.363 -0.0718 -0.2276 -0.0462
 7057TIP3    H242663   4.557   4.051   1.309  3.4136 -1.8271  0.7602
 7058TIP3   OH242664   2.821   1.367  12.685 -0.3780 -0.0010 -0.1301
 7058TIP3    H142665   2.771   1.292  12.651  1.1619 -1.2399  0.2585
 7058TIP3    H242666   2.864   1.332  12.763  0.1966  1.3740  0.1730
 7059TIP3   OH242667   2.609   5.395  13.711  0.0366  0.1571 -0.3121
 7059TIP3    H142668   2.686   5.338  13.701  0.3828  0.9717 -2.8341
 7059TIP3    H242669   2.638   5.480  13.678 -1.6784  0.7258 -0.4055
 7060TIP3   OH242670   3.057   1.914   0.884 -0.1976 -0.1584  0.2221
 7060TIP3    H142671   3.071   1.919   0.979 -0.5183  0.5337  0.2357
 7060TIP3    H242672   3.079   2.001   0.852  2.0647 -1.0226 -0.6396
 7061TIP3   OH242673   2.964   5.456  11.357  0.2438  0.4855 -0.3603
 7061TIP3    H142674   3.004   5.503  11.284 -0.5051  0.8537 -0.5367
 7061TIP3    H242675   2.870   5.455  11.337  0.0701  0.3297  0.4450
 7062TIP3   OH242676   5.697   5.238   4.843  0.2596 -0.2202  0.3163
 7062TIP3    H142677   5.645   5.249   4.923  1.7354 -1.7917  1.5208
 7062TIP3    H242678   5.634   5.213   4.776 -0.5731 -2.0592  1.7426
 7063TIP3   OH242679   3.285   6.246   0.248  0.0835  0.1526  0.3076
 7063TIP3    H142680   3.226   6.319   0.233 -0.8633 -0.1192  2.4199
 7063TIP3    H242681   3.316   6.259   0.338  1.3005 -1.0704  0.0827
 7064TIP3   OH242682   2.916   0.571  15.219  0.3402  0.1915 -0.4006
 7064TIP3    H142683   2.891   0.576  15.311  0.7215  0.5262 -0.3157
 7064TIP3    H242684   2.991   0.630  15.211  0.3792  0.0750 -0.9003
 7065TIP3   OH242685   4.421   2.097   6.407 -0.0148  0.3890 -0.2497
 7065TIP3    H142686   4.462   2.100   6.321  0.7593  1.2067  0.1470
 7065TIP3    H242687   4.367   2.176   6.411 -1.9519 -0.8358 -0.9035
 7066TIP3   OH242688   2.697   1.519  15.513 -0.5883  0.1648  0.6500
 7066TIP3    H142689   2.653   1.525  15.598  2.3851 -0.2588  2.2990
 7066TIP3    H242690   2.761   1.591  15.513  0.8631 -1.0778 -0.3222
 7067TIP3   OH242691   6.286   1.495  14.959  0.0410 -0.2379  0.7216
 7067TIP3    H142692   6.350   1.461  14.897 -1.3129 -1.0963 -0.2607
 7067TIP3    H242693   6.225   1.547  14.905 -1.0608 -0.8585  1.3370
 7068TIP3   OH242694   3.357   6.762  15.471 -0.6135 -1.0145  0.2747
 7068TIP3    H142695   3.447   6.732  15.488 -0.6290  0.4919  3.3906
 7068TIP3    H242696   3.365   6.857  15.458 -1.6698 -0.9567 -0.0107
 7069TIP3   OH242697   6.252   2.757   2.617  0.1559  0.0551  0.6805
 7069TIP3    H142698   6.331   2.801   2.584  0.6513 -2.1079 -1.1324
 7069TIP3    H242699   6.279   2.719   2.700 -0.0773  2.4751  1.9236
 7070TIP3   OH242700   5.423   5.966   0.676 -0.0805 -0.8939  0.3622
 7070TIP3    H142701   5.509   6.007   0.665 -0.3942 -0.1199  0.7567
 7070TIP3    H242702   5.443   5.880   0.713  0.5044 -0.5308  0.9126
 7071TIP3   OH242703   0.876   2.207  14.528 -0.5648 -0.1745 -0.2220
 7071TIP3    H142704   0.928   2.261  14.587  0.0858  0.2153 -1.1539
 7071TIP3    H242705   0.807   2.265  14.497 -0.7200 -0.2912 -0.0981
 7072TIP3   OH242706   0.558   3.838   1.780 -0.0638  0.5364 -0.1375
 7072TIP3    H142707   0.617   3.891   1.726 -0.8763  2.0856  0.4635
 7072TIP3    H242708   0.472   3.852   1.741 -0.4889  0.7653  0.8697
 7073TIP3   OH242709   2.658   4.886   1.650  0.0921 -0.1278  0.2333
 7073TIP3    H142710   2.591   4.818   1.653  1.3200 -1.3511  0.3573
 7073TIP3    H242711   2.687   4.896   1.740 -0.2376  0.7411  0.2528
 7074TIP3   OH242712   4.447   4.107   2.452 -0.1550 -0.1116 -0.3627
 7074TIP3    H142713   4.362   4.062   2.454 -0.7168  0.9538 -0.2604
 7074TIP3    H242714   4.499   4.055   2.390 -0.7712 -0.9542 -0.1920
 7075TIP3   OH242715   0.074   2.336   4.299 -0.3641  0.1677 -0.1806
 7075TIP3    H142716   0.013   2.340   4.372  0.4935  0.9873  0.4978
 7075TIP3    H242717   0.041   2.399   4.235 -0.6567  0.0362 -0.1597
 7076TIP3   OH242718   2.362   3.578  11.065 -0.7330 -0.1291  0.1358
 7076TIP3    H142719   2.328   3.488  11.065  1.3117 -0.9308  0.2610
 7076TIP3    H242720   2.450   3.570  11.029  0.2081  1.5344  1.9764
 7077TIP3   OH242721   4.865   1.031   2.771  0.0957  0.0414  0.7497
 7077TIP3    H142722   4.908   1.082   2.840  1.4213  0.1145 -0.1107
 7077TIP3    H242723   4.857   1.092   2.698 -0.0571 -0.4306  0.3726
 7078TIP3   OH242724   1.458   0.640   0.173 -0.5497  0.2581  0.2335
 7078TIP3    H142725   1.523   0.689   0.223 -0.8900  1.7786 -0.7684
 7078TIP3    H242726   1.462   0.551   0.208 -0.7084  1.2592  2.8809
 7079TIP3   OH242727   4.884   0.800  16.216  0.2844 -0.2703  0.0043
 7079TIP3    H142728   4.941   0.763  16.284  1.2266  0.2796 -0.4720
 7079TIP3    H242729   4.879   0.893  16.237  0.2941 -0.1596 -0.4659
 7080TIP3   OH242730   3.285   0.881  11.371 -0.3735 -0.5144  0.2643
 7080TIP3    H142731   3.364   0.835  11.399 -1.1443 -0.7529  2.0862
 7080TIP3    H242732   3.297   0.894  11.277  0.9142 -2.3680  0.1413
 7081TIP3   OH242733   0.332   1.930  13.845  0.1721 -0.1149 -0.5689
 7081TIP3    H142734   0.356   1.852  13.796 -1.4146 -0.8333 -0.2523
 7081TIP3    H242735   0.401   1.993  13.826  1.1857 -1.4148 -1.2536
 7082TIP3   OH242736   0.540   5.740  11.682  0.6594  0.5151  0.0024
 7082TIP3    H142737   0.612   5.746  11.619  0.5500  0.7579 -0.1027
 7082TIP3    H242738   0.462   5.761  11.630  0.2677 -1.6144 -0.3245
 7083TIP3   OH242739   1.864   5.549   2.785  0.2870  0.2561 -0.4443
 7083TIP3    H142740   1.886   5.642   2.780  1.5104  0.0851  1.2103
 7083TIP3    H242741   1.778   5.547   2.826 -0.7154  0.7273 -2.4541
 7084TIP3   OH242742   0.052   3.256  12.289 -0.0309  0.2252  0.6936
 7084TIP3    H142743   0.139   3.289  12.265 -0.7079  1.1465 -0.5226
 7084TIP3    H242744  -0.008   3.325  12.263 -1.5741 -2.2229 -2.6249
 7085TIP3   OH242745   5.115   3.040   1.417 -0.1115  0.2197  0.3065
 7085TIP3    H142746   5.211   3.042   1.409 -0.2544  0.4944 -1.7668
 7085TIP3    H242747   5.094   2.947   1.417  0.0137  0.1465 -2.0038
 7086TIP3   OH242748   5.557   5.897  12.860  0.1920 -0.1548  0.0055
 7086TIP3    H142749   5.524   5.983  12.832  0.5925 -0.7250 -2.3575
 7086TIP3    H242750   5.481   5.839  12.854 -0.0048 -0.0298  1.2991
 7087TIP3   OH242751   0.609   5.407  12.474 -0.0569  0.0978 -0.4045
 7087TIP3    H142752   0.544   5.453  12.528  2.3115  0.3817  2.3057
 7087TIP3    H242753   0.570   5.321  12.457 -1.2306  0.3270  1.0392
 7088TIP3   OH242754   3.568   2.980   1.009  0.0196 -0.4073  0.0924
 7088TIP3    H142755   3.584   3.035   1.085 -0.9387 -0.7230  0.5164
 7088TIP3    H242756   3.496   2.923   1.034 -0.2451 -0.5791 -1.0144
 7089TIP3   OH242757   1.167   2.140   2.563 -0.2819  0.2546 -0.0833
 7089TIP3    H142758   1.135   2.170   2.649 -0.5965  0.5474 -0.3019
 7089TIP3    H242759   1.242   2.084   2.584  0.0776  0.8883  0.3441
 7090TIP3   OH242760   5.395   0.205  16.856 -0.4499 -0.3511  0.8680
 7090TIP3    H142761   5.479   0.212  16.811 -0.8334  0.3681  0.2563
 7090TIP3    H242762   5.331   0.237  16.793 -1.0714  0.0133  1.6787
 7091TIP3   OH242763   1.271   4.440  15.682 -0.0486 -0.1410  0.2089
 7091TIP3    H142764   1.350   4.387  15.671  0.2278  0.2939  0.0674
 7091TIP3    H242765   1.212   4.385  15.733  1.0987  0.2902  2.0666
 7092TIP3   OH242766   0.108   4.301  12.151 -0.2505  0.6026  0.1165
 7092TIP3    H142767   0.111   4.228  12.089  3.2567  0.3918  0.4549
 7092TIP3    H242768   0.014   4.314  12.168 -0.9870 -3.5358 -0.2648
 7093TIP3   OH242769   2.632   1.722  13.200  0.0150 -0.6676  0.0643
 7093TIP3    H142770   2.679   1.713  13.283 -1.3677  0.7580  1.0254
 7093TIP3    H242771   2.641   1.815  13.177 -0.9979 -0.7124 -0.5459
 7094TIP3   OH242772   0.416   0.022  11.425 -0.2564  0.1992 -0.0550
 7094TIP3    H142773   0.488   0.052  11.480  1.3101 -3.7178  0.2028
 7094TIP3    H242774   0.452   0.025  11.336 -0.3338 -0.2680 -0.1004
 7095TIP3   OH242775   1.918   2.086  14.603 -0.1752 -0.1039  0.1597
 7095TIP3    H142776   2.010   2.097  14.580 -0.4487  1.1846 -0.4047
 7095TIP3    H242777   1.895   1.999  14.572  1.0756 -0.7750  1.0838
 7096TIP3   OH242778   4.738   0.876   5.472  0.1733  0.6039  0.2256
 7096TIP3    H142779   4.696   0.944   5.419 -0.4313 -0.3151 -0.4911
 7096TIP3    H242780   4.668   0.840   5.526  0.4130  0.2882  0.3289
 7097TIP3   OH242781   5.995   2.639   3.444  0.9366 -0.4551 -0.1400
 7097TIP3    H142782   6.014   2.662   3.535 -1.2429 -0.0577  0.2472
 7097TIP3    H242783   6.023   2.548   3.436 -0.8397 -1.1738  1.5464
 7098TIP3   OH242784   0.234   2.328  14.040 -0.0026  0.3623 -0.1705
 7098TIP3    H142785   0.166   2.383  14.000  0.1043  0.0989 -0.7221
 7098TIP3    H242786   0.284   2.294  13.966  1.0432  0.9452  0.2635
 7099TIP3   OH242787   4.373   5.736  15.220 -0.3083 -0.1544 -0.0750
 7099TIP3    H142788   4.387   5.658  15.275  1.7359 -0.7136 -1.3465
 7099TIP3    H242789   4.278   5.744  15.214 -0.5463 -2.1678  0.6213
 7100TIP3   OH242790   2.088   1.944   4.866  0.1353 -0.2490 -0.4787
 7100TIP3    H142791   2.030   1.896   4.926  0.4458  1.7555  1.5008
 7100TIP3    H242792   2.171   1.896   4.869 -0.7073 -1.7903 -1.5146
 7101TIP3   OH242793   6.627   5.839   1.540  0.4783  0.2636 -0.2433
 7101TIP3    H142794   6.636   5.857   1.634 -3.4119 -1.0841  0.4962
 7101TIP3    H242795   6.678   5.760   1.525  2.3563  1.3386  0.4016
 7102TIP3   OH242796   1.207   0.483   3.122  0.2028  0.2872 -0.4204
 7102TIP3    H142797   1.197   0.501   3.029  1.9410 -1.1913 -0.9425
 7102TIP3    H242798   1.250   0.561   3.157  2.3270 -0.3589 -1.4803
 7103TIP3   OH242799   1.211   4.509   6.018 -0.4254  0.6081 -0.2398
 7103TIP3    H142800   1.128   4.531   6.061 -0.3688  0.9723 -0.3149
 7103TIP3    H242801   1.205   4.415   6.001 -1.1880  0.7840 -1.0093
 7104TIP3   OH242802   5.382   0.558   5.975  0.2230  0.0287 -0.1320
 7104TIP3    H142803   5.388   0.499   6.050 -0.9672  0.2174  0.1222
 7104TIP3    H242804   5.339   0.507   5.907  2.4390 -0.5700 -1.1598
 7105TIP3   OH242805   0.879   4.636   3.634 -0.7189 -0.1051  0.8011
 7105TIP3    H142806   0.792   4.609   3.602 -0.7347  1.1044 -0.1853
 7105TIP3    H242807   0.940   4.578   3.589 -0.7704  1.3169 -1.1762
 7106TIP3   OH242808   1.735   3.495  16.387 -0.5426  0.1477  0.2322
 7106TIP3    H142809   1.743   3.557  16.315 -0.1900 -0.2023 -0.0280
 7106TIP3    H242810   1.820   3.499  16.432 -0.8022  0.4543  0.6976
 7107TIP3   OH242811   0.598   6.351   4.622 -0.1603 -0.0731 -0.3060
 7107TIP3    H142812   0.596   6.297   4.701 -0.3519  1.5482  0.8031
 7107TIP3    H242813   0.521   6.407   4.628 -0.7452 -0.6342 -2.1563
 7108TIP3   OH242814   0.177   2.046  10.816 -0.1450  0.3664  0.5937
 7108TIP3    H142815   0.253   2.039  10.758 -0.4731 -1.8852  0.4121
 7108TIP3    H242816   0.214   2.066  10.902  0.5599  0.4375  0.2765
 7109TIP3   OH242817   4.455   0.349   5.449  0.0082 -0.5129  0.2750
 7109TIP3    H142818   4.526   0.320   5.506  0.1119  0.0503  0.4423
 7109TIP3    H242819   4.405   0.411   5.503  0.1606  0.0914 -0.2702
 7110TIP3   OH242820   2.701   0.196  16.284  0.1432  0.4280  0.0376
 7110TIP3    H142821   2.734   0.264  16.224 -0.3800  2.8485  2.4232
 7110TIP3    H242822   2.758   0.121  16.267  1.7980  1.9596 -1.5093
 7111TIP3   OH242823   2.846   1.906   4.653  0.3876  0.4509  0.4152
 7111TIP3    H142824   2.871   1.963   4.580 -1.0971 -2.3239 -2.3516
 7111TIP3    H242825   2.924   1.852   4.669  0.1805 -0.0027 -0.1323
 7112TIP3   OH242826   3.535   4.816  15.080 -0.4416 -0.0785 -0.1923
 7112TIP3    H142827   3.481   4.895  15.087 -1.4119 -0.8088  0.6826
 7112TIP3    H242828   3.472   4.744  15.080  0.4251 -0.8620 -1.1373
 7113TIP3   OH242829   0.447   6.403   2.167  0.1421 -0.5557 -0.4531
 7113TIP3    H142830   0.373   6.407   2.227  0.1971 -0.4795 -0.3902
 7113TIP3    H242831   0.434   6.322   2.118  0.0734 -0.5959 -0.3689
 7114TIP3   OH242832   0.212   1.273  16.408 -0.0427  0.2758  0.0905
 7114TIP3    H142833   0.190   1.315  16.492  1.8576 -1.0241  1.2865
 7114TIP3    H242834   0.188   1.338  16.342 -2.3202  1.0169  1.5789
 7115TIP3   OH242835   4.623   1.110  11.262 -0.2505 -0.7753  0.3711
 7115TIP3    H142836   4.626   1.097  11.357 -0.0913 -0.0361  0.4736
 7115TIP3    H242837   4.714   1.126  11.237 -0.0705 -2.5960 -0.1546
 7116TIP3   OH242838   1.870   5.838  14.599 -0.4977 -0.1287 -0.8212
 7116TIP3    H142839   1.936   5.842  14.668  0.0206 -0.8083 -1.2740
 7116TIP3    H242840   1.794   5.882  14.636 -0.0008  0.0873 -0.0572
 7117TIP3   OH242841   4.366   2.197  14.773  0.4355  0.9625 -0.5048
 7117TIP3    H142842   4.438   2.256  14.796  0.8026  0.3946 -0.1922
 7117TIP3    H242843   4.359   2.137  14.848  1.7705 -1.0270 -1.9007
 7118TIP3   OH242844   3.876   0.226  16.727 -0.3822  0.0255 -0.1170
 7118TIP3    H142845   3.798   0.226  16.671  1.7177 -1.7768 -3.1720
 7118TIP3    H242846   3.914   0.313  16.715 -1.7868  0.8924  1.3377
 7119TIP3   OH242847   1.804   1.822  15.402  0.2089  0.4638  0.2459
 7119TIP3    H142848   1.807   1.772  15.483  2.9581 -0.2987 -0.2794
 7119TIP3    H242849   1.739   1.778  15.348  0.6421 -0.9166  0.8421
 7120TIP3   OH242850   6.459   3.998  14.471 -0.8121 -0.5642  0.0301
 7120TIP3    H142851   6.398   4.016  14.542 -0.8148 -0.6895  0.0590
 7120TIP3    H242852   6.520   3.934  14.506 -0.9288 -0.7693 -0.1420
 7121TIP3   OH242853   4.861   6.413  17.283  0.4436 -0.0303 -0.3771
 7121TIP3    H142854   4.821   6.421  17.196 -0.5372 -2.3562 -0.1649
 7121TIP3    H242855   4.886   6.321  17.289  0.0687  0.0091  2.0173
 7122TIP3   OH242856   4.328   1.604  12.847  0.6523 -0.3121  0.9512
 7122TIP3    H142857   4.260   1.623  12.782  0.4820 -1.1059  0.8949
 7122TIP3    H242858   4.315   1.670  12.915  0.1141 -0.1775  0.7219
 7123TIP3   OH242859   6.419   0.254  14.299  0.0717 -0.1859 -0.2505
 7123TIP3    H142860   6.342   0.309  14.281 -0.1887 -0.3748  0.2580
 7123TIP3    H242861   6.385   0.185  14.356  1.0371  0.8756  1.6597
 7124TIP3   OH242862   1.903   5.790  16.304  0.2690  0.2088 -0.2217
 7124TIP3    H142863   1.987   5.743  16.305  0.2356  0.1538  1.0360
 7124TIP3    H242864   1.920   5.870  16.255  0.5825 -0.6511 -1.5522
 7125TIP3   OH242865   3.885   1.582   2.554 -0.5531  0.3566  0.7936
 7125TIP3    H142866   3.939   1.507   2.581  0.1007  0.7011  0.4660
 7125TIP3    H242867   3.811   1.543   2.508 -0.3650 -0.1047  0.8756
 7126TIP3   OH242868   6.783   3.746  15.728 -0.0012  0.6790 -0.1871
 7126TIP3    H142869   6.728   3.817  15.761  0.2190  1.1997 -0.9302
 7126TIP3    H242870   6.869   3.786  15.715  0.2180  0.1858 -0.2439
 7127TIP3   OH242871   5.377   5.545   0.709 -0.3468 -0.4276  0.5049
 7127TIP3    H142872   5.452   5.529   0.652  0.1077  1.3089  0.5933
 7127TIP3    H242873   5.348   5.457   0.736  1.3266 -1.1258  0.0718
 7128TIP3   OH242874   1.337   5.785   1.736 -0.4995 -0.3040  0.3637
 7128TIP3    H142875   1.337   5.829   1.821  0.1535  0.6833 -0.1426
 7128TIP3    H242876   1.429   5.768   1.718 -0.2828  2.6099 -1.7307
 7129TIP3   OH242877   4.400   3.773   2.463 -0.1539 -0.3167 -0.3611
 7129TIP3    H142878   4.414   3.846   2.404 -1.5118  0.2116 -0.0360
 7129TIP3    H242879   4.362   3.704   2.409 -1.0093  0.0210 -0.1899
 7130TIP3   OH242880   1.778   6.140  14.280  0.4046  0.0551  0.3412
 7130TIP3    H142881   1.812   6.229  14.270  2.3284 -0.6502  0.4773
 7130TIP3    H242882   1.711   6.148  14.347 -1.5036  1.9209 -1.6909
 7131TIP3   OH242883   5.428   0.160   3.262  0.1296 -0.1091  0.3187
 7131TIP3    H142884   5.504   0.218   3.260 -0.1295  0.2120 -0.3747
 7131TIP3    H242885   5.397   0.157   3.172  1.1949 -2.7453 -0.0104
 7132TIP3   OH242886   1.699   2.901   3.795  0.2893 -0.0880  0.3912
 7132TIP3    H142887   1.684   2.808   3.816  0.4404  0.1949  1.7876
 7132TIP3    H242888   1.616   2.944   3.817  0.6449  0.3086  0.9556
 7133TIP3   OH242889   5.088   6.780  15.118 -0.6903  0.5436 -0.0384
 7133TIP3    H142890   5.027   6.733  15.061 -0.2936  1.3826 -1.1588
 7133TIP3    H242891   5.075   6.740  15.204 -1.4860 -0.5460 -0.6513
 7134TIP3   OH242892   5.398   6.236  11.782  0.0117 -0.3642  0.3268
 7134TIP3    H142893   5.456   6.236  11.706 -0.9874 -1.1409 -0.4511
 7134TIP3    H242894   5.428   6.161  11.834  0.4353 -0.0766  0.5031
 7135TIP3   OH242895   1.411   3.629   0.147 -0.2712  0.1592 -0.4212
 7135TIP3    H142896   1.360   3.551   0.128  2.0394 -1.7868  1.0879
 7135TIP3    H242897   1.392   3.648   0.239  3.4559 -2.0861  0.9596
 7136TIP3   OH242898   1.794   0.335   3.797 -0.1675 -0.4272  0.2783
 7136TIP3    H142899   1.825   0.244   3.795  1.1871  0.0164  0.3441
 7136TIP3    H242900   1.760   0.351   3.709  3.0904  0.1564 -0.9451
 7137TIP3   OH242901   1.796   3.537   0.531 -0.2822 -0.1997 -0.0002
 7137TIP3    H142902   1.736   3.465   0.550 -1.2289  0.4865 -0.3456
 7137TIP3    H242903   1.847   3.507   0.456 -1.8703  0.1511 -1.2553
 7138TIP3   OH242904   2.877   4.540  12.362  0.1034  0.2843 -0.1911
 7138TIP3    H142905   2.902   4.629  12.338 -1.2955  0.8015  0.2074
 7138TIP3    H242906   2.781   4.543  12.366  0.0970 -1.0133  0.7143
 7139TIP3   OH242907   3.863   0.575  12.462 -0.1075 -0.2534  0.1208
 7139TIP3    H142908   3.777   0.535  12.467  0.3671 -1.2381  0.4639
 7139TIP3    H242909   3.860   0.629  12.383 -1.3854  0.5498  0.7101
 7140TIP3   OH242910   4.854   2.291  12.542 -0.3450  0.1697 -0.3203
 7140TIP3    H142911   4.908   2.262  12.615  1.9084 -0.8054 -2.2989
 7140TIP3    H242912   4.805   2.366  12.576  0.6513 -0.2612  2.1584
 7141TIP3   OH242913   4.268   2.268   6.088  0.9111 -0.0534  0.0814
 7141TIP3    H142914   4.262   2.311   6.173  0.4004  0.6531 -0.3067
 7141TIP3    H242915   4.185   2.288   6.045  1.3657  0.0017 -0.7758
 7142TIP3   OH242916   6.461   2.613  16.007  0.1680  0.2044  0.1923
 7142TIP3    H142917   6.466   2.564  16.089  1.9605  0.0834  0.0263
 7142TIP3    H242918   6.528   2.574  15.951 -1.2187  0.1027 -1.4507
 7143TIP3   OH242919   2.237   3.890  15.843  0.3458  0.0356  0.5127
 7143TIP3    H142920   2.162   3.852  15.797 -1.0314  2.2330  0.8434
 7143TIP3    H242921   2.234   3.851  15.930  0.7325 -1.3134 -0.0662
 7144TIP3   OH242922   1.586   0.316  14.181  0.0006  0.1205 -0.1677
 7144TIP3    H142923   1.680   0.301  14.172 -0.2608 -1.2616 -0.6872
 7144TIP3    H242924   1.578   0.370  14.260  1.2632  0.7614 -0.4673
 7145TIP3   OH242925   5.743   4.268  16.638  0.1458  0.1339  0.5146
 7145TIP3    H142926   5.714   4.359  16.648  0.7270  0.2833  0.8688
 7145TIP3    H242927   5.789   4.266  16.554  1.1044  0.4280  1.0271
 7146TIP3   OH242928   4.264   2.314  13.137 -0.0898 -0.2084  0.3146
 7146TIP3    H142929   4.351   2.351  13.121  0.7981 -2.1286  0.5206
 7146TIP3    H242930   4.203   2.385  13.118  1.4894  0.9021 -0.6794
 7147TIP3   OH242931   0.296   4.769   5.560  0.2700 -0.2430 -0.4021
 7147TIP3    H142932   0.300   4.860   5.530  1.6690 -0.4208 -0.7931
 7147TIP3    H242933   0.227   4.729   5.506 -1.1829  0.8590  0.5910
 7148TIP3   OH242934   6.812   6.198   1.628  0.2841 -0.0327 -1.4215
 7148TIP3    H142935   6.907   6.214   1.632  0.5452 -1.5721 -1.1680
 7148TIP3    H242936   6.795   6.178   1.536  0.2495  0.0460 -1.4316
 7149TIP3   OH242937   0.673   5.140   5.826 -0.1756  0.1693 -0.7890
 7149TIP3    H142938   0.767   5.133   5.809  0.2204 -0.9945  1.6666
 7149TIP3    H242939   0.634   5.160   5.741  2.0667 -1.4981 -2.2257
 7150TIP3   OH242940   2.802   0.074  13.196  0.6416  0.2503  0.5935
 7150TIP3    H142941   2.765   0.118  13.272  1.2542  1.6671  0.0751
 7150TIP3    H242942   2.804  -0.019  13.221 -1.5638  0.3611  1.3171
 7151TIP3   OH242943   0.514   6.392  16.180 -0.0726 -0.1223  0.3555
 7151TIP3    H142944   0.434   6.378  16.129  0.4970 -0.5733 -0.4245
 7151TIP3    H242945   0.561   6.461  16.133  0.1120 -0.0184  0.6894
 7152TIP3   OH242946   1.637   4.129   1.646 -0.3764  0.5533 -0.2444
 7152TIP3    H142947   1.635   4.221   1.620  1.3224  0.6545 -0.0508
 7152TIP3    H242948   1.677   4.084   1.573 -0.8240  0.0158 -0.1606
 7153TIP3   OH242949   4.390   4.419   2.372  0.1236  0.1385  0.4276
 7153TIP3    H142950   4.480   4.395   2.347  0.1713 -1.4154  1.9395
 7153TIP3    H242951   4.400   4.462   2.457 -0.3424  2.3042 -0.5781
 7154TIP3   OH242952   6.280   6.444   4.639 -0.6289 -0.0346  0.6079
 7154TIP3    H142953   6.359   6.423   4.689 -0.0879 -1.1831 -0.7028
 7154TIP3    H242954   6.308   6.509   4.575  0.2301 -3.1630 -2.3804
 7155TIP3   OH242955   3.521   4.506  14.233 -0.1085  0.4979 -0.3521
 7155TIP3    H142956   3.593   4.562  14.204  0.5695 -0.1610  0.0260
 7155TIP3    H242957   3.510   4.443  14.162  0.2790  0.0591 -0.0269
 7156TIP3   OH242958   1.834   4.877   1.380  0.3590  0.1848 -0.2469
 7156TIP3    H142959   1.820   4.782   1.381  0.6201  0.1451 -0.3881
 7156TIP3    H242960   1.926   4.888   1.405  0.1120  0.4410  0.5562
 7157TIP3   OH242961   6.796   6.663  11.432 -0.0383 -0.4721  0.4162
 7157TIP3    H142962   6.769   6.754  11.428 -1.0143 -0.7699  0.0862
 7157TIP3    H242963   6.891   6.666  11.421 -0.1796  0.4280 -0.6758
 7158TIP3   OH242964   3.996   0.758   0.623 -0.1275 -0.0909 -0.2295
 7158TIP3    H142965   3.949   0.839   0.602 -0.1940  0.6691  2.6688
 7158TIP3    H242966   4.006   0.760   0.718  2.0157 -2.3326 -0.3679
 7159TIP3   OH242967   2.188   2.867  14.261 -0.0514 -0.4419 -0.5732
 7159TIP3    H142968   2.180   2.898  14.352 -0.1152 -0.0343 -0.7163
 7159TIP3    H242969   2.279   2.841  14.252 -0.4097 -1.9849  0.0876
 7160TIP3   OH242970   3.921   1.241  10.935 -0.2833 -0.3638  0.3237
 7160TIP3    H142971   3.978   1.275  11.003  0.2974 -0.1319 -0.2668
 7160TIP3    H242972   3.888   1.158  10.969 -0.7036  0.1804  1.2469
 7161TIP3   OH242973   2.884   1.852  11.842 -0.2224 -0.0304 -0.6302
 7161TIP3    H142974   2.857   1.859  11.751  0.7750 -0.9940 -1.0177
 7161TIP3    H242975   2.898   1.758  11.856  0.2764  0.1745  0.3196
 7162TIP3   OH242976   3.994   6.084  14.203  0.6845 -0.5302  0.2513
 7162TIP3    H142977   3.916   6.059  14.154  0.7119  0.9938 -0.6091
 7162TIP3    H242978   3.960   6.127  14.281  0.6475  0.3922 -0.2629
 7163TIP3   OH242979   3.354   0.125   4.932  0.3044 -0.3219 -0.0341
 7163TIP3    H142980   3.348   0.106   5.026  0.5255 -0.4396 -0.0437
 7163TIP3    H242981   3.395   0.047   4.894 -2.1885 -1.4045 -0.6154
 7164TIP3   OH242982   4.672   0.222  11.322 -0.4025  0.9814  0.0215
 7164TIP3    H142983   4.741   0.193  11.381 -0.2712  1.1520 -0.0478
 7164TIP3    H242984   4.704   0.304  11.285 -0.6021  1.0149 -0.0798
 7165TIP3   OH242985   5.097   3.850   5.344 -0.1599 -0.0633  0.0628
 7165TIP3    H142986   5.064   3.769   5.306  0.0801 -0.0422 -0.1928
 7165TIP3    H242987   5.018   3.904   5.358 -0.1429  0.4023 -1.5164
 7166TIP3   OH242988   6.784   2.615   1.933 -0.5146  0.5939  0.4191
 7166TIP3    H142989   6.843   2.549   1.896  1.0708  1.2105  1.7864
 7166TIP3    H242990   6.824   2.699   1.908 -2.0642  1.0470 -0.5945
 7167TIP3   OH242991   5.391   0.145   3.724  0.1208  0.1172  0.4476
 7167TIP3    H142992   5.402   0.135   3.818 -0.8415 -0.8607  0.4614
 7167TIP3    H242993   5.352   0.063   3.695 -0.2361  0.6742 -0.6956
 7168TIP3   OH242994   6.037   5.543   5.142  0.7545 -0.0137  0.0363
 7168TIP3    H142995   6.040   5.605   5.069  0.1165  2.2006  1.8312
 7168TIP3    H242996   6.128   5.535   5.171  0.7901  0.3404  0.0176
 7169TIP3   OH242997   3.594   1.068  15.956 -0.9510  0.0375 -0.5279
 7169TIP3    H142998   3.528   1.077  15.887  2.0133 -0.1480 -3.4619
 7169TIP3    H242999   3.577   0.981  15.993 -1.0183 -0.9157 -2.7259
 7170TIP3   OH243000   1.769   6.582   3.755  0.0733  0.6787  0.1800
 7170TIP3    H143001   1.678   6.570   3.728  0.4631 -0.0952 -0.8346
 7170TIP3    H243002   1.801   6.493   3.771  0.8896  0.8833 -0.2936
 7171TIP3   OH243003   2.485   2.549   3.597 -0.3748 -0.2340 -0.0961
 7171TIP3    H143004   2.484   2.475   3.658 -1.4285 -1.3640 -1.4275
 7171TIP3    H243005   2.462   2.625   3.650 -1.0482 -1.1602  0.9570
 7172TIP3   OH243006   0.687   6.082   5.683  0.2711  0.1814  0.2582
 7172TIP3    H143007   0.654   6.172   5.680  0.7761  0.4376  1.7826
 7172TIP3    H243008   0.658   6.043   5.601 -1.6543  1.1398  0.4435
 7173TIP3   OH243009   1.713   5.222  14.207  0.4973  0.5641 -0.1799
 7173TIP3    H143010   1.716   5.310  14.170 -1.5144  0.4465 -0.6637
 7173TIP3    H243011   1.672   5.233  14.293 -0.6825 -0.0171 -0.6569
 7174TIP3   OH243012   4.826   2.606   0.702 -0.2292  0.0415 -0.3293
 7174TIP3    H143013   4.828   2.567   0.790 -1.4355 -0.3189 -0.4407
 7174TIP3    H243014   4.747   2.568   0.662  0.0137  0.6295 -1.3669
 7175TIP3   OH243015   1.589   0.589   4.934 -0.7278 -0.8882  0.5218
 7175TIP3    H143016   1.636   0.619   5.013 -1.8661 -0.7384  1.1537
 7175TIP3    H243017   1.569   0.670   4.887  1.9538 -1.1121 -1.1086
 7176TIP3   OH243018   0.610   3.940   4.692 -0.7637  0.5150  0.2056
 7176TIP3    H143019   0.549   4.008   4.662 -1.0182  0.8644  1.4625
 7176TIP3    H243020   0.633   3.967   4.781 -0.4043 -0.7402  0.5001
 7177TIP3   OH243021   6.003   0.816   0.469 -0.7410 -0.0707 -0.4264
 7177TIP3    H143022   5.952   0.794   0.547 -0.5013 -0.0176 -0.2535
 7177TIP3    H243023   5.991   0.911   0.458 -1.7006 -0.2599 -1.1196
 7178TIP3   OH243024   4.476   3.206   4.732  0.6258 -0.0178  1.0977
 7178TIP3    H143025   4.568   3.185   4.714  0.6328 -0.6636  1.8391
 7178TIP3    H243026   4.456   3.158   4.813 -0.5363 -0.3813  0.6064
 7179TIP3   OH243027   5.011   1.519  11.409 -0.1914  0.5194  0.2617
 7179TIP3    H143028   5.065   1.467  11.469 -1.4866 -1.2699 -0.0548
 7179TIP3    H243029   5.012   1.607  11.446 -0.6603 -0.4633  2.7318
 7180TIP3   OH243030   0.400   6.280   0.067 -0.4590 -0.0630 -0.1752
 7180TIP3    H143031   0.367   6.227  -0.005  0.1602 -1.3395  0.4672
 7180TIP3    H243032   0.477   6.324   0.031  0.5760 -1.6592  0.0576
 7181TIP3   OH243033   6.770   5.919  15.469 -0.2824  0.4440 -0.6702
 7181TIP3    H143034   6.749   5.913  15.376  0.1532  2.2886 -0.9145
 7181TIP3    H243035   6.863   5.945  15.471  0.1477 -1.0896  0.2983
 7182TIP3   OH243036   1.077   3.878  12.289 -0.2952  0.3883 -0.4382
 7182TIP3    H143037   0.990   3.882  12.329  0.0131 -1.0399  0.3972
 7182TIP3    H243038   1.113   3.966  12.301 -0.4136  0.1260  1.9842
 7183TIP3   OH243039   6.607   1.821  16.000 -0.0381  0.0417  0.1341
 7183TIP3    H143040   6.596   1.742  16.054 -0.3111  1.3802  2.0750
 7183TIP3    H243041   6.537   1.879  16.028 -0.1827  0.7570 -1.6999
 7184TIP3   OH243042   5.968   3.881  11.819 -0.0132  0.6521  0.2336
 7184TIP3    H143043   6.030   3.810  11.803  0.1972  0.0406  3.4467
 7184TIP3    H243044   5.882   3.839  11.813  0.0331  0.5505  0.2983
 7185TIP3   OH243045   2.113   6.571   4.136 -0.0212 -0.0623 -0.0119
 7185TIP3    H143046   2.100   6.563   4.230  0.6053 -0.1551  0.0680
 7185TIP3    H243047   2.025   6.587   4.101  0.0285  2.0830  0.7878
 7186TIP3   OH243048   5.531   5.353  13.630 -0.4060 -0.4454  0.2208
 7186TIP3    H143049   5.454   5.323  13.582  0.3050 -1.8233 -0.1031
 7186TIP3    H243050   5.603   5.303  13.592  0.5405  0.3303  0.9869
 7187TIP3   OH243051   2.137   1.890   6.690 -0.0859 -0.4202 -0.3791
 7187TIP3    H143052   2.052   1.904   6.731  0.1568  0.5594 -0.1862
 7187TIP3    H243053   2.159   1.799   6.709 -0.8415 -0.5225  0.0212
 7188TIP3   OH243054   5.732   1.841  16.832 -0.5748  0.2400  0.8966
 7188TIP3    H143055   5.664   1.774  16.829  1.4802 -1.8604  0.1039
 7188TIP3    H243056   5.787   1.816  16.906  0.1973  1.0855  0.6121
 7189TIP3   OH243057   4.812   2.227   4.480  0.3234 -0.2034 -0.2999
 7189TIP3    H143058   4.885   2.168   4.461 -1.4447 -2.2422 -0.9331
 7189TIP3    H243059   4.753   2.218   4.405 -0.2671  1.9597 -0.1423
 7190TIP3   OH243060   2.097   5.645  11.254 -0.0535  0.1435 -0.3506
 7190TIP3    H143061   2.030   5.713  11.262  0.3417  0.2406  2.5506
 7190TIP3    H243062   2.049   5.563  11.264  0.2242  0.2181  1.8922
 7191TIP3   OH243063   3.303   0.774  12.953 -0.7788 -0.3408  0.3625
 7191TIP3    H143064   3.396   0.761  12.970 -0.2523  0.5163 -1.7362
 7191TIP3    H243065   3.286   0.726  12.872 -1.8985  0.4724  0.0988
 7192TIP3   OH243066   6.014   0.234   0.682 -0.4242 -0.1427 -0.4193
 7192TIP3    H143067   6.101   0.195   0.675 -0.0415  0.8983 -1.4301
 7192TIP3    H243068   5.954   0.161   0.667  0.2695 -0.8113  0.0139
 7193TIP3   OH243069   5.215   6.372  15.332 -0.0615 -0.6320  0.1458
 7193TIP3    H143070   5.198   6.413  15.247 -0.8243 -1.9334 -0.3482
 7193TIP3    H243071   5.263   6.438  15.381 -1.6541  1.0108 -0.4557
 7194TIP3   OH243072   4.918   2.595  15.602  0.3407 -0.1745 -0.0366
 7194TIP3    H143073   5.004   2.637  15.609  0.0763  0.8411 -2.2632
 7194TIP3    H243074   4.876   2.639  15.527 -1.5193 -1.6886  0.0769
 7195TIP3   OH243075   6.198   2.525   5.781 -0.0038  0.8763  0.5185
 7195TIP3    H143076   6.196   2.431   5.762 -0.9754  1.2521 -1.2732
 7195TIP3    H243077   6.202   2.529   5.876  1.6893 -1.0056  0.5710
 7196TIP3   OH243078   1.798   1.356  17.207 -0.1364  0.4416 -0.3527
 7196TIP3    H143079   1.879   1.408  17.207  0.6997 -0.8280  1.5794
 7196TIP3    H243080   1.741   1.401  17.269  0.6570 -1.0239  1.4655
 7197TIP3   OH243081   3.327   4.415   4.843 -0.2127 -0.1324  0.5679
 7197TIP3    H143082   3.245   4.404   4.890 -1.0810 -1.5027 -1.2162
 7197TIP3    H243083   3.302   4.453   4.758  0.9748 -0.6289 -0.0187
 7198TIP3   OH243084   4.247   2.549   4.270  0.3805  0.2416 -0.1833
 7198TIP3    H143085   4.308   2.486   4.233 -1.3538 -0.2970 -2.2558
 7198TIP3    H243086   4.277   2.634   4.237  1.4937  0.2873  0.9109
 7199TIP3   OH243087   4.827   4.192  15.663 -0.0052  0.4127  0.7528
 7199TIP3    H143088   4.847   4.285  15.650  0.4252  0.5724  2.4389
 7199TIP3    H243089   4.903   4.158  15.709 -0.0753 -0.8397 -0.0437
 7200TIP3   OH243090   5.440   5.654   3.922 -0.2489 -0.0422  0.0113
 7200TIP3    H143091   5.444   5.738   3.969 -0.5845  0.0728 -0.1591
 7200TIP3    H243092   5.363   5.610   3.959  0.7850 -0.9282  1.1661
 7201TIP3   OH243093   4.007   1.326   1.155 -0.4388  0.3066  0.9044
 7201TIP3    H143094   3.946   1.257   1.180  0.7895 -1.3718 -0.6293
 7201TIP3    H243095   3.979   1.351   1.067  0.2812  0.4565  0.7203
 7202TIP3   OH243096   5.892   2.813  11.256  0.0021 -0.0413 -0.1032
 7202TIP3    H143097   5.835   2.737  11.269  2.2151 -1.7074  0.1498
 7202TIP3    H243098   5.948   2.814  11.334  0.0139  1.8702 -0.1136
 7203TIP3   OH243099   2.235   0.535  16.312 -0.1970 -0.3269  0.0421
 7203TIP3    H143100   2.262   0.560  16.223 -1.2525  0.7213  0.0041
 7203TIP3    H243101   2.261   0.609  16.366 -0.6490 -0.4414  0.4147
 7204TIP3   OH243102   5.408   3.033   2.025  0.0482 -0.6970 -0.2630
 7204TIP3    H143103   5.360   2.963   2.070 -1.7529  0.6930  0.0266
 7204TIP3    H243104   5.464   3.071   2.092 -2.1101  0.9031  0.7010
 7205TIP3   OH243105   2.719   3.392  12.931 -0.1539 -0.0862 -0.8928
 7205TIP3    H143106   2.680   3.348  12.856 -0.9206 -0.6863 -0.1432
 7205TIP3    H243107   2.809   3.360  12.934  0.3636  1.1431 -2.5003
 7206TIP3   OH243108   5.438   5.045   1.860 -0.1254 -0.0388  0.1839
 7206TIP3    H143109   5.423   5.117   1.921  1.0927  0.9283 -0.6397
 7206TIP3    H243110   5.492   4.984   1.910 -0.0638  0.2245  0.4454
 7207TIP3   OH243111   1.777   4.113  16.766 -0.0778 -0.2478  0.0643
 7207TIP3    H143112   1.869   4.119  16.743  0.0001  0.8446  0.6188
 7207TIP3    H243113   1.763   4.020  16.788  0.8139 -0.4642 -0.2945
 7208TIP3   OH243114   0.445   2.263  17.148 -0.3280  0.1419 -0.3034
 7208TIP3    H143115   0.456   2.170  17.165  0.0325  0.2603  0.1342
 7208TIP3    H243116   0.355   2.282  17.176 -0.5769 -0.1809 -0.8904
 7209TIP3   OH243117   1.621   2.331   1.058 -0.1992 -0.0237 -0.3867
 7209TIP3    H143118   1.708   2.334   1.018  0.2383  0.8799  0.6147
 7209TIP3    H243119   1.603   2.238   1.070  1.6593 -0.1682  1.6073
 7210TIP3   OH243120   4.509   2.040  12.788  0.9464  0.5174 -0.2988
 7210TIP3    H143121   4.463   2.005  12.864  0.3753  0.4624 -0.6659
 7210TIP3    H243122   4.601   2.017  12.803  0.8735  0.7453  0.5027
 7211TIP3   OH243123   3.652   3.601  13.725  0.1811 -0.2125  0.1625
 7211TIP3    H143124   3.568   3.579  13.765 -1.2890  1.1585 -2.0339
 7211TIP3    H243125   3.662   3.536  13.655  0.9145 -0.2937  0.3396
 7212TIP3   OH243126   1.184   0.599   0.679 -0.1178  0.4158  0.4446
 7212TIP3    H143127   1.236   0.554   0.612 -2.8680 -0.6635 -1.0269
 7212TIP3    H243128   1.213   0.559   0.761  0.3767 -1.1847 -0.4766
 7213TIP3   OH243129   5.404   1.105  17.217 -0.8119 -0.0955 -0.0732
 7213TIP3    H143130   5.311   1.126  17.228 -0.0290  1.5995  4.4443
 7213TIP3    H243131   5.419   1.030  17.275  0.5582 -0.6570 -1.1229
 7214TIP3   OH243132   4.885   6.323   6.420  0.5427  0.1923  0.2826
 7214TIP3    H143133   4.906   6.230   6.415  3.0219  0.7014  0.7484
 7214TIP3    H243134   4.832   6.331   6.499 -0.7612 -1.0077 -0.4539
 7215TIP3   OH243135   1.002   1.653  14.749 -0.3148  0.2849  0.8770
 7215TIP3    H143136   0.976   1.566  14.781 -1.5380  0.5809  0.7180
 7215TIP3    H243137   0.934   1.676  14.685 -0.8908  2.0687  2.1078
 7216TIP3   OH243138   4.216   2.680  12.328 -0.0187  0.1490 -0.1530
 7216TIP3    H143139   4.135   2.630  12.326 -0.1227  0.3501 -1.6871
 7216TIP3    H243140   4.253   2.664  12.415 -1.5071 -0.2392  0.4151
 7217TIP3   OH243141   4.459   0.422  17.073 -0.6463  0.4633 -0.0477
 7217TIP3    H143142   4.367   0.426  17.100 -0.1156  2.7917  1.4752
 7217TIP3    H243143   4.495   0.347  17.122 -1.2020  0.9143  1.0751
 7218TIP3   OH243144   1.625   2.673  16.176  0.1081 -0.2501  0.0798
 7218TIP3    H143145   1.709   2.714  16.195  0.3078 -0.6103 -0.0236
 7218TIP3    H243146   1.646   2.602  16.115 -0.5731  1.1487 -1.8329
 7219TIP3   OH243147   0.322   1.451  14.514  0.1720  0.1497  0.0670
 7219TIP3    H143148   0.285   1.417  14.432  0.3262  0.1383  0.0015
 7219TIP3    H243149   0.246   1.473  14.567  0.0520 -2.4836  1.0560
 7220TIP3   OH243150   0.671   0.183   5.270  0.5314  0.5955 -0.4634
 7220TIP3    H143151   0.708   0.258   5.316  1.7656 -0.2490 -0.0588
 7220TIP3    H243152   0.741   0.118   5.270 -0.7468 -0.7968 -0.2447
 7221TIP3   OH243153   5.236   4.699   1.203  0.0878  0.1021  0.1453
 7221TIP3    H143154   5.297   4.646   1.151  1.6148 -0.3449  2.3205
 7221TIP3    H243155   5.155   4.648   1.204  0.8122 -1.0607  0.2827
 7222TIP3   OH243156   4.441   0.999   2.879  0.1503 -0.8437  0.4889
 7222TIP3    H143157   4.355   0.993   2.837 -0.3144  0.8054  1.1726
 7222TIP3    H243158   4.452   1.092   2.897  2.1861 -1.0126  0.2078
 7223TIP3   OH243159   0.137   4.689   4.529  0.1137 -0.4587  0.0741
 7223TIP3    H143160   0.128   4.612   4.473  0.7400 -1.3167  1.1249
 7223TIP3    H243161   0.057   4.690   4.581  1.2278 -1.9263  1.8909
 7224TIP3   OH243162   2.285   2.199   0.074  0.4143 -0.9058  0.0043
 7224TIP3    H143163   2.258   2.114   0.039 -0.6763 -0.6055  0.1178
 7224TIP3    H243164   2.213   2.225   0.132  0.8184  0.0235  0.0895
 7225TIP3   OH243165   5.348   3.476  10.751  0.2091  0.8731 -0.3159
 7225TIP3    H143166   5.370   3.481  10.845 -1.2127  0.6635  0.0383
 7225TIP3    H243167   5.257   3.504  10.747  0.1016  0.3374 -1.5794
 7226TIP3   OH243168   0.075   4.963  13.190  0.3507  0.4975  0.0220
 7226TIP3    H143169   0.153   4.950  13.136 -0.2376 -0.8895 -0.5093
 7226TIP3    H243170   0.027   5.033  13.147  1.2543  1.3154  0.3106
 7227TIP3   OH243171   2.942   5.458  15.275  0.3822  0.1248 -0.9445
 7227TIP3    H143172   2.904   5.382  15.230  1.7360 -0.1088 -1.7181
 7227TIP3    H243173   2.908   5.533  15.227  1.0774 -0.0919 -1.7952
 7228TIP3   OH243174   1.177   1.019  12.142  0.1551  0.0107  0.3388
 7228TIP3    H143175   1.089   1.055  12.155 -0.2639 -0.8002 -0.1758
 7228TIP3    H243176   1.208   0.998  12.230 -1.1101 -1.8504  0.3836
 7229TIP3   OH243177   0.799   1.456  11.741  0.0455  0.1494 -0.0991
 7229TIP3    H143178   0.810   1.451  11.646 -3.2174  1.6018 -0.6053
 7229TIP3    H243179   0.877   1.503  11.771 -0.2677  2.2846 -2.4073
 7230TIP3   OH243180   6.064   3.892   5.011 -0.4396  0.0624 -0.5597
 7230TIP3    H143181   6.142   3.866   4.962 -1.0582 -1.5679 -0.7126
 7230TIP3    H243182   6.054   3.825   5.078 -0.8468  1.0898  0.4359
 7231TIP3   OH243183   6.453   4.246  11.103  0.0349  0.1734 -0.4897
 7231TIP3    H143184   6.536   4.273  11.141  0.3394 -3.3111  1.5535
 7231TIP3    H243185   6.471   4.237  11.009  2.6648 -2.7134  0.2118
 7232TIP3   OH243186   2.321   6.178  12.120  0.2982  0.1393  0.0952
 7232TIP3    H143187   2.358   6.126  12.049  0.7806  1.2513 -0.4841
 7232TIP3    H243188   2.231   6.195  12.094  0.4475  0.4656 -0.2108
 7233TIP3   OH243189   5.321   5.967  15.046  0.0698  0.3406  0.5011
 7233TIP3    H143190   5.283   6.003  15.126 -0.5079  2.9826 -0.9145
 7233TIP3    H243191   5.394   5.912  15.077 -1.3942 -0.3303  2.9108
 7234TIP3   OH243192   4.329   1.182   3.181  0.0185  0.7310 -0.1741
 7234TIP3    H143193   4.421   1.168   3.159 -0.1523 -1.9272  0.7299
 7234TIP3    H243194   4.289   1.214   3.099  1.5437  1.0996 -0.7855
 7235TIP3   OH243195   6.056   0.916   6.141  0.5451 -0.0061  0.3893
 7235TIP3    H143196   6.038   0.994   6.088  1.5159  1.9098  2.7539
 7235TIP3    H243197   5.969   0.881   6.161  0.0986  0.2822 -0.9568
 7236TIP3   OH243198   1.589   1.784  11.985  0.2057  0.2877 -0.1741
 7236TIP3    H143199   1.533   1.759  11.911  2.4154 -0.6643 -1.5499
 7236TIP3    H243200   1.527   1.799  12.057 -1.8417 -0.4764 -1.7217
 7237TIP3   OH243201   2.388   1.705   0.021  0.7434 -0.4334 -0.2183
 7237TIP3    H143202   2.322   1.764  -0.015  0.5204 -0.6600 -0.1786
 7237TIP3    H243203   2.464   1.716  -0.036 -0.0962 -1.8876 -1.6334
 7238TIP3   OH243204   4.791   1.421  11.281  0.0851  1.0179 -0.5750
 7238TIP3    H143205   4.821   1.376  11.201 -0.5128  1.0142 -0.8036
 7238TIP3    H243206   4.870   1.455  11.321  0.6322 -0.7916 -0.0694
 7239TIP3   OH243207   2.499   1.470  14.909 -0.1233 -0.0261 -0.2990
 7239TIP3    H143208   2.542   1.555  14.922 -1.7989  1.2614 -2.7234
 7239TIP3    H243209   2.452   1.454  14.990  1.0205  0.8920  0.5650
 7240TIP3   OH243210   0.364   1.537  12.395 -0.0864 -0.0232 -0.3922
 7240TIP3    H143211   0.380   1.630  12.383 -2.1410  0.2784 -0.9057
 7240TIP3    H243212   0.434   1.508  12.453  1.1543  1.6236 -1.0401
 7241TIP3   OH243213   5.099   1.939  12.736 -0.1557 -0.5707 -0.1281
 7241TIP3    H143214   5.162   1.869  12.719 -0.4204 -0.3263 -2.2782
 7241TIP3    H243215   5.105   1.954  12.831  1.5283 -1.9418  0.0182
 7242TIP3   OH243216   6.642   4.361   5.885  0.3784  0.4002 -0.2342
 7242TIP3    H143217   6.694   4.427   5.931 -1.0226  1.1974  0.2522
 7242TIP3    H243218   6.552   4.392   5.894 -0.1174 -0.5837 -1.6563
 7243TIP3   OH243219   2.049   2.179  13.109  0.5053  0.0776  0.9154
 7243TIP3    H143220   2.042   2.243  13.180  1.6360  0.8647  0.3311
 7243TIP3    H243221   1.979   2.202  13.048  0.2986  0.1503  1.1789
 7244TIP3   OH243222   0.542   3.459  13.020 -0.0824  0.6021 -0.5088
 7244TIP3    H143223   0.584   3.398  13.081 -1.2377 -0.0611 -0.3616
 7244TIP3    H243224   0.485   3.512  13.075  0.5526  1.4899 -0.7073
 7245TIP3   OH243225   5.090   6.122  12.228  0.4855 -0.2061 -0.3502
 7245TIP3    H143226   5.118   6.032  12.208  0.6150  0.1177 -1.6237
 7245TIP3    H243227   5.130   6.176  12.160  1.8555  1.0616  1.4061
 7246TIP3   OH243228   0.146   6.492  16.389  0.1094 -0.0366  0.0015
 7246TIP3    H143229   0.071   6.538  16.428 -0.7098 -1.5728  0.2552
 7246TIP3    H243230   0.118   6.472  16.300  0.9252  0.9927 -0.5002
 7247TIP3   OH243231   6.454   5.915   1.361 -0.0001  0.3329 -0.1291
 7247TIP3    H143232   6.447   5.826   1.327  1.8295  1.4176 -3.6123
 7247TIP3    H243233   6.510   5.907   1.438 -1.6094 -1.7799  0.8907
 7248TIP3   OH243234   4.777   1.169   5.505 -0.8604 -0.2662  0.4916
 7248TIP3    H143235   4.807   1.078   5.510  0.7716  0.1891 -0.5727
 7248TIP3    H243236   4.707   1.167   5.440  0.9187 -0.3650 -1.5088
 7249TIP3   OH243237   0.088   4.384   6.499  0.4146  0.5337  0.0599
 7249TIP3    H143238   0.132   4.301   6.520  0.8561  0.7778  0.1143
 7249TIP3    H243239  -0.004   4.369   6.519  0.8055  0.7359  2.1319
 7250TIP3   OH243240   4.278   0.273  14.132  0.2276 -0.7675  0.7208
 7250TIP3    H143241   4.280   0.180  14.107  0.5877 -0.6514  0.3169
 7250TIP3    H243242   4.323   0.275  14.217 -0.6214 -1.0978  1.1908
 7251TIP3   OH243243   0.110   3.771   5.195  0.0986 -0.6033 -0.0781
 7251TIP3    H143244   0.016   3.759   5.208 -0.3772  0.5919 -2.1090
 7251TIP3    H243245   0.128   3.859   5.229  0.8541 -1.5554  2.0213
 7252TIP3   OH243246   1.138   4.577  11.313 -0.3082  0.0698  0.1096
 7252TIP3    H143247   1.187   4.638  11.368 -0.1064  1.2659 -1.3628
 7252TIP3    H243248   1.197   4.502  11.301 -0.2726 -0.1047  1.3260
 7253TIP3   OH243249   0.242   0.225  15.889  0.1222 -0.1028  0.8471
 7253TIP3    H143250   0.203   0.232  15.976 -1.1298  1.1833  0.2010
 7253TIP3    H243251   0.333   0.203  15.906 -0.0835  0.2096  2.4918
 7254TIP3   OH243252   5.336   5.600  13.991 -0.3522  0.5307  0.1457
 7254TIP3    H143253   5.402   5.604  13.921 -1.6527  0.9309 -1.0899
 7254TIP3    H243254   5.318   5.692  14.011 -2.4463  0.4982 -1.4043
 7255TIP3   OH243255   3.934   3.358   5.722  0.2176 -0.0357  0.1213
 7255TIP3    H143256   3.977   3.443   5.716  1.3027 -0.6154 -0.3732
 7255TIP3    H243257   4.004   3.295   5.711 -0.5443 -1.0069  0.7511
 7256TIP3   OH243258   5.744   5.001  11.997  0.2130 -0.5820 -0.1292
 7256TIP3    H143259   5.825   5.050  11.980  0.2578 -0.4156  0.5430
 7256TIP3    H243260   5.687   5.064  12.041  0.8116 -1.5392  2.0974
 7257TIP3   OH243261   0.235   0.506  14.577 -0.0122  0.3344  0.2934
 7257TIP3    H143262   0.223   0.414  14.552 -0.7816  0.4675  0.1565
 7257TIP3    H243263   0.241   0.553  14.493  3.4567  0.0472  0.3134
 7258TIP3   OH243264   0.588   6.577   4.949  0.7148  0.1079  0.2355
 7258TIP3    H143265   0.593   6.668   4.978  2.0982  0.1615 -0.1442
 7258TIP3    H243266   0.649   6.572   4.875  0.5830 -1.1067  0.2051
 7259TIP3   OH243267   1.171   2.133   5.429 -0.3168  0.1904 -0.3650
 7259TIP3    H143268   1.187   2.048   5.470 -1.6665  0.8387  1.5431
 7259TIP3    H243269   1.232   2.193   5.471 -1.4417  0.7741  0.4701
 7260TIP3   OH243270   2.556   6.456   2.983  0.3621  1.1744 -0.3444
 7260TIP3    H143271   2.634   6.460   2.927  0.5792 -1.1028 -0.2119
 7260TIP3    H243272   2.484   6.440   2.922  0.4714 -0.3329 -0.0814
 7261TIP3   OH243273   2.242   6.808  15.409  0.1995 -0.9178  0.0091
 7261TIP3    H143274   2.245   6.900  15.434 -2.6873 -0.8723  0.3441
 7261TIP3    H243275   2.297   6.764  15.474  1.9817  0.5927 -0.4294
 7262TIP3   OH243276   1.650   4.957  15.069  0.1604  0.6928 -0.7661
 7262TIP3    H143277   1.657   5.047  15.101  0.6803  0.2588  0.3548
 7262TIP3    H243278   1.559   4.949  15.038 -0.1532  1.3217 -0.0137
 7263TIP3   OH243279   1.854   0.083   4.125 -0.1133 -0.1030 -0.1650
 7263TIP3    H143280   1.762   0.092   4.103 -0.0291 -0.3757 -0.6320
 7263TIP3    H243281   1.881   0.002   4.083 -0.2676 -1.3253  2.0396
 7264TIP3   OH243282   2.330   5.653  11.419  0.1353 -0.3708 -0.3577
 7264TIP3    H143283   2.243   5.633  11.385 -0.5368  0.6266  0.7076
 7264TIP3    H243284   2.376   5.692  11.345  0.5023 -3.0519 -1.6131
 7265TIP3   OH243285   1.091   1.207   6.165 -1.0741  0.0200 -0.4799
 7265TIP3    H143286   1.031   1.167   6.228 -0.6701 -1.3086 -0.9313
 7265TIP3    H243287   1.090   1.148   6.090  0.2839  0.3410 -0.7595
 7266TIP3   OH243288   4.980   3.392  14.502  0.1669 -0.1051 -0.0341
 7266TIP3    H143289   4.890   3.360  14.515  0.0538  0.0963 -0.3367
 7266TIP3    H243290   4.974   3.451  14.427  0.7507 -0.9104 -0.7228
 7267TIP3   OH243291   6.105   0.642  13.104  0.2417 -0.6501  0.1429
 7267TIP3    H143292   6.141   0.559  13.075 -1.0355 -0.5054 -1.9664
 7267TIP3    H243293   6.141   0.707  13.042  1.5487  0.4517  2.0008
 7268TIP3   OH243294   4.359   0.242   1.085  0.3096  0.2720 -0.5147
 7268TIP3    H143295   4.298   0.262   1.014  0.7068  0.8564 -0.6914
 7268TIP3    H243296   4.303   0.212   1.157 -0.1506  0.4265 -0.8081
 7269TIP3   OH243297   3.268   6.029  10.432  0.5135  0.4503  0.2073
 7269TIP3    H143298   3.172   6.035  10.436  0.5073  0.0846  0.5513
 7269TIP3    H243299   3.296   6.119  10.414  0.0872  0.4994 -0.2264
 7270TIP3   OH243300   6.789   6.101   0.471 -0.7916  0.4593  0.4961
 7270TIP3    H143301   6.756   6.173   0.416 -0.7655 -0.7412 -1.1393
 7270TIP3    H243302   6.878   6.085   0.438 -1.5804 -1.7619 -0.6715
 7271TIP3   OH243303   1.821   4.888   1.756  0.6536 -0.3785  0.7486
 7271TIP3    H143304   1.874   4.823   1.709  0.0460 -0.7619  0.5884
 7271TIP3    H243305   1.858   4.973   1.729  0.8876 -0.6291  0.2737
 7272TIP3   OH243306   4.196   5.875   6.119 -0.0909 -0.5694  0.4958
 7272TIP3    H143307   4.101   5.892   6.121  0.4167  2.4758  0.8882
 7272TIP3    H243308   4.221   5.892   6.028 -0.0094 -1.9079  0.2696
 7273TIP3   OH243309   1.912   6.430   5.499 -0.9034  0.3186  0.1447
 7273TIP3    H143310   1.978   6.489   5.462 -1.8596  2.1865  1.3388
 7273TIP3    H243311   1.956   6.345   5.506  1.1943  1.4120  0.4160
 7274TIP3   OH243312   1.807   3.153  17.268  0.3990  0.7856  0.0538
 7274TIP3    H143313   1.842   3.211  17.201  2.1445  0.1693  0.4084
 7274TIP3    H243314   1.818   3.202  17.350 -0.2996  0.9093  0.0738
 7275TIP3   OH243315   5.140   5.393   3.503 -0.3262  0.2400  1.0659
 7275TIP3    H143316   5.099   5.439   3.576 -0.5090  1.6213  0.1378
 7275TIP3    H243317   5.231   5.423   3.504 -0.8287  1.9571 -0.5191
 7276TIP3   OH243318   3.545   5.072   2.998 -0.2453  0.1191  0.1841
 7276TIP3    H143319   3.598   5.044   2.923 -0.0401  0.3396  0.2491
 7276TIP3    H243320   3.552   5.000   3.061  0.3338  0.3417  0.3752
 7277TIP3   OH243321   1.860   0.471  14.019 -0.2079  0.6065 -0.1517
 7277TIP3    H143322   1.905   0.395  13.981  0.3472  0.7373  0.2400
 7277TIP3    H243323   1.827   0.439  14.103 -0.5252  0.6227 -0.2664
 7278TIP3   OH243324   3.617   1.936   5.625 -0.5534 -0.6886 -0.2163
 7278TIP3    H143325   3.638   1.889   5.706  1.2125  1.0806  0.3935
 7278TIP3    H243326   3.690   1.917   5.567  1.2963  2.8512  0.7576
 7279TIP3   OH243327   6.407   2.556   5.275 -0.1752 -0.4942  0.5681
 7279TIP3    H143328   6.438   2.646   5.268 -0.6679 -0.4015 -0.5498
 7279TIP3    H243329   6.398   2.540   5.369  0.5900  0.3869  0.7887
 7280TIP3   OH243330   5.390   0.410  13.591  0.0293  0.4254 -0.0471
 7280TIP3    H143331   5.422   0.423  13.680 -0.0498 -2.9594  0.5326
 7280TIP3    H243332   5.295   0.400  13.600 -0.0208  0.3984 -0.5662
 7281TIP3   OH243333   3.592   6.301  11.904  0.2294  0.0230  0.4272
 7281TIP3    H143334   3.658   6.243  11.943  0.1819 -0.1495  0.2487
 7281TIP3    H243335   3.644   6.373  11.866  0.1849  0.9080  2.0256
 7282TIP3   OH243336   5.596   1.416  11.616  0.0162 -0.2962 -0.7490
 7282TIP3    H143337   5.630   1.355  11.682 -0.7019  1.1335  0.9500
 7282TIP3    H243338   5.673   1.467  11.589  0.0136  0.1877  0.1437
 7283TIP3   OH243339   5.545   2.200   3.981  0.0781 -0.5562  0.5929
 7283TIP3    H143340   5.548   2.105   3.979 -1.0350 -0.5835 -1.6681
 7283TIP3    H243341   5.609   2.228   3.915  0.3054  0.2530  1.1433
 7284TIP3   OH243342   1.058   5.775   6.933  0.6830  0.5404  0.0936
 7284TIP3    H143343   1.010   5.708   6.981  0.6043  1.1028  0.8066
 7284TIP3    H243344   0.995   5.847   6.923  1.3447  1.2455  0.9513
 7285TIP3   OH243345   2.968   4.589   4.037 -0.1294 -0.1490 -0.0269
 7285TIP3    H143346   2.937   4.565   4.125 -0.6357  1.2011  0.1775
 7285TIP3    H243347   2.888   4.614   3.990  0.0062 -1.8118 -1.2016
 7286TIP3   OH243348   6.606   3.328  11.291 -0.2923 -0.2170 -0.3357
 7286TIP3    H143349   6.669   3.289  11.352  0.8710 -0.2904 -1.5559
 7286TIP3    H243350   6.526   3.278  11.304 -0.0169 -0.3284  1.0247
 7287TIP3   OH243351   5.845   4.780   3.458  0.3943  0.0330 -0.5549
 7287TIP3    H143352   5.841   4.710   3.523 -0.2482 -0.6562 -1.3229
 7287TIP3    H243353   5.821   4.738   3.376  0.7435  0.9967 -1.1605
 7288TIP3   OH243354   6.068   2.356   3.780  0.1304  0.2499  0.0065
 7288TIP3    H143355   6.002   2.343   3.848  0.2095  1.7039  0.3747
 7288TIP3    H243356   6.145   2.311   3.813 -0.0378  0.3647  0.5622
 7289TIP3   OH243357   4.417   2.904  14.387 -0.3201 -0.7538 -0.2248
 7289TIP3    H143358   4.508   2.930  14.403 -0.0595 -2.1648  0.6672
 7289TIP3    H243359   4.399   2.836  14.452 -1.5562 -1.5157 -1.3174
 7290TIP3   OH243360   0.529   5.582  16.372  0.0608 -0.2374 -0.4437
 7290TIP3    H143361   0.459   5.582  16.436 -0.2830  0.6542 -0.8192
 7290TIP3    H243362   0.560   5.491  16.371 -0.4414 -0.4237  0.4148
 7291TIP3   OH243363   6.769   5.149  14.160 -0.7013 -0.1620  0.6614
 7291TIP3    H143364   6.752   5.141  14.253 -2.1426  1.6714  0.5884
 7291TIP3    H243365   6.763   5.243  14.142 -0.2528 -0.4603 -1.2366
 7292TIP3   OH243366   3.848   2.235  15.384  0.4204  0.2657 -0.1694
 7292TIP3    H143367   3.803   2.311  15.346 -0.1632  0.8882  1.7398
 7292TIP3    H243368   3.941   2.255  15.374  0.2673  1.1678  0.1952
 7293TIP3   OH243369   3.695   5.600  16.268 -0.2501  0.2844  0.8213
 7293TIP3    H143370   3.759   5.529  16.279  2.1139  1.9491 -1.7220
 7293TIP3    H243371   3.649   5.578  16.188  0.0957  1.3323  0.3371
 7294TIP3   OH243372   5.701   4.529   0.370 -0.0062  0.6979  0.3094
 7294TIP3    H143373   5.716   4.461   0.436 -0.4734 -0.5812 -0.8839
 7294TIP3    H243374   5.640   4.489   0.308  0.5509  1.8340 -0.9901
 7295TIP3   OH243375   4.541   2.554  14.137  0.3625 -0.2500  0.3667
 7295TIP3    H143376   4.555   2.555  14.231  0.5609  0.9524  0.3388
 7295TIP3    H243377   4.461   2.605  14.124  0.2862 -0.4859 -0.1043
 7296TIP3   OH243378   5.086   1.176  12.067 -0.2960  0.2117 -0.7943
 7296TIP3    H143379   5.092   1.095  12.016  0.4937 -0.0548 -0.2884
 7296TIP3    H243380   5.174   1.214  12.064  0.0669 -0.3727  1.2523
 7297TIP3   OH243381   1.023   3.901  15.455  1.1059 -0.4448  0.3193
 7297TIP3    H143382   0.962   3.829  15.451  0.2965  0.2804 -0.6632
 7297TIP3    H243383   1.102   3.864  15.494  0.1512 -1.4503  1.3218
 7298TIP3   OH243384   2.091   3.160   1.122  0.2688 -0.2005 -0.6254
 7298TIP3    H143385   2.089   3.133   1.214 -0.2080  0.5158 -0.4198
 7298TIP3    H243386   2.184   3.168   1.101  0.3743  0.9151  0.1913
 7299TIP3   OH243387   1.071   1.384  16.755  0.2330 -0.2434  0.3426
 7299TIP3    H143388   1.039   1.324  16.687  0.3036 -1.2648  1.2054
 7299TIP3    H243389   0.994   1.438  16.776 -0.0916 -0.6691  0.2575
 7300TIP3   OH243390   4.288   5.147  11.661 -0.9415 -0.0544  0.4934
 7300TIP3    H143391   4.224   5.108  11.602 -0.9843 -1.4884  1.4671
 7300TIP3    H243392   4.257   5.123  11.749  1.7147 -2.0651  0.9417
 7301TIP3   OH243393   5.381   2.629  15.412 -0.0886  0.8762 -0.2855
 7301TIP3    H143394   5.298   2.675  15.402  0.8082  2.4552 -0.5721
 7301TIP3    H243395   5.356   2.539  15.434 -1.8661  1.7897  1.6364
 7302TIP3   OH243396   4.196   0.691   4.340 -0.0886  0.2848 -0.4209
 7302TIP3    H143397   4.247   0.632   4.396  0.3248  0.3977 -0.6742
 7302TIP3    H243398   4.201   0.651   4.253 -2.2887 -0.8858 -0.0238
 7303TIP3   OH243399   6.736   4.216  10.746  0.1701 -0.2969 -0.3198
 7303TIP3    H143400   6.768   4.129  10.769  2.4844  0.7397  0.5839
 7303TIP3    H243401   6.657   4.228  10.799 -0.7422 -2.1944 -1.1883
 7304TIP3   OH243402   0.175   1.933   1.532 -0.0696  0.0623 -0.3727
 7304TIP3    H143403   0.169   1.970   1.444 -0.0398  1.1899  0.0987
 7304TIP3    H243404   0.189   2.008   1.590 -2.1948 -0.4114  0.8321
 7305TIP3   OH243405   1.102   6.106   4.058 -0.0294 -0.2236 -0.5495
 7305TIP3    H143406   1.090   6.023   4.013  1.1718 -0.4308 -0.4952
 7305TIP3    H243407   1.098   6.172   3.988 -0.8390 -0.3317 -0.6068
 7306TIP3   OH243408   0.025   3.612  16.348  0.2088 -0.5926 -0.2940
 7306TIP3    H143409   0.076   3.631  16.270 -1.1304 -1.2693 -1.3648
 7306TIP3    H243410  -0.064   3.597  16.315 -0.6177  0.2389  1.4826
 7307TIP3   OH243411   1.801   0.387   3.462  0.1519 -0.2499  0.2211
 7307TIP3    H143412   1.758   0.385   3.376 -1.8493  0.5940  1.1714
 7307TIP3    H243413   1.829   0.296   3.476 -0.3581 -0.5932 -0.9034
 7308TIP3   OH243414   3.414   1.666  14.958 -0.0661 -0.1242 -0.0345
 7308TIP3    H143415   3.480   1.725  14.923 -2.0927  1.4117 -1.3818
 7308TIP3    H243416   3.454   1.579  14.954  1.8745  0.7879 -0.7715
 7309TIP3   OH243417   5.105   2.256  10.975 -0.4739  0.0777 -0.2083
 7309TIP3    H143418   5.077   2.222  10.889 -1.8808  1.5797 -0.3832
 7309TIP3    H243419   5.135   2.345  10.956 -1.9037  0.8493  1.0000
 7310TIP3   OH243420   1.187   3.883  14.634 -0.0010  0.6087  0.5218
 7310TIP3    H143421   1.157   3.947  14.699 -2.4773  0.0094  0.0056
 7310TIP3    H243422   1.244   3.824  14.683 -0.8286  0.9041  1.8599
 7311TIP3   OH243423   1.380   1.470   1.125  0.2059 -0.6623  0.0955
 7311TIP3    H143424   1.332   1.418   1.189 -2.5592  0.1463 -1.2153
 7311TIP3    H243425   1.468   1.433   1.125 -0.1471 -1.6506  3.2151
 7312TIP3   OH243426   6.697   1.036   5.801 -0.6123 -0.0711  0.2019
 7312TIP3    H143427   6.661   1.095   5.735  0.0705 -1.6022 -1.5747
 7312TIP3    H243428   6.791   1.051   5.797 -0.5529 -0.2955  0.7190
 7313TIP3   OH243429   6.572   2.545  13.165  0.3050  0.1963  0.2567
 7313TIP3    H143430   6.564   2.575  13.075  0.8519 -1.1433 -0.2473
 7313TIP3    H243431   6.483   2.520  13.191 -0.3480  3.1102  1.0125
 7314TIP3   OH243432   2.155   5.765   1.797  0.4981  0.2376  0.2748
 7314TIP3    H143433   2.096   5.832   1.763  1.5735  0.7195 -0.6690
 7314TIP3    H243434   2.195   5.726   1.720  2.0478  0.5045  0.9134
 7315TIP3   OH243435   5.755   2.459  16.215  0.4402  0.4927 -0.7148
 7315TIP3    H143436   5.809   2.438  16.138 -0.1283  0.6359 -1.1540
 7315TIP3    H243437   5.785   2.546  16.242  2.2976 -0.5386  0.6734
 7316TIP3   OH243438   5.765   6.127   5.664 -0.2403  0.0586  0.1062
 7316TIP3    H143439   5.729   6.086   5.742 -0.2273  1.3070  0.7835
 7316TIP3    H243440   5.860   6.120   5.674 -0.2462 -0.2645 -0.0632
 7317TIP3   OH243441   1.822   6.068   2.560  0.0433  0.6106  0.6049
 7317TIP3    H143442   1.858   6.152   2.530  0.0065  0.9886  1.5836
 7317TIP3    H243443   1.729   6.072   2.540 -0.1495  1.2420  1.5866
 7318TIP3   OH243444   1.578   5.029  16.817 -0.4571  0.0673 -0.2177
 7318TIP3    H143445   1.625   5.068  16.744 -1.6117  0.5576 -0.7165
 7318TIP3    H243446   1.495   5.077  16.821 -1.2125 -1.2197  0.1930
 7319TIP3   OH243447   2.795   6.127  17.249  0.6666 -0.0441  0.1702
 7319TIP3    H143448   2.798   6.223  17.251 -1.4398  0.0626  0.0132
 7319TIP3    H243449   2.885   6.099  17.265  0.9967  1.9437  2.0572
 7320TIP3   OH243450   3.071   4.138   0.299  0.4956 -0.3460 -0.4007
 7320TIP3    H143451   3.014   4.070   0.334 -0.5647  1.5676  1.7926
 7320TIP3    H243452   3.017   4.184   0.235  0.5051 -0.2926 -0.3709
 7321TIP3   OH243453   4.869   2.783  16.704 -0.1817 -0.1356 -0.0860
 7321TIP3    H143454   4.805   2.760  16.771 -0.2763  0.8905  0.1916
 7321TIP3    H243455   4.944   2.818  16.752 -0.1873  0.4619 -0.4942
 7322TIP3   OH243456   6.774   1.063  16.621  0.2023 -0.6614 -0.3017
 7322TIP3    H143457   6.779   1.090  16.713 -0.1191  0.5493 -0.6305
 7322TIP3    H243458   6.737   0.975  16.624  1.0203 -0.9821  0.7854
 7323TIP3   OH243459   1.382   3.440  15.249  0.5601  0.0238  0.1315
 7323TIP3    H143460   1.301   3.451  15.200  0.4052 -2.3621 -0.2380
 7323TIP3    H243461   1.451   3.467  15.189  0.3316 -2.3065 -1.2642
 7324TIP3   OH243462   3.951   1.657  14.663  0.1299 -0.2859 -0.1188
 7324TIP3    H143463   3.894   1.681  14.591 -2.3467 -1.0410  1.5126
 7324TIP3    H243464   3.955   1.736  14.718 -1.0874 -0.8876  0.8524
 7325TIP3   OH243465   0.597   4.236  15.356 -0.4654 -0.3829 -0.3774
 7325TIP3    H143466   0.675   4.190  15.386  0.0272 -0.5848 -1.9075
 7325TIP3    H243467   0.605   4.238  15.260 -1.7548  0.6234 -0.4909
 7326TIP3   OH243468   6.615   3.784   3.584 -0.2083 -0.3052  0.3461
 7326TIP3    H143469   6.610   3.878   3.564  3.5631  0.1298  1.0610
 7326TIP3    H243470   6.668   3.748   3.513 -4.3706 -2.6190 -1.8061
 7327TIP3   OH243471   1.911   3.089   3.345 -0.2566  0.2912  0.4915
 7327TIP3    H143472   1.924   3.006   3.299  1.8020  0.9812 -0.2240
 7327TIP3    H243473   1.864   3.065   3.425  1.4161 -1.7594  0.9188
 7328TIP3   OH243474   3.514   4.602   0.086 -0.2885 -0.4712  0.3354
 7328TIP3    H143475   3.433   4.607   0.035 -1.2101 -1.5413  1.6733
 7328TIP3    H243476   3.485   4.603   0.177  1.2906  0.4249  0.8361
 7329TIP3   OH243477   4.184   1.255   1.719  0.0573  0.0541  0.8357
 7329TIP3    H143478   4.093   1.282   1.718  0.2926  0.8522  0.3239
 7329TIP3    H243479   4.231   1.326   1.676  0.8349 -0.6546  0.4862
 7330TIP3   OH243480   1.598   4.609   5.953 -0.1169  0.3437  0.5217
 7330TIP3    H143481   1.686   4.611   5.991  0.0353 -2.2462  0.3942
 7330TIP3    H243482   1.540   4.608   6.029  0.1590 -3.4876  0.8150
 7331TIP3   OH243483   2.548   5.354   3.762 -0.1917  0.0417  0.4360
 7331TIP3    H143484   2.487   5.279   3.763 -1.1832  0.6985 -2.9383
 7331TIP3    H243485   2.492   5.429   3.742  1.6146  0.7769 -1.9631
 7332TIP3   OH243486   3.962   1.695   2.136  0.2408  0.5876  0.2959
 7332TIP3    H143487   4.038   1.652   2.096 -2.0138 -1.8891 -1.4993
 7332TIP3    H243488   3.949   1.648   2.219 -0.3491 -0.1720 -0.2160
 7333TIP3   OH243489   0.597   4.327   3.946 -0.2930 -1.2397 -0.6639
 7333TIP3    H143490   0.655   4.251   3.934 -0.0084 -1.2780  0.9491
 7333TIP3    H243491   0.509   4.289   3.955 -0.1238 -1.3986  0.3552
 7334TIP3   OH243492   1.452   6.624   4.982 -0.6697  0.1946  0.4513
 7334TIP3    H143493   1.379   6.574   4.946 -1.3917  0.6446  1.2595
 7334TIP3    H243494   1.511   6.639   4.908 -0.9854 -0.8893 -0.0306
 7335TIP3   OH243495   1.095   3.345  16.034  0.0904  0.1163 -0.3267
 7335TIP3    H143496   1.086   3.440  16.036 -0.8501  0.0104  0.8877
 7335TIP3    H243497   1.148   3.324  16.110 -1.2717 -0.4864  0.4734
 7336TIP3   OH243498   6.769   2.400  14.490  0.1040 -0.2928  0.1448
 7336TIP3    H143499   6.836   2.450  14.537  0.1613  0.9090 -1.1694
 7336TIP3    H243500   6.687   2.426  14.532  0.4801 -2.0423  1.9927
 7337TIP3   OH243501   6.182   4.598  11.252 -0.3831  0.1902  0.0081
 7337TIP3    H143502   6.245   4.631  11.188 -0.4654  0.5818  0.1246
 7337TIP3    H243503   6.097   4.622  11.217 -0.3580  2.5109  1.3795
 7338TIP3   OH243504   1.937   0.385  11.250 -0.9068 -0.2365 -0.3600
 7338TIP3    H143505   2.008   0.351  11.195 -1.4403  0.3099 -1.3980
 7338TIP3    H243506   1.868   0.319  11.242 -0.1235 -1.3425  1.5595
 7339TIP3   OH243507   1.117   6.119  13.045  0.2486  0.2327  0.2129
 7339TIP3    H143508   1.087   6.040  13.000  1.2150  0.0742 -0.1669
 7339TIP3    H243509   1.079   6.114  13.132 -0.3987 -0.2183 -0.0966
 7340TIP3   OH243510   2.003   1.660   1.441 -0.5851 -0.5263 -0.1301
 7340TIP3    H143511   1.925   1.631   1.395 -0.9442 -1.6159  1.1333
 7340TIP3    H243512   2.001   1.755   1.433 -2.8864 -0.4169  1.1821
 7341TIP3   OH243513   5.277   4.322   5.398  0.0487  0.1137  0.1631
 7341TIP3    H143514   5.182   4.334   5.391  0.1640 -0.5179 -3.5933
 7341TIP3    H243515   5.292   4.230   5.376  1.3861 -0.3969  2.9675
 7342TIP3   OH243516   5.508   0.863  13.936 -0.1870 -0.0385  0.3873
 7342TIP3    H143517   5.472   0.946  13.906  0.7947  0.5864  0.9193
 7342TIP3    H243518   5.435   0.820  13.981 -0.7517  0.4410 -0.0606
 7343TIP3   OH243519   3.764   1.566  16.056 -0.5880 -0.6173 -0.7912
 7343TIP3    H143520   3.708   1.496  16.087  0.9532 -1.6483 -0.2797
 7343TIP3    H243521   3.774   1.550  15.962 -2.4082  0.4976 -1.2136
 7344TIP3   OH243522   3.903   0.388  12.017 -0.1172  0.0089 -0.0621
 7344TIP3    H143523   3.898   0.370  12.111  1.1751 -2.8611 -0.4837
 7344TIP3    H243524   3.832   0.334  11.979  0.2429  0.0819 -0.8478
 7345TIP3   OH243525   5.965   3.698   6.016  0.4796 -0.0711 -0.1546
 7345TIP3    H143526   5.917   3.620   5.990 -0.6188 -0.3174  2.4165
 7345TIP3    H243527   5.988   3.683   6.108  0.2286  2.6186  0.4060
 7346TIP3   OH243528   0.652   2.105   0.687 -0.5221 -0.3170 -0.2819
 7346TIP3    H143529   0.556   2.102   0.691 -0.5149  1.2710  1.5471
 7346TIP3    H243530   0.675   2.191   0.722  1.6367 -1.0773  0.2304
 7347TIP3   OH243531   3.895   5.223   2.977 -0.1562 -0.6983  0.0177
 7347TIP3    H143532   3.913   5.262   3.063 -0.0850 -0.1819 -0.2277
 7347TIP3    H243533   3.874   5.132   2.996  0.6865 -0.7984  0.5075
 7348TIP3   OH243534   5.900   3.593   0.446 -0.1651 -0.1207  0.6414
 7348TIP3    H143535   5.880   3.681   0.478 -0.2608  0.2712 -0.4704
 7348TIP3    H243536   5.901   3.539   0.525 -0.7106  0.7633  1.2727
 7349TIP3   OH243537   0.956   2.457  14.732  0.0920  0.3320  0.1341
 7349TIP3    H143538   0.917   2.452  14.819 -0.7972 -0.0898 -0.2871
 7349TIP3    H243539   0.883   2.478  14.673  0.3344 -1.2404 -0.7653
 7350TIP3   OH243540   4.104   4.054   4.976  0.2068 -0.4319 -0.2066
 7350TIP3    H143541   4.077   4.082   5.063  0.4791 -1.3277  0.1768
 7350TIP3    H243542   4.044   4.098   4.916 -1.2359 -1.3249  0.5475
 7351TIP3   OH243543   2.337   0.915  15.041  0.1706 -0.3037 -0.0693
 7351TIP3    H143544   2.317   0.837  15.092 -0.2910  0.1451  0.4539
 7351TIP3    H243545   2.253   0.939  15.001  0.2719  0.0023 -0.1010
 7352TIP3   OH243546   6.169   3.527  16.467 -0.1159  0.8678  0.0491
 7352TIP3    H143547   6.074   3.531  16.473 -0.0825  1.1034  0.4866
 7352TIP3    H243548   6.189   3.546  16.376 -0.5681 -0.7208 -0.3981
 7353TIP3   OH243549   3.951   0.161   4.170 -0.3390  0.3901 -0.3436
 7353TIP3    H143550   3.966   0.109   4.091 -0.7794 -0.2984  0.0226
 7353TIP3    H243551   4.030   0.214   4.179  0.7069 -1.2023  0.0441
 7354TIP3   OH243552   2.539   0.239   1.817  0.1459  0.5666  0.2765
 7354TIP3    H143553   2.609   0.247   1.752  0.4666  1.3786  0.7229
 7354TIP3    H243554   2.462   0.277   1.774 -0.9697 -3.4173 -1.5720
 7355TIP3   OH243555   5.346   6.683   4.318 -0.0129 -0.1070 -0.0097
 7355TIP3    H143556   5.439   6.665   4.325 -0.1921 -1.0046  0.1956
 7355TIP3    H243557   5.331   6.757   4.376  0.5136 -0.1779  0.2207
 7356TIP3   OH243558   6.354   4.826   3.244  0.0161  0.1410 -0.8410
 7356TIP3    H143559   6.267   4.789   3.257  0.2879  0.2613  1.6770
 7356TIP3    H243560   6.343   4.920   3.256  0.7284  0.0058  1.0937
 7357TIP3   OH243561   0.445   1.703   5.224  0.3400 -0.1793  0.4639
 7357TIP3    H143562   0.355   1.698   5.191  1.0924  2.2066 -2.1781
 7357TIP3    H243563   0.484   1.619   5.200 -1.1932 -1.2917  1.7678
 7358TIP3   OH243564   4.384   0.953   1.061 -0.1488 -0.0038 -0.1625
 7358TIP3    H143565   4.376   0.859   1.049  1.5217 -0.1668 -0.1379
 7358TIP3    H243566   4.379   0.967   1.156 -2.1346  0.1316 -0.2638
 7359TIP3   OH243567   5.279   5.506  12.106  0.1097  0.0207 -0.7404
 7359TIP3    H143568   5.271   5.411  12.093  0.2818 -0.0434 -0.3918
 7359TIP3    H243569   5.189   5.538  12.105  0.1444  0.1067 -2.6851
 7360TIP3   OH243570   4.619   2.498  13.861  0.2266  0.0940  0.0869
 7360TIP3    H143571   4.545   2.445  13.829  1.7051 -2.6829  1.1089
 7360TIP3    H243572   4.608   2.498  13.956 -0.4034  2.6673  0.0369
 7361TIP3   OH243573   0.653   3.165  11.978 -0.4669 -0.2214 -0.4570
 7361TIP3    H143574   0.615   3.192  12.061 -1.1774  0.3220 -0.9503
 7361TIP3    H243575   0.673   3.247  11.933 -0.2847 -0.5118 -0.9094
 7362TIP3   OH243576   3.528   6.385   2.400 -0.1571 -0.2661  0.3696
 7362TIP3    H143577   3.609   6.334   2.401  0.9200  1.3318 -1.1835
 7362TIP3    H243578   3.468   6.337   2.457  0.2358 -4.1560 -2.2988
 7363TIP3   OH243579   4.679   1.856  15.186  0.1713 -0.1795  0.1403
 7363TIP3    H143580   4.702   1.775  15.232 -0.3643 -1.2402 -1.4556
 7363TIP3    H243581   4.656   1.829  15.097 -2.2741  1.4396  0.2138
 7364TIP3   OH243582   2.955   4.752   5.743 -0.2229  0.2615 -0.4267
 7364TIP3    H143583   2.890   4.765   5.674 -0.6001 -0.1261 -0.1447
 7364TIP3    H243584   2.975   4.658   5.739  0.1705  0.3432 -0.3807
 7365TIP3   OH243585   2.977   6.423   0.505 -0.3281  0.3468  0.4890
 7365TIP3    H143586   3.065   6.461   0.493 -1.8516  4.2577  0.8466
 7365TIP3    H243587   2.981   6.379   0.590  1.1261  0.9983  0.7755
 7366TIP3   OH243588   2.874   5.501   4.405  0.3070 -0.0827  0.0012
 7366TIP3    H143589   2.951   5.462   4.447  0.5389 -0.3912 -0.6951
 7366TIP3    H243590   2.842   5.565   4.468 -0.1607 -1.4939  1.2381
 7367TIP3   OH243591   4.372   3.359  10.829 -0.0421 -0.3273  0.5122
 7367TIP3    H143592   4.443   3.339  10.890  0.5294 -1.9681 -0.6470
 7367TIP3    H243593   4.327   3.275  10.817 -0.2285 -0.0050 -1.1762
 7368TIP3   OH243594   4.954   0.081   5.692 -0.1148 -0.1710  0.0981
 7368TIP3    H143595   5.027   0.080   5.629  1.0786 -0.4956  1.4390
 7368TIP3    H243596   4.877   0.060   5.640  0.4997  1.7256 -1.6497
 7369TIP3   OH243597   2.764   0.458  13.289 -0.1288 -0.1813  0.1497
 7369TIP3    H143598   2.729   0.508  13.363 -1.8424  0.5701 -1.1200
 7369TIP3    H243599   2.719   0.374  13.294  1.6487 -1.0690  1.4222
 7370TIP3   OH243600   1.052   1.097  11.628  0.5438  0.1864  0.3909
 7370TIP3    H143601   1.065   1.187  11.598 -1.5518  0.4555  0.1775
 7370TIP3    H243602   1.066   1.100  11.722 -0.9850  1.0652  0.6031
 7371TIP3   OH243603   1.491   2.285   5.016 -0.0971  0.3797 -0.2804
 7371TIP3    H143604   1.446   2.226   5.077 -1.2554 -0.6965 -2.1324
 7371TIP3    H243605   1.426   2.303   4.948  1.6146  0.4793 -1.9176
 7372TIP3   OH243606   2.432   5.133   5.505  0.5236 -0.5238 -0.7029
 7372TIP3    H143607   2.521   5.099   5.505  0.7534  0.0592 -1.2593
 7372TIP3    H243608   2.395   5.103   5.422 -0.4354 -2.3636  0.3583
 7373TIP3   OH243609   4.230   2.117  16.530 -0.5480 -0.4175 -0.4070
 7373TIP3    H143610   4.148   2.075  16.502 -0.1805 -0.0437 -2.1571
 7373TIP3    H243611   4.263   2.062  16.600 -1.9473 -0.9792 -0.1716
 7374TIP3   OH243612   1.986   3.140   5.219  0.1972 -0.2813 -1.0996
 7374TIP3    H143613   1.970   3.220   5.169  0.9455  0.1214 -0.6886
 7374TIP3    H243614   1.911   3.134   5.279  0.6713  0.6884 -0.3872
 7375TIP3   OH243615   3.540   1.253  13.941 -0.2793 -0.3824 -0.1019
 7375TIP3    H143616   3.570   1.232  14.029 -1.5406 -0.9281  0.2159
 7375TIP3    H243617   3.567   1.343  13.927 -0.2993 -0.2087  0.9504
 7376TIP3   OH243618   6.014   2.152   6.440  0.4451  0.1153 -0.0020
 7376TIP3    H143619   6.094   2.120   6.399  0.6518  1.0592 -0.3281
 7376TIP3    H243620   6.035   2.239   6.472  0.0957 -0.3628  1.5882
 7377TIP3   OH243621   5.834   6.349  12.118  0.1580 -0.3343 -0.0366
 7377TIP3    H143622   5.739   6.336  12.119  0.3387 -1.7732  0.5930
 7377TIP3    H243623   5.846   6.442  12.102 -1.3493 -0.3645 -1.4945
 7378TIP3   OH243624   0.846   1.192  13.265 -1.0075 -0.7520  0.1330
 7378TIP3    H143625   0.937   1.210  13.287 -0.9813 -1.3004  0.4914
 7378TIP3    H243626   0.849   1.161  13.174 -1.1888  2.1394 -0.9067
 7379TIP3   OH243627   0.784   5.089   3.015  0.6446  0.3868  0.1254
 7379TIP3    H143628   0.712   5.057   2.961 -0.1712  0.3533  1.2089
 7379TIP3    H243629   0.773   5.184   3.015  0.3595  0.3545  0.6183
 7380TIP3   OH243630   5.439   4.910   3.597  0.0115  0.2954 -0.6342
 7380TIP3    H143631   5.446   4.969   3.522  1.4080  1.1460  0.1301
 7380TIP3    H243632   5.492   4.952   3.665 -0.1351 -1.1380  0.3860
 7381TIP3   OH243633   6.090   5.977   3.625  0.0060 -0.3125 -0.4566
 7381TIP3    H143634   6.023   6.000   3.560 -0.1278 -0.5080 -0.3870
 7381TIP3    H243635   6.081   6.043   3.693 -0.7033 -0.8610 -0.0212
 7382TIP3   OH243636   4.990   1.388  14.432  0.6243  0.0840  0.3450
 7382TIP3    H143637   4.981   1.408  14.526 -0.7372  0.1473  0.2090
 7382TIP3    H243638   5.077   1.350  14.424  0.9397  0.5327  1.5699
 7383TIP3   OH243639   4.531   4.054  12.816 -0.5727 -0.0491  0.6235
 7383TIP3    H143640   4.568   4.141  12.796  1.2564 -0.6574  1.2633
 7383TIP3    H243641   4.466   4.071  12.884 -2.1777  1.1675 -1.1706
 7384TIP3   OH243642   0.794   3.599  15.673 -0.4555  0.3841 -0.0009
 7384TIP3    H143643   0.855   3.526  15.657  0.2310  0.6499  1.2984
 7384TIP3    H243644   0.709   3.557  15.686 -0.0106 -0.2102  1.0250
 7385TIP3   OH243645   6.389   6.464   3.690  0.4710  0.3573 -0.1424
 7385TIP3    H143646   6.354   6.523   3.757  1.2612  0.3092  0.3226
 7385TIP3    H243647   6.479   6.448   3.718  0.3421 -0.8482 -0.4280
 7386TIP3   OH243648   3.933   1.493   0.429 -0.0859  0.1129 -0.3384
 7386TIP3    H143649   4.020   1.527   0.409  0.3983 -0.8900 -0.0077
 7386TIP3    H243650   3.950   1.405   0.463 -1.2270 -0.0621 -0.2164
 7387TIP3   OH243651   3.379   1.085  13.127 -0.1819 -0.2079  0.5530
 7387TIP3    H143652   3.403   1.114  13.215  0.9855 -1.1520  0.5684
 7387TIP3    H243653   3.429   1.004  13.115 -1.6455 -0.9814 -0.3295
 7388TIP3   OH243654   4.046   5.212  10.568  0.0193  0.0208  0.1509
 7388TIP3    H143655   3.961   5.177  10.594 -0.1367  0.2131 -0.1086
 7388TIP3    H243656   4.043   5.304  10.595 -0.0516  0.1605 -0.3372
 7389TIP3   OH243657   2.467   4.186  13.495 -0.6988  0.1323  0.4455
 7389TIP3    H143658   2.507   4.269  13.469  0.1662 -0.6716 -0.8767
 7389TIP3    H243659   2.431   4.150  13.414  0.8507 -1.8041  0.5611
 7390TIP3   OH243660   4.348   4.869  14.196 -0.6025 -0.1478  0.1312
 7390TIP3    H143661   4.309   4.828  14.118 -0.1129  2.3680 -1.5242
 7390TIP3    H243662   4.308   4.956  14.199  0.7543  0.4399  1.6489
 7391TIP3   OH243663   5.806   5.080  12.411  0.1138 -0.1976 -0.3116
 7391TIP3    H143664   5.877   5.137  12.383  0.4583 -0.0589  0.8158
 7391TIP3    H243665   5.840   4.991  12.401  0.9562 -0.1046  1.5039
 7392TIP3   OH243666   1.466   1.629   0.244  1.1444 -0.4665 -0.4212
 7392TIP3    H143667   1.515   1.641   0.326  0.9091 -2.0249 -0.0230
 7392TIP3    H243668   1.375   1.627   0.272  0.9108  1.3517 -1.0268
 7393TIP3   OH243669   2.333   2.278  12.772  0.2633 -0.3650  0.4564
 7393TIP3    H143670   2.424   2.254  12.756  0.7156  0.9471  1.0207
 7393TIP3    H243671   2.318   2.355  12.718 -0.7732 -1.1016 -0.3028
 7394TIP3   OH243672   1.568   4.931  16.498  0.1638 -0.7046 -0.4722
 7394TIP3    H143673   1.599   4.876  16.427 -2.6496 -0.5604 -1.8982
 7394TIP3    H243674   1.496   4.881  16.537  0.6143 -0.0599  1.2412
 7395TIP3   OH243675   6.365   2.916  13.113 -0.0253 -0.0284 -0.5428
 7395TIP3    H143676   6.348   2.867  13.193 -0.9187 -0.6860 -1.1244
 7395TIP3    H243677   6.291   2.977  13.106  0.9740  1.2819  0.0752
 7396TIP3   OH243678   1.309   1.497  16.765 -0.6168  0.3335 -0.0719
 7396TIP3    H143679   1.222   1.459  16.782 -0.4978  0.1319  0.0904
 7396TIP3    H243680   1.353   1.432  16.711 -0.5404  0.4029 -0.0932
 7397TIP3   OH243681   5.299   3.271  13.401  0.2404  0.6894 -0.5063
 7397TIP3    H143682   5.204   3.281  13.410 -0.0030 -2.1258  0.5927
 7397TIP3    H243683   5.336   3.328  13.469 -0.6002  2.2888 -1.3488
 7398TIP3   OH243684   4.314   2.342  16.409  0.4220 -0.3309 -0.0703
 7398TIP3    H143685   4.404   2.341  16.442  0.6869  0.1177 -0.7774
 7398TIP3    H243686   4.272   2.268  16.453  1.0692 -0.4069  0.4404
 7399TIP3   OH243687   1.547   3.601   3.744  0.1877  0.0528  0.9182
 7399TIP3    H143688   1.534   3.694   3.762  0.5238  0.6773 -1.8016
 7399TIP3    H243689   1.462   3.561   3.763 -0.1971  1.0472  1.3350
 7400TIP3   OH243690   6.012   3.702   1.102 -0.0579  0.3073  0.1337
 7400TIP3    H143691   6.020   3.675   1.194  0.0641  1.0925  0.3556
 7400TIP3    H243692   5.980   3.792   1.107  1.1436  0.7786 -0.5821
 7401TIP3   OH243693   3.707   6.164  12.749 -0.2449 -0.1395  0.1728
 7401TIP3    H143694   3.722   6.097  12.683  1.7699  1.0653 -0.6612
 7401TIP3    H243695   3.647   6.124  12.812 -2.0582 -1.3848 -2.2689
 7402TIP3   OH243696   1.738   6.381   3.938  0.5777  0.1940 -0.0664
 7402TIP3    H143697   1.764   6.309   3.997  0.6362 -0.3270 -0.7222
 7402TIP3    H243698   1.657   6.350   3.898  1.5081 -0.2308 -1.6331
 7403TIP3   OH243699   4.477   3.717  12.383 -0.1419 -0.1622  0.3373
 7403TIP3    H143700   4.423   3.723  12.462 -0.7382  1.2341 -0.1506
 7403TIP3    H243701   4.556   3.673  12.412  0.3136  1.6977  2.0948
 7404TIP3   OH243702   6.038   2.729   1.892  0.0298  0.1541  0.2343
 7404TIP3    H143703   6.030   2.776   1.974 -0.5770  0.3553  0.0635
 7404TIP3    H243704   6.101   2.780   1.841 -0.5178  0.7085  0.1050
 7405TIP3   OH243705   0.742   0.293  13.010 -0.2622  0.2833 -0.0110
 7405TIP3    H143706   0.752   0.273  13.103  0.1670  0.7581  0.0499
 7405TIP3    H243707   0.683   0.368  13.007 -0.5464  0.0532 -0.1380
 7406TIP3   OH243708   4.611   0.509   4.719  0.1150  0.1224  0.1530
 7406TIP3    H143709   4.540   0.564   4.753  1.5848  1.2119  1.4781
 7406TIP3    H243710   4.634   0.452   4.792 -1.0826 -1.9814 -1.0642
 7407TIP3   OH243711   0.565   6.016   5.467  0.3043  0.1020 -0.2384
 7407TIP3    H143712   0.506   6.088   5.442  1.0285  1.4823  1.8895
 7407TIP3    H243713   0.506   5.942   5.482 -0.9848  1.5243  2.0814
 7408TIP3   OH243714   1.559   5.357  12.606  0.2423 -0.0139  0.2630
 7408TIP3    H143715   1.649   5.328  12.592  0.1540 -0.9474  1.4500
 7408TIP3    H243716   1.510   5.324  12.531  0.9681  0.8498 -0.5866
 7409TIP3   OH243717   1.695   5.099  15.828 -0.0376  0.1963 -0.1199
 7409TIP3    H143718   1.720   5.007  15.827  0.6265  0.3581  0.5055
 7409TIP3    H243719   1.658   5.112  15.916  1.3309  0.8889  0.3713
 7410TIP3   OH243720   1.240   4.773  11.498  0.2438 -0.2330 -0.1327
 7410TIP3    H143721   1.160   4.818  11.525 -0.0198 -2.5420  3.3517
 7410TIP3    H243722   1.309   4.839  11.504 -0.8154  0.8017  0.7243
 7411TIP3   OH243723   4.061   6.459   1.556  0.9765  0.0590 -0.6111
 7411TIP3    H143724   3.986   6.454   1.496 -0.1321  0.6368  0.7093
 7411TIP3    H243725   4.130   6.502   1.505 -0.1388  1.0795 -1.2895
 7412TIP3   OH243726   0.536   1.953  14.243 -0.3906 -0.2201  0.1017
 7412TIP3    H143727   0.562   1.979  14.331 -2.0088 -0.1225  0.5652
 7412TIP3    H243728   0.503   2.033  14.203 -2.0292 -0.7760  0.2946
 7413TIP3   OH243729   4.636   4.668   3.675  0.7396  0.2460  0.2486
 7413TIP3    H143730   4.635   4.575   3.656 -1.6615  0.1061  0.8792
 7413TIP3    H243731   4.632   4.673   3.771 -1.6428  0.9852  0.1338
 7414TIP3   OH243732   1.399   3.510  13.526  0.0999  0.2975  0.0788
 7414TIP3    H143733   1.355   3.435  13.566  0.2038  0.0651 -0.2372
 7414TIP3    H243734   1.426   3.565  13.600 -1.4798  0.8735  0.2450
 7415TIP3   OH243735   3.424   0.258  14.133 -0.0625  0.0280  0.1060
 7415TIP3    H143736   3.510   0.248  14.173 -0.5166 -0.9212  0.8830
 7415TIP3    H243737   3.415   0.352  14.118  1.1529  0.1153 -0.1021
 7416TIP3   OH243738   2.021   3.940   0.451 -0.3707  0.4844  0.0482
 7416TIP3    H143739   1.944   3.989   0.480 -0.2441  0.4846  0.3810
 7416TIP3    H243740   2.030   3.869   0.516  0.2420  0.8120  0.3231
 7417TIP3   OH243741   1.633   5.208   5.948 -0.3210 -0.1599 -0.0765
 7417TIP3    H143742   1.704   5.150   5.921  2.2295  2.2425  1.1702
 7417TIP3    H243743   1.617   5.187   6.040 -0.8281 -0.2776 -0.1891
 7418TIP3   OH243744   5.376   0.297  16.578 -0.0694  0.7623 -0.4352
 7418TIP3    H143745   5.461   0.323  16.544  1.3802 -0.6101  1.9668
 7418TIP3    H243746   5.353   0.217  16.530  0.5660  0.4690 -0.2526
 7419TIP3   OH243747   6.155   6.495   1.728 -0.4128  0.0330  0.3218
 7419TIP3    H143748   6.223   6.448   1.777  0.2081  0.7817  0.1962
 7419TIP3    H243749   6.107   6.543   1.795  0.1921  0.7525  0.2513
 7420TIP3   OH243750   3.601   2.982   2.726  0.2324  0.1190 -0.2698
 7420TIP3    H143751   3.670   2.999   2.662 -1.3570 -2.6438 -2.8951
 7420TIP3    H243752   3.529   3.039   2.699  0.9923  1.9986  1.6284
 7421TIP3   OH243753   4.935   3.959  12.385  0.5206 -0.3826  0.1764
 7421TIP3    H143754   4.863   3.897  12.393 -0.7593  0.9466 -0.6968
 7421TIP3    H243755   4.954   3.963  12.291  1.1083 -0.0202  0.3038
 7422TIP3   OH243756   6.285   4.181  16.166 -0.4682  0.4815  0.2497
 7422TIP3    H143757   6.273   4.087  16.151 -0.7464  0.5072  0.2983
 7422TIP3    H243758   6.225   4.222  16.103  0.4477  0.6479 -0.5357
 7423TIP3   OH243759   1.661   0.294  11.074  0.3714  0.0506 -0.4989
 7423TIP3    H143760   1.733   0.318  11.015 -1.6542 -0.5687 -3.3172
 7423TIP3    H243761   1.624   0.378  11.101 -0.2055  0.3349 -2.0984
 7424TIP3   OH243762   2.018   3.339   1.423  0.5569  0.3745 -0.2013
 7424TIP3    H143763   1.978   3.395   1.357 -0.0363 -0.6596 -0.7410
 7424TIP3    H243764   1.986   3.251   1.402  2.7785 -0.4302 -0.4046
 7425TIP3   OH243765   0.878   0.353  15.449 -1.0142  0.4744 -0.3572
 7425TIP3    H143766   0.804   0.332  15.392 -0.7666 -0.6110 -0.2898
 7425TIP3    H243767   0.899   0.270  15.493 -2.2500  1.6575  2.5815
 7426TIP3   OH243768   1.125   2.850   0.477 -0.2748  0.0394 -0.3000
 7426TIP3    H143769   1.145   2.763   0.443 -0.6293 -0.5143  0.9169
 7426TIP3    H243770   1.205   2.876   0.523 -1.0364 -0.6589  1.4299
 7427TIP3   OH243771   2.395   0.862   6.320  0.5621 -0.1759 -0.2068
 7427TIP3    H143772   2.377   0.774   6.286 -0.4434  0.2627 -0.8563
 7427TIP3    H243773   2.411   0.849   6.413 -0.4646 -0.9609 -0.1233
 7428TIP3   OH243774   4.841   2.813   3.847 -0.0555 -0.0101 -0.1353
 7428TIP3    H143775   4.749   2.837   3.834 -0.4783 -2.2380 -1.5752
 7428TIP3    H243776   4.839   2.755   3.923 -0.0769 -1.3065 -1.1119
 7429TIP3   OH243777   1.834   2.119   3.799 -0.2080 -0.7470 -0.0162
 7429TIP3    H143778   1.867   2.131   3.888  0.7008 -0.4332 -0.3942
 7429TIP3    H243779   1.910   2.130   3.743 -1.4040  2.5612 -1.0838
 7430TIP3   OH243780   2.753   4.887   1.912  0.5223 -0.2314 -0.8150
 7430TIP3    H143781   2.731   4.854   1.999  0.3768  1.4894 -0.1709
 7430TIP3    H243782   2.767   4.981   1.925 -1.0437  0.3512 -2.9135
 7431TIP3   OH243783   5.457   3.197   3.490  0.1617 -0.1613  0.1364
 7431TIP3    H143784   5.481   3.282   3.454  1.1200  0.0723  1.3001
 7431TIP3    H243785   5.538   3.162   3.526  0.0942 -2.2675 -1.7143
 7432TIP3   OH243786   2.787   2.768   1.242 -0.1494  0.1998  0.5531
 7432TIP3    H143787   2.777   2.673   1.245  0.7033  0.1048  0.5067
 7432TIP3    H243788   2.728   2.796   1.171  0.1074 -0.3604  0.1159
 7433TIP3   OH243789   4.531   1.224   0.045 -0.5628 -0.0819  0.4586
 7433TIP3    H143790   4.626   1.220   0.058 -0.6599  0.5657  1.4219
 7433TIP3    H243791   4.512   1.151  -0.014  0.6436  0.2833 -0.4020
 7434TIP3   OH243792   3.235   3.211   1.733 -0.6045 -0.3918  0.1989
 7434TIP3    H143793   3.173   3.222   1.660 -0.6846 -0.1871  0.2985
 7434TIP3    H243794   3.208   3.276   1.798  1.7165  2.0280 -1.1162
 7435TIP3   OH243795   3.842   3.832   0.056 -0.3103  0.6183 -0.2120
 7435TIP3    H143796   3.869   3.746   0.025  0.2254  0.6400  0.1887
 7435TIP3    H243797   3.748   3.823   0.074 -0.6302  0.6086 -1.8233
 7436TIP3   OH243798   0.283   5.027   5.419  0.1853 -0.1472 -0.3898
 7436TIP3    H143799   0.298   5.094   5.484  0.1877  1.3115 -1.8614
 7436TIP3    H243800   0.369   5.009   5.382  0.0321 -0.1870 -0.7348
 7437TIP3   OH243801   4.134   2.046  13.606 -0.4549 -0.7683 -0.1283
 7437TIP3    H143802   4.140   2.123  13.550 -0.5160  0.0350  0.9301
 7437TIP3    H243803   4.040   2.028  13.612 -0.6008  0.2855  1.1761
 7438TIP3   OH243804   0.593   4.937  12.841  0.5124  0.3348 -0.7643
 7438TIP3    H143805   0.541   5.006  12.800  0.3514  0.1533 -0.8672
 7438TIP3    H243806   0.608   4.968  12.931 -1.7381 -0.6467 -0.0192
 7439TIP3   OH243807   2.737   6.797  17.200 -0.6597  0.1927  0.4191
 7439TIP3    H143808   2.696   6.875  17.162 -0.0988  0.6983  0.8554
 7439TIP3    H243809   2.811   6.778  17.142 -0.3334  0.4438  0.7503
 7440TIP3   OH243810   6.379   5.295   0.940 -0.1626  0.4017 -0.0589
 7440TIP3    H143811   6.423   5.254   1.014 -0.1036 -0.3272 -0.4964
 7440TIP3    H243812   6.412   5.385   0.940  0.7507  0.0711  0.0837
 7441TIP3   OH243813   0.231   2.193  15.261  0.3825 -0.0049 -0.1801
 7441TIP3    H143814   0.173   2.220  15.189 -0.0744 -0.5839 -0.0281
 7441TIP3    H243815   0.318   2.220  15.232  0.0844  0.5688 -0.5574
 7442TIP3   OH243816   3.951   0.288  15.680 -0.3622  0.3844 -0.2162
 7442TIP3    H143817   3.896   0.290  15.759 -1.0689  1.6867 -0.7226
 7442TIP3    H243818   3.918   0.360  15.626  0.4741 -0.1511 -1.4661
 7443TIP3   OH243819   5.249   6.599   1.944 -0.2822  0.2582  0.6270
 7443TIP3    H143820   5.176   6.546   1.914  1.1208 -0.7894 -1.0188
 7443TIP3    H243821   5.238   6.604   2.039 -1.2622 -1.7431  0.6266
 7444TIP3   OH243822   0.009   5.030   3.783 -0.0262  0.5160 -0.9062
 7444TIP3    H143823   0.082   5.057   3.727  0.2003 -0.6065 -1.1657
 7444TIP3    H243824  -0.065   5.082   3.753 -0.6143 -2.0133 -4.1385
 7445TIP3   OH243825   2.960   4.864  13.252 -0.7128 -0.0424 -0.0309
 7445TIP3    H143826   2.951   4.952  13.287  0.5494  0.2987 -0.5282
 7445TIP3    H243827   2.913   4.866  13.168 -0.2061  0.3152 -0.3056
 7446TIP3   OH243828   0.657   4.480   2.970 -0.1607  0.2585  0.5897
 7446TIP3    H143829   0.664   4.573   2.992 -1.3868  0.7587 -1.0772
 7446TIP3    H243830   0.565   4.468   2.946 -0.3895 -1.7311  2.3071
 7447TIP3   OH243831   4.823   1.832  14.428  0.3825 -0.4035  0.1632
 7447TIP3    H143832   4.769   1.817  14.505  0.2170 -0.4852  0.0323
 7447TIP3    H243833   4.832   1.745  14.388 -1.0995 -0.0577 -0.9563
 7448TIP3   OH243834   5.981   2.999   1.688  0.1470 -0.2842 -0.3669
 7448TIP3    H143835   6.057   2.941   1.684 -0.3931 -1.0420  0.2989
 7448TIP3    H243836   5.907   2.942   1.670 -0.3636  0.2579  0.0081
 7449TIP3   OH243837   1.642   3.011  15.966  0.2916 -0.2448  0.4598
 7449TIP3    H143838   1.594   3.089  15.993  2.6674  1.3549  0.1625
 7449TIP3    H243839   1.576   2.942  15.966 -2.2451  2.0715 -0.8903
 7450TIP3   OH243840   0.168   0.152   5.861 -0.2543 -0.4297  0.0146
 7450TIP3    H143841   0.174   0.224   5.924 -0.4565 -1.0944  0.8017
 7450TIP3    H243842   0.110   0.185   5.793  0.9705  0.7675 -0.4824
 7451TIP3   OH243843   1.691   6.735   6.031 -0.0943 -0.7710 -0.8478
 7451TIP3    H143844   1.647   6.747   6.115 -0.0455  1.0699 -1.0703
 7451TIP3    H243845   1.707   6.824   5.999  0.1315 -1.4438 -2.6765
 7452TIP3   OH243846   2.782   1.553  14.732  0.2198 -0.1255 -0.0023
 7452TIP3    H143847   2.692   1.522  14.742 -0.4214  1.7827  0.3471
 7452TIP3    H243848   2.835   1.473  14.734 -1.3641 -1.1935  0.8357
 7453TIP3   OH243849   0.556   6.240  17.008 -0.1665  0.6776 -0.3965
 7453TIP3    H143850   0.471   6.281  17.021 -0.8198 -1.2222  1.4709
 7453TIP3    H243851   0.617   6.295  17.058 -0.6411  0.7103  0.1423
 7454TIP3   OH243852   2.955   5.224  15.077  0.1169 -0.0396 -0.5391
 7454TIP3    H143853   2.866   5.202  15.105  0.0309  1.2048  0.2226
 7454TIP3    H243854   2.964   5.184  14.991 -0.8640 -0.9443 -0.2370
 7455TIP3   OH243855   1.685   6.028   4.429 -0.0978  0.2257 -0.6527
 7455TIP3    H143856   1.600   5.995   4.458 -0.9441  1.5804 -1.5800
 7455TIP3    H243857   1.742   6.017   4.506 -0.9687 -1.1306 -0.1826
 7456TIP3   OH243858   1.030   1.149   0.687 -0.3020  0.2416  0.1506
 7456TIP3    H143859   1.124   1.163   0.691 -0.2622 -0.5498  2.1396
 7456TIP3    H243860   1.020   1.055   0.672 -0.7911  0.0405  1.6889
 7457TIP3   OH243861   1.636   1.641  13.464 -0.0923 -0.3331  0.0633
 7457TIP3    H143862   1.604   1.710  13.406 -0.6328  1.2118  2.1070
 7457TIP3    H243863   1.636   1.682  13.551  1.0044 -2.4586  1.1013
 7458TIP3   OH243864   3.274   2.301   3.036  0.3453 -0.1457 -0.1845
 7458TIP3    H143865   3.336   2.242   3.080 -0.8531 -1.1872  0.1297
 7458TIP3    H243866   3.198   2.303   3.094  0.7782  2.5899  0.3433
 7459TIP3   OH243867   3.943   6.636  12.214 -0.7070  0.1336 -0.0516
 7459TIP3    H143868   3.903   6.552  12.192 -1.5658 -0.2449  2.8477
 7459TIP3    H243869   3.976   6.625  12.303  0.7641  2.3142 -0.2820
 7460TIP3   OH243870   2.179   2.644   4.109  0.1314 -0.5544  0.0745
 7460TIP3    H143871   2.228   2.718   4.073  1.1569 -1.2672 -0.0238
 7460TIP3    H243872   2.091   2.679   4.126  0.7449  0.8143  0.4981
 7461TIP3   OH243873   4.426   0.186  15.047 -0.4273 -0.1730  0.5592
 7461TIP3    H143874   4.502   0.168  14.992 -0.4877 -0.6944  0.6439
 7461TIP3    H243875   4.444   0.271  15.086 -0.6525  0.4745 -0.7367
 7462TIP3   OH243876   5.354   6.637   3.055  0.0476 -0.2996 -0.5386
 7462TIP3    H143877   5.283   6.693   3.024 -0.7212 -0.2049  1.3268
 7462TIP3    H243878   5.317   6.549   3.055 -0.3016 -0.1736  1.0151
 7463TIP3   OH243879   5.032   4.311  13.951 -0.0269 -0.7274 -0.2902
 7463TIP3    H143880   5.121   4.279  13.935  0.8863  2.1692 -1.4091
 7463TIP3    H243881   4.996   4.328  13.865 -1.5684 -1.5674  0.1762
 7464TIP3   OH243882   5.921   0.787   5.809  0.2275 -0.1256  0.4007
 7464TIP3    H143883   5.859   0.814   5.876 -0.5502 -1.8084  0.3575
 7464TIP3    H243884   6.002   0.769   5.856  1.2646  3.6772  0.2857
 7465TIP3   OH243885   3.607   2.444   3.947  0.2239 -0.3536  0.0382
 7465TIP3    H143886   3.612   2.420   4.040  2.7129 -0.3185 -0.0604
 7465TIP3    H243887   3.522   2.486   3.938 -0.4145 -1.1407  2.1262
 7466TIP3   OH243888   4.335   2.589  12.545 -0.5282  0.4662  0.1698
 7466TIP3    H143889   4.358   2.508  12.500 -1.9693  0.4260 -0.5322
 7466TIP3    H243890   4.414   2.613  12.594  0.2762 -0.7541 -0.5046
 7467TIP3   OH243891   2.489   2.813  15.640  0.6414 -0.0213 -0.0733
 7467TIP3    H143892   2.534   2.878  15.585  0.2475  0.0149 -0.3584
 7467TIP3    H243893   2.501   2.730  15.595 -0.2299  0.1071 -0.5604
 7468TIP3   OH243894   1.956   2.358  13.324  0.3234 -0.1069 -0.0247
 7468TIP3    H143895   1.916   2.273  13.344 -0.8163  0.4133 -0.0411
 7468TIP3    H243896   2.041   2.356  13.368  0.0632 -1.0393  0.4395
 7469TIP3   OH243897   4.426   1.732  14.315 -0.7749 -0.4997 -0.1848
 7469TIP3    H143898   4.503   1.781  14.285  0.6461 -2.2182  0.5465
 7469TIP3    H243899   4.413   1.762  14.405  0.2144 -1.5352  0.3307
 7470TIP3   OH243900   1.363   0.324   1.884 -0.1484  0.7915 -0.3536
 7470TIP3    H143901   1.371   0.338   1.790  2.0015  1.0988 -0.1611
 7470TIP3    H243902   1.354   0.229   1.893 -0.8312  0.7987 -0.8783
 7471TIP3   OH243903   5.352   0.328   4.048  0.6637 -0.2394 -0.0857
 7471TIP3    H143904   5.420   0.349   4.111  1.1443 -1.7024 -0.1159
 7471TIP3    H243905   5.379   0.245   4.009 -0.4184 -0.1346 -1.0946
 7472TIP3   OH243906   6.346   3.307   5.795 -0.3517  0.2721 -0.0915
 7472TIP3    H143907   6.349   3.268   5.707  0.0751  1.8099 -0.7611
 7472TIP3    H243908   6.343   3.231   5.854  0.5335 -0.7859 -1.3774
 7473TIP3   OH243909   6.696   3.637   0.015  0.4694 -0.0793 -0.3579
 7473TIP3    H143910   6.767   3.702   0.017  0.5692 -0.1947 -0.1266
 7473TIP3    H243911   6.633   3.673  -0.047  0.1928  0.5957  0.2893
 7474TIP3   OH243912   5.687   4.052   5.910 -0.1998  0.7147 -0.0243
 7474TIP3    H143913   5.592   4.059   5.903 -0.2115 -0.6673 -1.5460
 7474TIP3    H243914   5.718   4.142   5.910 -1.3160  1.1593 -3.0322
 7475TIP3   OH243915   4.895   3.585  12.931 -0.1286  0.5050  0.4355
 7475TIP3    H143916   4.862   3.649  12.994  1.8540  3.2489 -1.1974
 7475TIP3    H243917   4.824   3.576  12.867 -0.8799  0.1698  1.3163
 7476TIP3   OH243918   5.707   6.430   5.431 -0.0462  0.1933 -0.4896
 7476TIP3    H143919   5.712   6.523   5.451 -2.6478  0.5952 -1.4814
 7476TIP3    H243920   5.636   6.397   5.486 -0.5263 -0.7549 -1.6385
 7477TIP3   OH243921   5.730   4.979  16.026 -0.6583 -0.0415  0.4290
 7477TIP3    H143922   5.769   5.066  16.036 -1.0531  0.2890 -0.8104
 7477TIP3    H243923   5.775   4.925  16.091  0.9486  0.6436 -0.0754
 7478TIP3   OH243924   6.774   2.010  12.435  0.2011 -0.6502 -0.6343
 7478TIP3    H143925   6.853   2.049  12.471 -0.3827  2.2214 -2.2772
 7478TIP3    H243926   6.731   1.968  12.509  2.1412 -0.3067  0.6948
 7479TIP3   OH243927   4.427   3.716   3.212  0.3002 -0.4489 -0.5943
 7479TIP3    H143928   4.373   3.774   3.266 -0.0902 -1.5733  0.2546
 7479TIP3    H243929   4.508   3.765   3.197  0.7560 -0.4348  1.7369
 7480TIP3   OH243930   1.300   1.707   0.591 -0.4522  0.3849 -0.1724
 7480TIP3    H143931   1.236   1.640   0.567  0.2722 -0.3918  0.0455
 7480TIP3    H243932   1.374   1.658   0.626  0.7662  1.1938 -1.5301
 7481TIP3   OH243933   1.161   0.083   5.696  0.1392 -0.1373 -0.2510
 7481TIP3    H143934   1.256   0.085   5.688  0.5503 -1.2973  3.4408
 7481TIP3    H243935   1.141   0.145   5.766 -1.9249  0.7795 -1.6203
 7482TIP3   OH243936   5.374   2.389  13.829  0.0516 -0.6021  0.1879
 7482TIP3    H143937   5.304   2.342  13.784  1.1064 -1.2780 -0.8039
 7482TIP3    H243938   5.374   2.354  13.918 -1.1967 -0.2227  0.3391
 7483TIP3   OH243939   3.401   4.618  16.914 -0.3964  0.0400 -0.2124
 7483TIP3    H143940   3.496   4.618  16.901 -0.5239 -0.5659 -1.2025
 7483TIP3    H243941   3.375   4.527  16.897 -0.9250 -0.2307  1.8457
 7484TIP3   OH243942   1.537   3.866   3.840 -0.2514  0.2984  0.2801
 7484TIP3    H143943   1.628   3.885   3.815 -0.7756  0.3794 -1.6163
 7484TIP3    H243944   1.530   3.897   3.930  1.5629  0.4225  0.3963
 7485TIP3   OH243945   1.343   6.405   6.913  0.4999  0.0388 -0.3835
 7485TIP3    H143946   1.296   6.325   6.934 -1.0271  0.8061 -0.8286
 7485TIP3    H243947   1.344   6.455   6.994  0.0549  0.2726 -0.5240
 7486TIP3   OH243948   5.247   0.657   1.108  0.6031  0.2594  0.1697
 7486TIP3    H143949   5.236   0.608   1.026  2.5479 -0.4074  0.2742
 7486TIP3    H243950   5.193   0.610   1.172  0.2068 -0.0622 -0.4051
 7487TIP3   OH243951   6.483   5.337   0.369  0.3405  0.4445 -0.2679
 7487TIP3    H143952   6.444   5.249   0.364  0.7853  0.2539 -0.3727
 7487TIP3    H243953   6.416   5.390   0.412 -0.1532  0.1824 -0.7183
 7488TIP3   OH243954   5.734   4.463   4.414  0.3961 -0.1302 -0.1473
 7488TIP3    H143955   5.670   4.392   4.414 -2.4371  2.3051  1.9420
 7488TIP3    H243956   5.713   4.514   4.337  2.0529 -1.1750 -1.3191
 7489TIP3   OH243957   0.464   6.174   6.506 -0.0432  0.3314 -0.0279
 7489TIP3    H143958   0.407   6.246   6.480  0.5160  0.6862 -0.2810
 7489TIP3    H243959   0.407   6.097   6.503 -0.8137  0.8570  0.8986
 7490TIP3   OH243960   4.169   5.054   3.034  0.1352 -0.2250  0.2640
 7490TIP3    H143961   4.147   5.072   2.943 -0.8501  0.4784  0.6218
 7490TIP3    H243962   4.085   5.031   3.074  0.1839  1.6253  1.4774
 7491TIP3   OH243963   0.485   0.031  12.656 -0.2243 -0.3605  0.7227
 7491TIP3    H143964   0.460   0.044  12.565 -1.1217 -0.9657  0.8763
 7491TIP3    H243965   0.402   0.018  12.702  0.2024  0.1663  1.6621
 7492TIP3   OH243966   0.178   4.661  15.492  0.0485  0.4279 -0.2506
 7492TIP3    H143967   0.223   4.643  15.410 -1.5997 -1.6897 -0.7282
 7492TIP3    H243968   0.247   4.658  15.559  1.6297  3.5716 -1.6733
 7493TIP3   OH243969   0.770   4.274   0.508  0.3290 -0.7372  0.6420
 7493TIP3    H143970   0.783   4.324   0.589 -1.7267  1.8084 -0.5203
 7493TIP3    H243971   0.678   4.288   0.486  0.7516 -1.7479 -1.8978
 7494TIP3   OH243972   0.555   2.304  15.053  0.2882 -0.5985 -0.4059
 7494TIP3    H143973   0.648   2.284  15.042  0.1309 -0.8984 -1.2237
 7494TIP3    H243974   0.544   2.392  15.018  0.4740 -0.0946  0.7590
 7495TIP3   OH243975   1.148   3.007   5.619 -0.0032 -0.1072 -0.0758
 7495TIP3    H143976   1.152   2.950   5.696  2.5256 -1.3134 -1.0377
 7495TIP3    H243977   1.142   2.947   5.545  1.1194  0.9112 -1.0207
 7496TIP3   OH243978   5.571   0.999  12.996 -0.0073 -0.1961 -0.0961
 7496TIP3    H143979   5.629   0.949  13.053  1.1451  1.1447 -0.0881
 7496TIP3    H243980   5.524   1.058  13.055 -0.8917 -0.7888 -0.1914
 7497TIP3   OH243981   2.562   3.742   5.345 -0.2988  0.0225 -0.1017
 7497TIP3    H143982   2.469   3.749   5.366 -0.4347  0.3945 -0.8384
 7497TIP3    H243983   2.601   3.822   5.381 -0.4265  0.3469 -0.6836
 7498TIP3   OH243984   2.222   5.178   6.386  0.0433  0.5870 -0.2870
 7498TIP3    H143985   2.209   5.092   6.425 -1.0562  0.3157 -1.1951
 7498TIP3    H243986   2.293   5.166   6.323 -0.4681  0.2026 -0.7975
 7499TIP3   OH243987   5.900   3.126  11.643  0.6776  0.5021  0.8779
 7499TIP3    H143988   5.925   3.173  11.563  1.3877 -1.2241  0.0585
 7499TIP3    H243989   5.809   3.101  11.628  0.4545  1.1590  1.1047
 7500TIP3   OH243990   1.532   2.682   1.395 -0.0985 -0.2630  0.3002
 7500TIP3    H143991   1.609   2.715   1.443 -2.3399  2.6905  2.0372
 7500TIP3    H243992   1.569   2.635   1.321  3.4201  0.4571  1.4766
 7501TIP3   OH243993   1.842   1.599  13.852  0.0938  0.2189  0.1506
 7501TIP3    H143994   1.773   1.574  13.915  1.8137 -2.0935  1.1921
 7501TIP3    H243995   1.829   1.539  13.779  1.1467 -0.3785  0.4538
 7502TIP3   OH243996   2.551   4.322  10.176  0.3753  0.3845  0.7256
 7502TIP3    H143997   2.513   4.398  10.133  2.0611  2.6111  3.0149
 7502TIP3    H243998   2.475   4.271  10.205 -0.7747  1.3567 -0.5256
 7503TIP3   OH243999   4.481   5.979  10.934  0.1051  0.2580  0.1414
 7503TIP3    H144000   4.487   6.064  10.977  0.5579 -0.6951  1.9996
 7503TIP3    H244001   4.449   5.999  10.846  3.8016  2.7727 -0.7613
 7504TIP3   OH244002   4.559   5.797   5.423 -0.0215 -0.2223  0.6183
 7504TIP3    H144003   4.484   5.849   5.451 -0.4582 -1.0815  1.0541
 7504TIP3    H244004   4.581   5.744   5.500  2.4848  1.6809  1.3045
 7505TIP3   OH244005   4.276   3.995  14.646  0.0628  0.0545 -0.4379
 7505TIP3    H144006   4.245   4.053  14.578  0.5322  0.9232  0.0847
 7505TIP3    H244007   4.367   4.021  14.661  0.2631 -0.7791 -0.1745
 7506TIP3   OH244008   2.600   2.315   2.888  0.5008  0.1079 -0.2068
 7506TIP3    H144009   2.518   2.364   2.893  1.2729  1.4340 -0.3281
 7506TIP3    H244010   2.575   2.230   2.852 -0.9007  0.2923  0.2878
 7507TIP3   OH244011   5.102   2.871   0.303  0.7055 -0.3015 -0.3627
 7507TIP3    H144012   5.147   2.786   0.310 -1.5502 -1.5966 -1.1033
 7507TIP3    H244013   5.027   2.863   0.362 -1.8160 -0.3717 -3.4626
 7508TIP3   OH244014   1.101   3.917  16.850 -0.0412  0.3419  0.0722
 7508TIP3    H144015   1.096   3.937  16.756 -0.7628  1.0764  0.2597
 7508TIP3    H244016   1.028   3.857  16.865 -1.6686  2.3722  0.6740
 7509TIP3   OH244017   4.727   1.111  16.701  0.0181 -0.2512  0.0760
 7509TIP3    H144018   4.776   1.116  16.620  1.0849 -0.6995  0.6741
 7509TIP3    H244019   4.642   1.073  16.676  0.4210 -0.5957 -0.7842
 7510TIP3   OH244020   5.655   5.832  12.159  0.6499  0.1959  0.5090
 7510TIP3    H144021   5.659   5.915  12.111 -1.0657  0.4989  0.8817
 7510TIP3    H244022   5.686   5.767  12.097  1.3084  1.0062 -0.0223
 7511TIP3   OH244023   2.014   2.756  11.492 -0.1359 -0.3386  0.4448
 7511TIP3    H144024   1.925   2.760  11.457 -0.2348 -2.7239  0.3035
 7511TIP3    H244025   2.059   2.693  11.436  1.4232  0.2628  0.9885
 7512TIP3   OH244026   2.079   6.449   3.870  0.1430  0.3726  0.0162
 7512TIP3    H144027   2.074   6.384   3.800 -0.8046  0.3823  0.0803
 7512TIP3    H244028   2.003   6.432   3.925  0.6427  0.6514  0.8075
 7513TIP3   OH244029   1.419   3.164   3.302 -0.2472 -0.1142  0.3831
 7513TIP3    H144030   1.406   3.242   3.247  1.3758 -2.5028 -3.6144
 7513TIP3    H244031   1.507   3.176   3.339  0.3926 -0.4478 -0.9906
 7514TIP3   OH244032   5.128   2.538   6.009  0.2645  0.7688  0.3552
 7514TIP3    H144033   5.070   2.584   6.071  0.1650 -1.9917  2.4309
 7514TIP3    H244034   5.212   2.533   6.055  0.5699 -0.1336 -0.2912
 7515TIP3   OH244035   5.860   4.305   5.102  0.5505 -0.0269  0.3916
 7515TIP3    H144036   5.901   4.269   5.023 -1.3392 -0.2884 -0.4926
 7515TIP3    H244037   5.867   4.399   5.092  0.7343 -0.0668  0.1444
 7516TIP3   OH244038   2.029   5.996  14.780  0.2533  0.8397 -0.5057
 7516TIP3    H144039   1.950   6.022  14.828  0.7608  0.4632  0.5577
 7516TIP3    H244040   2.101   6.027  14.835  0.8478  0.8913 -1.3115
 7517TIP3   OH244041   1.771   6.798   1.809 -0.4442 -0.3935  0.0011
 7517TIP3    H144042   1.744   6.738   1.879  0.0142 -0.5159  0.0767
 7517TIP3    H244043   1.691   6.843   1.784 -0.4349  0.4039  1.3223
 7518TIP3   OH244044   4.935   6.343  16.165  0.2166 -0.4880  0.6700
 7518TIP3    H144045   4.873   6.360  16.094  1.4068  0.5966 -0.1291
 7518TIP3    H244046   4.930   6.248  16.178  1.2120 -0.9664 -2.0226
 7519TIP3   OH244047   3.567   5.014   4.673  0.0456  0.1501 -0.2469
 7519TIP3    H144048   3.608   4.971   4.748  1.9223 -0.7454 -1.7555
 7519TIP3    H244049   3.480   5.039   4.705  0.7139 -0.4352  2.1400
 7520TIP3   OH244050   1.901   5.282  11.734  0.4806  0.5065 -0.5830
 7520TIP3    H144051   1.862   5.240  11.658 -0.3536 -0.1316  0.1943
 7520TIP3    H244052   1.849   5.252  11.808  0.2873  2.3876  0.0658
 7521TIP3   OH244053   5.260   5.298   6.491  0.0112 -0.8484 -0.1944
 7521TIP3    H144054   5.285   5.209   6.469 -0.4704 -1.1498  0.4610
 7521TIP3    H244055   5.334   5.333   6.541  0.2018 -0.8740 -0.4584
 7522TIP3   OH244056   2.210   1.557   2.944 -0.3440  0.1624 -0.0010
 7522TIP3    H144057   2.196   1.520   3.031 -1.5327  0.3871 -0.0894
 7522TIP3    H244058   2.291   1.516   2.913 -1.0267 -1.4944  0.3609
 7523TIP3   OH244059   1.661   0.766  11.431 -0.7080 -0.1826 -0.5811
 7523TIP3    H144060   1.680   0.853  11.465 -0.0520  0.3770 -2.3410
 7523TIP3    H244061   1.706   0.762  11.347 -1.9220 -1.7070 -1.1943
 7524TIP3   OH244062   5.761   3.774   3.519 -0.6556  0.2876  0.2887
 7524TIP3    H144063   5.773   3.731   3.604  0.5847  1.7797  0.8993
 7524TIP3    H244064   5.850   3.790   3.488 -1.0838 -2.0628 -2.2619
 7525TIP3   OH244065   4.905   6.639   2.462 -0.5215 -0.0586  0.0602
 7525TIP3    H144066   4.840   6.568   2.468  0.0695 -0.6952 -1.0810
 7525TIP3    H244067   4.978   6.601   2.414 -0.4442  1.5014 -1.0934
 7526TIP3   OH244068   6.613   0.025   0.206  0.6674  0.4492 -0.3047
 7526TIP3    H144069   6.596   0.098   0.266  2.3041 -1.0133  1.9650
 7526TIP3    H244070   6.535  -0.031   0.214  0.9772  0.1492  0.6070
 7527TIP3   OH244071   6.246   3.524  10.422  0.0318  0.7739  0.5660
 7527TIP3    H144072   6.261   3.618  10.411  0.1889  1.0341  2.7833
 7527TIP3    H244073   6.163   3.517  10.468  0.8438 -0.0685  1.9855
 7528TIP3   OH244074   3.503   2.418   2.628 -0.1092  0.1214  0.0220
 7528TIP3    H144075   3.488   2.510   2.647  3.0913  0.7041 -0.0205
 7528TIP3    H244076   3.494   2.374   2.712 -1.5367  0.4658  0.0621
 7529TIP3   OH244077   4.861   1.514  12.779 -0.4242 -0.1811 -0.0822
 7529TIP3    H144078   4.867   1.577  12.707 -3.0827 -1.3633 -1.4016
 7529TIP3    H244079   4.885   1.565  12.857 -0.9321  2.0298 -1.3239
 7530TIP3   OH244080   4.766   4.195   4.172  0.0575 -0.4405  0.1106
 7530TIP3    H144081   4.839   4.180   4.232 -0.5454 -0.9454  0.7265
 7530TIP3    H244082   4.755   4.111   4.126 -0.5278 -0.5504  0.4531
 7531TIP3   OH244083   4.640   0.558  13.550 -0.3922 -0.8173  0.0584
 7531TIP3    H144084   4.664   0.643  13.586 -1.2482 -1.8517  3.2443
 7531TIP3    H244085   4.565   0.577  13.493  0.0424  0.6888 -0.0416
 7532TIP3   OH244086   3.940   6.334   4.997  0.5711 -0.0110 -0.0883
 7532TIP3    H144087   3.907   6.244   5.001 -0.0855  0.1654 -1.4024
 7532TIP3    H244088   3.870   6.386   5.038  0.4385  0.0407 -0.3819
 7533TIP3   OH244089   2.626   5.102  16.867 -0.3270 -0.4133 -0.0742
 7533TIP3    H144090   2.537   5.125  16.894 -0.5848 -1.3432 -0.1112
 7533TIP3    H244091   2.653   5.034  16.928 -0.7234 -2.1854 -1.8156
 7534TIP3   OH244092   2.513   2.009  14.123 -0.0135  0.1290 -0.1540
 7534TIP3    H144093   2.542   1.950  14.193  1.1823 -0.1100 -0.8365
 7534TIP3    H244094   2.430   1.972  14.094  0.6705 -1.1806 -0.5029
 7535TIP3   OH244095   3.254   1.953  14.412 -0.0185 -0.3069  0.5312
 7535TIP3    H144096   3.233   1.991  14.326  0.6249  2.2687  1.4688
 7535TIP3    H244097   3.175   1.966  14.464 -0.9460 -3.2056 -0.0517
 7536TIP3   OH244098   0.432   1.653   2.153  0.2476 -0.7730  0.2238
 7536TIP3    H144099   0.349   1.617   2.184 -0.2453 -0.5706 -0.8266
 7536TIP3    H244100   0.437   1.740   2.194  0.4290 -1.1829  1.0830
 7537TIP3   OH244101   5.801   1.447  12.076 -0.2129  0.1286  0.1932
 7537TIP3    H144102   5.867   1.383  12.105 -0.6844 -0.4115  0.0909
 7537TIP3    H244103   5.744   1.459  12.152 -0.2727  0.2320  0.1311
 7538TIP3   OH244104   2.266   5.962   5.497  0.5263 -0.0022  0.2752
 7538TIP3    H144105   2.345   5.914   5.471  0.8613 -0.4932  2.1427
 7538TIP3    H244106   2.196   5.921   5.446  1.2296 -0.6615 -0.1779
 7539TIP3   OH244107   4.041   2.352   5.942 -0.6056 -0.0893  0.1035
 7539TIP3    H144108   4.016   2.411   5.871 -0.7846  0.1135  0.3326
 7539TIP3    H244109   4.017   2.265   5.911 -1.6293  0.1039  0.3274
 7540TIP3   OH244110   6.328   2.020  12.064  0.5887 -0.1689  0.0215
 7540TIP3    H144111   6.369   1.934  12.072 -1.0442 -1.1342 -1.4906
 7540TIP3    H244112   6.238   2.006  12.093  0.6118  1.2937  0.8128
 7541TIP3   OH244113   6.798   0.960   3.225 -0.0627 -0.0386 -0.4106
 7541TIP3    H144114   6.778   1.024   3.293 -1.1138 -0.2693 -0.4893
 7541TIP3    H244115   6.757   0.995   3.146 -0.4934 -0.7166 -0.4934
 7542TIP3   OH244116   5.727   6.424   5.951 -0.2035 -0.6686  0.2135
 7542TIP3    H144117   5.745   6.463   6.037  0.0947  1.3834 -0.7512
 7542TIP3    H244118   5.646   6.375   5.963 -1.8555  2.1476  0.9154
 7543TIP3   OH244119   4.682   2.436   1.469 -0.3383  0.4348  0.4380
 7543TIP3    H144120   4.775   2.440   1.448 -0.8915  0.6511 -2.2144
 7543TIP3    H244121   4.644   2.511   1.424 -2.3857 -2.0460 -2.1602
 7544TIP3   OH244122   2.983   1.925   0.022 -0.6798 -0.0280  0.2203
 7544TIP3    H144123   3.031   1.847   0.049 -2.2600 -0.6726  1.2474
 7544TIP3    H244124   3.023   1.950  -0.062 -1.5726 -3.2096 -1.2234
 7545TIP3   OH244125   6.335   1.461   5.897 -0.3694 -0.2929 -0.0402
 7545TIP3    H144126   6.257   1.494   5.851 -1.0333 -0.8768  0.6395
 7545TIP3    H244127   6.329   1.365   5.887  1.0646 -0.2641 -1.2493
 7546TIP3   OH244128   4.169   0.702   4.066 -0.2684  0.4299 -0.2696
 7546TIP3    H144129   4.158   0.733   3.976 -0.4897 -1.1784 -0.8127
 7546TIP3    H244130   4.142   0.610   4.063  0.2516  0.2138  1.3263
 7547TIP3   OH244131   5.003   2.181   5.950  1.0000  1.0509 -0.1744
 7547TIP3    H144132   4.942   2.120   5.909  1.6177  0.6413 -0.4803
 7547TIP3    H244133   4.957   2.265   5.947  1.2261  1.1286 -2.1595
 7548TIP3   OH244134   5.587   2.947  10.988  0.0082 -0.3957 -0.2729
 7548TIP3    H144135   5.575   3.041  10.995 -1.0534 -0.3879 -1.8794
 7548TIP3    H244136   5.657   2.936  10.923 -0.8280 -0.7373 -1.1197
 7549TIP3   OH244137   3.733   1.176   4.283 -0.1455 -0.1950  0.0772
 7549TIP3    H144138   3.691   1.155   4.366  0.7162 -2.1273  0.0360
 7549TIP3    H244139   3.673   1.142   4.217  0.3006 -0.7509 -0.0405
 7550TIP3   OH244140   1.335   0.087   0.055 -0.1534  1.0093 -0.3455
 7550TIP3    H144141   1.325   0.048  -0.032  0.6820  0.7702 -0.3380
 7550TIP3    H244142   1.246   0.111   0.081 -0.4387  0.8643 -1.1654
 7551TIP3   OH244143   0.533   1.113   3.758  0.3597  0.1291  0.1540
 7551TIP3    H144144   0.472   1.129   3.685 -0.4151 -0.5134  0.6523
 7551TIP3    H244145   0.618   1.141   3.724  0.1273 -0.7978 -1.2499
 7552TIP3   OH244146   0.187   5.402  12.043  0.1060 -0.3910 -0.7141
 7552TIP3    H144147   0.208   5.390  12.135 -1.1004 -0.2307 -0.3994
 7552TIP3    H244148   0.122   5.334  12.024  2.0922 -1.9413 -2.0793
 7553TIP3   OH244149   0.476   6.613  12.075 -0.0990 -0.2356 -0.0850
 7553TIP3    H144150   0.525   6.546  12.123  1.0117  0.6144 -0.0362
 7553TIP3    H244151   0.479   6.583  11.984  0.4206 -0.2293 -0.0695
 7554TIP3   OH244152   5.636   1.463   1.955 -0.1258 -0.1839  0.0872
 7554TIP3    H144153   5.643   1.453   2.050 -1.6427 -1.5638  0.0903
 7554TIP3    H244154   5.582   1.541   1.943  2.1592  1.4722  0.2890
 7555TIP3   OH244155   1.049   4.458  11.967 -0.3343  0.3270 -0.3792
 7555TIP3    H144156   1.021   4.550  11.967  0.3780  0.5402 -0.1744
 7555TIP3    H244157   1.005   4.421  11.890 -0.3001  0.9392 -0.7026
 7556TIP3   OH244158   2.701   0.695   5.730 -0.1933  0.3643 -0.0514
 7556TIP3    H144159   2.713   0.658   5.818 -0.6079 -1.0568 -0.5696
 7556TIP3    H244160   2.694   0.618   5.673  1.5593  1.2650 -1.5297
 7557TIP3   OH244161   4.536   4.652   4.854 -0.0902 -0.0726  0.3193
 7557TIP3    H144162   4.626   4.683   4.865 -0.0921 -0.5195  1.7444
 7557TIP3    H244163   4.505   4.638   4.943 -1.3577 -0.5559 -0.1881
 7558TIP3   OH244164   3.885   3.634   1.700  0.0159 -0.1285 -0.5402
 7558TIP3    H144165   3.865   3.723   1.729 -2.0137 -0.8557  0.4106
 7558TIP3    H244166   3.944   3.600   1.767  0.1292  0.2369 -0.4556
 7559TIP3   OH244167   4.307   6.650  12.569  0.3622  0.4641  0.8916
 7559TIP3    H144168   4.354   6.567  12.564 -0.1758  0.0076  2.8650
 7559TIP3    H244169   4.299   6.668  12.663 -0.5273  2.1747  0.5251
 7560TIP3   OH244170   6.018   5.131  12.883 -0.0895 -0.5300 -0.1735
 7560TIP3    H144171   6.001   5.217  12.845  0.3923 -0.1596  0.4362
 7560TIP3    H244172   5.946   5.118  12.945  0.9120  0.3005  1.1766
 7561TIP3   OH244173   4.747   6.392   3.471 -0.1056 -0.4521  0.7120
 7561TIP3    H144174   4.789   6.359   3.391  0.3957  0.9965  0.3659
 7561TIP3    H244175   4.654   6.380   3.455  0.0423 -1.1238  0.3317
 7562TIP3   OH244176   0.276   3.045  11.566  0.0164 -0.6169  0.2251
 7562TIP3    H144177   0.322   3.058  11.649  1.2929 -1.5338 -0.3294
 7562TIP3    H244178   0.213   3.117  11.563  0.8411  0.1854  1.3805
 7563TIP3   OH244179   1.102   0.846   5.800 -0.1589 -0.0454 -0.1673
 7563TIP3    H144180   1.085   0.884   5.886  1.1531  0.9171 -0.3201
 7563TIP3    H244181   1.164   0.906   5.759 -2.1766  0.5052 -2.5153
 7564TIP3   OH244182   5.855   0.001   6.671  0.1935 -0.0599  0.1255
 7564TIP3    H144183   5.843   0.057   6.748 -2.9465  0.4728 -0.6670
 7564TIP3    H244184   5.862  -0.088   6.706 -0.3840  0.2620  1.0643
 7565TIP3   OH244185   5.965   4.184  11.736  1.1586 -0.2421  0.0809
 7565TIP3    H144186   5.936   4.102  11.776  1.1739 -0.9653 -1.3575
 7565TIP3    H244187   5.920   4.253  11.786  0.3596 -1.1699  0.6487
 7566TIP3   OH244188   0.084   1.774  10.254  0.3399 -0.5428 -0.3924
 7566TIP3    H144189   0.015   1.729  10.302  2.3333 -0.8057  2.3522
 7566TIP3    H244190   0.077   1.866  10.282 -0.7036  0.0020 -2.3442
 7567TIP3   OH244191   1.751   6.531  16.081  0.6894  0.1602 -0.4004
 7567TIP3    H144192   1.755   6.477  16.002  1.1569 -0.9514  0.3695
 7567TIP3    H244193   1.671   6.502  16.125 -0.2232  1.6216 -1.0481
 7568TIP3   OH244194   5.479   2.566  14.101  0.5030  0.1615  0.8770
 7568TIP3    H144195   5.393   2.523  14.093  0.0335  1.1546  0.5225
 7568TIP3    H244196   5.531   2.527  14.030 -0.2882  1.0094 -0.1891
 7569TIP3   OH244197   3.181   4.472   3.202  0.0054  0.1990 -0.6416
 7569TIP3    H144198   3.144   4.559   3.205 -0.4176 -0.0150  0.6320
 7569TIP3    H244199   3.148   4.434   3.121 -1.8361  0.3322  0.0194
 7570TIP3   OH244200   4.842   0.942   0.609  0.0049 -0.0554 -0.1947
 7570TIP3    H144201   4.915   0.943   0.548 -1.4637 -0.3913 -2.0167
 7570TIP3    H244202   4.764   0.953   0.554 -1.3597 -0.3231  1.6139
 7571TIP3   OH244203   0.951   3.381   4.403 -0.2117 -0.1414 -0.2414
 7571TIP3    H144204   0.976   3.365   4.495 -1.3235 -0.3800  0.0277
 7571TIP3    H244205   1.034   3.399   4.359  0.2837  0.4932  0.9197
 7572TIP3   OH244206   4.394   4.216  15.151 -0.0265  0.0414 -0.3300
 7572TIP3    H144207   4.332   4.284  15.178 -0.5730 -0.7251  0.3863
 7572TIP3    H244208   4.339   4.149  15.110 -0.0271 -1.8066  2.5753
 7573TIP3   OH244209   5.595   1.168  14.261  0.0636  0.4876 -0.3649
 7573TIP3    H144210   5.537   1.228  14.307  0.4105  1.5992 -1.3504
 7573TIP3    H244211   5.554   1.082  14.272  0.4295  0.6189  2.4317
 7574TIP3   OH244212   5.556   1.303   5.469  0.0537  0.2225  0.0951
 7574TIP3    H144213   5.634   1.274   5.517  1.4814  0.0622 -2.2613
 7574TIP3    H244214   5.541   1.235   5.404 -1.3120  0.8989 -0.3080
 7575TIP3   OH244215   3.044   5.587  15.526  0.0380  0.5291 -0.0124
 7575TIP3    H144216   3.039   5.584  15.431 -0.3789 -1.1374  0.0560
 7575TIP3    H244217   3.078   5.675  15.545 -1.2060  1.4015 -1.6272
 7576TIP3   OH244218   0.940   3.509  11.761 -0.0456 -0.6671  0.2311
 7576TIP3    H144219   0.910   3.577  11.700  1.4968 -1.3879 -1.3832
 7576TIP3    H244220   0.944   3.553  11.846 -2.2796  0.3499 -0.1677
 7577TIP3   OH244221   3.816   1.687  13.358  0.2241 -0.0869  0.3981
 7577TIP3    H144222   3.741   1.736  13.390 -0.0944  0.1759 -0.7166
 7577TIP3    H244223   3.888   1.714  13.414 -0.2705  0.5068  0.7604
 7578TIP3   OH244224   6.146   4.681   2.175  0.0485  0.0591 -0.2171
 7578TIP3    H144225   6.202   4.642   2.108  0.5912 -1.5955  1.1341
 7578TIP3    H244226   6.057   4.675   2.139  0.0019 -3.3019  0.2711
 7579TIP3   OH244227   6.012   0.624  15.091 -0.0318  0.4866 -0.7471
 7579TIP3    H144228   6.041   0.547  15.139 -2.9292  1.0373  2.0716
 7579TIP3    H244229   6.051   0.698  15.138 -1.9920  0.9736  0.1790
 7580TIP3   OH244230   3.364   3.286  11.390  0.1066  0.3852  0.1034
 7580TIP3    H144231   3.435   3.250  11.336  0.1391 -1.5189  1.3748
 7580TIP3    H244232   3.405   3.357  11.439  0.9582 -0.2412  0.2998
 7581TIP3   OH244233   2.510   4.823  10.475 -0.0933  0.3189  0.2032
 7581TIP3    H144234   2.440   4.880  10.443  0.6209  0.3304 -1.3970
 7581TIP3    H244235   2.549   4.872  10.548 -2.1583  0.0103  1.5615
 7582TIP3   OH244236   3.072   1.141  17.042 -0.0287  0.3033 -0.5426
 7582TIP3    H144237   3.094   1.118  17.132 -0.1158  2.7952  0.1300
 7582TIP3    H244238   3.069   1.236  17.041  0.1703  0.3150 -3.2381
 7583TIP3   OH244239   3.044   1.229  14.973  0.1560  1.0158  0.7366
 7583TIP3    H144240   3.012   1.205  15.060  0.1675  0.3156  0.5537
 7583TIP3    H244241   3.033   1.324  14.968  1.8812  1.3259  2.2123
 7584TIP3   OH244242   1.141   3.175   1.174  0.0187  0.2050 -0.1779
 7584TIP3    H144243   1.153   3.172   1.269  1.3818 -0.9465 -0.3660
 7584TIP3    H244244   1.143   3.083   1.147 -2.3387  0.3953 -1.1011
 7585TIP3   OH244245   4.846   3.247   6.323 -0.3481 -0.0550 -0.2315
 7585TIP3    H144246   4.804   3.330   6.347 -2.1492  0.0789 -3.5242
 7585TIP3    H244247   4.936   3.272   6.302 -0.0964  0.5814  1.5069
 7586TIP3   OH244248   2.072   6.562  11.453  0.3765 -0.5106 -0.3441
 7586TIP3    H144249   2.031   6.496  11.510  1.3863  0.1051  1.1218
 7586TIP3    H244250   2.133   6.608  11.510  1.0732  0.4389 -1.8323
 7587TIP3   OH244251   6.757   0.433  11.936 -0.4418 -0.3276  0.0874
 7587TIP3    H144252   6.691   0.366  11.921  0.4533 -1.2405  0.1310
 7587TIP3    H244253   6.708   0.514  11.951 -1.5068 -0.7452 -1.0794
 7588TIP3   OH244254   4.644   6.478   4.553 -0.4116 -0.7557  0.3390
 7588TIP3    H144255   4.577   6.498   4.618  0.1118  0.1741  0.5960
 7588TIP3    H244256   4.701   6.414   4.596 -1.0223 -1.4260  0.1772
 7589TIP3   OH244257   0.530   3.271  12.265  0.4735 -0.2281  0.1596
 7589TIP3    H144258   0.513   3.177  12.277  2.3828 -0.4990  0.9919
 7589TIP3    H244259   0.445   3.313  12.277 -0.3133 -1.8104  0.2638
 7590TIP3   OH244260   6.123   5.274  12.490  0.0070 -0.3644 -0.2794
 7590TIP3    H144261   6.073   5.329  12.430  0.3165  0.5004  0.2459
 7590TIP3    H244262   6.199   5.328  12.515  0.2200 -0.9553  0.3825
 7591TIP3   OH244263   4.628   4.411  14.681  0.1907 -0.6416 -0.4273
 7591TIP3    H144264   4.648   4.455  14.598 -1.0706 -4.7471 -3.0615
 7591TIP3    H244265   4.707   4.360  14.700 -0.4636 -1.6495 -0.4124
 7592TIP3   OH244266   4.236   3.889  15.219 -0.1861  0.2871 -0.2692
 7592TIP3    H144267   4.297   3.823  15.250 -0.4221 -0.3699 -1.1945
 7592TIP3    H244268   4.150   3.857  15.246  0.0385  2.5289  3.4340
 7593TIP3   OH244269   4.328   5.880  12.129 -0.0246 -0.0376 -0.9163
 7593TIP3    H144270   4.255   5.938  12.153  0.1048 -0.9298  1.8203
 7593TIP3    H244271   4.314   5.801  12.180  1.4511 -1.2745 -2.3556
 7594TIP3   OH244272   2.294   3.086  15.358  0.4184  0.2121  0.3779
 7594TIP3    H144273   2.328   3.006  15.319  1.4848 -0.0298  1.7886
 7594TIP3    H244274   2.206   3.062  15.389 -0.1903  0.2390 -1.2675
 7595TIP3   OH244275   5.114   0.369   1.864 -0.2413  0.3539  0.1375
 7595TIP3    H144276   5.040   0.326   1.906  0.5736  0.1446  1.3685
 7595TIP3    H244277   5.074   0.424   1.796 -1.4223 -0.7720 -0.0980
 7596TIP3   OH244278   6.268   0.390   6.090 -0.0539 -0.1678  0.2113
 7596TIP3    H144279   6.178   0.369   6.065 -0.1081 -0.2459  0.4662
 7596TIP3    H244280   6.308   0.305   6.109 -0.3502 -0.0370  1.4948
 7597TIP3   OH244281   0.738   1.827   5.569 -0.0034  0.3413 -0.1580
 7597TIP3    H144282   0.774   1.916   5.573 -0.1174  0.4131 -0.7205
 7597TIP3    H244283   0.737   1.798   5.661  0.3569  0.7882 -0.0067
 7598TIP3   OH244284   4.071   0.260   3.844 -0.0603 -0.0152  0.0189
 7598TIP3    H144285   4.136   0.266   3.915 -0.2994  2.0146  0.0854
 7598TIP3    H244286   4.047   0.167   3.842  1.0087 -0.3560  1.6428
 7599TIP3   OH244287   1.909   5.914  12.755 -0.0636  0.1446  0.4345
 7599TIP3    H144288   1.820   5.937  12.781 -1.0279  0.4302 -2.8669
 7599TIP3    H244289   1.910   5.818  12.757 -0.2858  0.1508  0.9522
 7600TIP3   OH244290   4.042   0.810   0.213 -0.3807  0.3889  0.3433
 7600TIP3    H144291   4.136   0.815   0.194  0.1120  0.2747  2.5996
 7600TIP3    H244292   4.012   0.732   0.165  0.5919  0.6184 -0.6685
 7601TIP3   OH244293   1.511   0.779   3.680  0.1992  0.0025 -0.5105
 7601TIP3    H144294   1.440   0.797   3.741  0.8995  0.3323  0.2172
 7601TIP3    H244295   1.588   0.820   3.719  0.7094  0.0206 -1.4986
 7602TIP3   OH244296   4.279   4.427  15.488  0.5511  0.0739 -0.0949
 7602TIP3    H144297   4.258   4.397  15.399  0.2949  2.2163 -0.7909
 7602TIP3    H244298   4.194   4.435  15.531  0.6514 -0.6382  0.2402
 7603TIP3   OH244299   3.359   3.930  10.398  0.1272 -0.1067  0.2545
 7603TIP3    H144300   3.282   3.928  10.455 -1.2550  1.0460 -1.5236
 7603TIP3    H244301   3.368   3.840  10.368 -2.2602  0.2369 -1.7116
 7604TIP3   OH244302   0.779   1.892  12.169  0.1005 -0.4874 -0.1889
 7604TIP3    H144303   0.785   1.798  12.149 -1.6083 -0.5759 -0.3652
 7604TIP3    H244304   0.799   1.935  12.086  0.6695 -0.7017 -0.1643
 7605TIP3   OH244305   3.925   0.365   0.792  0.0898  0.2120  0.0373
 7605TIP3    H144306   3.865   0.368   0.867  0.7213  1.4717  0.5156
 7605TIP3    H244307   3.930   0.456   0.763  0.9370 -0.0600 -0.6680
 7606TIP3   OH244308   3.136   3.678   6.371 -0.2613 -0.3879 -0.8757
 7606TIP3    H144309   3.122   3.743   6.302  0.5749  0.0259 -0.6659
 7606TIP3    H244310   3.048   3.656   6.401 -0.6549 -0.8843 -2.3514
 7607TIP3   OH244311   5.981   3.510  11.263  0.2358 -0.5157 -0.6783
 7607TIP3    H144312   5.903   3.497  11.209 -1.1036 -1.0702  1.3365
 7607TIP3    H244313   5.981   3.604  11.283  0.0236 -0.5389 -0.5748
 7608TIP3   OH244314   3.500   1.297   0.244  0.9740 -0.1201 -0.0000
 7608TIP3    H144315   3.518   1.333   0.157  1.5560  0.2771  0.2769
 7608TIP3    H244316   3.459   1.213   0.228  2.1549 -0.5861 -0.6699
 7609TIP3   OH244317   2.929   2.338   0.388  0.0447  0.2182  0.0139
 7609TIP3    H144318   2.880   2.260   0.363 -1.2628  0.3381  2.1144
 7609TIP3    H244319   2.972   2.365   0.307 -1.3044 -1.3540 -1.2867
 7610TIP3   OH244320   0.114   4.735   2.978  0.6305 -0.0446 -0.0275
 7610TIP3    H144321   0.114   4.723   2.883  2.7235  0.5487 -0.1302
 7610TIP3    H244322   0.134   4.648   3.013 -0.2159 -0.2803 -0.1105
 7611TIP3   OH244323   2.140   0.263  14.383  0.2337 -0.3003 -0.4006
 7611TIP3    H144324   2.187   0.198  14.435 -0.5302 -1.6038 -1.3186
 7611TIP3    H244325   2.130   0.223  14.297 -1.3094  0.5254 -0.6318
 7612TIP3   OH244326   2.221   0.412   5.406 -0.4485  0.0336 -0.0467
 7612TIP3    H144327   2.128   0.429   5.394 -0.6728  0.1294  1.6359
 7612TIP3    H244328   2.229   0.390   5.499  1.3907  1.2147  0.0948
 7613TIP3   OH244329   4.822   1.542   1.068 -0.0298 -0.2844  0.0493
 7613TIP3    H144330   4.740   1.512   1.107 -0.6389  0.3678 -0.7119
 7613TIP3    H244331   4.861   1.463   1.031  0.2063 -0.7831  1.3307
 7614TIP3   OH244332   2.646   2.165  13.521  0.1697 -0.3650  0.3598
 7614TIP3    H144333   2.698   2.085  13.529 -0.5806 -0.8516  0.4419
 7614TIP3    H244334   2.638   2.198  13.611  1.8395  0.6872  0.1364
 7615TIP3   OH244335   1.217   2.684   0.721 -0.3795 -0.0295  0.5000
 7615TIP3    H144336   1.146   2.743   0.747 -0.3404  1.4802 -2.6757
 7615TIP3    H244337   1.173   2.613   0.674  0.1272  0.4263 -0.6669
 7616TIP3   OH244338   1.141   0.685  12.197  0.5005 -0.2529  0.2530
 7616TIP3    H144339   1.163   0.759  12.254 -1.0334  0.7466 -0.4215
 7616TIP3    H244340   1.091   0.724  12.126  0.4504 -1.8296 -0.5876
 7617TIP3   OH244341   0.647   0.439  14.030 -0.0131  0.0248 -0.4720
 7617TIP3    H144342   0.685   0.526  14.035  0.0623  0.0881 -1.9107
 7617TIP3    H244343   0.681   0.402  13.949 -0.0715 -1.3338  0.1022
 7618TIP3   OH244344   6.641   0.157  11.547 -0.0886  0.3833  0.2589
 7618TIP3    H144345   6.568   0.187  11.494  0.4952  1.6292  0.1540
 7618TIP3    H244346   6.621   0.188  11.635  0.9918  1.9643 -0.0333
 7619TIP3   OH244347   3.990   1.903  11.283  0.4590 -0.3874 -0.1958
 7619TIP3    H144348   4.005   1.972  11.218 -3.1454 -0.1044 -0.8354
 7619TIP3    H244349   3.943   1.946  11.354 -2.0860 -2.1743 -0.7151
 7620TIP3   OH244350   1.846   6.474   0.429  0.4619 -0.2973 -0.0732
 7620TIP3    H144351   1.822   6.382   0.420 -2.7410  0.5805 -1.1381
 7620TIP3    H244352   1.867   6.502   0.340 -0.6064  0.4901 -0.0919
 7621TIP3   OH244353   0.217   5.077  14.093  0.1128 -0.5776  0.6015
 7621TIP3    H144354   0.122   5.085  14.104  0.2125  0.1333  0.9710
 7621TIP3    H244355   0.228   5.022  14.015 -0.6046 -0.0815  0.1460
 7622TIP3   OH244356   0.420   3.956  12.233  0.0945 -0.5084  0.1911
 7622TIP3    H144357   0.376   3.924  12.154  0.0579  0.7880 -0.3318
 7622TIP3    H244358   0.499   3.999  12.200  0.3806 -0.4785  0.9121
 7623TIP3   OH244359   0.904   1.437  13.849  0.2882 -0.0468 -0.0286
 7623TIP3    H144360   0.962   1.414  13.922 -0.5034  0.5693  0.8185
 7623TIP3    H244361   0.825   1.385  13.863  0.8399 -1.2754 -1.4735
 7624TIP3   OH244362   1.924   2.045   6.379 -0.3655  0.1738  0.2126
 7624TIP3    H144363   1.977   2.111   6.423  0.0074 -0.0751  0.1367
 7624TIP3    H244364   1.894   1.987   6.449  1.2206 -0.9295  0.0208
 7625TIP3   OH244365   5.808   3.826  14.065 -0.8439  0.1484  0.0073
 7625TIP3    H144366   5.735   3.888  14.058 -1.6651 -0.8903 -0.9480
 7625TIP3    H244367   5.783   3.754  14.007  0.7185 -0.4578  0.0694
 7626TIP3   OH244368   3.170   0.865  13.501  0.0316 -0.5342  0.0989
 7626TIP3    H144369   3.121   0.843  13.581 -0.6702  1.2947  0.2133
 7626TIP3    H244370   3.261   0.852  13.525 -0.2339 -0.9701  0.8982
 7627TIP3   OH244371   5.836   6.200  14.386 -0.0576  1.0500  0.1807
 7627TIP3    H144372   5.852   6.295  14.388  0.8044  0.8897  1.9463
 7627TIP3    H244373   5.907   6.163  14.440 -1.8124 -0.3886  1.5490
 7628TIP3   OH244374   5.745   4.284   3.421 -0.1765  0.1217 -0.0866
 7628TIP3    H144375   5.769   4.219   3.355  0.3195 -0.2040  0.4103
 7628TIP3    H244376   5.808   4.271   3.492  0.4590  1.6882 -0.3344
 7629TIP3   OH244377   0.497   3.767   3.762  0.3899  0.3070 -0.2946
 7629TIP3    H144378   0.560   3.705   3.728  2.7813  1.5668  1.7047
 7629TIP3    H244379   0.443   3.716   3.822  2.0557  0.0512  1.0072
 7630TIP3   OH244380   3.853   0.977   3.937 -0.0246 -0.1202  0.5098
 7630TIP3    H144381   3.774   1.030   3.944 -0.5223 -0.9939  1.7057
 7630TIP3    H244382   3.890   0.976   4.025  1.0251 -0.1719  0.0775
 7631TIP3   OH244383   2.635   5.596   1.345 -0.3395  0.0563  0.5524
 7631TIP3    H144384   2.614   5.679   1.388  1.7587  0.7366  0.3098
 7631TIP3    H244385   2.634   5.617   1.251 -2.0251 -0.7321  0.3879
 7632TIP3   OH244386   2.463   1.957  14.498  0.3892 -0.2622 -0.3843
 7632TIP3    H144387   2.421   1.924  14.418 -2.0209 -0.2586  0.8441
 7632TIP3    H244388   2.549   1.914  14.499 -0.1558 -1.4705 -2.1545
 7633TIP3   OH244389   1.248   5.101   1.365  0.2783  0.1254 -0.0095
 7633TIP3    H144390   1.172   5.127   1.416  0.3892 -0.1892  0.3198
 7633TIP3    H244391   1.284   5.026   1.412  0.8262  0.3074 -0.1280
 7634TIP3   OH244392   4.551   4.368  11.657  0.1865  0.1057 -0.4543
 7634TIP3    H144393   4.638   4.369  11.618 -0.0258 -1.3985 -0.9855
 7634TIP3    H244394   4.566   4.370  11.751  0.7503  1.2107 -0.5534
 7635TIP3   OH244395   2.033   1.117   1.106 -0.1842  0.5515 -0.5134
 7635TIP3    H144396   2.086   1.083   1.178 -1.5750  0.7896  0.6452
 7635TIP3    H244397   2.091   1.113   1.030  0.7498 -1.2984  0.2587
 7636TIP3   OH244398   5.731   0.332   5.386  0.4556 -0.1266  0.1214
 7636TIP3    H144399   5.676   0.382   5.445 -0.9425 -0.4969 -0.8388
 7636TIP3    H244400   5.771   0.265   5.441 -1.0909 -0.6767  0.5975
 7637TIP3   OH244401   5.276   6.495  11.154 -0.0731  0.2514  1.0887
 7637TIP3    H144402   5.210   6.563  11.138  0.2393 -0.3268 -3.1755
 7637TIP3    H244403   5.359   6.543  11.157 -0.0606  0.3066  0.0750
 7638TIP3   OH244404   5.305   3.731   3.906  0.3456  0.1912  0.3052
 7638TIP3    H144405   5.369   3.662   3.917  1.5712  1.2908  0.2177
 7638TIP3    H244406   5.342   3.788   3.837 -1.5866 -0.1559 -1.0576
 7639TIP3   OH244407   5.878   0.668   1.021 -0.2586  0.2045  0.2840
 7639TIP3    H144408   5.893   0.575   1.039  0.2010  0.0113 -1.0051
 7639TIP3    H244409   5.795   0.669   0.972 -0.4490  0.5097  0.6146
 7640TIP3   OH244410   4.701   5.624   1.842  0.4552  0.1879 -0.0802
 7640TIP3    H144411   4.790   5.654   1.820  0.1490 -0.4975 -2.4314
 7640TIP3    H244412   4.660   5.700   1.885  1.6403  1.0612 -0.4493
 7641TIP3   OH244413   2.646   5.525   1.817  0.1406 -0.1597 -0.5666
 7641TIP3    H144414   2.682   5.463   1.880  0.0886 -0.8782 -1.2363
 7641TIP3    H244415   2.593   5.585   1.870  1.8392  0.5624  0.3392
 7642TIP3   OH244416   2.391   3.437   1.554  0.2879  0.0755 -0.1883
 7642TIP3    H144417   2.301   3.433   1.521  0.4601 -1.2520 -0.5462
 7642TIP3    H244418   2.410   3.347   1.581  1.7604  0.1865 -0.8025
 7643TIP3   OH244419   4.479   2.100   2.201 -0.6682  0.0472 -0.7303
 7643TIP3    H144420   4.516   2.023   2.157 -0.1922  1.0955 -2.2303
 7643TIP3    H244421   4.392   2.072   2.229  1.0063 -2.3242  2.4376
 7644TIP3   OH244422   5.635   6.683   2.812  0.4119 -0.3713 -0.3362
 7644TIP3    H144423   5.572   6.686   2.884  1.1109  1.2855  0.2380
 7644TIP3    H244424   5.599   6.742   2.745  1.1218  0.2554 -0.1794
 7645TIP3   OH244425   3.929   4.823  12.633 -0.4774  0.1149  0.4799
 7645TIP3    H144426   4.007   4.877  12.645 -1.3204  1.1587  1.3639
 7645TIP3    H244427   3.885   4.862  12.557 -0.0821 -0.5376 -0.0829
 7646TIP3   OH244428   0.229   0.510  15.002  0.2747 -0.5765  0.1173
 7646TIP3    H144429   0.189   0.424  14.984 -1.0743  0.4123 -1.8018
 7646TIP3    H244430   0.271   0.535  14.920 -1.1043  1.4984 -0.0028
 7647TIP3   OH244431   5.120   4.064   3.930  0.0892  0.1062 -0.0827
 7647TIP3    H144432   5.200   4.070   3.878 -1.6028  0.6412 -2.7880
 7647TIP3    H244433   5.084   4.153   3.927 -0.6781 -0.1633  0.9716
 7648TIP3   OH244434   6.010   0.174  15.846 -0.0621 -0.0620  0.1271
 7648TIP3    H144435   6.089   0.220  15.874 -1.1401  2.2757 -0.5430
 7648TIP3    H244436   6.013   0.179  15.750 -1.0682  0.1202  0.1045
 7649TIP3   OH244437   0.657   1.162   5.744  0.3146 -0.2008 -0.1396
 7649TIP3    H144438   0.659   1.175   5.839 -0.0718  0.5048 -0.2280
 7649TIP3    H244439   0.564   1.150   5.723  0.3095  0.4970 -0.5377
 7650TIP3   OH244440   6.120   6.629  15.288  0.2477 -0.1284  0.0303
 7650TIP3    H144441   6.042   6.626  15.344  1.2553  0.3514  1.5232
 7650TIP3    H244442   6.191   6.655  15.348  1.9521 -2.5411 -0.8385
 7651TIP3   OH244443   5.217   5.360  12.983 -0.0764  0.0123 -0.4295
 7651TIP3    H144444   5.181   5.431  13.038  0.2150  0.8500 -1.3021
 7651TIP3    H244445   5.142   5.304  12.965 -0.1983 -0.2225  0.7503
 7652TIP3   OH244446   6.288   6.451  14.865 -0.0628 -0.1030  0.0134
 7652TIP3    H144447   6.351   6.402  14.918 -0.4633 -0.3706  0.2388
 7652TIP3    H244448   6.204   6.436  14.907  0.1613  3.1045  1.8265
 7653TIP3   OH244449   6.434   6.074   2.034 -0.0583 -0.5470  0.3165
 7653TIP3    H144450   6.436   6.000   1.974  2.3354  0.5572 -1.0375
 7653TIP3    H244451   6.439   6.151   1.977  0.3463  0.5758  1.8473
 7654TIP3   OH244452   5.484   5.087   0.870 -0.1130  0.3440 -0.1254
 7654TIP3    H144453   5.578   5.099   0.866  0.0593 -0.9590 -0.4919
 7654TIP3    H244454   5.472   5.009   0.925 -1.0083  0.9342  0.5213
 7655TIP3   OH244455   1.215   4.734  13.470  0.6922 -0.3564 -0.0872
 7655TIP3    H144456   1.247   4.816  13.508 -0.2727  0.2957 -0.6689
 7655TIP3    H244457   1.159   4.761  13.397  2.9253 -1.5662 -2.3639
 7656TIP3   OH244458   3.053   5.066   2.751 -0.2990  0.3712 -0.0292
 7656TIP3    H144459   3.070   5.083   2.844 -1.1832  1.9272 -0.1351
 7656TIP3    H244460   2.987   5.131   2.726 -1.0322 -0.8801 -1.4277
 7657TIP3   OH244461   1.569   5.470  16.410 -0.0454 -0.0828 -0.1958
 7657TIP3    H144462   1.603   5.492  16.497 -0.3040 -1.5160  0.2860
 7657TIP3    H244463   1.563   5.374  16.410 -0.9212 -0.0452 -1.4685
 7658TIP3   OH244464   1.638   4.553  14.945  0.1047 -0.5975 -0.4012
 7658TIP3    H144465   1.583   4.625  14.914  1.5908  0.5728 -0.3966
 7658TIP3    H244466   1.632   4.557  15.040  2.6988  1.5999 -0.2666
 7659TIP3   OH244467   1.126   6.694  12.413 -0.0795  0.1882  0.0805
 7659TIP3    H144468   1.115   6.771  12.470  0.5358  1.3675 -1.3444
 7659TIP3    H244469   1.050   6.696  12.356  0.4038  0.2826 -0.5663
 7660TIP3   OH244470   2.596   2.678   0.833  0.0838 -0.4595  0.9127
 7660TIP3    H144471   2.631   2.692   0.920  1.5772  0.6976  0.1524
 7660TIP3    H244472   2.577   2.584   0.829 -0.9255 -0.3328  2.8044
 7661TIP3   OH244473   1.166   3.118   4.389 -0.4770  0.2658  0.3627
 7661TIP3    H144474   1.130   3.153   4.471 -0.1431  1.5423 -0.0291
 7661TIP3    H244475   1.195   3.030   4.412 -0.4637  0.5792  1.6069
 7662TIP3   OH244476   5.181   2.869  14.245 -0.1383  0.0181 -0.3709
 7662TIP3    H144477   5.225   2.792  14.210  1.2005  1.3623 -1.7460
 7662TIP3    H244478   5.226   2.886  14.328 -0.8599 -1.0410  0.2406
 7663TIP3   OH244479   3.214   0.811  16.372 -0.5767  0.2526  0.6640
 7663TIP3    H144480   3.166   0.785  16.450 -1.7615 -0.4075 -0.2696
 7663TIP3    H244481   3.194   0.744  16.307 -0.7224  1.5258 -0.6358
 7664TIP3   OH244482   4.191   4.264   5.740 -0.2590 -0.3213  1.0138
 7664TIP3    H144483   4.102   4.296   5.723  0.1075 -0.1670 -0.7849
 7664TIP3    H244484   4.210   4.206   5.666  1.2894 -0.0209  1.1547
 7665TIP3   OH244485   6.461   2.268  15.416  0.3241 -0.5587  0.5936
 7665TIP3    H144486   6.454   2.337  15.351 -0.3585 -1.9736 -0.8743
 7665TIP3    H244487   6.395   2.291  15.482 -0.1177  0.0248 -0.0444
 7666TIP3   OH244488   1.362   6.322  13.891 -0.0713 -0.1013  0.1610
 7666TIP3    H144489   1.444   6.288  13.926 -0.7766 -0.6348  1.3510
 7666TIP3    H244490   1.296   6.297  13.956 -1.4626 -1.2645 -1.6398
 7667TIP3   OH244491   4.515   4.918   3.606 -0.4825  0.1687 -0.6561
 7667TIP3    H144492   4.505   4.967   3.688 -1.6673 -0.3519 -0.4799
 7667TIP3    H244493   4.559   4.837   3.632  0.3028  0.5545 -0.7477
 7668TIP3   OH244494   3.985   5.432  12.209  0.9674 -0.6053 -0.7696
 7668TIP3    H144495   3.942   5.434  12.294 -0.3731  0.9133 -1.4466
 7668TIP3    H244496   4.074   5.465  12.225  0.8263 -0.6440  0.0903
 7669TIP3   OH244497   4.037   5.727  12.355 -0.2790 -0.1341  0.2215
 7669TIP3    H144498   4.010   5.793  12.290 -0.4455  0.4851  0.9196
 7669TIP3    H244499   4.132   5.726  12.349 -0.2016  1.2113  1.2337
 7670TIP3   OH244500   0.292   4.931  13.873 -0.7917  0.0293 -0.1693
 7670TIP3    H144501   0.259   4.934  13.783 -0.8892  0.4032 -0.1196
 7670TIP3    H244502   0.369   4.874  13.868 -0.7021  0.1799 -0.5164
 7671TIP3   OH244503   4.658   0.246  13.278  0.5594 -0.2789  0.1516
 7671TIP3    H144504   4.683   0.336  13.299  1.8386 -0.3426 -1.0668
 7671TIP3    H244505   4.718   0.192  13.329 -0.3603 -0.4703  1.0652
 7672TIP3   OH244506   0.672   5.268  11.238  0.6052 -0.3805 -0.6012
 7672TIP3    H144507   0.582   5.238  11.229 -0.0506  0.9632  1.1483
 7672TIP3    H244508   0.725   5.199  11.198 -1.2066 -0.9836 -2.0205
 7673TIP3   OH244509   0.982   2.351  12.783 -0.4703  0.4013  0.8122
 7673TIP3    H144510   0.898   2.354  12.738  0.6599  0.7166 -1.4075
 7673TIP3    H244511   1.014   2.441  12.780  0.0790  0.2315  1.3534
 7674TIP3   OH244512   0.237   2.249  12.822  0.1510  0.0289 -0.2305
 7674TIP3    H144513   0.304   2.310  12.790 -1.1592  1.5814 -0.1134
 7674TIP3    H244514   0.222   2.275  12.913 -2.0894  1.1044 -0.8624
 7675TIP3   OH244515   6.160   2.830  12.548 -0.4130 -0.1547 -0.3044
 7675TIP3    H144516   6.123   2.784  12.623 -1.1501 -0.3834 -0.8145
 7675TIP3    H244517   6.253   2.808  12.551 -0.6258 -1.0488 -0.0926
 7676TIP3   OH244518   5.725   1.812  10.880  0.5527  0.3056  0.1182
 7676TIP3    H144519   5.661   1.829  10.949  1.3112  0.8600  0.7062
 7676TIP3    H244520   5.695   1.731  10.838 -0.0678  0.1109  0.9225
 7677TIP3   OH244521   6.165   3.107  16.594  0.6055  0.5102 -0.1095
 7677TIP3    H144522   6.118   3.073  16.670 -0.4552  0.2793 -0.8475
 7677TIP3    H244523   6.222   3.175  16.629  0.9444 -0.3667  1.0388
 7678TIP3   OH244524   5.185   6.114  11.638  0.3903  0.7807  0.7580
 7678TIP3    H144525   5.162   6.023  11.652  2.7738  0.1567  0.8205
 7678TIP3    H244526   5.239   6.137  11.713  1.9753  1.4510 -0.5655
 7679TIP3   OH244527   3.140   5.994  13.416  0.5239 -0.7439  0.1097
 7679TIP3    H144528   3.230   5.979  13.448  0.4212 -0.6764  0.4341
 7679TIP3    H244529   3.145   5.976  13.322  0.8215 -0.9967  0.1713
 7680TIP3   OH244530   3.800   2.821  11.822  0.0794 -0.2595  0.4758
 7680TIP3    H144531   3.828   2.784  11.738  0.5916 -0.5779  0.7800
 7680TIP3    H244532   3.726   2.768  11.849 -0.4175  0.1752 -0.0268
 7681TIP3   OH244533   0.702   1.076  16.390  0.4192  0.2753 -0.2440
 7681TIP3    H144534   0.726   1.103  16.478 -0.5305  0.0058  0.1041
 7681TIP3    H244535   0.611   1.048  16.397  0.6282 -0.6829 -1.1001
 7682TIP3   OH244536   6.103   6.706   2.925  0.1063  0.2675 -0.0004
 7682TIP3    H144537   6.073   6.761   2.852  1.2824  2.4265  1.1006
 7682TIP3    H244538   6.117   6.767   2.997  6.5833 -0.5720 -0.2597
 7683TIP3   OH244539   2.152   5.875   3.693  0.1597  0.1219  0.6632
 7683TIP3    H144540   2.105   5.801   3.732 -2.7193  3.0301  3.0035
 7683TIP3    H244541   2.198   5.915   3.767  2.7191  0.0306 -0.8029
 7684TIP3   OH244542   0.191   5.720   0.307  0.3232 -0.8112  0.0361
 7684TIP3    H144543   0.193   5.643   0.250 -0.6996 -0.7306 -0.1278
 7684TIP3    H244544   0.107   5.713   0.353  0.3939  0.0090  0.2935
 7685TIP3   OH244545   0.780   0.779  15.374 -0.2888  0.5516 -0.1109
 7685TIP3    H144546   0.703   0.834  15.360 -0.7868  0.1670  1.0460
 7685TIP3    H244547   0.758   0.696  15.330 -0.0463  0.8443 -0.7919
 7686TIP3   OH244548   4.639   2.473  14.407  0.2655 -0.9490  0.1656
 7686TIP3    H144549   4.547   2.455  14.423 -0.2624  0.9331 -0.5534
 7686TIP3    H244550   4.670   2.513  14.489 -0.0283  0.0704 -0.2141
 7687TIP3   OH244551   1.706   6.437  12.966  0.0206 -0.3228  0.1138
 7687TIP3    H144552   1.723   6.395  13.051 -0.0354  0.9255  0.7496
 7687TIP3    H244553   1.617   6.409  12.943  0.1264 -0.8549  0.3540
 7688TIP3   OH244554   4.737   3.811   4.646 -0.2506 -0.3731 -0.4141
 7688TIP3    H144555   4.714   3.893   4.689  0.6354 -0.6058  0.4923
 7688TIP3    H244556   4.685   3.745   4.691 -2.0682 -0.1515 -2.0825
 7689TIP3   OH244557   0.632   3.646   1.451 -0.0750  0.7876 -0.1212
 7689TIP3    H144558   0.609   3.630   1.360 -2.8727 -0.5416  0.7874
 7689TIP3    H244559   0.561   3.701   1.485 -0.7361 -1.3288  2.0711
 7690TIP3   OH244560   3.735   1.237  14.586 -0.0659  0.2463  0.0761
 7690TIP3    H144561   3.790   1.304  14.626  0.9444 -0.3223 -0.3310
 7690TIP3    H244562   3.720   1.173  14.656 -1.2335  1.0058  0.5340
 7691TIP3   OH244563   2.626   4.698   4.202 -0.5359 -0.2491 -0.4578
 7691TIP3    H144564   2.703   4.754   4.200 -0.2743 -0.6505 -2.2665
 7691TIP3    H244565   2.624   4.663   4.292 -0.5255  2.3611  0.5850
 7692TIP3   OH244566   3.977   5.049  10.301  0.0579  0.2560  0.5827
 7692TIP3    H144567   3.887   5.078  10.311  0.3918  1.4994  0.0530
 7692TIP3    H244568   4.029   5.129  10.306  0.8705  0.0376 -3.0250
 7693TIP3   OH244569   2.998   5.274  16.905 -0.2956 -0.6749  0.4422
 7693TIP3    H144570   2.953   5.354  16.934 -1.7025 -1.3970  0.3056
 7693TIP3    H244571   2.982   5.271  16.810 -0.6394 -1.3612  0.5222
 7694TIP3   OH244572   5.716   0.851   5.986  0.1654  0.1795  0.3231
 7694TIP3    H144573   5.741   0.843   6.079  0.5540 -0.3762  0.1724
 7694TIP3    H244574   5.725   0.944   5.967 -0.0080  0.3112  0.8711
 7695TIP3   OH244575   6.514   2.303  17.075 -0.1786 -0.4704  0.4696
 7695TIP3    H144576   6.458   2.357  17.020 -0.3089  0.6993  1.7295
 7695TIP3    H244577   6.454   2.259  17.136  0.1673  0.0389  1.1898
 7696TIP3   OH244578   3.582   0.783   5.905 -0.2807 -0.2194 -0.4766
 7696TIP3    H144579   3.625   0.848   5.961 -2.3911  0.9096 -0.0829
 7696TIP3    H244580   3.557   0.713   5.965  2.3417 -1.6058 -0.9676
 7697TIP3   OH244581   6.133   2.801  11.131 -0.2125 -0.0457 -0.4928
 7697TIP3    H144582   6.043   2.787  11.163 -0.0371  2.3918  1.2086
 7697TIP3    H244583   6.188   2.759  11.197 -0.0178  0.9809  0.0099
 7698TIP3   OH244584   5.387   3.428   1.729 -0.2000  0.0789  0.8388
 7698TIP3    H144585   5.466   3.449   1.681 -0.9425  0.3291 -0.2964
 7698TIP3    H244586   5.315   3.452   1.670 -1.1443  1.5786  2.5380
 7699TIP3   OH244587   3.995   0.660  17.117 -0.1711 -0.9322 -0.0803
 7699TIP3    H144588   4.004   0.642  17.210 -1.0390  0.0584  0.1985
 7699TIP3    H244589   3.978   0.574  17.078 -2.9277 -0.9728  1.0799
 7700TIP3   OH244590   5.718   2.446   0.968 -0.2308 -0.5286 -0.3610
 7700TIP3    H144591   5.628   2.430   0.942 -0.6099  1.1313 -0.1745
 7700TIP3    H244592   5.754   2.503   0.900  0.2590 -0.1102  0.2309
 7701TIP3   OH244593   4.331   3.115  13.367 -0.1174 -0.1837 -0.1289
 7701TIP3    H144594   4.290   3.185  13.416 -0.2081 -1.1790  1.2418
 7701TIP3    H244595   4.410   3.093  13.417  1.4195  0.8067 -2.0091
 7702TIP3   OH244596   2.265   6.227   5.489  0.4410 -0.3690 -0.0356
 7702TIP3    H144597   2.254   6.133   5.472  3.6633 -1.2484  2.3851
 7702TIP3    H244598   2.189   6.250   5.543 -0.2575 -1.5873 -0.4641
 7703TIP3   OH244599   5.191   2.314  16.187 -0.6071  0.0869 -0.5964
 7703TIP3    H144600   5.243   2.360  16.253  0.0813  0.5527 -1.4542
 7703TIP3    H244601   5.101   2.346  16.201 -0.6451 -0.6228  0.7958
 7704TIP3   OH244602   0.522   6.302   0.681 -0.2026 -0.0280  0.0404
 7704TIP3    H144603   0.541   6.213   0.712 -1.9699 -0.5037 -0.1704
 7704TIP3    H244604   0.428   6.313   0.696  0.0762  1.9568  0.4094
 7705TIP3   OH244605   1.843   2.127   0.479  0.0755 -0.3727  0.1787
 7705TIP3    H144606   1.931   2.165   0.480  0.4586 -1.2612  2.6976
 7705TIP3    H244607   1.785   2.203   0.472  0.9936  0.2500 -1.0704
 7706TIP3   OH244608   0.457   6.088  16.510 -0.0998 -0.5106 -0.0028
 7706TIP3    H144609   0.504   6.091  16.594  0.7535  1.8980 -0.5253
 7706TIP3    H244610   0.419   6.175  16.500 -0.0836 -0.7205 -2.1834
 7707TIP3   OH244611   6.359   2.550  13.599 -0.5708 -0.2329  0.1260
 7707TIP3    H144612   6.428   2.538  13.664 -0.8893 -1.1094  0.3058
 7707TIP3    H244613   6.283   2.505  13.635 -1.0859  0.2727 -0.3192
 7708TIP3   OH244614   3.968   3.330   6.362  0.3412 -0.2355 -0.2624
 7708TIP3    H144615   4.002   3.288   6.284  0.2450 -1.6202  0.4251
 7708TIP3    H244616   4.039   3.324   6.426  0.1354  0.1801  0.0141
 7709TIP3   OH244617   4.462   3.260   1.053 -0.3710  0.3811 -0.4227
 7709TIP3    H144618   4.538   3.239   1.108 -0.4150 -1.8618 -1.1617
 7709TIP3    H244619   4.461   3.355   1.050  2.6332  0.4675 -0.6903
 7710TIP3   OH244620   3.834   0.595  15.210 -0.0165 -0.0768  0.4417
 7710TIP3    H144621   3.869   0.574  15.124  0.2368 -0.3174  0.6049
 7710TIP3    H244622   3.747   0.630  15.192  0.8656  1.8981 -0.0605
 7711TIP3   OH244623   6.814   5.697  11.560 -0.1535 -0.9980  0.3083
 7711TIP3    H144624   6.905   5.678  11.584  0.1384  1.9659  1.7863
 7711TIP3    H244625   6.817   5.717  11.467  0.3611 -2.8736 -0.0912
 7712TIP3   OH244626   4.253   6.382   5.675 -0.2174  0.0608  0.2301
 7712TIP3    H144627   4.248   6.467   5.631  0.3386 -0.5372 -0.9906
 7712TIP3    H244628   4.293   6.402   5.760  0.6381  0.9113 -0.3583
 7713TIP3   OH244629   1.732   2.042  17.146  0.3016 -0.2655  0.3837
 7713TIP3    H144630   1.653   2.013  17.099  0.0127 -0.4226  0.9528
 7713TIP3    H244631   1.749   1.971  17.209  1.1545 -0.4329 -0.0317
 7714TIP3   OH244632   1.748   1.895   3.528  0.0109 -0.6535  0.8154
 7714TIP3    H144633   1.754   1.963   3.461 -0.1744 -1.9186 -0.5064
 7714TIP3    H244634   1.817   1.918   3.591 -0.3372  0.9888  0.6400
 7715TIP3   OH244635   5.431   2.742   3.231  0.2328  0.0198 -0.2157
 7715TIP3    H144636   5.403   2.712   3.145 -1.4048  0.0207  0.3140
 7715TIP3    H244637   5.435   2.837   3.222  2.2600 -0.1000 -0.9315
 7716TIP3   OH244638   1.226   1.962  12.349  0.0824  0.1575  0.4873
 7716TIP3    H144639   1.140   1.989  12.381 -0.3677 -1.8608  1.0736
 7716TIP3    H244640   1.261   2.040  12.305 -1.7690  1.1896  0.7797
 7717TIP3   OH244641   1.302   4.184  11.555 -0.7289 -0.3467  0.1765
 7717TIP3    H144642   1.310   4.185  11.460 -0.2827  1.1437  0.2278
 7717TIP3    H244643   1.273   4.095  11.575 -1.8332 -0.3779 -1.4273
 7718TIP3   OH244644   4.789   1.052  15.111  0.4520 -1.2066 -0.0384
 7718TIP3    H144645   4.832   0.980  15.158  1.1582  0.0983  1.3484
 7718TIP3    H244646   4.838   1.130  15.135 -2.3249  0.2614  1.1726
 7719TIP3   OH244647   5.789   1.452  12.669  0.0213 -0.2082  0.1471
 7719TIP3    H144648   5.804   1.409  12.753  1.8227  1.6501  0.8266
 7719TIP3    H244649   5.747   1.535  12.692  2.2248  1.1411 -0.6262
 7720TIP3   OH244650   3.320   3.916  14.215 -0.0820  0.6147  0.3551
 7720TIP3    H144651   3.354   3.885  14.299  0.9705 -1.6218 -0.8531
 7720TIP3    H244652   3.250   3.854  14.193 -1.5498  2.2161  0.3803
 7721TIP3   OH244653   3.723   1.581   0.241 -0.6421 -0.6361 -0.1467
 7721TIP3    H144654   3.729   1.675   0.261 -1.2170 -0.6738  0.2169
 7721TIP3    H244655   3.779   1.539   0.306  1.0741 -0.4165 -1.4367
 7722TIP3   OH244656   4.837   1.398   2.972  0.2084 -1.0424  0.5194
 7722TIP3    H144657   4.896   1.323   2.965  0.2204 -0.8481 -1.6591
 7722TIP3    H244658   4.892   1.474   2.953 -0.2932 -0.6801  0.4939
 7723TIP3   OH244659   2.006   0.356  15.862  0.4404  0.4148 -0.1243
 7723TIP3    H144660   1.987   0.264  15.884 -0.4090  0.5310 -0.3404
 7723TIP3    H244661   1.952   0.406  15.922  3.6738  0.8567  2.5193
 7724TIP3   OH244662   0.206   0.578   1.729  0.1215  0.3138  0.2723
 7724TIP3    H144663   0.272   0.522   1.770 -0.7515 -0.6645  0.3627
 7724TIP3    H244664   0.142   0.593   1.798  0.1596  1.1217  0.1326
 7725TIP3   OH244665   5.748   2.482   5.369  0.3961  0.2591 -0.1537
 7725TIP3    H144666   5.806   2.524   5.434  1.9039  0.4226 -1.5689
 7725TIP3    H244667   5.719   2.554   5.313 -0.8123  0.1013  0.2559
 7726TIP3   OH244668   2.173   5.143  12.522  0.4043  0.3174 -0.6383
 7726TIP3    H144669   2.233   5.217  12.527 -0.2661  0.7270  1.9613
 7726TIP3    H244670   2.086   5.181  12.535 -0.0064 -0.8284  0.0913
 7727TIP3   OH244671   3.533   5.431  11.851 -0.0558  0.2252 -0.4498
 7727TIP3    H144672   3.493   5.381  11.922 -2.3032  0.9957 -1.1063
 7727TIP3    H244673   3.528   5.522  11.879 -1.0665  0.5489 -1.6171
 7728TIP3   OH244674   4.281   2.828   5.767 -0.1228 -0.0389 -0.1423
 7728TIP3    H144675   4.210   2.767   5.786 -0.0315 -0.0108  0.2881
 7728TIP3    H244676   4.361   2.776   5.780  0.1247  1.2672  4.3812
 7729TIP3   OH244677   0.327   2.811  13.885  0.5666  1.1416  0.4411
 7729TIP3    H144678   0.338   2.885  13.826  0.2238  0.1665 -0.8699
 7729TIP3    H244679   0.253   2.762  13.849  1.2406 -0.2177  0.8630
 7730TIP3   OH244680   1.939   2.357  14.273 -0.1665  0.0871 -0.0543
 7730TIP3    H144681   1.881   2.288  14.304  0.5223 -0.2218  0.5345
 7730TIP3    H244682   1.910   2.435  14.320 -0.2678 -0.0136  0.0500
 7731TIP3   OH244683   2.964   3.110   0.703 -0.4433 -0.3721 -0.4791
 7731TIP3    H144684   2.926   3.191   0.739  0.2394  1.0557 -2.8670
 7731TIP3    H244685   2.889   3.052   0.693 -0.9329 -0.1042  1.3608
 7732TIP3   OH244686   4.144   4.865  11.260 -0.1361 -0.3138 -0.1870
 7732TIP3    H144687   4.206   4.795  11.279  1.0899  0.6410 -0.5821
 7732TIP3    H244688   4.069   4.821  11.221  1.0398 -1.3001 -1.3763
 7733TIP3   OH244689   4.869   3.853  14.863 -0.2900  0.5905  0.2930
 7733TIP3    H144690   4.782   3.825  14.892 -0.1909 -0.1356 -0.0931
 7733TIP3    H244691   4.930   3.804  14.919 -0.1258  1.9640  1.3575
 7734TIP3   OH244692   6.510   3.644  10.911  0.2212 -0.3621 -0.2278
 7734TIP3    H144693   6.577   3.693  10.863  0.7319 -0.3039  0.5356
 7734TIP3    H244694   6.544   3.638  11.000 -0.6594 -0.5766  0.1008
 7735TIP3   OH244695   6.027   3.246   0.526  0.2606  0.1990  0.4744
 7735TIP3    H144696   6.115   3.277   0.549  0.4034  0.8743 -0.9360
 7735TIP3    H244697   5.969   3.317   0.554  0.4851  1.2735 -1.6925
 7736TIP3   OH244698   5.228   0.941   4.419  0.2317  0.4091  0.0722
 7736TIP3    H144699   5.216   1.007   4.488  1.4031 -0.6936  1.3392
 7736TIP3    H244700   5.157   0.878   4.434  0.6077  0.0622  0.4018
 7737TIP3   OH244701   3.194   3.074  11.427  0.4494  0.5321  0.4303
 7737TIP3    H144702   3.209   3.014  11.354 -0.5527  0.5563  0.1977
 7737TIP3    H244703   3.257   3.144  11.414  1.6714 -0.4919  0.7277
 7738TIP3   OH244704   0.612   5.966   6.390  0.4086 -0.0758  0.4733
 7738TIP3    H144705   0.614   5.910   6.468  0.0518  0.2167  0.6996
 7738TIP3    H244706   0.580   6.051   6.423 -0.5683 -0.1952 -0.1431
 7739TIP3   OH244707   3.993   6.059  15.613 -0.6158 -0.2739  0.3459
 7739TIP3    H144708   4.067   6.119  15.625 -0.5228  0.3681 -2.7998
 7739TIP3    H244709   4.023   5.997  15.546 -1.8296 -1.9279  1.3017
 7740TIP3   OH244710   2.756   1.142  17.073  0.0447  0.2769 -0.2208
 7740TIP3    H144711   2.723   1.134  16.983  0.0389 -2.8284  0.0005
 7740TIP3    H244712   2.848   1.116  17.066 -0.5931 -2.5124  1.0341
 7741TIP3   OH244713   1.260   4.896   3.628  0.1549  0.4486  0.2361
 7741TIP3    H144714   1.327   4.953   3.590 -0.7697  1.8929  0.7358
 7741TIP3    H244715   1.255   4.923   3.720 -0.9095  0.1760  0.2639
 7742TIP3   OH244716   2.702   4.824   0.026 -0.1759 -0.2212  0.4132
 7742TIP3    H144717   2.646   4.860   0.095 -0.3695 -0.0505  0.1653
 7742TIP3    H244718   2.664   4.738   0.007 -0.6244  0.0807 -0.0719
 7743TIP3   OH244719   6.758   4.654   3.701  0.0629 -0.5809  0.3360
 7743TIP3    H144720   6.671   4.688   3.681  0.0266  0.3086  1.9123
 7743TIP3    H244721   6.786   4.611   3.620 -0.0826  2.8034 -1.6351
 7744TIP3   OH244722   5.762   0.405   4.696 -0.0701  0.7545 -0.2204
 7744TIP3    H144723   5.774   0.453   4.614 -0.9397  1.8450  0.2723
 7744TIP3    H244724   5.702   0.460   4.747  0.6583  0.2076  1.2467
 7745TIP3   OH244725   1.496   4.763  15.570 -0.2299 -0.1877  0.4660
 7745TIP3    H144726   1.563   4.744  15.635  0.1703 -0.4942 -0.0377
 7745TIP3    H244727   1.543   4.805  15.498 -0.4017 -1.3377 -0.3338
 7746TIP3   OH244728   2.753   6.805   1.957 -0.4763 -0.8029  0.5266
 7746TIP3    H144729   2.680   6.767   1.907 -0.6713 -1.4299  1.2727
 7746TIP3    H244730   2.831   6.770   1.914 -0.6214 -0.6148  0.1002
 7747TIP3   OH244731   5.008   0.784   4.769 -0.4027  0.1116 -0.7094
 7747TIP3    H144732   5.006   0.715   4.836 -0.8116 -0.6706 -1.5134
 7747TIP3    H244733   5.083   0.761   4.714 -0.8057  0.0604 -1.2369
 7748TIP3   OH244734   2.869   1.969   5.392  0.6717 -0.2599 -0.1193
 7748TIP3    H144735   2.854   1.906   5.462  0.9888 -0.8616 -0.5898
 7748TIP3    H244736   2.950   2.013   5.416  1.1947 -1.0061 -0.4971
 7749TIP3   OH244737   5.606   6.138   0.466  0.4290  0.3811 -0.1731
 7749TIP3    H144738   5.581   6.190   0.543  1.2678  0.0548  0.3240
 7749TIP3    H244739   5.700   6.150   0.459  0.4283  0.0030 -0.8597
 7750TIP3   OH244740   0.349   4.674   2.590  0.3333 -0.4236 -0.2080
 7750TIP3    H144741   0.427   4.634   2.553 -0.2610 -0.0901 -1.8636
 7750TIP3    H244742   0.355   4.656   2.684  0.6219 -3.4398 -0.7517
 7751TIP3   OH244743   5.972   4.366   2.250  0.3456 -0.1685  0.9555
 7751TIP3    H144744   5.991   4.377   2.157 -0.8723  1.7448  0.8989
 7751TIP3    H244745   6.020   4.287   2.276  1.3198 -0.2707 -1.1040
 7752TIP3   OH244746   0.017   3.122  14.500  0.3902 -0.1803  0.0468
 7752TIP3    H144747   0.044   3.048  14.554 -1.1753 -0.9406 -0.1769
 7752TIP3    H244748   0.035   3.094  14.410  0.5316  0.0280  0.0084
 7753TIP3   OH244749   5.923   6.435  15.660  0.5938 -0.2867 -0.4535
 7753TIP3    H144750   5.935   6.524  15.693  2.5211 -0.4527 -0.6945
 7753TIP3    H244751   5.956   6.378  15.730  1.2322 -0.7474 -1.1224
 7754TIP3   OH244752   5.419   5.324  11.434 -0.5039 -0.7378 -0.0534
 7754TIP3    H144753   5.349   5.264  11.409 -0.4699 -1.0949  0.6952
 7754TIP3    H244754   5.468   5.339  11.353 -0.0463 -2.3353 -0.0900
 7755TIP3   OH244755   5.605   5.233   0.419 -0.0635 -0.5312  0.4069
 7755TIP3    H144756   5.689   5.196   0.390  0.6602 -0.4800  2.3832
 7755TIP3    H244757   5.557   5.158   0.453 -0.2395 -0.3107  0.6376
 7756TIP3   OH244758   5.947   4.499   0.143  0.0255 -0.1733  0.0167
 7756TIP3    H144759   5.995   4.562   0.196  0.6440 -0.0818 -0.6409
 7756TIP3    H244760   5.871   4.547   0.110 -0.7218 -0.4192  1.3503
 7757TIP3   OH244761   0.637   2.543   5.017  0.1981  0.0210  0.3089
 7757TIP3    H144762   0.612   2.634   4.999 -0.5326 -0.1501  0.4363
 7757TIP3    H244763   0.578   2.491   4.962  0.4948 -0.3845  0.3739
 7758TIP3   OH244764   2.200   6.042   4.277  0.2452 -0.3736 -0.1210
 7758TIP3    H144765   2.106   6.029   4.265  0.1441 -0.6111  0.8683
 7758TIP3    H244766   2.206   6.130   4.314  0.6099  0.7012 -2.6205
 7759TIP3   OH244767   3.226   2.354   2.753  0.2294  0.4533 -0.1018
 7759TIP3    H144768   3.217   2.448   2.740 -1.4504  0.6284  2.0329
 7759TIP3    H244769   3.215   2.342   2.847 -1.0430 -2.0179 -0.5269
 7760TIP3   OH244770   0.183   4.774  14.987 -0.5530 -0.3878 -0.4994
 7760TIP3    H144771   0.212   4.727  15.065  0.9228  0.8949 -0.2447
 7760TIP3    H244772   0.087   4.772  14.993 -0.4758  0.4998  1.8683
 7761TIP3   OH244773   5.650   6.128  15.110  0.0290 -0.2684  0.2280
 7761TIP3    H144774   5.603   6.142  15.192 -0.5078 -1.5202  0.1473
 7761TIP3    H244775   5.647   6.033  15.097  1.9506 -0.2852 -0.1549
 7762TIP3   OH244776   4.640   4.986  11.865  0.1502 -0.0632 -0.2302
 7762TIP3    H144777   4.564   5.041  11.884 -0.3592 -0.0152 -2.2917
 7762TIP3    H244778   4.605   4.912  11.816  1.3693 -0.2478 -0.8563
 7763TIP3   OH244779   2.009   1.061   4.162  0.0251  0.1704  0.1547
 7763TIP3    H144780   1.937   1.068   4.225  0.5849 -0.6921  0.8963
 7763TIP3    H244781   1.967   1.034   4.081 -0.5912  0.4570  0.3727
 7764TIP3   OH244782   5.640   0.434   5.625  0.9072  0.7630  0.2445
 7764TIP3    H144783   5.577   0.504   5.610  0.0206  0.7394  3.3869
 7764TIP3    H244784   5.610   0.393   5.707  2.2420 -2.3411 -0.7618
 7765TIP3   OH244785   1.165   3.499  15.096  0.2906  0.1032 -0.1467
 7765TIP3    H144786   1.178   3.587  15.062 -0.1830  0.6243  0.9986
 7765TIP3    H244787   1.192   3.441  15.024  0.0008  1.1736 -1.1266
 7766TIP3   OH244788   2.260   4.004   0.878  0.4536  0.1145  0.1087
 7766TIP3    H144789   2.342   3.996   0.829 -0.9328 -1.0595 -2.1102
 7766TIP3    H244790   2.250   3.918   0.920  1.5628  1.0687  2.4246
 7767TIP3   OH244791   2.161   6.631   0.021  0.2859 -0.4458  0.2129
 7767TIP3    H144792   2.232   6.635   0.086  1.6917  0.5109 -1.3212
 7767TIP3    H244793   2.185   6.557  -0.035  0.4117  0.2367 -0.6565
 7768TIP3   OH244794   4.001   1.749  12.511 -0.0694  0.5006 -0.1945
 7768TIP3    H144795   4.086   1.726  12.475 -0.2110  0.4488 -0.4925
 7768TIP3    H244796   4.003   1.717  12.601 -0.6804 -1.6472 -0.9313
 7769TIP3   OH244797   2.491   0.576  17.167  0.2694 -0.4683 -0.1848
 7769TIP3    H144798   2.436   0.552  17.241  0.1118  0.2512 -0.0646
 7769TIP3    H244799   2.482   0.503  17.106  1.8026 -1.8869  1.2589
 7770TIP3   OH244800   6.628   0.726  15.969 -0.0357  0.2265 -0.2783
 7770TIP3    H144801   6.705   0.743  15.914  0.5263 -0.4701  0.2838
 7770TIP3    H244802   6.581   0.810  15.971  2.3858  1.6220  1.9838
 7771TIP3   OH244803   4.981   5.405  17.254  0.5264  0.1346  0.2175
 7771TIP3    H144804   4.912   5.425  17.190  1.1200 -0.8293 -0.7409
 7771TIP3    H244805   4.979   5.479  17.315  0.5328  1.5321 -1.4219
 7772TIP3   OH244806   2.103   3.430  11.608  0.1682  0.1290 -0.5915
 7772TIP3    H144807   2.187   3.427  11.561  0.5946  1.4281  0.0645
 7772TIP3    H244808   2.046   3.371  11.559  1.5427 -0.9559 -0.9058
 7773TIP3   OH244809   5.583   1.203   6.142 -0.5414 -0.1335  0.4372
 7773TIP3    H144810   5.662   1.209   6.196  0.7162 -3.2190 -0.9135
 7773TIP3    H244811   5.613   1.225   6.054 -1.8297  1.3915  0.3567
 7774TIP3   OH244812   2.585   6.772  14.104  0.3088  0.6165 -0.3598
 7774TIP3    H144813   2.676   6.787  14.080  0.2355 -1.0728 -1.7729
 7774TIP3    H244814   2.538   6.770  14.021 -0.9850  1.2126  0.3338
 7775TIP3   OH244815   2.670   3.666  17.018 -0.4562 -0.6348  0.1461
 7775TIP3    H144816   2.724   3.745  17.011  0.2012 -1.1451 -0.5994
 7775TIP3    H244817   2.719   3.609  17.077  0.2676 -1.4642 -1.2488
 7776TIP3   OH244818   6.617   5.653   5.013  0.3935  0.3814  0.0341
 7776TIP3    H144819   6.561   5.719   5.055  1.5338 -0.0468  2.2738
 7776TIP3    H244820   6.556   5.599   4.963 -0.6682  2.5593 -1.1054
 7777TIP3   OH244821   5.670   6.322   4.601  0.5467  0.5089 -0.4494
 7777TIP3    H144822   5.604   6.372   4.649 -0.5457 -0.7185 -0.6426
 7777TIP3    H244823   5.740   6.309   4.665 -0.2216  0.2289  0.3617
 7778TIP3   OH244824   4.100   0.952  15.037  0.1268  0.5716  0.0856
 7778TIP3    H144825   4.125   1.037  15.073  1.1936  1.1053 -1.8940
 7778TIP3    H244826   4.026   0.971  14.980 -0.1557  0.0440  0.2740
 7779TIP3   OH244827   3.361   0.021   5.573  0.2471 -0.0541  0.2341
 7779TIP3    H144828   3.319   0.107   5.580 -0.6124 -0.4795  0.3473
 7779TIP3    H244829   3.447   0.033   5.615  0.4702  0.9679 -0.4983
 7780TIP3   OH244830   3.393   4.538  13.508 -0.4762 -0.5527  0.2257
 7780TIP3    H144831   3.440   4.611  13.468  0.2330 -0.7761  0.6424
 7780TIP3    H244832   3.362   4.572  13.591 -2.3423  0.0500 -0.6962
 7781TIP3   OH244833   0.901   5.928  11.786  0.0572 -0.0401  0.1545
 7781TIP3    H144834   0.909   5.848  11.838  0.6294  0.9551  1.5979
 7781TIP3    H244835   0.964   5.989  11.824 -0.9364  1.3885 -0.4325
 7782TIP3   OH244836   3.606   6.067  13.146  0.5158  0.2998 -0.6076
 7782TIP3    H144837   3.700   6.058  13.158  0.5996  1.8216 -0.0847
 7782TIP3    H244838   3.589   6.030  13.059  1.8739  1.7685 -1.5150
 7783TIP3   OH244839   3.789   3.521  13.124 -0.1419  0.4484 -0.0749
 7783TIP3    H144840   3.708   3.566  13.148  0.2679  1.0658  0.1542
 7783TIP3    H244841   3.839   3.586  13.076  0.6771  0.3988  0.7114
 7784TIP3   OH244842   6.802   2.178   3.301  0.4806 -0.0412  0.0786
 7784TIP3    H144843   6.867   2.110   3.289  0.1287 -0.6769  1.6277
 7784TIP3    H244844   6.718   2.133   3.291  0.2294 -0.0564  1.9987
 7785TIP3   OH244845   4.204   6.213  13.641 -0.5274  0.1631 -0.2840
 7785TIP3    H144846   4.211   6.212  13.736 -1.5844 -0.1813 -0.2071
 7785TIP3    H244847   4.213   6.121  13.615 -0.6031  0.2131 -0.4897
 7786TIP3   OH244848   6.203   0.297  11.213 -0.2622 -0.2344 -0.3506
 7786TIP3    H144849   6.176   0.309  11.122  0.1120  2.3689 -0.1512
 7786TIP3    H244850   6.128   0.253  11.255 -2.1201  2.1871 -1.0060
 7787TIP3   OH244851   0.216   5.306   1.843 -0.2821  0.1476 -0.5981
 7787TIP3    H144852   0.234   5.382   1.897 -0.3680 -0.7043  0.6367
 7787TIP3    H244853   0.281   5.241   1.870 -3.2179 -1.9180  1.8093
 7788TIP3   OH244854   2.030   4.579  14.035  0.1533  0.2465  0.6484
 7788TIP3    H144855   2.083   4.506  14.003 -0.4851 -0.5104  1.2976
 7788TIP3    H244856   1.993   4.618  13.956  3.0300  1.8690  0.0286
 7789TIP3   OH244857   5.332   4.885  15.915 -0.0752 -0.6147  0.1859
 7789TIP3    H144858   5.286   4.881  16.000 -0.2873  0.7470  0.1444
 7789TIP3    H244859   5.362   4.795  15.900  1.6350 -0.4966  2.6283
 7790TIP3   OH244860   5.529   5.551  15.279  0.4199  0.8057 -0.2101
 7790TIP3    H144861   5.558   5.539  15.369 -0.6639 -0.8119 -0.0612
 7790TIP3    H244862   5.453   5.610  15.285  0.6459  1.0885 -0.1207
 7791TIP3   OH244863   6.300   4.179  12.385  0.2056  0.2365 -0.0877
 7791TIP3    H144864   6.294   4.222  12.471 -1.0493  3.7077 -1.8213
 7791TIP3    H244865   6.210   4.152  12.366  0.5849 -1.0409 -0.0608
 7792TIP3   OH244866   5.525   6.558   0.660  0.4237 -0.5731 -0.0973
 7792TIP3    H144867   5.498   6.606   0.581  0.0511  0.6815  0.7758
 7792TIP3    H244868   5.619   6.545   0.649  0.5323  0.3956 -0.3230
 7793TIP3   OH244869   4.843   6.002  10.925  0.0243 -0.0054 -0.8527
 7793TIP3    H144870   4.903   6.033  10.992 -0.0094 -0.2225 -0.7199
 7793TIP3    H244871   4.848   6.067  10.855 -1.2081  1.0982  0.0714
 7794TIP3   OH244872   3.474   5.153   3.763 -0.3310 -0.0903 -0.0582
 7794TIP3    H144873   3.388   5.161   3.722 -1.0685 -0.0594  1.4641
 7794TIP3    H244874   3.497   5.061   3.751 -0.0879  0.1406 -1.4142
 7795TIP3   OH244875   4.049   4.105  11.021 -0.4980 -0.2638 -0.2660
 7795TIP3    H144876   4.003   4.133  11.101 -3.4575 -1.3107 -1.5248
 7795TIP3    H244877   4.021   4.167  10.955  1.8842  0.5419 -0.5556
 7796TIP3   OH244878   5.482   1.271  12.388 -0.3423 -0.2280  0.0833
 7796TIP3    H144879   5.534   1.200  12.351 -1.7482 -2.0097  1.4386
 7796TIP3    H244880   5.459   1.326  12.313 -0.1683 -1.8074 -1.1441
 7797TIP3   OH244881   1.907   2.754   3.414 -0.1172  0.0445  0.2964
 7797TIP3    H144882   1.844   2.721   3.478 -0.1780  0.2035  0.3193
 7797TIP3    H244883   1.862   2.828   3.373  0.1813  0.3727  0.5504
 7798TIP3   OH244884   0.554   4.266  12.777  0.3920 -0.4793 -0.1541
 7798TIP3    H144885   0.507   4.334  12.825  0.6822 -1.7291  1.9178
 7798TIP3    H244886   0.500   4.188  12.784  1.5750 -1.2879  0.1727
 7799TIP3   OH244887   3.528   3.673   4.416  0.2187  0.7301 -0.1766
 7799TIP3    H144888   3.536   3.715   4.502  1.7168  1.3224 -0.5957
 7799TIP3    H244889   3.613   3.632   4.402 -0.0904  0.4757 -1.2938
 7800TIP3   OH244890   5.822   5.763   4.188 -0.8420 -0.4453  0.6421
 7800TIP3    H144891   5.747   5.710   4.214  0.8047 -2.4175  1.5179
 7800TIP3    H244892   5.897   5.705   4.197  0.7570  1.3468 -0.6445
 7801TIP3   OH244893   0.962   6.753  15.766  0.3641 -0.8589  0.1207
 7801TIP3    H144894   0.962   6.675  15.822  0.2802 -2.0875 -1.5616
 7801TIP3    H244895   1.055   6.777  15.760  0.4288 -1.0433  0.3447
 7802TIP3   OH244896   5.866   1.017  11.443  0.3458  0.6656  0.4723
 7802TIP3    H144897   5.781   1.031  11.486  0.2232 -0.0300  0.4624
 7802TIP3    H244898   5.885   1.101  11.401  0.6792  1.4960  2.2320
 7803TIP3   OH244899   1.106   6.562  15.910  0.1884 -0.3859 -1.2102
 7803TIP3    H144900   1.168   6.571  15.982 -0.6306  0.8613 -0.6498
 7803TIP3    H244901   1.156   6.518  15.841  0.5811 -2.8878  0.5812
 7804TIP3   OH244902   5.058   6.234  15.566 -0.5908  0.5516  0.3226
 7804TIP3    H144903   5.154   6.237  15.562 -0.4387  0.0185  2.8049
 7804TIP3    H244904   5.034   6.158  15.513  0.6185 -1.3722  2.4345
 7805TIP3   OH244905   4.819   4.597   3.469 -0.7485 -0.4915 -0.0096
 7805TIP3    H144906   4.870   4.625   3.545  1.1432 -1.6172 -0.8074
 7805TIP3    H244907   4.784   4.678   3.433  0.9746  0.4007  0.2538
 7806TIP3   OH244908   6.343   3.928  16.815 -0.3207  0.2134 -0.2682
 7806TIP3    H144909   6.336   3.865  16.743 -0.2946  1.0108 -0.9901
 7806TIP3    H244910   6.264   3.916  16.866  0.2068 -1.1596  0.2263
 7807TIP3   OH244911   3.575   1.049   4.463 -0.6327 -0.5136  0.0174
 7807TIP3    H144912   3.521   1.020   4.390 -0.4012 -1.2954  0.1494
 7807TIP3    H244913   3.541   1.000   4.539  0.3695 -1.1458  0.0636
 7808TIP3   OH244914   0.367   4.559   3.079 -0.2597 -0.4438 -0.2657
 7808TIP3    H144915   0.338   4.480   3.033 -2.7835  0.0301  0.4313
 7808TIP3    H244916   0.355   4.539   3.171  0.2311  0.3269 -0.0282
 7809TIP3   OH244917   4.846   5.381   1.354 -0.3158  0.5752  0.2297
 7809TIP3    H144918   4.829   5.459   1.407  1.1518  1.0572  0.0305
 7809TIP3    H244919   4.765   5.330   1.359 -0.7544  1.3714  1.6281
 7810TIP3   OH244920   6.503   2.616  12.915 -0.3243  0.1588  0.3160
 7810TIP3    H144921   6.509   2.569  12.832  2.4916 -0.6268  0.8941
 7810TIP3    H244922   6.474   2.704  12.891 -2.1593 -0.8304 -1.1789
 7811TIP3   OH244923   1.336   6.799   3.542 -0.1924 -0.5563  0.2238
 7811TIP3    H144924   1.253   6.753   3.548 -1.6578  1.9243 -0.4393
 7811TIP3    H244925   1.359   6.819   3.633 -1.1464  0.2000  0.3009
 7812TIP3   OH244926   4.156   4.800  14.816 -0.7257 -0.0659  0.2166
 7812TIP3    H144927   4.139   4.727  14.876 -1.4450  0.0001  0.0876
 7812TIP3    H244928   4.250   4.818  14.827 -0.1159 -2.1875 -1.0444
 7813TIP3   OH244929   6.525   5.591   1.877  0.1227  0.9396  0.4288
 7813TIP3    H144930   6.592   5.578   1.944  0.5257  1.7443  0.1853
 7813TIP3    H244931   6.459   5.525   1.897  1.8794 -1.1588 -0.4918
 7814TIP3   OH244932   5.991   5.909   1.891 -0.5358  0.6922 -0.3762
 7814TIP3    H144933   6.065   5.945   1.842 -0.0578 -0.8070 -0.7662
 7814TIP3    H244934   6.015   5.921   1.983 -0.0348  0.6785 -0.5012
 7815TIP3   OH244935   0.572   4.061   4.953 -0.4792  0.2527 -0.0423
 7815TIP3    H144936   0.482   4.055   4.986 -0.5902  1.6473 -0.0464
 7815TIP3    H244937   0.584   4.154   4.935  0.4558 -0.1246 -1.4807
 7816TIP3   OH244938   6.175   6.127  16.884  0.0953  0.3028  0.7407
 7816TIP3    H144939   6.100   6.102  16.938 -1.2278  1.0218 -0.7179
 7816TIP3    H244940   6.173   6.066  16.810  1.4264 -0.1722  1.0729
 7817TIP3   OH244941   3.455   1.453   3.328  0.0718 -0.3157  0.3211
 7817TIP3    H144942   3.368   1.490   3.342  0.3353  0.1902  0.6233
 7817TIP3    H244943   3.472   1.403   3.408 -1.0154 -2.5583 -0.8077
 7818TIP3   OH244944   6.746   1.103  16.883  0.2738 -0.0136 -0.6424
 7818TIP3    H144945   6.657   1.074  16.902  0.0957  0.5586 -0.5796
 7818TIP3    H244946   6.802   1.051  16.941 -0.1653  0.9157  0.6287
 7819TIP3   OH244947   5.081   2.337  14.960 -0.3077 -0.1471  0.2748
 7819TIP3    H144948   4.989   2.339  14.985 -0.0769 -1.2629  1.2514
 7819TIP3    H244949   5.121   2.407  15.011 -0.9616  1.7203 -1.6860
 7820TIP3   OH244950   0.094   2.068  13.889 -0.3779 -0.2446 -0.1809
 7820TIP3    H144951   0.095   2.036  13.979  0.0937  1.2757  0.3625
 7820TIP3    H244952   0.176   2.037  13.852 -0.4603 -0.6639 -0.0191
 7821TIP3   OH244953   4.707   3.540  11.094  0.6726  0.8763 -0.6909
 7821TIP3    H144954   4.674   3.538  11.184  0.7296  1.3163 -0.6564
 7821TIP3    H244955   4.798   3.569  11.102  0.7022  0.8396 -0.8849
 7822TIP3   OH244956   6.714   5.892   3.899 -0.4854 -0.2484 -0.4134
 7822TIP3    H144957   6.646   5.925   3.841  0.7239  2.6375 -0.3015
 7822TIP3    H244958   6.795   5.932   3.866  0.6953 -1.2037  1.2488
 7823TIP3   OH244959   2.025   6.029  11.550  0.5256 -0.8323 -1.0757
 7823TIP3    H144960   2.015   5.978  11.470 -0.5658  0.3618 -1.7320
 7823TIP3    H244961   1.990   5.972  11.619  1.5739 -1.9094 -1.4183
 7824TIP3   OH244962   1.581   2.991  11.462  0.1846 -0.1527 -0.0352
 7824TIP3    H144963   1.494   2.964  11.433  0.7703 -0.8443 -1.1993
 7824TIP3    H244964   1.565   3.059  11.527 -1.2238  2.7927 -3.2631
 7825TIP3   OH244965   6.283   3.459  14.438  0.0406 -0.3023 -0.4561
 7825TIP3    H144966   6.195   3.442  14.473 -0.0499  0.8924 -0.0844
 7825TIP3    H244967   6.342   3.420  14.503 -0.1976 -0.6339 -0.4355
 7826TIP3   OH244968   6.337   3.139  14.252 -0.2591  0.2142 -0.0914
 7826TIP3    H144969   6.293   3.171  14.330 -2.2645 -2.2626 -0.1666
 7826TIP3    H244970   6.421   3.106  14.283  1.1304  3.7810  0.2327
 7827TIP3   OH244971   0.729   5.915   0.938 -0.0613 -0.0974 -0.2109
 7827TIP3    H144972   0.816   5.916   0.896  0.0347  0.7113 -0.0058
 7827TIP3    H244973   0.679   5.981   0.890 -0.4106 -0.2262 -0.0207
 7828TIP3   OH244974   4.642   2.430   4.322 -0.0151 -0.1777  0.0200
 7828TIP3    H144975   4.565   2.374   4.306  0.7538 -1.0171 -0.8082
 7828TIP3    H244976   4.669   2.459   4.235  0.1760  0.7112  0.3702
 7829TIP3   OH244977   2.724   6.140  13.477 -0.1921  0.5416 -0.0485
 7829TIP3    H144978   2.756   6.157  13.389  0.5786  2.1171  0.5079
 7829TIP3    H244979   2.800   6.158  13.534 -1.1194  1.1128  1.0400
 7830TIP3   OH244980   3.757   1.320   6.500 -0.0556 -0.3136 -0.3249
 7830TIP3    H144981   3.669   1.290   6.521 -0.8590  0.7901 -1.9900
 7830TIP3    H244982   3.745   1.409   6.467  1.9311  0.6965  1.5321
 7831TIP3   OH244983   2.133   1.546   5.153 -0.2543  0.0896  0.5055
 7831TIP3    H144984   2.183   1.528   5.073  0.6484  3.3887  0.2478
 7831TIP3    H244985   2.097   1.634   5.139 -0.5560  0.4791  3.4739
 7832TIP3   OH244986   0.499   2.978   5.776 -0.1021 -0.1186  0.5642
 7832TIP3    H144987   0.476   3.065   5.808 -1.4877 -0.6290  0.9930
 7832TIP3    H244988   0.585   2.960   5.815  0.1522  1.0059  0.5442
 7833TIP3   OH244989   1.268   1.690  11.002 -0.1918  0.2036  0.0411
 7833TIP3    H144990   1.331   1.690  10.930 -0.1771 -0.4563  0.0548
 7833TIP3    H244991   1.187   1.721  10.962 -0.4468 -1.1211 -0.5012
 7834TIP3   OH244992   5.873   1.362  16.081 -0.2478  0.1581 -0.0807
 7834TIP3    H144993   5.827   1.412  16.149  0.4545  0.3436  0.2574
 7834TIP3    H244994   5.925   1.427  16.034  0.1207 -0.1481 -0.0939
 7835TIP3   OH244995   0.780   5.883   2.606  0.1508 -0.3135  0.3135
 7835TIP3    H144996   0.685   5.874   2.596  0.2109  0.1769 -0.8122
 7835TIP3    H244997   0.797   5.976   2.595  0.9683 -0.6496 -1.4555
 7836TIP3   OH244998   2.394   5.801   1.351  0.4181  0.5295 -0.5320
 7836TIP3    H144999   2.368   5.710   1.367  2.0093  0.0066 -0.8320
 7836TIP3    H245000   2.392   5.841   1.438 -2.1316  0.7465 -0.6311
 7837TIP3   OH245001   5.293   4.399   0.018 -1.1200  0.1892  0.4726
 7837TIP3    H145002   5.271   4.391  -0.074  0.8576  0.4822 -0.0501
 7837TIP3    H245003   5.258   4.484   0.044  1.3521  1.6821 -0.9359
 7838TIP3   OH245004   5.669   1.706  13.160  0.5057  0.3305  0.3699
 7838TIP3    H145005   5.686   1.759  13.082  0.6037 -0.8683 -0.4261
 7838TIP3    H245006   5.584   1.738  13.192  0.4492  0.7999 -0.2349
 7839TIP3   OH245007   2.209   4.864  13.793 -0.0173 -0.5729  0.1679
 7839TIP3    H145008   2.217   4.958  13.808 -0.2597 -0.4426 -0.5040
 7839TIP3    H245009   2.250   4.824  13.870 -0.2676  0.0783  0.6439
 7840TIP3   OH245010   4.164   2.712   0.740 -0.2775 -0.3374  0.4646
 7840TIP3    H145011   4.221   2.700   0.815  0.0829 -0.5650  0.1571
 7840TIP3    H245012   4.088   2.759   0.774 -0.3884 -0.9685  1.0934
 7841TIP3   OH245013   3.322   6.020   3.461 -0.0193  0.4196  0.0251
 7841TIP3    H145014   3.382   5.960   3.505 -0.9805 -0.6959 -0.1920
 7841TIP3    H245015   3.370   6.049   3.383  0.3019 -0.3275 -0.0543
 7842TIP3   OH245016   5.612   6.050   4.737 -0.1440  0.2428  0.5246
 7842TIP3    H145017   5.694   6.003   4.721  0.8760  0.3853  4.7989
 7842TIP3    H245018   5.639   6.133   4.778 -2.3370  1.0620  0.3877
 7843TIP3   OH245019   1.529   1.120   6.876  0.0679 -0.2477  0.9174
 7843TIP3    H145020   1.546   1.171   6.796 -0.0722 -0.9140  0.4546
 7843TIP3    H245021   1.615   1.089   6.903  0.0525 -0.4773  0.7094
 7844TIP3   OH245022   2.822   2.279  16.576 -0.1890 -0.5486 -0.0706
 7844TIP3    H145023   2.783   2.355  16.532 -1.6585 -1.7480 -0.8834
 7844TIP3    H245024   2.770   2.205  16.545  0.8355 -1.8087  1.2047
 7845TIP3   OH245025   2.556   1.205   0.436 -0.2791  0.2068 -0.3070
 7845TIP3    H145026   2.564   1.291   0.394  1.9146  0.8899  1.3628
 7845TIP3    H245027   2.527   1.226   0.525 -2.9626 -1.0675 -0.8218
 7846TIP3   OH245028   5.274   6.134   5.387 -0.0388 -0.0469 -0.1539
 7846TIP3    H145029   5.229   6.150   5.470  0.5157  3.2374 -0.4005
 7846TIP3    H245030   5.218   6.071   5.342 -1.5733 -0.1246  1.7494
 7847TIP3   OH245031   6.196   5.874  11.600  0.0280  0.0437 -0.0485
 7847TIP3    H145032   6.201   5.970  11.596 -0.4802  0.0404 -0.7937
 7847TIP3    H245033   6.103   5.856  11.613  0.2062 -0.3337  0.7382
 7848TIP3   OH245034   4.068   2.002  12.501  0.1137  0.0969 -0.2681
 7848TIP3    H145035   4.152   2.004  12.547 -0.2181 -1.1175  0.4073
 7848TIP3    H245036   4.038   1.912  12.511 -2.0495  0.9175  0.8993
 7849TIP3   OH245037   3.392   0.459   0.133  0.1475 -0.2995  0.2282
 7849TIP3    H145038   3.482   0.482   0.108  0.3158 -2.2441 -1.0954
 7849TIP3    H245039   3.365   0.528   0.193  2.0771  1.0151 -0.3689
 7850TIP3   OH245040   4.113   0.857   4.919 -0.1157  0.4496 -0.2628
 7850TIP3    H145041   4.044   0.791   4.918  0.3201 -0.0530  1.2278
 7850TIP3    H245042   4.067   0.941   4.916 -0.7471  0.0945 -0.4483
 7851TIP3   OH245043   6.296   3.880   3.716 -0.3842 -0.4068 -0.6649
 7851TIP3    H145044   6.220   3.844   3.761 -0.9558  2.6381  0.9569
 7851TIP3    H245045   6.367   3.819   3.736 -1.4043 -0.9252  1.5709
 7852TIP3   OH245046   6.615   1.525   2.559  0.3318 -0.0541 -0.1390
 7852TIP3    H145047   6.520   1.519   2.570  0.1609 -1.2819 -2.1066
 7852TIP3    H245048   6.650   1.446   2.601  0.0191 -2.4237 -4.1240
 7853TIP3   OH245049   3.405   3.464  12.579 -0.3554 -0.7176 -0.9097
 7853TIP3    H145050   3.426   3.398  12.513 -2.4176 -3.0542  0.6824
 7853TIP3    H245051   3.402   3.415  12.661 -1.6967  1.4083  0.3409
 7854TIP3   OH245052   4.012   0.874   4.407  0.1068 -0.8336 -0.2700
 7854TIP3    H145053   4.002   0.884   4.502 -0.9166  0.4868 -0.5032
 7854TIP3    H245054   4.076   0.804   4.397 -2.0558 -3.1311  1.3869
 7855TIP3   OH245055   4.945   0.334  14.052 -0.0406 -0.0387  0.0117
 7855TIP3    H145056   4.909   0.416  14.018  2.1645  0.3549 -1.4905
 7855TIP3    H245057   4.951   0.348  14.147 -1.2503  0.9042 -0.0406
 7856TIP3   OH245058   6.601   4.585  11.267 -0.1894 -0.2811 -0.1493
 7856TIP3    H145059   6.630   4.506  11.221 -0.3492 -1.1458  1.2341
 7856TIP3    H245060   6.525   4.614  11.217 -0.0033 -0.8745 -0.7948
 7857TIP3   OH245061   6.676   5.419   4.395  0.0054  0.0682 -0.1303
 7857TIP3    H145062   6.626   5.413   4.314  1.5114 -1.7412 -0.9419
 7857TIP3    H245063   6.687   5.328   4.423  2.0477  0.4963  0.5209
 7858TIP3   OH245064   2.195   2.608   2.566  0.0953 -0.2120  0.1763
 7858TIP3    H145065   2.234   2.532   2.608  0.9608  0.3722  0.4320
 7858TIP3    H245066   2.101   2.588   2.563  0.0802 -0.4668  1.9392
 7859TIP3   OH245067   5.637   6.336   4.326  0.1489  0.1255 -0.3464
 7859TIP3    H145068   5.714   6.283   4.305  0.5484  0.8868 -0.8209
 7859TIP3    H245069   5.637   6.342   4.421 -0.1591 -1.1132 -0.2610
 7860TIP3   OH245070   1.626   0.211   1.802 -0.2216 -0.1498 -0.4489
 7860TIP3    H145071   1.582   0.186   1.883 -1.3462  1.7462 -0.4414
 7860TIP3    H245072   1.643   0.305   1.812 -0.7012  0.1839 -2.5398
 7861TIP3   OH245073   6.487   3.883   4.242  0.5553 -0.2435 -0.0699
 7861TIP3    H145074   6.538   3.861   4.319  1.0723 -0.0377 -0.3505
 7861TIP3    H245075   6.466   3.799   4.202  1.1990 -0.3023 -0.2885
 7862TIP3   OH245076   2.939   0.198  12.154  0.4711 -0.1770 -0.4123
 7862TIP3    H145077   2.968   0.289  12.151 -0.6745  0.2163  0.1209
 7862TIP3    H245078   2.951   0.172  12.246  1.8449 -0.9234 -0.7881
 7863TIP3   OH245079   0.894   3.796   3.048  0.0949 -0.3421  0.4001
 7863TIP3    H145080   0.959   3.744   3.095  0.6455  0.5138  0.5993
 7863TIP3    H245081   0.809   3.760   3.075  0.4961 -2.0968 -0.5891
 7864TIP3   OH245082   1.349   4.878  12.896 -0.4016  1.1604  0.2116
 7864TIP3    H145083   1.328   4.919  12.979  0.5233  1.7245  0.1660
 7864TIP3    H245084   1.444   4.866  12.898 -0.5427 -0.0489 -0.1980
 7865TIP3   OH245085   6.252   3.277   0.317  0.2128  0.4672  0.7641
 7865TIP3    H145086   6.253   3.200   0.260  1.6211  1.6386 -0.8518
 7865TIP3    H245087   6.264   3.241   0.406  2.8869 -1.0622 -0.1374
 7866TIP3   OH245088   5.527   3.357  11.300 -0.0228  0.1734  0.5231
 7866TIP3    H145089   5.616   3.394  11.290  0.5184 -1.3396 -0.4081
 7866TIP3    H245090   5.469   3.432  11.287  1.0995  0.9431 -0.1983
 7867TIP3   OH245091   5.652   3.777   0.239 -0.6989 -0.2182  0.3139
 7867TIP3    H145092   5.725   3.827   0.202 -0.0844 -1.3540 -0.0350
 7867TIP3    H245093   5.579   3.794   0.181 -0.8447  1.3026  0.9283
 7868TIP3   OH245094   5.480   2.684   5.533  0.8656 -0.7790 -0.6032
 7868TIP3    H145095   5.494   2.672   5.627 -1.9055  2.4915  0.3670
 7868TIP3    H245096   5.563   2.718   5.500  1.1802  0.1774  1.1324
 7869TIP3   OH245097   2.283   0.926   1.574 -0.7442  0.0709  0.6530
 7869TIP3    H145098   2.209   0.866   1.571 -1.8546  1.3299  2.0194
 7869TIP3    H245099   2.255   0.995   1.634  0.7980  1.5555 -0.3058
 7870TIP3   OH245100   3.938   4.979  12.121 -0.1746 -0.3778  0.5034
 7870TIP3    H145101   3.943   4.951  12.030 -2.4714  0.5023  0.0733
 7870TIP3    H245102   3.853   4.945  12.151 -0.3481  1.0798  1.6992
 7871TIP3   OH245103   6.369   5.083   2.659  0.2966 -0.2050  0.0284
 7871TIP3    H145104   6.306   5.138   2.613  0.0051  0.2788  0.9980
 7871TIP3    H245105   6.454   5.121   2.639  0.1774 -0.0695 -0.2147
 7872TIP3   OH245106   5.640   5.714  11.558  0.7128  0.1162 -0.2795
 7872TIP3    H145107   5.712   5.661  11.592 -0.8029 -0.7855  1.5298
 7872TIP3    H245108   5.630   5.685  11.467  1.5388 -0.9153 -0.0468
 7873TIP3   OH245109   4.929   4.823   2.871  0.2402  0.0034  0.6774
 7873TIP3    H145110   5.025   4.826   2.874  0.3823 -0.9568 -1.7984
 7873TIP3    H245111   4.901   4.914   2.874  1.3556  0.4221 -1.2659
 7874TIP3   OH245112   5.821   1.157  16.263  0.0570 -0.2804 -0.1597
 7874TIP3    H145113   5.902   1.145  16.313  0.5101  0.4355 -0.7089
 7874TIP3    H245114   5.850   1.196  16.180 -0.7292 -1.0394 -0.8025
 7875TIP3   OH245115   3.647   0.748   3.755  0.2102  0.2835  0.2383
 7875TIP3    H145116   3.561   0.775   3.722  0.4993 -0.6748 -1.3368
 7875TIP3    H245117   3.632   0.733   3.848 -1.3858 -0.0547 -0.0440
 7876TIP3   OH245118   0.855   3.863  12.432  0.7064  0.8884  0.2107
 7876TIP3    H145119   0.818   3.777  12.452  0.9053  0.6840 -0.2994
 7876TIP3    H245120   0.779   3.919  12.419  0.5759  0.6704  0.0298
 7877TIP3   OH245121   2.491   0.263   2.762  0.0845  0.1083  0.0226
 7877TIP3    H145122   2.501   0.350   2.799 -0.0121 -0.0104  0.3308
 7877TIP3    H245123   2.414   0.227   2.806  0.4288 -0.3244  0.2782
 7878TIP3   OH245124   0.773   3.995  14.158  0.7200 -0.0950 -0.0311
 7878TIP3    H145125   0.809   4.072  14.114 -1.7155  1.0949 -0.0348
 7878TIP3    H245126   0.704   3.964  14.100  0.6380 -1.3437  0.7141
 7879TIP3   OH245127   6.575   5.914   0.747  0.0822 -0.2892 -0.0222
 7879TIP3    H145128   6.640   5.855   0.785 -0.2989  0.6016  2.1130
 7879TIP3    H245129   6.610   6.002   0.765 -0.7586  0.1679 -0.5935
 7880TIP3   OH245130   6.604   2.421   0.452  0.5127  0.2083  0.2103
 7880TIP3    H145131   6.617   2.327   0.448  0.4538  0.2045  0.0735
 7880TIP3    H245132   6.613   2.444   0.544 -0.1541 -0.0275  0.3373
 7881TIP3   OH245133   6.409   1.330  12.506  0.1232 -0.1781  0.2567
 7881TIP3    H145134   6.349   1.336  12.431  0.4316 -0.5226 -0.0214
 7881TIP3    H245135   6.351   1.317  12.581 -0.1412 -0.8393 -0.0531
 7882TIP3   OH245136   1.108   0.781  16.689 -0.3070 -0.6136 -0.3404
 7882TIP3    H145137   1.099   0.694  16.651 -0.7645 -0.5368 -0.4177
 7882TIP3    H245138   1.036   0.831  16.651 -0.9059 -0.5957  0.7979
 7883TIP3   OH245139   4.837   2.709   1.281 -0.0185 -0.5823  0.2855
 7883TIP3    H145140   4.774   2.759   1.334  0.0061  0.0190 -0.2415
 7883TIP3    H245141   4.904   2.683   1.344 -1.4626 -2.3874  1.1148
 7884TIP3   OH245142   2.532   2.603   2.086  0.0577  0.1764 -0.0684
 7884TIP3    H145143   2.512   2.574   1.997  0.0352 -1.8185  0.5748
 7884TIP3    H245144   2.623   2.577   2.100 -0.2997 -0.5952  0.9021
 7885TIP3   OH245145   1.314   4.010  10.933  0.5321  0.6636  0.1516
 7885TIP3    H145146   1.361   4.078  10.980  1.4048 -0.7665  1.4058
 7885TIP3    H245147   1.379   3.941  10.919 -0.7246 -0.5977  0.3529
 7886TIP3   OH245148   1.875   6.638   4.021  0.2164  0.2385 -0.1307
 7886TIP3    H145149   1.826   6.618   4.101  1.0767  0.6064  0.5016
 7886TIP3    H245150   1.829   6.591   3.952  0.2272 -1.1410  0.7866
 7887TIP3   OH245151   5.396   4.895  11.398  0.1091  0.1253 -0.0443
 7887TIP3    H145152   5.416   4.808  11.363  1.0508  0.1302  0.4563
 7887TIP3    H245153   5.481   4.937  11.406 -0.2600  0.7388  0.6539
 7888TIP3   OH245154   3.002   5.940  17.012 -0.5805 -0.4963 -0.3405
 7888TIP3    H145155   3.013   6.004  17.082 -2.6208 -0.0932 -0.3638
 7888TIP3    H245156   2.990   5.993  16.933  0.0919 -0.9350 -0.7448
 7889TIP3   OH245157   1.411   0.816   2.677 -0.1275 -0.2837 -0.6270
 7889TIP3    H145158   1.400   0.908   2.702 -2.6000 -1.1878  1.9837
 7889TIP3    H245159   1.327   0.792   2.638 -0.2095 -1.8872  0.4555
 7890TIP3   OH245160   4.249   1.376  13.708 -0.1308  0.5546  0.1565
 7890TIP3    H145161   4.247   1.334  13.794 -0.6722 -0.8795 -0.5329
 7890TIP3    H245162   4.332   1.424  13.707  0.3305 -0.1892  1.1159
 7891TIP3   OH245163   2.758   4.043   6.233  0.3313  0.0444 -0.2505
 7891TIP3    H145164   2.819   4.107   6.268  0.5466  1.4882 -3.1225
 7891TIP3    H245165   2.671   4.074   6.259  0.5019  0.9573 -0.7629
 7892TIP3   OH245166   6.109   5.896  14.659  0.1935 -0.1860  0.0747
 7892TIP3    H145167   6.059   5.900  14.741  0.1528  0.8962 -0.0054
 7892TIP3    H245168   6.140   5.805  14.655 -0.7375 -0.5407  0.7321
 7893TIP3   OH245169   4.368   5.127   0.810 -0.0278 -0.4063 -0.2336
 7893TIP3    H145170   4.347   5.202   0.755 -0.7935 -1.6934 -1.7569
 7893TIP3    H245171   4.339   5.051   0.759 -0.6373 -1.6484  1.9035
 7894TIP3   OH245172   0.873   4.755   2.523 -0.6482  0.5061 -0.0430
 7894TIP3    H145173   0.967   4.750   2.540 -0.7182  1.3399  0.6407
 7894TIP3    H245174   0.832   4.725   2.605 -0.9725  1.5992  0.2119
 7895TIP3   OH245175   2.818   2.032   2.665  0.1778  0.2304 -0.6940
 7895TIP3    H145176   2.852   2.058   2.579  0.8895 -1.4326 -0.9546
 7895TIP3    H245177   2.897   2.011   2.716 -0.2605  0.8018  0.2390
 7896TIP3   OH245178   6.005   3.734  10.816 -0.0735 -0.2949  1.3630
 7896TIP3    H145179   5.910   3.718  10.824 -0.3655  0.9179  0.3667
 7896TIP3    H245180   6.035   3.738  10.907 -1.3861  1.6511  1.7406
 7897TIP3   OH245181   5.633   1.324   3.091  0.2807 -0.4184 -0.0649
 7897TIP3    H145182   5.719   1.347   3.056 -0.3668  0.2171 -1.2738
 7897TIP3    H245183   5.645   1.324   3.186  1.4159  0.4870 -0.1951
 7898TIP3   OH245184   4.587   0.291   6.269  0.3515  0.0047  0.6584
 7898TIP3    H145185   4.537   0.242   6.334  0.9598 -2.1468 -0.4232
 7898TIP3    H245186   4.587   0.381   6.300 -1.8685 -0.4616  2.0859
 7899TIP3   OH245187   2.782   2.564   2.198 -0.4305  0.6113 -0.4294
 7899TIP3    H145188   2.877   2.563   2.191 -0.4392 -2.6977 -1.0274
 7899TIP3    H245189   2.765   2.601   2.285  1.5353 -1.2551  0.8060
 7900TIP3   OH245190   4.490   2.013   5.654 -0.0531  0.1403 -0.2340
 7900TIP3    H145191   4.583   2.034   5.647 -0.1400  0.9305  0.8969
 7900TIP3    H245192   4.488   1.920   5.677  0.4671  0.1955  0.0406
 7901TIP3   OH245193   5.591   4.201   4.144  0.8046  0.2207 -0.1619
 7901TIP3    H145194   5.580   4.166   4.055  1.5859  1.3071 -0.6998
 7901TIP3    H245195   5.581   4.296   4.134 -0.1039  0.2700  1.0827
 7902TIP3   OH245196   0.032   5.128  12.771 -0.2005  0.1280 -0.6856
 7902TIP3    H145197  -0.058   5.161  12.771 -0.7375 -1.2817 -0.9243
 7902TIP3    H245198   0.073   5.171  12.846 -1.3655  0.0415  0.0257
 7903TIP3   OH245199   4.787   0.935   5.082  0.0347 -0.0866 -0.6443
 7903TIP3    H145200   4.777   0.992   5.006  1.1990 -0.3074 -0.9720
 7903TIP3    H245201   4.864   0.882   5.062  1.5679  1.2441  1.5695
 7904TIP3   OH245202   4.417   5.086  13.425 -0.2534 -0.1068  0.0095
 7904TIP3    H145203   4.379   5.168  13.454 -1.2479 -0.9796  1.2327
 7904TIP3    H245204   4.480   5.111  13.357 -0.3831  1.6637  0.5196
 7905TIP3   OH245205   6.285   3.647  12.470  0.4881 -0.6674  0.0343
 7905TIP3    H145206   6.223   3.719  12.484 -0.7855 -1.6205 -0.7488
 7905TIP3    H245207   6.249   3.597  12.398  1.8852 -1.5572 -0.0586
 7906TIP3   OH245208   2.782   1.236  13.319 -0.4043  0.2907  0.2745
 7906TIP3    H145209   2.842   1.282  13.378  1.0323 -1.5873  0.3268
 7906TIP3    H245210   2.840   1.183  13.264 -1.9504 -0.6203 -0.4792
 7907TIP3   OH245211   3.129   0.625   4.981  0.0656 -0.3662  0.1150
 7907TIP3    H145212   3.150   0.536   5.009  0.6131 -0.4064 -0.4335
 7907TIP3    H245213   3.175   0.681   5.043  0.5102 -0.4624 -0.1260
 7908TIP3   OH245214   5.550   4.650   0.905 -0.0700 -0.2384 -0.3627
 7908TIP3    H145215   5.607   4.603   0.966  1.0519  0.6796 -0.7004
 7908TIP3    H245216   5.570   4.612   0.819 -1.3182 -1.2105 -0.2388
 7909TIP3   OH245217   2.004   1.893  13.497 -0.4279  0.0975  0.2377
 7909TIP3    H145218   2.099   1.900  13.495 -0.4752  0.5693 -3.2244
 7909TIP3    H245219   1.987   1.800  13.483 -0.5193 -0.1251  1.6671
 7910TIP3   OH245220   2.269   4.374  16.372 -0.1591  0.4761 -0.3821
 7910TIP3    H145221   2.212   4.431  16.321 -0.5791 -0.0914 -0.5627
 7910TIP3    H245222   2.355   4.415  16.366 -0.4912  1.1898 -0.3460
 7911TIP3   OH245223   2.509   1.325   0.674  0.5555 -0.1027  0.0368
 7911TIP3    H145224   2.555   1.377   0.740  0.5137  0.7046 -0.5655
 7911TIP3    H245225   2.416   1.337   0.696  0.6032 -2.0767  1.5159
 7912TIP3   OH245226   0.605   4.998  13.117 -0.4465  0.5073  0.7203
 7912TIP3    H145227   0.663   4.923  13.134  2.3644  2.0687 -1.4474
 7912TIP3    H245228   0.620   5.057  13.191 -0.3265  0.2904  0.8703
 7913TIP3   OH245229   5.918   0.152  13.294  0.2216  0.3626  0.4575
 7913TIP3    H145230   5.877   0.084  13.347 -0.9298  0.4658 -0.2919
 7913TIP3    H245231   5.878   0.234  13.324 -1.1807  0.3243 -1.2357
 7914TIP3   OH245232   5.369   4.506  15.802  0.0253 -0.0892  0.1841
 7914TIP3    H145233   5.420   4.530  15.880 -0.3628  0.1127  0.3756
 7914TIP3    H245234   5.335   4.419  15.823  2.8642 -1.6142 -1.2078
 7915TIP3   OH245235   4.750   3.517  11.987  0.5125 -0.4674  0.0396
 7915TIP3    H145236   4.667   3.543  12.028  1.5810  0.6095  1.5302
 7915TIP3    H245237   4.747   3.421  11.987  0.9197 -0.5450  3.6091
 7916TIP3   OH245238   1.658   3.774  15.494  0.2201  0.2228  0.1460
 7916TIP3    H145239   1.593   3.704  15.504  0.7563 -0.3061 -0.0262
 7916TIP3    H245240   1.722   3.756  15.563  1.0818 -0.2599 -0.7731
 7917TIP3   OH245241   2.512   0.942   5.683  0.5844 -0.6048 -0.1458
 7917TIP3    H145242   2.460   0.983   5.752 -1.8909 -1.1799 -1.6206
 7917TIP3    H245243   2.513   1.006   5.612  1.5963 -0.7686 -0.2930
 7918TIP3   OH245244   1.268   4.958  14.217 -0.1188 -0.2961  0.4809
 7918TIP3    H145245   1.359   4.963  14.186 -0.4987  2.9912 -0.2791
 7918TIP3    H245246   1.276   4.961  14.312  0.5226  3.1415  0.4000
 7919TIP3   OH245247   5.197   0.792   5.809 -0.0887 -0.6968  0.5304
 7919TIP3    H145248   5.178   0.885   5.820  1.2749 -0.7060  3.4045
 7919TIP3    H245249   5.290   0.784   5.830 -0.0303 -2.6341 -0.3367
 7920TIP3   OH245250   1.909   5.668  13.673 -0.3650 -0.2100  0.6008
 7920TIP3    H145251   1.848   5.670  13.746 -0.1792 -2.1147  0.8485
 7920TIP3    H245252   1.899   5.580  13.636  0.3588  0.3450 -0.9522
 7921TIP3   OH245253   4.672   6.802  15.887  0.1872 -0.3574  0.5838
 7921TIP3    H145254   4.640   6.796  15.796  1.7534 -1.4502  0.0763
 7921TIP3    H245255   4.767   6.816  15.878  0.0776  1.5290  2.0556
 7922TIP3   OH245256   4.078   1.449  13.305 -0.0254  0.3194 -0.2734
 7922TIP3    H145257   4.074   1.354  13.318  1.8770  0.0414 -1.5011
 7922TIP3    H245258   4.170   1.471  13.320 -0.1544  1.7360 -1.5418
 7923TIP3   OH245259   5.238   6.593  15.633  0.5020  0.1539 -0.4495
 7923TIP3    H145260   5.282   6.663  15.680 -0.1186  0.0811  0.2489
 7923TIP3    H245261   5.153   6.585  15.676 -0.7185  1.1723 -2.5770
 7924TIP3   OH245262   4.097   6.173  13.888 -0.3807 -0.5172 -0.3584
 7924TIP3    H145263   4.136   6.086  13.875 -0.8375 -0.9106  0.8744
 7924TIP3    H245264   4.003   6.159  13.879 -0.6047 -0.5191  1.7649
 7925TIP3   OH245265   2.781   5.186  15.780  0.6121  0.0441  0.5505
 7925TIP3    H145266   2.804   5.119  15.716  1.4508  0.6849  0.1775
 7925TIP3    H245267   2.842   5.172  15.852  0.9770  0.5909  0.3484
 7926TIP3   OH245268   2.964   5.754  16.623 -0.2813  0.0005 -0.6269
 7926TIP3    H145269   2.957   5.841  16.583  0.2514 -0.8467 -2.6594
 7926TIP3    H245270   3.058   5.737  16.625 -0.3566 -0.2974  0.2879
 7927TIP3   OH245271   2.353   6.400   2.780  0.0728 -0.5233 -0.1883
 7927TIP3    H145272   2.279   6.439   2.734 -0.4947 -1.4718 -0.0982
 7927TIP3    H245273   2.318   6.319   2.818 -0.0070  1.1737  3.6141
 7928TIP3   OH245274   3.293   1.327   2.049 -0.1353  0.1700  0.1575
 7928TIP3    H145275   3.331   1.322   1.961 -0.6937 -1.3210 -0.0092
 7928TIP3    H245276   3.294   1.237   2.081  1.3103  0.8723  2.2196
 7929TIP3   OH245277   2.297   6.319  14.234  0.5723 -0.6519  0.1039
 7929TIP3    H145278   2.390   6.333  14.219  0.8822 -0.7660  1.7814
 7929TIP3    H245279   2.292   6.235  14.279 -0.2613 -0.2850  0.7249
 7930TIP3   OH245280   2.331   6.703  11.553  0.0651 -0.6879  0.4526
 7930TIP3    H145281   2.296   6.792  11.545  0.3093 -0.6620 -0.3436
 7930TIP3    H245282   2.364   6.699  11.642  0.8949  0.3224  0.2013
 7931TIP3   OH245283   1.113   4.834  15.168 -0.3866  0.2618 -0.0662
 7931TIP3    H145284   1.078   4.765  15.111  0.3519 -0.9719  0.9332
 7931TIP3    H245285   1.041   4.857  15.226 -1.3640  2.0409 -1.9584
 7932TIP3   OH245286   2.483   5.693  11.199  0.4308 -0.3614  0.0688
 7932TIP3    H145287   2.460   5.644  11.120  0.6091  1.1280 -0.9191
 7932TIP3    H245288   2.578   5.703  11.195  0.3892  0.1082  0.2464
 7933TIP3   OH245289   1.135   5.018  16.600 -0.3332  0.4403 -0.2875
 7933TIP3    H145290   1.075   4.952  16.566 -0.5574  0.3246  0.3325
 7933TIP3    H245291   1.092   5.101  16.581 -1.0855  0.3290  0.9081
 7934TIP3   OH245292   3.204   1.907  11.607  0.2892  0.3424  0.3800
 7934TIP3    H145293   3.233   1.864  11.687  0.3481 -0.8481 -0.2820
 7934TIP3    H245294   3.219   1.843  11.538  0.8796  1.6163 -0.6866
 7935TIP3   OH245295   3.864   1.948  11.885 -0.3545  0.1680 -0.4233
 7935TIP3    H145296   3.775   1.933  11.853 -0.5029 -2.9575  1.2839
 7935TIP3    H245297   3.855   1.952  11.980  1.2184  0.7017 -0.2901
 7936TIP3   OH245298   2.857   5.572   1.086 -0.1242 -0.6035 -0.2339
 7936TIP3    H145299   2.914   5.648   1.074  0.5669 -0.9121  1.0508
 7936TIP3    H245300   2.857   5.528   1.001  0.6665  0.0046 -0.5483
 7937TIP3   OH245301   2.753   6.475   5.293  0.0909 -0.2652  0.4804
 7937TIP3    H145302   2.845   6.479   5.319 -0.0571  1.2614  0.8553
 7937TIP3    H245303   2.754   6.433   5.207  1.2888  1.0882 -0.1871
 7938TIP3   OH245304   3.438   1.597   0.192 -0.2989 -0.2455  0.2598
 7938TIP3    H145305   3.411   1.580   0.102 -2.2393  1.4533  0.5012
 7938TIP3    H245306   3.534   1.591   0.189 -0.2795  0.7273 -2.1104
 7939TIP3   OH245307   6.583   6.782  17.235 -0.4011  0.2970 -0.2840
 7939TIP3    H145308   6.664   6.772  17.185 -0.7439 -0.0773 -0.7692
 7939TIP3    H245309   6.575   6.876  17.250  0.1971  0.3230 -0.1091
 7940TIP3   OH245310   6.644   5.971   5.142  0.2267  0.0490  0.1312
 7940TIP3    H145311   6.554   5.966   5.175  0.2062  0.4939  0.1548
 7940TIP3    H245312   6.696   5.925   5.208  0.0008 -0.3113  0.0577
 7941TIP3   OH245313   6.330   4.439  13.558 -0.5810 -0.1774  0.6777
 7941TIP3    H145314   6.264   4.501  13.529 -0.3247 -0.4633 -0.5549
 7941TIP3    H245315   6.286   4.385  13.624 -1.6151 -0.4627 -0.2416
 7942TIP3   OH245316   0.682   6.468  12.776 -0.1486  0.0342 -0.2537
 7942TIP3    H145317   0.603   6.415  12.764 -2.4518  3.4476 -0.8527
 7942TIP3    H245318   0.737   6.445  12.701 -1.1451 -1.4487 -0.5551
 7943TIP3   OH245319   4.262   0.113   5.604  0.3391 -0.3981  0.6058
 7943TIP3    H145320   4.353   0.083   5.604  0.6258  0.4282  1.4114
 7943TIP3    H245321   4.263   0.194   5.656 -0.6639  0.2123 -0.2904
 7944TIP3   OH245322   2.835   0.841   0.260  0.0920  0.4610  0.3144
 7944TIP3    H145323   2.795   0.787   0.328  1.1154 -1.0120 -0.2311
 7944TIP3    H245324   2.804   0.929   0.278 -0.1757 -0.0223  2.3039
 7945TIP3   OH245325   3.423   2.253  16.271 -0.0116 -0.1816 -0.1095
 7945TIP3    H145326   3.328   2.256  16.262 -0.0304 -1.6242 -0.5253
 7945TIP3    H245327   3.454   2.216  16.189  1.0183  1.4251 -0.4742
 7946TIP3   OH245328   5.769   5.932  15.602  0.3657 -0.2734 -0.3638
 7946TIP3    H145329   5.754   5.874  15.677 -0.8174 -0.4479 -0.7306
 7946TIP3    H245330   5.863   5.951  15.606  0.5274 -1.1660  0.5195
 7947TIP3   OH245331   5.617   6.633   2.412  0.0664 -0.3149  0.1308
 7947TIP3    H145332   5.614   6.615   2.318 -1.5285  0.6641 -0.0221
 7947TIP3    H245333   5.710   6.634   2.434  0.4069 -2.3090 -1.0817
 7948TIP3   OH245334   1.178   6.620   5.058  0.4695 -0.3510 -0.0876
 7948TIP3    H145335   1.268   6.631   5.088  0.2404  0.6829  0.2251
 7948TIP3    H245336   1.136   6.569   5.128  0.6024 -0.1524  0.1356
 7949TIP3   OH245337   1.428   3.034  16.479 -0.8292 -0.0272 -0.0001
 7949TIP3    H145338   1.353   3.044  16.420  0.5891 -1.5931 -2.1201
 7949TIP3    H245339   1.488   3.104  16.454 -0.1099 -0.8547 -0.6179
 7950TIP3   OH245340   0.193   2.699  10.821 -0.1047  0.3484 -0.3846
 7950TIP3    H145341   0.127   2.753  10.779 -0.6373 -0.2230 -0.2920
 7950TIP3    H245342   0.206   2.625  10.761  0.1870  0.2760 -0.2372
 7951TIP3   OH245343   4.544   5.950  13.724 -0.0930  0.0684  0.5942
 7951TIP3    H145344   4.559   5.907  13.639 -0.3915 -0.9943  1.0696
 7951TIP3    H245345   4.536   5.877  13.786 -0.3954  0.8290  1.4468
 7952TIP3   OH245346   0.561   2.244   5.735  0.3512  0.3889 -0.3626
 7952TIP3    H145347   0.533   2.154   5.720 -2.7602  0.8841  2.0194
 7952TIP3    H245348   0.556   2.285   5.649  0.4170 -1.3201 -1.2055
 7953TIP3   OH245349   5.646   0.621   4.846  0.0477  0.0070 -0.2250
 7953TIP3    H145350   5.586   0.690   4.819 -0.7376 -0.4167  0.3973
 7953TIP3    H245351   5.674   0.647   4.934  1.3965  0.6021 -0.8138
 7954TIP3   OH245352   6.283   6.074  12.726  0.1350 -0.2598  0.2248
 7954TIP3    H145353   6.298   6.006  12.661 -0.5407  0.1864 -0.4000
 7954TIP3    H245354   6.368   6.116  12.738  0.3761 -0.6918  0.0311
 7955TIP3   OH245355   3.447   0.257  12.493  0.6774 -1.0803  0.5073
 7955TIP3    H145356   3.504   0.219  12.426 -0.7128 -0.6803 -0.9281
 7955TIP3    H245357   3.361   0.217  12.477  0.6985 -2.2736  3.1272
 7956TIP3   OH245358   6.693   0.803   5.935 -0.0548 -0.0078  0.3677
 7956TIP3    H145359   6.783   0.771   5.929  0.2641  0.7127  1.1189
 7956TIP3    H245360   6.690   0.877   5.873 -0.4684 -0.7656 -0.5293
 7957TIP3   OH245361   1.702   1.309  11.722 -0.3842  0.5854 -1.2224
 7957TIP3    H145362   1.788   1.272  11.698  0.2699  1.1203  0.2698
 7957TIP3    H245363   1.704   1.398  11.689 -0.4614  0.5290 -1.3836
 7958TIP3   OH245364   4.367   5.785  16.969  0.3474  0.2455 -0.0074
 7958TIP3    H145365   4.463   5.780  16.976  0.5480  0.7605 -1.8788
 7958TIP3    H245366   4.353   5.835  16.889 -1.5049  1.3839  1.0206
 7959TIP3   OH245367   2.589   3.316  15.480 -0.1872 -0.0661  0.2598
 7959TIP3    H145368   2.526   3.361  15.424  0.1261  1.2163  0.9269
 7959TIP3    H245369   2.666   3.302  15.425 -0.5804 -0.4926 -0.1787
 7960TIP3   OH245370   5.877   0.058  12.012  0.0766 -0.0720  0.0241
 7960TIP3    H145371   5.959   0.103  12.032  0.1904  0.0263 -0.6445
 7960TIP3    H245372   5.885   0.034  11.919 -1.8379  2.4763 -0.8438
 7961TIP3   OH245373   4.471   2.377   0.136  0.2965  0.3326 -0.3180
 7961TIP3    H145374   4.380   2.408   0.132 -0.3012 -1.4453 -0.6731
 7961TIP3    H245375   4.504   2.391   0.047  0.1548  0.3243 -0.3730
 7962TIP3   OH245376   5.547   0.304  17.196 -0.5087  0.6252  0.0879
 7962TIP3    H145377   5.507   0.250  17.265  0.2896 -0.0216  0.0630
 7962TIP3    H245378   5.587   0.377  17.243  2.0266 -1.0095  0.6055
 7963TIP3   OH245379   0.412   2.699  17.060 -0.0982  0.1640 -0.2965
 7963TIP3    H145380   0.406   2.764  16.989 -3.9809 -0.5757 -0.7238
 7963TIP3    H245381   0.420   2.752  17.139  0.2090  1.0945 -0.9374
 7964TIP3   OH245382   6.785   5.331   3.705 -0.2115  0.8944  0.0643
 7964TIP3    H145383   6.856   5.269   3.690 -0.0496  1.0738  0.0886
 7964TIP3    H245384   6.775   5.377   3.622 -1.6116 -0.4815 -0.5611
 7965TIP3   OH245385   0.219   5.304   3.403 -0.4228 -0.1630  0.4596
 7965TIP3    H145386   0.305   5.337   3.377  0.4699 -2.6154  0.1763
 7965TIP3    H245387   0.227   5.288   3.497 -0.5739 -0.3300  0.4450
 7966TIP3   OH245388   2.162   4.310  10.430 -0.3165 -0.0473  0.6268
 7966TIP3    H145389   2.188   4.264  10.350 -2.7230  0.7754 -0.6711
 7966TIP3    H245390   2.220   4.387  10.434  0.2601 -0.4504  0.0625
 7967TIP3   OH245391   2.169   6.789   2.163 -0.5708 -0.0922  0.0808
 7967TIP3    H145392   2.179   6.865   2.220 -1.5994 -0.7809  1.1941
 7967TIP3    H245393   2.225   6.808   2.088 -0.8190  1.7518  0.3535
 7968TIP3   OH245394   3.932   5.194  10.918 -0.6920  0.7682  0.1153
 7968TIP3    H145395   3.912   5.103  10.894 -0.1248  0.7500 -0.2904
 7968TIP3    H245396   3.868   5.246  10.868 -0.0222  0.6829 -0.8407
 7969TIP3   OH245397   2.270   0.042   0.505  0.5663  0.2190 -0.4742
 7969TIP3    H145398   2.259  -0.039   0.554  0.8673 -1.2201 -2.7210
 7969TIP3    H245399   2.314   0.016   0.424 -0.2437  2.4762 -1.6994
 7970TIP3   OH245400   4.544   3.789  11.705  0.2889  0.4295  0.1003
 7970TIP3    H145401   4.467   3.777  11.760 -0.7688  0.9664 -1.2486
 7970TIP3    H245402   4.568   3.701  11.678 -1.4981  0.4700 -1.6898
 7971TIP3   OH245403   0.257   0.244  15.629  0.1590  0.5881  0.0978
 7971TIP3    H145404   0.245   0.246  15.723 -1.2885  0.2091 -0.0702
 7971TIP3    H245405   0.169   0.241  15.593  0.7080  0.0863 -1.2518
 7972TIP3   OH245406   1.351   6.579  16.460  0.3201 -0.1884 -0.3884
 7972TIP3    H145407   1.259   6.562  16.442  0.1882  0.6539 -0.5210
 7972TIP3    H245408   1.390   6.596  16.374  0.3754  0.5373 -0.2215
 7973TIP3   OH245409   1.750   2.432  13.480  0.0196 -0.3755  0.3344
 7973TIP3    H145410   1.818   2.442  13.413  0.5512 -2.6051  0.5116
 7973TIP3    H245411   1.798   2.417  13.561 -0.6276  2.3030  1.2681
 7974TIP3   OH245412   2.066   3.771  13.698  0.5221 -0.3334 -0.2294
 7974TIP3    H145413   2.060   3.681  13.731 -0.3687  0.3759  1.6041
 7974TIP3    H245414   2.004   3.821  13.752  1.7518  1.5748 -0.5379
 7975TIP3   OH245415   2.595   0.708   2.808 -0.2510 -0.3347 -1.0427
 7975TIP3    H145416   2.589   0.690   2.715  0.1845 -1.4930 -0.8483
 7975TIP3    H245417   2.689   0.717   2.825 -0.2123 -1.8436 -0.3989
 7976TIP3   OH245418   6.682   1.909  13.013 -0.0682  0.0050  0.1109
 7976TIP3    H145419   6.676   1.979  12.948 -1.2913 -0.2792 -0.0966
 7976TIP3    H245420   6.648   1.832  12.968  1.9167 -0.8971  0.1183
 7977TIP3   OH245421   5.959   3.601   4.452  0.0059  0.4959  0.0254
 7977TIP3    H145422   5.996   3.686   4.428  0.3562  0.4729  0.4598
 7977TIP3    H245423   5.869   3.604   4.421  0.2765  0.6923 -0.7427
 7978TIP3   OH245424   5.058   4.802  17.117  0.9531  0.2701  0.0895
 7978TIP3    H145425   5.011   4.870  17.167 -0.3577  0.6072 -1.5748
 7978TIP3    H245426   5.038   4.822  17.026  0.3836 -2.4845 -0.4222
 7979TIP3   OH245427   6.731   0.139  15.810 -0.1566  0.0398  0.2579
 7979TIP3    H145428   6.759   0.122  15.720 -0.2463  0.6472  0.1127
 7979TIP3    H245429   6.783   0.080  15.864  0.5405  0.3123 -0.1157
 7980TIP3   OH245430   5.735   4.285  13.130  0.2124 -0.2082  0.4718
 7980TIP3    H145431   5.815   4.286  13.077 -1.1677 -0.3214 -1.6864
 7980TIP3    H245432   5.683   4.215  13.093 -1.0771  0.1348  1.6008
 7981TIP3   OH245433   3.200   3.854  11.002 -0.2426  0.1481 -0.7273
 7981TIP3    H145434   3.259   3.872  11.076 -0.6788 -0.6250 -0.1829
 7981TIP3    H245435   3.189   3.939  10.959 -0.5972  0.7607  0.5497
 7982TIP3   OH245436   5.027   4.319   3.918  0.3034 -0.5788  0.0412
 7982TIP3    H145437   4.992   4.359   3.998  2.2061  0.7695  0.2305
 7982TIP3    H245438   4.949   4.291   3.869 -0.9676  1.0955  1.0594
 7983TIP3   OH245439   2.485   1.634   4.354 -0.3147  0.4124  0.0098
 7983TIP3    H145440   2.542   1.708   4.335  0.1734 -0.0436 -0.3327
 7983TIP3    H245441   2.534   1.558   4.324 -0.6636 -0.0828  0.6684
 7984TIP3   OH245442   5.478   3.557   2.984 -0.3037  0.3588  0.0902
 7984TIP3    H145443   5.568   3.584   3.003 -0.4407  0.4194  0.6510
 7984TIP3    H245444   5.471   3.561   2.888  1.4265 -3.1950 -0.2858
 7985TIP3   OH245445   1.804   4.368  10.447 -0.1633 -0.1876  0.4234
 7985TIP3    H145446   1.747   4.407  10.513  0.3006 -0.5681  1.0619
 7985TIP3    H245447   1.872   4.434  10.432 -1.4367  0.7731 -1.2402
 7986TIP3   OH245448   4.229   3.815  13.525  0.0186  0.0194  0.6417
 7986TIP3    H145449   4.272   3.752  13.583  1.4501 -0.5628 -1.0161
 7986TIP3    H245450   4.137   3.792  13.528  0.2757 -0.9021  1.5917
 7987TIP3   OH245451   3.259   1.681  14.535  0.1237 -0.0574 -0.6701
 7987TIP3    H145452   3.239   1.761  14.485 -0.9665  0.1834  0.1244
 7987TIP3    H245453   3.303   1.624  14.473 -0.5776  0.5228 -1.7139
 7988TIP3   OH245454   2.796   3.106   2.458  0.1457  0.2110 -0.0618
 7988TIP3    H145455   2.881   3.062   2.463  0.5059  0.8647 -0.3851
 7988TIP3    H245456   2.816   3.197   2.479 -0.6513  0.1609  0.9779
 7989TIP3   OH245457   5.988   0.228  16.823  0.0988  0.4729 -0.9213
 7989TIP3    H145458   6.028   0.313  16.807  0.6270  0.3701 -0.1823
 7989TIP3    H245459   6.055   0.165  16.795 -1.0555  0.2915 -3.3341
 7990TIP3   OH245460   2.020   2.108   5.391 -0.3655  0.3823  0.1049
 7990TIP3    H145461   2.090   2.173   5.401  0.1603 -0.2064  0.3122
 7990TIP3    H245462   1.997   2.110   5.298  0.8736 -0.3869 -0.2250
 7991TIP3   OH245463   2.946   4.809  10.270  0.4675  0.3080 -0.0698
 7991TIP3    H145464   2.875   4.871  10.288  0.4719  0.6537 -1.2295
 7991TIP3    H245465   2.966   4.770  10.356 -0.9966  0.3245  0.2860
 7992TIP3   OH245466   1.074   6.283   2.731  0.0062 -0.1261  0.3834
 7992TIP3    H145467   1.041   6.270   2.820  2.3758 -0.7880  1.1909
 7992TIP3    H245468   1.112   6.371   2.732 -1.4972  0.5499 -0.4851
 7993TIP3   OH245469   3.962   5.525  13.286  0.5992  0.2696  0.6773
 7993TIP3    H145470   3.893   5.483  13.338  1.1145 -1.7963 -0.2192
 7993TIP3    H245471   3.921   5.539  13.200  0.7805  0.5827  0.6436
 7994TIP3   OH245472   5.794   4.319   6.708  0.1458 -0.2604 -0.4107
 7994TIP3    H145473   5.700   4.301   6.713  0.2141  0.0148  3.0636
 7994TIP3    H245474   5.833   4.233   6.693 -0.5360 -0.7516  0.5291
 7995TIP3   OH245475   3.425   2.257  13.354  0.0852 -0.1964 -0.0413
 7995TIP3    H145476   3.476   2.272  13.275  1.8988 -0.7476  0.9860
 7995TIP3    H245477   3.373   2.180  13.336 -0.7899  0.6769 -1.2965
 7996TIP3   OH245478   6.403   2.714   2.001  0.4102  0.7333  0.1230
 7996TIP3    H145479   6.486   2.752   2.028 -0.3311  1.9753  0.7333
 7996TIP3    H245480   6.401   2.628   2.042  2.0342  0.0938 -1.1219
 7997TIP3   OH245481   2.882   0.346   4.913  0.8098  0.3295 -0.6170
 7997TIP3    H145482   2.940   0.406   4.959  1.9498 -0.4514 -1.0086
 7997TIP3    H245483   2.940   0.297   4.854 -0.3462  0.0206 -1.5244
 7998TIP3   OH245484   0.088   5.954  16.262 -0.0278 -0.2325 -0.0141
 7998TIP3    H145485   0.093   5.859  16.267  0.8604 -0.1733  0.2915
 7998TIP3    H245486   0.112   5.984  16.350 -1.8069  0.2220  0.3355
 7999TIP3   OH245487   1.292   1.133  10.860 -0.1029 -0.4111  0.1155
 7999TIP3    H145488   1.284   1.038  10.855 -2.8638 -0.1643 -0.7206
 7999TIP3    H245489   1.257   1.155  10.947 -1.8365  0.0600 -0.6966
 8000TIP3   OH245490   2.122   1.492  14.264  0.1869 -0.0101 -0.3122
 8000TIP3    H145491   2.157   1.408  14.234  0.7158  0.4673 -1.0310
 8000TIP3    H245492   2.124   1.548  14.187  0.9091  1.0149  0.4396
 8001TIP3   OH245493   2.396   0.892  11.317  0.2259 -0.3365 -0.2034
 8001TIP3    H145494   2.456   0.908  11.390  0.6980  1.3641 -0.9418
 8001TIP3    H245495   2.427   0.811  11.278  0.8456 -0.5084  0.6249
 8002TIP3   OH245496   5.741   2.867   5.986  0.7350  0.0288 -0.3872
 8002TIP3    H145497   5.810   2.806   6.011 -0.4596 -1.6037 -0.9984
 8002TIP3    H245498   5.759   2.887   5.894  0.0811 -0.8633 -0.7209
 8003TIP3   OH245499   5.680   1.627   2.515  0.3163  0.2795  0.7941
 8003TIP3    H145500   5.651   1.718   2.508  1.6870  0.7172  0.7671
 8003TIP3    H245501   5.680   1.608   2.608 -1.3528 -0.1548  0.7224
 8004TIP3   OH245502   1.188   2.043   0.997 -0.1992 -0.2545  0.3851
 8004TIP3    H145503   1.245   2.117   0.976 -2.6781  1.1578 -1.6448
 8004TIP3    H245504   1.229   1.968   0.953  0.3378  0.6492 -0.6760
 8005TIP3   OH245505   6.357   5.109   5.211 -0.2303 -0.4341 -0.0942
 8005TIP3    H145506   6.312   5.183   5.252  0.7159  0.3503 -0.4462
 8005TIP3    H245507   6.419   5.150   5.151  0.6887 -1.5148  0.1177
 8006TIP3   OH245508   1.146   3.248  15.756 -0.3604 -0.6774  0.0620
 8006TIP3    H145509   1.170   3.156  15.756 -0.7086 -0.7721  1.0909
 8006TIP3    H245510   1.152   3.275  15.847  1.8146  0.8745 -0.4888
 8007TIP3   OH245511   1.887   0.107   6.239  0.0499 -0.4674  0.2469
 8007TIP3    H145512   1.867   0.017   6.266 -0.6531 -0.2566  0.4320
 8007TIP3    H245513   1.971   0.127   6.281  1.3069 -1.7965 -1.5294
 8008TIP3   OH245514   1.324   5.441  16.267 -0.0417  0.0052 -0.4103
 8008TIP3    H145515   1.408   5.467  16.303 -0.2443  0.1289 -0.0248
 8008TIP3    H245516   1.335   5.449  16.172  0.5210 -0.4199 -0.3787
 8009TIP3   OH245517   4.344   5.874   2.942 -0.1085  0.0287  0.1958
 8009TIP3    H145518   4.338   5.876   2.847 -1.7917  0.3818  0.2964
 8009TIP3    H245519   4.323   5.963   2.970 -0.2694 -0.2334  0.9326
 8010TIP3   OH245520   6.505   1.578  11.367  0.1045 -0.3758  0.1988
 8010TIP3    H145521   6.569   1.629  11.317 -0.3828  0.2730  0.2328
 8010TIP3    H245522   6.557   1.539  11.438  0.1237  1.7882  1.4186
 8011TIP3   OH245523   2.945   4.026   5.185 -0.1150  0.3551 -0.0794
 8011TIP3    H145524   2.867   3.998   5.232  0.0843 -1.3523 -0.7311
 8011TIP3    H245525   3.011   3.960   5.207  0.3942  0.3476 -1.5712
 8012TIP3   OH245526   0.257   2.627   5.907  0.1901 -0.6965 -0.6942
 8012TIP3    H145527   0.237   2.591   5.821 -0.9031  0.1267 -0.8103
 8012TIP3    H245528   0.225   2.718   5.903  0.6154 -0.4857  0.3925
 8013TIP3   OH245529   1.993   1.482   6.903 -0.0831  0.3492 -0.2460
 8013TIP3    H145530   1.899   1.467   6.890 -0.0795  1.0726 -1.1501
 8013TIP3    H245531   2.034   1.398   6.883 -0.7055 -0.5564  2.1748
 8014TIP3   OH245532   1.002   4.988  11.956  0.0016  0.1826  0.2328
 8014TIP3    H145533   0.957   5.047  11.894 -1.3851  0.6941  1.6950
 8014TIP3    H245534   1.041   5.047  12.020  2.7805 -0.2602 -0.9827
 8015TIP3   OH245535   3.134   0.485  13.603 -0.1940 -0.5203 -0.7212
 8015TIP3    H145536   3.171   0.445  13.525  0.6431  0.9836 -1.1185
 8015TIP3    H245537   3.165   0.431  13.676  0.3398 -0.9865 -1.2984
 8016TIP3   OH245538   3.886   4.518   1.340  0.3775  0.4443 -0.1234
 8016TIP3    H145539   3.841   4.587   1.388 -1.7323 -1.3366  0.5283
 8016TIP3    H245540   3.924   4.562   1.264  0.9091  2.6868  1.4078
 8017TIP3   OH245541   4.727   3.001  12.072 -0.0833 -0.2739  0.9526
 8017TIP3    H145542   4.791   2.944  12.113  0.1601 -0.9403 -0.3053
 8017TIP3    H245543   4.682   2.944  12.009  1.5324  1.3385 -1.7828
 8018TIP3   OH245544   6.088   6.793  12.393 -0.6469 -0.1830  0.2567
 8018TIP3    H145545   6.093   6.889  12.397 -0.0403 -0.1601 -0.8161
 8018TIP3    H245546   6.178   6.765  12.375 -0.7793 -0.9728  0.8004
 8019TIP3   OH245547   1.466   1.887   6.282  0.2666 -0.3453 -0.2632
 8019TIP3    H145548   1.528   1.952   6.250 -0.8544  0.6625 -0.4729
 8019TIP3    H245549   1.434   1.924   6.365 -0.5012 -0.5364 -0.4663
 8020TIP3   OH245550   1.477   0.418   5.107 -0.5850  0.1857 -0.0716
 8020TIP3    H145551   1.476   0.476   5.031  0.1794  0.4085  0.0901
 8020TIP3    H245552   1.451   0.333   5.072 -1.1772  0.4936 -0.4061
 8021TIP3   OH245553   0.363   1.071  15.790  0.0031  0.0242  0.1850
 8021TIP3    H145554   0.336   1.081  15.698 -0.2236 -0.8089  0.1564
 8021TIP3    H245555   0.419   0.993  15.790  0.7817  0.5796  0.5962
 8022TIP3   OH245556   4.394   0.510  15.796  0.0002 -0.4878  0.1232
 8022TIP3    H145557   4.413   0.599  15.765 -1.1760 -0.0444  0.6312
 8022TIP3    H245558   4.342   0.471  15.725 -0.7461 -0.2581  0.5437
 8023TIP3   OH245559   5.940   6.231   5.918 -0.3559  0.1170 -0.3042
 8023TIP3    H145560   5.887   6.308   5.938 -0.7059 -0.1197 -0.3147
 8023TIP3    H245561   5.881   6.157   5.930  0.0301 -0.1639 -0.1155
 8024TIP3   OH245562   6.120   3.890   1.371  0.0074  0.2584  0.4231
 8024TIP3    H145563   6.105   3.912   1.279  0.2394 -2.5755 -0.3635
 8024TIP3    H245564   6.046   3.833   1.394  0.9900 -0.6509  1.3775
 8025TIP3   OH245565   3.201   3.455   2.346 -0.2754 -0.0722 -0.0198
 8025TIP3    H145566   3.238   3.409   2.270 -0.1408 -2.3734  1.3945
 8025TIP3    H245567   3.194   3.546   2.317  0.1519 -0.8126 -2.6539
 8026TIP3   OH245568   5.761   2.510  13.284 -0.0875 -0.3947 -0.7278
 8026TIP3    H145569   5.722   2.549  13.362 -0.8615  0.0347 -1.3259
 8026TIP3    H245570   5.825   2.575  13.253 -1.3260  0.3936 -1.6838
 8027TIP3   OH245571   5.973   4.708  14.603 -0.0692  0.4966  0.6296
 8027TIP3    H145572   5.948   4.657  14.680  1.0976  0.9574  1.3223
 8027TIP3    H245573   5.890   4.739  14.567 -0.6377  0.0796  1.5667
 8028TIP3   OH245574   4.491   1.021   5.608 -0.3347  0.4672  0.1389
 8028TIP3    H145575   4.465   0.963   5.680 -0.5883  1.7713  1.1158
 8028TIP3    H245576   4.441   0.990   5.532 -2.2576  0.8758  1.2168
 8029TIP3   OH245577   3.793   2.377   5.663  0.1559  0.2440 -0.1443
 8029TIP3    H145578   3.856   2.446   5.682 -0.0332  0.6187 -0.8713
 8029TIP3    H245579   3.834   2.326   5.592  0.7573 -1.0129  1.0745
 8030TIP3   OH245580   6.777   6.228  16.379 -0.4723  0.2886 -0.3063
 8030TIP3    H145581   6.729   6.307  16.356  0.7002  1.1888  0.2230
 8030TIP3    H245582   6.802   6.189  16.296 -2.0079 -0.1290 -0.5728
 8031TIP3   OH245583   3.717   3.294   4.841  0.0296 -0.1246  0.1894
 8031TIP3    H145584   3.793   3.340   4.805  0.0761 -0.3979 -0.0588
 8031TIP3    H245585   3.644   3.322   4.785 -0.2573  1.0009  1.0978
 8032TIP3   OH245586   2.564   3.117   0.130 -0.3360 -0.9400 -0.5141
 8032TIP3    H145587   2.478   3.078   0.109 -0.4411 -0.6094 -0.6943
 8032TIP3    H245588   2.614   3.110   0.049 -0.0588 -1.4914 -0.2934
 8033TIP3   OH245589   2.253   2.535  14.154 -0.0196 -0.4964 -0.1873
 8033TIP3    H145590   2.172   2.561  14.197 -0.4377  0.1337 -1.3275
 8033TIP3    H245591   2.308   2.613  14.157  0.2737 -0.7030 -0.0741
 8034TIP3   OH245592   4.311   6.274   1.540  0.3549  0.0942  0.2694
 8034TIP3    H145593   4.281   6.354   1.498 -1.1253 -0.1239  0.8623
 8034TIP3    H245594   4.289   6.285   1.633  2.1199 -0.0976  0.7325
 8035TIP3   OH245595   6.369   5.963   0.351  0.0095  0.2867 -0.2547
 8035TIP3    H145596   6.430   5.908   0.301  0.5042  1.1857 -0.6477
 8035TIP3    H245597   6.346   5.910   0.427 -0.8740 -1.1743 -1.5099
 8036TIP3   OH245598   4.979   5.636   0.121 -0.1491 -0.5729  0.0086
 8036TIP3    H145599   4.976   5.729   0.144 -0.8517 -0.3201 -1.1028
 8036TIP3    H245600   4.904   5.597   0.167  0.9838 -0.8843  1.6697
 8037TIP3   OH245601   0.761   1.178  16.656 -0.2128 -0.2532  0.0155
 8037TIP3    H145602   0.757   1.120  16.732 -1.0261  0.6319  0.6593
 8037TIP3    H245603   0.731   1.262  16.688 -1.1578 -0.0171 -1.4291
 8038TIP3   OH245604   0.497   6.150  14.641  0.1015  0.0678  0.2427
 8038TIP3    H145605   0.409   6.118  14.624 -1.0994  1.4594  3.5284
 8038TIP3    H245606   0.519   6.200  14.562 -2.6956  1.0508  0.0163
 8039TIP3   OH245607   4.440   4.232   5.412 -0.4746 -0.0661 -0.1209
 8039TIP3    H145608   4.516   4.285   5.435 -1.5838  1.4715  0.1137
 8039TIP3    H245609   4.376   4.295   5.377 -1.8375 -1.2429  0.1855
 8040TIP3   OH245610   2.038   6.399   1.341  0.1544  0.2364 -0.3461
 8040TIP3    H145611   2.108   6.356   1.291  0.1254  1.7846 -1.7652
 8040TIP3    H245612   2.076   6.484   1.367 -1.3136  1.2667 -1.4916
 8041TIP3   OH245613   3.676   0.221  13.943 -0.3298  0.3167  0.4218
 8041TIP3    H145614   3.668   0.160  14.016 -0.2115 -2.6036 -1.9247
 8041TIP3    H245615   3.762   0.203  13.906 -0.1025  2.2591 -0.0407
 8042TIP3   OH245616   5.073   1.419   1.979 -0.4062 -0.0025 -0.4437
 8042TIP3    H145617   5.054   1.330   1.949  0.6520 -0.0798 -0.9157
 8042TIP3    H245618   5.066   1.472   1.900 -3.0990  0.6733  0.2199
 8043TIP3   OH245619   6.198   5.004   4.796  0.4190 -0.3812  0.1948
 8043TIP3    H145620   6.105   5.003   4.773  0.5649 -2.8529 -0.4486
 8043TIP3    H245621   6.240   5.054   4.726 -0.4822  1.2647  0.8094
 8044TIP3   OH245622   2.954   4.087   5.694 -0.2539 -0.4017  0.1888
 8044TIP3    H145623   2.975   4.114   5.783 -1.8215  0.1386  0.3882
 8044TIP3    H245624   2.888   4.019   5.704 -0.6004 -0.1833 -0.5798
 8045TIP3   OH245625   4.472   6.674  11.518  0.3625  0.2768 -0.5764
 8045TIP3    H145626   4.466   6.764  11.550 -1.1674  0.1905 -0.5586
 8045TIP3    H245627   4.410   6.670  11.445  0.6630 -0.6629 -0.7876
 8046TIP3   OH245628   1.054   4.877  15.494 -0.2596  0.3961 -0.5270
 8046TIP3    H145629   1.128   4.904  15.547 -0.4999  1.3961 -0.6894
 8046TIP3    H245630   1.010   4.959  15.471 -0.5787 -0.0750 -1.6355
 8047TIP3   OH245631   3.195   1.637  14.788 -0.1162 -0.2494 -0.3930
 8047TIP3    H145632   3.244   1.690  14.851  1.5773 -2.9943  0.6834
 8047TIP3    H245633   3.224   1.668  14.702  0.7788  0.6117  0.2217
 8048TIP3   OH245634   5.552   2.180   3.056  0.0395 -0.3192 -0.4402
 8048TIP3    H145635   5.480   2.126   3.089  0.2614 -0.9195 -0.9392
 8048TIP3    H245636   5.622   2.118   3.035  0.3015  0.1575 -0.9981
 8049TIP3   OH245637   4.344   5.486  16.895  0.3279  0.2192  0.2195
 8049TIP3    H145638   4.311   5.546  16.962  0.2802  0.2706  0.1512
 8049TIP3    H245639   4.298   5.404  16.911  0.1587  0.2937  0.1183
 8050TIP3   OH245640   4.935   1.293   3.703 -0.4860 -0.3030 -0.2916
 8050TIP3    H145641   4.916   1.230   3.633 -0.3119  1.1658 -1.6951
 8050TIP3    H245642   4.998   1.354   3.664 -1.2607  1.2120  0.7759
 8051TIP3   OH245643   0.979   4.492   0.404  0.3832 -0.4056 -0.1777
 8051TIP3    H145644   0.933   4.436   0.341 -0.0311  0.6607 -0.8396
 8051TIP3    H245645   0.910   4.534   0.454  0.7021 -0.7475  0.5567
 8052TIP3   OH245646   5.079   6.329  12.976 -0.3402 -0.2960  0.5732
 8052TIP3    H145647   5.120   6.291  12.898 -2.6392 -3.2602  0.7648
 8052TIP3    H245648   5.038   6.409  12.944  0.8566 -0.1758 -0.7358
 8053TIP3   OH245649   1.930   4.587  13.775  0.0282 -0.0835 -0.2266
 8053TIP3    H145650   1.961   4.565  13.687  0.9774  0.4155 -0.0271
 8053TIP3    H245651   1.907   4.504  13.815  0.6131 -0.4080 -0.5684
 8054TIP3   OH245652   4.707   2.104  14.569  0.0297 -0.3619  0.1823
 8054TIP3    H145653   4.663   2.094  14.485  0.8206 -1.3944 -0.1209
 8054TIP3    H245654   4.780   2.164  14.552 -0.5740  0.4680  0.4389
 8055TIP3   OH245655   2.172   0.338  17.072 -0.0433  0.0505 -0.2317
 8055TIP3    H145656   2.085   0.377  17.078 -1.1482 -2.0525 -1.6641
 8055TIP3    H245657   2.163   0.252  17.113  1.1647 -0.4497 -0.9622
 8056TIP3   OH245658   3.504   3.312   1.263  0.3487  0.3142  0.2568
 8056TIP3    H145659   3.463   3.391   1.227 -4.1390 -2.0095 -0.1073
 8056TIP3    H245660   3.513   3.330   1.356 -0.7304  1.2243  0.1963
 8057TIP3   OH245661   2.725   5.693  14.959  0.1746 -0.0781 -0.0340
 8057TIP3    H145662   2.743   5.759  14.893 -2.3604  1.4653  0.7432
 8057TIP3    H245663   2.696   5.617  14.909  1.4010 -0.0232 -0.8510
 8058TIP3   OH245664   0.650   4.652   1.309 -0.3734 -0.1579  0.2155
 8058TIP3    H145665   0.700   4.696   1.241 -1.8362  1.0979 -0.0740
 8058TIP3    H245666   0.601   4.721   1.352 -1.8466 -1.3358  0.4929
 8059TIP3   OH245667   3.530   6.031   0.697 -0.2834 -0.2329 -0.7847
 8059TIP3    H145668   3.517   5.980   0.617  0.7984 -1.6441 -0.0893
 8059TIP3    H245669   3.581   5.973   0.754  3.4098  2.6007 -1.0156
 8060TIP3   OH245670   1.160   1.951   0.513 -0.2294 -0.3440 -0.2040
 8060TIP3    H145671   1.194   1.878   0.566 -0.8801 -1.4386 -1.2797
 8060TIP3    H245672   1.168   1.920   0.423 -2.3087  0.1497 -0.5669
 8061TIP3   OH245673   2.066   3.927   1.828 -0.4822 -0.4634  0.7883
 8061TIP3    H145674   2.057   3.833   1.846 -0.2076 -1.3030 -2.9826
 8061TIP3    H245675   1.976   3.958   1.818 -0.5407 -0.5633  1.0137
 8062TIP3   OH245676   6.120   4.733  16.387 -0.1720 -0.0615 -0.4742
 8062TIP3    H145677   6.171   4.677  16.328 -0.9936  0.7459 -1.9809
 8062TIP3    H245678   6.131   4.821  16.352 -1.0959  0.3567  0.2692
 8063TIP3   OH245679   1.766   5.364  16.886 -0.1125  0.0572 -0.3541
 8063TIP3    H145680   1.839   5.416  16.920 -0.7393  2.4769 -2.5061
 8063TIP3    H245681   1.793   5.338  16.798 -0.9108 -0.9649 -0.3069
 8064TIP3   OH245682   5.085   6.051  10.673  0.2177  0.1322 -0.2263
 8064TIP3    H145683   5.052   5.977  10.622  0.1621 -1.2556  1.7667
 8064TIP3    H245684   5.006   6.099  10.699  0.1434  0.0165 -0.2373
 8065TIP3   OH245685   6.075   6.704  11.879 -0.0101 -0.4967  0.4853
 8065TIP3    H145686   6.061   6.725  11.971 -1.0190 -1.6122  0.5935
 8065TIP3    H245687   6.099   6.611  11.879 -3.1497 -1.3592 -0.6332
 8066TIP3   OH245688   4.828   5.855   4.509  0.3081  0.0562 -0.5068
 8066TIP3    H145689   4.736   5.830   4.502  0.2946  0.3838 -1.5670
 8066TIP3    H245690   4.875   5.772   4.514 -0.3053 -0.1152  3.9788
 8067TIP3   OH245691   2.563   3.187   1.234  0.4318  0.2219  0.1280
 8067TIP3    H145692   2.587   3.267   1.186 -1.0170 -1.2355 -3.1567
 8067TIP3    H245693   2.477   3.205   1.270 -0.1846 -0.0647 -1.1767
 8068TIP3   OH245694   5.274   5.601  12.650 -0.1296  0.6579 -0.7870
 8068TIP3    H145695   5.180   5.584  12.643  0.0910 -0.3850 -1.4377
 8068TIP3    H245696   5.299   5.637  12.565  0.8381 -3.2146 -2.2716
 8069TIP3   OH245697   3.959   0.691  12.704  0.0395  0.5351  0.6829
 8069TIP3    H145698   3.912   0.658  12.627 -0.9757  2.0650  0.6314
 8069TIP3    H245699   4.050   0.698  12.675 -0.0944 -0.2340  0.0610
 8070TIP3   OH245700   5.914   0.560   5.300  0.0196 -0.3652 -0.1861
 8070TIP3    H145701   5.856   0.632   5.325 -0.8903  0.3653 -4.0389
 8070TIP3    H245702   5.863   0.481   5.322 -1.6267  0.2555 -1.6363
 8071TIP3   OH245703   4.601   2.208   3.005 -0.7403 -0.2876  0.2435
 8071TIP3    H145704   4.587   2.302   3.005 -1.7304 -0.4269  0.0025
 8071TIP3    H245705   4.688   2.196   3.044 -1.7817  0.5501  2.8715
 8072TIP3   OH245706   5.893   1.310  17.024  0.9615  0.2728  0.4730
 8072TIP3    H145707   5.936   1.265  17.097  0.2839  0.4211  0.9691
 8072TIP3    H245708   5.899   1.403  17.046  0.9342  0.3326  0.2336
 8073TIP3   OH245709   3.138   0.867   0.465  0.1430  0.1853 -0.0089
 8073TIP3    H145710   3.155   0.959   0.488  1.0188 -0.3000  1.3614
 8073TIP3    H245711   3.131   0.822   0.549  1.2489 -1.2729 -0.6748
 8074TIP3   OH245712   6.392   4.791   4.748  0.2039 -0.0688  0.2130
 8074TIP3    H145713   6.455   4.743   4.802  1.5018  0.8578 -0.4325
 8074TIP3    H245714   6.391   4.879   4.785 -1.5595 -0.3660  0.8983
 8075TIP3   OH245715   0.160   2.047  14.152  0.3643 -0.5460 -0.0292
 8075TIP3    H145716   0.115   2.075  14.232  1.7406  0.3353  0.4441
 8075TIP3    H245717   0.199   2.127  14.118 -0.8600 -0.7585 -2.0269
 8076TIP3   OH245718   0.750   4.837   3.920  0.1411 -0.2494 -0.3018
 8076TIP3    H145719   0.724   4.753   3.884  1.5078 -0.5808 -0.5092
 8076TIP3    H245720   0.744   4.826   4.015 -1.6542  0.0621 -0.3504
 8077TIP3   OH245721   5.022   1.731  14.634  0.1121  0.1429  0.2709
 8077TIP3    H145722   4.971   1.784  14.572  0.0663 -1.3366 -0.9765
 8077TIP3    H245723   5.113   1.739  14.604  0.3320  0.8919  1.1086
 8078TIP3   OH245724   1.982   5.130  14.373  0.3329  0.2403  0.1979
 8078TIP3    H145725   2.032   5.211  14.382  0.1017  0.0805  3.1796
 8078TIP3    H245726   1.921   5.148  14.301  1.6414  1.9865 -0.5129
 8079TIP3   OH245727   4.640   2.452   0.348 -0.2039 -0.1564 -0.4517
 8079TIP3    H145728   4.615   2.431   0.258  0.5524  1.5719 -1.0911
 8079TIP3    H245729   4.733   2.476   0.342 -0.0105 -0.5704  0.8727
 8080TIP3   OH245730   2.673   3.613  14.288 -0.4245  0.7213 -0.0095
 8080TIP3    H145731   2.719   3.532  14.309 -2.7589 -0.7072 -0.2981
 8080TIP3    H245732   2.702   3.635  14.199  1.0042  0.8057  0.4563
 8081TIP3   OH245733   5.049   0.706   2.562 -0.0391 -0.4173 -0.5071
 8081TIP3    H145734   5.004   0.789   2.550  1.2148  0.5160  1.1936
 8081TIP3    H245735   5.089   0.688   2.476 -0.2621  0.7469 -0.8582
 8082TIP3   OH245736   4.561   5.349  11.292 -0.0944  0.0219  0.0307
 8082TIP3    H145737   4.513   5.335  11.210  1.0560  1.8275 -0.9815
 8082TIP3    H245738   4.503   5.404  11.345  0.0250  0.5765 -0.4076
 8083TIP3   OH245739   5.124   6.003   1.363 -0.5154 -0.7629 -0.0759
 8083TIP3    H145740   5.185   6.073   1.341 -1.9357 -0.4090 -3.1755
 8083TIP3    H245741   5.141   5.935   1.297 -1.8036 -1.6872  0.5218
 8084TIP3   OH245742   5.786   4.654   1.722 -1.0239 -0.4507  0.0893
 8084TIP3    H145743   5.740   4.637   1.804 -1.5642  1.6055  0.2436
 8084TIP3    H245744   5.717   4.677   1.660 -0.4101  0.3970 -0.2876
 8085TIP3   OH245745   2.809   2.504   4.894 -0.2371  0.3134  1.2008
 8085TIP3    H145746   2.855   2.545   4.821 -0.0254  0.6808  1.5344
 8085TIP3    H245747   2.774   2.577   4.945  1.4879  0.1628  2.6663
 8086TIP3   OH245748   3.923   1.745   0.055 -0.2540 -0.0049  0.1940
 8086TIP3    H145749   3.909   1.774   0.145  0.4055  3.2473 -0.6808
 8086TIP3    H245750   4.017   1.731   0.049 -0.5118 -1.9502  0.4710
 8087TIP3   OH245751   1.553   0.974   6.052  0.1936  0.1016  0.4464
 8087TIP3    H145752   1.514   0.943   5.971  2.1262 -0.0565 -0.4623
 8087TIP3    H245753   1.482   0.972   6.116 -1.8581  2.1400 -1.6965
 8088TIP3   OH245754   0.728   5.678   1.901  0.4325 -0.5046  0.2442
 8088TIP3    H145755   0.761   5.590   1.919 -0.1399 -0.6655  0.5258
 8088TIP3    H245756   0.633   5.667   1.894  0.1226  0.4334  2.4588
 8089TIP3   OH245757   4.512   1.511   0.959  0.2249  0.1760 -0.2515
 8089TIP3    H145758   4.452   1.550   1.022 -1.2433 -0.8576 -0.9865
 8089TIP3    H245759   4.506   1.568   0.882  1.4255  0.9868  0.2292
 8090TIP3   OH245760   3.127   1.562   1.819  0.4864  0.8137  0.1965
 8090TIP3    H145761   3.114   1.470   1.794  3.0507  0.3376  0.5669
 8090TIP3    H245762   3.048   1.606   1.787  0.5607 -0.9900 -2.6333
 8091TIP3   OH245763   3.997   5.591   2.336 -0.6787  0.0807 -0.1974
 8091TIP3    H145764   4.051   5.570   2.261 -2.7020 -1.2107 -1.3471
 8091TIP3    H245765   4.025   5.530   2.404 -0.1370 -0.0223 -0.5114
 8092TIP3   OH245766   6.697   3.441  12.199  0.0848 -0.4465 -0.2300
 8092TIP3    H145767   6.644   3.520  12.188 -2.2568 -1.9523  0.1400
 8092TIP3    H245768   6.674   3.386  12.124  2.7021 -0.2705 -1.2190
 8093TIP3   OH245769   0.283   6.214   4.728 -0.5966  0.1253 -0.2221
 8093TIP3    H145770   0.261   6.305   4.747  2.1056  1.0307 -1.2760
 8093TIP3    H245771   0.312   6.215   4.637  1.7887 -1.3515  0.4830
 8094TIP3   OH245772   3.747   0.552  13.887  0.3874 -0.4283  0.1273
 8094TIP3    H145773   3.687   0.626  13.886  1.5105  0.4972  0.1972
 8094TIP3    H245774   3.711   0.492  13.952  0.0889  0.5757  0.8896
 8095TIP3   OH245775   3.665   0.497   2.328  0.1166  0.3711 -0.3307
 8095TIP3    H145776   3.577   0.477   2.357  0.6472  2.2696  2.8275
 8095TIP3    H245777   3.717   0.421   2.354 -0.4180 -0.3874 -1.4511
 8096TIP3   OH245778   4.374   4.025   4.928 -0.0233  0.3987 -0.0724
 8096TIP3    H145779   4.286   4.058   4.945 -0.4376 -0.9611  0.5081
 8096TIP3    H245780   4.410   4.085   4.863 -2.0294 -0.0141 -1.6210
 8097TIP3   OH245781   0.186   4.180  16.904  0.0474  0.0141 -0.2315
 8097TIP3    H145782   0.267   4.159  16.951  0.4538 -0.8748 -1.3104
 8097TIP3    H245783   0.194   4.133  16.821 -0.6919  1.5061 -1.1638
 8098TIP3   OH245784   2.596   3.555  12.278 -0.2529  0.0010 -0.4389
 8098TIP3    H145785   2.517   3.557  12.224 -0.5425 -1.3747 -0.0754
 8098TIP3    H245786   2.572   3.501  12.353  1.1179 -0.6044 -0.4352
 8099TIP3   OH245787   5.158   3.854  13.595 -0.1840  0.2608  0.9312
 8099TIP3    H145788   5.197   3.917  13.534  0.3275  3.3670  4.2808
 8099TIP3    H245789   5.225   3.840  13.661 -1.4719 -1.4220  1.9044
 8100TIP3   OH245790   2.180   4.078   3.696  0.6578 -0.4028 -0.3309
 8100TIP3    H145791   2.128   3.999   3.703  0.0463 -0.1125 -1.5407
 8100TIP3    H245792   2.269   4.051   3.721 -0.1273 -0.8005  2.1649
 8101TIP3   OH245793   2.993   5.089  11.629 -0.1948 -0.0949 -0.0046
 8101TIP3    H145794   2.910   5.042  11.622 -0.1899 -0.2490  1.0127
 8101TIP3    H245795   3.036   5.052  11.706  0.4220  0.6169  0.0004
 8102TIP3   OH245796   0.940   2.438  13.465 -0.6813 -0.0306 -0.7401
 8102TIP3    H145797   0.869   2.494  13.435 -0.4676  1.0194  0.6242
 8102TIP3    H245798   1.011   2.499  13.486  0.4671 -1.0309 -1.6795
 8103TIP3   OH245799   6.301   1.199   5.557  0.3526  0.2112  0.4541
 8103TIP3    H145800   6.271   1.168   5.472 -0.7451 -1.1465  1.3247
 8103TIP3    H245801   6.392   1.227   5.542 -0.1400  0.8822 -1.3510
 8104TIP3   OH245802   1.657   5.619  13.036  0.6651 -0.3714  0.2615
 8104TIP3    H145803   1.570   5.615  13.076  1.2092  0.5146  1.5690
 8104TIP3    H245804   1.699   5.693  13.079  1.7794 -0.3004 -0.9492
 8105TIP3   OH245805   4.735   4.343   1.873  0.2348  0.0503 -0.4354
 8105TIP3    H145806   4.655   4.357   1.923  0.1469  1.4411 -0.9242
 8105TIP3    H245807   4.793   4.414   1.901  0.7898 -0.1474 -1.0654
 8106TIP3   OH245808   5.206   6.316   1.290 -0.4739  0.2364 -0.4520
 8106TIP3    H145809   5.238   6.335   1.202  0.3456  1.1037  0.0279
 8106TIP3    H245810   5.276   6.344   1.349 -1.2971  0.3394  0.5178
 8107TIP3   OH245811   1.819   3.308  15.865 -0.0309  0.4247 -0.4824
 8107TIP3    H145812   1.765   3.305  15.944  1.1528 -1.4318  0.2787
 8107TIP3    H245813   1.805   3.223  15.824  3.8603 -0.9339  0.8157
 8108TIP3   OH245814   6.097   6.170  14.567 -0.4675  0.1209 -0.5344
 8108TIP3    H145815   6.105   6.090  14.619 -3.2775  1.6128  2.3691
 8108TIP3    H245816   6.186   6.205  14.565  0.0276 -0.8919  1.8125
 8109TIP3   OH245817   2.648   0.837   1.201  0.2523 -0.0492  0.1025
 8109TIP3    H145818   2.725   0.785   1.221 -1.1149 -2.3858 -0.5715
 8109TIP3    H245819   2.594   0.832   1.280 -0.4563 -0.7264 -0.4139
 8110TIP3   OH245820   2.379   0.060  10.776  0.2213  0.4376 -0.3123
 8110TIP3    H145821   2.408   0.035  10.688  2.6241  1.8661  0.0256
 8110TIP3    H245822   2.349  -0.021  10.816  0.2528 -0.4336 -2.0082
 8111TIP3   OH245823   6.567   5.606  11.658  0.5166 -0.4456  0.2235
 8111TIP3    H145824   6.538   5.571  11.574  0.5912  0.1210 -0.0433
 8111TIP3    H245825   6.660   5.627  11.645  0.9191 -1.7175  0.8967
 8112TIP3   OH245826   1.124   0.291  14.841  0.6340  0.2029 -0.2536
 8112TIP3    H145827   1.065   0.359  14.874  1.9004  1.4425 -0.4995
 8112TIP3    H245828   1.203   0.301  14.894  0.5595 -1.6136  0.2444
 8113TIP3   OH245829   4.517   6.568   0.089 -0.3440 -0.2795 -0.1694
 8113TIP3    H145830   4.573   6.491   0.084  0.8686  0.5815  0.1577
 8113TIP3    H245831   4.558   6.624   0.155 -1.2247  0.6497 -0.3961
 8114TIP3   OH245832   4.198   0.504  16.238  0.1677  0.2600 -0.0550
 8114TIP3    H145833   4.200   0.411  16.261  1.7378 -0.0020 -1.1476
 8114TIP3    H245834   4.259   0.545  16.299  1.1052  0.2267 -0.9585
 8115TIP3   OH245835   5.421   5.204   4.344  0.4208 -0.1821 -0.2619
 8115TIP3    H145836   5.344   5.174   4.393  0.5510  1.1054  0.7451
 8115TIP3    H245837   5.399   5.294   4.319  1.0766 -0.2498 -1.0805
 8116TIP3   OH245838   6.049   1.179   1.068  0.1357 -0.2895  0.2943
 8116TIP3    H145839   6.017   1.090   1.079 -0.6520 -0.1434 -0.7794
 8116TIP3    H245840   6.136   1.169   1.031  0.3267 -0.6232  0.8196
 8117TIP3   OH245841   1.247   5.101   4.752  0.0346  0.0541 -0.2913
 8117TIP3    H145842   1.262   5.166   4.684  0.9107  0.9624  0.7645
 8117TIP3    H245843   1.247   5.017   4.705 -0.9951  0.7793 -1.6367
 8118TIP3   OH245844   4.469   1.202  14.258  0.4659 -0.2399 -0.1277
 8118TIP3    H145845   4.427   1.258  14.323  0.9645  0.4910 -0.4322
 8118TIP3    H245846   4.477   1.257  14.181  1.3553 -0.5919 -0.2918
 8119TIP3   OH245847   4.816   1.780   0.096 -0.4650  0.5261  0.1255
 8119TIP3    H145848   4.801   1.692   0.061  0.6251 -0.2417  1.5282
 8119TIP3    H245849   4.911   1.791   0.092 -0.5032  1.2086  0.9934
 8120TIP3   OH245850   0.740   2.845  12.533 -0.2940  0.2430 -0.2765
 8120TIP3    H145851   0.654   2.813  12.506 -0.2848 -0.8497  0.9417
 8120TIP3    H245852   0.728   2.940  12.542 -1.7365 -0.0320  1.1052
 8121TIP3   OH245853   3.174   4.162  15.239 -0.4528 -0.4175  0.1601
 8121TIP3    H145854   3.209   4.249  15.260  0.1023 -0.0728 -2.0643
 8121TIP3    H245855   3.220   4.136  15.159 -2.0727 -1.8827 -0.3330
 8122TIP3   OH245856   1.707   1.286  16.962 -0.0815  0.6847  0.1587
 8122TIP3    H145857   1.700   1.324  17.050  0.6320  0.3022  0.3863
 8122TIP3    H245858   1.654   1.344  16.907 -2.2724 -0.2739  1.2033
 8123TIP3   OH245859   0.379   4.528  14.120  0.0926 -0.5538  0.4386
 8123TIP3    H145860   0.464   4.571  14.113 -0.1388 -0.2750 -0.8181
 8123TIP3    H245861   0.317   4.591  14.083 -0.6401 -0.8269  1.1846
 8124TIP3   OH245862   0.608   5.038   2.024  0.9853 -0.3354 -0.6090
 8124TIP3    H145863   0.609   4.944   2.006  0.7355 -0.6186  0.8134
 8124TIP3    H245864   0.697   5.057   2.055  0.5012 -0.4548  0.8557
 8125TIP3   OH245865   0.804   4.584  11.301  0.3632  0.0505  0.1854
 8125TIP3    H145866   0.857   4.580  11.222 -0.8210  2.1048 -0.7571
 8125TIP3    H245867   0.806   4.676  11.327 -2.1334  0.0489  0.5098
 8126TIP3   OH245868   6.350   5.160   0.697 -0.0037 -0.1958 -0.1369
 8126TIP3    H145869   6.297   5.171   0.776  1.4123  0.2247  0.7844
 8126TIP3    H245870   6.422   5.222   0.708  0.6512 -0.7159 -1.3781
 8127TIP3   OH245871   4.879   4.137  15.011 -0.1587  0.2406 -0.5900
 8127TIP3    H145872   4.881   4.082  15.090  2.2181  1.9517  0.6156
 8127TIP3    H245873   4.794   4.118  14.971 -0.1622 -2.9124  0.7513
 8128TIP3   OH245874   4.544   3.078  14.892  0.1963  0.7007 -0.7859
 8128TIP3    H145875   4.492   3.049  14.967 -0.6966  1.9543 -0.9172
 8128TIP3    H245876   4.490   3.058  14.816  1.9910 -2.5685 -1.3008
 8129TIP3   OH245877   2.082   3.163   4.245 -0.2334  0.0723 -0.8322
 8129TIP3    H145878   2.082   3.259   4.247 -0.9308  0.0567  0.2162
 8129TIP3    H245879   2.006   3.140   4.190  0.3313  0.1270 -1.6371
 8130TIP3   OH245880   3.888   0.963  13.615 -0.0967  0.1600  0.0728
 8130TIP3    H145881   3.878   1.052  13.650  1.8426  0.9842 -1.3535
 8130TIP3    H245882   3.889   0.907  13.692 -0.2427  1.4890  1.0608
 8131TIP3   OH245883   1.788   2.538   0.755  0.1431 -0.3026 -0.3243
 8131TIP3    H145884   1.705   2.562   0.715 -0.1529 -1.6144 -0.5123
 8131TIP3    H245885   1.767   2.519   0.846  0.3494 -0.0127 -0.2144
 8132TIP3   OH245886   4.629   1.727   3.628 -0.3807 -0.0896  0.1786
 8132TIP3    H145887   4.606   1.789   3.697  1.2201  0.2979  0.3898
 8132TIP3    H245888   4.669   1.653   3.675  0.3798  0.0142 -0.3132
 8133TIP3   OH245889   0.216   1.469  11.078  0.0147 -0.4437 -0.0912
 8133TIP3    H145890   0.276   1.543  11.070 -0.3965 -0.2114 -1.0853
 8133TIP3    H245891   0.199   1.462  11.172  1.7881 -0.6778  0.2362
 8134TIP3   OH245892   4.131   4.772   1.974  0.7932 -0.0983  0.3989
 8134TIP3    H145893   4.058   4.719   1.945  0.0649  1.1112 -0.0425
 8134TIP3    H245894   4.090   4.852   2.009  1.8557  0.2271  0.9275
 8135TIP3   OH245895   1.887   2.996   4.545 -0.1805  0.1531 -0.2642
 8135TIP3    H145896   1.883   2.947   4.627  1.2305  1.8709  0.8477
 8135TIP3    H245897   1.815   3.059   4.551  0.1369  0.5065 -0.2139
 8136TIP3   OH245898   1.747   4.493  16.020  0.0029 -0.0426  0.6522
 8136TIP3    H145899   1.666   4.467  15.976  0.1135  0.0454  0.3934
 8136TIP3    H245900   1.735   4.585  16.041  1.1708  0.7529 -1.9817
 8137TIP3   OH245901   6.332   2.231  14.086  0.2184 -0.4221  0.2778
 8137TIP3    H145902   6.391   2.163  14.117 -0.2142 -1.2675 -0.7406
 8137TIP3    H245903   6.359   2.248  13.996  0.1202  0.5295  0.4190
 8138TIP3   OH245904   1.438   1.513  11.752  0.4160 -0.0015  0.4099
 8138TIP3    H145905   1.528   1.547  11.751  0.0277  1.0904  1.9311
 8138TIP3    H245906   1.399   1.550  11.831 -1.4564 -0.2680 -0.3699
 8139TIP3   OH245907   3.569   5.241   0.591  0.0278 -0.4272  0.2093
 8139TIP3    H145908   3.653   5.214   0.628  1.4510  1.4284 -1.5142
 8139TIP3    H245909   3.504   5.212   0.654  1.9610 -1.9960  1.5353
 8140TIP3   OH245910   4.353   4.121  14.077  0.0565 -0.1412 -0.6244
 8140TIP3    H145911   4.405   4.188  14.121 -0.2943  0.9002 -1.7636
 8140TIP3    H245912   4.290   4.092  14.144  0.8819 -0.0834  0.1877
 8141TIP3   OH245913   5.991   2.540   0.287 -0.5404  0.1334 -0.0850
 8141TIP3    H145914   5.955   2.614   0.336 -2.9836 -0.0424 -1.5237
 8141TIP3    H245915   5.946   2.464   0.323  0.2479 -0.3826 -0.1984
 8142TIP3   OH245916   5.758   2.762   3.402 -0.0284 -0.2629  0.3437
 8142TIP3    H145917   5.719   2.780   3.487  1.1960  0.6064  0.7312
 8142TIP3    H245918   5.836   2.710   3.421 -0.1931 -0.7728 -0.3198
 8143TIP3   OH245919   3.060   1.382  12.019  0.1953 -0.0613  0.1044
 8143TIP3    H145920   3.084   1.294  12.048  2.4178  0.7857  0.9798
 8143TIP3    H245921   2.999   1.414  12.086 -1.4993 -1.3211 -0.8099
 8144TIP3   OH245922   0.850   6.780  16.810  0.6139 -0.0814  0.4223
 8144TIP3    H145923   0.820   6.845  16.747  0.8769 -0.3558  0.0126
 8144TIP3    H245924   0.852   6.698  16.761 -0.2615 -0.5039  1.0796
 8145TIP3   OH245925   3.569   3.304   2.467 -0.2797 -0.3048 -0.7576
 8145TIP3    H145926   3.592   3.395   2.449 -1.1911  0.4475  1.6178
 8145TIP3    H245927   3.640   3.272   2.523  0.1327 -1.1185 -1.7376
 8146TIP3   OH245928   6.197   0.317  13.930 -0.3740  0.7107  0.1211
 8146TIP3    H145929   6.254   0.263  13.875 -0.7439 -0.3396  0.7533
 8146TIP3    H245930   6.127   0.345  13.871 -1.4388 -1.4223  0.3234
 8147TIP3   OH245931   0.945   5.115   2.515 -0.2170 -0.6129  0.3310
 8147TIP3    H145932   0.855   5.114   2.483 -0.8031  2.4082  1.6484
 8147TIP3    H245933   0.945   5.053   2.589 -1.3945 -0.1668  0.7227
 8148TIP3   OH245934   5.034   0.472  12.985 -0.3697 -0.2003 -0.5641
 8148TIP3    H145935   5.054   0.565  12.991 -1.2804  0.0511 -1.3039
 8148TIP3    H245936   4.941   0.466  13.004 -0.2022 -1.0314  0.0316
 8149TIP3   OH245937   2.029   0.426  14.582  0.3306 -0.2116  0.1616
 8149TIP3    H145938   2.088   0.362  14.542  0.5974 -1.2913  2.2092
 8149TIP3    H245939   2.076   0.458  14.659 -1.0059  0.2708  0.8055
 8150TIP3   OH245940   4.149   1.476   4.472  0.9037  0.3823  0.7135
 8150TIP3    H145941   4.129   1.407   4.410 -2.0918  2.4940 -0.7385
 8150TIP3    H245942   4.154   1.431   4.557  2.0330 -2.0333 -0.5842
 8151TIP3   OH245943   2.000   4.211   4.966  0.9338 -0.4276 -0.2398
 8151TIP3    H145944   2.057   4.162   5.024  0.8740  1.7650  1.7471
 8151TIP3    H245945   2.050   4.290   4.944 -0.8918  1.0854  0.7919
 8152TIP3   OH245946   0.842   3.057  10.246 -0.2585 -0.5019 -0.1862
 8152TIP3    H145947   0.756   3.021  10.224  0.1007 -0.5179 -1.6107
 8152TIP3    H245948   0.827   3.110  10.324 -1.2105 -1.9971  0.6616
 8153TIP3   OH245949   3.973   2.817   2.310 -0.0071  0.0249 -0.1557
 8153TIP3    H145950   4.050   2.797   2.258  0.4429 -0.2350  0.6091
 8153TIP3    H245951   4.006   2.861   2.388 -0.6212 -0.1034  0.1876
 8154TIP3   OH245952   1.859   5.303   1.252  0.3126 -0.2458  0.0847
 8154TIP3    H145953   1.803   5.362   1.201 -1.8490 -1.4902  0.9601
 8154TIP3    H245954   1.946   5.344   1.250 -0.3352  1.0879 -2.3447
 8155TIP3   OH245955   1.562   5.328  11.507  0.3784  0.0778  0.3016
 8155TIP3    H145956   1.501   5.284  11.449  0.2162 -0.2134  0.6863
 8155TIP3    H245957   1.532   5.305  11.595  0.6238  0.5093  0.4959
 8156TIP3   OH245958   3.524   4.371  14.715 -0.0347 -0.7562  0.1651
 8156TIP3    H145959   3.493   4.392  14.627  0.0421 -1.8308 -0.1283
 8156TIP3    H245960   3.557   4.454  14.750  0.2129 -0.3865 -0.9279
 8157TIP3   OH245961   6.183   0.195   2.692  0.5261  0.3695  0.2016
 8157TIP3    H145962   6.266   0.148   2.694  1.0124  1.2436  0.8436
 8157TIP3    H245963   6.196   0.271   2.748 -0.2241  1.3175 -0.8557
 8158TIP3   OH245964   2.426   2.229  10.494  1.0217 -0.1578 -0.5141
 8158TIP3    H145965   2.373   2.242  10.572 -0.4442 -0.9790 -1.3416
 8158TIP3    H245966   2.427   2.134  10.482  0.8658 -0.0199 -1.7175
 8159TIP3   OH245967   0.215   5.642  17.218 -0.2528  0.0692  0.8367
 8159TIP3    H145968   0.215   5.570  17.156 -0.9924 -0.2258  1.1882
 8159TIP3    H245969   0.246   5.604  17.300  0.8070  0.4759  0.6347
 8160TIP3   OH245970   1.697   4.809   0.276  0.2231 -0.5164 -0.1472
 8160TIP3    H145971   1.657   4.842   0.195 -3.0083 -0.8851  1.2478
 8160TIP3    H245972   1.722   4.888   0.324 -0.0156 -0.2687 -0.4299
 8161TIP3   OH245973   2.488   5.765   5.313  0.1315 -0.2227  0.2106
 8161TIP3    H145974   2.577   5.740   5.338  0.3600  0.1559 -0.2138
 8161TIP3    H245975   2.497   5.853   5.277 -0.8488  0.9614  2.8103
 8162TIP3   OH245976   6.552   3.715  13.775 -0.3046  0.0821  0.0807
 8162TIP3    H145977   6.607   3.784  13.812  0.8120  0.5512 -2.3614
 8162TIP3    H245978   6.469   3.759  13.755  0.0017  0.4503 -0.3939
 8163TIP3   OH245979   6.243   2.557   4.439  0.2340  0.0286  0.5218
 8163TIP3    H145980   6.277   2.578   4.525 -0.5576  0.2490  0.7859
 8163TIP3    H245981   6.151   2.534   4.454  0.1407 -0.1199 -0.2309
 8164TIP3   OH245982   0.880   3.967  17.139 -0.2147  0.0247  0.6196
 8164TIP3    H145983   0.904   3.904  17.207 -1.6936 -0.1049  1.0503
 8164TIP3    H245984   0.915   3.930  17.059  1.3125  0.0391  1.2537
 8165TIP3   OH245985   2.772   2.502   1.876  0.2927  0.3596 -0.4674
 8165TIP3    H145986   2.793   2.574   1.936 -0.4588 -1.0058  1.4902
 8165TIP3    H245987   2.788   2.538   1.789  2.6792  1.9889  0.5849
 8166TIP3   OH245988   5.032   4.947   0.328 -0.1190  0.2162  0.0847
 8166TIP3    H145989   5.116   4.962   0.371 -0.1910  1.3582 -0.1676
 8166TIP3    H245990   5.020   5.023   0.271 -1.2923  0.0377  0.0799
 8167TIP3   OH245991   2.667   6.509   0.955 -0.2287  0.3476  0.2958
 8167TIP3    H145992   2.723   6.433   0.934  1.3154  1.4699  0.2817
 8167TIP3    H245993   2.669   6.563   0.876  0.9844  1.7895  1.2873
 8168TIP3   OH245994   6.713   5.316  15.695  0.0659 -0.0569  0.2092
 8168TIP3    H145995   6.777   5.309  15.624 -0.8747 -1.2324 -0.5370
 8168TIP3    H245996   6.659   5.238  15.687 -0.6385  0.2618  1.6608
 8169TIP3   OH245997   3.406   6.159  11.110  0.2248  0.0945  0.4729
 8169TIP3    H145998   3.443   6.082  11.155  0.7003 -0.9624 -1.6844
 8169TIP3    H245999   3.411   6.137  11.017 -2.1109  1.6499 -0.0436
 8170TIP3   OH246000   6.206   4.031  13.392  0.3502 -0.5644 -0.0777
 8170TIP3    H146001   6.145   4.016  13.319  0.6541 -1.7861 -0.0764
 8170TIP3    H246002   6.212   4.127  13.398 -1.2019 -0.4351 -0.3852
 8171TIP3   OH246003   1.044   1.907  14.652 -0.2610  0.1832  0.1883
 8171TIP3    H146004   1.052   1.827  14.703 -0.6515  0.4020  0.5943
 8171TIP3    H246005   0.972   1.890  14.591  2.1548 -1.2181 -2.4145
 8172TIP3   OH246006   2.009   1.857  15.184 -0.0609 -0.0237 -0.3354
 8172TIP3    H146007   2.031   1.926  15.121  1.3549 -1.0223 -0.9568
 8172TIP3    H246008   1.918   1.834  15.164 -0.1247  0.7786 -0.9674
 8173TIP3   OH246009   3.482   5.912  12.104 -0.0719  0.0913  0.3156
 8173TIP3    H146010   3.529   5.982  12.150 -0.9141  0.5758  0.4591
 8173TIP3    H246011   3.416   5.958  12.052  1.7934 -0.3419 -2.5357
 8174TIP3   OH246012   6.021   5.477  12.946 -0.2006  0.4029 -0.4969
 8174TIP3    H146013   5.989   5.445  12.862  0.6218  0.5637 -0.8745
 8174TIP3    H246014   5.963   5.437  13.011  0.9803 -2.0600 -0.9381
 8175TIP3   OH246015   0.712   6.619   0.923 -0.2034 -0.2201 -0.3101
 8175TIP3    H146016   0.707   6.526   0.944 -0.1889  0.2723  1.9882
 8175TIP3    H246017   0.641   6.659   0.973 -0.1078  1.0495 -1.1428
 8176TIP3   OH246018   5.028   2.821   4.731  0.1892 -0.1971  0.8394
 8176TIP3    H146019   5.054   2.893   4.673 -0.1379 -0.2154  0.6668
 8176TIP3    H246020   5.059   2.847   4.817  0.3642 -0.0009  0.7182
 8177TIP3   OH246021   6.327   3.781   4.960  0.1921 -0.2176 -0.3879
 8177TIP3    H146022   6.298   3.718   4.893 -0.5548 -0.0436 -0.2361
 8177TIP3    H246023   6.376   3.847   4.912  1.7181 -1.3759 -0.4342
 8178TIP3   OH246024   1.297   3.767  16.339  0.2983  0.4826 -0.7182
 8178TIP3    H146025   1.274   3.767  16.432 -1.2909  0.8236 -1.0894
 8178TIP3    H246026   1.374   3.711  16.333  0.8917  1.1054  0.9094
 8179TIP3   OH246027   4.595   4.186  14.970 -0.0480 -0.5807 -0.3006
 8179TIP3    H146028   4.532   4.200  15.040  0.7121  1.3603  0.0353
 8179TIP3    H246029   4.598   4.270  14.924 -0.2400 -1.7223 -2.4156
 8180TIP3   OH246030   6.565   1.338  14.520  0.3393 -0.0032 -0.1577
 8180TIP3    H146031   6.624   1.413  14.507  2.4251 -1.5378  0.0615
 8180TIP3    H246032   6.565   1.324  14.615 -0.0872 -0.2414 -0.1913
 8181TIP3   OH246033   5.527   1.546  12.923 -0.2760  0.0535 -0.2984
 8181TIP3    H146034   5.567   1.459  12.928 -0.0600  0.1798  0.1416
 8181TIP3    H246035   5.461   1.547  12.992  2.6503  1.7543  2.6040
 8182TIP3   OH246036   6.225   1.930   3.314  0.1288 -0.1892  0.2669
 8182TIP3    H146037   6.266   1.958   3.232 -0.4474 -1.3523 -0.4287
 8182TIP3    H246038   6.280   1.859   3.346  1.2317  1.2619  1.7134
 8183TIP3   OH246039   3.584   1.695  14.622  0.0287  0.1376  0.3875
 8183TIP3    H146040   3.516   1.762  14.633 -1.4469 -1.1455 -0.7573
 8183TIP3    H246041   3.594   1.657  14.709 -0.5511  0.5041  0.6173
 8184TIP3   OH246042   2.419   5.840   6.094  0.3931 -0.3154  0.3308
 8184TIP3    H146043   2.444   5.751   6.120 -0.2179 -0.3797  0.7293
 8184TIP3    H246044   2.451   5.896   6.166  0.3252 -0.2745  0.3294
 8185TIP3   OH246045   5.338   3.391   5.227 -0.1361  0.3509 -0.1581
 8185TIP3    H146046   5.358   3.336   5.303 -1.6993  0.4579  0.3515
 8185TIP3    H246047   5.322   3.478   5.264 -2.0976  0.1439 -0.4424
 8186TIP3   OH246048   3.227   1.345   0.388 -0.0721 -0.0180 -0.6831
 8186TIP3    H146049   3.288   1.403   0.435  0.6419  0.2993 -1.9676
 8186TIP3    H246050   3.260   1.345   0.298 -2.5763  0.9642 -1.6331
 8187TIP3   OH246051   1.875   1.831  17.262 -0.4452 -0.2466  0.0320
 8187TIP3    H146052   1.965   1.840  17.293 -0.4247  0.5697 -0.2421
 8187TIP3    H246053   1.829   1.787  17.333 -0.1830  0.7518  0.8296
 8188TIP3   OH246054   1.420   5.827  14.536 -0.0591 -0.1962  0.0819
 8188TIP3    H146055   1.334   5.802  14.570 -0.2889 -1.5068 -1.4378
 8188TIP3    H246056   1.481   5.807  14.607 -1.0305  1.1495  1.3367
 8189TIP3   OH246057   6.000   4.519   1.029 -0.4038 -0.1162 -0.5037
 8189TIP3    H146058   6.025   4.599   1.075 -1.3671  0.3681 -0.8243
 8189TIP3    H246059   6.073   4.502   0.969  0.0391  0.2201 -0.0692
 8190TIP3   OH246060   4.070   5.924   4.211  0.6834 -0.3752  0.1096
 8190TIP3    H146061   4.018   6.004   4.213 -2.2431 -2.1564 -0.9972
 8190TIP3    H246062   4.130   5.936   4.137  0.5671  0.9691  0.2269
 8191TIP3   OH246063   2.496   0.419   2.059  0.0580  0.3279 -0.0521
 8191TIP3    H146064   2.485   0.490   1.996 -0.1351  0.6721  0.3679
 8191TIP3    H246065   2.505   0.340   2.005 -0.3473  0.5869 -0.5040
 8192TIP3   OH246066   1.505   0.957   0.333  0.1390  0.0079  0.7049
 8192TIP3    H146067   1.438   0.923   0.393  0.3731 -0.1480  0.8761
 8192TIP3    H246068   1.458   0.969   0.250 -0.3480  0.8738  1.0985
 8193TIP3   OH246069   3.702   6.233   2.053 -0.1015 -0.0749 -0.0372
 8193TIP3    H146070   3.753   6.177   1.994 -0.9684 -0.8964 -0.0012
 8193TIP3    H246071   3.767   6.266   2.116  0.5178 -0.5386 -0.4236
 8194TIP3   OH246072   3.591   0.526  14.760 -0.1557  0.4748 -0.5976
 8194TIP3    H146073   3.565   0.468  14.832 -0.2556  0.4979 -0.6144
 8194TIP3    H246074   3.522   0.515  14.695  1.8439 -2.4902 -2.3576
 8195TIP3   OH246075   5.457   1.868   5.947  0.3037  0.2330  0.7033
 8195TIP3    H146076   5.425   1.869   6.037  1.7794  0.6715  1.2500
 8195TIP3    H246077   5.485   1.778   5.932 -0.8890 -0.0802  0.3246
 8196TIP3   OH246078   1.258   6.582  13.937  0.1256 -0.4386 -0.1470
 8196TIP3    H146079   1.316   6.629  13.997 -0.5513 -0.1856  0.3277
 8196TIP3    H246080   1.295   6.494  13.932  0.9444 -0.0752 -0.4054
 8197TIP3   OH246081   4.721   3.331   5.904 -0.2177  0.3914  0.4195
 8197TIP3    H146082   4.801   3.294   5.868 -0.0663  0.4070  0.7399
 8197TIP3    H246083   4.715   3.418   5.864  0.4322  0.7722  1.1183
 8198TIP3   OH246084   2.931   6.811  16.183 -0.3425  0.3332  0.0031
 8198TIP3    H146085   3.001   6.831  16.122 -2.1718  2.3957 -1.5131
 8198TIP3    H246086   2.890   6.732  16.147  0.8602 -0.5834  0.6181
 8199TIP3   OH246087   1.757   3.955  12.606 -0.2426 -0.4785  0.0295
 8199TIP3    H146088   1.673   3.931  12.568  0.2828 -2.3261 -0.0186
 8199TIP3    H246089   1.753   3.924  12.696  0.7061 -1.4065 -0.2321
 8200TIP3   OH246090   5.756   1.868  13.832  0.3106 -0.4639  0.2243
 8200TIP3    H146091   5.694   1.912  13.891  1.6856  1.5645  0.1987
 8200TIP3    H246092   5.787   1.792  13.882 -0.1279  0.0502  1.2890
 8201TIP3   OH246093   2.803   3.554   5.605  0.4096 -0.5484  0.6630
 8201TIP3    H146094   2.708   3.566   5.612  0.4610  1.0963 -1.0189
 8201TIP3    H246095   2.815   3.459   5.611 -1.4944 -0.8988 -0.4734
 8202TIP3   OH246096   3.158   4.767  13.411 -0.0037  0.4193  0.6056
 8202TIP3    H146097   3.100   4.694  13.387 -1.9270  1.5773  1.6204
 8202TIP3    H246098   3.117   4.844  13.373  1.9183  1.0143 -0.2844
 8203TIP3   OH246099   2.433   0.622   5.933  0.4624 -0.0633 -0.2005
 8203TIP3    H146100   2.378   0.673   5.873 -0.8052 -0.7767  0.3215
 8203TIP3    H246101   2.508   0.678   5.952 -0.9489  1.6327  0.4263
 8204TIP3   OH246102   6.654   2.484  15.561  0.6916  0.7664 -0.1232
 8204TIP3    H146103   6.707   2.564  15.569 -1.4767  2.3478 -1.0814
 8204TIP3    H246104   6.579   2.510  15.508 -0.8546 -1.5258  0.8501
 8205TIP3   OH246105   3.307   1.409   5.781  0.1760 -0.5360 -0.2060
 8205TIP3    H146106   3.362   1.392   5.857  1.0820  2.3962 -0.1506
 8205TIP3    H246107   3.367   1.446   5.716 -1.5709  1.9914 -0.4130
 8206TIP3   OH246108   5.816   5.584  15.914  0.4500 -0.1151 -0.1594
 8206TIP3    H146109   5.793   5.503  15.868 -0.4555  0.3356 -0.5041
 8206TIP3    H246110   5.868   5.554  15.989 -0.6835 -1.1038  0.2558
 8207TIP3   OH246111   1.140   2.005  10.996 -0.5287  0.3902 -0.7020
 8207TIP3    H146112   1.105   1.918  10.974 -2.1966  1.0019 -0.5022
 8207TIP3    H246113   1.186   2.032  10.916 -2.3875  0.5091 -1.7529
 8208TIP3   OH246114   3.673   3.332  12.881  0.6141  0.3686  0.1532
 8208TIP3    H146115   3.703   3.375  12.801  0.9881  0.5428  0.3842
 8208TIP3    H246116   3.749   3.285  12.914  0.0962 -0.7860 -0.2963
 8209TIP3   OH246117   6.756   3.996  15.870  0.4102 -0.5850 -0.0205
 8209TIP3    H146118   6.725   3.955  15.950 -1.1929  1.6119  0.5296
 8209TIP3    H246119   6.703   4.075  15.861  0.3371 -0.9195 -3.4067
 8210TIP3   OH246120   2.693   0.046   1.129  0.0551 -0.0825 -0.0322
 8210TIP3    H146121   2.628  -0.019   1.157  1.0816 -1.6782 -1.2462
 8210TIP3    H246122   2.671   0.065   1.038  0.0453  0.9224  0.1765
 8211TIP3   OH246123   2.855   1.475  13.056  0.2761 -0.2596  0.2399
 8211TIP3    H146124   2.782   1.498  12.999  0.0588  0.2287  0.7117
 8211TIP3    H246125   2.871   1.382  13.039 -0.3103 -0.3124 -0.0244
 8212TIP3   OH246126   4.507   0.144   4.397  0.2714  0.5511  0.1035
 8212TIP3    H146127   4.576   0.103   4.344 -0.0385  1.4939 -1.0675
 8212TIP3    H246128   4.470   0.072   4.448  1.6949 -0.0840  0.2837
 8213TIP3   OH246129   5.060   3.299   2.423 -0.1281 -0.3176 -0.2445
 8213TIP3    H146130   5.134   3.334   2.473 -1.7402  0.9814  1.2801
 8213TIP3    H246131   4.995   3.369   2.424 -2.1894 -2.1932  0.2153
 8214TIP3   OH246132   6.357   1.323   0.182  0.1230 -0.0904 -0.4165
 8214TIP3    H146133   6.424   1.350   0.119  0.8986  1.2017  0.9099
 8214TIP3    H246134   6.374   1.377   0.259 -1.5247 -0.8158  0.4879
 8215TIP3   OH246135   3.941   4.215  11.261 -0.0071 -0.4671  0.7017
 8215TIP3    H146136   3.922   4.308  11.249 -2.4548 -1.2192 -1.8367
 8215TIP3    H246137   3.869   4.183  11.315  0.5346 -0.9868  1.1130
 8216TIP3   OH246138   5.477   1.754  15.830 -0.6419 -0.2841 -0.1342
 8216TIP3    H146139   5.518   1.805  15.899 -1.0662  1.6226 -1.2421
 8216TIP3    H246140   5.476   1.665  15.863 -0.1491  0.4643  1.9866
 8217TIP3   OH246141   4.391   4.800  11.441  0.1135 -0.3781 -0.3152
 8217TIP3    H146142   4.418   4.855  11.514 -2.2267 -0.4562  0.6488
 8217TIP3    H246143   4.398   4.710  11.474 -0.7661 -0.4244 -0.2557
 8218TIP3   OH246144   6.299   4.797   4.321  0.0469 -0.4936 -0.6033
 8218TIP3    H146145   6.294   4.766   4.412 -0.7436 -1.4809 -0.9626
 8218TIP3    H246146   6.379   4.758   4.286 -0.4793 -1.4483 -0.7860
 8219TIP3   OH246147   0.144   5.465   5.364 -0.3309  0.2156  0.0181
 8219TIP3    H146148   0.085   5.397   5.396 -1.1122  1.6695  1.7429
 8219TIP3    H246149   0.228   5.445   5.405 -0.4203 -0.0390  0.0771
 8220TIP3   OH246150   4.684   4.311  11.186 -0.2119  0.2783 -0.2948
 8220TIP3    H146151   4.721   4.229  11.219 -2.4928  0.0970  1.8744
 8220TIP3    H246152   4.724   4.321  11.099  2.0790 -1.7785  0.4526
 8221TIP3   OH246153   3.342   6.343  10.868 -0.5783 -0.1637 -0.0246
 8221TIP3    H146154   3.258   6.318  10.830 -0.7400  1.0504 -0.4510
 8221TIP3    H246155   3.399   6.267  10.852 -0.9844 -0.1398 -1.6006
 8222TIP3   OH246156   3.724   2.569  16.553 -0.1720 -0.0464 -0.5794
 8222TIP3    H146157   3.654   2.567  16.487  0.5045 -0.4769 -1.2895
 8222TIP3    H246158   3.794   2.517  16.515  0.8153  0.9669 -0.1783
 8223TIP3   OH246159   5.561   4.973   0.525  0.0133 -0.0313  0.5678
 8223TIP3    H146160   5.551   4.900   0.464 -0.2988  0.3033  0.2194
 8223TIP3    H246161   5.577   4.931   0.610  0.4294 -0.4959  0.2666
 8224TIP3   OH246162   3.943   1.389  10.686 -0.2260 -0.2630 -0.2394
 8224TIP3    H146163   3.879   1.340  10.634 -1.0391  0.5073  0.0285
 8224TIP3    H246164   3.940   1.347  10.772  2.1798 -2.4964 -1.1555
 8225TIP3   OH246165   0.909   3.153  17.208  0.2117  0.4123 -0.0180
 8225TIP3    H146166   0.948   3.189  17.287  0.2375 -0.0969  0.2033
 8225TIP3    H246167   0.913   3.058  17.220  0.1365  0.3326 -0.5883
 8226TIP3   OH246168   2.703   5.247   4.048  0.0984  0.0992  0.2924
 8226TIP3    H146169   2.782   5.196   4.029 -1.1615 -1.3325 -1.3813
 8226TIP3    H246170   2.717   5.330   4.003 -0.1854 -0.9313 -1.7904
 8227TIP3   OH246171   4.214   3.689  16.909  0.2225  0.1048 -0.0952
 8227TIP3    H146172   4.264   3.607  16.910  1.6338  0.9342 -0.7597
 8227TIP3    H246173   4.278   3.756  16.886 -0.3918  1.7638  2.7727
 8228TIP3   OH246174   1.512   3.740   2.272 -0.2539 -0.1702  0.4234
 8228TIP3    H146175   1.566   3.803   2.320 -1.3774  0.9651  0.2554
 8228TIP3    H246176   1.425   3.780   2.271 -0.3625 -0.3612 -2.1726
 8229TIP3   OH246177   3.823   3.442   1.135  0.0887  0.4796  0.3401
 8229TIP3    H146178   3.750   3.431   1.074 -0.8091  0.0218  1.4874
 8229TIP3    H246179   3.844   3.354   1.165 -0.0281  0.7800  1.3293
 8230TIP3   OH246180   4.447   5.117   1.759 -0.1006  0.7183  0.2608
 8230TIP3    H146181   4.443   5.203   1.802  0.3853  1.4461 -1.1277
 8230TIP3    H246182   4.534   5.114   1.719 -0.6802  0.1972 -0.9765
 8231TIP3   OH246183   1.002   4.669   4.987 -0.6113  0.9275  0.1593
 8231TIP3    H146184   1.075   4.629   4.940 -0.0648 -1.2139  2.7122
 8231TIP3    H246185   0.947   4.595   5.013 -1.3840  2.1209  2.0541
 8232TIP3   OH246186   0.844   2.098   0.279  0.0384 -0.1086  0.5730
 8232TIP3    H146187   0.758   2.063   0.256 -0.4712  1.7702 -0.5023
 8232TIP3    H246188   0.853   2.080   0.373 -2.1030  0.8293  0.9809
 8233TIP3   OH246189   4.000   2.182   2.711 -0.4779  0.4097  0.4303
 8233TIP3    H146190   3.970   2.136   2.789  0.1937 -0.0998  0.4021
 8233TIP3    H246191   4.043   2.114   2.659  1.2096  1.2258  0.7358
 8234TIP3   OH246192   6.421   0.229  12.876  0.0727 -0.0363  0.3841
 8234TIP3    H146193   6.468   0.205  12.796 -0.3372 -0.0635  0.1502
 8234TIP3    H246194   6.466   0.181  12.946  0.1129 -0.4079  0.1005
 8235TIP3   OH246195   6.745   4.293  13.649  0.0261 -0.2761 -0.5317
 8235TIP3    H146196   6.819   4.236  13.671  0.0321 -0.6085 -1.3821
 8235TIP3    H246197   6.686   4.237  13.599 -2.0625 -0.7392  2.3603
 8236TIP3   OH246198   1.247   1.438   6.239  0.5215 -0.4528  0.0871
 8236TIP3    H146199   1.259   1.361   6.184  2.3408  0.5994 -1.0735
 8236TIP3    H246200   1.166   1.478   6.208  2.5553  1.2677 -3.3889
 8237TIP3   OH246201   5.574   5.224   3.630 -0.2651 -0.4117  0.4882
 8237TIP3    H146202   5.559   5.310   3.670  0.5669  0.1489 -0.3930
 8237TIP3    H246203   5.590   5.166   3.705 -2.1801 -0.1023  1.1846
 8238TIP3   OH246204   3.265   2.747   5.339  0.0890  0.0811  0.1272
 8238TIP3    H146205   3.273   2.779   5.249 -0.3546 -0.0578  0.0332
 8238TIP3    H246206   3.212   2.667   5.331  1.5272 -0.9124  0.3012
 8239TIP3   OH246207   4.460   0.645  14.661  0.0884 -0.2484  0.4340
 8239TIP3    H146208   4.435   0.621  14.572 -3.6206  0.7435  1.1167
 8239TIP3    H246209   4.454   0.741  14.661  0.6672 -0.2149  1.5744
 8240TIP3   OH246210   2.157   4.592   1.114 -0.3051  0.4711  0.2756
 8240TIP3    H146211   2.253   4.601   1.118 -0.4133  2.1006 -0.2851
 8240TIP3    H246212   2.126   4.680   1.092 -1.7792 -0.5916 -2.0507
 8241TIP3   OH246213   5.552   2.247   0.849  0.5893  0.1024  0.2023
 8241TIP3    H146214   5.506   2.187   0.908  2.2102  0.9889  2.4528
 8241TIP3    H246215   5.617   2.192   0.805 -0.7780 -0.6092 -0.9858
 8242TIP3   OH246216   2.535   6.448  15.666  0.4446  0.0642  0.2658
 8242TIP3    H146217   2.548   6.540  15.691  0.5732 -0.0243  0.5223
 8242TIP3    H246218   2.486   6.453  15.584 -1.4302  0.3226  1.3744
 8243TIP3   OH246219   0.391   4.787  14.806  0.1357  0.6361  0.5403
 8243TIP3    H146220   0.311   4.794  14.858 -0.3521  2.5878 -0.4296
 8243TIP3    H246221   0.461   4.813  14.867 -0.1260  0.3439  0.9668
 8244TIP3   OH246222   2.845   4.020  10.717  0.2646  0.2652  0.0251
 8244TIP3    H146223   2.872   4.111  10.704 -0.7623  0.4486 -0.9376
 8244TIP3    H246224   2.750   4.023  10.712  0.2649 -0.9788 -0.7364
 8245TIP3   OH246225   6.236   3.130  12.683 -0.3988 -0.2297  0.4249
 8245TIP3    H146226   6.168   3.158  12.622 -1.6850  0.3523  2.1039
 8245TIP3    H246227   6.307   3.099  12.626 -1.1626  1.2104 -1.3742
 8246TIP3   OH246228   2.872   2.375   6.468  0.0209 -0.7140 -0.3998
 8246TIP3    H146229   2.815   2.411   6.536  0.2064  1.2667 -1.2418
 8246TIP3    H246230   2.866   2.439   6.397  3.6627 -0.2157 -0.3312
 8247TIP3   OH246231   6.001   2.910   3.679 -0.0577 -0.1505  0.1439
 8247TIP3    H146232   6.031   2.837   3.733 -4.7280 -0.8415  2.1012
 8247TIP3    H246233   5.974   2.977   3.741 -2.3741  0.3934 -1.3705
 8248TIP3   OH246234   6.512   2.890  15.519  0.2589 -0.4092 -0.5976
 8248TIP3    H146235   6.597   2.932  15.529  0.1427  0.2950 -2.3930
 8248TIP3    H246236   6.450   2.963  15.509 -0.6878 -0.8860  1.4999
 8249TIP3   OH246237   2.581   0.208  17.110  1.0223  0.8860  0.3115
 8249TIP3    H146238   2.555   0.225  17.201  2.0220  0.0469  0.7647
 8249TIP3    H246239   2.527   0.268  17.058 -0.9954 -0.0098  1.3133
 8250TIP3   OH246240   6.349   6.280   0.703  0.3749  0.3959  0.5449
 8250TIP3    H146241   6.436   6.298   0.740  0.9518 -1.2822  0.0686
 8250TIP3    H246242   6.289   6.332   0.756  1.6447  1.3285  1.0947
 8251TIP3   OH246243   5.795   5.075   3.756 -0.5483 -0.1776 -0.4404
 8251TIP3    H146244   5.860   5.007   3.777 -0.0209  0.2068 -0.8122
 8251TIP3    H246245   5.734   5.074   3.830  0.6335  0.3635  0.5606
 8252TIP3   OH246246   5.378   5.831   2.638 -0.5913 -0.2189  0.6017
 8252TIP3    H146247   5.324   5.766   2.684 -2.0538 -0.4083 -1.3137
 8252TIP3    H246248   5.452   5.780   2.605 -1.0813 -0.6987  0.2105
 8253TIP3   OH246249   5.775   1.969  12.121  0.4309 -0.1271  0.1766
 8253TIP3    H146250   5.720   2.046  12.108 -0.1564 -0.6330 -0.3679
 8253TIP3    H246251   5.713   1.899  12.143  0.9057 -0.5845  0.0579
 8254TIP3   OH246252   2.786   5.475   3.773 -0.2274  0.2664  0.5884
 8254TIP3    H146253   2.698   5.443   3.753 -0.4935  0.8673  0.8011
 8254TIP3    H246254   2.843   5.401   3.752 -0.8140 -0.2446  0.7839
 8255TIP3   OH246255   0.738   4.227   3.525  0.3211  0.0150 -0.0434
 8255TIP3    H146256   0.660   4.216   3.579  0.9728  0.0917  0.9280
 8255TIP3    H246257   0.729   4.315   3.488 -0.0545  0.0204  0.0592
 8256TIP3   OH246258   1.884   0.436   1.404  0.3076  0.0457 -0.6403
 8256TIP3    H146259   1.807   0.493   1.408 -0.6011 -1.1028 -1.4054
 8256TIP3    H246260   1.887   0.395   1.490 -0.8971 -1.1113 -1.1255
 8257TIP3   OH246261   1.983   0.436   3.938 -0.3213  0.0264  0.1392
 8257TIP3    H146262   1.903   0.423   3.887  0.2267 -0.5894 -0.5781
 8257TIP3    H246263   2.048   0.380   3.895  0.3109 -0.0172  1.1355
 8258TIP3   OH246264   2.459   6.073  11.908 -0.4003  0.0768 -0.2425
 8258TIP3    H146265   2.539   6.077  11.856 -0.3382  1.3936 -0.0702
 8258TIP3    H246266   2.427   5.983  11.898  0.8207 -0.3032 -0.7240
 8259TIP3   OH246267   3.879   2.141  15.118 -0.1342  0.5628  0.2659
 8259TIP3    H146268   3.879   2.181  15.205  1.3165  0.2949  0.3923
 8259TIP3    H246269   3.954   2.179  15.073 -1.0259  0.9016 -0.9813
 8260TIP3   OH246270   0.077   2.076  11.144  0.3762  0.3723  0.3659
 8260TIP3    H146271   0.166   2.108  11.133  1.2463 -2.0089  0.2973
 8260TIP3    H246272   0.056   2.093  11.236  0.4442  2.0110  0.0898
 8261TIP3   OH246273   0.623   2.908  14.629  0.1119 -0.1376 -0.0421
 8261TIP3    H146274   0.708   2.931  14.666 -0.0392 -0.2511  0.3779
 8261TIP3    H246275   0.639   2.900  14.535  0.4060  0.5608 -0.0543
 8262TIP3   OH246276   2.594   3.948   5.538  0.2834  0.6478  0.0011
 8262TIP3    H146277   2.630   4.008   5.472  1.8046  1.6336  1.6716
 8262TIP3    H246278   2.530   4.001   5.586 -0.2259  0.1733 -0.1489
 8263TIP3   OH246279   2.269   1.917  16.069 -0.1228  0.5511  0.0048
 8263TIP3    H146280   2.229   1.954  16.148  0.7013  0.2891  0.5452
 8263TIP3    H246281   2.262   1.987  16.004  1.2794  1.6268  0.9777
 8264TIP3   OH246282   2.921   5.623   1.405 -0.3181  0.3077  0.4007
 8264TIP3    H146283   2.830   5.594   1.395 -0.3707  0.3584  0.7322
 8264TIP3    H246284   2.935   5.686   1.335 -0.5779  0.3942  0.4285
 8265TIP3   OH246285   6.424   2.252   2.987 -0.0710 -0.6519 -0.0507
 8265TIP3    H146286   6.519   2.243   2.986 -0.1970 -1.9876 -1.6701
 8265TIP3    H246287   6.401   2.284   2.900 -1.1360 -0.8220  0.1528
 8266TIP3   OH246288   6.743   4.823   4.254  0.7273 -0.3918 -0.1078
 8266TIP3    H146289   6.740   4.728   4.257 -0.0797 -0.3682 -0.0049
 8266TIP3    H246290   6.736   4.851   4.346 -1.7691 -0.1845 -0.3215
 8267TIP3   OH246291   1.258   0.383   4.327 -0.1265 -0.4626 -0.3844
 8267TIP3    H146292   1.227   0.442   4.396 -2.3982 -1.5049 -0.4932
 8267TIP3    H246293   1.341   0.349   4.361 -0.9848 -0.6080  1.6605
 8268TIP3   OH246294   3.613   4.177  14.488 -0.1892 -0.3197  0.0233
 8268TIP3    H146295   3.663   4.203  14.411 -1.4640 -0.9319 -1.0417
 8268TIP3    H246296   3.523   4.205  14.468 -0.6676 -1.1472  0.9717
 8269TIP3   OH246297   4.825   2.126  12.089  0.1832 -0.6085 -0.3782
 8269TIP3    H146298   4.772   2.187  12.037 -3.2231 -2.0248  1.3127
 8269TIP3    H246299   4.819   2.043  12.042  1.9318 -0.5106 -0.8046
 8270TIP3   OH246300   0.423   3.869  16.417  0.6434  0.0574 -0.4042
 8270TIP3    H146301   0.379   3.954  16.412  0.3866 -0.1537 -2.2629
 8270TIP3    H246302   0.465   3.859  16.331  0.4693 -1.7880 -0.2969
 8271TIP3   OH246303   3.316   1.140   2.499 -0.2604 -0.2757 -0.1459
 8271TIP3    H146304   3.249   1.074   2.481  0.9494 -1.2099 -1.4010
 8271TIP3    H246305   3.298   1.169   2.588 -2.0238 -0.8571 -0.2912
 8272TIP3   OH246306   4.959   3.553   2.075  0.0069  0.2722 -0.7753
 8272TIP3    H146307   4.972   3.648   2.068 -1.8885  0.5008 -1.2978
 8272TIP3    H246308   4.878   3.543   2.125 -0.2182 -1.0627 -1.3910
 8273TIP3   OH246309   2.661   4.512  14.941  0.2240  0.4307  0.7190
 8273TIP3    H146310   2.702   4.426  14.934 -0.5896  0.0580  0.5495
 8273TIP3    H246311   2.623   4.514  15.028 -1.3673 -0.0993  0.0471
 8274TIP3   OH246312   3.985   0.784   5.876  0.4849 -0.5433 -0.1938
 8274TIP3    H146313   3.979   0.783   5.972  4.2175 -0.4588  0.1257
 8274TIP3    H246314   4.071   0.823   5.858 -0.6385  0.4941 -3.6201
 8275TIP3   OH246315   2.569   2.576  13.764  0.3826  0.0224 -0.5296
 8275TIP3    H146316   2.565   2.516  13.839  1.9846 -0.3597 -0.7316
 8275TIP3    H246317   2.490   2.629  13.772 -0.5092 -1.3981  0.2628
 8276TIP3   OH246318   0.320   2.463   4.254  0.8298  0.7689 -0.0479
 8276TIP3    H146319   0.272   2.531   4.303  1.5170  0.7927  0.6071
 8276TIP3    H246320   0.256   2.392   4.243  0.2359  1.3377 -0.3609
 8277TIP3   OH246321   5.923   3.134   5.058 -0.4866  0.4711 -0.0456
 8277TIP3    H146322   5.848   3.145   5.000 -0.8558 -0.4897  0.2317
 8277TIP3    H246323   5.997   3.166   5.007 -0.8393 -0.1433 -0.9679
 8278TIP3   OH246324   0.606   3.863   1.029  0.1266 -0.1238  0.4635
 8278TIP3    H146325   0.585   3.941   1.081 -1.4633 -0.0096 -0.3102
 8278TIP3    H246326   0.666   3.894   0.962 -1.0350  0.6021 -0.2614
 8279TIP3   OH246327   0.971   1.280   4.799 -0.0857  0.1411 -0.3301
 8279TIP3    H146328   1.024   1.235   4.733  0.4290  2.5370 -1.6282
 8279TIP3    H246329   0.882   1.278   4.764 -0.2782 -0.9432  0.2166
 8280TIP3   OH246330   6.554   3.997   5.478  0.4167  0.8153  0.2714
 8280TIP3    H146331   6.631   3.961   5.522  1.0192  3.4602  1.4273
 8280TIP3    H246332   6.480   3.955   5.521  1.0939  1.1487  1.7734
 8281TIP3   OH246333   5.701   3.080   3.604  0.0422  0.2048 -0.1109
 8281TIP3    H146334   5.667   3.000   3.564 -0.8822  0.1084  0.8476
 8281TIP3    H246335   5.748   3.124   3.533 -0.1928 -0.7563 -0.8732
 8282TIP3   OH246336   6.170   3.397   4.474  0.0934 -0.2411 -0.3869
 8282TIP3    H146337   6.136   3.486   4.480  0.2098 -0.2096 -0.1849
 8282TIP3    H246338   6.213   3.393   4.389  0.4867  0.0322 -0.1992
 8283TIP3   OH246339   6.387   4.620  16.855  0.3608  0.6473  0.3671
 8283TIP3    H146340   6.323   4.664  16.912 -1.0862 -1.9602  0.8505
 8283TIP3    H246341   6.469   4.624  16.904 -0.6711 -0.8029  2.3276
 8284TIP3   OH246342   1.622   5.060  12.324  0.6820 -0.3541  0.1203
 8284TIP3    H146343   1.549   5.109  12.363  2.2534  1.2983  1.0359
 8284TIP3    H246344   1.681   5.042  12.397  0.1727 -3.6582 -0.2070
 8285TIP3   OH246345   1.610   0.707   4.340  0.2401 -0.5744 -0.3210
 8285TIP3    H146346   1.698   0.703   4.301 -0.0294 -0.9487 -0.9027
 8285TIP3    H246347   1.624   0.748   4.425  0.9144 -0.1971 -0.6016
 8286TIP3   OH246348   2.161   5.700  16.360  0.2961  0.3403  0.3931
 8286TIP3    H146349   2.106   5.623  16.375  0.5662  0.2493  0.9203
 8286TIP3    H246350   2.239   5.666  16.317  0.7328  0.2138  1.2737
 8287TIP3   OH246351   5.879   1.477  14.491  0.2341 -0.4850 -0.4327
 8287TIP3    H146352   5.790   1.508  14.503  0.3505 -0.2174 -0.2488
 8287TIP3    H246353   5.893   1.414  14.562  0.9594  1.1796  0.9527
 8288TIP3   OH246354   1.548   6.043   5.400 -0.4011  0.3247  0.3660
 8288TIP3    H146355   1.529   6.135   5.381 -0.7217  0.0275 -0.7410
 8288TIP3    H246356   1.506   5.994   5.330 -0.1893 -0.6725  0.9242
 8289TIP3   OH246357   2.157   4.909   2.152  0.1842  0.0283 -0.3761
 8289TIP3    H146358   2.233   4.959   2.124  0.0300  0.1883 -0.5088
 8289TIP3    H246359   2.136   4.853   2.077  1.5448 -1.6555  0.4626
 8290TIP3   OH246360   5.515   6.695  15.938  0.3055 -0.0457 -0.0888
 8290TIP3    H146361   5.432   6.679  15.983  0.9774 -0.6039  0.9621
 8290TIP3    H246362   5.501   6.777  15.890 -0.6525  0.1737  0.5631
 8291TIP3   OH246363   3.937   5.738   5.911 -0.6083  0.0801  0.4035
 8291TIP3    H146364   3.903   5.812   5.962  0.2756  0.0786  1.0058
 8291TIP3    H246365   3.963   5.673   5.977  2.3495  0.8482  0.0703
 8292TIP3   OH246366   4.335   1.564   1.152  0.2527  0.0096  0.6752
 8292TIP3    H146367   4.307   1.473   1.147  0.8207 -0.1117 -0.5149
 8292TIP3    H246368   4.306   1.593   1.239  0.9031 -1.5793  1.4521
 8293TIP3   OH246369   3.423   1.356   5.136  0.3414  0.0240  0.0322
 8293TIP3    H146370   3.514   1.329   5.148  0.7736  1.2592 -0.3723
 8293TIP3    H246371   3.373   1.274   5.140  1.4823 -0.6869  0.0596
 8294TIP3   OH246372   6.382   6.385  16.068  0.4972  0.3762 -0.0524
 8294TIP3    H146373   6.448   6.436  16.021  1.4034 -1.1462 -0.4657
 8294TIP3    H246374   6.400   6.294  16.043 -1.1826 -0.1379  0.5471
 8295TIP3   OH246375   5.758   3.017  16.023 -0.6220  0.7592  0.0318
 8295TIP3    H146376   5.774   3.018  15.929 -1.8594  0.3927 -0.1960
 8295TIP3    H246377   5.843   2.998  16.062 -0.5449 -1.3015 -1.1054
 8296TIP3   OH246378   0.005   0.086  11.311  0.1847  0.0292  0.1826
 8296TIP3    H146379  -0.063   0.148  11.286 -0.3066 -0.1321  1.1047
 8296TIP3    H246380   0.050   0.129  11.385  2.8989  1.3991 -2.1545
 8297TIP3   OH246381   5.746   6.728  14.135 -0.6013 -0.5288  0.8504
 8297TIP3    H146382   5.686   6.789  14.090  1.1224  0.9772  0.5164
 8297TIP3    H246383   5.732   6.644  14.091 -0.1120  0.5530 -1.4742
 8298TIP3   OH246384   6.304   3.103   3.818 -0.2100 -0.2065  0.1967
 8298TIP3    H146385   6.257   3.066   3.743 -1.7193 -1.0299  1.5325
 8298TIP3    H246386   6.384   3.051   3.824  0.6089  0.7900 -1.7059
 8299TIP3   OH246387   0.778   2.617   6.367  0.7015  0.2365 -0.2474
 8299TIP3    H146388   0.763   2.703   6.326  0.1862  0.8959  1.2702
 8299TIP3    H246389   0.865   2.624   6.405 -0.2539  0.9695  1.9195
 8300TIP3   OH246390   2.852   5.249   2.758 -0.3219 -0.3852 -0.1980
 8300TIP3    H146391   2.790   5.184   2.791 -0.4339 -0.2412 -0.1307
 8300TIP3    H246392   2.841   5.325   2.814 -0.2461 -0.2766 -0.3289
 8301TIP3   OH246393   5.355   0.964   4.060  0.2288 -0.3566 -0.0142
 8301TIP3    H146394   5.413   0.950   4.135 -0.2969 -0.8473  0.3046
 8301TIP3    H246395   5.413   0.995   3.990  0.8562 -0.7189  0.3445
 8302TIP3   OH246396   6.020   6.639   0.091  0.7732 -0.1811  0.3818
 8302TIP3    H146397   6.012   6.587   0.010 -0.6034 -0.4465  0.6782
 8302TIP3    H246398   6.041   6.575   0.158 -0.6816 -0.3289  0.7037
 8303TIP3   OH246399   6.769   0.221   2.607 -0.3092  1.0612  0.4735
 8303TIP3    H146400   6.808   0.191   2.525 -0.0913  2.7327 -0.0400
 8303TIP3    H246401   6.680   0.246   2.584 -1.2442 -1.3153  1.3556
 8304TIP3   OH246402   5.628   0.099  14.803 -0.5178 -0.5368  0.3121
 8304TIP3    H146403   5.571   0.104  14.879 -0.5213 -1.2785  0.3564
 8304TIP3    H246404   5.715   0.079  14.839 -0.0931  1.1764  0.2993
 8305TIP3   OH246405   2.565   3.935  16.074 -0.3049  0.1687 -0.1194
 8305TIP3    H146406   2.634   3.989  16.036  0.6092 -0.7452  0.2023
 8305TIP3    H246407   2.572   3.951  16.168 -1.3277  0.9880 -0.1714
 8306TIP3   OH246408   4.703   1.618  12.068 -0.3822 -0.3848  0.0105
 8306TIP3    H146409   4.675   1.567  11.992  0.3163 -0.6758 -0.0579
 8306TIP3    H246410   4.623   1.658  12.101 -1.1123 -2.4228  0.7295
 8307TIP3   OH246411   3.721   0.003   1.917  0.3984  0.4251  0.5933
 8307TIP3    H146412   3.688   0.090   1.895  1.6104  0.8319  0.3411
 8307TIP3    H246413   3.647  -0.040   1.960 -0.6686  1.0864 -0.5252
 8308TIP3   OH246414   1.642   1.442  15.845  0.1935  0.3107  0.8598
 8308TIP3    H146415   1.656   1.525  15.890 -0.8871  0.6143  0.6564
 8308TIP3    H246416   1.564   1.405  15.886 -0.7690  0.5572 -0.6775
 8309TIP3   OH246417   2.917   5.503   4.110  0.3134  0.3165 -0.4248
 8309TIP3    H146418   2.893   5.511   4.202 -2.2212  0.2870 -1.0576
 8309TIP3    H246419   2.984   5.435   4.109 -0.7950 -0.8479  1.2180
 8310TIP3   OH246420   0.419   0.215  16.191 -0.3814  0.1416  0.1980
 8310TIP3    H146421   0.422   0.158  16.268 -0.3212 -0.1404 -0.0106
 8310TIP3    H246422   0.485   0.178  16.132  1.2557  1.7536  0.9740
 8311TIP3   OH246423   4.628   5.118  13.608  0.4419  0.1398 -0.4959
 8311TIP3    H146424   4.638   5.126  13.702  0.8527 -2.1080 -0.3232
 8311TIP3    H246425   4.533   5.118  13.593  0.3608 -0.5706  0.0218
 8312TIP3   OH246426   0.568   6.282  14.378  0.3434 -0.3765 -0.6291
 8312TIP3    H146427   0.585   6.229  14.300  2.7962 -1.2453  0.4610
 8312TIP3    H246428   0.643   6.342  14.383 -0.7318  0.9525  0.0320
 8313TIP3   OH246429   5.801   2.345   0.017  0.0407 -0.1666  0.6152
 8313TIP3    H146430   5.886   2.387   0.002  0.4355 -0.7667  1.1334
 8313TIP3    H246431   5.783   2.296  -0.063  0.4689 -0.5212  0.7352
 8314TIP3   OH246432   1.103   2.951  12.682  0.2643  0.0154 -0.2475
 8314TIP3    H146433   1.126   2.901  12.604 -1.1090 -0.9618 -0.0573
 8314TIP3    H246434   1.080   3.038  12.649  0.3383 -0.1913 -0.8567
 8315TIP3   OH246435   5.195   0.341  14.426  0.0287  0.6141  0.2596
 8315TIP3    H146436   5.131   0.281  14.387  0.5102  0.0976  0.2635
 8315TIP3    H246437   5.149   0.379  14.501  0.4308 -1.3327  1.5190
 8316TIP3   OH246438   1.108   3.361  14.122 -0.0615 -0.2995  0.0371
 8316TIP3    H146439   1.176   3.414  14.081 -1.0317  0.5760 -0.4575
 8316TIP3    H246440   1.139   3.346  14.211  1.4692 -1.1454 -0.6070
 8317TIP3   OH246441   6.701   2.602   1.637 -0.2567  0.4521 -0.1323
 8317TIP3    H146442   6.688   2.602   1.732 -0.4171 -0.3504 -0.1466
 8317TIP3    H246443   6.776   2.658   1.623  0.1913  0.0310  0.5375
 8318TIP3   OH246444   2.016   3.196  15.642  0.3506  0.2694 -0.1074
 8318TIP3    H146445   1.954   3.128  15.669  0.2494 -0.6252 -2.4364
 8318TIP3    H246446   2.102   3.159  15.660  0.2714 -0.0562 -0.3889
 8319TIP3   OH246447   3.640   5.250   3.966  0.3973  0.4388  0.1463
 8319TIP3    H146448   3.611   5.337   3.995 -0.9473  0.6236 -1.6573
 8319TIP3    H246449   3.601   5.240   3.879  2.0299 -1.2331 -0.4225
 8320TIP3   OH246450   3.948   6.167   4.261  0.2831  0.0812  0.0040
 8320TIP3    H146451   3.863   6.123   4.263  0.0183  0.4818 -1.6108
 8320TIP3    H246452   3.963   6.194   4.352 -0.9198 -0.7326  0.4577
 8321TIP3   OH246453   5.736   1.186  16.557  0.0606  0.4091  0.4238
 8321TIP3    H146454   5.755   1.179  16.651 -2.1335 -0.3396  0.8364
 8321TIP3    H246455   5.729   1.096  16.527  2.7337  0.6039 -0.9291
 8322TIP3   OH246456   6.146   5.710   3.741 -0.1915 -0.4657  0.2690
 8322TIP3    H146457   6.069   5.687   3.794 -0.7312 -0.5826 -0.5564
 8322TIP3    H246458   6.123   5.795   3.702  0.2193 -0.3674  0.2394
 8323TIP3   OH246459   1.600   4.797  12.235 -0.2622  0.0122  0.1182
 8323TIP3    H146460   1.624   4.882  12.271  0.0103  0.5884 -1.3652
 8323TIP3    H246461   1.670   4.778  12.172 -1.7429 -0.0120 -1.5601
 8324TIP3   OH246462   6.009   3.017  16.143  0.1304  0.2783  0.1051
 8324TIP3    H146463   6.068   3.011  16.068 -0.5989 -0.9970 -0.3880
 8324TIP3    H246464   6.060   3.061  16.211  0.7545  1.5445 -1.1675
 8325TIP3   OH246465   3.997   3.042  12.145  0.2540 -0.1774  0.1442
 8325TIP3    H146466   3.977   3.120  12.093 -0.1714  0.2569  0.9575
 8325TIP3    H246467   4.049   3.075  12.218  0.2505 -0.6965  0.3802
 8326TIP3   OH246468   5.555   1.002  13.492 -0.3440  0.2869  0.6745
 8326TIP3    H146469   5.534   1.028  13.581 -0.5760 -1.5295  1.1637
 8326TIP3    H246470   5.582   0.910  13.499 -1.9581 -0.3896 -1.3296
 8327TIP3   OH246471   5.371   4.684  16.845 -0.2388 -0.0452  0.1005
 8327TIP3    H146472   5.419   4.650  16.921 -0.3927  0.0191  0.2269
 8327TIP3    H246473   5.355   4.776  16.866 -1.5558 -0.3851  0.6409
 8328TIP3   OH246474   3.275   4.233   4.454 -0.0605 -0.1429  0.6747
 8328TIP3    H146475   3.200   4.265   4.405  0.0361  0.2918  0.8083
 8328TIP3    H246476   3.239   4.206   4.539 -0.5169 -2.5476 -0.2541
 8329TIP3   OH246477   3.880   2.894  13.269 -0.4896  0.3158 -0.4567
 8329TIP3    H146478   3.880   2.990  13.264  0.5260  0.3357 -0.1337
 8329TIP3    H246479   3.972   2.870  13.264 -0.7385 -0.6427 -0.4152
 8330TIP3   OH246480   5.604   5.522  15.528 -0.1639 -0.4062  0.0522
 8330TIP3    H146481   5.584   5.456  15.594 -1.8089  2.2737  2.3553
 8330TIP3    H246482   5.686   5.562  15.558  0.6403 -1.1295 -1.1402
 8331TIP3   OH246483   1.156   0.345   3.807 -0.1527  0.7684  0.3092
 8331TIP3    H146484   1.144   0.385   3.893  0.1974 -0.4839  0.9532
 8331TIP3    H246485   1.205   0.265   3.824 -0.8359  0.0581 -0.9605
 8332TIP3   OH246486   4.938   3.268   2.109  0.2009  0.2071 -0.3218
 8332TIP3    H146487   4.931   3.323   2.187 -0.4606  0.0518 -0.2667
 8332TIP3    H246488   5.029   3.276   2.082  0.7430 -0.7517  1.2026
 8333TIP3   OH246489   4.938   5.140  11.194  0.2717  0.0717  0.3063
 8333TIP3    H146490   4.975   5.079  11.130  0.7695 -0.9326  1.5059
 8333TIP3    H246491   4.857   5.170  11.155 -0.2319 -1.7513 -0.1181
 8334TIP3   OH246492   4.135   4.155   3.047 -0.8364 -0.1176  0.2567
 8334TIP3    H146493   4.060   4.213   3.034 -0.3087  0.7085  0.8437
 8334TIP3    H246494   4.152   4.158   3.141 -1.2881 -1.8429  0.4062
 8335TIP3   OH246495   6.561   3.768   2.244  0.1344  0.6197 -0.0384
 8335TIP3    H146496   6.599   3.741   2.328  0.7970  1.8108  0.0732
 8335TIP3    H246497   6.547   3.862   2.255 -1.5786  0.4268 -0.5943
 8336TIP3   OH246498   2.620   0.140  15.958 -0.1484  0.0209  0.4458
 8336TIP3    H146499   2.566   0.112  16.032 -0.1018  0.4695  0.6516
 8336TIP3    H246500   2.612   0.236  15.957  0.4449  0.0717  0.3198
 8337TIP3   OH246501   3.099   6.487   5.622 -0.6979  0.4204 -0.0050
 8337TIP3    H146502   3.173   6.511   5.567 -0.5340  0.0841  0.0629
 8337TIP3    H246503   3.112   6.393   5.640 -1.9166  0.0043 -1.1960
 8338TIP3   OH246504   2.860   5.383   0.019  0.4204 -0.3710  1.2695
 8338TIP3    H146505   2.899   5.444  -0.043 -1.3526  0.3494  0.8419
 8338TIP3    H246506   2.819   5.316  -0.035 -2.9376  1.3564  1.5041
 8339TIP3   OH246507   6.484   2.799  11.949  0.4186 -0.3985  0.5961
 8339TIP3    H146508   6.577   2.820  11.948  0.1751  0.7028 -0.9079
 8339TIP3    H246509   6.474   2.736  12.020  2.5460 -1.6810 -0.2163
 8340TIP3   OH246510   0.511   3.645  11.783  0.2928 -0.2786 -0.3939
 8340TIP3    H146511   0.576   3.716  11.781 -0.1552  0.1220 -0.8537
 8340TIP3    H246512   0.552   3.577  11.837  0.6986  0.3562  0.1139
 8341TIP3   OH246513   1.875   2.871   4.788  0.3110  0.1350 -0.0545
 8341TIP3    H146514   1.898   2.912   4.871  2.1908 -1.5181  0.2847
 8341TIP3    H246515   1.908   2.782   4.795 -0.4589 -0.3588 -2.1710
 8342TIP3   OH246516   0.116   3.092  12.805 -0.0601  0.4464  0.1220
 8342TIP3    H146517   0.088   3.117  12.717  0.1293  0.4033  0.0501
 8342TIP3    H246518   0.038   3.053  12.845  0.3271 -1.1036 -0.6110
 8343TIP3   OH246519   6.689   4.942   5.158  0.2784  0.0712  0.3653
 8343TIP3    H146520   6.622   4.967   5.095  1.0581 -0.0005 -0.4907
 8343TIP3    H246521   6.640   4.917   5.236 -0.6542  0.9635  0.0767
 8344TIP3   OH246522   3.652   4.813   4.502  0.2618 -0.6427  0.8400
 8344TIP3    H146523   3.642   4.892   4.555  1.4049  0.7217 -0.8909
 8344TIP3    H246524   3.582   4.819   4.436  1.1510 -0.3691 -0.1028
 8345TIP3   OH246525   4.420   6.455   0.649 -0.3423 -0.3993  0.0122
 8345TIP3    H146526   4.444   6.523   0.712 -0.0079 -0.3699 -0.1502
 8345TIP3    H246527   4.325   6.447   0.658 -0.3179 -0.2717  0.3951
 8346TIP3   OH246528   1.505   2.404   6.202  0.0282 -0.1492  0.0620
 8346TIP3    H146529   1.424   2.446   6.231 -0.3030 -0.0528 -0.9812
 8346TIP3    H246530   1.521   2.335   6.267 -0.4487  0.3544  0.7216
 8347TIP3   OH246531   6.714   6.539  13.565 -0.3338  0.0363 -0.1352
 8347TIP3    H146532   6.643   6.480  13.588  0.1794  0.2502  2.0840
 8347TIP3    H246533   6.788   6.482  13.547 -0.6781 -0.1218 -1.0852
 8348TIP3   OH246534   0.280   1.225   6.103 -0.4582  0.5575 -0.4773
 8348TIP3    H146535   0.249   1.191   6.019 -0.2518  1.3125 -0.8621
 8348TIP3    H246536   0.305   1.315   6.084 -0.9290  0.9028  0.5159
 8349TIP3   OH246537   1.157   5.517   4.200 -0.1981  0.2854 -0.2926
 8349TIP3    H146538   1.214   5.487   4.128  0.4651 -0.2932  0.4607
 8349TIP3    H246539   1.201   5.594   4.235  0.8681 -0.9603  1.1808
 8350TIP3   OH246540   5.384   3.111  16.944 -0.2661 -0.2221  0.5141
 8350TIP3    H146541   5.326   3.066  16.882 -1.2458  0.6161  0.8036
 8350TIP3    H246542   5.388   3.201  16.912  1.8592 -0.5543 -0.1844
 8351TIP3   OH246543   0.195   4.717  14.062  0.0499  0.3555 -0.8601
 8351TIP3    H146544   0.194   4.791  14.000 -0.3471 -0.5146 -1.9096
 8351TIP3    H246545   0.103   4.695  14.074  0.1677  0.0571 -0.5196
 8352TIP3   OH246546   0.250   5.020   0.797 -0.2138 -0.4011  0.4287
 8352TIP3    H146547   0.237   5.069   0.879 -1.1629  0.4306 -0.2050
 8352TIP3    H246548   0.202   4.938   0.810  1.0029 -0.9915  1.3219
 8353TIP3   OH246549   0.824   4.022   0.971 -0.0865 -0.1392  0.1125
 8353TIP3    H146550   0.827   4.092   1.036 -0.2384  0.4599 -0.5162
 8353TIP3    H246551   0.842   4.066   0.887  0.1842 -0.9097 -0.2441
 8354TIP3   OH246552   4.656   6.392   4.291 -0.0198  0.1653  0.2235
 8354TIP3    H146553   4.710   6.439   4.228  1.0356  0.0355  1.0179
 8354TIP3    H246554   4.653   6.449   4.367  0.1557 -0.4571  0.6958
 8355TIP3   OH246555   2.537   2.797   6.652  0.1630 -0.7345  0.5209
 8355TIP3    H146556   2.613   2.850   6.625  0.5740 -1.7348 -0.3153
 8355TIP3    H246557   2.461   2.852   6.631  0.5980 -0.3355 -0.0274
 8356TIP3   OH246558   0.662   2.309   1.318 -0.2356  0.4777 -0.0899
 8356TIP3    H146559   0.645   2.218   1.343 -1.5142  0.0974 -2.2507
 8356TIP3    H246560   0.757   2.314   1.309 -0.0759 -0.3773  1.0055
 8357TIP3   OH246561   4.886   4.269   1.561  0.3832  0.0426  0.6647
 8357TIP3    H146562   4.896   4.320   1.642  1.0819 -1.0211  1.2623
 8357TIP3    H246563   4.961   4.209   1.562  0.4704  0.1136 -0.8413
 8358TIP3   OH246564   4.731   2.461  10.545  0.0644  0.2543 -0.4436
 8358TIP3    H146565   4.759   2.530  10.485 -1.2988  0.5941 -0.7020
 8358TIP3    H246566   4.640   2.484  10.567 -0.2383 -1.1960 -0.1563
 8359TIP3   OH246567   4.135   3.766  17.190 -0.9334 -0.0133  0.3961
 8359TIP3    H146568   4.062   3.811  17.146 -0.0151  1.4056  0.3014
 8359TIP3    H246569   4.195   3.744  17.119  0.0183  1.2626  0.8072
 8360TIP3   OH246570   0.300   6.528  10.395 -0.2910 -0.1271 -0.5452
 8360TIP3    H146571   0.321   6.435  10.398  0.7181  0.0949 -0.5825
 8360TIP3    H246572   0.235   6.541  10.464  0.1300 -0.7113 -0.0422
 8361TIP3   OH246573   1.318   1.749   0.021  0.0812 -0.3187 -0.3145
 8361TIP3    H146574   1.270   1.701   0.088 -1.4065  0.4147 -0.8246
 8361TIP3    H246575   1.354   1.682  -0.036 -0.0509 -0.8912  0.2716
 8362TIP3   OH246576   1.556   6.170  11.350  0.1919 -0.1364 -0.4952
 8362TIP3    H146577   1.486   6.117  11.389  1.3628  0.0708  1.9497
 8362TIP3    H246578   1.531   6.260  11.368  1.4700 -0.0842  1.1041
 8363TIP3   OH246579   2.847   3.784  15.158  0.5107  0.6459  0.4617
 8363TIP3    H146580   2.766   3.786  15.209  1.2172  0.4729  1.5944
 8363TIP3    H246581   2.912   3.747  15.217  1.3991  0.6778 -0.4830
 8364TIP3   OH246582   3.464   6.085  10.874 -0.4208  0.3635  0.2260
 8364TIP3    H146583   3.553   6.097  10.905 -0.2412 -0.8269  0.2003
 8364TIP3    H246584   3.473   6.042  10.789 -1.0121  0.3140  0.1804
 8365TIP3   OH246585   3.597   3.089   5.272  0.1557  0.4544 -0.2388
 8365TIP3    H146586   3.686   3.080   5.238  0.5703  3.3714 -0.0936
 8365TIP3    H246587   3.552   3.142   5.206 -1.1423 -0.0752  0.2169
 8366TIP3   OH246588   4.992   0.437   0.141  0.2833 -0.6723 -0.0926
 8366TIP3    H146589   4.967   0.526   0.117 -0.9587 -1.4000 -1.6011
 8366TIP3    H246590   5.078   0.425   0.100 -0.2670 -0.7020 -1.2562
 8367TIP3   OH246591   4.511   1.134  10.527 -0.4806 -0.9872 -0.5339
 8367TIP3    H146592   4.496   1.183  10.447  3.4005  1.0461 -0.1676
 8367TIP3    H246593   4.550   1.052  10.498  1.6858  0.0821 -0.7896
 8368TIP3   OH246594   1.334   1.821  12.761 -0.0586  0.2672  0.5453
 8368TIP3    H146595   1.271   1.880  12.718 -1.9080 -0.8089  1.7483
 8368TIP3    H246596   1.369   1.768  12.690  0.6148  1.8569 -0.3522
 8369TIP3   OH246597   4.396   0.478   0.558  0.3268 -0.2167 -0.7156
 8369TIP3    H146598   4.350   0.552   0.597 -1.0751 -1.0213 -0.8112
 8369TIP3    H246599   4.478   0.515   0.526 -0.5195  1.3768 -1.1020
 8370TIP3   OH246600   3.067   5.806  12.152  0.5819  0.2242 -0.0871
 8370TIP3    H146601   3.086   5.793  12.059 -1.1638 -1.7215 -0.2033
 8370TIP3    H246602   3.132   5.870  12.181  2.1221 -0.2985 -2.2800
 8371TIP3   OH246603   4.672   2.576  15.707  0.1675 -0.1592 -0.1654
 8371TIP3    H146604   4.764   2.593  15.686  0.1343  0.7973  0.4679
 8371TIP3    H246605   4.674   2.538  15.795  0.0611 -1.4111 -0.6934
 8372TIP3   OH246606   4.170   4.307  14.862  0.3939 -0.2107  0.0954
 8372TIP3    H146607   4.196   4.277  14.775 -0.3571  0.4408 -0.3564
 8372TIP3    H246608   4.209   4.244  14.922  0.9147 -0.6615 -0.7168
 8373TIP3   OH246609   2.151   6.322   5.195 -0.4778 -0.9144  0.0122
 8373TIP3    H146610   2.205   6.319   5.274 -0.6340 -1.0804  0.1131
 8373TIP3    H246611   2.096   6.399   5.206 -0.3571 -0.8214 -0.0286
 8374TIP3   OH246612   4.713   6.280  16.720 -0.1561  0.8897 -0.3360
 8374TIP3    H146613   4.738   6.319  16.636 -1.1408  0.3241 -0.9105
 8374TIP3    H246614   4.624   6.248  16.705  0.1500 -0.3854  0.5426
 8375TIP3   OH246615   0.138   3.063   0.490  0.0262 -0.2027  0.1775
 8375TIP3    H146616   0.064   3.096   0.540  1.8032 -0.5932  3.1551
 8375TIP3    H246617   0.212   3.117   0.517  0.9962 -0.1971 -2.3173
 8376TIP3   OH246618   3.811   3.355  15.607 -0.4279 -0.5221  0.1131
 8376TIP3    H146619   3.794   3.267  15.574 -0.2790 -0.0970 -1.1259
 8376TIP3    H246620   3.899   3.377  15.576 -1.3894  0.9863 -1.6930
 8377TIP3   OH246621   6.548   1.276  11.097 -0.4000 -0.1300  0.2861
 8377TIP3    H146622   6.551   1.182  11.080  0.6287 -0.1535  0.5637
 8377TIP3    H246623   6.586   1.316  11.018 -3.0568  0.1964 -0.8758
 8378TIP3   OH246624   4.674   0.046  12.802 -0.3071  0.8034 -0.2316
 8378TIP3    H146625   4.649   0.132  12.768 -1.5158  0.3969 -0.4320
 8378TIP3    H246626   4.636   0.043  12.890  2.1019  1.5252  0.8700
 8379TIP3   OH246627   5.905   0.169   3.768  0.3262 -0.2714  0.6036
 8379TIP3    H146628   5.971   0.231   3.737  0.8770 -2.2491 -2.3966
 8379TIP3    H246629   5.923   0.159   3.861  1.5165  2.4640  0.7130
 8380TIP3   OH246630   0.924   1.404  12.977 -0.3127  0.1147  0.4677
 8380TIP3    H146631   0.878   1.320  12.964 -0.5180  0.6461 -2.8542
 8380TIP3    H246632   1.016   1.384  12.959 -0.1197  0.2603  1.3025
 8381TIP3   OH246633   6.298   4.360  17.022 -0.1270 -0.4597  0.3258
 8381TIP3    H146634   6.289   4.433  16.962  1.3598 -0.5822 -0.0729
 8381TIP3    H246635   6.217   4.360  17.073 -0.9477  0.2885 -0.9539
 8382TIP3   OH246636   2.834   1.370  14.261 -0.1819  0.5264  0.0473
 8382TIP3    H146637   2.805   1.415  14.182 -0.3717 -2.2540 -1.5562
 8382TIP3    H246638   2.908   1.421  14.293 -1.5973  3.0305 -0.5442
 8383TIP3   OH246639   3.952   3.052   0.112 -0.8075 -0.0221  0.6096
 8383TIP3    H146640   3.965   2.964   0.147  1.8335  0.3870  0.7467
 8383TIP3    H246641   3.928   3.104   0.189  1.7189  0.2028  1.2677
 8384TIP3   OH246642   3.960   0.375   4.480 -0.3575 -0.1440 -0.1249
 8384TIP3    H146643   3.917   0.384   4.395  0.8850 -0.2336 -0.7732
 8384TIP3    H246644   3.894   0.336   4.536 -0.8360 -1.1284 -1.3472
 8385TIP3   OH246645   3.066   6.490  11.154  0.2753  0.1581 -0.0350
 8385TIP3    H146646   3.120   6.534  11.220 -1.6820 -0.6007  2.1128
 8385TIP3    H246647   3.049   6.558  11.089  1.5375  1.1528  0.6425
 8386TIP3   OH246648   4.994   2.400   2.025 -0.1351 -0.1510  0.2443
 8386TIP3    H146649   5.080   2.376   1.991  0.0192  2.1107 -1.1098
 8386TIP3    H246650   5.005   2.404   2.120  1.2371  0.0512  0.0851
 8387TIP3   OH246651   6.379   0.756   5.240 -0.1563 -0.0603  0.9341
 8387TIP3    H146652   6.386   0.664   5.214  0.8854 -0.1999  1.6735
 8387TIP3    H246653   6.300   0.787   5.197 -1.8393 -1.9501  2.5783
 8388TIP3   OH246654   2.662   1.042   6.916  0.3362 -0.1664  0.4154
 8388TIP3    H146655   2.608   1.004   6.847 -0.2398 -0.6995  1.1468
 8388TIP3    H246656   2.704   1.118   6.875 -0.6222 -0.0047 -0.2914
 8389TIP3   OH246657   0.099   1.825   5.526 -0.2289 -0.6735  0.3829
 8389TIP3    H146658   0.017   1.782   5.547 -1.1046  0.9154  0.2717
 8389TIP3    H246659   0.078   1.918   5.526  1.4181 -0.2875 -0.3019
 8390TIP3   OH246660   6.365   1.572  16.561  0.0407  0.1521 -0.5247
 8390TIP3    H146661   6.304   1.542  16.628  0.1739 -0.6158 -0.7399
 8390TIP3    H246662   6.368   1.667  16.572 -1.3764  0.2291 -0.6708
 8391TIP3   OH246663   2.792   5.589  14.651 -0.0828 -0.2115 -0.3077
 8391TIP3    H146664   2.801   5.505  14.695  0.1893  0.1434  0.3234
 8391TIP3    H246665   2.712   5.581  14.600 -2.7334  0.8375  3.5152
 8392TIP3   OH246666   4.938   5.649  14.530  0.0674 -0.1412  0.1807
 8392TIP3    H146667   5.031   5.662  14.511 -0.1513  2.3932  0.6610
 8392TIP3    H246668   4.921   5.706  14.606 -1.2544 -2.7184  1.8844
 8393TIP3   OH246669   3.464   0.249   4.718  0.4578  0.1965  0.3160
 8393TIP3    H146670   3.396   0.313   4.695  0.8372  0.8243  0.9576
 8393TIP3    H246671   3.431   0.208   4.798  1.3184  1.2279  1.2119
 8394TIP3   OH246672   3.321   3.670   3.681 -0.0707 -0.3296 -0.2158
 8394TIP3    H146673   3.230   3.644   3.667 -0.5993  0.7827  1.0111
 8394TIP3    H246674   3.355   3.690   3.594 -0.1864 -3.2737 -0.9903
 8395TIP3   OH246675   2.454   4.952  16.271  0.4672  0.3496 -1.0980
 8395TIP3    H146676   2.467   4.869  16.227  0.4549 -2.5610  4.0134
 8395TIP3    H246677   2.542   4.980  16.297  0.2015  0.3131 -0.1180
 8396TIP3   OH246678   6.084   0.973  11.134  0.3500  0.1192 -0.3000
 8396TIP3    H146679   6.062   1.065  11.120 -0.4334 -0.0409 -0.1550
 8396TIP3    H246680   6.111   0.941  11.048  3.8059  1.3133  0.2876
 8397TIP3   OH246681   5.947   6.461  14.343  0.6760 -0.5068 -0.2209
 8397TIP3    H146682   5.981   6.512  14.270  3.3418 -1.4082  0.3397
 8397TIP3    H246683   5.873   6.512  14.376  1.4218  1.4776 -1.5513
 8398TIP3   OH246684   4.319   2.451   5.079  0.4050  0.4930 -0.2718
 8398TIP3    H146685   4.364   2.367   5.069  1.5608  0.8706  1.5128
 8398TIP3    H246686   4.228   2.428   5.096  0.6896 -0.4054  0.0450
 8399TIP3   OH246687   4.888   6.329  12.341 -0.1469 -0.0168 -0.0238
 8399TIP3    H146688   4.822   6.358  12.277 -0.5091 -0.6284  0.0762
 8399TIP3    H246689   4.915   6.242  12.311 -1.2156 -0.8333  1.3533
 8400TIP3   OH246690   4.953   6.263   4.851 -0.1235  0.1470 -0.0955
 8400TIP3    H146691   4.874   6.213   4.874  0.0027 -1.0194 -2.1337
 8400TIP3    H246692   4.931   6.353   4.876 -1.0748 -0.5657  1.8244
 8401TIP3   OH246693   4.278   2.619  10.320  0.4925  0.1359  0.3775
 8401TIP3    H146694   4.262   2.621  10.226  1.8585  0.0485  0.1331
 8401TIP3    H246695   4.288   2.526  10.341  0.2444  0.1578  0.6004
 8402TIP3   OH246696   5.648   3.611  12.074 -0.2947  0.4371 -0.5006
 8402TIP3    H146697   5.605   3.655  12.147 -2.1078 -0.8720 -0.7497
 8402TIP3    H246698   5.726   3.571  12.112 -1.4242 -0.5568  0.8194
 8403TIP3   OH246699   4.109   1.975   2.521 -0.1651  0.1275  0.0441
 8403TIP3    H146700   4.141   1.886   2.511 -1.3304 -0.3602  0.5385
 8403TIP3    H246701   4.051   1.989   2.446 -1.1175 -0.0496  0.7337
 8404TIP3   OH246702   3.822   5.522   4.146  0.3934 -0.4477 -0.5425
 8404TIP3    H146703   3.843   5.473   4.226 -0.5464 -0.7856 -0.4853
 8404TIP3    H246704   3.726   5.515   4.139  0.2848  1.0714 -0.7407
 8405TIP3   OH246705   0.678   4.074  12.133  0.1676  0.2382  0.9128
 8405TIP3    H146706   0.712   4.132  12.064  1.7307 -1.1402  0.4949
 8405TIP3    H246707   0.714   4.109  12.214  0.6929  0.1759  0.7120
 8406TIP3   OH246708   3.628   6.009   4.842 -0.1517 -0.4873  0.1467
 8406TIP3    H146709   3.539   6.041   4.828 -0.7045 -0.7622  2.8345
 8406TIP3    H246710   3.617   5.917   4.867  0.7801 -0.1955  1.6779
 8407TIP3   OH246711   2.000   4.209  14.784 -0.2980 -0.0712  0.8771
 8407TIP3    H146712   1.932   4.222  14.850 -1.3687 -0.5322 -0.1186
 8407TIP3    H246713   1.954   4.217  14.700  1.2302  1.4234  0.1722
 8408TIP3   OH246714   6.129   2.536   2.990  0.5185 -0.5185  0.2896
 8408TIP3    H146715   6.126   2.624   3.028  0.1066  0.7540 -2.5538
 8408TIP3    H246716   6.104   2.478   3.062 -3.1337  2.0502  1.2364
 8409TIP3   OH246717   6.542   3.581  15.212  0.2603 -0.2722  0.3918
 8409TIP3    H146718   6.502   3.494  15.223  0.6817 -0.4866  0.2359
 8409TIP3    H246719   6.475   3.632  15.167  0.4621 -0.8699 -0.6164
 8410TIP3   OH246720   5.968   0.389   0.389  0.1098 -0.1640 -0.0175
 8410TIP3    H146721   5.953   0.320   0.324  0.4736  1.8765 -2.3532
 8410TIP3    H246722   6.025   0.349   0.454 -0.7695 -2.4660 -0.6300
 8411TIP3   OH246723   3.703   2.153   0.483 -0.0955  0.1128  0.1251
 8411TIP3    H146724   3.658   2.093   0.423  0.5482 -0.3946  0.1380
 8411TIP3    H246725   3.760   2.096   0.534  0.4862  0.7375  0.1706
 8412TIP3   OH246726   0.018   1.927   5.056  0.4114  0.5679 -0.3370
 8412TIP3    H146727   0.026   1.970   4.971  1.3207  2.2329  0.5711
 8412TIP3    H246728  -0.011   1.996   5.116 -0.7899 -0.7244  0.6008
 8413TIP3   OH246729   4.171   0.745   6.340  0.1395 -0.4973  0.3124
 8413TIP3    H146730   4.257   0.741   6.299  1.1223 -0.8970  2.3011
 8413TIP3    H246731   4.162   0.660   6.383  0.6538  1.0711  3.7023
 8414TIP3   OH246732   3.805   5.380  11.800  0.3195 -0.0525  0.2613
 8414TIP3    H146733   3.830   5.463  11.840  0.2273 -0.3534  0.9525
 8414TIP3    H246734   3.795   5.320  11.874 -1.2594 -0.2539 -0.1082
 8415TIP3   OH246735   4.193   6.272   5.065  0.6154 -0.8910  0.6317
 8415TIP3    H146736   4.181   6.195   5.120 -1.0664 -0.6110  0.6714
 8415TIP3    H246737   4.107   6.313   5.060  1.2564  0.4203 -0.2451
 8416TIP3   OH246738   3.001   4.777  13.715  0.1200 -0.2515  0.1086
 8416TIP3    H146739   2.944   4.805  13.643  0.1579 -0.3595  0.0346
 8416TIP3    H246740   2.994   4.846  13.780  1.3640  0.6558 -0.6960
 8417TIP3   OH246741   4.447   3.954   0.519 -0.3626  1.0180 -0.0286
 8417TIP3    H146742   4.463   3.860   0.524  1.1615  1.1288 -2.3496
 8417TIP3    H246743   4.355   3.961   0.491 -0.3399  0.2299 -0.3034
 8418TIP3   OH246744   0.156   4.786   1.057 -0.8067  0.6231 -0.6341
 8418TIP3    H146745   0.155   4.691   1.074  0.0727  0.7680  0.2467
 8418TIP3    H246746   0.123   4.794   0.968  1.8905 -0.7647 -1.8275
 8419TIP3   OH246747   4.700   0.304  13.651 -0.3656 -0.0117 -0.7772
 8419TIP3    H146748   4.611   0.309  13.685  0.0840 -0.9179  0.6164
 8419TIP3    H246749   4.712   0.384  13.601 -1.5699  0.6800  0.0293
 8420TIP3   OH246750   2.666   2.947  11.889  0.2586  0.2781  0.4114
 8420TIP3    H146751   2.761   2.938  11.885  0.1703 -0.0072 -1.8051
 8420TIP3    H246752   2.636   2.923  11.801 -1.9419 -0.5589  1.3478
 8421TIP3   OH246753   0.827   3.841   1.640  0.3271  0.0261  0.2672
 8421TIP3    H146754   0.829   3.746   1.645 -0.8337  0.0658  2.2758
 8421TIP3    H246755   0.782   3.861   1.558  0.1474 -1.1614  0.0763
 8422TIP3   OH246756   2.628   6.517  12.572 -0.0062 -0.6047  0.1810
 8422TIP3    H146757   2.542   6.518  12.614 -0.7832 -0.7683 -1.3706
 8422TIP3    H246758   2.662   6.605  12.585  0.0208 -0.8159  1.6414
 8423TIP3   OH246759   0.840   0.503   1.333 -0.0196 -0.2557  0.1070
 8423TIP3    H146760   0.789   0.565   1.280  1.9392  0.6172 -0.8408
 8423TIP3    H246761   0.856   0.429   1.274  0.1293 -0.3509  0.2684
 8424TIP3   OH246762   1.359   4.433   5.582  0.1470  0.5347 -0.0579
 8424TIP3    H146763   1.329   4.346   5.556  0.2247  0.3324  0.5163
 8424TIP3    H246764   1.281   4.488   5.580  0.3274  0.7652 -1.6840
 8425TIP3   OH246765   5.920   5.332   5.413  0.1007 -0.0324 -0.2798
 8425TIP3    H146766   5.898   5.239   5.407 -0.3024 -0.0414  0.9975
 8425TIP3    H246767   5.922   5.349   5.508 -1.0530  1.5372 -0.5250
 8426TIP3   OH246768   2.030   2.923  15.758 -0.6284 -0.6294 -0.8120
 8426TIP3    H146769   2.091   2.951  15.827 -1.3853 -0.9244 -0.0073
 8426TIP3    H246770   2.083   2.871  15.698  0.9350  2.8763 -2.5940
 8427TIP3   OH246771   4.695   2.819  15.351  0.3401 -0.6377 -0.0278
 8427TIP3    H146772   4.663   2.909  15.355  2.4962  0.1902 -0.5447
 8427TIP3    H246773   4.636   2.770  15.408 -3.0412  0.3826 -2.4883
 8428TIP3   OH246774   4.407   3.437  15.884  0.0315  0.5630 -0.2066
 8428TIP3    H146775   4.450   3.439  15.970  1.7591 -0.2056 -1.0168
 8428TIP3    H246776   4.359   3.354  15.884 -0.2610  0.7296  0.1521
 8429TIP3   OH246777   2.143   6.552  13.035 -0.4089  0.4674 -0.1401
 8429TIP3    H146778   2.189   6.612  13.093 -0.4170 -0.3438  0.7148
 8429TIP3    H246779   2.090   6.498  13.093 -0.2033 -0.5423 -0.8672
 8430TIP3   OH246780   5.781   4.155   5.610  0.0587 -0.3212 -0.2666
 8430TIP3    H146781   5.694   4.191   5.591  0.2833  1.0993  1.2456
 8430TIP3    H246782   5.802   4.103   5.533 -1.9414 -0.3254 -0.8565
 8431TIP3   OH246783   2.187   3.270  12.478 -0.1013 -0.5176  0.1988
 8431TIP3    H146784   2.269   3.222  12.485  0.0566 -0.5289 -1.5250
 8431TIP3    H246785   2.203   3.352  12.523  0.3311 -1.1952  1.2847
 8432TIP3   OH246786   0.576   1.998  11.510  0.7802 -0.0464 -0.4367
 8432TIP3    H146787   0.534   2.077  11.544 -1.1977  0.4707 -3.8087
 8432TIP3    H246788   0.668   2.022  11.501  0.4082  1.5039 -0.3151
 8433TIP3   OH246789   4.875   5.617  16.862  0.2089 -0.2736  0.2183
 8433TIP3    H146790   4.865   5.572  16.779 -2.4740  0.5968  0.0075
 8433TIP3    H246791   4.963   5.594  16.892  1.2463 -0.5444 -2.8657
 8434TIP3   OH246792   3.106   3.629  13.704 -0.0914  0.5452 -0.7317
 8434TIP3    H146793   3.088   3.626  13.610  0.9916  2.0903 -1.0062
 8434TIP3    H246794   3.085   3.718  13.730  1.4233  0.6941  0.0987
 8435TIP3   OH246795   3.767   0.965  16.286  0.2211 -0.0532  0.1508
 8435TIP3    H146796   3.761   0.994  16.195  1.4856  0.2238  0.1601
 8435TIP3    H246797   3.784   0.871  16.279 -1.5763 -0.4061  0.1211
 8436TIP3   OH246798   1.242   5.870  15.474 -0.0625 -0.2765  0.3609
 8436TIP3    H146799   1.262   5.784  15.511 -0.3780 -0.4496  0.1286
 8436TIP3    H246800   1.148   5.870  15.461 -0.0522  0.0711  0.2720
 8437TIP3   OH246801   0.756   4.952  12.621  0.2822 -0.6670 -0.3726
 8437TIP3    H146802   0.710   4.896  12.559  0.3570  0.1217 -1.1449
 8437TIP3    H246803   0.709   4.940  12.704 -1.0193 -0.2265 -1.0469
 8438TIP3   OH246804   3.441   3.462   4.273  0.6516  0.2490 -0.1825
 8438TIP3    H146805   3.448   3.436   4.181 -0.1862  0.7943 -0.4075
 8438TIP3    H246806   3.483   3.547   4.278 -1.6344  1.4501 -0.6221
 8439TIP3   OH246807   0.853   3.962  12.868  0.3497 -0.1385  0.1621
 8439TIP3    H146808   0.929   3.903  12.874  1.2296 -0.0694 -6.1554
 8439TIP3    H246809   0.780   3.904  12.845  0.1944  0.5989 -1.2846
 8440TIP3   OH246810   5.543   2.111  16.339  0.0239  0.2819  0.2719
 8440TIP3    H146811   5.480   2.043  16.361 -1.6175  1.0767 -1.8128
 8440TIP3    H246812   5.607   2.068  16.283  2.8675 -1.1498  4.3462
 8441TIP3   OH246813   0.526   0.145   3.043 -0.1393 -0.7838 -0.2995
 8441TIP3    H146814   0.501   0.138   3.135  0.2123  0.4492 -0.1043
 8441TIP3    H246815   0.470   0.214   3.008  1.8736  0.9213 -0.2354
 8442TIP3   OH246816   3.241   6.774   3.136 -0.9126  0.1334  0.0107
 8442TIP3    H146817   3.309   6.714   3.164 -1.4469  1.0264  3.5077
 8442TIP3    H246818   3.277   6.861   3.152 -0.8464  0.7916 -3.2835
 8443TIP3   OH246819   5.952   0.904  16.156  0.6209  0.1475  0.1225
 8443TIP3    H146820   5.896   0.841  16.201  1.2380  2.0359  3.7295
 8443TIP3    H246821   5.895   0.978  16.136  0.8388  0.2066 -0.3082
 8444TIP3   OH246822   2.975   5.524  13.707  0.6073 -0.2950  0.7457
 8444TIP3    H146823   2.999   5.600  13.655 -1.0772 -0.8787 -0.9670
 8444TIP3    H246824   3.017   5.537  13.792  0.4972  2.4353  0.3991
 8445TIP3   OH246825   3.026   6.073   0.059 -0.1211  0.6419  0.4648
 8445TIP3    H146826   2.975   6.106   0.133  0.8763 -0.3504  1.6191
 8445TIP3    H246827   3.099   6.135   0.050  0.8103 -0.2713  1.5478
 8446TIP3   OH246828   3.059   1.300   5.847 -0.5293  0.1298 -0.1079
 8446TIP3    H146829   3.137   1.355   5.836 -0.0358 -0.3089  1.2070
 8446TIP3    H246830   3.008   1.317   5.768  1.5724 -0.6865 -1.6815
 8447TIP3   OH246831   2.181   1.316  15.852  0.0589  0.3659 -0.0099
 8447TIP3    H146832   2.125   1.349  15.782  0.8360 -0.3878 -1.0054
 8447TIP3    H246833   2.258   1.373  15.850 -0.4872  1.1684  1.1111
 8448TIP3   OH246834   5.925   6.300   5.159 -0.2138 -0.3506  0.7302
 8448TIP3    H146835   5.890   6.389   5.164 -0.3625 -0.3725  0.1095
 8448TIP3    H246836   5.884   6.254   5.232 -1.6266 -0.4273 -0.0917
 8449TIP3   OH246837   1.832   4.015   3.382 -0.1595 -0.2244  0.3182
 8449TIP3    H146838   1.901   4.072   3.349 -0.5473  1.2037  1.8720
 8449TIP3    H246839   1.826   4.036   3.476 -2.3456 -0.6595  0.3151
 8450TIP3   OH246840   2.722   5.221  16.108  0.2167  0.5524  0.0448
 8450TIP3    H146841   2.760   5.284  16.048  1.4965 -1.1723 -0.9948
 8450TIP3    H246842   2.797   5.185  16.156 -0.3947 -0.8001  0.0095
 8451TIP3   OH246843   2.074   0.986  12.551 -0.2187  0.1958 -0.0400
 8451TIP3    H146844   2.096   1.078  12.536 -0.5697  0.2755 -0.0528
 8451TIP3    H246845   1.996   0.970  12.498 -0.2619 -0.0637  0.0977
 8452TIP3   OH246846   0.192   2.957   3.381 -0.1894  0.0062  0.2824
 8452TIP3    H146847   0.227   2.956   3.292 -0.2998  0.9637  0.2173
 8452TIP3    H246848   0.181   2.865   3.404  0.4799 -0.2613 -0.4414
 8453TIP3   OH246849   4.504   5.207  16.712  0.2653  0.1592  0.2569
 8453TIP3    H146850   4.530   5.120  16.741  1.2617  0.9151  1.6909
 8453TIP3    H246851   4.450   5.241  16.783 -0.0734  0.7310 -0.2716
 8454TIP3   OH246852   0.988   4.906  12.491  0.4184  0.3388  0.4200
 8454TIP3    H146853   0.902   4.917  12.531 -0.5753 -0.0242 -1.5335
 8454TIP3    H246854   1.035   4.987  12.511  0.0752  0.0322  2.5496
 8455TIP3   OH246855   4.203   5.921  13.567 -0.0981 -0.1198  0.4180
 8455TIP3    H146856   4.143   5.860  13.524  0.1929  0.2436 -0.5238
 8455TIP3    H246857   4.265   5.864  13.614 -0.4541 -0.5258  0.3972
 8456TIP3   OH246858   5.271   5.622   2.837  0.0950 -0.5127 -0.2370
 8456TIP3    H146859   5.222   5.598   2.916 -0.1376 -1.1109 -0.5540
 8456TIP3    H246860   5.224   5.578   2.765  0.2035  0.1636 -0.7271
 8457TIP3   OH246861   5.253   4.021  16.865 -0.2967  0.1209  0.0098
 8457TIP3    H146862   5.174   4.074  16.870 -0.1629  0.0516  6.0013
 8457TIP3    H246863   5.325   4.082  16.881  0.5351 -0.6154 -0.7734
 8458TIP3   OH246864   5.245   0.905  15.511 -0.2195  0.2221 -0.4560
 8458TIP3    H146865   5.207   0.843  15.574  0.4860 -0.5323 -0.7685
 8458TIP3    H246866   5.171   0.932  15.457 -0.4025 -0.8932 -0.7724
 8459TIP3   OH246867   0.218   0.614  16.337 -0.9664 -0.1126 -0.3446
 8459TIP3    H146868   0.191   0.556  16.267 -3.7513  1.5648 -0.7310
 8459TIP3    H246869   0.278   0.676  16.295  0.8238 -1.7397 -0.2531
 8460TIP3   OH246870   6.671   3.813  16.058  0.6009 -0.3703  0.1372
 8460TIP3    H146871   6.664   3.875  16.131  1.5877 -1.4170  1.1515
 8460TIP3    H246872   6.744   3.756  16.083 -1.8568 -3.5315  0.4782
 8461TIP3   OH246873   1.155   2.005  16.097 -0.0937  0.2363 -0.4773
 8461TIP3    H146874   1.247   2.002  16.072  0.1858  0.7854  0.4678
 8461TIP3    H246875   1.154   2.047  16.183 -1.0770 -1.1977  0.2460
 8462TIP3   OH246876   3.567   3.124   4.621  0.0530  0.4158  0.1291
 8462TIP3    H146877   3.652   3.109   4.661  0.3597  1.2070 -0.2103
 8462TIP3    H246878   3.584   3.188   4.551 -0.6231 -0.2526 -0.6614
 8463TIP3   OH246879   4.275   0.238  15.898 -0.3147  0.0907  0.9410
 8463TIP3    H146880   4.254   0.187  15.820 -0.8206 -1.0236  1.7901
 8463TIP3    H246881   4.234   0.323  15.884 -1.2021 -0.4205  0.4035
 8464TIP3   OH246882   6.547   6.609  15.855 -0.2336 -0.5519 -0.0671
 8464TIP3    H146883   6.580   6.522  15.835 -0.1658 -1.0762  2.2412
 8464TIP3    H246884   6.599   6.668  15.799  1.8010 -1.7253  0.5436
 8465TIP3   OH246885   6.008   3.924   3.544 -0.5886  0.2809 -0.6140
 8465TIP3    H146886   6.071   3.934   3.473 -0.7699  0.2874 -0.7732
 8465TIP3    H246887   6.057   3.880   3.613 -0.6577 -0.5271 -1.0763
 8466TIP3   OH246888   5.191   4.679   4.637  0.0677  0.3522 -0.0654
 8466TIP3    H146889   5.165   4.731   4.713  0.1990  0.6473 -0.2195
 8466TIP3    H246890   5.175   4.589   4.663 -2.4531  0.5913 -0.6554
 8467TIP3   OH246891   0.004   0.503  15.300  0.4067 -0.3038 -0.4121
 8467TIP3    H146892  -0.070   0.443  15.289  0.8805 -0.8923 -0.4018
 8467TIP3    H246893   0.014   0.545  15.215  0.4347 -0.6540 -0.5809
 8468TIP3   OH246894   2.810   0.235  16.834  0.1079  0.3188  0.2278
 8468TIP3    H146895   2.802   0.308  16.895  0.7761  2.3837 -2.0464
 8468TIP3    H246896   2.761   0.264  16.756  0.9599 -1.3541 -0.9664
 8469TIP3   OH246897   0.302   0.383   3.561 -0.0372 -0.6243  0.6732
 8469TIP3    H146898   0.397   0.383   3.553 -0.0096  1.1212  0.8437
 8469TIP3    H246899   0.270   0.385   3.471  0.0971 -0.5486  0.6280
 8470TIP3   OH246900   6.172   4.281  13.713  0.3864 -0.3537 -0.0760
 8470TIP3    H146901   6.213   4.246  13.792 -3.0797 -0.9027  1.5754
 8470TIP3    H246902   6.133   4.205  13.670  1.6159  0.0514 -1.9827
 8471TIP3   OH246903   1.538   5.165  16.335  0.8516  0.5853 -0.0038
 8471TIP3    H146904   1.559   5.107  16.408  0.7362  2.5733  1.6633
 8471TIP3    H246905   1.444   5.154  16.322  0.9282 -0.0163 -0.0867
 8472TIP3   OH246906   5.164   0.662  14.310  0.0225  0.6079  0.3339
 8472TIP3    H146907   5.077   0.701  14.295 -0.7458 -1.8480 -1.9310
 8472TIP3    H246908   5.173   0.661  14.405 -3.8066 -1.8565  0.7923
 8473TIP3   OH246909   2.736   6.231  16.036  0.4525  0.3891  0.0383
 8473TIP3    H146910   2.643   6.210  16.045  0.6156 -0.9146 -1.1741
 8473TIP3    H246911   2.741   6.282  15.955  1.0288 -1.1085 -0.8793
 8474TIP3   OH246912   2.852   4.171  13.184  0.2714 -0.7341 -0.1453
 8474TIP3    H146913   2.863   4.250  13.237 -2.0286  2.3603 -3.9970
 8474TIP3    H246914   2.763   4.141  13.203  0.9007 -2.0326  0.8044
 8475TIP3   OH246915   5.939   0.149  11.745 -0.6428 -0.0289 -0.9127
 8475TIP3    H146916   5.857   0.196  11.732 -0.2409  0.8030 -0.4830
 8475TIP3    H246917   6.006   0.207  11.708 -0.3049 -0.9404 -1.7528
 8476TIP3   OH246918   5.017   0.891   1.605 -0.2712  0.2250  0.1081
 8476TIP3    H146919   5.098   0.911   1.652  0.1157 -0.1928 -0.3749
 8476TIP3    H246920   5.033   0.806   1.565 -1.0037  0.0748  0.1257
 8477TIP3   OH246921   0.714   0.660   3.771  0.5376 -0.5935  0.2217
 8477TIP3    H146922   0.747   0.620   3.851  1.5145 -0.2858 -0.0208
 8477TIP3    H246923   0.634   0.705   3.798  0.1451 -1.6110  0.7467
 8478TIP3   OH246924   6.330   1.481  16.315  0.8939 -0.1245  0.2023
 8478TIP3    H146925   6.239   1.457  16.301  0.7235  0.5067  0.1840
 8478TIP3    H246926   6.334   1.508  16.407  1.3528 -1.4082  0.5651
 8479TIP3   OH246927   2.000   0.017  12.002 -0.0400  0.3427 -0.4627
 8479TIP3    H146928   2.046   0.051  11.926 -1.6408 -0.0812 -1.6396
 8479TIP3    H246929   1.958  -0.063  11.971 -1.6729  0.7921  0.5438
 8480TIP3   OH246930   3.597   1.819   1.345  0.0840 -0.2236 -0.1758
 8480TIP3    H146931   3.588   1.785   1.434  1.1941  0.0967  0.0660
 8480TIP3    H246932   3.513   1.863   1.327 -0.3934 -0.8670  0.4512
 8481TIP3   OH246933   2.932   3.500   3.994  0.0383 -0.4060  0.0052
 8481TIP3    H146934   2.960   3.536   3.910 -0.7424 -1.2778 -0.6495
 8481TIP3    H246935   2.951   3.569   4.058 -1.4537  1.1890 -1.2245
 8482TIP3   OH246936   4.884   2.586  14.244 -0.1593  0.8321  0.4325
 8482TIP3    H146937   4.797   2.565  14.279 -0.9062 -0.0859 -1.8816
 8482TIP3    H246938   4.935   2.506  14.260 -0.8990 -0.1097 -1.7546
 8483TIP3   OH246939   1.641   5.272  14.471 -0.3905 -0.4085  0.0951
 8483TIP3    H146940   1.725   5.305  14.501 -0.3557 -1.4416  1.1687
 8483TIP3    H246941   1.577   5.331  14.510 -0.2159 -0.1918  0.0559
 8484TIP3   OH246942   1.820   4.054   1.160  0.1377 -0.1911 -0.0938
 8484TIP3    H146943   1.814   3.973   1.111  0.5029 -0.6571  0.6244
 8484TIP3    H246944   1.792   4.122   1.099 -0.0688 -0.8463 -0.7225
 8485TIP3   OH246945   4.533   4.735   1.500 -0.0912 -0.0099 -0.1120
 8485TIP3    H146946   4.478   4.657   1.503 -1.0842  0.6943  0.6580
 8485TIP3    H246947   4.480   4.803   1.544  1.1781  0.8108  0.1765
 8486TIP3   OH246948   6.696   0.132   1.922  0.6560 -0.6588  0.2308
 8486TIP3    H146949   6.777   0.081   1.919  0.8292 -0.5488  1.9980
 8486TIP3    H246950   6.681   0.147   2.016 -0.6905  0.4736 -0.1418
 8487TIP3   OH246951   3.378   5.464  11.440  0.0387  0.0127 -0.8227
 8487TIP3    H146952   3.440   5.493  11.372  1.1946  0.9063  0.5692
 8487TIP3    H246953   3.389   5.528  11.510 -2.1585 -0.0971 -0.3609
 8488TIP3   OH246954   2.323   5.176   4.122  0.2422 -0.3172 -0.0713
 8488TIP3    H146955   2.252   5.208   4.178  1.1068  0.0811  0.8016
 8488TIP3    H246956   2.393   5.239   4.133  1.1899 -1.3707  0.0140
 8489TIP3   OH246957   2.908   1.188   6.028  1.1621  0.1414  0.2131
 8489TIP3    H146958   2.947   1.255   5.972  0.3299  0.3091 -0.1689
 8489TIP3    H246959   2.981   1.157   6.082  2.2300 -0.7995 -1.7094
 8490TIP3   OH246960   6.101   6.344   5.507  0.1182  0.4398  0.6121
 8490TIP3    H146961   6.065   6.302   5.429 -0.5209  1.9662  0.0752
 8490TIP3    H246962   6.065   6.293   5.580  0.0085 -0.4379 -0.0472
 8491TIP3   OH246963   6.816   6.651   4.637 -0.3815  0.0952  0.0483
 8491TIP3    H146964   6.766   6.732   4.633  0.1978  0.4368 -0.2923
 8491TIP3    H246965   6.806   6.621   4.727  1.2018  1.6900  0.7681
 8492TIP3   OH246966   2.943   2.704   1.934 -1.0574  0.0514  0.0491
 8492TIP3    H146967   2.978   2.620   1.906 -0.9866 -0.1235  0.6694
 8492TIP3    H246968   3.008   2.768   1.905 -0.6152 -0.1995  0.4921
 8493TIP3   OH246969   5.471   4.762   1.543 -0.3497  0.1666  0.0763
 8493TIP3    H146970   5.386   4.720   1.549 -0.3717  0.2264  0.2033
 8493TIP3    H246971   5.452   4.852   1.518 -0.0568 -0.8633 -4.1053
 8494TIP3   OH246972   0.518   0.566   5.905 -0.2325  0.0719 -0.2312
 8494TIP3    H146973   0.502   0.660   5.899 -0.6714 -0.0530 -1.1145
 8494TIP3    H246974   0.599   0.552   5.855 -0.1559 -0.0197 -0.0836
 8495TIP3   OH246975   0.378   6.454   0.891 -0.5856 -0.0360 -0.3301
 8495TIP3    H146976   0.448   6.481   0.830 -0.4624  0.2043 -0.0857
 8495TIP3    H246977   0.298   6.487   0.850 -0.4043  1.0126  0.1257
 8496TIP3   OH246978   4.929   3.094   1.063 -0.2690  0.1544  0.7909
 8496TIP3    H146979   4.941   3.042   0.984  0.2592 -0.2014  1.0960
 8496TIP3    H246980   5.009   3.146   1.070 -1.0298  1.4471  0.1810
 8497TIP3   OH246981   4.132   3.118  16.093 -0.2221 -0.1904  0.2101
 8497TIP3    H146982   4.040   3.144  16.091 -0.2958 -0.0709  2.9972
 8497TIP3    H246983   4.134   3.033  16.049 -2.3308 -1.9306  3.2694
 8498TIP3   OH246984   0.974   6.759   4.314  0.3813  0.8347 -0.5762
 8498TIP3    H146985   0.945   6.843   4.347 -2.2493  0.0937 -0.9009
 8498TIP3    H246986   1.068   6.756   4.334  0.2374  3.2620  0.5888
 8499TIP3   OH246987   2.027   3.062  11.908  0.1083 -0.9934  0.0433
 8499TIP3    H146988   1.970   3.019  11.972 -2.2352  0.5915 -0.9172
 8499TIP3    H246989   2.064   2.989  11.857 -2.1743 -2.0067 -0.2221
 8500TIP3   OH246990   2.886   6.210   0.257  0.5995 -0.0868  0.0787
 8500TIP3    H146991   2.938   6.289   0.275 -0.0855  0.8652 -1.9692
 8500TIP3    H246992   2.798   6.243   0.239 -1.2503 -1.8063  5.1703
 8501TIP3   OH246993   6.209   0.037   0.131 -0.0944 -0.2809  0.6636
 8501TIP3    H146994   6.145  -0.034   0.128  1.0247 -1.2496 -0.8968
 8501TIP3    H246995   6.292  -0.005   0.112  0.7475  1.2833  0.8106
 8502TIP3   OH246996   5.680   4.052  10.379 -0.3001  0.3465 -0.2809
 8502TIP3    H146997   5.657   3.959  10.375 -0.9656  0.3196  2.9121
 8502TIP3    H246998   5.713   4.072  10.291 -2.4150 -2.2856 -1.7490
 8503TIP3   OH246999   5.994   2.739  12.769 -0.3631 -0.3899  0.2331
 8503TIP3    H147000   5.921   2.686  12.801  1.1064 -2.5486  0.0755
 8503TIP3    H247001   6.008   2.804  12.837 -2.5991  0.2318  0.1439
 8504TIP3   OH247002   6.004   0.851  11.677  0.6611  0.2367 -0.2179
 8504TIP3    H147003   6.024   0.757  11.677 -1.5575 -0.2758 -0.0086
 8504TIP3    H247004   5.982   0.871  11.586 -0.3901  0.1844  0.0151
 8505TIP3   OH247005   5.656   2.663  15.307 -0.2273  0.0970 -0.3064
 8505TIP3    H147006   5.718   2.648  15.378 -0.4871 -0.2302 -0.1419
 8505TIP3    H247007   5.570   2.653  15.349 -0.3988  1.1606 -0.3974
 8506TIP3   OH247008   3.170   4.960   4.007 -0.3843  0.3920  0.4662
 8506TIP3    H147009   3.174   4.948   3.912  0.9039 -2.2387  0.8206
 8506TIP3    H247010   3.239   5.023   4.026 -0.4548  0.7113 -0.3110
 8507TIP3   OH247011   6.421   3.372   6.674  0.4255 -0.1953  0.1242
 8507TIP3    H147012   6.479   3.323   6.615  1.0545 -0.0829  0.6380
 8507TIP3    H247013   6.344   3.317   6.683  0.5282 -0.4365 -0.4249
 8508TIP3   OH247014   4.825   5.533   3.493  0.0303 -0.3291 -0.0864
 8508TIP3    H147015   4.794   5.621   3.512 -0.1858 -0.2855 -0.6421
 8508TIP3    H247016   4.919   5.536   3.511 -0.2846 -0.4864  1.7124
 8509TIP3   OH247017   6.528   0.541   2.881 -0.2699 -0.0968 -0.0593
 8509TIP3    H147018   6.503   0.519   2.791  0.7802  1.4677 -0.7716
 8509TIP3    H247019   6.591   0.613   2.871 -0.4998  0.4208  1.9497
 8510TIP3   OH247020   5.182   1.690   0.395  0.2790  0.6978  0.6641
 8510TIP3    H147021   5.260   1.694   0.449  0.3205  0.2180  0.6460
 8510TIP3    H247022   5.188   1.605   0.350 -0.2578  0.6488  0.6809
 8511TIP3   OH247023   4.108   1.210   2.111 -0.2871  0.8617 -0.0025
 8511TIP3    H147024   4.197   1.177   2.096 -0.7020  0.1750 -1.0546
 8511TIP3    H247025   4.110   1.300   2.081 -0.1418  0.6056 -0.7848
 8512TIP3   OH247026   5.213   0.902   1.795 -0.1961 -0.1201 -0.0444
 8512TIP3    H147027   5.256   0.818   1.808 -1.7891 -0.9310  0.0719
 8512TIP3    H247028   5.284   0.966   1.802  0.9364 -1.4006  0.4727
 8513TIP3   OH247029   2.320   2.742   3.794 -0.7111 -0.3957 -0.2115
 8513TIP3    H147030   2.227   2.747   3.769 -1.0247  1.4667  1.2356
 8513TIP3    H247031   2.360   2.819   3.755  0.0118 -0.6105  0.0960
 8514TIP3   OH247032   3.343   4.981   5.507 -0.2979  0.2139  0.0436
 8514TIP3    H147033   3.372   4.917   5.443 -1.7791  0.7350 -1.1869
 8514TIP3    H247034   3.414   5.044   5.512  1.2563 -1.5915  1.4065
 8515TIP3   OH247035   5.956   5.166   0.718 -0.0287  0.5854 -0.2113
 8515TIP3    H147036   5.903   5.166   0.798  1.7154  0.9233  0.9751
 8515TIP3    H247037   6.045   5.153   0.749  0.8408  2.0539 -2.0076
 8516TIP3   OH247038   5.977   1.816   2.169  0.0072 -0.2061  0.0945
 8516TIP3    H147039   5.925   1.821   2.088 -0.0444  0.9698  0.1960
 8516TIP3    H247040   6.040   1.747   2.152  0.3877  0.4275 -1.1856
 8517TIP3   OH247041   5.830   3.435   1.260 -0.3156 -0.1863  0.2933
 8517TIP3    H147042   5.752   3.384   1.280 -1.4827  1.0934 -0.8568
 8517TIP3    H247043   5.900   3.371   1.253 -1.4074 -1.4259  0.6379
 8518TIP3   OH247044   0.126   3.700  12.821  0.2363 -0.6815 -0.1839
 8518TIP3    H147045   0.142   3.615  12.781  1.5942  0.1455 -1.4684
 8518TIP3    H247046   0.213   3.737  12.834 -0.2893  0.0495  1.4291
 8519TIP3   OH247047   3.506   3.362   2.763 -0.1653 -0.3147 -0.2218
 8519TIP3    H147048   3.547   3.360   2.676  0.7122  1.7360  0.1125
 8519TIP3    H247049   3.571   3.323   2.821 -0.0079 -0.0157 -0.1977
 8520TIP3   OH247050   2.466   0.940   3.006  0.3084 -0.2204 -0.0848
 8520TIP3    H147051   2.436   0.882   3.076  0.6127 -1.4017 -0.9038
 8520TIP3    H247052   2.532   0.888   2.959 -0.1907  0.3860 -1.4931
 8521TIP3   OH247053   3.147   5.159  13.190  1.2006  0.3402 -0.2946
 8521TIP3    H147054   3.080   5.154  13.258  1.0136  4.1720 -0.0726
 8521TIP3    H247055   3.107   5.117  13.114 -0.6786  0.7088  0.4615
 8522TIP3   OH247056   4.099   3.893  16.099 -0.0237 -0.2607  0.4632
 8522TIP3    H147057   4.056   3.808  16.107 -0.6112  0.0012  0.1366
 8522TIP3    H247058   4.153   3.886  16.020  0.4752 -0.5641  0.8323
 8523TIP3   OH247059   1.927   0.286  14.911 -0.0604 -0.1166  0.3816
 8523TIP3    H147060   1.967   0.206  14.947  0.5229 -0.9899 -2.1193
 8523TIP3    H247061   2.000   0.345  14.896 -0.4158  0.6371  1.5360
 8524TIP3   OH247062   3.687   3.056   0.571 -0.5297  0.1547 -0.5793
 8524TIP3    H147063   3.637   3.012   0.639 -0.4977 -2.5743 -2.2333
 8524TIP3    H247064   3.631   3.052   0.493  0.5651  0.7112 -1.4200
 8525TIP3   OH247065   3.445   5.096  13.642  0.1247 -0.4003  0.0031
 8525TIP3    H147066   3.500   5.132  13.712 -0.0952  1.1069 -0.5859
 8525TIP3    H247067   3.382   5.165  13.623 -0.7667 -1.3705 -0.6795
 8526TIP3   OH247068   1.449   1.372  14.214 -0.4314 -0.0241  0.0273
 8526TIP3    H147069   1.366   1.419  14.203 -0.1458  0.6685  0.7884
 8526TIP3    H247070   1.425   1.280  14.206 -1.3670  0.1407  0.7514
 8527TIP3   OH247071   6.045   1.279  14.380 -0.1070 -0.2202 -0.0134
 8527TIP3    H147072   5.994   1.357  14.403  0.3975 -0.3158  1.4655
 8527TIP3    H247073   6.065   1.291  14.287 -1.5176  0.5572 -0.2328
 8528TIP3   OH247074   3.380   4.329   1.603 -0.2037 -0.1499 -0.4656
 8528TIP3    H147075   3.416   4.250   1.645 -0.7252 -0.4070 -0.4999
 8528TIP3    H247076   3.318   4.363   1.667 -0.3478 -0.0448 -0.6635
 8529TIP3   OH247077   3.062   3.752   1.357  0.5101  0.6280  0.2930
 8529TIP3    H147078   3.030   3.833   1.317 -2.2872  0.5645  2.2590
 8529TIP3    H247079   3.003   3.684   1.323  1.0326 -0.1389  0.9073
 8530TIP3   OH247080   3.516   3.463  11.881 -0.2317 -0.0183  0.0551
 8530TIP3    H147081   3.451   3.499  11.940 -0.7731 -0.6467 -0.1482
 8530TIP3    H247082   3.599   3.469  11.929 -0.8255 -1.4691  1.3103
 8531TIP3   OH247083   6.667   6.686  14.700 -0.8026  0.0709 -0.1857
 8531TIP3    H147084   6.622   6.614  14.658 -1.6614  0.1554  0.5636
 8531TIP3    H247085   6.619   6.764  14.672 -2.2023  0.0207  1.9344
 8532TIP3   OH247086   4.424   3.310   2.763  0.2203  0.0693 -0.1488
 8532TIP3    H147087   4.512   3.313   2.800  0.3900  1.2858 -0.5915
 8532TIP3    H247088   4.433   3.354   2.678 -0.8906  0.6071 -0.0037
 8533TIP3   OH247089   1.089   5.214   5.580 -0.2737 -0.1587 -0.0947
 8533TIP3    H147090   1.137   5.295   5.565 -0.0395 -0.3248 -0.2497
 8533TIP3    H247091   1.069   5.181   5.492 -0.8043 -0.0111 -0.0288
 8534TIP3   OH247092   3.010   1.182  12.330  0.5880  0.3871 -0.1363
 8534TIP3    H147093   3.010   1.098  12.376 -2.0328  0.8800  0.8580
 8534TIP3    H247094   3.034   1.246  12.396 -1.3358  0.8648  0.1428
 8535TIP3   OH247095   2.774   4.734   5.516  0.0753 -0.7878 -0.0718
 8535TIP3    H147096   2.749   4.651   5.557  0.0457 -1.3583 -1.2150
 8535TIP3    H247097   2.693   4.765   5.474  0.0117 -0.0297  0.6127
 8536TIP3   OH247098   6.525   1.774   4.548  0.3633 -0.2054  0.0972
 8536TIP3    H147099   6.490   1.832   4.615 -1.2498 -0.5974 -0.3903
 8536TIP3    H247100   6.617   1.800   4.539  0.0363  1.2650  0.9373
 8537TIP3   OH247101   3.948   6.520   6.212 -0.3650 -0.6782  0.5806
 8537TIP3    H147102   4.020   6.533   6.150 -0.3237  0.6489  0.8846
 8537TIP3    H247103   3.988   6.475   6.287 -0.2097 -1.4089  0.0649
 8538TIP3   OH247104   4.826   0.402  14.996 -0.3292  0.5498  0.4930
 8538TIP3    H147105   4.751   0.420  14.939 -0.6417  3.0189  1.5799
 8538TIP3    H247106   4.815   0.311  15.022 -2.3451  0.5347 -0.3029
 8539TIP3   OH247107   4.840   6.616  13.560 -0.6891  0.1017  0.1283
 8539TIP3    H147108   4.842   6.608  13.655 -2.5457 -1.2640  0.0943
 8539TIP3    H247109   4.837   6.526  13.528 -0.4464  0.5488 -1.2083
 8540TIP3   OH247110   2.198   6.048  17.224 -0.3406  0.9567  0.7714
 8540TIP3    H147111   2.291   6.066  17.238 -0.3676  1.6003  0.1404
 8540TIP3    H247112   2.183   6.070  17.132 -0.7853 -0.5648  0.4579
 8541TIP3   OH247113   2.078   5.611  13.455  0.2211 -0.6289 -0.6826
 8541TIP3    H147114   2.128   5.665  13.393 -0.3662  1.4305  0.5662
 8541TIP3    H247115   1.988   5.613  13.421 -0.2230  1.0145  0.5222
 8542TIP3   OH247116   2.708   0.898   0.934  0.3617  0.1645  1.0297
 8542TIP3    H147117   2.687   0.893   1.028  1.8693 -0.5438  1.3488
 8542TIP3    H247118   2.718   0.806   0.908 -1.5495  0.2698 -0.2080
 8543TIP3   OH247119   2.896   0.149   4.083 -0.8049  0.0077  0.0693
 8543TIP3    H147120   2.818   0.102   4.054  0.0194 -0.4144 -1.5068
 8543TIP3    H247121   2.956   0.145   4.009  1.3201 -0.9711  1.7664
 8544TIP3   OH247122   0.055   0.725  17.182  0.3130  0.2633  0.3344
 8544TIP3    H147123  -0.008   0.668  17.225 -1.3992  2.1922  0.4711
 8544TIP3    H247124   0.059   0.692  17.092  0.0458 -0.6359  0.6470
 8545TIP3   OH247125   6.766   2.708  15.891  0.1460 -0.0554  0.1700
 8545TIP3    H147126   6.763   2.618  15.922 -0.9564 -0.3776 -0.8407
 8545TIP3    H247127   6.763   2.761  15.971 -1.7389 -0.8773  0.6727
 8546TIP3   OH247128   4.280   6.406  13.000 -0.0611  0.0785 -0.5470
 8546TIP3    H147129   4.266   6.373  12.912  1.0015  1.0028 -1.0657
 8546TIP3    H247130   4.195   6.394  13.044  0.3857 -3.7573 -0.5488
 8547TIP3   OH247131   5.929   0.516   4.477 -0.4112  0.8302 -0.1684
 8547TIP3    H147132   5.981   0.478   4.407 -0.5099  0.4488 -0.0372
 8547TIP3    H247133   5.945   0.610   4.472 -0.6394  0.8290 -0.8826
 8548TIP3   OH247134   0.252   0.072  17.281 -0.5158  0.1870  0.6545
 8548TIP3    H147135   0.301   0.098  17.203  0.9468  0.7567  1.7512
 8548TIP3    H247136   0.295  -0.009  17.310  0.1352  0.9930  1.9450
 8549TIP3   OH247137   0.894   6.690   2.247 -0.0174  0.1337  0.2733
 8549TIP3    H147138   0.938   6.644   2.318 -2.5249 -2.0619  0.4492
 8549TIP3    H247139   0.938   6.659   2.168  0.7358  0.2789  0.6226
 8550TIP3   OH247140   1.122   4.497  15.325  0.4838  0.4631 -0.3769
 8550TIP3    H147141   1.073   4.550  15.262 -0.1283 -0.0554 -0.3379
 8550TIP3    H247142   1.201   4.548  15.342  0.1610  1.1014 -0.7639
 8551TIP3   OH247143   5.617   4.648   3.734 -0.4579 -0.2560 -0.2575
 8551TIP3    H147144   5.598   4.740   3.750 -0.0359 -0.0978 -0.6377
 8551TIP3    H247145   5.532   4.605   3.729 -0.6522  0.1154 -0.0827
 8552TIP3   OH247146   1.197   0.467   4.076  0.0212 -0.1521  0.2393
 8552TIP3    H147147   1.223   0.421   4.156  0.1153  0.0755  0.3430
 8552TIP3    H247148   1.272   0.523   4.056  0.4019 -0.9547 -0.5804
 8553TIP3   OH247149   3.325   5.225   3.054  0.2929 -0.2497 -0.0271
 8553TIP3    H147150   3.395   5.161   3.061 -1.5354 -2.1449  1.4516
 8553TIP3    H247151   3.350   5.294   3.116 -0.5078 -2.2819  2.6617
 8554TIP3   OH247152   3.646   5.892  11.670 -0.5328 -0.0218 -0.4165
 8554TIP3    H147153   3.574   5.859  11.724 -1.7307 -0.0806 -1.9994
 8554TIP3    H247154   3.620   5.982  11.651 -1.1507 -0.6281 -2.5619
 8555TIP3   OH247155   2.234   3.529   3.486  0.8998  0.3065 -0.2642
 8555TIP3    H147156   2.205   3.532   3.396  0.7777  0.7103 -0.2147
 8555TIP3    H247157   2.322   3.490   3.482  1.4312  1.5154 -0.7036
 8556TIP3   OH247158   0.079   3.868  12.569  0.2838  0.0870  0.1106
 8556TIP3    H147159   0.131   3.790  12.586 -1.3616 -1.1757 -0.5524
 8556TIP3    H247160   0.068   3.869  12.474 -0.5928  0.5298  0.2105
 8557TIP3   OH247161   6.468   3.878  16.368  0.4246 -0.2678 -0.0059
 8557TIP3    H147162   6.435   3.810  16.309  0.1734 -1.4009  1.4230
 8557TIP3    H247163   6.395   3.939  16.379  0.0585 -0.7412  0.1588
 8558TIP3   OH247164   0.979   6.817  15.103  0.2518  0.0885  0.1132
 8558TIP3    H147165   1.011   6.904  15.078 -0.3700  0.1734 -0.4222
 8558TIP3    H247166   1.050   6.758  15.078 -0.1419  0.2323 -1.4343
 8559TIP3   OH247167   5.824   0.025   0.366  0.0429 -0.0597  0.0361
 8559TIP3    H147168   5.828   0.028   0.270 -0.2542  0.7569  0.0490
 8559TIP3    H247169   5.732   0.008   0.386  0.2636 -1.1878  0.1645
 8560TIP3   OH247170   3.524   1.329   3.933 -0.2760  0.0047  0.0006
 8560TIP3    H147171   3.495   1.239   3.920  1.1123 -0.3853 -0.4638
 8560TIP3    H247172   3.602   1.321   3.988  0.6244  0.8263 -1.1372
 8561TIP3   OH247173   0.236   5.941  15.526  0.0791 -0.3236  0.1153
 8561TIP3    H147174   0.189   5.931  15.608  2.1261  0.6091  1.4445
 8561TIP3    H247175   0.312   5.883  15.534  1.8113  1.8570  0.0902
 8562TIP3   OH247176   5.768   1.484  11.132  0.1030  0.5863  0.0240
 8562TIP3    H147177   5.804   1.569  11.159  0.2215  1.1364 -1.8485
 8562TIP3    H247178   5.687   1.505  11.086 -0.1541 -0.3518  0.0341
 8563TIP3   OH247179   3.766   5.903  14.108  0.4431  0.2557  0.1186
 8563TIP3    H147180   3.710   5.941  14.175 -2.8382 -0.8849 -1.8503
 8563TIP3    H247181   3.719   5.917  14.026  4.0962  1.1875 -1.9640
 8564TIP3   OH247182   0.587   6.813  11.776 -0.0305 -0.0009  0.0229
 8564TIP3    H147183   0.624   6.732  11.810 -1.8715 -0.9746 -0.2534
 8564TIP3    H247184   0.497   6.814  11.807  0.3433  2.6225  1.1571
 8565TIP3   OH247185   4.827   3.867  13.565 -0.6086  0.4964  0.1741
 8565TIP3    H147186   4.865   3.939  13.513 -1.1364  0.3897 -0.3538
 8565TIP3    H247187   4.738   3.895  13.583 -0.9789 -0.2632 -0.4678
 8566TIP3   OH247188   4.163   2.401  12.190  0.0865 -0.6926 -0.5526
 8566TIP3    H147189   4.180   2.351  12.270  0.3571 -2.1413 -1.4976
 8566TIP3    H247190   4.248   2.441  12.168 -0.3946  1.1615  0.8360
 8567TIP3   OH247191   2.444   4.652   1.120  0.3599 -0.0905  0.1751
 8567TIP3    H147192   2.490   4.660   1.036  0.5716  0.3017  0.3247
 8567TIP3    H247193   2.434   4.743   1.150  0.6786 -0.2520  0.7824
 8568TIP3   OH247194   6.382   6.125   4.230  0.0291  0.2345 -0.3446
 8568TIP3    H147195   6.371   6.208   4.184  0.1934  0.6523  0.3714
 8568TIP3    H247196   6.466   6.132   4.274 -0.9999  0.6071  1.6087
 8569TIP3   OH247197   1.361   3.250  12.559 -0.5069  0.2453 -0.2561
 8569TIP3    H147198   1.436   3.217  12.509 -0.7944 -2.5863  1.0400
 8569TIP3    H247199   1.285   3.232  12.504 -0.5407 -0.1753 -0.0798
 8570TIP3   OH247200   3.259   2.311  11.852 -0.4336  0.2342 -0.4207
 8570TIP3    H147201   3.257   2.288  11.759 -0.7257  1.8322 -0.8229
 8570TIP3    H247202   3.345   2.283  11.882 -0.5626 -0.8296 -1.0334
 8571TIP3   OH247203   4.856   6.279   4.589 -0.3925  0.1648  0.1802
 8571TIP3    H147204   4.921   6.297   4.521 -0.0209 -2.7855 -0.3163
 8571TIP3    H247205   4.906   6.280   4.671 -0.2967  0.7871  0.1223
 8572TIP3   OH247206   6.274   1.907  15.795 -0.0161  0.2539 -0.1723
 8572TIP3    H147207   6.280   1.913  15.700 -0.7553  0.9741 -0.1814
 8572TIP3    H247208   6.365   1.908  15.825  0.2794 -1.9496 -0.9703
 8573TIP3   OH247209   1.672   3.125  16.665 -0.0359  0.0441  0.6335
 8573TIP3    H147210   1.725   3.047  16.678 -0.0908  0.0626  0.9696
 8573TIP3    H247211   1.641   3.119  16.574 -1.1012 -0.9894  1.0592
 8574TIP3   OH247212   2.109   5.308  13.250  0.1148  0.4032  0.5597
 8574TIP3    H147213   2.172   5.377  13.233  0.6030  0.1181  1.1905
 8574TIP3    H247214   2.089   5.271  13.164  0.4869  0.7699  0.3162
 8575TIP3   OH247215   6.535   5.018  11.655  0.5586  0.5800  0.3024
 8575TIP3    H147216   6.524   4.939  11.602 -0.7715 -0.7618  2.4603
 8575TIP3    H247217   6.561   4.984  11.741 -0.8936  2.4225  1.4991
 8576TIP3   OH247218   0.456   5.441  16.803  0.0822  0.6760  0.6547
 8576TIP3    H147219   0.499   5.465  16.885 -1.8166 -0.5097  2.0555
 8576TIP3    H247220   0.389   5.508  16.790 -0.2370  0.3516  0.5896
 8577TIP3   OH247221   1.552   5.285  13.588  0.1867 -0.5056 -0.8519
 8577TIP3    H147222   1.569   5.199  13.551 -0.8575 -2.1168  2.2467
 8577TIP3    H247223   1.458   5.285  13.607  0.3157  1.0161 -0.1393
 8578TIP3   OH247224   1.728   1.704   5.818  0.7712 -0.4417  0.2714
 8578TIP3    H147225   1.769   1.620   5.796 -0.7242 -1.3044  0.7647
 8578TIP3    H247226   1.759   1.723   5.906 -2.2845 -2.6345  1.8935
 8579TIP3   OH247227   1.476   4.653   4.025 -0.1046 -0.2306  0.4940
 8579TIP3    H147228   1.479   4.694   4.111 -1.1945  0.1606  0.3505
 8579TIP3    H247229   1.418   4.578   4.036  0.5891 -0.7937  0.3534
 8580TIP3   OH247230   5.963   0.598   1.917 -0.4501 -0.2479  0.3602
 8580TIP3    H147231   5.998   0.637   1.837  0.8007 -0.4179  0.8170
 8580TIP3    H247232   5.960   0.504   1.898 -2.6277 -0.0397 -0.4217
 8581TIP3   OH247233   4.789   4.401  13.472 -0.0980 -0.0269 -0.4768
 8581TIP3    H147234   4.716   4.345  13.497  0.4618 -0.9823 -0.9515
 8581TIP3    H247235   4.789   4.471  13.537 -0.2729 -1.0528  0.6618
 8582TIP3   OH247236   2.916   5.979  16.491  0.5642 -0.1419  0.4027
 8582TIP3    H147237   2.905   5.949  16.400 -4.0144 -0.5818  0.9520
 8582TIP3    H247238   2.960   6.064  16.483  0.1329 -0.1200 -2.2546
 8583TIP3   OH247239   2.327   3.051   6.604 -0.0392 -0.5570 -0.2974
 8583TIP3    H147240   2.375   3.094   6.674  0.5045 -1.8525  0.1508
 8583TIP3    H247241   2.257   3.004   6.649  1.4076 -2.8948 -0.4071
 8584TIP3   OH247242   0.964   2.688  13.674 -0.5887  0.0556 -0.5188
 8584TIP3    H147243   1.025   2.619  13.647 -0.1609  0.6499 -1.0899
 8584TIP3    H247244   1.018   2.767  13.681 -0.8332  0.0879  1.3368
 8585TIP3   OH247245   0.952   0.902  16.182  0.3079 -0.1151  0.1859
 8585TIP3    H147246   0.931   0.995  16.177  0.8400  0.0591  1.0591
 8585TIP3    H247247   1.046   0.900  16.201  0.4342 -0.8409 -0.4842
 8586TIP3   OH247248   2.080   2.529  11.342 -0.4990  0.2908  0.1104
 8586TIP3    H147249   1.985   2.522  11.337 -0.3812 -0.2625 -1.6328
 8586TIP3    H247250   2.111   2.504  11.255  1.2252  0.7922  0.5528
 8587TIP3   OH247251   5.895   1.600   3.846 -0.2914 -0.0044 -0.2635
 8587TIP3    H147252   5.805   1.632   3.832 -0.6917 -0.9803  0.0272
 8587TIP3    H247253   5.893   1.510   3.814  0.2970 -0.3881  0.7685
 8588TIP3   OH247254   0.733   4.003  13.139  0.5101  0.3735  0.4235
 8588TIP3    H147255   0.755   4.094  13.159  2.1979 -0.1652  1.0563
 8588TIP3    H247256   0.754   3.993  13.046 -1.2920  1.0867 -0.0850
 8589TIP3   OH247257   2.829   3.108  12.876  0.4280 -0.2325 -0.0563
 8589TIP3    H147258   2.918   3.120  12.842 -0.0379  1.1295 -0.8354
 8589TIP3    H247259   2.840   3.100  12.970  1.4063 -0.3145 -0.1697
 8590TIP3   OH247260   6.241   0.647   0.922  0.4201  0.2396  0.6795
 8590TIP3    H147261   6.223   0.737   0.898  0.7350  0.1744  0.1877
 8590TIP3    H247262   6.162   0.599   0.899  0.2465  0.3885  0.9579
 8591TIP3   OH247263   0.567   2.684   2.030 -0.5213 -0.3708  0.4213
 8591TIP3    H147264   0.600   2.760   2.079 -1.7529 -0.3651  1.2570
 8591TIP3    H247265   0.645   2.649   1.986  0.6427 -0.3808  2.3857
 8592TIP3   OH247266   4.304   2.851  16.487 -0.4009 -0.0241 -0.4905
 8592TIP3    H147267   4.352   2.783  16.535 -3.5858 -1.2680  1.0397
 8592TIP3    H247268   4.311   2.929  16.543  0.3191 -0.0163 -0.5805
 8593TIP3   OH247269   3.250   6.255   3.748  0.2663 -0.1690 -0.2362
 8593TIP3    H147270   3.270   6.321   3.814 -1.0917 -0.1926  0.2160
 8593TIP3    H247271   3.267   6.298   3.664 -1.8948  1.1997  0.0101
 8594TIP3   OH247272   3.941   2.737   6.497 -0.0291 -0.4549  0.0888
 8594TIP3    H147273   3.852   2.765   6.516  0.8147  1.9993  0.6954
 8594TIP3    H247274   3.948   2.649   6.532 -1.9749 -0.3469  0.7638
 8595TIP3   OH247275   0.298   1.681   1.572 -0.4333  0.1234  0.1019
 8595TIP3    H147276   0.255   1.634   1.643 -1.8327 -1.3574 -1.6570
 8595TIP3    H247277   0.259   1.769   1.575 -0.5429  0.0461  1.1093
 8596TIP3   OH247278   2.628   3.515   4.852 -0.1902  0.1851  0.5815
 8596TIP3    H147279   2.556   3.543   4.795 -0.0286 -0.4301  0.0647
 8596TIP3    H247280   2.637   3.586   4.916 -1.3524  0.1954  0.7431
 8597TIP3   OH247281   3.482   2.739  14.617  0.0947 -0.7434  0.4513
 8597TIP3    H147282   3.540   2.800  14.663 -0.5017 -0.0637  0.3121
 8597TIP3    H247283   3.498   2.757  14.524 -0.3645 -0.5337  0.4142
 8598TIP3   OH247284   4.409   4.096  12.339 -0.0331  0.0866 -0.3279
 8598TIP3    H147285   4.493   4.078  12.381 -0.0545 -0.3222 -0.4493
 8598TIP3    H247286   4.370   4.167  12.389  0.7479  0.8187 -0.7645
 8599TIP3   OH247287   5.545   1.876  12.946  0.5570 -0.1910  0.4922
 8599TIP3    H147288   5.545   1.958  12.995 -2.2041  0.3053 -0.2530
 8599TIP3    H247289   5.491   1.816  12.998 -1.0366 -0.1617 -1.0734
 8600TIP3   OH247290   3.854   3.865   4.445  0.0243 -0.1998  0.1151
 8600TIP3    H147291   3.940   3.868   4.403  0.0279 -1.0395  0.0584
 8600TIP3    H247292   3.836   3.956   4.467  0.3918  0.1488 -0.9660
 8601TIP3   OH247293   4.930   3.415  16.249 -0.2808 -0.4307 -0.1253
 8601TIP3    H147294   4.975   3.422  16.165 -2.2395 -2.1578 -1.3435
 8601TIP3    H247295   4.888   3.500  16.261  2.5969  0.9715  0.6996
 8602TIP3   OH247296   3.630   0.835  15.739 -0.3409 -0.2026  0.1111
 8602TIP3    H147297   3.695   0.819  15.670  0.0575  2.4822 -0.1744
 8602TIP3    H247298   3.655   0.775  15.810  0.7602 -1.1812 -1.0818
 8603TIP3   OH247299   3.263   2.690  13.898  0.1317 -0.2337 -0.5183
 8603TIP3    H147300   3.189   2.649  13.853 -0.1442  0.4062 -0.6493
 8603TIP3    H247301   3.223   2.750  13.960  0.5338 -0.2681 -0.2254
 8604TIP3   OH247302   4.102   3.161  14.164  0.4641 -0.5775  0.4781
 8604TIP3    H147303   4.107   3.217  14.242  1.2535  0.7048 -0.4872
 8604TIP3    H247304   4.073   3.220  14.094  0.5101 -1.5577 -0.3685
 8605TIP3   OH247305   6.423   1.565   4.409 -0.4254  0.0557  0.0808
 8605TIP3    H147306   6.442   1.657   4.425 -1.2428  0.2396  0.0010
 8605TIP3    H247307   6.405   1.560   4.316  0.5505 -0.3520 -0.0906
 8606TIP3   OH247308   5.198   1.715  15.786 -0.1929  0.4950 -0.0848
 8606TIP3    H147309   5.293   1.725  15.780  0.0483 -1.2408  0.5233
 8606TIP3    H247310   5.165   1.747  15.702  1.1246 -1.0711 -1.2284
 8607TIP3   OH247311   6.270   4.996   0.110  0.3177 -0.0366 -0.2893
 8607TIP3    H147312   6.177   4.995   0.134  0.4326 -1.2924  0.1464
 8607TIP3    H247313   6.269   4.997   0.014 -0.1364  1.6094 -0.2839
 8608TIP3   OH247314   4.895   3.349   5.573  0.1066 -0.3710 -0.0938
 8608TIP3    H147315   4.941   3.342   5.489 -2.4626 -1.3923 -1.4834
 8608TIP3    H247316   4.837   3.423   5.562 -0.4835 -0.7217  0.6616
 8609TIP3   OH247317   6.053   1.905  14.887  0.3543 -0.3689 -0.2303
 8609TIP3    H147318   6.045   1.973  14.955 -0.0443 -0.2358 -0.4101
 8609TIP3    H247319   6.037   1.951  14.805 -2.1598 -1.0732 -0.1939
 8610TIP3   OH247320   4.875   2.742  14.524  0.1966 -0.7116  0.2508
 8610TIP3    H147321   4.947   2.779  14.575 -1.4240  2.9488  0.0592
 8610TIP3    H247322   4.902   2.752  14.432 -0.1019 -0.2392  0.2098
 8611TIP3   OH247323   6.064   1.914  13.871  0.0948  0.5874  0.3094
 8611TIP3    H147324   6.037   1.895  13.781 -1.7131 -1.2911  1.2209
 8611TIP3    H247325   6.157   1.893  13.873  0.2176  0.9527 -1.2018
 8612TIP3   OH247326   5.318   5.922  14.780  0.0177  0.1232 -0.0794
 8612TIP3    H147327   5.303   5.938  14.873 -1.1506 -3.5581  0.4777
 8612TIP3    H247328   5.412   5.934  14.769  0.3001 -0.1489  1.7977
 8613TIP3   OH247329   0.491   1.385  16.409 -0.3869  0.6633  0.5492
 8613TIP3    H147330   0.482   1.400  16.503  0.2748 -1.0487  0.8957
 8613TIP3    H247331   0.520   1.469  16.374  0.2208  1.0692  1.9918
 8614TIP3   OH247332   2.988   2.642   0.481  0.2167 -0.3007 -0.3906
 8614TIP3    H147333   2.957   2.654   0.391 -0.8058  0.8303  0.1011
 8614TIP3    H247334   3.081   2.665   0.479 -0.3005  1.8627 -0.7229
 8615TIP3   OH247335   6.432   3.798   1.993  0.5593 -0.1223  0.3800
 8615TIP3    H147336   6.466   3.793   2.083 -1.4469 -0.1875  1.1640
 8615TIP3    H247337   6.451   3.887   1.965 -0.3232  0.4328  1.5058
 8616TIP3   OH247338   2.462   0.291   6.525 -0.1404  0.3570 -0.3247
 8616TIP3    H147339   2.449   0.272   6.618 -0.1192 -2.4161 -0.8537
 8616TIP3    H247340   2.374   0.300   6.489 -0.1475  1.5391 -0.0525
 8617TIP3   OH247341   3.222   3.983  12.080 -0.0385 -0.1118 -0.3478
 8617TIP3    H147342   3.225   3.890  12.056  0.8994  0.3222 -2.0039
 8617TIP3    H247343   3.214   4.029  11.997  0.9032  1.3662  0.3546
 8618TIP3   OH247344   3.823   2.253   1.927  0.6211  0.3478  0.1546
 8618TIP3    H147345   3.912   2.241   1.893  0.3199  0.6911 -0.7793
 8618TIP3    H247346   3.773   2.181   1.888  0.2334  0.8458 -0.2685
 8619TIP3   OH247347   0.968   3.189   5.472  0.0627 -0.0902  0.0367
 8619TIP3    H147348   0.876   3.211   5.484  0.5794  2.0989  0.2887
 8619TIP3    H247349   0.988   3.128   5.543 -1.5178 -1.7285 -0.8704
 8620TIP3   OH247350   1.072   2.823  13.394  0.2621  0.1605  0.1260
 8620TIP3    H147351   1.006   2.876  13.350 -1.3332 -1.1910  0.8294
 8620TIP3    H247352   1.130   2.793  13.324 -2.5257 -2.3888 -1.1952
 8621TIP3   OH247353   2.102   3.471  14.443  0.2046  0.2375  0.0173
 8621TIP3    H147354   2.122   3.467  14.536 -1.0006  1.0529  0.3338
 8621TIP3    H247355   2.056   3.554  14.432  0.3229  0.1437 -1.3010
 8622TIP3   OH247356   3.663   1.036  17.087 -0.0532  0.2009  0.0548
 8622TIP3    H147357   3.693   1.126  17.091 -2.1643  0.9776 -0.7602
 8622TIP3    H247358   3.654   1.018  16.993  0.4833 -0.9032  0.2070
 8623TIP3   OH247359   5.263   2.478   5.611 -0.5342  0.1022  0.3966
 8623TIP3    H147360   5.302   2.544   5.668 -1.2036  0.3393  0.5763
 8623TIP3    H247361   5.333   2.414   5.597  0.6316  1.6301 -1.0493
 8624TIP3   OH247362   2.992   1.408  13.914 -0.1002 -0.0059 -0.1331
 8624TIP3    H147363   2.917   1.349  13.907 -0.1834 -0.1182  1.4706
 8624TIP3    H247364   3.044   1.389  13.836 -1.3151 -0.5138 -0.8475
 8625TIP3   OH247365   2.301   4.644   5.994 -0.4704  0.7118 -0.6673
 8625TIP3    H147366   2.345   4.623   6.076 -0.5636  0.7303 -0.6118
 8625TIP3    H247367   2.209   4.621   6.010 -0.6729  1.7096 -0.4184
 8626TIP3   OH247368   5.710   0.966  14.773  0.1634  0.3283 -0.6254
 8626TIP3    H147369   5.744   0.967  14.683  2.4129 -2.8659  0.1146
 8626TIP3    H247370   5.777   0.921  14.823 -2.5929 -0.9317  2.0596
 8627TIP3   OH247371   0.420   5.658   4.958 -0.0881  0.1609  0.6088
 8627TIP3    H147372   0.422   5.729   4.894 -0.7815  0.1481  0.5637
 8627TIP3    H247373   0.395   5.701   5.041 -2.9301 -0.3620  0.0844
 8628TIP3   OH247374   1.811   4.014   1.822  0.0553 -0.0599 -0.4649
 8628TIP3    H147375   1.746   3.983   1.886 -0.0647 -1.0397 -1.0450
 8628TIP3    H247376   1.761   4.070   1.763  0.2824  1.3094  0.6258
 8629TIP3   OH247377   6.561   2.770   5.521 -0.3372  0.2802 -0.7635
 8629TIP3    H147378   6.609   2.841   5.564 -0.2715  0.2204 -0.7380
 8629TIP3    H247379   6.482   2.760   5.573  0.8955 -1.4795  0.8434
 8630TIP3   OH247380   1.730   2.351  15.078 -0.2449 -0.5881  0.2117
 8630TIP3    H147381   1.644   2.391  15.092 -0.4489 -1.3137  1.0817
 8630TIP3    H247382   1.725   2.311  14.991 -0.5157  0.0550 -0.0707
 8631TIP3   OH247383   5.035   4.228   5.734  0.4294  0.0398 -0.4124
 8631TIP3    H147384   5.078   4.310   5.761 -0.6121 -0.1544  1.9705
 8631TIP3    H247385   5.106   4.163   5.735  0.6197  0.2443  0.9941
 8632TIP3   OH247386   5.794   2.726  13.749  0.0696 -0.0532 -0.7969
 8632TIP3    H147387   5.864   2.665  13.728 -0.8488 -0.9459 -1.3106
 8632TIP3    H247388   5.829   2.812  13.725  2.6156  0.0769  2.9855
 8633TIP3   OH247389   2.989   1.149  15.278  0.1023  0.5743 -0.1587
 8633TIP3    H147390   2.894   1.161  15.279  0.1797  1.2586 -0.4999
 8633TIP3    H247391   3.016   1.168  15.368 -0.2037 -0.6904  0.2087
 8634TIP3   OH247392   1.831   0.396  12.397 -0.1733 -0.2109 -0.0194
 8634TIP3    H147393   1.876   0.453  12.459 -0.3032  0.1105 -0.2214
 8634TIP3    H247394   1.738   0.415  12.409 -0.1495  0.5209 -0.9568
 8635TIP3   OH247395   5.275   4.548   2.792 -0.0223 -0.2344  0.5754
 8635TIP3    H147396   5.320   4.597   2.723 -1.4150 -1.6962 -1.4572
 8635TIP3    H247397   5.333   4.473   2.809 -0.0022 -0.2420  0.4765
 8636TIP3   OH247398   1.844   5.725   4.932 -0.0667 -0.2836 -0.2107
 8636TIP3    H147399   1.827   5.814   4.962 -2.3040 -0.8259  0.2819
 8636TIP3    H247400   1.883   5.735   4.846 -0.3491  1.1781 -0.1832
 8637TIP3   OH247401   2.298   4.407   1.584 -0.0738 -0.0654  0.1361
 8637TIP3    H147402   2.256   4.439   1.504 -0.0324 -1.8201 -0.6202
 8637TIP3    H247403   2.264   4.318   1.595  0.7098 -0.2159  1.5160
 8638TIP3   OH247404   4.380   4.086   4.440 -0.0790 -0.0803  0.0034
 8638TIP3    H147405   4.339   4.000   4.432  0.0853 -0.1143 -0.4768
 8638TIP3    H247406   4.467   4.067   4.476  0.3512 -0.2191 -1.0805
 8639TIP3   OH247407   6.093   2.363   0.730 -0.1232  0.1386 -0.0105
 8639TIP3    H147408   6.049   2.327   0.807  0.7922 -0.8431  0.0554
 8639TIP3    H247409   6.022   2.375   0.666 -0.5788 -0.9504  0.2768
 8640TIP3   OH247410   3.891   0.677  15.932  0.0436 -0.1702 -0.1452
 8640TIP3    H147411   3.892   0.646  15.841 -1.9668 -0.8708  0.0537
 8640TIP3    H247412   3.890   0.773  15.925  1.8930 -0.1738 -0.8114
 8641TIP3   OH247413   2.804   5.791  16.915  0.0344 -0.4240 -0.2314
 8641TIP3    H147414   2.891   5.822  16.941  0.4379 -1.2823 -0.5196
 8641TIP3    H247415   2.758   5.774  16.997 -0.1382  0.7934 -0.0745
 8642TIP3   OH247416   2.544   3.894  12.382  0.2291  0.1560  0.1647
 8642TIP3    H147417   2.589   3.978  12.393  0.1475 -0.1490  3.3201
 8642TIP3    H247418   2.613   3.830  12.374  0.2924  0.5143 -2.4416
 8643TIP3   OH247419   5.190   1.298   3.289  0.3311  0.3194  0.1588
 8643TIP3    H147420   5.124   1.364   3.310  0.3177  0.0797  0.8588
 8643TIP3    H247421   5.263   1.317   3.348  0.0506 -0.7299  0.8555
 8644TIP3   OH247422   0.813   5.072   3.746 -1.2006 -0.4233  0.0022
 8644TIP3    H147423   0.894   5.025   3.724 -0.7283 -0.1259  1.0742
 8644TIP3    H247424   0.775   5.021   3.818 -1.9856 -0.5661 -0.4958
 8645TIP3   OH247425   3.911   5.532   3.225  0.4978 -0.1948 -0.2396
 8645TIP3    H147426   3.821   5.535   3.258  0.3960  0.3738 -0.5515
 8645TIP3    H247427   3.937   5.440   3.233  0.2040 -0.2010  0.6823
 8646TIP3   OH247428   6.003   3.378   2.507  0.2609 -0.0122  0.1463
 8646TIP3    H147429   6.061   3.362   2.433  0.5184  2.4312 -0.2219
 8646TIP3    H247430   5.936   3.436   2.472  0.6842  1.6023  1.9612
 8647TIP3   OH247431   2.116   5.105   1.716  0.4167  0.3986  0.3834
 8647TIP3    H147432   2.075   5.150   1.643 -0.4604  0.7234  1.0635
 8647TIP3    H247433   2.181   5.047   1.676 -0.9624 -0.4038 -0.7333
 8648TIP3   OH247434   5.072   2.413   4.576  0.0562 -0.6309 -0.0570
 8648TIP3    H147435   5.146   2.405   4.515  0.0066 -0.9120 -0.0790
 8648TIP3    H247436   5.002   2.451   4.523  0.2193 -0.2584 -0.0079
 8649TIP3   OH247437   5.440   0.735  11.818 -0.1000  0.3434 -0.4744
 8649TIP3    H147438   5.368   0.781  11.862  0.3481 -1.5932  2.4211
 8649TIP3    H247439   5.403   0.706  11.735 -2.2026  0.6835  0.3195
 8650TIP3   OH247440   3.095   3.391  16.262  0.2595 -0.3551  0.0773
 8650TIP3    H147441   3.141   3.462  16.308  0.7515  1.1320 -2.6515
 8650TIP3    H247442   3.116   3.404  16.170 -2.5955 -1.9181 -0.8466
 8651TIP3   OH247443   6.535   1.354  16.790 -0.1805  0.0685 -0.4368
 8651TIP3    H147444   6.594   1.401  16.731  1.0791 -0.9236  0.0124
 8651TIP3    H247445   6.507   1.277  16.739 -0.1977 -0.0519 -0.2449
 8652TIP3   OH247446   6.485   3.003  12.616  0.1980  0.5000  0.3761
 8652TIP3    H147447   6.578   2.986  12.601  0.5514  1.4643  1.3355
 8652TIP3    H247448   6.467   2.962  12.700 -0.2048  0.4357  0.2573
 8653TIP3   OH247449   3.698   4.885   6.485 -0.3141  0.1132 -0.5981
 8653TIP3    H147450   3.631   4.933   6.533  0.8498  0.0906  1.1011
 8653TIP3    H247451   3.651   4.814   6.442 -1.4819  0.5508 -0.0591
 8654TIP3   OH247452   2.413   2.047   5.694  0.3734  0.4058  0.0331
 8654TIP3    H147453   2.471   2.094   5.634  2.3987  0.3284  1.8999
 8654TIP3    H247454   2.471   2.009   5.759 -1.6151 -1.2703  0.8867
 8655TIP3   OH247455   3.803   0.813  12.081 -0.1484 -0.0240  0.1438
 8655TIP3    H147456   3.895   0.836  12.070  0.0010  0.1976  1.7314
 8655TIP3    H247457   3.772   0.793  11.992  1.4654 -0.2905 -0.3655
 8656TIP3   OH247458   0.101   3.016  17.236  0.3801 -0.3980  0.3073
 8656TIP3    H147459   0.185   2.979  17.210 -0.4646 -2.5298  0.5248
 8656TIP3    H247460   0.115   3.047  17.326  0.6984 -1.5325  0.6551
 8657TIP3   OH247461   5.348   6.159   4.686  0.6247  0.2873 -0.0727
 8657TIP3    H147462   5.420   6.103   4.713 -0.2528 -1.3422 -1.0206
 8657TIP3    H247463   5.293   6.168   4.764  0.7146 -0.2573  0.0475
 8658TIP3   OH247464   4.011   0.718  13.095 -0.3434  0.0182 -0.3303
 8658TIP3    H147465   4.055   0.689  13.175  1.7434  0.7855 -1.1719
 8658TIP3    H247466   4.040   0.658  13.027 -2.5331 -0.9598 -0.4463
 8659TIP3   OH247467   3.790   3.992   5.542  0.4729 -0.0726  0.1054
 8659TIP3    H147468   3.743   4.051   5.602 -1.2350 -2.0696  0.7910
 8659TIP3    H247469   3.773   4.029   5.455  0.1219  0.9225  0.5758
 8660TIP3   OH247470   6.220   3.771   0.934 -0.3649  0.8636  0.4623
 8660TIP3    H147471   6.165   3.779   0.856  0.1012  0.2478  0.0619
 8660TIP3    H247472   6.170   3.713   0.992  0.1758 -0.3095 -0.2081
 8661TIP3   OH247473   1.941   2.156   4.462  0.0685 -0.1362 -0.8172
 8661TIP3    H147474   1.940   2.072   4.417 -1.8551  0.2123 -1.4341
 8661TIP3    H247475   2.025   2.157   4.509  2.2519 -0.3968 -4.5418
 8662TIP3   OH247476   2.188   4.889  16.106 -0.0696  0.4346  0.2080
 8662TIP3    H147477   2.245   4.824  16.147 -0.3273  0.6381  0.9065
 8662TIP3    H247478   2.248   4.950  16.062  0.1432 -0.5912 -0.9408
 8663TIP3   OH247479   4.323   3.795   2.786  0.3386 -0.5806  0.7162
 8663TIP3    H147480   4.300   3.773   2.696 -0.4283 -0.6985  0.9304
 8663TIP3    H247481   4.304   3.888   2.794  1.4201 -0.3361  0.4549
 8664TIP3   OH247482   0.841   1.020   3.890  0.3374  0.0960 -0.2840
 8664TIP3    H147483   0.813   1.078   3.819 -0.1029  1.6451  1.1209
 8664TIP3    H247484   0.764   1.014   3.947  1.0531 -0.1871  0.6671
 8665TIP3   OH247485   1.948   5.477   0.866 -0.2730 -0.6259 -0.0044
 8665TIP3    H147486   1.855   5.452   0.863  0.2241 -2.5804  0.1570
 8665TIP3    H247487   1.994   5.398   0.837  1.4046 -0.0620  1.1025
 8666TIP3   OH247488   2.222   5.771   0.112 -0.3183  0.1453 -0.0012
 8666TIP3    H147489   2.209   5.796   0.020  0.1423 -0.5622 -0.2623
 8666TIP3    H247490   2.300   5.818   0.140  1.4418 -2.0908 -0.9381
 8667TIP3   OH247491   3.860   4.511  15.921  0.3247  0.1834 -0.1599
 8667TIP3    H147492   3.834   4.421  15.901  0.0867 -0.0899  1.3485
 8667TIP3    H247493   3.933   4.502  15.982  0.3396  1.0133 -0.0493
 8668TIP3   OH247494   3.321   4.911   1.011  0.3008  0.5206  0.1958
 8668TIP3    H147495   3.239   4.952   1.041 -0.8712 -1.9468  0.4577
 8668TIP3    H247496   3.344   4.850   1.082 -0.2131 -2.2778 -1.9650
 8669TIP3   OH247497   1.842   2.450   0.065 -0.6204 -0.1741 -0.2425
 8669TIP3    H147498   1.904   2.445   0.139 -0.4306  0.7065 -0.3309
 8669TIP3    H247499   1.802   2.364   0.062  2.3328 -1.5806 -1.6829
 8670TIP3   OH247500   2.031   2.517   5.938  0.1448  0.2578 -0.5685
 8670TIP3    H147501   2.005   2.609   5.933  2.2030  1.0802  2.2052
 8670TIP3    H247502   2.051   2.493   5.848 -0.7853  2.4130 -1.3998
 8671TIP3   OH247503   0.282   6.498  14.720  0.2793  0.5048  0.0252
 8671TIP3    H147504   0.331   6.500  14.802 -2.2770  0.8421  1.6127
 8671TIP3    H247505   0.257   6.407  14.708  2.8040 -0.0098 -1.7795
 8672TIP3   OH247506   1.088   0.976   4.864  0.1706 -0.1070  0.1346
 8672TIP3    H147507   1.004   1.014   4.892 -0.0502 -0.0034 -0.6407
 8672TIP3    H247508   1.148   0.996   4.936 -0.5466 -0.4737  0.8485
 8673TIP3   OH247509   4.386   0.092  14.770 -0.2453 -0.8980  0.0205
 8673TIP3    H147510   4.387   0.184  14.796 -0.7871 -0.8469 -0.1153
 8673TIP3    H247511   4.296   0.064  14.788 -0.3740 -1.1057 -0.9494
 8674TIP3   OH247512   6.002   2.757  17.285  0.1232 -0.3222  0.0649
 8674TIP3    H147513   6.077   2.780  17.229  0.9164  0.2824  1.3518
 8674TIP3    H247514   5.986   2.664  17.266  2.4110 -0.9753  1.1062
 8675TIP3   OH247515   0.099   4.827  11.906 -0.3095 -0.5053  0.0216
 8675TIP3    H147516   0.153   4.858  11.833 -0.4889 -0.2390  0.0005
 8675TIP3    H247517   0.132   4.740  11.925 -0.5199 -0.7316 -0.6349
 8676TIP3   OH247518   2.162   2.833   3.476  0.2100 -0.5041 -0.5254
 8676TIP3    H147519   2.073   2.813   3.446 -0.1373 -1.0613  0.8265
 8676TIP3    H247520   2.211   2.752   3.460 -0.1820 -1.0955  1.1255
 8677TIP3   OH247521   6.777   6.352   5.517  0.1930  0.3902 -0.0946
 8677TIP3    H147522   6.860   6.398   5.506 -0.5196  1.9132  0.7690
 8677TIP3    H247523   6.793   6.265   5.482  2.2015  0.6240  0.1974
 8678TIP3   OH247524   3.839   5.620  15.117 -0.2653  0.0406  0.2388
 8678TIP3    H147525   3.764   5.566  15.144 -0.4845 -0.1542 -0.7396
 8678TIP3    H247526   3.805   5.675  15.047  0.0981  1.1014  0.8975
 8679TIP3   OH247527   2.308   4.334   4.667  0.0597  0.2130 -0.2449
 8679TIP3    H147528   2.275   4.249   4.696  1.5445 -0.6911 -1.1304
 8679TIP3    H247529   2.266   4.349   4.582  1.2672 -0.5693 -1.0011
 8680TIP3   OH247530   3.643   5.838   2.649 -0.5712 -0.0583 -0.2640
 8680TIP3    H147531   3.597   5.800   2.724 -2.6609  1.7881 -0.5547
 8680TIP3    H247532   3.719   5.781   2.636 -1.5439 -1.8654  1.6658
 8681TIP3   OH247533   5.551   1.834   4.299  0.1189 -0.1994 -0.0130
 8681TIP3    H147534   5.640   1.799   4.288  0.7659  1.2813  0.4134
 8681TIP3    H247535   5.508   1.772   4.358  1.9054  0.8181  2.4387
 8682TIP3   OH247536   6.034   5.606   4.253  0.1118 -0.3513 -0.3254
 8682TIP3    H147537   6.123   5.631   4.277 -0.2440 -0.3816  1.1113
 8682TIP3    H247538   6.008   5.542   4.320 -0.1144 -2.2139 -2.1215
 8683TIP3   OH247539   3.750   5.271   6.154  0.3305  0.5730 -0.1723
 8683TIP3    H147540   3.780   5.273   6.063  0.3671  1.5999 -0.1378
 8683TIP3    H247541   3.794   5.195   6.192  1.3014  0.8902 -0.6633
 8684TIP3   OH247542   2.404   3.752  16.946  0.2566 -0.0481 -0.1182
 8684TIP3    H147543   2.475   3.692  16.967 -0.0894 -0.0909  0.9465
 8684TIP3    H247544   2.336   3.731  17.010 -0.4326  0.4711 -0.6874
 8685TIP3   OH247545   5.191   4.443   5.771 -0.2669 -0.8060  0.8534
 8685TIP3    H147546   5.199   4.522   5.717 -0.3517 -0.4963  1.2883
 8685TIP3    H247547   5.199   4.475   5.861  0.0194 -1.3376  1.0172
 8686TIP3   OH247548   1.369   3.025   5.229 -0.1095  0.5670  0.6013
 8686TIP3    H147549   1.274   3.012   5.227 -0.2151  1.1311  1.6141
 8686TIP3    H247550   1.381   3.108   5.275  0.8300  1.1012 -0.5688
 8687TIP3   OH247551   3.573   6.637  15.460  0.0150 -0.8206  0.3695
 8687TIP3    H147552   3.622   6.594  15.531 -0.1047  0.6610  1.3822
 8687TIP3    H247553   3.618   6.609  15.380  0.5422 -2.0202  1.0638
 8688TIP3   OH247554   6.164   0.732   4.639  0.0498 -0.1363 -0.2345
 8688TIP3    H147555   6.250   0.704   4.609  0.5999  0.9374  0.3107
 8688TIP3    H247556   6.127   0.654   4.681  2.2248  0.3186  2.7286
 8689TIP3   OH247557   6.762   6.437  12.307 -0.4129  0.1287  0.2248
 8689TIP3    H147558   6.838   6.488  12.333  0.8868 -1.1833 -0.8648
 8689TIP3    H247559   6.698   6.450  12.377  1.1778  0.4932  1.6307
 8690TIP3   OH247560   1.749   2.267   5.330 -0.3351  0.3025 -0.4508
 8690TIP3    H147561   1.821   2.277   5.393  0.6683  0.4046 -1.5956
 8690TIP3    H247562   1.686   2.212   5.376  0.5348  0.0908  0.5313
 8691TIP3   OH247563   4.958   4.719   3.675 -0.3604  0.2811 -0.3843
 8691TIP3    H147564   4.996   4.801   3.643 -1.0418  0.4357 -0.8142
 8691TIP3    H247565   4.893   4.746   3.739 -0.8390  0.0916 -0.7904
 8692TIP3   OH247566   4.545   0.544  11.227 -0.3315 -0.7662 -0.2970
 8692TIP3    H147567   4.640   0.534  11.233 -0.1448  0.2440 -1.3965
 8692TIP3    H247568   4.515   0.470  11.175 -0.1009 -0.8202 -0.3521
 8693TIP3   OH247569   2.334   0.100   0.204 -0.2458  0.1019 -0.1157
 8693TIP3    H147570   2.408   0.157   0.181  0.0350 -0.6220 -1.0580
 8693TIP3    H247571   2.271   0.158   0.245  0.5989  0.8429  0.1568
 8694TIP3   OH247572   2.104   0.935  14.897 -0.4146  0.6564  0.1151
 8694TIP3    H147573   2.037   0.870  14.918  0.0592  0.2332  0.3294
 8694TIP3    H247574   2.063   1.019  14.915 -1.0816  0.4235 -0.2939
 8695TIP3   OH247575   4.002   2.840   1.411 -0.4401 -0.0976 -0.3692
 8695TIP3    H147576   3.909   2.818   1.405  0.0003 -2.3443  0.5986
 8695TIP3    H247577   4.005   2.912   1.474 -1.5501  0.2286 -0.6704
 8696TIP3   OH247578   2.388   0.079   3.848 -0.0162  0.6774  0.6965
 8696TIP3    H147579   2.387  -0.010   3.883 -0.1442  0.2291 -0.4308
 8696TIP3    H247580   2.295   0.100   3.833  0.1825 -0.1626 -1.9179
 8697TIP3   OH247581   5.823   6.117   2.100 -0.1540 -0.4460  0.3357
 8697TIP3    H147582   5.836   6.200   2.147  1.1295 -0.4150 -0.0610
 8697TIP3    H247583   5.904   6.068   2.114  0.5578 -0.1660 -2.3789
 8698TIP3   OH247584   5.566   6.819   5.537  0.0716  0.2335  0.4888
 8698TIP3    H147585   5.633   6.879   5.569  0.5963  0.3421 -0.7725
 8698TIP3    H247586   5.606   6.776   5.461 -0.2555 -1.8059  1.4361
 8699TIP3   OH247587   0.765   2.979  10.683 -0.2951 -0.2277  0.0266
 8699TIP3    H147588   0.745   2.999  10.591  1.4552 -0.4426 -0.4181
 8699TIP3    H247589   0.811   2.895  10.680  0.9773  0.4102  0.9548
 8700TIP3   OH247590   3.288   1.641   3.550  0.1020 -0.6211 -0.1540
 8700TIP3    H147591   3.319   1.552   3.565  2.0290 -0.0811 -0.7305
 8700TIP3    H247592   3.195   1.639   3.572  0.5084 -2.3539  1.4937
 8701TIP3   OH247593   2.385   4.207   5.998 -0.0966 -0.2941  0.0703
 8701TIP3    H147594   2.403   4.264   6.072  2.5708 -2.3791  1.1127
 8701TIP3    H247595   2.299   4.168   6.018 -0.5753  1.0719  0.7677
 8702TIP3   OH247596   3.670   6.160  11.393 -0.0737 -0.2626  0.0451
 8702TIP3    H147597   3.725   6.224  11.348  1.5171 -1.7167 -0.1039
 8702TIP3    H247598   3.700   6.162  11.484  0.1519 -0.9904 -0.0158
 8703TIP3   OH247599   1.327   3.575   2.809  0.2082  0.3052  0.2168
 8703TIP3    H147600   1.288   3.498   2.768 -0.8156  0.4044  0.9811
 8703TIP3    H247601   1.263   3.603   2.874  0.4725  1.9441 -0.1983
 8704TIP3   OH247602   0.702   0.190  16.094 -0.4229  0.1963  0.1694
 8704TIP3    H147603   0.790   0.159  16.068 -0.6231  0.8482 -1.3245
 8704TIP3    H247604   0.718   0.246  16.169  0.6240  1.4975 -0.9918
 8705TIP3   OH247605   2.684   2.520   0.419  0.0141 -0.1354 -0.5519
 8705TIP3    H147606   2.594   2.490   0.432  0.2608 -1.0860 -0.9942
 8705TIP3    H247607   2.683   2.564   0.335 -0.2890  0.8814 -0.0254
 8706TIP3   OH247608   2.700   6.232   2.280 -0.3632  0.4287 -0.4105
 8706TIP3    H147609   2.766   6.217   2.212 -0.0550 -1.9865  0.3704
 8706TIP3    H247610   2.751   6.247   2.359 -0.7176  3.4408 -0.6797
 8707TIP3   OH247611   4.079   2.354  13.802  0.0053  0.0819  0.1492
 8707TIP3    H147612   4.061   2.266  13.835  3.5619 -1.4635 -1.7690
 8707TIP3    H247613   4.023   2.363  13.725  0.3427 -0.9052 -0.2224
 8708TIP3   OH247614   6.111   6.799  13.493 -0.0270  0.1376 -0.5547
 8708TIP3    H147615   6.020   6.778  13.470 -0.1133 -0.2237  0.1213
 8708TIP3    H247616   6.154   6.714  13.501  0.2242  0.2931 -0.2598
 8709TIP3   OH247617   3.329   0.641  11.720  0.3291  0.1727 -0.0221
 8709TIP3    H147618   3.423   0.641  11.707  0.2977  0.6921 -0.2653
 8709TIP3    H247619   3.310   0.727  11.757  0.1942 -0.6307  1.8159
 8710TIP3   OH247620   3.060   0.084   6.222 -0.0047  0.3256  0.1247
 8710TIP3    H147621   3.091   0.169   6.253  0.1640  0.4794 -0.4777
 8710TIP3    H247622   3.139   0.037   6.199  0.0037 -0.4914  1.7143
 8711TIP3   OH247623   1.530   1.088   0.575 -0.1260  0.4044  0.0428
 8711TIP3    H147624   1.519   1.030   0.499 -1.4019 -0.6363  0.9900
 8711TIP3    H247625   1.624   1.086   0.593  0.3293  1.4382 -2.0953
 8712TIP3   OH247626   1.521   4.766  14.828 -0.6266  0.5059 -0.2872
 8712TIP3    H147627   1.484   4.839  14.879 -0.0660  0.9217 -0.4723
 8712TIP3    H247628   1.564   4.808  14.754 -0.0559 -0.0001 -0.2440
 8713TIP3   OH247629   2.681   4.925   3.825 -0.2302  0.1152 -0.6659
 8713TIP3    H147630   2.610   4.964   3.876  0.5525 -1.3214  1.5561
 8713TIP3    H247631   2.756   4.982   3.841  0.3925 -1.1517  0.9751
 8714TIP3   OH247632   0.742   2.781  12.143  0.0911 -0.0259 -0.0155
 8714TIP3    H147633   0.820   2.831  12.164  0.8637 -1.6850  1.1861
 8714TIP3    H247634   0.759   2.745  12.056  0.9402 -0.8717  0.4879
 8715TIP3   OH247635   5.504   3.512   0.232 -0.1945  0.2054  0.0408
 8715TIP3    H147636   5.466   3.523   0.145  1.3405 -2.0643 -0.9825
 8715TIP3    H247637   5.554   3.592   0.247 -0.8869  0.8302 -0.9475
 8716TIP3   OH247638   2.978   3.688   5.200  0.0692 -0.7515  0.2864
 8716TIP3    H147639   3.064   3.699   5.159 -0.4853 -1.2766 -1.0259
 8716TIP3    H247640   2.996   3.694   5.294  1.5489 -0.8784  0.0271
 8717TIP3   OH247641   6.738   5.729   0.839 -0.0726  0.5441 -0.1847
 8717TIP3    H147642   6.748   5.659   0.776 -1.3316  0.2008 -0.0309
 8717TIP3    H247643   6.797   5.707   0.911 -1.5036 -1.1483  0.5255
 8718TIP3   OH247644   0.313   5.440  14.527 -0.5637 -0.0937  1.0252
 8718TIP3    H147645   0.284   5.518  14.478 -0.6596  0.4963  2.0015
 8718TIP3    H247646   0.295   5.367  14.468  1.1053  0.7582 -0.6074
 8719TIP3   OH247647   1.033   4.246  14.986 -0.3615 -0.6780 -0.3757
 8719TIP3    H147648   0.949   4.230  14.943 -1.2729 -2.5527  1.9614
 8719TIP3    H247649   1.010   4.271  15.075  1.5405 -0.3486  0.0355
 8720TIP3   OH247650   5.232   0.458   2.654 -0.0698 -0.3201  0.4687
 8720TIP3    H147651   5.315   0.439   2.610  0.0670  1.6876 -0.1744
 8720TIP3    H247652   5.166   0.416   2.599  0.4879 -1.9465  0.9960
 8721TIP3   OH247653   1.293   1.642  11.944 -0.0418 -0.0518  0.3602
 8721TIP3    H147654   1.273   1.667  12.034  0.5089 -0.1866  0.5276
 8721TIP3    H247655   1.305   1.725  11.899 -0.4087  0.0180  0.3892
 8722TIP3   OH247656   5.337   5.882  16.253  0.7699  0.2735 -0.0697
 8722TIP3    H147657   5.405   5.930  16.207  0.0552  2.2322  0.8691
 8722TIP3    H247658   5.383   5.812  16.299  1.7124 -0.5167 -2.1688
 8723TIP3   OH247659   4.416   0.847   2.249 -0.3591  0.2373 -0.3714
 8723TIP3    H147660   4.470   0.774   2.220  0.1833  0.4766  0.0191
 8723TIP3    H247661   4.474   0.900   2.303 -1.2298  0.0251  0.8058
 8724TIP3   OH247662   5.290   5.752   4.385  0.2725 -0.4490 -0.1950
 8724TIP3    H147663   5.230   5.783   4.452  0.4664 -1.5060  0.4797
 8724TIP3    H247664   5.235   5.703   4.324 -0.3506  2.7462 -2.2931
 8725TIP3   OH247665   3.689   5.169  15.887  0.2017  0.2333 -0.2052
 8725TIP3    H147666   3.736   5.101  15.838  1.3280  1.2519 -0.5686
 8725TIP3    H247667   3.748   5.245  15.886 -0.5297  0.8504  1.1995
 8726TIP3   OH247668   0.487   1.708  13.722  0.0561  0.4503  0.2574
 8726TIP3    H147669   0.580   1.690  13.726  0.4410  2.1071 -0.6266
 8726TIP3    H247670   0.461   1.683  13.633 -0.0906  1.0656  0.1215
 8727TIP3   OH247671   6.708   2.101  17.023 -0.2067  0.0061 -0.1289
 8727TIP3    H147672   6.747   2.094  16.936 -1.7317 -0.3148 -0.8042
 8727TIP3    H247673   6.643   2.171  17.014 -0.1402  0.1865  0.8336
 8728TIP3   OH247674   3.310   4.858  17.027  0.7922 -0.4732  0.8378
 8728TIP3    H147675   3.333   4.786  16.968  1.6467  2.3480 -2.4109
 8728TIP3    H247676   3.392   4.882  17.069  0.7204 -0.7134  1.1107
 8729TIP3   OH247677   2.980   2.772  16.620  0.0051 -0.3279  0.9650
 8729TIP3    H147678   2.987   2.705  16.688  0.7923 -2.4728 -1.1637
 8729TIP3    H247679   2.936   2.728  16.547  1.7108  1.0630 -0.9646
 8730TIP3   OH247680   5.975   5.743  11.439  0.0593  0.1278  0.1051
 8730TIP3    H147681   6.054   5.689  11.440 -0.2815 -0.3667  1.6728
 8730TIP3    H247682   5.949   5.747  11.346  2.3565  0.9545 -0.5163
 8731TIP3   OH247683   4.368   1.031   3.549 -0.2649  0.7646  0.0883
 8731TIP3    H147684   4.352   0.941   3.581 -0.4562  0.4483 -0.8756
 8731TIP3    H247685   4.350   1.086   3.625  0.5267 -0.0619  0.8850
 8732TIP3   OH247686   0.062   3.071   0.978 -0.6278 -0.1814  0.4783
 8732TIP3    H147687   0.105   3.013   1.041 -2.0841 -0.5775  1.1261
 8732TIP3    H247688   0.060   3.156   1.022  0.3601  0.0803  0.0425
 8733TIP3   OH247689   5.757   1.695  16.020 -0.1160  0.0342  0.5335
 8733TIP3    H147690   5.828   1.667  15.963 -0.6198 -0.2176  0.0230
 8733TIP3    H247691   5.681   1.644  15.991 -0.8417  1.2950  0.1396
 8734TIP3   OH247692   4.581   2.236   0.623  0.1363  0.0482 -0.2609
 8734TIP3    H147693   4.542   2.210   0.539 -0.2803  0.8549 -0.3249
 8734TIP3    H247694   4.672   2.256   0.602 -0.3443  1.7383 -0.8331
 8735TIP3   OH247695   4.564   5.741  15.720  0.0548  0.0178 -0.4026
 8735TIP3    H147696   4.617   5.812  15.757 -0.6681  0.2319  0.2362
 8735TIP3    H247697   4.552   5.679  15.792 -1.5740  0.5577 -0.1772
 8736TIP3   OH247698   1.811   2.650  11.725  0.3401  0.0122  0.2219
 8736TIP3    H147699   1.859   2.569  11.707  0.4891 -0.1843  1.4252
 8736TIP3    H247700   1.787   2.684  11.639  3.7187  0.7847 -0.4772
 8737TIP3   OH247701   6.723   5.516   3.516  0.6900  0.3742 -0.1442
 8737TIP3    H147702   6.719   5.514   3.420 -0.7770 -2.7657 -0.0811
 8737TIP3    H247703   6.632   5.508   3.544  1.2904 -1.1117  1.4989
 8738TIP3   OH247704   5.877   0.526  12.862 -0.3618 -0.2225  0.1070
 8738TIP3    H147705   5.847   0.465  12.794 -0.0512  0.1959 -0.4103
 8738TIP3    H247706   5.969   0.540  12.842 -0.8464  1.7652 -0.8033
 8739TIP3   OH247707   0.620   5.004  14.922 -0.0498  0.3409 -0.2152
 8739TIP3    H147708   0.568   5.084  14.927 -0.3638  0.0130  3.0650
 8739TIP3    H247709   0.576   4.944  14.983  2.1109 -1.1712 -0.0970
 8740TIP3   OH247710   1.190   5.958   1.530 -0.1129 -0.6504  0.2183
 8740TIP3    H147711   1.169   6.042   1.571 -0.6538 -0.5603 -0.2486
 8740TIP3    H247712   1.226   5.905   1.602 -0.8735 -0.4247  0.7710
 8741TIP3   OH247713   3.614   3.417   0.022 -0.2197  0.2580 -0.0576
 8741TIP3    H147714   3.607   3.322   0.012 -0.1119  0.2783 -0.3438
 8741TIP3    H247715   3.603   3.433   0.116 -0.4602 -0.0194 -0.0375
 8742TIP3   OH247716   1.718   2.038  13.199  0.2236 -0.9800  0.0497
 8742TIP3    H147717   1.760   2.076  13.276  1.3798 -1.7834 -0.1682
 8742TIP3    H247718   1.751   2.089  13.126 -0.8654 -0.2245  0.0815
 8743TIP3   OH247719   2.461   4.904   4.083  0.2698  0.5681 -0.4934
 8743TIP3    H147720   2.411   4.928   4.160 -1.4305 -0.2618 -1.2875
 8743TIP3    H247721   2.518   4.833   4.112 -1.6086 -0.9380 -0.3580
 8744TIP3   OH247722   1.682   4.444   0.138  0.0376 -0.3647 -0.1878
 8744TIP3    H147723   1.670   4.463   0.045 -0.5108  2.5466  0.4039
 8744TIP3    H247724   1.670   4.350   0.146 -3.0264 -0.2388 -2.6185
 8745TIP3   OH247725   1.754   2.457  13.790 -0.1086  0.3795 -0.1835
 8745TIP3    H147726   1.775   2.524  13.855 -2.4947  0.5459  0.4713
 8745TIP3    H247727   1.663   2.433  13.808 -0.1801 -1.0485 -2.1760
 8746TIP3   OH247728   5.149   2.441  13.459  0.3898  0.6203 -0.7989
 8746TIP3    H147729   5.053   2.442  13.451  0.2464 -0.4708  0.4940
 8746TIP3    H247730   5.178   2.383  13.389 -0.0388 -0.3098 -0.2333
 8747TIP3   OH247731   2.498   5.224   2.577 -0.0042  0.2331 -0.5755
 8747TIP3    H147732   2.463   5.195   2.493 -0.7386 -0.0999 -0.1584
 8747TIP3    H247733   2.554   5.299   2.555  2.2617 -1.7100 -1.7284
 8748TIP3   OH247734   1.337   6.028   5.179 -0.2177 -0.5555 -0.1673
 8748TIP3    H147735   1.335   6.047   5.085 -0.0567  2.2093  0.3634
 8748TIP3    H247736   1.265   6.079   5.216 -0.1140 -1.4130  1.2747
 8749TIP3   OH247737   1.834   2.864  16.283  0.5611  0.1177 -0.0548
 8749TIP3    H147738   1.849   2.957  16.266  1.2885  0.3175  1.5926
 8749TIP3    H247739   1.891   2.819  16.221  0.4938  0.7665 -0.5976
 8750TIP3   OH247740   1.899   3.809  11.086  0.0432 -0.2243  0.2299
 8750TIP3    H147741   1.982   3.789  11.041  0.2234 -2.0806  1.3597
 8750TIP3    H247742   1.915   3.786  11.177 -0.1211  4.0531  1.4650
 8751TIP3   OH247743   4.101   0.632  15.492  0.4299 -0.4060  0.4147
 8751TIP3    H147744   4.063   0.718  15.473 -0.2777 -0.6982  0.4867
 8751TIP3    H247745   4.152   0.610  15.414 -0.4385 -0.4914 -0.1413
 8752TIP3   OH247746   1.073   2.939   2.215 -0.1638 -0.2498  0.1686
 8752TIP3    H147747   1.059   2.945   2.120  1.0232 -1.0642 -0.0714
 8752TIP3    H247748   1.042   2.851   2.238  0.3292 -0.3724  0.3815
 8753TIP3   OH247749   2.785   5.112  13.908  0.2340  0.1908  0.0326
 8753TIP3    H147750   2.814   5.159  13.830 -0.9884 -1.4319 -1.4716
 8753TIP3    H247751   2.863   5.067  13.940  0.2750 -0.9489 -1.6198
 8754TIP3   OH247752   1.954   3.014  14.842  0.4853 -0.1840 -0.3808
 8754TIP3    H147753   1.948   2.997  14.748  0.5302  1.1578 -0.6276
 8754TIP3    H247754   2.029   2.961  14.871  1.0415  0.1130 -1.2660
 8755TIP3   OH247755   4.284   4.084  12.974 -0.3406  0.3926  0.5534
 8755TIP3    H147756   4.250   4.121  13.055 -0.3458  0.3977  0.5496
 8755TIP3    H247757   4.280   3.989  12.987  0.3594  0.3991  0.8543
 8756TIP3   OH247758   4.755   3.072   4.403  0.0630 -0.0773 -0.1476
 8756TIP3    H147759   4.845   3.068   4.436 -0.0015  0.6546  0.1341
 8756TIP3    H247760   4.765   3.093   4.310  0.1332  4.6520  0.7703
 8757TIP3   OH247761   5.048   6.585  12.380  0.4327  0.2467 -0.4455
 8757TIP3    H147762   4.995   6.512  12.347  0.4103  0.4360 -0.8313
 8757TIP3    H247763   5.046   6.575  12.475  0.6730 -0.4284 -0.5071
 8758TIP3   OH247764   0.149   2.145   5.713 -0.2908 -0.2897  0.0591
 8758TIP3    H147765   0.056   2.153   5.695 -0.2304 -0.8574 -0.5484
 8758TIP3    H247766   0.191   2.155   5.627  0.0278 -2.6846 -0.1002
 8759TIP3   OH247767   2.938   0.449   6.521  0.5150 -0.5581  0.0898
 8759TIP3    H147768   3.011   0.495   6.562  0.1993 -1.5620  1.8314
 8759TIP3    H247769   2.860   0.498   6.547  0.5913  1.2234 -2.7524
 8760TIP3   OH247770   1.385   2.168   2.110  0.3023  0.1532 -0.0599
 8760TIP3    H147771   1.349   2.245   2.152  1.6134  1.9490 -2.1052
 8760TIP3    H247772   1.337   2.094   2.148 -3.2933  2.1993 -0.4081
 8761TIP3   OH247773   5.504   2.916   5.126 -0.1197  0.2188  0.0872
 8761TIP3    H147774   5.434   2.971   5.092  1.8544  2.1277 -1.0664
 8761TIP3    H247775   5.540   2.966   5.200  0.4069 -0.4477  0.2878
 8762TIP3   OH247776   2.885   4.407  14.608 -0.6147 -0.5671  0.5873
 8762TIP3    H147777   2.958   4.417  14.547 -0.1999 -1.4540  0.9309
 8762TIP3    H247778   2.815   4.369  14.555  0.0358 -2.1704  0.8609
 8763TIP3   OH247779   3.111   1.231   5.252 -0.5271 -0.0737  0.0277
 8763TIP3    H147780   3.052   1.306   5.242  0.2146  0.2536 -2.0482
 8763TIP3    H247781   3.076   1.165   5.192 -0.7454 -1.1327  1.3050
 8764TIP3   OH247782   1.480   2.579   4.434  0.2986  0.2692 -0.3898
 8764TIP3    H147783   1.439   2.493   4.444 -0.8389  0.8304 -0.0953
 8764TIP3    H247784   1.544   2.568   4.364  0.5253 -0.9434  0.0085
 8765TIP3   OH247785   2.287   3.636   5.006 -0.0238  0.4837  0.2080
 8765TIP3    H147786   2.326   3.622   5.092  1.6106 -0.1078 -0.6094
 8765TIP3    H247787   2.359   3.622   4.944 -1.0231  1.4986 -1.2263
 8766TIP3   OH247788   5.219   4.515  11.445  0.6947  0.2345 -0.4757
 8766TIP3    H147789   5.226   4.421  11.429  0.9235  0.4126 -1.4345
 8766TIP3    H247790   5.135   4.541  11.405  0.5663  0.4152 -0.0967
 8767TIP3   OH247791   6.501   6.317  17.244 -0.3073 -0.2034 -0.4898
 8767TIP3    H147792   6.526   6.274  17.162 -0.3067  0.1289 -0.6640
 8767TIP3    H247793   6.464   6.246  17.297  0.3717 -0.5620 -0.4937
 8768TIP3   OH247794   4.371   2.814   1.769  0.5670 -0.2046 -0.6655
 8768TIP3    H147795   4.381   2.907   1.750 -0.8193 -0.2013 -1.4328
 8768TIP3    H247796   4.451   2.790   1.815  1.2387  1.2112 -1.0785
 8769TIP3   OH247797   0.588   4.976  13.557 -0.1871 -0.0675 -0.2079
 8769TIP3    H147798   0.584   4.990  13.652  1.6565 -1.1527  0.0363
 8769TIP3    H247799   0.606   4.883  13.547 -1.5159 -0.1913 -1.6704
 8770TIP3   OH247800   5.178   2.384   0.504  0.4058  0.0683  0.0086
 8770TIP3    H147801   5.227   2.420   0.578 -0.6853 -0.0873  0.8315
 8770TIP3    H247802   5.185   2.289   0.514  0.0925  0.0459  0.0303
 8771TIP3   OH247803   0.496   2.841   3.132 -0.3363  0.1509  0.4452
 8771TIP3    H147804   0.411   2.885   3.121 -0.5423 -0.1926  0.6475
 8771TIP3    H247805   0.511   2.797   3.049 -1.1591 -1.1752  0.9887
 8772TIP3   OH247806   4.202   2.343   1.686  0.2074 -0.3693 -0.4890
 8772TIP3    H147807   4.285   2.327   1.642  0.1693 -1.7178 -0.0941
 8772TIP3    H247808   4.152   2.397   1.624  1.1679  0.0289 -0.9349
 8773TIP3   OH247809   0.854   6.745  14.527 -0.4976  0.2984  0.1484
 8773TIP3    H147810   0.935   6.748  14.477 -0.4146  3.1155  0.3580
 8773TIP3    H247811   0.807   6.670  14.492  1.0423  0.1885 -1.7918
 8774TIP3   OH247812   2.598   1.763  11.951 -0.3104  0.6749 -0.8716
 8774TIP3    H147813   2.592   1.681  11.902  0.4195 -1.0251  1.7477
 8774TIP3    H247814   2.681   1.802  11.923 -0.0703 -0.0987 -1.2525
 8775TIP3   OH247815   0.534   6.742   0.161 -0.0840 -0.1182  0.2134
 8775TIP3    H147816   0.468   6.684   0.200 -1.2203  0.6956 -0.4742
 8775TIP3    H247817   0.502   6.830   0.179  1.0527  0.2890  0.2511
 8776TIP3   OH247818   1.162   4.961   2.860  0.1981  0.5488 -0.2193
 8776TIP3    H147819   1.129   4.954   2.949  1.0056  1.1650  0.1357
 8776TIP3    H247820   1.192   5.052   2.852  2.4926 -0.1783 -0.2715
 8777TIP3   OH247821   1.826   6.252  14.745 -0.0791  0.7026  0.5539
 8777TIP3    H147822   1.865   6.288  14.825  0.9052  2.3830 -0.6452
 8777TIP3    H247823   1.896   6.254  14.680 -0.9174 -0.4770 -0.4182
 8778TIP3   OH247824   5.630   3.579   4.624  0.3891 -0.1127 -0.2171
 8778TIP3    H147825   5.593   3.645   4.683 -0.2264 -0.1095 -0.6019
 8778TIP3    H247826   5.722   3.573   4.649  0.5803  1.2857 -0.5377
 8779TIP3   OH247827   6.246   0.508  14.419 -0.4875  0.5645 -0.1201
 8779TIP3    H147828   6.292   0.591  14.404 -2.6190  1.6504 -0.9160
 8779TIP3    H247829   6.208   0.486  14.334 -0.6818 -0.7642  0.3075
 8780TIP3   OH247830   6.534   2.945   0.012  0.4724  0.5326  0.1834
 8780TIP3    H147831   6.623   2.915   0.032  0.8410  0.8279 -0.9383
 8780TIP3    H247832   6.480   2.866   0.020  1.3932 -0.4560 -2.5215
 8781TIP3   OH247833   2.338   3.984   7.008 -0.2388 -0.0101  0.1738
 8781TIP3    H147834   2.325   3.891   6.987 -2.8487 -0.1885  2.1965
 8781TIP3    H247835   2.354   4.026   6.924  0.6766 -2.2385 -0.8146
 8782TIP3   OH247836   3.699   4.231   4.062 -0.1617 -0.1376 -0.0121
 8782TIP3    H147837   3.606   4.207   4.062 -0.0135 -0.7289 -0.1736
 8782TIP3    H247838   3.745   4.149   4.042  0.4208  0.0424  0.5592
 8783TIP3   OH247839   4.001   1.401  15.841  0.2821 -0.1406  0.3108
 8783TIP3    H147840   4.068   1.425  15.905  0.6869 -1.0176  0.2294
 8783TIP3    H247841   4.039   1.327  15.793 -1.2852 -1.5547  1.1725
 8784TIP3   OH247842   6.109   2.243  16.256  0.0331  0.0603  0.1279
 8784TIP3    H147843   6.126   2.185  16.330  3.7376 -0.8603 -1.3715
 8784TIP3    H247844   6.054   2.192  16.198  0.9685 -0.9318  0.1054
 8785TIP3   OH247845   0.805   1.207   3.707 -0.0513 -0.8321 -0.3838
 8785TIP3    H147846   0.788   1.299   3.723 -0.2605 -1.1024  1.0069
 8785TIP3    H247847   0.870   1.206   3.637  2.4483  0.4905  1.8232
 8786TIP3   OH247848   6.505   3.257   2.528 -0.3706 -0.2638  0.1239
 8786TIP3    H147849   6.523   3.331   2.470  1.1230 -1.0841 -0.4909
 8786TIP3    H247850   6.566   3.189   2.499 -1.8437 -1.7973  0.5560
 8787TIP3   OH247851   3.053   0.317  17.161  0.1572  0.4592 -0.0474
 8787TIP3    H147852   3.099   0.303  17.244  0.7072  0.4161 -0.3592
 8787TIP3    H247853   3.116   0.290  17.094  0.1234  1.5412 -0.5287
 8788TIP3   OH247854   1.072   5.918   6.025  0.0445 -0.1634 -0.1419
 8788TIP3    H147855   1.021   5.846   6.062  0.1362  1.3002  2.9119
 8788TIP3    H247856   1.008   5.973   5.980 -0.7244  0.3207  1.5261
 8789TIP3   OH247857   0.174   0.932   0.830  0.3351  0.3578  0.2352
 8789TIP3    H147858   0.202   0.841   0.842 -0.3260  0.2437  0.9383
 8789TIP3    H247859   0.125   0.953   0.909  1.7419  1.8128  0.7512
 8790TIP3   OH247860   3.726   6.733   5.572 -0.0472  0.0196 -0.0715
 8790TIP3    H147861   3.695   6.822   5.556  1.2173  0.4148 -0.3914
 8790TIP3    H247862   3.766   6.737   5.658 -0.9727 -0.5167  0.3904
 8791TIP3   OH247863   2.459   4.026  11.298 -0.1134  1.1002 -0.1245
 8791TIP3    H147864   2.517   4.001  11.226 -1.5536  0.0020 -0.9231
 8791TIP3    H247865   2.395   3.955  11.304  1.1259  0.1470  3.5431
 8792TIP3   OH247866   2.600   3.183   5.795  0.2749 -0.1722 -0.2359
 8792TIP3    H147867   2.614   3.128   5.718 -1.4826 -0.8151 -0.1270
 8792TIP3    H247868   2.506   3.201   5.794 -0.0173 -1.2891  2.4820
 8793TIP3   OH247869   0.075   3.473   2.227 -0.1771 -0.4613 -0.0457
 8793TIP3    H147870   0.067   3.554   2.177  2.7067 -0.1168 -0.0481
 8793TIP3    H247871   0.092   3.502   2.317  0.4628 -1.0552  0.0292
 8794TIP3   OH247872   3.788   0.370   1.921  0.6823 -0.2159 -0.1369
 8794TIP3    H147873   3.870   0.366   1.872  1.4878  0.1264  1.1551
 8794TIP3    H247874   3.810   0.332   2.006 -0.7158 -0.8982 -0.0692
 8795TIP3   OH247875   3.230   5.069  14.730 -0.1928  0.7735  0.1050
 8795TIP3    H147876   3.234   5.072  14.635  0.8160 -0.0323  0.1180
 8795TIP3    H247877   3.293   5.135  14.759 -0.7825  1.2884  0.2086
 8796TIP3   OH247878   5.809   1.866   5.278 -0.4552 -0.3530 -0.1240
 8796TIP3    H147879   5.750   1.889   5.350 -1.3535  0.2290 -1.0394
 8796TIP3    H247880   5.773   1.785   5.242  0.1291 -0.7722  0.2194
 8797TIP3   OH247881   6.766   1.189   4.638 -0.0223 -0.2836  0.1516
 8797TIP3    H147882   6.821   1.190   4.560 -2.5405 -0.4512 -1.7200
 8797TIP3    H247883   6.730   1.277   4.644  0.5482 -0.1239  1.4443
 8798TIP3   OH247884   4.971   6.562  11.431 -0.0528 -0.4198 -1.1393
 8798TIP3    H147885   5.049   6.507  11.426  1.1222  1.2113 -1.2916
 8798TIP3    H247886   4.947   6.561  11.524  0.3399 -0.6664 -1.0394
 8799TIP3   OH247887   5.385   5.501  11.007 -0.5665 -0.5212  0.0788
 8799TIP3    H147888   5.397   5.411  11.037  0.1608 -0.8081 -1.0644
 8799TIP3    H247889   5.296   5.503  10.972 -1.3242 -0.2563  1.9777
 8800TIP3   OH247890   0.266   0.837   3.867  0.2364  0.3418  0.2950
 8800TIP3    H147891   0.194   0.899   3.869  0.7995  1.0608 -0.9821
 8800TIP3    H247892   0.238   0.770   3.804 -0.2713 -0.6080  1.4939
 8801TIP3   OH247893   2.195   4.162  14.201  0.0330  0.2096  0.0717
 8801TIP3    H147894   2.227   4.132  14.116  0.6862  0.2468  0.3057
 8801TIP3    H247895   2.196   4.085  14.256 -0.3824  0.1883  0.0501
 8802TIP3   OH247896   3.490   3.490  14.297 -0.1572  0.3311  0.1688
 8802TIP3    H147897   3.415   3.433  14.315  1.2718 -0.9449  2.2728
 8802TIP3    H247898   3.532   3.450  14.221 -1.2511  0.6983 -0.6375
 8803TIP3   OH247899   3.120   0.741   0.719  1.0020  0.0436  0.4267
 8803TIP3    H147900   3.214   0.746   0.737  0.6766 -2.1070  3.2432
 8803TIP3    H247901   3.092   0.660   0.762 -2.5022  1.6641  1.4001
 8804TIP3   OH247902   0.064   2.414   3.415 -0.5003 -0.3725 -0.0486
 8804TIP3    H147903   0.035   2.491   3.366  0.8318  0.9853  1.2281
 8804TIP3    H247904   0.026   2.340   3.369 -1.9873  1.0678 -1.1915
 8805TIP3   OH247905   2.023   0.769   2.895  0.3990 -0.0567 -0.1917
 8805TIP3    H147906   2.037   0.782   2.989  1.2854 -0.8494 -0.2023
 8805TIP3    H247907   2.035   0.674   2.883 -0.9084 -0.1370 -0.9032
 8806TIP3   OH247908   5.284   6.782   5.500 -0.1628 -0.7581  0.0251
 8806TIP3    H147909   5.368   6.791   5.546 -0.4175  0.9858  0.2018
 8806TIP3    H247910   5.248   6.699   5.532 -0.3663  0.4254  3.1320
 8807TIP3   OH247911   4.273   0.582  14.336 -0.7141 -0.5224  0.1465
 8807TIP3    H147912   4.353   0.545  14.371  1.5524  0.9330 -3.2446
 8807TIP3    H247913   4.283   0.677  14.350 -0.3142 -0.0276 -3.1028
 8808TIP3   OH247914   1.519   3.760  10.925  0.4251  0.1011 -0.0643
 8808TIP3    H147915   1.596   3.733  10.975  1.5465  0.6848 -1.4298
 8808TIP3    H247916   1.503   3.689  10.864 -0.5377 -0.3154  0.6608
 8809TIP3   OH247917   1.904   1.044   5.585 -0.4756 -0.6533  0.0769
 8809TIP3    H147918   1.914   0.978   5.653 -0.0549  1.0334  1.6741
 8809TIP3    H247919   1.994   1.070   5.563 -0.6696  0.2134  0.2894
 8810TIP3   OH247920   3.767   0.687   3.334 -0.0304 -0.0626 -0.1044
 8810TIP3    H147921   3.813   0.604   3.324  1.9933  0.7827  1.6867
 8810TIP3    H247922   3.828   0.753   3.300 -1.6752  0.7174 -1.6673
 8811TIP3   OH247923   2.314   3.312  16.706  0.5507  0.3499  0.0849
 8811TIP3    H147924   2.405   3.299  16.678  0.5350 -1.7090  0.9226
 8811TIP3    H247925   2.296   3.404  16.686  2.6047  0.6118 -0.6923
 8812TIP3   OH247926   4.955   2.824   1.627  0.5820  0.5780  0.0368
 8812TIP3    H147927   4.897   2.877   1.683  0.7878  0.9279 -0.0768
 8812TIP3    H247928   4.957   2.738   1.669 -1.1999  0.1315 -0.7875
 8813TIP3   OH247929   0.444   0.121  14.635 -0.0443  0.4419  0.3732
 8813TIP3    H147930   0.477   0.037  14.602  0.6806 -0.5703  3.5104
 8813TIP3    H247931   0.494   0.187  14.587  0.2700 -0.9374 -1.2294
 8814TIP3   OH247932   4.339   2.892  10.935  0.1972 -0.2722  0.2501
 8814TIP3    H147933   4.425   2.918  10.967 -0.5300  1.6006  0.7566
 8814TIP3    H247934   4.279   2.916  11.005 -1.2288  2.3593 -1.8087
 8815TIP3   OH247935   4.311   3.080   1.506 -0.6410  0.0732  0.9967
 8815TIP3    H147936   4.317   3.128   1.423 -2.5362  0.6430  1.1638
 8815TIP3    H247937   4.257   3.136   1.562 -0.2377 -0.7934  2.2551
 8816TIP3   OH247938   5.917   6.576   5.161  0.7311 -0.2452  0.5335
 8816TIP3    H147939   6.004   6.616   5.165 -0.4466  2.7233 -1.5850
 8816TIP3    H247940   5.865   6.626   5.222 -0.5593  0.9569 -1.4988
 8817TIP3   OH247941   4.088   4.039  16.337 -0.7998  0.6578 -0.5057
 8817TIP3    H147942   4.074   4.121  16.290 -1.2383  0.8354 -0.0661
 8817TIP3    H247943   4.119   3.978  16.270 -0.1960  1.2589 -0.7819
 8818TIP3   OH247944   2.189   1.292  13.269  0.0969 -0.2551  0.1407
 8818TIP3    H147945   2.255   1.274  13.335  1.3313 -0.8918 -1.2383
 8818TIP3    H247946   2.219   1.371  13.225 -0.7899  0.2441  0.4002
 8819TIP3   OH247947   6.250   5.216   5.772 -0.2416 -0.2483 -0.2839
 8819TIP3    H147948   6.242   5.128   5.736 -2.4901  0.5554 -1.9075
 8819TIP3    H247949   6.202   5.214   5.854 -2.3479  0.0384 -1.4784
 8820TIP3   OH247950   4.195   4.025   2.348 -0.5379  0.0977  0.0448
 8820TIP3    H147951   4.144   3.945   2.339 -0.3749 -0.0663  0.5857
 8820TIP3    H247952   4.150   4.076   2.415 -0.4029  0.2763  0.0030
 8821TIP3   OH247953   3.180   0.416  13.341 -0.0413  0.4544 -0.0382
 8821TIP3    H147954   3.243   0.403  13.270 -0.1894  0.1874 -0.1198
 8821TIP3    H247955   3.148   0.506  13.327 -0.4185  0.2380 -0.5933
 8822TIP3   OH247956   2.490   1.200   2.742  0.6164  0.1033 -0.0766
 8822TIP3    H147957   2.477   1.212   2.648  1.8692  1.2627 -0.1220
 8822TIP3    H247958   2.464   1.284   2.781  1.7188  0.2324  0.4199
 8823TIP3   OH247959   1.580   3.597   4.448  0.4456  0.2717 -0.0914
 8823TIP3    H147960   1.486   3.601   4.434  0.5627 -1.6759 -1.6973
 8823TIP3    H247961   1.597   3.507   4.474  1.8193  0.7075  0.5867
 8824TIP3   OH247962   0.189   3.825  14.368  0.5687  0.8181 -0.3923
 8824TIP3    H147963   0.213   3.778  14.448 -0.5680  1.3667  0.2943
 8824TIP3    H247964   0.271   3.863  14.337  1.0336  0.5648  0.5030
 8825TIP3   OH247965   1.469   0.263   3.469  0.5167 -0.3656 -0.3059
 8825TIP3    H147966   1.403   0.243   3.403 -0.8932  2.9489 -0.0279
 8825TIP3    H247967   1.476   0.183   3.521 -3.3680 -0.8069 -0.3264
 8826TIP3   OH247968   2.577   2.453  16.928 -0.1594  0.1110 -0.5450
 8826TIP3    H147969   2.659   2.417  16.894 -0.7472 -1.5575 -0.2436
 8826TIP3    H247970   2.603   2.533  16.973  1.4487 -0.9118  0.3991
 8827TIP3   OH247971   4.208   2.431  11.448 -0.7861 -0.3411 -1.1001
 8827TIP3    H147972   4.186   2.345  11.411 -0.7824 -0.9099  0.1881
 8827TIP3    H247973   4.134   2.452  11.506 -1.0018  0.7402 -1.7483
 8828TIP3   OH247974   1.036   3.431   1.900 -0.0616  1.0476 -0.4249
 8828TIP3    H147975   1.118   3.414   1.946  0.3379  1.0844 -1.1098
 8828TIP3    H247976   0.970   3.378   1.946  0.4920  0.4207 -0.3567
 8829TIP3   OH247977   0.981   2.122  16.689  0.4344  0.1952 -0.0040
 8829TIP3    H147978   1.003   2.033  16.662 -1.4178 -0.3146  0.1266
 8829TIP3    H247979   0.885   2.125  16.690  0.4488  1.5951  1.9096
 8830TIP3   OH247980   6.643   2.347  14.885  0.1337 -0.1933 -0.0337
 8830TIP3    H147981   6.626   2.283  14.955  0.0310  0.8653  0.9110
 8830TIP3    H247982   6.701   2.300  14.824 -0.0120 -1.2225  0.6003
 8831TIP3   OH247983   3.176   0.579  12.753  0.7518 -0.3717  0.0058
 8831TIP3    H147984   3.228   0.498  12.746  2.1702  0.5243  0.0590
 8831TIP3    H247985   3.172   0.613  12.664 -1.2541 -1.3321 -0.3172
 8832TIP3   OH247986   1.196   0.242   0.626 -0.1120  0.1463 -0.4713
 8832TIP3    H147987   1.109   0.275   0.602 -0.3373  0.3498  0.5791
 8832TIP3    H247988   1.254   0.317   0.617 -0.5932  0.8429  1.7422
 8833TIP3   OH247989   2.622   5.530  12.951 -0.3442 -0.5160  0.5268
 8833TIP3    H147990   2.588   5.538  12.863  1.8695  0.8013 -0.2571
 8833TIP3    H247991   2.607   5.438  12.974  1.5672 -1.6205 -2.3298
 8834TIP3   OH247992   1.431   0.971  11.705 -0.3452 -0.2168  0.0655
 8834TIP3    H147993   1.506   1.010  11.660  1.4139  0.8277  3.7559
 8834TIP3    H247994   1.382   1.046  11.738 -0.7639 -1.0043  1.2406
 8835TIP3   OH247995   6.622   4.981   0.976  0.3168  0.3565 -0.3633
 8835TIP3    H147996   6.601   4.930   0.898  0.8286  0.3832 -0.5232
 8835TIP3    H247997   6.628   4.916   1.047  0.6700  0.2288 -0.5082
 8836TIP3   OH247998   1.431   2.623   5.142 -0.2646  0.4408 -0.3231
 8836TIP3    H147999   1.397   2.569   5.213 -1.0619  0.9437 -0.3174
 8836TIP3    H248000   1.369   2.609   5.070  0.3101  0.2540 -0.7890
 8837TIP3   OH248001   0.479   2.290   6.427 -0.0707  0.0689  0.1007
 8837TIP3    H148002   0.526   2.358   6.378  0.0782  0.5865  0.9510
 8837TIP3    H248003   0.387   2.312   6.417 -0.1079 -0.4663 -0.8649
 8838TIP3   OH248004   2.586   1.768  14.666 -0.3849 -0.7599 -0.0338
 8838TIP3    H148005   2.498   1.766  14.630  0.5623 -0.5648 -2.4658
 8838TIP3    H248006   2.574   1.790  14.759 -2.8000  0.5756 -0.6221
 8839TIP3   OH248007   3.669   3.125   0.257  0.3617  0.0998 -0.3136
 8839TIP3    H148008   3.632   3.213   0.267 -0.6564 -0.4591  0.9909
 8839TIP3    H248009   3.628   3.091   0.178  0.5455  0.7002 -0.6676
 8840TIP3   OH248010   4.241   2.900  15.550  0.2418  0.5270 -0.2140
 8840TIP3    H148011   4.287   2.858  15.622  0.3161 -0.1016 -0.6262
 8840TIP3    H248012   4.220   2.987  15.583 -0.4141 -0.0199  0.8499
 8841TIP3   OH248013   5.218   0.146  17.045  0.3931  0.4564  0.2894
 8841TIP3    H148014   5.275   0.145  16.968 -0.8103 -0.3456 -0.6102
 8841TIP3    H248015   5.238   0.064  17.091 -0.3505 -0.0531 -0.2780
 8842TIP3   OH248016   3.105   3.516  13.118 -0.3701 -0.6574 -0.8025
 8842TIP3    H148017   3.055   3.485  13.043  0.4653 -1.4266 -1.0505
 8842TIP3    H248018   3.168   3.577  13.081 -1.5770  0.8539 -0.3993
 8843TIP3   OH248019   0.762   6.669   3.669  0.0064 -0.1443  0.1299
 8843TIP3    H148020   0.779   6.597   3.608  0.5432  0.0365  0.0653
 8843TIP3    H248021   0.752   6.626   3.754  0.5182 -0.2802  0.1254
 8844TIP3   OH248022   4.560   3.842  16.323  0.0941  0.5235  0.3378
 8844TIP3    H148023   4.530   3.816  16.236  2.2523  0.9873 -0.6008
 8844TIP3    H248024   4.542   3.936  16.328 -2.1856  0.0544  1.3463
 8845TIP3   OH248025   4.293   2.483   5.705  0.3508  0.1778  0.2739
 8845TIP3    H148026   4.215   2.537   5.719 -0.8608 -2.0979  2.6804
 8845TIP3    H248027   4.280   2.444   5.619 -0.2126  1.3226 -0.1755
 8846TIP3   OH248028   6.299   2.875  13.838 -0.3951  0.3854 -0.3710
 8846TIP3    H148029   6.301   2.919  13.923 -1.0646 -0.6135  0.1613
 8846TIP3    H248030   6.300   2.782  13.858  2.9505  0.0801 -1.5328
 8847TIP3   OH248031   2.176   0.835  16.347  0.1214 -0.3136  0.1811
 8847TIP3    H148032   2.236   0.900  16.309  3.0856 -1.4967  2.6364
 8847TIP3    H248033   2.143   0.876  16.427  1.1210 -1.3276  1.1393
 8848TIP3   OH248034   2.615   1.975   1.096  0.0758 -0.3297  0.7264
 8848TIP3    H148035   2.618   2.063   1.134  0.5410 -0.2713  0.5604
 8848TIP3    H248036   2.693   1.931   1.132 -0.1652 -0.6831  0.8268
 8849TIP3   OH248037   1.355   2.189  14.558  0.1450  0.2272  0.1525
 8849TIP3    H148038   1.328   2.218  14.470  2.6510 -0.3358 -0.8496
 8849TIP3    H248039   1.423   2.251  14.584 -0.3047  0.1450  1.5318
 8850TIP3   OH248040   4.688   6.195   3.667 -0.1727  0.2036  0.6090
 8850TIP3    H148041   4.753   6.167   3.732  0.0301  1.2194  0.8489
 8850TIP3    H248042   4.739   6.231   3.595 -0.4986  3.9485  2.1455
 8851TIP3   OH248043   5.123   3.534   4.206  0.9077  0.1243 -0.0043
 8851TIP3    H148044   5.061   3.465   4.179  0.6132  0.7265 -0.8930
 8851TIP3    H248045   5.189   3.488   4.257  1.9564 -1.2109 -2.5048
 8852TIP3   OH248046   2.667   3.875   6.552  0.4563 -0.1186 -0.4524
 8852TIP3    H148047   2.573   3.890   6.545  0.7586  2.3800  0.2110
 8852TIP3    H248048   2.677   3.808   6.619 -0.8425 -0.2377 -0.3747
 8853TIP3   OH248049   2.220   1.109   3.242 -0.0028 -0.2324 -0.0836
 8853TIP3    H148050   2.294   1.148   3.195 -1.2070  0.2670 -1.6210
 8853TIP3    H248051   2.151   1.176   3.237 -1.0321 -1.2765  0.0561
 8854TIP3   OH248052   4.891   2.367   6.397  0.0034  0.7075  0.4903
 8854TIP3    H148053   4.928   2.302   6.337 -0.7990  2.3272 -1.8556
 8854TIP3    H248054   4.956   2.376   6.466  0.2611 -2.3455  0.7162
 8855TIP3   OH248055   2.040   3.188   3.758  1.0479  0.3652 -0.6399
 8855TIP3    H148056   2.094   3.174   3.835  0.7572 -1.0620 -0.6784
 8855TIP3    H248057   2.007   3.277   3.767 -0.5408 -0.4404  1.8794
 8856TIP3   OH248058   6.407   3.854  15.168  0.2128 -0.3490  0.2629
 8856TIP3    H148059   6.364   3.841  15.252  0.3753 -0.3791  0.3415
 8856TIP3    H248060   6.501   3.847  15.187  0.2053 -1.5753 -0.1340
 8857TIP3   OH248061   1.563   5.040  13.480 -0.1786 -0.2640  0.3229
 8857TIP3    H148062   1.572   5.032  13.385 -1.5454 -1.5472  0.3042
 8857TIP3    H248063   1.496   4.977  13.504  0.9063 -0.7162  2.2916
 8858TIP3   OH248064   5.985   4.592  11.890  0.1895 -0.8396 -0.3074
 8858TIP3    H148065   5.992   4.637  11.974  0.1223  0.2042 -0.8515
 8858TIP3    H248066   5.897   4.554  11.890  0.2672 -1.0234  0.1812
 8859TIP3   OH248067   3.117   3.906   3.838  0.3056  0.5605  0.3586
 8859TIP3    H148068   3.159   3.913   3.924  2.4538  0.8186 -0.6823
 8859TIP3    H248069   3.065   3.987   3.831  1.1903  1.1787  0.8503
 8860TIP3   OH248070   0.253   5.794  12.353 -0.0664 -0.6716 -0.2760
 8860TIP3    H148071   0.243   5.737  12.430 -0.1996  0.1544  0.3163
 8860TIP3    H248072   0.204   5.749  12.284 -0.0751 -1.3421  0.1620
 8861TIP3   OH248073   2.299   0.522  14.377 -0.2331 -0.0634 -0.3735
 8861TIP3    H148074   2.233   0.454  14.394 -0.0056  0.1665  1.5311
 8861TIP3    H248075   2.317   0.515  14.284 -3.2281  0.0961 -1.0083
 8862TIP3   OH248076   3.026   3.881   2.116 -0.0092  0.4183 -0.5459
 8862TIP3    H148077   3.081   3.802   2.118 -0.2305  0.2427 -1.4562
 8862TIP3    H248078   2.938   3.849   2.135  0.2963  0.8103  1.7804
 8863TIP3   OH248079   0.098   2.132  15.975  0.1102 -0.0391  0.2671
 8863TIP3    H148080   0.033   2.097  16.037 -0.6421  1.1831  0.1822
 8863TIP3    H248081   0.169   2.067  15.975  0.1650 -0.0050  2.4937
 8864TIP3   OH248082   4.164   2.201   1.066  0.0155  0.2579  0.1046
 8864TIP3    H148083   4.137   2.173   0.978 -0.4664  1.6083 -0.1809
 8864TIP3    H248084   4.190   2.119   1.109  0.0021 -0.4578 -1.1955
 8865TIP3   OH248085   4.986   2.631   1.847 -0.3115  0.0523 -0.5194
 8865TIP3    H148086   4.970   2.548   1.890 -0.6597  0.4270  0.0755
 8865TIP3    H248087   5.082   2.637   1.841 -0.2667  0.0110  0.2122
 8866TIP3   OH248088   3.973   3.481  13.583 -0.3652  0.0667  0.4186
 8866TIP3    H148089   3.961   3.462  13.490 -0.0189 -0.8303  0.5480
 8866TIP3    H248090   3.973   3.576  13.589 -0.0231  0.1295 -0.5527
 8867TIP3   OH248091   6.289   0.567   2.354  0.2762  0.2329 -0.1799
 8867TIP3    H148092   6.356   0.507   2.320  0.0565 -0.5644  0.7762
 8867TIP3    H248093   6.264   0.619   2.279 -0.8239 -2.0883 -1.4718
 8868TIP3   OH248094   2.279   5.897  11.133  1.0460 -0.1998 -0.1659
 8868TIP3    H148095   2.219   5.827  11.157 -0.0516  0.6511 -0.4224
 8868TIP3    H248096   2.366   5.859  11.145  0.5075 -0.6641  2.5866
 8869TIP3   OH248097   1.045   0.873   3.936  0.2426 -0.5197 -0.4062
 8869TIP3    H148098   0.959   0.912   3.923  1.0957  1.4938 -0.1359
 8869TIP3    H248099   1.049   0.856   4.031  0.7364  0.8529 -0.1687
 8870TIP3   OH248100   0.456   4.278   0.651 -0.3136  0.5329  0.2607
 8870TIP3    H148101   0.368   4.298   0.620  0.1438  0.2779 -1.2168
 8870TIP3    H248102   0.490   4.362   0.682 -2.0448  0.1480  3.3947
 8871TIP3   OH248103   5.170   4.842   3.554  0.7406  0.4392  0.0388
 8871TIP3    H148104   5.265   4.845   3.571  1.1451 -2.4700 -1.4813
 8871TIP3    H248105   5.162   4.858   3.461 -0.2144 -0.0328  0.0400
 8872TIP3   OH248106   3.810   1.980   5.369  0.0093  0.1985  0.6124
 8872TIP3    H148107   3.860   1.899   5.367  1.7925  1.2352  1.8106
 8872TIP3    H248108   3.736   1.964   5.311  1.3592 -1.6245 -0.6743
 8873TIP3   OH248109   0.187   1.396   4.091  0.2192  0.2877 -0.3250
 8873TIP3    H148110   0.237   1.323   4.056  0.6346  0.1281  0.6184
 8873TIP3    H248111   0.191   1.386   4.186  0.0405  1.3750 -0.1987
 8874TIP3   OH248112   2.922   5.577  13.004 -0.2610  0.2700  0.1387
 8874TIP3    H148113   2.986   5.505  12.999  0.0838  0.4920  1.2747
 8874TIP3    H248114   2.849   5.540  13.054 -0.1984  0.6292  0.4920
 8875TIP3   OH248115   1.886   2.917  14.556 -0.1612  0.2055  0.1447
 8875TIP3    H148116   1.859   2.827  14.536 -0.1987 -0.4231  2.8337
 8875TIP3    H248117   1.980   2.918  14.536 -0.1780 -0.4083 -0.0012
 8876TIP3   OH248118   5.797   5.680   2.207  0.0320 -0.7336 -0.0239
 8876TIP3    H148119   5.826   5.645   2.291  1.6896  1.3318  0.3009
 8876TIP3    H248120   5.757   5.765   2.228 -0.1172 -0.4826 -1.2497
 8877TIP3   OH248121   6.684   3.610  12.921  0.5564  0.5662 -0.4873
 8877TIP3    H148122   6.685   3.659  12.839 -0.5693  0.6814 -0.4316
 8877TIP3    H248123   6.656   3.673  12.987  1.7520  0.5581  0.0530
 8878TIP3   OH248124   0.714   4.905   3.349 -0.3672 -0.2570 -0.4652
 8878TIP3    H148125   0.809   4.910   3.366 -0.6060  0.0629  0.8800
 8878TIP3    H248126   0.691   4.994   3.321 -0.9728  0.8439  3.2670
 8879TIP3   OH248127   0.555   4.254  15.726 -0.0271  0.0572 -0.4140
 8879TIP3    H148128   0.641   4.251  15.685 -0.4917  1.4106 -1.5034
 8879TIP3    H248129   0.552   4.338  15.772 -1.7028  1.2129 -2.5280
 8880TIP3   OH248130   5.692   2.094  13.177  0.2916 -0.2181 -0.0755
 8880TIP3    H148131   5.770   2.099  13.233  0.2805 -1.0151  0.0275
 8880TIP3    H248132   5.727   2.096  13.087  0.2909  1.3117 -0.0496
 8881TIP3   OH248133   6.489   2.050   5.086  0.6583  1.0841 -0.7289
 8881TIP3    H148134   6.528   2.010   5.008  1.9868  1.6612 -0.3746
 8881TIP3    H248135   6.398   2.067   5.061  0.8952  0.6479 -1.9248
 8882TIP3   OH248136   1.486   3.911   1.317 -0.4805  0.2496  0.7040
 8882TIP3    H148137   1.446   3.949   1.396 -0.8755  2.0742 -0.3350
 8882TIP3    H248138   1.414   3.907   1.254 -0.5625 -2.7707  0.9368
 8883TIP3   OH248139   5.257   5.516  13.371  0.2648  0.3375  0.2573
 8883TIP3    H148140   5.170   5.477  13.361 -0.0218  1.1413 -0.3695
 8883TIP3    H248141   5.310   5.474  13.304  0.3288 -0.0341  0.5332
 8884TIP3   OH248142   2.579   2.411   4.417 -0.3207 -0.2235  0.0301
 8884TIP3    H148143   2.487   2.403   4.444 -0.2933  1.5178  0.6538
 8884TIP3    H248144   2.580   2.482   4.353  0.3812 -1.2159 -1.1013
 8885TIP3   OH248145   6.403   2.762  15.740 -0.1119  0.3332  0.7710
 8885TIP3    H148146   6.468   2.764  15.810  1.5263 -2.9362 -0.5684
 8885TIP3    H248147   6.440   2.820  15.673  0.3652  0.1893  0.9043
 8886TIP3   OH248148   6.663   4.731   1.567 -0.1297  0.0855 -0.7714
 8886TIP3    H148149   6.721   4.753   1.495 -0.4168  1.2233 -0.6663
 8886TIP3    H248150   6.610   4.809   1.580  1.9923  1.0468  2.7029
 8887TIP3   OH248151   2.647   1.597  16.390 -0.0551 -0.1808  0.0102
 8887TIP3    H148152   2.662   1.645  16.309  1.9984  0.1991  0.5955
 8887TIP3    H248153   2.564   1.632  16.424 -1.9682 -1.6954 -2.8527
 8888TIP3   OH248154   3.564   5.561  12.876  0.2339  0.0692 -0.2721
 8888TIP3    H148155   3.624   5.500  12.834  0.2064 -0.0472 -0.1435
 8888TIP3    H248156   3.515   5.600  12.805  1.7743  1.5662 -0.5693
 8889TIP3   OH248157   2.091   6.381  15.473 -0.6005  0.4363  0.4431
 8889TIP3    H148158   2.032   6.364  15.546  1.0214 -1.5133  1.3464
 8889TIP3    H248159   2.164   6.320  15.486  1.3503  2.3844 -0.9341
 8890TIP3   OH248160   3.828   2.895   5.410  0.0031  0.1712  0.5064
 8890TIP3    H148161   3.777   2.822   5.445  0.9323 -0.0077  1.5045
 8890TIP3    H248162   3.913   2.889   5.454  1.0898  0.1625 -1.5517
 8891TIP3   OH248163   2.785   5.877   5.454 -0.3430 -0.0032  0.3330
 8891TIP3    H148164   2.770   5.823   5.532 -3.2763 -0.1751 -0.2870
 8891TIP3    H248165   2.785   5.967   5.487 -0.4450 -0.1244  0.6689
 8892TIP3   OH248166   0.339   2.972   1.524 -0.9430  0.4034 -0.5761
 8892TIP3    H148167   0.377   3.051   1.486 -1.2490  0.6588 -0.3519
 8892TIP3    H248168   0.337   2.909   1.452  2.5574 -0.5875  0.0718
 8893TIP3   OH248169   4.981   5.559  12.902  0.0856 -0.0441  0.3114
 8893TIP3    H148170   4.887   5.549  12.895  0.2585 -1.3623 -0.1440
 8893TIP3    H248171   5.018   5.483  12.856  1.3598  0.0158  1.1957
 8894TIP3   OH248172   6.436   0.132   3.166  0.0073  0.5237 -0.7413
 8894TIP3    H148173   6.432   0.190   3.090  1.0021 -0.4053 -1.5282
 8894TIP3    H248174   6.498   0.063   3.140 -1.9220 -1.4656 -0.2391
 8895TIP3   OH248175   4.333   6.371  17.070  0.2218 -0.3738  0.3535
 8895TIP3    H148176   4.417   6.409  17.093 -0.1489  0.9020 -0.3579
 8895TIP3    H248177   4.318   6.398  16.979 -1.6964  0.8068  0.9864
 8896TIP3   OH248178   0.019   1.316  11.300 -0.0128  0.2869 -0.3221
 8896TIP3    H148179  -0.012   1.257  11.369 -0.6260  1.3405  0.3129
 8896TIP3    H248180  -0.057   1.327  11.242 -0.0451  0.8102 -0.1846
 8897TIP3   OH248181   3.146   2.913  14.048 -0.1248 -0.2074 -0.2715
 8897TIP3    H148182   3.186   2.959  13.974  0.6085  1.6109  1.2287
 8897TIP3    H248183   3.052   2.917  14.031  0.0914 -0.6965 -1.6137
 8898TIP3   OH248184   0.787   0.636  13.113 -0.0627 -0.4757 -0.7330
 8898TIP3    H148185   0.728   0.611  13.184  1.8760  0.7967  1.3896
 8898TIP3    H248186   0.737   0.699  13.062 -1.1228 -0.6210  0.1042
 8899TIP3   OH248187   6.774   0.464  14.251  0.3156 -0.2029  0.0617
 8899TIP3    H148188   6.766   0.466  14.346  2.1644 -2.4020  0.3181
 8899TIP3    H248189   6.774   0.556  14.225 -2.5540  0.3852  1.9249
 8900TIP3   OH248190   6.580   0.492  13.009 -0.3596  0.3870  0.3605
 8900TIP3    H148191   6.609   0.415  12.960 -0.1748  0.6364  0.0738
 8900TIP3    H248192   6.563   0.459  13.097 -0.9298 -0.1119  0.0685
 8901TIP3   OH248193   1.529   2.919   3.143 -0.2185  0.3166 -0.2588
 8901TIP3    H148194   1.570   3.005   3.137  1.7534 -0.6022 -0.6225
 8901TIP3    H248195   1.480   2.909   3.062  1.6443  0.1057 -1.4079
 8902TIP3   OH248196   5.710   0.821  13.138  0.3277  0.3678 -0.0681
 8902TIP3    H148197   5.791   0.772  13.130 -0.7909 -1.4025 -0.7926
 8902TIP3    H248198   5.686   0.813  13.230  0.8113  0.6636  0.0873
 8903TIP3   OH248199   1.540   6.786  11.828  0.0159 -0.2891  0.5229
 8903TIP3    H148200   1.613   6.838  11.862 -1.5123  1.2619  1.5552
 8903TIP3    H248201   1.504   6.840  11.758 -1.6436  0.1387  1.6666
 8904TIP3   OH248202   5.561   1.311   5.906  0.2905  0.0097  0.3889
 8904TIP3    H148203   5.479   1.337   5.948  0.3350  0.0534  0.4467
 8904TIP3    H248204   5.539   1.229   5.861  0.5111 -0.6042  1.3736
 8905TIP3   OH248205   6.557   3.331   3.456 -0.7626  0.2828  0.2486
 8905TIP3    H148206   6.549   3.419   3.492 -0.3699 -0.6155  2.6400
 8905TIP3    H248207   6.472   3.290   3.473  0.0038 -0.7191  1.8107
 8906TIP3   OH248208   3.379   4.663   5.146  0.4117  0.1846  0.1102
 8906TIP3    H148209   3.411   4.573   5.153  0.4039 -0.1596 -3.2349
 8906TIP3    H248210   3.284   4.656   5.151  0.4853  0.2064  1.5364
 8907TIP3   OH248211   6.628   3.499  15.773  0.2058 -0.2475 -0.0113
 8907TIP3    H148212   6.588   3.459  15.696  1.6041 -4.2226  1.1694
 8907TIP3    H248213   6.693   3.560  15.739 -0.2498 -0.8181 -1.9504
 8908TIP3   OH248214   3.207   4.060   0.843 -0.0862 -0.7821  0.1664
 8908TIP3    H148215   3.149   4.102   0.907  0.3136 -0.6134  0.4207
 8908TIP3    H248216   3.294   4.093   0.864 -0.2222  1.0157 -1.8757
 8909TIP3   OH248217   1.241   1.343  12.799  0.0254 -0.8582 -0.2748
 8909TIP3    H148218   1.186   1.388  12.735 -1.7110 -0.1990  1.6258
 8909TIP3    H248219   1.291   1.412  12.841 -0.0300 -1.1023  0.1943
 8910TIP3   OH248220   1.699   2.470   2.617 -0.0567  0.3996  0.1387
 8910TIP3    H148221   1.638   2.513   2.675 -0.1524 -2.0173  1.9033
 8910TIP3    H248222   1.647   2.405   2.570  0.7251 -0.1523  0.0175
 8911TIP3   OH248223   3.843   0.478  13.034 -0.0653  0.1091  0.4545
 8911TIP3    H148224   3.820   0.396  13.079 -1.1998 -0.3329 -0.8809
 8911TIP3    H248225   3.773   0.539  13.058  0.6481  0.6273  1.2523
 8912TIP3   OH248226   5.747   5.072   5.447 -0.8483 -0.2097 -0.2531
 8912TIP3    H148227   5.699   5.153   5.466  1.2498  0.9038  0.4192
 8912TIP3    H248228   5.729   5.016   5.522 -2.1609 -0.3407 -0.6356
 8913TIP3   OH248229   4.101   0.146   2.851 -0.1193  0.0307 -0.0583
 8913TIP3    H148230   4.179   0.199   2.833  1.0187 -1.1532  1.2424
 8913TIP3    H248231   4.135   0.067   2.891 -1.7598 -1.8466 -2.2176
 8914TIP3   OH248232   4.274   6.802   6.755 -0.1545  0.2431  0.1922
 8914TIP3    H148233   4.269   6.707   6.769 -0.0557  0.1597 -0.3381
 8914TIP3    H248234   4.353   6.829   6.801  0.2201 -0.0454 -0.2788
 8915TIP3   OH248235   1.547   2.328   5.911 -0.3887  0.2498  0.0984
 8915TIP3    H148236   1.558   2.233   5.909  1.8839  0.5156 -1.5778
 8915TIP3    H248237   1.523   2.347   6.002  0.6453 -1.7634  0.8286
 8916TIP3   OH248238   5.300   6.135  10.503 -0.0530  0.4436 -0.0499
 8916TIP3    H148239   5.289   6.070  10.433 -1.1663  2.1958 -1.5537
 8916TIP3    H248240   5.213   6.139  10.545  0.1813  0.5526  0.4281
 8917TIP3   OH248241   5.380   1.972  12.317 -0.3852  0.0380 -0.0278
 8917TIP3    H148242   5.323   1.997  12.390 -1.8368  1.3155 -1.5588
 8917TIP3    H248243   5.331   1.997  12.239  1.4637 -0.6358 -1.4366
 8918TIP3   OH248244   0.772   2.858  11.186  0.4424 -0.2141 -0.4400
 8918TIP3    H148245   0.717   2.866  11.108 -0.3916  0.9190  0.2522
 8918TIP3    H248246   0.847   2.915  11.168 -0.5332  1.3090  0.2433
 8919TIP3   OH248247   1.258   6.811   0.522  0.1843 -0.1518  0.9393
 8919TIP3    H148248   1.247   6.898   0.560 -0.9223  0.3114 -0.4279
 8919TIP3    H248249   1.345   6.813   0.483 -0.2534  0.7197 -0.0303
 8920TIP3   OH248250   5.004   4.749   1.446  0.0206 -0.0308  0.0052
 8920TIP3    H148251   5.074   4.814   1.451  1.1274 -1.2961  1.2056
 8920TIP3    H248252   5.020   4.702   1.364  0.2221  0.0837 -0.0197
 8921TIP3   OH248253   0.755   1.063   1.336  0.0397 -0.0228  0.0852
 8921TIP3    H148254   0.764   1.109   1.253 -1.9436 -0.1919 -0.2534
 8921TIP3    H248255   0.796   0.978   1.321  0.3642  0.2333 -0.4738
 8922TIP3   OH248256   0.303   2.901   5.592  0.2405 -0.2050  0.0837
 8922TIP3    H148257   0.383   2.911   5.644  1.1503 -0.9197 -1.1532
 8922TIP3    H248258   0.329   2.845   5.519 -1.7440 -1.5277  0.3792
 8923TIP3   OH248259   3.986   3.246  11.507 -0.9177  0.0690  0.2477
 8923TIP3    H148260   4.012   3.196  11.430  0.4333 -1.1000  1.4416
 8923TIP3    H248261   4.030   3.203  11.580 -2.1216  1.1979  1.6780
 8924TIP3   OH248262   3.381   1.419   4.882 -0.2463 -0.0104  0.2355
 8924TIP3    H148263   3.385   1.418   4.977  2.3340 -1.2269  0.1639
 8924TIP3    H248264   3.387   1.327   4.856  0.3134  0.3922 -1.1307
 8925TIP3   OH248265   1.802   3.780  11.684 -0.2288 -0.7858 -0.3991
 8925TIP3    H148266   1.847   3.807  11.764 -2.0217 -0.6199  0.5717
 8925TIP3    H248267   1.873   3.756  11.624  1.2188  1.1905  0.4640
 8926TIP3   OH248268   4.157   5.069   2.489  0.5864  0.4777 -0.3646
 8926TIP3    H148269   4.066   5.059   2.464  0.3263  0.8256  0.4287
 8926TIP3    H248270   4.207   5.034   2.415 -0.2002 -0.6204 -0.3842
 8927TIP3   OH248271   2.568   3.302   5.234  0.5116 -0.4924  0.1633
 8927TIP3    H148272   2.575   3.289   5.140  0.5687 -1.1194  0.2562
 8927TIP3    H248273   2.648   3.349   5.258  0.2589  0.1279 -0.1769
 8928TIP3   OH248274   4.612   1.922  16.658  0.0598  0.0801 -0.2360
 8928TIP3    H148275   4.577   1.882  16.737 -0.1484  0.4552 -0.1382
 8928TIP3    H248276   4.700   1.952  16.683 -0.4171  1.1702  0.1630
 8929TIP3   OH248277   2.700   3.535   4.543  0.0061  0.0211 -0.8032
 8929TIP3    H148278   2.738   3.501   4.625 -0.2247  0.7136 -0.4066
 8929TIP3    H248279   2.706   3.461   4.482  1.5003 -0.0472 -0.5988
 8930TIP3   OH248280   5.547   6.199   1.195  0.1345  0.4529 -0.1543
 8930TIP3    H148281   5.586   6.123   1.239  2.1760 -0.5568 -3.4732
 8930TIP3    H248282   5.523   6.258   1.266  1.2147 -2.0221  2.3937
 8931TIP3   OH248283   0.559   0.518   3.301 -0.4160  0.3383  0.0618
 8931TIP3    H148284   0.640   0.540   3.347  0.4393  0.9325 -1.6731
 8931TIP3    H248285   0.501   0.593   3.318 -0.0115  0.6796 -0.0637
 8932TIP3   OH248286   5.860   3.744  17.032 -0.3614  0.4730 -0.3499
 8932TIP3    H148287   5.896   3.833  17.043  0.3047  0.2696 -0.8426
 8932TIP3    H248288   5.906   3.692  17.098  1.8436 -0.2342 -2.3473
 8933TIP3   OH248289   3.004   2.112  16.745  0.0370 -0.4997 -0.3529
 8933TIP3    H148290   3.047   2.194  16.771 -0.0237 -0.1493 -1.3639
 8933TIP3    H248291   2.940   2.138  16.680 -0.8634 -1.1978  0.2434
 8934TIP3   OH248292   3.644   3.422  10.594 -0.5489  0.0425 -0.1537
 8934TIP3    H148293   3.583   3.375  10.650 -0.4940  3.2406  2.7277
 8934TIP3    H248294   3.726   3.373  10.602 -1.6543 -2.0249 -0.9764
 8935TIP3   OH248295   0.664   5.498  12.057 -0.1843 -0.3054  0.1632
 8935TIP3    H148296   0.640   5.436  11.988  0.5512 -0.9384  0.4717
 8935TIP3    H248297   0.716   5.447  12.119 -1.9886 -0.1011  1.9187
 8936TIP3   OH248298   2.107   5.060  13.605  0.2959  0.5155 -0.0010
 8936TIP3    H148299   2.079   5.079  13.694 -0.5506  0.7277 -0.3089
 8936TIP3    H248300   2.169   4.988  13.615 -0.6199 -0.1984  0.6612
 8937TIP3   OH248301   3.134   1.135   0.548  0.2629  0.6649 -0.2520
 8937TIP3    H148302   3.039   1.135   0.535  0.3457  0.7867 -0.8631
 8937TIP3    H248303   3.167   1.194   0.481  0.8221  0.2174 -0.3681
 8938TIP3   OH248304   2.490   0.395  15.873 -0.4775  0.6246  0.0805
 8938TIP3    H148305   2.458   0.483  15.857 -0.0827  0.7616  0.0363
 8938TIP3    H248306   2.417   0.349  15.914 -0.3730  1.2288  0.9402
 8939TIP3   OH248307   4.589   5.133  13.208  0.1350  0.1136  0.3904
 8939TIP3    H148308   4.677   5.096  13.205 -0.6135 -2.0081  2.9924
 8939TIP3    H248309   4.553   5.115  13.121  2.0385  0.4380 -0.4798
 8940TIP3   OH248310   3.573   5.503  15.795  0.5727 -0.6772  0.0508
 8940TIP3    H148311   3.566   5.432  15.732  0.6583 -0.5083 -0.1495
 8940TIP3    H248312   3.659   5.543  15.777  0.1201  0.0777 -0.4720
 8941TIP3   OH248313   5.177   2.624   4.049  0.2469 -0.2824 -0.0288
 8941TIP3    H148314   5.243   2.688   4.023 -1.2791  0.6417 -1.7189
 8941TIP3    H248315   5.226   2.543   4.064  1.9131  0.7155 -0.0250
 8942TIP3   OH248316   4.153   1.293  10.535  0.6792 -0.2022  0.7899
 8942TIP3    H148317   4.108   1.226  10.485  0.1907 -0.1943  1.2141
 8942TIP3    H248318   4.083   1.349  10.569  1.0147 -0.1188  1.3526
 8943TIP3   OH248319   5.029   0.057  11.201 -0.1845 -0.3945 -0.5991
 8943TIP3    H148320   5.006   0.044  11.109  0.2049  2.3744 -1.1448
 8943TIP3    H248321   5.032   0.152  11.211  0.8527 -0.6701  2.0170
 8944TIP3   OH248322   3.895   4.244   2.666  0.1081 -0.1849 -0.1320
 8944TIP3    H148323   3.974   4.209   2.625  0.4828 -1.2651  1.4840
 8944TIP3    H248324   3.845   4.167   2.694 -2.3904  0.4193 -2.6606
 8945TIP3   OH248325   6.263   3.608   0.507  0.2759 -0.2604  0.3678
 8945TIP3    H148326   6.196   3.673   0.529  0.7330 -0.4819  2.4405
 8945TIP3    H248327   6.242   3.532   0.561  0.9733 -1.1088 -0.5271
 8946TIP3   OH248328   6.371   3.604   4.508  0.3338 -0.2668  0.1530
 8946TIP3    H148329   6.327   3.519   4.503  1.2886 -0.7608  0.1481
 8946TIP3    H248330   6.462   3.583   4.525  0.7465  0.7244 -0.7554
 8947TIP3   OH248331   4.599   5.881   1.891 -0.5160 -1.0132 -0.1473
 8947TIP3    H148332   4.506   5.902   1.899  0.0055  0.8429  1.1068
 8947TIP3    H248333   4.628   5.930   1.814 -0.7978 -2.4911 -1.2314
 8948TIP3   OH248334   3.042   6.705  12.695 -0.1507 -0.1863  0.0713
 8948TIP3    H148335   2.986   6.632  12.721  1.4055 -1.3230  0.2895
 8948TIP3    H248336   2.993   6.750  12.626  0.1632 -3.2651 -2.2829
 8949TIP3   OH248337   0.986   1.532   6.262  0.5270 -0.0358 -0.0065
 8949TIP3    H148338   0.990   1.604   6.325  1.5964  0.7032 -0.9031
 8949TIP3    H248339   0.938   1.463   6.308  2.0851  0.1499  1.9848
 8950TIP3   OH248340   5.012   2.869   3.019 -0.4962  0.2900  0.1240
 8950TIP3    H148341   4.942   2.814   2.985  0.0177 -0.1145 -0.2915
 8950TIP3    H248342   5.002   2.952   2.973 -1.4219  0.6377  0.9316
 8951TIP3   OH248343   5.630   4.193  11.857 -0.2623  0.3155 -0.2735
 8951TIP3    H148344   5.655   4.114  11.809 -0.1151  0.1440  0.0847
 8951TIP3    H248345   5.662   4.179  11.946 -1.2511  0.2859  0.0832
 8952TIP3   OH248346   0.154   5.921   4.593 -0.4342  0.0629  0.1667
 8952TIP3    H148347   0.167   5.893   4.684 -1.7962 -0.0922  0.3211
 8952TIP3    H248348   0.078   5.980   4.597  1.0370  2.0497 -0.4881
 8953TIP3   OH248349   1.383   6.735  12.548  0.3628  0.2489  0.0568
 8953TIP3    H148350   1.310   6.718  12.487 -0.4151  0.1163  1.0124
 8953TIP3    H248351   1.377   6.828  12.567  0.1142  0.1328  0.5545
 8954TIP3   OH248352   2.091   5.657  12.770 -0.5339 -0.1926  0.3278
 8954TIP3    H148353   2.159   5.722  12.786 -0.9159  0.6870 -1.5885
 8954TIP3    H248354   2.062   5.631  12.858  0.5381  1.2381  1.1195
 8955TIP3   OH248355   3.626   5.560   5.213  0.0719  0.7067  0.1044
 8955TIP3    H148356   3.721   5.566   5.202 -0.0254  0.8531 -0.7761
 8955TIP3    H248357   3.591   5.594   5.130 -0.7277 -0.7723 -0.1821
 8956TIP3   OH248358   3.248   1.734   1.288  0.0190 -0.0105 -0.5162
 8956TIP3    H148359   3.255   1.716   1.194 -0.3217  2.2854 -1.0022
 8956TIP3    H248360   3.195   1.661   1.322  0.2026 -0.8936 -2.0787
 8957TIP3   OH248361   6.443   4.678   5.646 -0.1274  0.3756  0.0094
 8957TIP3    H148362   6.358   4.665   5.603 -0.1210 -0.0513  0.1293
 8957TIP3    H248363   6.486   4.593   5.642 -0.1797  0.3059  0.9811
 8958TIP3   OH248364   0.803   1.082  10.903  0.3264 -0.0397 -0.2407
 8958TIP3    H148365   0.719   1.125  10.920  0.3916  0.1383 -0.3628
 8958TIP3    H248366   0.855   1.100  10.981  0.0980 -0.5297  0.0269
 8959TIP3   OH248367   2.243   3.340   4.676 -0.0662  0.2297 -0.4823
 8959TIP3    H148368   2.164   3.287   4.681 -0.2966  0.6219  0.1054
 8959TIP3    H248369   2.277   3.341   4.765  0.3104  0.5020 -0.6288
 8960TIP3   OH248370   1.110   2.502  14.519  0.2828  0.0791 -0.6169
 8960TIP3    H148371   1.066   2.505  14.604  1.1354  0.4246 -0.1796
 8960TIP3    H248372   1.191   2.553  14.532 -0.1151  1.0911 -1.9445
 8961TIP3   OH248373   0.220   5.143   0.507 -0.1858  0.9599 -0.7179
 8961TIP3    H148374   0.232   5.061   0.555 -0.3349  1.2756 -0.1382
 8961TIP3    H248375   0.155   5.121   0.439  0.9195  0.2103 -1.5445
 8962TIP3   OH248376   1.874   5.743   1.277 -0.7274  0.6348 -0.3958
 8962TIP3    H148377   1.822   5.795   1.216 -1.5183 -1.1665 -1.3000
 8962TIP3    H248378   1.815   5.725   1.351 -1.1154 -0.5914 -0.9802
 8963TIP3   OH248379   6.199   4.840  11.957 -0.4327 -0.4984 -0.0208
 8963TIP3    H148380   6.181   4.887  11.876 -1.4604 -1.8442 -0.5931
 8963TIP3    H248381   6.136   4.874  12.020  0.2946  0.4709  0.1878
 8964TIP3   OH248382   5.583   0.585  14.054 -0.2019  0.2521  0.2567
 8964TIP3    H148383   5.540   0.611  14.136  1.7991 -0.9009  1.7184
 8964TIP3    H248384   5.636   0.661  14.030 -0.1452  0.2814  0.4743
 8965TIP3   OH248385   2.939   5.301   6.186  0.1261  0.8778  0.1742
 8965TIP3    H148386   2.875   5.319   6.254  0.9242  2.5433  0.5090
 8965TIP3    H248387   3.022   5.292   6.232  0.4765  0.7818 -0.4632
 8966TIP3   OH248388   4.733   2.459   1.928  0.1508  0.0104  0.8435
 8966TIP3    H148389   4.810   2.404   1.913  0.6961  1.2518 -1.2097
 8966TIP3    H248390   4.686   2.416   1.999  2.3607 -1.1735  1.6434
 8967TIP3   OH248391   2.124   0.757   3.198  0.0270  0.9267  0.0647
 8967TIP3    H148392   2.165   0.677   3.166 -1.9085  0.4463 -1.2950
 8967TIP3    H248393   2.139   0.755   3.293  0.4284 -0.7883 -0.0136
 8968TIP3   OH248394   2.554   5.436   0.643  0.0110  0.0599 -0.0451
 8968TIP3    H148395   2.546   5.365   0.706 -3.1858  0.9062  0.5708
 8968TIP3    H248396   2.587   5.393   0.563 -0.9087 -1.9114  0.6077
 8969TIP3   OH248397   0.919   0.675   4.877 -0.9485 -0.3835 -0.0815
 8969TIP3    H148398   0.892   0.606   4.938  1.0636 -0.1783  1.0903
 8969TIP3    H248399   1.012   0.689   4.897 -0.9739  1.6431 -1.2958
 8970TIP3   OH248400   0.793   5.652  14.111  0.2206  0.3506  0.2226
 8970TIP3    H148401   0.800   5.558  14.100 -0.0014  0.5593 -2.0918
 8970TIP3    H248402   0.817   5.688  14.025  0.8370  2.4205  1.2263
 8971TIP3   OH248403   1.103   3.138  11.506 -0.0142 -0.5968 -0.1925
 8971TIP3    H148404   1.109   3.059  11.453 -0.4639  0.1712 -1.4118
 8971TIP3    H248405   1.190   3.177  11.500 -0.2213 -0.2265 -0.8221
 8972TIP3   OH248406   5.748   4.788  13.408  0.7532  0.6176  0.0104
 8972TIP3    H148407   5.765   4.743  13.491  1.0325  0.1665 -0.2868
 8972TIP3    H248408   5.653   4.782  13.396  0.9611 -1.3365 -0.8272
 8973TIP3   OH248409   2.320   2.367  13.952  0.4281  0.2082  0.1708
 8973TIP3    H148410   2.284   2.436  14.009 -1.2715  0.0967 -0.7212
 8973TIP3    H248411   2.295   2.285  13.995  1.2996  0.1363  0.5442
 8974TIP3   OH248412   2.785   0.907  12.134 -0.3229  0.3622  0.9264
 8974TIP3    H148413   2.726   0.905  12.210 -2.3197  0.4040 -0.5797
 8974TIP3    H248414   2.794   1.000  12.113 -0.6577  0.2907  0.4564
 8975TIP3   OH248415   5.676   2.981  12.460  0.2742  0.1660 -0.2419
 8975TIP3    H148416   5.630   3.047  12.408  0.1016 -0.5976 -1.0622
 8975TIP3    H248417   5.621   2.970  12.538  0.3469  1.0449 -0.0594
 8976TIP3   OH248418   1.318   5.228  11.755 -0.3968  0.4839 -0.2821
 8976TIP3    H148419   1.406   5.225  11.793 -0.9856  0.4941  1.1468
 8976TIP3    H248420   1.304   5.320  11.736  1.0268  0.1189 -3.3281
 8977TIP3   OH248421   0.947   6.622  12.134  0.7881  0.2552  0.3466
 8977TIP3    H148422   0.879   6.654  12.075  0.5262 -0.2870  0.3467
 8977TIP3    H248423   1.003   6.567  12.080 -0.0472 -1.0795  0.8044
 8978TIP3   OH248424   4.959   5.314   2.266  0.0640  0.2370 -0.6586
 8978TIP3    H148425   5.027   5.352   2.322  0.0040 -0.0341 -0.4036
 8978TIP3    H248426   5.006   5.254   2.209  0.4421  2.1130 -2.3628
 8979TIP3   OH248427   2.614   1.059   4.224 -0.4828 -0.2719  0.5171
 8979TIP3    H148428   2.605   0.999   4.150  0.1410 -0.3315  0.4860
 8979TIP3    H248429   2.538   1.040   4.279 -1.8544  0.9243 -0.9160
 8980TIP3   OH248430   5.404   0.508  12.949  0.4776 -0.0204  0.3533
 8980TIP3    H148431   5.343   0.581  12.958  0.7911  1.0357 -4.5842
 8980TIP3    H248432   5.491   0.548  12.954  0.7014 -0.5482  0.7774
 8981TIP3   OH248433   6.184   0.664  10.920  0.9751  0.4145  0.4155
 8981TIP3    H148434   6.245   0.737  10.917 -0.0212  1.2801  1.1021
 8981TIP3    H248435   6.098   0.703  10.911  0.5276 -0.8569 -1.1527
 8982TIP3   OH248436   5.204   1.013  16.021 -0.0396 -0.2381 -0.1242
 8982TIP3    H148437   5.234   0.996  15.932  1.3755  1.1771  0.0487
 8982TIP3    H248438   5.139   1.083  16.012  0.6290  0.4158 -0.0069
 8983TIP3   OH248439   0.814   5.156   1.010 -0.9909 -0.6260  0.3394
 8983TIP3    H148440   0.870   5.123   0.939 -1.4536 -2.8816  0.9884
 8983TIP3    H248441   0.726   5.127   0.987 -1.7112  1.6440  0.0843
 8984TIP3   OH248442   4.024   4.678   5.051  0.1925  0.0890  0.4373
 8984TIP3    H148443   4.081   4.713   4.983 -1.2493  2.8956  0.6371
 8984TIP3    H248444   4.074   4.687   5.132 -0.5324  2.6641  0.6310
 8985TIP3   OH248445   0.563   3.011  14.149 -0.1247 -0.8727  0.0073
 8985TIP3    H148446   0.605   3.091  14.180 -0.7579 -0.5137 -0.0745
 8985TIP3    H248447   0.577   3.011  14.055 -1.1017 -0.2940 -0.1413
 8986TIP3   OH248448   1.636   3.010  13.041  0.1745  0.2988  0.1225
 8986TIP3    H148449   1.602   2.965  13.119 -0.1266  0.1197 -0.1090
 8986TIP3    H248450   1.730   2.996  13.045 -0.0769 -2.1091 -0.9994
 8987TIP3   OH248451   2.458   1.426  16.937  0.1567 -0.0168 -0.6424
 8987TIP3    H148452   2.437   1.424  17.030  0.2004  0.1825 -0.6272
 8987TIP3    H248453   2.446   1.335  16.908 -1.3802  0.2083 -0.7791
 8988TIP3   OH248454   4.016   1.783  13.499  0.1701  0.7630 -0.3164
 8988TIP3    H148455   4.065   1.863  13.479 -0.4421  1.3488  0.4847
 8988TIP3    H248456   4.036   1.765  13.591  0.3163 -0.0082 -0.5014
 8989TIP3   OH248457   3.993   2.665   4.838 -0.2251 -0.2732  0.2023
 8989TIP3    H148458   4.073   2.706   4.804 -0.4981 -0.1475 -0.2935
 8989TIP3    H248459   4.022   2.579   4.867  0.2388  0.0475  0.7028
 8990TIP3   OH248460   4.485   0.590   2.222 -0.3053  0.1358  0.1768
 8990TIP3    H148461   4.566   0.559   2.261  0.4474 -0.0894 -1.5265
 8990TIP3    H248462   4.422   0.589   2.294  1.1805  0.2722  1.5012
 8991TIP3   OH248463   4.889   0.419  16.769  0.1961 -0.7162 -0.2646
 8991TIP3    H148464   4.895   0.470  16.849  1.6159  0.4076 -1.0645
 8991TIP3    H248465   4.796   0.400  16.759 -0.0118 -0.7135  1.5330
 8992TIP3   OH248466   5.129   5.897   4.083 -0.1017  0.2757 -0.0024
 8992TIP3    H148467   5.120   5.977   4.031 -0.7095 -0.8169 -1.6355
 8992TIP3    H248468   5.071   5.910   4.158 -0.6905  1.1071 -0.5921
 8993TIP3   OH248469   4.649   0.825  13.673 -0.2566  0.2759 -0.3348
 8993TIP3    H148470   4.568   0.815  13.622 -0.2956 -1.2626 -0.0032
 8993TIP3    H248471   4.623   0.808  13.763  0.5624 -1.0004 -0.3177
 8994TIP3   OH248472   3.119   5.763   0.666  0.7501  0.3508  0.7811
 8994TIP3    H148473   3.205   5.785   0.703  0.7807  2.7964 -0.6193
 8994TIP3    H248474   3.123   5.798   0.577 -0.7784 -1.8254 -0.1723
 8995TIP3   OH248475   2.137   5.062  16.390  0.2092 -0.0358  0.4729
 8995TIP3    H148476   2.137   5.144  16.342  1.0172 -0.7308 -0.7472
 8995TIP3    H248477   2.045   5.047  16.413 -0.0551  0.7584 -0.0589
 8996TIP3   OH248478   1.734   2.684  12.340  0.1330 -0.2444  0.3498
 8996TIP3    H148479   1.792   2.708  12.268 -0.2735  1.2971  0.5167
 8996TIP3    H248480   1.647   2.710  12.309 -0.0987 -0.0046  1.2051
 8997TIP3   OH248481   5.701   4.758  14.473  0.5591 -0.3217  0.2677
 8997TIP3    H148482   5.675   4.670  14.443 -2.2974  0.2151  1.1142
 8997TIP3    H248483   5.684   4.814  14.397 -0.7960  0.0412  0.8417
 8998TIP3   OH248484   4.572   0.578   1.558  0.2819  1.2445 -0.3909
 8998TIP3    H148485   4.602   0.555   1.646  0.4912  0.9605 -0.5337
 8998TIP3    H248486   4.634   0.534   1.500 -2.0532 -1.7847 -0.7473
 8999TIP3   OH248487   3.832   5.294   2.706  0.1917  0.2295  0.7329
 8999TIP3    H148488   3.857   5.266   2.794  3.3370 -1.6522 -0.6585
 8999TIP3    H248489   3.787   5.218   2.668 -2.0737  1.3804  0.9971
 9000TIP3   OH248490   2.699   0.400   2.355  0.3182  0.1521  0.0521
 9000TIP3    H148491   2.741   0.341   2.292  0.2911 -1.0232  1.0997
 9000TIP3    H248492   2.632   0.446   2.304 -1.4953 -2.6980 -0.2448
 9001TIP3   OH248493   0.146   4.127  11.924  0.2686  0.1908  0.4224
 9001TIP3    H148494   0.136   4.034  11.906  1.3829  0.1541 -0.0281
 9001TIP3    H248495   0.144   4.169  11.838  0.7598  0.4859  0.5537
 9002TIP3   OH248496   0.538   0.474   0.750 -0.2122 -0.4415  0.6447
 9002TIP3    H148497   0.524   0.468   0.656 -1.3383  0.2888  0.7544
 9002TIP3    H248498   0.467   0.530   0.781  1.0589  0.5990  1.7075
 9003TIP3   OH248499   0.431   4.342  14.776  0.2071  0.3769 -0.0484
 9003TIP3    H148500   0.502   4.332  14.712  1.0676 -0.8286  1.0651
 9003TIP3    H248501   0.373   4.268  14.759  0.1358  0.3746  0.2077
 9004TIP3   OH248502   2.691   4.312  12.945  0.2914 -0.5992 -0.0211
 9004TIP3    H148503   2.707   4.397  12.985 -2.3674  0.7137 -1.6437
 9004TIP3    H248504   2.713   4.325  12.852  0.0649 -1.7557 -0.2433
 9005TIP3   OH248505   1.856   0.191   0.317  0.0526  0.0548 -0.0251
 9005TIP3    H148506   1.871   0.187   0.412 -0.2042  0.8580  0.0557
 9005TIP3    H248507   1.844   0.100   0.291  0.5009 -0.2052  0.6536
 9006TIP3   OH248508   5.401   4.264  15.004  0.7146 -0.4282 -0.3577
 9006TIP3    H148509   5.400   4.274  15.100 -2.8801 -0.8745 -0.2558
 9006TIP3    H248510   5.439   4.346  14.972 -0.6699  0.9598  1.3919
 9007TIP3   OH248511   1.212   0.992  14.685  0.4770 -0.2666  0.0606
 9007TIP3    H148512   1.166   1.046  14.749 -0.5579 -0.2209 -0.7095
 9007TIP3    H248513   1.300   0.983  14.721  0.0507  0.1559  1.2467
 9008TIP3   OH248514   1.715   1.966   6.210  0.0858 -0.2321 -0.4257
 9008TIP3    H148515   1.769   1.980   6.288 -1.4205 -0.1360  0.6217
 9008TIP3    H248516   1.762   1.900   6.159  0.5205 -1.1476  1.1305
 9009TIP3   OH248517   2.527   6.746  13.336  0.1601 -0.3387 -0.7260
 9009TIP3    H148518   2.620   6.765  13.326  0.3814 -1.8777 -1.8365
 9009TIP3    H248519   2.484   6.800  13.270  0.2894  0.2162 -0.3557
 9010TIP3   OH248520   5.264   0.412  13.169 -0.3796  0.0459  0.1788
 9010TIP3    H148521   5.319   0.421  13.091  0.1819 -0.8780  0.4564
 9010TIP3    H248522   5.175   0.422  13.137 -0.1415 -0.2246 -0.5659
 9011TIP3   OH248523   5.630   6.255  16.819  0.1396  0.2264  0.3519
 9011TIP3    H148524   5.652   6.308  16.742 -2.8249  1.2257  0.1312
 9011TIP3    H248525   5.568   6.190  16.787 -1.7307  1.1326  2.0256
 9012TIP3   OH248526   6.172   2.615  15.718 -0.4144  0.4079 -0.0467
 9012TIP3    H148527   6.240   2.680  15.736  0.7174 -0.3619 -1.4903
 9012TIP3    H248528   6.128   2.604  15.802 -0.0325  2.3633  0.4350
 9013TIP3   OH248529   3.604   3.690  14.604 -0.4130 -0.9729  0.4205
 9013TIP3    H148530   3.644   3.712  14.520 -3.3834  0.8828 -0.5941
 9013TIP3    H248531   3.634   3.759  14.663 -0.1865 -0.9556  0.2872
 9014TIP3   OH248532   0.770   1.293   0.086  0.1619 -0.3629 -0.2652
 9014TIP3    H148533   0.675   1.307   0.085  0.5249  2.5086  0.8255
 9014TIP3    H248534   0.788   1.256   0.173 -0.0569 -2.0035 -0.8932
 9015TIP3   OH248535   5.885   4.807   4.224 -0.5164 -0.2197 -0.2373
 9015TIP3    H148536   5.926   4.729   4.263 -0.5410 -0.4564 -0.6872
 9015TIP3    H248537   5.873   4.785   4.132 -3.5464 -0.9253  0.2826
 9016TIP3   OH248538   5.340   2.377   3.753  0.1788 -0.4280  0.4564
 9016TIP3    H148539   5.332   2.468   3.782 -1.4197 -0.0515 -1.0669
 9016TIP3    H248540   5.305   2.327   3.827 -0.4125  0.2944  0.6829
 9017TIP3   OH248541   6.380   4.124  11.876 -0.5575  0.0181 -0.3102
 9017TIP3    H148542   6.419   4.194  11.824 -0.9373  0.8040  0.4466
 9017TIP3    H248543   6.340   4.169  11.950  1.9176 -1.2201  1.8914
 9018TIP3   OH248544   4.559   1.240  13.441  0.0973 -0.2155 -0.2373
 9018TIP3    H148545   4.652   1.234  13.465 -0.5347 -1.2523  2.1040
 9018TIP3    H248546   4.534   1.150  13.420 -1.1043 -0.4398  2.0512
 9019TIP3   OH248547   0.924   3.322   1.072  0.2739 -0.0266  0.1185
 9019TIP3    H148548   1.007   3.286   1.105  1.2134  1.6317 -0.3644
 9019TIP3    H248549   0.886   3.367   1.148  1.5871  2.2882 -0.5467
 9020TIP3   OH248550   4.657   0.857   2.851  0.5342 -0.3238  0.4560
 9020TIP3    H148551   4.713   0.930   2.825  0.1887 -0.6955 -1.4002
 9020TIP3    H248552   4.576   0.899   2.880  0.9239  0.1040  0.9336
 9021TIP3   OH248553   0.160   3.476  12.680  0.5087 -0.3592  0.3030
 9021TIP3    H148554   0.236   3.449  12.629 -0.2956  0.2666 -1.2816
 9021TIP3    H248555   0.097   3.404  12.668  0.1367  0.0110 -0.0207
 9022TIP3   OH248556   3.079   0.663  13.915 -0.1280 -0.4225 -0.0137
 9022TIP3    H148557   3.174   0.652  13.910 -0.3797 -1.9816 -2.2850
 9022TIP3    H248558   3.066   0.757  13.922  1.5512  0.0156 -2.1871
 9023TIP3   OH248559   1.052   0.449  13.949  0.6489 -0.1119 -0.1291
 9023TIP3    H148560   1.090   0.412  14.029  0.3598  0.5346  0.3070
 9023TIP3    H248561   1.086   0.538  13.945  1.7954 -0.5903 -1.4852
 9024TIP3   OH248562   4.383   2.804  10.668  0.2660  0.2938 -0.3528
 9024TIP3    H148563   4.339   2.865  10.608  1.5676 -0.0058 -1.6311
 9024TIP3    H248564   4.400   2.857  10.747 -0.3705  1.0267 -0.6927
 9025TIP3   OH248565   4.467   2.508  11.506  0.4659 -0.1951 -0.7381
 9025TIP3    H148566   4.376   2.503  11.478  0.6858 -0.2381 -1.4501
 9025TIP3    H248567   4.512   2.441  11.455  0.6597 -1.0646  0.5548
 9026TIP3   OH248568   6.382   6.281  15.629 -0.1788  0.5776  0.2204
 9026TIP3    H148569   6.456   6.240  15.675 -0.1154  1.2815  0.7633
 9026TIP3    H248570   6.409   6.284  15.538  1.8531  3.6853  0.8098
 9027TIP3   OH248571   2.007   4.375   1.714  0.1450  0.2139 -0.1040
 9027TIP3    H148572   1.949   4.442   1.678  0.5166  1.4995  1.6141
 9027TIP3    H248573   1.976   4.293   1.676 -3.3160  0.7696  1.3549
 9028TIP3   OH248574   1.142   3.821  10.731  0.1229  0.2510 -0.1450
 9028TIP3    H148575   1.168   3.865  10.650  2.1170 -0.1513  0.2736
 9028TIP3    H248576   1.128   3.893  10.793  0.3409  0.4607 -0.3386
 9029TIP3   OH248577   6.566   6.059   5.849 -0.3463 -0.1312 -0.3249
 9029TIP3    H148578   6.551   6.116   5.925 -0.2465  0.3808 -0.6885
 9029TIP3    H248579   6.655   6.079   5.821 -0.0561 -0.9805 -0.0285
 9030TIP3   OH248580   0.578   2.911  11.949 -0.1162 -0.0215  0.6750
 9030TIP3    H148581   0.616   2.993  11.981  0.4449 -0.1022  0.2194
 9030TIP3    H248582   0.654   2.857  11.927 -0.4890 -0.5790  0.7681
 9031TIP3   OH248583   0.585   0.556  12.619  0.1803 -0.3266  0.1762
 9031TIP3    H148584   0.547   0.470  12.638 -0.2008 -0.4304 -0.9807
 9031TIP3    H248585   0.559   0.574  12.528 -2.1702  2.2848  1.2991
 9032TIP3   OH248586   3.262   4.960  11.204  0.3454 -0.4599  0.5612
 9032TIP3    H148587   3.300   4.963  11.292 -0.5610 -2.7046  1.0631
 9032TIP3    H248588   3.239   4.869  11.191 -1.0392  0.1319 -1.3845
 9033TIP3   OH248589   6.627   1.949   3.080 -0.1756 -0.3650  0.3286
 9033TIP3    H148590   6.713   1.987   3.059 -1.0181  1.5011  0.2117
 9033TIP3    H248591   6.643   1.854   3.080  1.9169 -0.0472  0.4439
 9034TIP3   OH248592   6.305   0.918   3.250  0.0103  0.0869 -0.2872
 9034TIP3    H148593   6.378   0.870   3.210 -0.9140 -0.7689 -0.9807
 9034TIP3    H248594   6.258   0.851   3.300  0.9462  1.0702  1.9559
 9035TIP3   OH248595   3.170   2.654   1.468 -0.3307 -0.3171 -0.4894
 9035TIP3    H148596   3.160   2.747   1.448 -2.4363 -0.6554 -1.0823
 9035TIP3    H248597   3.237   2.652   1.537 -0.6627  1.6710 -0.0704
 9036TIP3   OH248598   2.424   1.644   3.556  0.2474  0.2133 -0.4961
 9036TIP3    H148599   2.413   1.612   3.646 -0.2887 -0.3410 -0.7604
 9036TIP3    H248600   2.381   1.578   3.501  2.3364 -0.5026 -1.3183
 9037TIP3   OH248601   4.698   5.927   0.359  0.4536  0.3003 -0.3709
 9037TIP3    H148602   4.647   5.943   0.279 -0.3596 -1.1844 -0.1689
 9037TIP3    H248603   4.684   5.834   0.378  0.9882  0.5464  1.2687
 9038TIP3   OH248604   2.734   1.130  14.309  0.3218  0.1149 -0.6819
 9038TIP3    H148605   2.778   1.211  14.285 -0.4451  0.5746 -0.5624
 9038TIP3    H248606   2.803   1.064  14.308  0.9448  0.7598 -0.8171
 9039TIP3   OH248607   6.151   5.010   4.239 -0.7504 -0.0234 -0.4082
 9039TIP3    H148608   6.169   5.019   4.146 -0.3098  0.5522 -0.2665
 9039TIP3    H248609   6.219   4.950   4.270 -1.7385 -1.3291 -0.7236
 9040TIP3   OH248610   1.828   1.972  15.734 -0.2731 -0.0610  0.5502
 9040TIP3    H148611   1.814   1.878  15.739  0.3448 -0.1494  0.6415
 9040TIP3    H248612   1.744   2.007  15.703  0.2211 -0.8531 -1.7280
 9041TIP3   OH248613   5.805   4.026   4.248  0.2982 -0.2455 -0.0142
 9041TIP3    H148614   5.838   4.101   4.199  0.0679 -0.3184 -0.2814
 9041TIP3    H248615   5.721   4.005   4.207  0.2198 -0.4603  0.2522
 9042TIP3   OH248616   5.863   2.203  14.165 -0.4179 -0.0188  0.8292
 9042TIP3    H148617   5.927   2.136  14.139 -0.6586 -0.0510  0.3218
 9042TIP3    H248618   5.853   2.258  14.088 -1.0666 -0.0547  0.8839
 9043TIP3   OH248619   2.664   5.867  12.329  0.0654 -0.2064 -0.0390
 9043TIP3    H148620   2.610   5.788  12.340 -1.8479  1.0601 -0.0234
 9043TIP3    H248621   2.606   5.939  12.354  1.6456  1.2438 -0.4682
 9044TIP3   OH248622   6.538   3.343  11.740 -0.3376  0.5863  0.5541
 9044TIP3    H148623   6.578   3.411  11.684 -1.4243  0.7173 -0.0743
 9044TIP3    H248624   6.471   3.303  11.685  1.3226 -2.0782  0.3879
 9045TIP3   OH248625   1.399   6.031  14.852 -0.3052 -0.1388 -0.5961
 9045TIP3    H148626   1.342   5.964  14.816  0.9317 -2.0740  0.9199
 9045TIP3    H248627   1.410   6.006  14.944  1.4741  1.2109 -0.4107
 9046TIP3   OH248628   1.553   3.447  17.018 -0.6734 -0.2917 -0.6208
 9046TIP3    H148629   1.604   3.428  17.096  0.1613  1.6853 -0.6689
 9046TIP3    H248630   1.548   3.542  17.014  0.8716 -0.2699 -3.9362
 9047TIP3   OH248631   4.241   2.361   2.559 -0.1099 -0.2650  0.6043
 9047TIP3    H148632   4.267   2.274   2.528  2.9584  0.2359  1.6247
 9047TIP3    H248633   4.262   2.361   2.652 -1.4541  1.0952  0.9277
 9048TIP3   OH248634   5.591   1.498  15.937  0.4959  0.2188  0.4307
 9048TIP3    H148635   5.525   1.452  15.990 -0.1656 -0.6506 -1.0999
 9048TIP3    H248636   5.641   1.428  15.895  0.4779  0.8716 -0.7180
 9049TIP3   OH248637   5.895   5.301   5.079  0.1794  0.0325 -0.4650
 9049TIP3    H148638   5.989   5.283   5.070  0.1411 -0.5535  0.2695
 9049TIP3    H248639   5.889   5.396   5.081  1.2694  0.1391  4.3985
 9050TIP3   OH248640   5.028   4.970  12.703 -0.6278  0.3186  0.0405
 9050TIP3    H148641   5.022   5.024  12.782 -2.6094  0.9528 -0.5022
 9050TIP3    H248642   5.117   4.982  12.672  0.2693 -0.1521  2.3266
 9051TIP3   OH248643   2.271   0.969  14.662 -0.2553 -0.1314 -0.3088
 9051TIP3    H148644   2.233   1.026  14.595  1.1056 -0.0980 -1.0634
 9051TIP3    H248645   2.208   0.972  14.734 -1.1306  0.8115 -1.0944
 9052TIP3   OH248646   3.770   3.974   2.620 -0.0667 -0.1826  0.2497
 9052TIP3    H148647   3.797   4.001   2.533  0.9036 -0.3687  0.4936
 9052TIP3    H248648   3.693   3.919   2.605  0.8350 -1.2412 -0.5854
 9053TIP3   OH248649   4.520   1.071  15.970 -0.6418 -0.7361 -0.6241
 9053TIP3    H148650   4.532   0.980  15.998  2.9586 -0.5898 -1.5388
 9053TIP3    H248651   4.496   1.064  15.878 -1.1866 -0.7537 -0.4865
 9054TIP3   OH248652   5.011   1.684  12.608 -0.3347  0.4108  0.0471
 9054TIP3    H148653   5.068   1.760  12.602  0.7153 -0.3419  0.2965
 9054TIP3    H248654   5.049   1.621  12.546 -0.5710 -0.2956  0.6090
 9055TIP3   OH248655   3.870   1.080   5.755  0.1366  1.2108  0.6044
 9055TIP3    H148656   3.843   1.042   5.672  0.8283  2.4295 -0.1971
 9055TIP3    H248657   3.965   1.067   5.758 -0.0752 -0.2046  1.9269
 9056TIP3   OH248658   2.873   2.181   2.437 -0.3647 -0.2033  0.1100
 9056TIP3    H148659   2.865   2.246   2.507 -0.2370  0.5864 -0.5990
 9056TIP3    H248660   2.805   2.205   2.374 -1.3964 -1.7414  0.6012
 9057TIP3   OH248661   3.162   1.779  15.041  0.2630  0.1932 -0.3304
 9057TIP3    H148662   3.173   1.872  15.058  1.0708  0.4468 -2.0623
 9057TIP3    H248663   3.250   1.742  15.053  0.0810 -0.2250 -0.2680
 9058TIP3   OH248664   1.337   2.060   1.233  0.3323 -0.2723 -0.7522
 9058TIP3    H148665   1.368   1.969   1.231 -0.4182 -0.6097  1.3744
 9058TIP3    H248666   1.312   2.080   1.143 -0.3900 -2.4928 -1.0644
 9059TIP3   OH248667   3.317   4.122   4.743  0.2752  0.0431 -0.2817
 9059TIP3    H148668   3.231   4.161   4.758  0.8531  0.5096  2.0127
 9059TIP3    H248669   3.379   4.194   4.755  1.1932 -1.0204  1.5607
 9060TIP3   OH248670   3.153   6.189  17.096  0.5319 -0.1111 -0.7639
 9060TIP3    H148671   3.241   6.226  17.095  0.2434  0.5715 -1.4191
 9060TIP3    H248672   3.097   6.262  17.122  0.1090 -0.4418 -0.7382
 9061TIP3   OH248673   3.261   5.554  14.940  0.1148 -0.2653  0.4755
 9061TIP3    H148674   3.279   5.485  15.004 -0.3701  0.1547  1.0730
 9061TIP3    H248675   3.166   5.566  14.943  0.2987  1.1507  1.1467
 9062TIP3   OH248676   4.579   0.855   1.477  0.4417 -0.2547  0.1480
 9062TIP3    H148677   4.617   0.904   1.549  0.3671 -1.9891  1.3983
 9062TIP3    H248678   4.570   0.766   1.511 -0.1518 -0.9591 -1.7970
 9063TIP3   OH248679   4.724   5.479  17.223 -0.3151 -0.1076  0.4228
 9063TIP3    H148680   4.716   5.573  17.237 -1.0509 -0.1970  0.6002
 9063TIP3    H248681   4.668   5.461  17.147 -1.6337 -0.6946  1.5278
 9064TIP3   OH248682   3.230   4.929  16.001 -0.2308  0.1177 -0.8419
 9064TIP3    H148683   3.236   4.881  15.919 -0.8644  0.0089 -0.8216
 9064TIP3    H248684   3.312   4.979  16.005  0.7858 -1.5258 -0.4988
 9065TIP3   OH248685   5.166   0.865  12.372  0.7349  0.6454 -0.2125
 9065TIP3    H148686   5.150   0.879  12.466  1.1937 -0.9139  0.1036
 9065TIP3    H248687   5.081   0.884  12.331  0.1614  0.0431  0.6565
 9066TIP3   OH248688   4.510   1.721  13.232  0.2836 -0.2347  0.1762
 9066TIP3    H148689   4.457   1.721  13.311  0.5601 -0.3391  0.3612
 9066TIP3    H248690   4.541   1.630  13.224 -0.4809 -0.4416 -0.5434
 9067TIP3   OH248691   4.260   1.914  17.041  0.2714  0.2106 -0.5401
 9067TIP3    H148692   4.322   1.842  17.031  0.7276  0.4481  0.4742
 9067TIP3    H248693   4.224   1.903  17.129  0.3754  1.2328 -0.3544
 9068TIP3   OH248694   5.162   4.182   0.141 -0.0247 -0.2009 -0.2211
 9068TIP3    H148695   5.225   4.185   0.214  0.2149 -1.1788 -0.3756
 9068TIP3    H248696   5.194   4.246   0.079  0.7814 -0.6243 -0.2548
 9069TIP3   OH248697   0.211   4.012   3.466  0.6212  0.2322 -0.0607
 9069TIP3    H148698   0.181   4.085   3.520  0.0554  0.4492 -0.6661
 9069TIP3    H248699   0.286   3.976   3.514  0.5572  0.8594  0.5159
 9070TIP3   OH248700   3.553   2.903  12.113 -0.2890  0.2125 -0.2926
 9070TIP3    H148701   3.619   2.836  12.132 -2.7961 -1.6890  1.8860
 9070TIP3    H248702   3.568   2.924  12.021  1.5195 -2.2578 -0.6298
 9071TIP3   OH248703   1.781   5.271   3.064  0.1236  0.0195 -0.0988
 9071TIP3    H148704   1.715   5.325   3.022  0.7793  0.7643 -0.1843
 9071TIP3    H248705   1.817   5.326   3.134  0.7740 -0.3059 -0.1660
 9072TIP3   OH248706   3.096   3.948   6.235 -0.5415 -0.2907  0.4081
 9072TIP3    H148707   3.061   3.956   6.323  1.3367 -2.0795  1.3621
 9072TIP3    H248708   3.109   4.038   6.206 -2.3775  0.3325  1.4359
 9073TIP3   OH248709   4.925   4.253   3.550 -0.2955 -0.1017 -0.4646
 9073TIP3    H148710   4.972   4.332   3.577 -0.0463 -0.7052  0.9096
 9073TIP3    H248711   4.964   4.231   3.465 -0.9089  1.6755 -1.2361
 9074TIP3   OH248712   6.634   5.244   1.505  0.6556  0.2201  0.0590
 9074TIP3    H148713   6.544   5.249   1.537  0.7949 -0.1234  0.5167
 9074TIP3    H248714   6.681   5.197   1.574  1.0202 -0.2807 -0.5209
 9075TIP3   OH248715   3.663   2.388   2.119 -0.4748  0.0800 -0.6948
 9075TIP3    H148716   3.731   2.391   2.186 -2.5678 -2.6488  1.7426
 9075TIP3    H248717   3.701   2.335   2.049 -0.3672 -2.2954  1.0830
 9076TIP3   OH248718   1.061   1.734  16.927  0.0902 -0.2241  0.6684
 9076TIP3    H148719   1.078   1.787  17.005  0.2335  1.8466 -0.7300
 9076TIP3    H248720   0.977   1.765  16.895  0.1199 -0.9423 -0.1245
 9077TIP3   OH248721   2.841   2.944   2.188 -0.3965 -0.1658 -0.1305
 9077TIP3    H148722   2.904   3.004   2.227  0.1610 -0.0802 -1.1474
 9077TIP3    H248723   2.886   2.860   2.186 -0.9999 -0.5325  0.8427
 9078TIP3   OH248724   6.036   2.847  13.291 -0.1226 -0.2590  0.2085
 9078TIP3    H148725   6.130   2.829  13.289 -0.2943 -1.3564  1.4613
 9078TIP3    H248726   5.995   2.770  13.251 -0.4300  0.8825 -1.7643
 9079TIP3   OH248727   2.012   4.726   0.022  0.2585 -0.1078  0.5642
 9079TIP3    H148728   1.995   4.643   0.066 -1.7354 -0.3386 -0.6051
 9079TIP3    H248729   2.036   4.702  -0.067 -2.2698  0.6181 -0.3517
 9080TIP3   OH248730   5.227   6.240   2.126 -0.0007 -0.0598 -0.1893
 9080TIP3    H148731   5.187   6.272   2.208 -1.4753 -1.3843 -0.3733
 9080TIP3    H248732   5.285   6.169   2.154 -0.5290 -0.5338 -0.3023
 9081TIP3   OH248733   6.107   3.407   2.752  0.5032 -0.6253  0.1060
 9081TIP3    H148734   6.109   3.315   2.777  1.7968 -0.7313 -0.3460
 9081TIP3    H248735   6.063   3.408   2.667  2.2134 -1.0708 -0.8112
 9082TIP3   OH248736   4.558   4.411  10.700 -0.1871  0.1377  0.8491
 9082TIP3    H148737   4.471   4.438  10.672  0.4787  2.2958  0.8106
 9082TIP3    H248738   4.567   4.321  10.668 -2.4218 -0.1493  0.9595
 9083TIP3   OH248739   0.524   3.804  13.051 -0.2790 -0.3473 -0.6578
 9083TIP3    H148740   0.587   3.874  13.068 -1.2398  0.3152  0.1222
 9083TIP3    H248741   0.493   3.777  13.137  1.0936 -2.6802 -0.8392
 9084TIP3   OH248742   4.668   6.065   5.368 -0.1816  0.0517  0.0933
 9084TIP3    H148743   4.641   6.083   5.459 -1.2300  0.1073 -0.2143
 9084TIP3    H248744   4.660   5.970   5.359  2.6336 -0.3013  0.8789
 9085TIP3   OH248745   5.400   1.507  14.685  0.0235 -0.4982  0.0498
 9085TIP3    H148746   5.490   1.484  14.664 -0.0943  0.3034 -1.3472
 9085TIP3    H248747   5.407   1.562  14.763  0.8964  1.0183 -1.0760
 9086TIP3   OH248748   4.605   4.207  15.847  0.6853  0.1430  0.1717
 9086TIP3    H148749   4.669   4.169  15.787 -0.1962  1.3209 -1.5162
 9086TIP3    H248750   4.532   4.234  15.792 -0.3814  0.7379  1.8308
 9087TIP3   OH248751   0.550   5.332   0.870 -0.1181  0.0934  0.9068
 9087TIP3    H148752   0.526   5.259   0.928 -3.6347  1.1609  0.8817
 9087TIP3    H248753   0.569   5.404   0.930 -0.6154  0.3090  0.7996
 9088TIP3   OH248754   1.010   2.884   0.804 -0.1444  0.1676  0.0423
 9088TIP3    H148755   1.003   2.974   0.835 -0.3756  0.2387 -0.2112
 9088TIP3    H248756   0.920   2.853   0.801 -0.2180  0.4502 -1.3893
 9089TIP3   OH248757   5.923   6.122  13.041 -0.3475 -0.0390 -0.2331
 9089TIP3    H148758   5.951   6.114  12.950 -1.3337 -0.9355 -0.4727
 9089TIP3    H248759   5.896   6.034  13.066 -0.1523  0.2098  0.9141
 9090TIP3   OH248760   6.479   3.488   2.329 -0.2984 -0.0715 -0.6782
 9090TIP3    H148761   6.559   3.486   2.277  0.0322  1.8525 -0.2829
 9090TIP3    H248762   6.444   3.576   2.315 -1.7084 -0.5003  0.0917
 9091TIP3   OH248763   6.326   4.149   3.665 -0.2385  0.1636  0.1045
 9091TIP3    H148764   6.278   4.070   3.691 -1.3366 -0.0591 -2.4815
 9091TIP3    H248765   6.308   4.159   3.572  1.1165  2.6389  0.0594
 9092TIP3   OH248766   3.858   6.165  11.589  0.6420  0.2292  0.2963
 9092TIP3    H148767   3.888   6.251  11.620  2.1831 -0.8079  1.7248
 9092TIP3    H248768   3.797   6.136  11.656  0.7992 -0.1938  0.2542
 9093TIP3   OH248769   1.730   1.698  15.955 -0.1120  0.5408  0.0269
 9093TIP3    H148770   1.662   1.753  15.915  0.8769  1.5594 -0.2862
 9093TIP3    H248771   1.737   1.730  16.045 -1.0972 -0.5767  0.5144
 9094TIP3   OH248772   5.884   5.162  13.339  0.6681  0.2348 -0.2711
 9094TIP3    H148773   5.836   5.122  13.266 -0.2845  0.2081  0.3585
 9094TIP3    H248774   5.885   5.256  13.318 -1.2418  0.4749  0.5868
 9095TIP3   OH248775   6.696   2.022  11.833  0.0254  0.6081  0.0857
 9095TIP3    H148776   6.725   2.071  11.910 -0.7211  1.3066 -0.0672
 9095TIP3    H248777   6.750   1.943  11.833  0.5830  0.9814  0.8739
 9096TIP3   OH248778   1.830   1.816  11.628 -0.3959  0.0444  0.3044
 9096TIP3    H148779   1.775   1.821  11.549  1.3693 -0.1348 -0.9588
 9096TIP3    H248780   1.845   1.908  11.652  1.3196  0.1863 -1.1941
 9097TIP3   OH248781   6.006   0.533   5.987 -0.3837  0.2550 -0.1255
 9097TIP3    H148782   5.922   0.565   5.953 -0.6571 -0.1474  0.1640
 9097TIP3    H248783   6.006   0.439   5.966 -0.1568  0.1847  0.1788
 9098TIP3   OH248784   5.472   0.494  16.206 -0.3066 -0.4204 -0.2206
 9098TIP3    H148785   5.415   0.526  16.137 -0.6226 -0.5678 -0.0253
 9098TIP3    H248786   5.437   0.532  16.287  2.0191  2.4628 -0.4962
 9099TIP3   OH248787   6.108   3.588  16.137  0.0989 -0.1852  0.0558
 9099TIP3    H148788   6.042   3.522  16.159 -0.2207 -0.3489 -1.3011
 9099TIP3    H248789   6.117   3.580  16.042 -0.3757  2.1068 -0.2080
 9100TIP3   OH248790   1.919   1.279  13.434  0.4670  0.6175 -0.0433
 9100TIP3    H148791   1.983   1.236  13.491 -0.7131 -1.2277 -0.0492
 9100TIP3    H248792   1.969   1.308  13.359  1.1849 -1.6429 -0.4917
 9101TIP3   OH248793   6.339   6.704  12.298  0.2248 -0.7429 -0.3907
 9101TIP3    H148794   6.381   6.693  12.383 -0.2067 -0.5078 -0.1456
 9101TIP3    H248795   6.397   6.659  12.237  1.0517 -0.0517 -0.1145
 9102TIP3   OH248796   2.316   6.570   3.287 -0.2898  0.3351 -0.0543
 9102TIP3    H148797   2.388   6.543   3.231 -0.2047 -0.2121  0.3141
 9102TIP3    H248798   2.312   6.503   3.355 -1.2839  0.2465 -0.1963
 9103TIP3   OH248799   0.732   3.621  13.903 -0.2206 -0.0726 -0.1524
 9103TIP3    H148800   0.670   3.548  13.911  1.1687 -1.0386  2.1433
 9103TIP3    H248801   0.803   3.598  13.962  1.9977  1.3944 -2.1863
 9104TIP3   OH248802   3.167   6.739   4.697 -0.3349 -0.8896 -0.0317
 9104TIP3    H148803   3.244   6.705   4.650 -0.3168  0.6876 -1.1676
 9104TIP3    H248804   3.157   6.679   4.771  0.5612 -2.5198 -1.1796
 9105TIP3   OH248805   1.667   1.399   3.407 -0.6426  0.0471  0.3047
 9105TIP3    H148806   1.716   1.469   3.451  0.4117  0.0424 -0.8368
 9105TIP3    H248807   1.711   1.389   3.322 -1.4656 -1.2567  0.0247
 9106TIP3   OH248808   1.481   1.712  10.824 -0.6593 -0.5149 -0.5197
 9106TIP3    H148809   1.473   1.758  10.740  0.2072  1.1468  0.2889
 9106TIP3    H248810   1.567   1.670  10.820  0.1709  1.0609  0.2367
 9107TIP3   OH248811   2.933   2.766   5.277 -0.0833 -0.0955  0.0440
 9107TIP3    H148812   2.989   2.831   5.234  0.1205 -0.4927 -0.2962
 9107TIP3    H248813   2.955   2.773   5.370  1.2267 -0.8884 -0.1864
 9108TIP3   OH248814   1.307   5.662  12.811 -0.6648  0.4164  0.3078
 9108TIP3    H148815   1.285   5.697  12.897  0.1159  2.4524 -0.3078
 9108TIP3    H248816   1.244   5.703  12.751 -0.8659 -0.5888 -0.1939
 9109TIP3   OH248817   2.083   2.035   1.660 -0.5661 -0.1018 -0.4801
 9109TIP3    H148818   2.169   2.013   1.696 -0.9337 -0.8251 -0.0243
 9109TIP3    H248819   2.073   1.975   1.586 -1.2456 -0.9488  0.2901
 9110TIP3   OH248820   4.684   0.816   3.275  0.2614  0.1181 -0.4217
 9110TIP3    H148821   4.718   0.741   3.225 -1.4516 -2.2017  1.7618
 9110TIP3    H248822   4.609   0.846   3.224  0.0725 -0.5842 -0.5737
 9111TIP3   OH248823   0.470   2.393   4.843  0.3598  0.0711 -0.2758
 9111TIP3    H148824   0.457   2.307   4.883  1.4341 -0.4460 -1.0187
 9111TIP3    H248825   0.480   2.375   4.750 -1.3258  1.1997 -0.6786
 9112TIP3   OH248826   0.901   2.413   4.827  0.2673  0.3986  0.3081
 9112TIP3    H148827   0.953   2.486   4.792  0.1662  0.4072  0.1766
 9112TIP3    H248828   0.834   2.397   4.761  0.1770  0.3059  0.4205
 9113TIP3   OH248829   3.096   2.032   6.536 -0.4444 -0.2671  0.2208
 9113TIP3    H148830   3.118   2.094   6.605 -2.2336  0.8044 -0.1703
 9113TIP3    H248831   3.121   2.076   6.454  2.1102 -1.7140  0.1565
 9114TIP3   OH248832   6.218   0.676  16.904 -0.3115 -0.4277  0.3093
 9114TIP3    H148833   6.154   0.734  16.945  0.4608  0.8653 -0.2740
 9114TIP3    H248834   6.243   0.615  16.974 -0.4643  0.5089  1.1924
 9115TIP3   OH248835   2.475   0.581   2.291  1.0644  0.2645 -0.0802
 9115TIP3    H148836   2.421   0.659   2.274  2.5282  1.4987  0.7975
 9115TIP3    H248837   2.480   0.536   2.207 -2.6821 -0.7861  0.1395
 9116TIP3   OH248838   3.832   0.210  17.097  0.1057 -0.2358  0.0202
 9116TIP3    H148839   3.851   0.218  17.190 -0.1045 -0.6155  0.1006
 9116TIP3    H248840   3.795   0.122  17.088 -0.1739 -0.0812 -0.3676
 9117TIP3   OH248841   1.725   6.298   1.190 -0.1809 -0.7655  0.2352
 9117TIP3    H148842   1.710   6.213   1.231 -1.0210  0.1452  1.8823
 9117TIP3    H248843   1.791   6.340   1.245 -0.6193  0.0919  0.1289
 9118TIP3   OH248844   4.294   5.850   5.324  0.2113  0.0033 -0.9808
 9118TIP3    H148845   4.277   5.795   5.401 -0.4924  0.9110 -0.4731
 9118TIP3    H248846   4.255   5.802   5.251  1.1341 -1.0051 -0.8204
 9119TIP3   OH248847   5.454   2.312  11.011 -0.1370  0.7785 -0.2318
 9119TIP3    H148848   5.422   2.400  11.031  1.3470  1.3007 -0.1256
 9119TIP3    H248849   5.500   2.321  10.928 -1.4854 -0.2675 -1.1248
 9120TIP3   OH248850   6.318   2.492  13.329 -0.2779  0.5532  0.3483
 9120TIP3    H148851   6.372   2.485  13.408 -1.1234  1.2508  0.9972
 9120TIP3    H248852   6.232   2.460  13.355 -0.3984  0.2317 -0.4511
 9121TIP3   OH248853   5.539   5.758  10.843 -0.0859  0.1661  0.3099
 9121TIP3    H148854   5.587   5.742  10.925  0.0329  0.4910  0.3046
 9121TIP3    H248855   5.530   5.672  10.803 -0.4300 -0.0383  0.8286
 9122TIP3   OH248856   4.330   6.371   2.505 -0.1396  0.1035  0.0718
 9122TIP3    H148857   4.278   6.448   2.528 -1.2933 -0.4323 -0.6891
 9122TIP3    H248858   4.278   6.327   2.437 -0.0143 -1.9228  1.2584
 9123TIP3   OH248859   5.210   5.773   1.712 -0.5859 -0.4385 -0.3192
 9123TIP3    H148860   5.279   5.818   1.663 -1.3109  0.0051 -0.9411
 9123TIP3    H248861   5.254   5.742   1.791  0.4960 -0.8014 -1.0469
 9124TIP3   OH248862   5.798   2.549   0.731 -0.5060  0.3334 -0.3156
 9124TIP3    H148863   5.801   2.475   0.671 -2.3687  0.9204 -1.1543
 9124TIP3    H248864   5.739   2.612   0.690 -0.5553  1.4310  1.3578
 9125TIP3   OH248865   5.822   6.109   0.173  0.4016 -0.5530 -0.6112
 9125TIP3    H148866   5.913   6.102   0.144  0.2290  0.7892 -1.5547
 9125TIP3    H248867   5.822   6.075   0.262  2.2221  1.2286  0.1227
 9126TIP3   OH248868   0.186   1.288  11.983  0.2429 -0.5256 -0.3301
 9126TIP3    H148869   0.203   1.350  12.054 -0.0701  0.9482 -1.5155
 9126TIP3    H248870   0.273   1.259  11.955  0.3585 -1.2560  0.7731
 9127TIP3   OH248871   4.455   5.627   2.039  0.0591 -0.5670  0.5704
 9127TIP3    H148872   4.536   5.672   2.062 -1.0915  1.2561  1.0669
 9127TIP3    H248873   4.479   5.575   1.962  1.7823 -0.3102  0.8995
 9128TIP3   OH248874   3.091   5.487  10.758  0.6225 -0.3823 -0.3372
 9128TIP3    H148875   3.064   5.420  10.696 -0.1996 -2.9029  2.6620
 9128TIP3    H248876   3.015   5.546  10.764  1.0060  0.3586 -2.2582
 9129TIP3   OH248877   5.264   0.034  14.400  0.4255  0.4305  0.0078
 9129TIP3    H148878   5.311   0.013  14.319 -0.3156 -1.0366 -0.0488
 9129TIP3    H248879   5.303   0.117  14.429  1.7690  0.1724 -1.0082
 9130TIP3   OH248880   3.764   1.005   6.023 -0.0807  0.4748  0.0266
 9130TIP3    H148881   3.794   1.011   5.932 -0.6119  0.8840 -0.1242
 9130TIP3    H248882   3.835   0.959   6.068  0.4480  0.7884 -0.4708
 9131TIP3   OH248883   1.272   5.275  12.049  0.1909 -0.4391 -0.0032
 9131TIP3    H148884   1.186   5.309  12.022  0.0677 -0.8056 -0.0746
 9131TIP3    H248885   1.335   5.340  12.016 -0.1615  0.7139  1.5157
 9132TIP3   OH248886   2.281   1.883   3.055 -0.2916 -0.1783  0.1931
 9132TIP3    H148887   2.262   1.928   2.973 -0.9974  0.4571  0.6947
 9132TIP3    H248888   2.270   1.790   3.035  0.0120 -0.0556 -0.5485
 9133TIP3   OH248889   2.316   2.799   1.025 -0.1294  0.0214 -0.3012
 9133TIP3    H148890   2.340   2.842   0.943 -2.0546  2.1694  0.1893
 9133TIP3    H248891   2.342   2.861   1.093 -0.8079 -0.6263  0.5713
 9134TIP3   OH248892   6.078   1.171   2.497  0.0543  0.6718  0.2908
 9134TIP3    H148893   6.036   1.256   2.511 -0.5181  0.5705 -0.8422
 9134TIP3    H248894   6.152   1.190   2.439 -1.3756  0.0425 -1.7521
 9135TIP3   OH248895   5.079   2.150  10.296 -0.2117 -0.1386 -0.2971
 9135TIP3    H148896   5.063   2.227  10.241 -0.2454 -0.5015 -0.8012
 9135TIP3    H248897   5.172   2.154  10.317 -0.4290  0.6226  0.5698
 9136TIP3   OH248898   0.857   0.975   3.402  0.1745 -0.1732  0.1556
 9136TIP3    H148899   0.772   0.978   3.359 -0.0126 -0.3742  0.5022
 9136TIP3    H248900   0.893   0.890   3.377  0.8643  0.4861 -1.0900
 9137TIP3   OH248901   3.775   1.878  14.485  0.0088 -0.1341 -0.2145
 9137TIP3    H148902   3.705   1.820  14.515  0.4571  0.2625  1.6191
 9137TIP3    H248903   3.730   1.954  14.450 -0.4891 -0.0328  0.6454
 9138TIP3   OH248904   4.531   2.726   5.830 -1.1277  0.1347 -0.0249
 9138TIP3    H148905   4.578   2.774   5.897  1.9639 -0.2271 -1.8332
 9138TIP3    H248906   4.524   2.637   5.865 -1.4419  0.4575  0.7345
 9139TIP3   OH248907   0.638   4.327   3.246 -0.1368  0.0041  0.2853
 9139TIP3    H148908   0.590   4.247   3.226  0.2166 -0.1686  0.1220
 9139TIP3    H248909   0.639   4.376   3.164  0.3332 -0.1870  0.1744
 9140TIP3   OH248910   1.899   4.936   4.950  0.1094 -0.3655 -0.0270
 9140TIP3    H148911   1.862   5.020   4.975  0.6788 -0.2483  0.4244
 9140TIP3    H248912   1.828   4.891   4.904 -0.9176 -0.5262  1.6823
 9141TIP3   OH248913   5.682   5.206  11.716 -0.1280 -0.5416 -0.3848
 9141TIP3    H148914   5.646   5.125  11.754 -0.2563 -0.7238 -0.8967
 9141TIP3    H248915   5.773   5.207  11.747 -0.6424  0.0788  1.1640
 9142TIP3   OH248916   5.356   4.737  14.440  0.2150 -0.2674  0.1144
 9142TIP3    H148917   5.324   4.660  14.486  0.2185 -1.8057 -2.3681
 9142TIP3    H248918   5.376   4.800  14.510 -1.9165 -1.6642  2.0548
 9143TIP3   OH248919   4.535   2.622   2.538 -0.1753 -0.1534  0.1280
 9143TIP3    H148920   4.446   2.638   2.506  0.2983  0.5104 -0.8816
 9143TIP3    H248921   4.537   2.528   2.557 -0.7848 -0.3625 -0.8094
 9144TIP3   OH248922   0.002   2.575   0.392  0.3017  0.5420 -0.8680
 9144TIP3    H148923  -0.065   2.527   0.441  1.9662 -0.6573  0.2549
 9144TIP3    H248924  -0.008   2.665   0.421  0.4088  0.0565  0.7145
 9145TIP3   OH248925   4.024   3.397  14.263  0.9823 -0.4644  0.5444
 9145TIP3    H148926   4.030   3.454  14.340 -0.2351  1.6283 -0.8806
 9145TIP3    H248927   3.932   3.369  14.261  1.1186 -0.8875  0.0949
 9146TIP3   OH248928   1.642   3.070  14.068 -0.0332 -0.1240 -0.4214
 9146TIP3    H148929   1.640   3.015  14.147 -2.1621 -0.3409 -0.5941
 9146TIP3    H248930   1.696   3.021  14.007  3.9162  1.3113  1.7587
 9147TIP3   OH248931   1.171   2.979  15.887  0.0709  0.3123 -0.6002
 9147TIP3    H148932   1.259   3.006  15.859 -0.1360  1.4402 -0.1785
 9147TIP3    H248933   1.187   2.909  15.951  0.7356  1.9191  1.0272
 9148TIP3   OH248934   2.492   3.842   6.104  0.6158  0.9520  0.1586
 9148TIP3    H148935   2.526   3.801   6.183  0.1130 -0.1856 -0.2020
 9148TIP3    H248936   2.512   3.935   6.114 -0.4335  0.9828  2.1160
 9149TIP3   OH248937   4.468   4.491   5.703 -0.0354 -0.6136 -0.1939
 9149TIP3    H148938   4.477   4.489   5.798  0.6742 -4.0627 -0.2581
 9149TIP3    H248939   4.554   4.516   5.671 -0.5859  1.7093  0.0601
 9150TIP3   OH248940   3.732   1.996  16.313 -0.4467 -0.0090  0.6825
 9150TIP3    H148941   3.775   2.081  16.320 -1.3821  0.5824 -0.6032
 9150TIP3    H248942   3.739   1.973  16.220 -2.1153 -0.3051  0.6157
 9151TIP3   OH248943   2.124   1.096   3.774 -0.2063  0.2230 -0.1540
 9151TIP3    H148944   2.193   1.033   3.755 -0.7780  0.1516 -2.0635
 9151TIP3    H248945   2.161   1.152   3.842  0.5706 -1.7077  1.0518
 9152TIP3   OH248946   6.010   1.777  12.469 -0.2780 -0.6414  0.0279
 9152TIP3    H148947   6.043   1.720  12.538  1.7191  0.9598  0.4419
 9152TIP3    H248948   5.915   1.762  12.469 -0.0387 -2.3481  1.5450
 9153TIP3   OH248949   5.325   5.442   6.240  0.0630  0.1713 -0.2525
 9153TIP3    H148950   5.254   5.402   6.190 -1.3630  1.4584  0.6877
 9153TIP3    H248951   5.316   5.405   6.328 -0.8743  2.0300  0.4614
 9154TIP3   OH248952   2.986   3.504  12.854 -0.1948  0.2282  0.2504
 9154TIP3    H148953   3.041   3.565  12.805  0.9115 -0.3848  0.7203
 9154TIP3    H248954   3.013   3.417  12.825 -0.4118 -0.0998  1.0024
 9155TIP3   OH248955   6.373   3.910   6.151  0.1022 -0.4238 -0.0170
 9155TIP3    H148956   6.332   3.989   6.114  1.1346 -0.6413 -1.6800
 9155TIP3    H248957   6.368   3.923   6.246 -3.4962 -0.3021 -0.1563
 9156TIP3   OH248958   2.077   5.234  14.803  0.3838 -0.2979 -0.2218
 9156TIP3    H148959   2.166   5.267  14.810  0.7647 -1.5710  1.4152
 9156TIP3    H248960   2.022   5.313  14.801  1.4748  0.4798 -0.0018
 9157TIP3   OH248961   1.106   6.367   5.383  0.1668  0.2596 -0.1380
 9157TIP3    H148962   1.048   6.438   5.354 -1.0785 -0.7464 -0.1644
 9157TIP3    H248963   1.123   6.386   5.475 -0.3021  0.5008 -0.1005
 9158TIP3   OH248964   4.831   6.400   2.703  0.0477 -0.4193  0.2156
 9158TIP3    H148965   4.918   6.435   2.719 -1.0062  1.7121  1.5699
 9158TIP3    H248966   4.816   6.339   2.775  0.2799 -0.4667  0.2224
 9159TIP3   OH248967   3.126   4.702   2.621 -0.2628  0.1252 -0.1764
 9159TIP3    H148968   3.080   4.741   2.695  1.7376 -0.9419  1.6830
 9159TIP3    H248969   3.073   4.726   2.545 -0.8000  3.7272  1.2270
 9160TIP3   OH248970   5.342   3.620   6.180 -0.2516  0.2311  0.1354
 9160TIP3    H148971   5.290   3.607   6.101  0.7747 -0.2922 -0.4576
 9160TIP3    H248972   5.326   3.542   6.232 -4.1280  2.3168  2.3191
 9161TIP3   OH248973   1.205   4.547   2.815 -0.7714  0.1715  0.7290
 9161TIP3    H148974   1.273   4.483   2.796 -1.8786 -1.1242  1.0043
 9161TIP3    H248975   1.226   4.580   2.903 -0.7157 -0.5010  0.9688
 9162TIP3   OH248976   3.893   6.454   5.698 -0.5173  0.0914  0.3995
 9162TIP3    H148977   3.928   6.369   5.672 -0.4794  0.3780 -0.5029
 9162TIP3    H248978   3.816   6.433   5.752 -0.3302 -0.5093  0.4345
 9163TIP3   OH248979   5.794   6.434   3.480  0.0498  0.1653  0.3592
 9163TIP3    H148980   5.870   6.491   3.491  0.2930 -0.4130  1.7995
 9163TIP3    H248981   5.796   6.409   3.388  0.5995  1.5511 -0.0223
 9164TIP3   OH248982   3.778   1.166   2.568  0.1147  0.9023 -0.4077
 9164TIP3    H148983   3.825   1.170   2.485 -1.6804 -1.1963 -1.5873
 9164TIP3    H248984   3.738   1.253   2.576  1.3500  1.5603 -1.0699
 9165TIP3   OH248985   5.592   1.954   4.036  0.1719 -0.0039 -0.2456
 9165TIP3    H148986   5.561   1.951   4.126  0.6404 -1.1255 -0.1132
 9165TIP3    H248987   5.615   1.863   4.015 -2.5409 -0.2661 -2.4286
 9166TIP3   OH248988   5.326   2.104   5.038 -0.3969 -0.3896 -0.1015
 9166TIP3    H148989   5.410   2.065   5.062 -0.8870 -1.1296  0.4640
 9166TIP3    H248990   5.309   2.169   5.107 -1.0846 -1.4465  0.7540
 9167TIP3   OH248991   6.772   4.269   0.091 -0.0547  0.0142  0.3014
 9167TIP3    H148992   6.759   4.291  -0.001  0.0761  0.6158  0.4277
 9167TIP3    H248993   6.841   4.202   0.090 -0.1727 -0.1052 -0.0474
 9168TIP3   OH248994   0.590   4.734  15.705  0.1535  0.4966  0.4447
 9168TIP3    H148995   0.624   4.792  15.773 -0.2703  0.2283  0.8933
 9168TIP3    H248996   0.499   4.719  15.729 -0.1692  0.8607 -0.5129
 9169TIP3   OH248997   3.504   6.068  12.538 -0.6663  0.1583  0.2945
 9169TIP3    H148998   3.582   6.016  12.521 -0.0730  1.5264 -1.3851
 9169TIP3    H248999   3.431   6.014  12.507 -0.0966  0.1425 -1.0505
 9170TIP3   OH249000   3.548   0.742   1.579  0.3972  0.1934  0.6028
 9170TIP3    H149001   3.501   0.801   1.637  0.0339 -0.8453  1.3710
 9170TIP3    H249002   3.590   0.679   1.637  0.7659 -0.3288 -0.2162
 9171TIP3   OH249003   5.677   4.173   0.966  0.2970 -0.3344  0.6270
 9171TIP3    H149004   5.706   4.149   0.878 -0.7643  0.4442  0.0585
 9171TIP3    H249005   5.703   4.098   1.021 -0.5126 -1.5542 -0.6290
 9172TIP3   OH249006   0.326   5.582  14.781  0.0538 -0.3111  0.1768
 9172TIP3    H149007   0.391   5.639  14.739  0.6985  0.9645  2.7712
 9172TIP3    H249008   0.315   5.509  14.721  0.7186  1.5761 -2.2998
 9173TIP3   OH249009   2.428   1.060   0.103  0.1613 -0.2928  0.0698
 9173TIP3    H149010   2.364   0.995   0.133 -0.1170  0.5449  1.3208
 9173TIP3    H249011   2.468   1.020   0.025 -0.3551 -1.7494  0.5304
 9174TIP3   OH249012   3.152   1.880  15.938 -0.2214  0.4520  0.4941
 9174TIP3    H149013   3.137   1.785  15.941  0.2343  0.3739  0.3898
 9174TIP3    H249014   3.245   1.890  15.958  0.1525  0.7503 -1.3342
 9175TIP3   OH249015   3.321   3.105   1.274  0.7289  0.0609 -0.0546
 9175TIP3    H149016   3.291   3.189   1.239  0.6631  0.6450  1.3718
 9175TIP3    H249017   3.399   3.126   1.324  0.0923 -0.5494  1.2205
 9176TIP3   OH249018   3.424   6.053  12.833  0.1347 -0.3354  0.0008
 9176TIP3    H149019   3.389   5.976  12.879  0.4529 -0.8360 -0.5900
 9176TIP3    H249020   3.429   6.026  12.741  0.6275  0.2544 -0.1490
 9177TIP3   OH249021   5.567   3.899  14.264 -0.8974  0.5251  0.4204
 9177TIP3    H149022   5.657   3.894  14.297 -0.4897  0.9459 -0.6005
 9177TIP3    H249023   5.546   3.809  14.237 -1.0659  0.2735  1.3737
 9178TIP3   OH249024   5.246   4.591   1.518  0.3129  0.0211 -0.4100
 9178TIP3    H149025   5.189   4.514   1.519  0.7349 -0.2910  1.3617
 9178TIP3    H249026   5.273   4.599   1.426 -1.9119 -0.3007 -1.1067
 9179TIP3   OH249027   4.267   0.271   4.534  0.5451  0.0392  0.6840
 9179TIP3    H149028   4.194   0.328   4.507  0.1466  0.6700  2.9402
 9179TIP3    H249029   4.337   0.290   4.472  0.4459  3.0855  1.4348
 9180TIP3   OH249030   5.972   5.772  16.834  0.4739  0.4936 -0.3074
 9180TIP3    H149031   5.956   5.770  16.929 -0.1316  0.5773 -0.4034
 9180TIP3    H249032   5.918   5.845  16.803 -1.2007 -1.0569 -1.0696
 9181TIP3   OH249033   4.475   2.230  13.484 -0.1724 -0.3152 -0.6296
 9181TIP3    H149034   4.547   2.280  13.523 -0.5486 -0.1365 -0.1623
 9181TIP3    H249035   4.472   2.149  13.536  0.3994 -0.8092 -1.3460
 9182TIP3   OH249036   5.021   1.039   1.351  0.1884 -0.1834 -0.0707
 9182TIP3    H149037   4.963   0.975   1.309 -0.4377  0.4889 -0.2305
 9182TIP3    H249038   5.024   1.012   1.443  0.3966 -0.7910 -0.2544
 9183TIP3   OH249039   6.660   1.387  12.206 -0.4580 -0.7039  0.4062
 9183TIP3    H149040   6.644   1.435  12.287  0.9249  0.6984 -0.1318
 9183TIP3    H249041   6.689   1.300  12.235  1.1645  0.1533  1.4556
 9184TIP3   OH249042   1.410   6.469  13.010 -0.3239  0.1451 -0.1439
 9184TIP3    H149043   1.424   6.468  12.915  0.9121 -2.1601  0.0520
 9184TIP3    H249044   1.317   6.451  13.021 -0.6595  1.3343 -0.9311
 9185TIP3   OH249045   0.763   4.481   6.019  0.4873 -0.6235  0.0824
 9185TIP3    H149046   0.771   4.554   6.080 -1.8871  0.3008 -0.6417
 9185TIP3    H249047   0.835   4.494   5.956  1.4336 -0.1878  1.2389
 9186TIP3   OH249048   2.660   3.957  15.530 -0.7185  0.4120  0.1756
 9186TIP3    H149049   2.636   3.905  15.454 -1.1106  0.1417  0.4847
 9186TIP3    H249050   2.595   3.934  15.597 -0.4795  0.7727  0.5370
 9187TIP3   OH249051   5.629   0.765  12.216 -0.3820 -0.4622  0.1252
 9187TIP3    H149052   5.567   0.829  12.249 -1.2188 -0.2575 -1.7529
 9187TIP3    H249053   5.633   0.697  12.284 -1.8290  0.0627  0.7408
 9188TIP3   OH249054   1.008   5.514  15.900  0.0496  0.0460 -0.4033
 9188TIP3    H149055   1.049   5.479  15.979 -2.2337  1.6188  1.5279
 9188TIP3    H249056   0.921   5.475  15.898 -0.5679  1.4322 -1.1665
 9189TIP3   OH249057   2.407   2.664   1.595 -0.2873  0.2689 -0.0247
 9189TIP3    H149058   2.499   2.683   1.611  0.0852 -1.4366 -0.0479
 9189TIP3    H249059   2.402   2.649   1.500 -0.5654  0.1755  0.0037
 9190TIP3   OH249060   5.567   4.062  15.891  0.1732  0.3567  0.0080
 9190TIP3    H149061   5.645   4.105  15.929  0.6268 -0.5236  0.0743
 9190TIP3    H249062   5.587   3.969  15.894 -0.1351  0.2159 -1.6307
 9191TIP3   OH249063   1.882   3.363  16.599  0.5346 -0.3190  0.2776
 9191TIP3    H149064   1.923   3.281  16.572  1.5156  0.2145  0.1117
 9191TIP3    H249065   1.947   3.404  16.656  0.9861  1.3777 -1.4113
 9192TIP3   OH249066   6.102   5.976   4.122  0.3140  0.4240 -0.3142
 9192TIP3    H149067   6.019   5.929   4.133  0.1314  0.9998  0.9231
 9192TIP3    H249068   6.169   5.912   4.144  0.0571  0.7461  1.5295
 9193TIP3   OH249069   1.825   5.120  16.401  0.4035 -0.9964 -0.0066
 9193TIP3    H149070   1.743   5.162  16.428  1.6424  1.4507  0.0520
 9193TIP3    H249071   1.820   5.116  16.305 -0.1181 -1.5866  0.0398
 9194TIP3   OH249072   5.290   4.045   5.679 -0.2525  0.4418 -0.4009
 9194TIP3    H149073   5.293   4.066   5.586  1.2895 -1.6762 -0.8754
 9194TIP3    H249074   5.291   3.949   5.682 -2.1276  0.4419  1.7552
 9195TIP3   OH249075   6.615   3.437   4.099 -0.5233 -0.2134 -0.3626
 9195TIP3    H149076   6.596   3.409   4.189 -0.2867 -1.2789 -0.6392
 9195TIP3    H249077   6.672   3.513   4.109 -0.5565 -0.2866  0.3919
 9196TIP3   OH249078   0.512   6.087  13.886 -0.7910 -0.3885  0.3734
 9196TIP3    H149079   0.594   6.048  13.918 -0.9001 -0.5644  0.4349
 9196TIP3    H249080   0.516   6.076  13.791 -0.3078  0.4377  0.2817
 9197TIP3   OH249081   0.907   2.503  12.330  0.4949  0.5626  0.3911
 9197TIP3    H149082   0.824   2.498  12.283 -0.6765  0.8850  2.3743
 9197TIP3    H249083   0.974   2.487  12.263 -1.1074  1.3258 -1.4124
 9198TIP3   OH249084   2.829   6.667  15.152  0.0234 -0.8704 -0.3593
 9198TIP3    H149085   2.779   6.599  15.106 -0.8219  0.4240 -1.3911
 9198TIP3    H249086   2.823   6.744  15.095  0.6231  0.1889  0.9825
 9199TIP3   OH249087   4.541   4.719  15.237 -0.0918 -0.0230 -0.4708
 9199TIP3    H149088   4.518   4.665  15.312 -0.4554 -0.2383 -0.7341
 9199TIP3    H249089   4.634   4.704  15.223 -0.3641 -1.2055 -1.0423
 9200TIP3   OH249090   5.543   0.262  13.407 -0.1090 -0.2428 -0.0954
 9200TIP3    H149091   5.624   0.310  13.393  0.2370 -0.8888 -0.3180
 9200TIP3    H249092   5.495   0.314  13.472  0.3114  0.3370 -0.2508
 9201TIP3   OH249093   1.704   4.766   5.743  0.1839 -0.7223 -0.0911
 9201TIP3    H149094   1.636   4.710   5.782  0.0986 -0.5370  0.0262
 9201TIP3    H249095   1.659   4.814   5.674  0.2563 -0.7973 -0.1897
 9202TIP3   OH249096   1.509   3.655  15.808 -0.1147 -0.4787 -0.0884
 9202TIP3    H149097   1.440   3.717  15.784  0.5139  0.1823 -0.1971
 9202TIP3    H249098   1.477   3.570  15.777  0.5162  0.2989 -2.9400
 9203TIP3   OH249099   1.387   4.907   0.534 -0.8239 -0.2690  0.9590
 9203TIP3    H149100   1.453   4.892   0.601  0.1963 -0.4066 -0.0442
 9203TIP3    H249101   1.377   4.822   0.491  1.0983  0.5810 -1.3114
 9204TIP3   OH249102   3.043   0.732  16.609  0.6306  0.1781  0.1388
 9204TIP3    H149103   3.070   0.690  16.691 -0.1064 -1.0584 -0.2453
 9204TIP3    H249104   3.016   0.820  16.636  0.8093 -0.0726  1.1664
 9205TIP3   OH249105   1.261   3.422   1.293 -0.1467  0.0534 -0.6865
 9205TIP3    H149106   1.245   3.345   1.239  1.1426 -1.1201  0.5839
 9205TIP3    H249107   1.302   3.389   1.372 -1.2764  1.8495  0.7064
 9206TIP3   OH249108   2.076   0.143  14.128 -0.1069  0.0506 -0.3661
 9206TIP3    H149109   2.034   0.183  14.053 -0.2930 -1.7541 -1.2459
 9206TIP3    H249110   2.160   0.111  14.095 -0.3783 -1.1447  0.0697
 9207TIP3   OH249111   0.036   3.990   0.591  0.2528 -0.0874  0.8065
 9207TIP3    H149112  -0.033   3.946   0.641  1.7287 -0.7796  2.2729
 9207TIP3    H249113   0.082   3.919   0.546 -0.2543  0.4158 -0.5357
 9208TIP3   OH249114   5.354   0.953  15.814  0.1811 -0.0534 -0.4063
 9208TIP3    H149115   5.333   0.870  15.771  2.8462  0.0859 -2.0060
 9208TIP3    H249116   5.375   1.013  15.743  2.4020  0.8128  0.9492
 9209TIP3   OH249117   3.464   2.868   5.861  0.4762  0.1417  0.2355
 9209TIP3    H149118   3.466   2.934   5.931  0.1370  0.0630  0.3155
 9209TIP3    H249119   3.399   2.901   5.799  2.3723  1.3706 -1.1599
 9210TIP3   OH249120   1.305   0.692   3.279 -0.0283  0.2168 -0.1507
 9210TIP3    H149121   1.384   0.675   3.331  0.9724 -0.3116 -1.8086
 9210TIP3    H249122   1.261   0.764   3.325  0.4585 -0.7038  1.8097
 9211TIP3   OH249123   4.798   4.120  16.002 -0.1556 -0.4108 -0.2371
 9211TIP3    H149124   4.707   4.139  15.977  0.9100  1.7366 -2.7425
 9211TIP3    H249125   4.818   4.037  15.959 -1.3704 -1.6252  1.5160
 9212TIP3   OH249126   3.401   5.764   5.517 -0.1433  0.4788 -0.0961
 9212TIP3    H149127   3.495   5.783   5.523 -0.1030 -0.3043  2.3703
 9212TIP3    H249128   3.389   5.729   5.429  1.6509  1.7849 -0.8760
 9213TIP3   OH249129   6.543   1.396  15.105 -0.2334  0.0933 -0.2923
 9213TIP3    H149130   6.477   1.413  15.172  0.0970  2.6012 -0.5367
 9213TIP3    H249131   6.626   1.419  15.146  0.1992 -0.3978 -0.8788
 9214TIP3   OH249132   1.123   4.705   2.612 -0.0374 -0.4737  0.0095
 9214TIP3    H149133   1.145   4.645   2.683 -0.3554  0.1525  0.6508
 9214TIP3    H249134   1.189   4.774   2.618 -0.1427 -0.3539 -0.2187
 9215TIP3   OH249135   2.999   0.895   5.726  0.0435  0.3375 -0.2649
 9215TIP3    H149136   3.042   0.970   5.685  1.1725  0.5004  1.1765
 9215TIP3    H249137   3.067   0.856   5.782 -0.4659 -1.8818 -1.1412
 9216TIP3   OH249138   3.634   2.650   1.981  0.5331  0.5417 -0.4716
 9216TIP3    H149139   3.664   2.720   2.038 -1.7785  0.5214  0.8166
 9216TIP3    H249140   3.646   2.570   2.033  2.0893  0.0712 -1.5075
 9217TIP3   OH249141   2.334   5.724   3.533 -0.5043 -0.1840 -0.2616
 9217TIP3    H149142   2.329   5.640   3.579 -1.2835 -0.5788 -1.0504
 9217TIP3    H249143   2.257   5.772   3.562 -0.9109 -0.3708 -1.0204
 9218TIP3   OH249144   2.790   1.152   3.267 -0.2566  0.1531  0.2107
 9218TIP3    H149145   2.767   1.187   3.353 -1.1484  0.3742 -0.1186
 9218TIP3    H249146   2.810   1.230   3.214 -0.0815  0.0358  0.1019
 9219TIP3   OH249147   2.424   4.585  10.139 -0.4084 -0.0324  0.4292
 9219TIP3    H149148   2.497   4.600  10.079 -0.1926  1.0030  0.9341
 9219TIP3    H249149   2.379   4.669  10.143 -0.3350 -0.0513  1.8140
 9220TIP3   OH249150   1.254   3.849   2.195  0.3233 -0.5393 -0.3394
 9220TIP3    H149151   1.181   3.796   2.163  0.6996 -0.9143 -0.5818
 9220TIP3    H249152   1.313   3.857   2.120  0.5405 -0.2474 -0.1410
 9221TIP3   OH249153   1.017   5.817  13.567 -0.0348 -0.2523 -0.4593
 9221TIP3    H149154   0.988   5.848  13.481 -1.2554 -1.3878 -0.4740
 9221TIP3    H249155   0.944   5.837  13.625 -0.0948 -1.4400 -0.1181
 9222TIP3   OH249156   1.334   2.065   1.682  1.1663  0.1673 -0.7055
 9222TIP3    H149157   1.370   2.152   1.666 -0.2145  0.8833 -0.0885
 9222TIP3    H249158   1.378   2.035   1.761  0.8156  0.8102 -0.2564
 9223TIP3   OH249159   1.605   2.760  15.764  0.3127 -1.0948 -0.7269
 9223TIP3    H149160   1.676   2.709  15.725  0.5871  0.6717 -2.6244
 9223TIP3    H249161   1.556   2.697  15.817  2.5552 -2.5983 -0.4133
 9224TIP3   OH249162   0.739   4.613  17.144 -0.2293 -0.6895 -0.2656
 9224TIP3    H149163   0.650   4.576  17.141  0.1113 -1.4568 -2.5407
 9224TIP3    H249164   0.738   4.682  17.077  0.2500  0.8846  1.3063
 9225TIP3   OH249165   4.368   2.425   0.446 -0.5380  0.6827  0.1255
 9225TIP3    H149166   4.433   2.494   0.458 -0.1185  0.3278 -0.0949
 9225TIP3    H249167   4.396   2.378   0.367 -1.1099  0.5826 -0.0221
 9226TIP3   OH249168   2.370   0.371  12.352 -0.4103  0.4037 -0.2438
 9226TIP3    H149169   2.382   0.466  12.344 -2.0577  0.4831 -2.0293
 9226TIP3    H249170   2.338   0.359  12.441 -0.8096  1.5827 -0.2220
 9227TIP3   OH249171   4.158   2.571   2.986 -0.3849 -0.1800 -0.0922
 9227TIP3    H149172   4.160   2.521   3.067 -1.0214 -0.3999 -0.2031
 9227TIP3    H249173   4.227   2.636   2.995  0.3898 -1.0126  0.1035
 9228TIP3   OH249174   0.947   4.603  15.119 -0.0505  0.2023  0.2266
 9228TIP3    H149175   0.856   4.599  15.148 -0.8475 -2.5469 -2.4774
 9228TIP3    H249176   0.948   4.557  15.035  3.8004  0.2831  0.1476
 9229TIP3   OH249177   3.428   1.359  14.984 -0.0704  1.0990  0.0416
 9229TIP3    H149178   3.397   1.274  15.017 -0.9375  1.1832 -0.5334
 9229TIP3    H249179   3.488   1.391  15.051 -0.8023  0.6621  0.9097
 9230TIP3   OH249180   1.358   2.015   6.536  0.1580 -0.2738 -0.0695
 9230TIP3    H149181   1.277   2.060   6.512  0.0545 -0.1215  0.5699
 9230TIP3    H249182   1.331   1.949   6.599  0.3513 -1.0550 -0.7918
 9231TIP3   OH249183   1.988   4.612  15.155 -0.3403  0.3916 -0.3855
 9231TIP3    H149184   1.955   4.690  15.110  0.7543  0.4457 -1.0964
 9231TIP3    H249185   2.005   4.641  15.245  0.5204  1.1039 -0.7734
 9232TIP3   OH249186   2.187   4.695   2.915  0.0059 -0.2624 -0.2142
 9232TIP3    H149187   2.172   4.665   2.825  2.8747 -0.3049 -0.7450
 9232TIP3    H249188   2.143   4.779   2.920  0.6892  0.2282 -2.0181
 9233TIP3   OH249189   6.243   1.724  14.527  0.2742  0.2677 -0.5299
 9233TIP3    H149190   6.332   1.699  14.554  0.1608 -0.3842 -0.7463
 9233TIP3    H249191   6.256   1.797  14.467  0.6737  0.1394 -0.6042
 9234TIP3   OH249192   4.433   2.174  14.481  0.1521 -0.1072  0.2220
 9234TIP3    H149193   4.409   2.153  14.571 -1.0383  1.4216  0.2619
 9234TIP3    H249194   4.405   2.264  14.468 -1.0471 -0.7785 -2.1526
 9235TIP3   OH249195   6.415   1.153   4.729 -0.0244 -0.2848  1.1893
 9235TIP3    H149196   6.419   1.239   4.689 -0.9868 -0.7458  0.0733
 9235TIP3    H249197   6.479   1.156   4.800  2.5183  0.1827 -1.0556
 9236TIP3   OH249198   3.754   5.032   3.263 -1.0026  0.4025  0.2429
 9236TIP3    H149199   3.816   4.979   3.212  0.1944  0.5156  1.5570
 9236TIP3    H249200   3.673   4.981   3.262 -0.0385 -1.1871  0.9851
 9237TIP3   OH249201   5.469   2.454  17.279 -0.2061  0.4803  0.3445
 9237TIP3    H149202   5.534   2.499  17.333  0.6378 -0.4210  0.0931
 9237TIP3    H249203   5.509   2.447  17.193 -0.6167 -0.1210  0.1943
 9238TIP3   OH249204   3.000   3.136  16.309  0.0859 -1.2095 -0.0952
 9238TIP3    H149205   3.084   3.116  16.350  1.2220 -1.5451 -2.4728
 9238TIP3    H249206   3.007   3.228  16.282  0.1709 -1.5661 -1.3394
 9239TIP3   OH249207   3.051   4.116  16.442 -0.0667  0.2439 -0.1105
 9239TIP3    H149208   3.060   4.158  16.356 -1.2905  0.8476  0.0352
 9239TIP3    H249209   2.986   4.047  16.429  2.2574 -1.9520 -0.4464
 9240TIP3   OH249210   1.744   2.783   5.628  0.4976  1.1123  0.5993
 9240TIP3    H149211   1.779   2.739   5.705 -1.7502  0.6795  1.4370
 9240TIP3    H249212   1.695   2.858   5.663  1.8579  2.6125 -0.6215
 9241TIP3   OH249213   5.776   2.014   3.008 -0.2518 -0.1238  0.2244
 9241TIP3    H149214   5.856   2.000   3.059 -0.6758 -0.1718  0.8888
 9241TIP3    H249215   5.806   2.021   2.918  0.6713  1.2611  0.6083
 9242TIP3   OH249216   4.926   6.697  17.130  0.1229 -0.2097  0.0277
 9242TIP3    H149217   4.847   6.721  17.179  0.8390  1.2611  0.4882
 9242TIP3    H249218   4.923   6.753  17.052  1.0384  0.3274  0.3690
 9243TIP3   OH249219   6.266   4.997   1.329  0.2420  0.5653 -0.1683
 9243TIP3    H149220   6.230   5.081   1.358 -1.0631  0.3642 -1.2101
 9243TIP3    H249221   6.257   4.940   1.405  0.4783  1.1553  0.3115
 9244TIP3   OH249222   2.055   6.525  16.949 -0.2111  0.1971  0.3687
 9244TIP3    H149223   2.036   6.541  16.857 -1.1342 -0.4678  0.4289
 9244TIP3    H249224   2.040   6.610  16.991 -0.2381  0.3895 -0.0263
 9245TIP3   OH249225   6.060   4.580   3.977  0.0309 -0.4065 -0.0105
 9245TIP3    H149226   6.064   4.576   4.072 -1.4991 -0.9653  0.0381
 9245TIP3    H249227   5.975   4.618   3.957 -0.0245 -1.0953 -1.1649
 9246TIP3   OH249228   0.852   5.372   5.234 -0.0297 -0.0029 -0.4016
 9246TIP3    H149229   0.851   5.389   5.140 -0.4391 -0.3115 -0.4553
 9246TIP3    H249230   0.867   5.458   5.274 -1.4618  0.3981 -0.6888
 9247TIP3   OH249231   1.146   2.990  16.294 -0.1856  0.2740 -0.0173
 9247TIP3    H149232   1.121   3.071  16.251  0.9607  0.7198  0.1428
 9247TIP3    H249233   1.161   3.014  16.385  2.1804  0.3072 -0.3907
 9248TIP3   OH249234   3.296   4.148   2.851 -0.2370 -0.4747 -0.1102
 9248TIP3    H149235   3.317   4.238   2.878  1.3452 -1.0726  0.6672
 9248TIP3    H249236   3.293   4.152   2.756 -1.6635  0.7226 -0.0443
 9249TIP3   OH249237   3.515   0.174  15.395  0.0639 -0.0072 -0.2424
 9249TIP3    H149238   3.478   0.215  15.318  1.8502  0.0812 -1.0799
 9249TIP3    H249239   3.560   0.245  15.441 -0.2090 -0.2440  0.3960
 9250TIP3   OH249240   5.195   5.014   2.131 -0.0650 -0.2233 -0.2818
 9250TIP3    H149241   5.284   5.037   2.159  0.0179  0.9440 -1.4599
 9250TIP3    H249242   5.148   4.996   2.213  0.9117  0.3923  0.4247
 9251TIP3   OH249243   1.223   2.533   6.132 -0.1621  0.6287 -0.4317
 9251TIP3    H149244   1.270   2.569   6.208 -0.3893  4.0958 -1.8534
 9251TIP3    H249245   1.165   2.467   6.169  0.1985  1.7940  2.3442
 9252TIP3   OH249246   2.267   0.570   1.214  0.8407  0.1837 -0.5072
 9252TIP3    H149247   2.318   0.490   1.224 -0.2593 -0.2862  1.8942
 9252TIP3    H249248   2.181   0.541   1.184  0.7133  0.5426 -0.4977
 9253TIP3   OH249249   3.387   1.029   5.469  0.7496 -0.0706  0.4120
 9253TIP3    H149250   3.403   1.027   5.563  2.3821  1.4366  0.2044
 9253TIP3    H249251   3.471   1.007   5.430 -0.2166 -1.8750 -0.7058
 9254TIP3   OH249252   0.009   4.446   0.392  0.5318  0.3826 -0.0013
 9254TIP3    H149253  -0.027   4.481   0.473  1.8245  2.0073 -0.1016
 9254TIP3    H249254  -0.052   4.377   0.366 -1.2124  1.4901  1.0589
 9255TIP3   OH249255   1.353   2.683   3.310 -0.3049 -0.0386 -0.0245
 9255TIP3    H149256   1.350   2.594   3.276 -0.3840 -0.7503  1.7957
 9255TIP3    H249257   1.426   2.683   3.372  0.3861  1.4633 -0.7986
 9256TIP3   OH249258   5.617   3.885   3.102 -0.1067  0.5820 -0.4733
 9256TIP3    H149259   5.638   3.960   3.045 -1.1414  1.3276  0.1198
 9256TIP3    H249260   5.699   3.835   3.107  0.7852  2.0292 -0.3573
 9257TIP3   OH249261   0.328   1.380   0.260 -0.5110  0.2459 -0.1707
 9257TIP3    H149262   0.256   1.436   0.232 -0.9902 -1.3539 -2.2814
 9257TIP3    H249263   0.284   1.301   0.293  0.1242  1.2276  3.2388
 9258TIP3   OH249264   3.374   4.671  11.603 -0.4113 -0.0423  0.2377
 9258TIP3    H149265   3.338   4.679  11.691  0.8341 -2.2833  0.9956
 9258TIP3    H249266   3.316   4.723  11.548 -0.9333  1.7557  2.4470
 9259TIP3   OH249267   5.533   4.169  12.963  0.2364 -0.0164 -0.3041
 9259TIP3    H149268   5.487   4.225  13.025  0.3833  0.1938 -0.3833
 9259TIP3    H249269   5.468   4.105  12.935  0.7094 -1.4200  1.6517
 9260TIP3   OH249270   1.321   5.590   0.963  0.1859 -0.1520  0.1400
 9260TIP3    H149271   1.262   5.647   1.012  0.7116  0.9982 -0.5317
 9260TIP3    H249272   1.369   5.541   1.030 -1.0586 -0.6245  0.6951
 9261TIP3   OH249273   6.705   6.556   0.576  0.1324  0.0364  0.3806
 9261TIP3    H149274   6.794   6.569   0.543  0.3623 -0.9288  0.6117
 9261TIP3    H249275   6.678   6.643   0.605  1.0611  0.3095  0.4499
 9262TIP3   OH249276   3.402   2.520  11.642  0.1264  0.3437 -0.0265
 9262TIP3    H149277   3.307   2.521  11.633  0.0162  2.0005  1.1872
 9262TIP3    H249278   3.434   2.544  11.555 -0.5417 -0.5013 -0.5185
 9263TIP3   OH249279   2.832   5.918   5.030 -0.0049 -0.0457  0.4119
 9263TIP3    H149280   2.772   5.990   5.012 -0.1025 -0.2866 -0.2787
 9263TIP3    H249281   2.880   5.944   5.108  1.1295  1.5242 -0.7652
 9264TIP3   OH249282   1.079   0.084  14.697  0.1372  0.4670  0.1901
 9264TIP3    H149283   1.109   0.163  14.741 -0.2684  0.1237  1.0981
 9264TIP3    H249284   0.987   0.075  14.723 -0.0038  0.0487 -0.4236
 9265TIP3   OH249285   0.482   4.380  13.227 -0.3735  0.0417  0.1029
 9265TIP3    H149286   0.453   4.312  13.166 -0.8057  0.4120 -0.1043
 9265TIP3    H249287   0.410   4.388  13.290 -0.7448  1.0037 -0.4470
 9266TIP3   OH249288   6.186   4.434  15.109 -0.0500  0.6515  0.1840
 9266TIP3    H149289   6.113   4.484  15.145 -0.8153 -0.1328 -0.2742
 9266TIP3    H249290   6.254   4.438  15.177 -0.2278  2.0158  0.2948
 9267TIP3   OH249291   2.124   1.295   5.277  0.0442 -0.1042  0.0163
 9267TIP3    H149292   2.084   1.239   5.210  0.2074  0.1449 -0.2900
 9267TIP3    H249293   2.112   1.384   5.244 -0.0185  0.0307  0.3979
 9268TIP3   OH249294   0.768   5.710   2.844 -0.0280  0.1751 -0.2321
 9268TIP3    H149295   0.797   5.781   2.902 -2.5124  1.0799  0.0042
 9268TIP3    H249296   0.796   5.737   2.757  1.8504 -0.1396  0.2640
 9269TIP3   OH249297   0.918   6.452   3.811  0.0128 -0.5894  0.1344
 9269TIP3    H149298   0.895   6.405   3.731 -0.3651  0.5259 -0.4138
 9269TIP3    H249299   0.977   6.393   3.857 -1.7020 -2.3038  0.2094
 9270TIP3   OH249300   0.917   4.850   0.408  0.6704  0.6050 -0.3141
 9270TIP3    H149301   0.887   4.794   0.481 -0.2396  0.9767 -0.3914
 9270TIP3    H249302   0.906   4.795   0.331  1.4858  0.2645 -0.1886
 9271TIP3   OH249303   2.882   2.612  12.347  0.1479  0.3375 -0.4182
 9271TIP3    H149304   2.945   2.548  12.379  0.4274  0.7114 -0.2104
 9271TIP3    H249305   2.848   2.574  12.266 -1.4885 -1.1749  0.9508
 9272TIP3   OH249306   1.478   4.211  15.372 -0.5107  0.2725 -0.0699
 9272TIP3    H149307   1.478   4.298  15.413  0.5100 -0.6325  1.9277
 9272TIP3    H249308   1.470   4.150  15.445 -1.3780 -1.3209 -1.4714
 9273TIP3   OH249309   3.003   4.566  17.194 -0.6396  0.5123  0.2658
 9273TIP3    H149310   2.913   4.548  17.165 -1.0254  3.4067 -0.5264
 9273TIP3    H249311   2.992   4.610  17.279 -0.0806  2.2801 -0.5592
 9274TIP3   OH249312   5.071   3.557   1.672 -0.3920  1.0745  0.3496
 9274TIP3    H149313   5.110   3.520   1.592  1.3906  0.9184  1.2624
 9274TIP3    H249314   4.982   3.522   1.674 -0.9161  2.1337 -2.2656
 9275TIP3   OH249315   0.138   1.361  14.974  0.5831 -0.1017  0.6605
 9275TIP3    H149316   0.213   1.344  15.031  3.3523 -0.1745 -2.8762
 9275TIP3    H249317   0.131   1.284  14.918  1.5147  2.2775 -2.8861
 9276TIP3   OH249318   1.859   4.410  10.731 -0.3091 -0.1223 -0.2506
 9276TIP3    H149319   1.766   4.428  10.748 -0.4531 -1.7748  0.9318
 9276TIP3    H249320   1.905   4.462  10.796 -0.3941  0.9257 -1.0291
 9277TIP3   OH249321   5.038   4.687   0.307 -0.1033  0.0263 -0.0944
 9277TIP3    H149322   5.076   4.683   0.219 -1.7488 -1.4443 -0.7816
 9277TIP3    H249323   5.020   4.780   0.321 -0.5379  0.2009 -1.6514
 9278TIP3   OH249324   6.517   2.962  15.200 -0.2333  0.1262  0.2177
 9278TIP3    H149325   6.578   2.895  15.170  0.2617  0.7983 -0.3112
 9278TIP3    H249326   6.430   2.926  15.182  0.0332 -0.2970 -0.2330
 9279TIP3   OH249327   4.130   5.294   3.549 -0.1351  0.1229  0.0724
 9279TIP3    H149328   4.138   5.237   3.626 -1.8625  1.6287  1.4053
 9279TIP3    H249329   4.065   5.251   3.494  2.7650 -2.1790 -1.7417
 9280TIP3   OH249330   0.486   4.508  15.360 -0.6898 -0.1806 -0.0737
 9280TIP3    H149331   0.512   4.438  15.419  1.4508 -0.5480 -1.4112
 9280TIP3    H249332   0.486   4.468  15.273  2.6932  1.9678 -1.1420
 9281TIP3   OH249333   5.383   2.454   1.625 -0.4864 -0.1697 -0.0721
 9281TIP3    H149334   5.465   2.410   1.648 -0.1053  0.6770  0.1803
 9281TIP3    H249335   5.370   2.432   1.533 -0.5293 -1.1754  0.1593
 9282TIP3   OH249336   6.588   2.626  10.684 -0.5378  0.6392 -0.2570
 9282TIP3    H149337   6.550   2.638  10.771  0.6744 -0.7691  0.4950
 9282TIP3    H249338   6.670   2.676  10.687 -0.6938  0.9248 -0.7280
 9283TIP3   OH249339   1.213   2.178  17.032 -0.0142 -0.1029 -0.2325
 9283TIP3    H149340   1.300   2.152  17.002  0.6199 -0.9475  2.2081
 9283TIP3    H249341   1.226   2.201  17.124 -2.5183 -0.8946  0.3385
 9284TIP3   OH249342   3.199   2.461   5.288 -0.4957 -0.0008  0.2507
 9284TIP3    H149343   3.222   2.428   5.202 -2.0744  1.7558 -0.8668
 9284TIP3    H249344   3.106   2.443   5.297 -0.5641  0.7829  1.1546
 9285TIP3   OH249345   2.673   6.159  11.685 -0.1655 -0.3217  0.2605
 9285TIP3    H149346   2.722   6.201  11.613  1.1365 -0.1443  1.2264
 9285TIP3    H249347   2.738   6.104  11.728 -1.2633 -1.4071  0.5381
 9286TIP3   OH249348   2.700   0.225   0.519 -0.1129  0.2295 -0.4804
 9286TIP3    H149349   2.620   0.249   0.565  0.2340 -0.9413  0.7541
 9286TIP3    H249350   2.671   0.162   0.453 -0.6627  2.1637 -2.1714
 9287TIP3   OH249351   1.325   6.114   2.209 -0.6128  0.0447  0.1435
 9287TIP3    H149352   1.286   6.201   2.223 -1.0771 -0.0500 -0.5298
 9287TIP3    H249353   1.256   6.064   2.166  0.0675 -0.3011 -0.5522
 9288TIP3   OH249354   2.963   3.530  11.250  0.5916 -0.0437 -0.6305
 9288TIP3    H149355   2.906   3.474  11.198  1.6804 -1.3860 -0.4064
 9288TIP3    H249356   3.012   3.580  11.185  0.6485 -0.3960 -0.8622
 9289TIP3   OH249357   5.973   0.331   3.174 -0.1511 -0.2692 -0.2657
 9289TIP3    H149358   5.899   0.329   3.235 -1.1377 -1.3931 -1.4885
 9289TIP3    H249359   5.991   0.424   3.163 -3.0050  0.1493 -1.8861
 9290TIP3   OH249360   6.360   5.006  15.385 -0.2420 -0.3589 -0.5267
 9290TIP3    H149361   6.414   4.984  15.309  0.6417 -1.3264  0.3780
 9290TIP3    H249362   6.379   5.099  15.401 -1.5274  0.2429 -2.3586
 9291TIP3   OH249363   6.638   5.610   5.618  0.9291 -0.1920 -0.2896
 9291TIP3    H149364   6.572   5.678   5.630 -0.1349 -0.9876 -1.5520
 9291TIP3    H249365   6.678   5.628   5.533  2.4363  0.3418  0.5041
 9292TIP3   OH249366   4.790   3.331   1.364  0.2169  0.0033  0.0345
 9292TIP3    H149367   4.734   3.259   1.333 -0.1151 -0.1788  1.0422
 9292TIP3    H249368   4.740   3.410   1.344 -0.8657 -0.2021  1.8125
 9293TIP3   OH249369   4.367   4.921   1.592  0.0440 -0.2090  0.0705
 9293TIP3    H149370   4.389   5.001   1.640 -0.2457 -0.9746  1.4980
 9293TIP3    H249371   4.282   4.939   1.553  0.3743  0.4932 -0.3476
 9294TIP3   OH249372   4.269   1.298   1.214  0.2415 -1.1943  0.0689
 9294TIP3    H149373   4.176   1.286   1.195  0.2935 -3.1389  0.9990
 9294TIP3    H249374   4.286   1.241   1.289  2.0120 -0.2498  0.4128
 9295TIP3   OH249375   4.155   5.485  15.426 -0.5275  0.0216 -0.5110
 9295TIP3    H149376   4.243   5.513  15.453 -0.1127 -1.1351 -0.6294
 9295TIP3    H249377   4.136   5.539  15.349 -0.0086  0.4451 -0.3475
 9296TIP3   OH249378   4.109   1.936  11.709  0.0771  0.3243 -0.8093
 9296TIP3    H149379   4.092   1.886  11.630 -0.6513 -2.8966  1.3054
 9296TIP3    H249380   4.027   1.934  11.758  1.6586 -1.3788  1.9412
 9297TIP3   OH249381   4.847   2.109  13.671  0.0814  0.2870  0.1113
 9297TIP3    H149382   4.861   2.078  13.582  0.2103  1.4273 -0.2708
 9297TIP3    H249383   4.791   2.186  13.662  0.0228  0.3642  1.0227
 9298TIP3   OH249384   2.545   0.179  10.957  0.2290  0.6118 -0.1905
 9298TIP3    H149385   2.542   0.137  10.871  4.1994  1.7533 -1.0059
 9298TIP3    H249386   2.509   0.266  10.943 -1.7384 -0.1432 -0.0080
 9299TIP3   OH249387   1.272   3.882   4.599  0.0256 -0.6384 -0.3214
 9299TIP3    H149388   1.204   3.821   4.569  1.0125 -1.1675 -1.5458
 9299TIP3    H249389   1.337   3.826   4.641  1.0494 -0.4890 -1.6551
 9300TIP3   OH249390   6.651   2.153   4.290 -0.2860  0.2082 -1.0674
 9300TIP3    H149391   6.631   2.166   4.197 -1.1071  0.6542 -0.8399
 9300TIP3    H249392   6.738   2.114   4.291 -0.0310  0.7311 -2.0038
 9301TIP3   OH249393   5.481   3.231   2.251 -0.1782 -0.3784 -0.3487
 9301TIP3    H149394   5.449   3.277   2.174  1.2720 -0.2248 -0.8692
 9301TIP3    H249395   5.436   3.273   2.325  0.9077  1.6955 -0.8422
 9302TIP3   OH249396   0.089   1.704  15.640 -0.1144  0.6683  0.0716
 9302TIP3    H149397   0.034   1.651  15.696 -0.4964 -0.0663 -0.9896
 9302TIP3    H249398   0.169   1.652  15.628 -0.5397  0.2788 -1.0695
 9303TIP3   OH249399   4.705   1.102   4.724  0.0355 -0.3701  0.0315
 9303TIP3    H149400   4.704   1.180   4.669  1.6560 -0.4737 -0.1715
 9303TIP3    H249401   4.674   1.132   4.809 -1.3153  0.0507 -0.5853
 9304TIP3   OH249402   2.534   5.319  14.661 -0.9121  0.6052 -0.5916
 9304TIP3    H149403   2.586   5.320  14.580 -1.1769  1.5479 -0.7652
 9304TIP3    H249404   2.445   5.297  14.632 -0.5017 -1.6991 -0.2068
 9305TIP3   OH249405   4.793   3.615   0.959 -0.1049  0.3408 -0.0005
 9305TIP3    H149406   4.794   3.524   0.928 -0.4531  0.3382 -0.0058
 9305TIP3    H249407   4.774   3.667   0.882 -1.1736  0.3185  0.2365
 9306TIP3   OH249408   4.015   6.062   0.047  0.1632 -0.7191  0.0347
 9306TIP3    H149409   3.930   6.104   0.033  0.8299  0.8383  0.5403
 9306TIP3    H249410   4.078   6.128   0.019  1.2251 -1.5868  0.3949
 9307TIP3   OH249411   0.455   2.669  13.380 -0.1430 -0.1396 -0.2536
 9307TIP3    H149412   0.427   2.759  13.363 -0.4643 -0.2466 -0.2917
 9307TIP3    H249413   0.490   2.639  13.296  1.1096  0.3589  0.0669
 9308TIP3   OH249414   1.741   4.588   2.525  0.0577  0.8317 -0.0678
 9308TIP3    H149415   1.810   4.523   2.538 -2.0739 -1.5587 -0.2657
 9308TIP3    H249416   1.760   4.656   2.589  1.8819 -0.3766  0.7258
 9309TIP3   OH249417   1.221   3.521   5.941 -0.1824 -0.3435  0.3639
 9309TIP3    H149418   1.181   3.448   5.893  0.3630 -0.1431 -0.4107
 9309TIP3    H249419   1.178   3.599   5.906  1.1837 -0.0904 -0.7989
 9310TIP3   OH249420   0.004   2.820  16.873  0.0394  0.5442  0.0136
 9310TIP3    H149421  -0.014   2.889  16.937  1.8661  0.4580  0.6481
 9310TIP3    H249422   0.028   2.744  16.926 -0.5169 -0.1647 -0.7291
 9311TIP3   OH249423   5.479   0.862  11.431  0.0245 -0.5036 -0.3511
 9311TIP3    H149424   5.500   0.784  11.380  0.6468 -0.6253  0.0793
 9311TIP3    H249425   5.417   0.910  11.376  3.3402  1.1341 -2.8769
 9312TIP3   OH249426   6.755   5.098   6.658  0.1476  0.4303  0.7041
 9312TIP3    H149427   6.737   5.064   6.570 -0.4991  0.8861  0.6522
 9312TIP3    H249428   6.734   5.191   6.652  2.0531  0.8762  0.8107
 9313TIP3   OH249429   0.876   2.186  12.199  0.2365 -0.6630 -0.0459
 9313TIP3    H149430   0.794   2.168  12.245  0.1816  0.3282  0.2613
 9313TIP3    H249431   0.931   2.231  12.264  0.7769 -0.7448 -0.4409
 9314TIP3   OH249432   5.549   0.957   2.180 -0.4143 -0.1109 -0.5387
 9314TIP3    H149433   5.615   1.001   2.126 -0.9922  0.4717 -0.7796
 9314TIP3    H249434   5.589   0.874   2.204  0.7888  0.6527  0.1105
 9315TIP3   OH249435   0.350   1.657   3.502  0.1685  0.7478 -0.3804
 9315TIP3    H149436   0.273   1.652   3.444 -2.0852  1.3728  2.4442
 9315TIP3    H249437   0.359   1.751   3.521  0.6723  0.5108  0.5603
 9316TIP3   OH249438   5.924   2.844  15.275  0.4411  0.3128  0.3131
 9316TIP3    H149439   5.854   2.869  15.336  1.1413 -0.4154  1.4386
 9316TIP3    H249440   5.992   2.807  15.331  0.3397 -2.0899 -1.1005
 9317TIP3   OH249441   4.754   6.745  16.149  0.7206  0.6549  0.4836
 9317TIP3    H149442   4.690   6.717  16.214  0.7196 -1.3320 -0.3239
 9317TIP3    H249443   4.703   6.759  16.069  1.0285  0.9087  0.3275
 9318TIP3   OH249444   5.809   6.105   4.104  0.7969 -0.0272 -0.2193
 9318TIP3    H149445   5.877   6.073   4.164 -1.1448  0.8975  2.5709
 9318TIP3    H249446   5.808   6.200   4.117  0.1501  0.1704 -1.5753
 9319TIP3   OH249447   1.606   1.515  13.076 -0.1371  0.4346 -0.0407
 9319TIP3    H149448   1.513   1.503  13.058 -0.4200 -0.0071  1.6884
 9319TIP3    H249449   1.615   1.607  13.101 -0.3808  0.0534  1.4507
 9320TIP3   OH249450   1.573   3.242   5.132  0.2316  0.2342  0.5041
 9320TIP3    H149451   1.649   3.297   5.114 -1.2714  2.1586 -0.1330
 9320TIP3    H249452   1.603   3.152   5.118  2.3025  0.9886  0.0634
 9321TIP3   OH249453   4.297   1.134  12.755  0.2364  0.0102  0.2421
 9321TIP3    H149454   4.310   1.184  12.674  1.4345 -0.3184  0.2224
 9321TIP3    H249455   4.385   1.123  12.790 -0.1330 -1.1566  0.8011
 9322TIP3   OH249456   5.850   0.941   4.881 -0.0779  0.6403 -0.4127
 9322TIP3    H149457   5.793   1.017   4.888  2.0658  2.3524 -0.9854
 9322TIP3    H249458   5.812   0.877   4.941 -1.1595  2.6406  1.0904
 9323TIP3   OH249459   2.705   0.721  17.257 -0.6053  0.2640  0.3160
 9323TIP3    H149460   2.630   0.667  17.234 -1.7251  1.0907  1.9404
 9323TIP3    H249461   2.764   0.661  17.304 -0.7551 -0.1187  0.0168
 9324TIP3   OH249462   6.812   1.135  11.800  0.1146 -0.7590  0.7189
 9324TIP3    H149463   6.870   1.201  11.835  0.2897 -1.0083  0.9010
 9324TIP3    H249464   6.728   1.179  11.790  0.2109 -0.5330  0.9112
 9325TIP3   OH249465   5.865   2.730   2.589  0.0023  0.1794  0.4456
 9325TIP3    H149466   5.797   2.795   2.608  2.2715  2.8466 -0.2520
 9325TIP3    H249467   5.943   2.763   2.632  1.4626 -1.5667 -0.7830
 9326TIP3   OH249468   5.977   5.936  12.216 -0.2239  0.3960 -0.2665
 9326TIP3    H149469   5.932   5.986  12.148  0.8585  1.1241 -0.4572
 9326TIP3    H249470   6.068   5.965  12.211  0.3608 -1.3763 -0.1634
 9327TIP3   OH249471   6.394   2.476   5.567  0.2315 -0.9953 -0.1619
 9327TIP3    H149472   6.468   2.481   5.629  1.7820  1.0607 -2.1151
 9327TIP3    H249473   6.318   2.502   5.619  1.0289 -2.0895  1.6112
 9328TIP3   OH249474   2.079   1.912  16.845 -0.2508  0.1891 -0.3080
 9328TIP3    H149475   2.018   1.869  16.905  0.0745 -1.2348 -0.9847
 9328TIP3    H249476   2.034   1.993  16.820 -2.1222 -1.0857 -1.2150
 9329TIP3   OH249477   5.974   5.559   3.916  0.8396 -0.4288  0.3141
 9329TIP3    H149478   5.978   5.485   3.856  2.2470  0.0569 -0.2130
 9329TIP3    H249479   5.921   5.528   3.989  2.2836 -2.3145  0.5886
 9330TIP3   OH249480   5.247   6.165   0.588  0.4092 -0.2192 -0.0399
 9330TIP3    H149481   5.208   6.218   0.657 -1.8735 -1.4536 -0.3111
 9330TIP3    H249482   5.313   6.112   0.633  0.4063  0.4999  0.8207
 9331TIP3   OH249483   0.810   5.263  16.143 -0.2491  0.8674  0.2525
 9331TIP3    H149484   0.887   5.307  16.109 -1.3409  1.8872 -0.9305
 9331TIP3    H249485   0.843   5.180  16.177  1.6955  2.2233  1.7764
 9332TIP3   OH249486   1.608   5.228  12.953  0.7483 -0.6966 -0.0320
 9332TIP3    H149487   1.658   5.186  12.883  0.0993 -1.1701 -0.2250
 9332TIP3    H249488   1.568   5.304  12.912  2.9241  0.8327  0.6250
 9333TIP3   OH249489   5.640   1.742   1.208  0.5615  0.0136 -0.1067
 9333TIP3    H149490   5.649   1.824   1.160  0.2343  0.5087  0.6795
 9333TIP3    H249491   5.730   1.714   1.225  0.7008  2.0700  2.7989
 9334TIP3   OH249492   4.565   0.396   5.789 -0.6134  0.1358 -0.2055
 9334TIP3    H149493   4.607   0.482   5.777 -1.4942  0.6284  0.2108
 9334TIP3    H249494   4.616   0.337   5.733  2.1842  0.2177  2.1752
 9335TIP3   OH249495   1.989   5.186   1.490 -0.0202 -0.4580 -0.3797
 9335TIP3    H149496   1.939   5.194   1.409  0.1671  3.3597 -0.2086
 9335TIP3    H249497   2.019   5.275   1.508  1.8365 -1.6442  2.6960
 9336TIP3   OH249498   6.199   4.914   5.067 -0.0859 -0.4386  0.6350
 9336TIP3    H149499   6.249   4.963   5.132 -0.5609  0.3798  0.4028
 9336TIP3    H249500   6.178   4.979   5.000 -0.6715 -0.9826  0.2836
 9337TIP3   OH249501   0.970   0.150   0.378  0.4884  0.3653  0.3480
 9337TIP3    H149502   1.046   0.174   0.325  1.7537  0.6801  2.2301
 9337TIP3    H249503   0.903   0.213   0.353  1.8118  1.9931  0.7762
 9338TIP3   OH249504   2.352   4.476   3.381 -0.1045 -0.2404 -0.7049
 9338TIP3    H149505   2.329   4.511   3.468 -0.7510 -1.9315 -0.1749
 9338TIP3    H249506   2.358   4.382   3.394 -0.4478 -0.5385 -2.5596
 9339TIP3   OH249507   0.983   2.003  13.511  0.7754  0.4817 -0.4716
 9339TIP3    H149508   1.043   1.929  13.512  0.2223 -0.0026 -1.5687
 9339TIP3    H249509   0.973   2.028  13.603  1.3070 -0.5326 -0.1352
 9340TIP3   OH249510   5.262   6.584  13.642 -0.3092  0.4496 -0.0565
 9340TIP3    H149511   5.344   6.576  13.691 -1.4236  0.0559  1.7744
 9340TIP3    H249512   5.193   6.574  13.707 -1.8396  1.3009 -1.4814
 9341TIP3   OH249513   6.410   1.357   3.972 -0.0004  0.5914 -0.1283
 9341TIP3    H149514   6.369   1.386   4.054 -0.7647  0.0230 -0.3032
 9341TIP3    H249515   6.432   1.265   3.988  1.8255  1.0736  0.2022
 9342TIP3   OH249516   1.653   2.774   4.949 -0.3107  0.0762  0.6956
 9342TIP3    H149517   1.571   2.818   4.930 -1.0923 -0.5790  2.3993
 9342TIP3    H249518   1.718   2.818   4.894 -2.0142 -0.2603 -1.6440
 9343TIP3   OH249519   0.808   4.372   0.824 -0.3620 -0.0382 -0.7414
 9343TIP3    H149520   0.897   4.338   0.822  0.7512  2.7524 -0.3781
 9343TIP3    H249521   0.818   4.465   0.843 -3.4510 -0.0043  1.1093
 9344TIP3   OH249522   2.977   1.575   5.663  0.3105 -0.6017 -0.3620
 9344TIP3    H149523   2.951   1.483   5.672 -0.0278 -0.5340 -0.5948
 9344TIP3    H249524   2.903   1.624   5.699  0.2866 -0.4105 -0.6683
 9345TIP3   OH249525   3.415   2.070  15.553  0.4542 -0.8037  0.0896
 9345TIP3    H149526   3.507   2.066  15.529  0.3733 -0.9252 -0.2128
 9345TIP3    H249527   3.408   2.015  15.631  0.6266 -0.8315  0.0866
 9346TIP3   OH249528   0.454   4.304   2.003  0.0074 -0.3180 -0.0803
 9346TIP3    H149529   0.425   4.215   2.024  0.8361 -0.8688 -1.1734
 9346TIP3    H249530   0.541   4.292   1.964  0.0242  0.9490 -0.4598
 9347TIP3   OH249531   2.095   1.730  12.481  0.7890  0.1962  0.0005
 9347TIP3    H149532   2.058   1.810  12.517 -0.7824 -0.0763 -0.9797
 9347TIP3    H249533   2.071   1.732  12.388  1.1227 -1.1847 -0.1305
 9348TIP3   OH249534   2.620   2.431  14.021 -0.6967  0.1040  0.3777
 9348TIP3    H149535   2.530   2.461  14.037 -0.8621  0.7938 -1.6503
 9348TIP3    H249536   2.671   2.468  14.093 -1.8003  0.9349  0.7462
 9349TIP3   OH249537   5.335   0.582  16.424 -0.0539  0.1250 -0.0742
 9349TIP3    H149538   5.303   0.505  16.471  0.5975  0.0480  0.2503
 9349TIP3    H249539   5.261   0.642  16.422 -0.3410 -0.2159  0.3057
 9350TIP3   OH249540   5.065   5.752  16.219  0.3904  0.4229  0.5947
 9350TIP3    H149541   5.007   5.822  16.191  1.8325  0.5533 -2.2836
 9350TIP3    H249542   5.152   5.792  16.224  1.0107 -0.8303  0.2415
 9351TIP3   OH249543   6.062   1.927   0.433  0.1265 -0.3946  0.2997
 9351TIP3    H149544   6.116   1.929   0.513  0.0614  3.9928  0.3177
 9351TIP3    H249545   6.005   1.852   0.445  2.1304 -1.5799  3.0294
 9352TIP3   OH249546   3.601   2.595   4.518 -0.3343  0.2139  0.3291
 9352TIP3    H149547   3.598   2.660   4.588  0.8301  1.9799 -1.2043
 9352TIP3    H249548   3.695   2.583   4.500 -0.5957 -0.6607 -0.5244
 9353TIP3   OH249549   0.125   1.761  17.116 -0.0557  0.0257 -0.1718
 9353TIP3    H149550   0.148   1.832  17.176 -0.8353 -0.6758  0.9785
 9353TIP3    H249551   0.055   1.714  17.161  0.2080 -1.2565 -1.0894
 9354TIP3   OH249552   2.288   5.217  15.353  0.4725 -0.0208  0.4243
 9354TIP3    H149553   2.246   5.185  15.433 -0.7129  0.3121 -0.0491
 9354TIP3    H249554   2.218   5.217  15.288  1.5299 -0.7126 -0.7337
 9355TIP3   OH249555   1.971   0.604   3.476  0.0681 -0.4018 -0.2278
 9355TIP3    H149556   1.937   0.524   3.436 -1.6029 -0.6285  1.5840
 9355TIP3    H249557   2.040   0.573   3.535  0.2699 -0.3825 -0.4523
 9356TIP3   OH249558   4.364   1.220   0.282 -0.0679  0.0617  0.2030
 9356TIP3    H149559   4.420   1.226   0.204 -0.7466 -1.7584 -0.4699
 9356TIP3    H249560   4.282   1.264   0.256  0.4120  1.1820  0.5777
 9357TIP3   OH249561   2.662   6.599   0.660 -0.2500 -0.0808 -0.5948
 9357TIP3    H149562   2.741   6.649   0.680 -0.2307  0.4255 -1.8720
 9357TIP3    H249563   2.676   6.568   0.570 -0.3620 -2.1856  0.0906
 9358TIP3   OH249564   0.939   5.597  15.319 -0.4384 -0.1823 -0.1275
 9358TIP3    H149565   0.852   5.629  15.342 -0.4505 -0.2157 -0.1265
 9358TIP3    H249566   0.969   5.550  15.397 -0.2870  0.1030 -0.0140
 9359TIP3   OH249567   6.190   3.398   2.296 -0.6129 -0.4017  0.3049
 9359TIP3    H149568   6.172   3.476   2.243  1.4072 -1.5522 -2.1621
 9359TIP3    H249569   6.277   3.413   2.332 -0.1389 -1.5371 -0.3161
 9360TIP3   OH249570   1.888   4.857  12.100 -0.0386  0.0913 -0.2425
 9360TIP3    H149571   1.935   4.937  12.122  1.2767 -0.6167 -0.4368
 9360TIP3    H249572   1.917   4.793  12.165 -1.9081  0.0456  0.5938
 9361TIP3   OH249573   0.895   2.970   4.354 -0.4079  0.2367 -0.4801
 9361TIP3    H149574   0.929   2.923   4.278 -0.2345 -0.3954 -0.0230
 9361TIP3    H249575   0.859   2.901   4.410  0.3321  0.5994  0.4443
 9362TIP3   OH249576   1.217   1.034  14.405 -0.4560 -0.3952  0.4442
 9362TIP3    H149577   1.173   0.994  14.480 -3.1098  0.5151 -0.5512
 9362TIP3    H249578   1.232   1.125  14.431  0.4494 -0.5856  0.6064
 9363TIP3   OH249579   5.800   3.701  14.539 -0.3865 -0.0659  0.3762
 9363TIP3    H149580   5.761   3.737  14.619  0.9212 -1.1848  1.5508
 9363TIP3    H249581   5.834   3.778  14.492 -0.5975  0.5517  1.2143
 9364TIP3   OH249582   0.130   6.308   2.843 -0.0010  0.2891  0.3729
 9364TIP3    H149583   0.213   6.341   2.809  0.1297  1.9006  2.2103
 9364TIP3    H249584   0.142   6.213   2.848  1.7665  0.5216  0.7468
 9365TIP3   OH249585   6.189   0.203  13.201 -0.1417 -0.2167 -0.1228
 9365TIP3    H149586   6.223   0.223  13.288 -0.7741 -1.3259  0.3881
 9365TIP3    H249587   6.101   0.168  13.217 -0.6974  0.6112 -1.2804
 9366TIP3   OH249588   4.966   1.339   0.976 -0.5972 -0.2589  0.3391
 9366TIP3    H149589   4.977   1.284   0.899 -1.0951  0.1909 -0.0625
 9366TIP3    H249590   5.039   1.316   1.033  1.4276  1.3744 -1.4634
 9367TIP3   OH249591   5.430   5.288   5.902 -0.0885 -0.3189 -0.4060
 9367TIP3    H149592   5.349   5.300   5.952 -0.6765  1.7195 -1.7666
 9367TIP3    H249593   5.497   5.332   5.954 -0.1912 -0.5112 -0.1129
 9368TIP3   OH249594   4.675   4.627  13.609  0.2528 -0.8007 -0.1472
 9368TIP3    H149595   4.724   4.625  13.691 -0.1927  0.9109  0.1858
 9368TIP3    H249596   4.594   4.580  13.628 -0.0903  0.0646  0.5688
 9369TIP3   OH249597   5.359   0.694   1.816 -0.3728  0.1981 -0.2070
 9369TIP3    H149598   5.419   0.764   1.842 -1.1931  0.8073  0.0594
 9369TIP3    H249599   5.417   0.624   1.785  0.6423 -0.4332  2.9146
 9370TIP3   OH249600   3.365   5.650  11.701 -0.3513 -0.1880 -0.3498
 9370TIP3    H149601   3.399   5.679  11.785 -0.6508  1.7955 -0.8684
 9370TIP3    H249602   3.438   5.606  11.659  1.1389  2.4969 -0.7367
 9371TIP3   OH249603   4.806   3.698  17.116  0.5217  0.3034 -0.9949
 9371TIP3    H149604   4.845   3.616  17.085  0.5657 -0.8830  2.0673
 9371TIP3    H249605   4.714   3.677  17.130  0.7704  0.4360  0.9110
 9372TIP3   OH249606   4.568   4.434   3.101  0.0362 -0.0168 -0.7448
 9372TIP3    H149607   4.622   4.368   3.058  0.1824  0.6125 -1.5493
 9372TIP3    H249608   4.481   4.393   3.108  0.3936 -0.6918 -0.2638
 9373TIP3   OH249609   4.352   1.731   2.631 -0.4013  0.3338 -0.7003
 9373TIP3    H149610   4.414   1.786   2.583 -0.2276  1.1551  0.4501
 9373TIP3    H249611   4.276   1.724   2.573  0.7836 -0.7416 -2.1522
 9374TIP3   OH249612   1.093   5.533   2.084 -0.7471  0.3764  0.1449
 9374TIP3    H149613   1.150   5.592   2.035 -1.8731  0.3073 -1.2803
 9374TIP3    H249614   1.039   5.590   2.138 -0.2727  0.5162  0.4706
 9375TIP3   OH249615   3.818   5.589  13.062 -0.7898  0.2948  0.1687
 9375TIP3    H149616   3.760   5.541  13.003 -2.4133  1.2058  0.9812
 9375TIP3    H249617   3.828   5.675  13.020  1.3322 -0.3854 -0.7993
 9376TIP3   OH249618   1.630   5.866   6.334  0.1393 -0.0454  0.0776
 9376TIP3    H149619   1.612   5.919   6.411  0.1800  0.7180 -0.4358
 9376TIP3    H249620   1.594   5.916   6.261 -0.7018 -1.1755 -0.3044
 9377TIP3   OH249621   1.068   0.085   4.571  0.1061  0.1136 -0.5474
 9377TIP3    H149622   0.985   0.057   4.609  0.3883 -0.8716 -0.6387
 9377TIP3    H249623   1.043   0.136   4.494 -0.4032 -1.9614 -1.8021
 9378TIP3   OH249624   2.109   6.060   0.768 -0.3866 -0.4201 -0.1934
 9378TIP3    H149625   2.175   5.998   0.737 -0.8578 -0.9332 -0.1804
 9378TIP3    H249626   2.120   6.137   0.712  0.8589 -0.1246  0.4287
 9379TIP3   OH249627   5.697   3.367  17.120 -0.6697  0.3747 -0.0341
 9379TIP3    H149628   5.784   3.340  17.091 -0.6144  1.6438 -1.1079
 9379TIP3    H249629   5.682   3.318  17.201  0.6925 -0.4790 -0.2857
 9380TIP3   OH249630   4.381   6.682   4.370  0.2098 -0.4380 -0.3215
 9380TIP3    H149631   4.312   6.616   4.362  0.0321 -0.5035  1.6820
 9380TIP3    H249632   4.456   6.634   4.405  0.2011  0.3515  0.7668
 9381TIP3   OH249633   3.093   0.112   4.310 -0.0678  0.4307 -0.4594
 9381TIP3    H149634   3.050   0.122   4.225 -1.0045 -1.9308 -0.3009
 9381TIP3    H249635   3.186   0.104   4.290 -0.3974 -1.3561 -1.4000
 9382TIP3   OH249636   5.375   5.331   0.875 -0.0318  0.0583 -0.4015
 9382TIP3    H149637   5.394   5.237   0.873  1.0769  0.2948 -1.3817
 9382TIP3    H249638   5.443   5.368   0.930 -0.2532  0.3316 -0.3145
 9383TIP3   OH249639   3.516   1.740  15.220 -0.0276  0.3209  0.9199
 9383TIP3    H149640   3.493   1.753  15.127  0.9417 -1.0401  0.4834
 9383TIP3    H249641   3.431   1.731  15.264 -0.4686 -0.0833  0.0014
 9384TIP3   OH249642   6.370   6.109   4.807 -0.0200 -0.8376  0.0113
 9384TIP3    H149643   6.345   6.034   4.752 -0.8382 -0.6407  0.1000
 9384TIP3    H249644   6.286   6.144   4.838  0.4698 -1.8234  2.5639
 9385TIP3   OH249645   0.229   5.627   6.559  0.1320 -0.1666 -0.5829
 9385TIP3    H149646   0.220   5.612   6.653  0.8695 -1.6666 -0.7260
 9385TIP3    H249647   0.142   5.605   6.523 -0.2316  0.6779 -0.2268
 9386TIP3   OH249648   0.989   4.127  12.503 -0.1671  0.5418 -1.0414
 9386TIP3    H149649   1.000   4.036  12.532  1.3622  1.3615  1.1485
 9386TIP3    H249650   1.030   4.130  12.417  0.8191 -0.5929 -0.6332
 9387TIP3   OH249651   6.602   4.690  15.208  0.6819 -0.5281  0.5554
 9387TIP3    H149652   6.627   4.718  15.120  1.4035 -3.2383 -0.1624
 9387TIP3    H249653   6.673   4.721  15.265  1.3818 -0.7431 -0.1871
 9388TIP3   OH249654   2.433   3.682   4.703  0.0439 -0.8561  0.0124
 9388TIP3    H149655   2.516   3.706   4.661 -0.1493  0.8143  0.5631
 9388TIP3    H249656   2.371   3.748   4.673 -0.3938 -0.3729  1.9051
 9389TIP3   OH249657   4.299   3.299   5.164  0.2610 -0.2550 -0.0573
 9389TIP3    H149658   4.247   3.288   5.084 -2.5565  0.9498  1.5626
 9389TIP3    H249659   4.311   3.210   5.197 -2.2696 -0.4627  0.4276
 9390TIP3   OH249660   0.451   3.334   4.798  0.0291  0.4336 -0.0423
 9390TIP3    H149661   0.476   3.279   4.724  0.9841  0.3982  0.2908
 9390TIP3    H249662   0.534   3.373   4.827 -0.1232 -0.6533  1.8939
 9391TIP3   OH249663   3.558   3.784   2.194 -0.2304 -0.3864 -0.6572
 9391TIP3    H149664   3.603   3.700   2.186  0.4896 -0.0279 -0.3799
 9391TIP3    H249665   3.612   3.845   2.144  0.3518  0.3409  0.8392
 9392TIP3   OH249666   5.487   6.312  14.937 -0.1226 -0.3103 -0.0581
 9392TIP3    H149667   5.515   6.357  15.016 -0.2058 -2.0878  0.9959
 9392TIP3    H249668   5.446   6.231  14.968  2.0866 -2.2458 -2.0038
 9393TIP3   OH249669   4.895   1.716   0.439 -0.1042 -0.6455  0.2325
 9393TIP3    H149670   4.862   1.636   0.480 -2.0322  0.3370  0.6531
 9393TIP3    H249671   4.981   1.691   0.404  0.2283 -2.3185  2.1589
 9394TIP3   OH249672   5.049   3.266  10.357 -0.5168  0.0919 -0.3387
 9394TIP3    H149673   4.994   3.312  10.293 -2.3599 -1.1553  0.2995
 9394TIP3    H249674   5.015   3.176  10.356  1.2172 -0.5924  0.4366
 9395TIP3   OH249675   5.457   3.912   1.644 -0.4451 -0.6619 -0.0850
 9395TIP3    H149676   5.414   3.973   1.703 -1.3787 -0.0269 -1.3829
 9395TIP3    H249677   5.550   3.933   1.652 -0.6912  0.4103  0.0609
 9396TIP3   OH249678   2.352   2.059   5.330 -0.0948 -0.4727  0.1086
 9396TIP3    H149679   2.429   2.030   5.380  1.0615 -0.9503 -1.8993
 9396TIP3    H249680   2.325   1.981   5.282 -1.6494 -0.2073  0.5219
 9397TIP3   OH249681   4.504   5.443   1.833  0.1917  0.1920 -0.0943
 9397TIP3    H149682   4.589   5.487   1.830  0.9380 -1.2769 -1.3050
 9397TIP3    H249683   4.478   5.437   1.741 -0.1448 -1.3992  0.0966
 9398TIP3   OH249684   3.999   2.818   4.332  0.1074  0.1077  0.0618
 9398TIP3    H149685   4.084   2.861   4.318  0.0883  0.7062  1.6209
 9398TIP3    H249686   3.941   2.857   4.267  0.6612  0.8117 -0.0208
 9399TIP3   OH249687   1.390   4.263  14.013 -0.1251  0.5615  0.5967
 9399TIP3    H149688   1.421   4.316  13.940  0.8961  0.4263  0.9266
 9399TIP3    H249689   1.301   4.295  14.030 -1.0051 -0.5002 -1.7538
 9400TIP3   OH249690   6.741   3.550   1.117 -0.1990 -0.0234 -0.2002
 9400TIP3    H149691   6.669   3.603   1.153 -1.6876  0.3680 -3.5755
 9400TIP3    H249692   6.819   3.604   1.130 -1.3426  1.9843 -1.3378
 9401TIP3   OH249693   0.707   2.754   1.661  0.1939  0.1082  0.1377
 9401TIP3    H149694   0.761   2.832   1.656  3.4942 -1.9340  1.9851
 9401TIP3    H249695   0.700   2.736   1.755  1.1532 -2.8576 -0.3098
 9402TIP3   OH249696   6.547   4.072  12.432  0.0280  0.2454 -0.2729
 9402TIP3    H149697   6.463   4.088  12.390  0.9136  1.5395 -1.6041
 9402TIP3    H249698   6.534   4.097  12.523 -0.9069  0.8952 -0.5802
 9403TIP3   OH249699   5.130   2.887  10.722 -1.0250 -0.2379 -0.6307
 9403TIP3    H149700   5.063   2.819  10.720 -0.3382 -0.9247 -0.7124
 9403TIP3    H249701   5.147   2.901  10.816  0.0371 -1.4089 -0.6229
 9404TIP3   OH249702   3.425   0.700   4.853 -0.1444  0.3103 -0.4581
 9404TIP3    H149703   3.426   0.735   4.942  0.2204  2.9994 -1.4913
 9404TIP3    H249704   3.477   0.619   4.859 -0.8193  0.0211  1.9220
 9405TIP3   OH249705   6.452   5.641  13.040 -0.7327  0.2259 -0.0713
 9405TIP3    H149706   6.388   5.656  12.971 -2.1639  0.2469  1.2403
 9405TIP3    H249707   6.438   5.551  13.067 -2.0102  0.9949  1.9855
 9406TIP3   OH249708   5.698   5.657   1.546  0.2083 -1.0156  0.2824
 9406TIP3    H149709   5.605   5.668   1.562  0.4325 -1.0572  1.6522
 9406TIP3    H249710   5.738   5.661   1.633  1.4680 -1.1098 -0.2843
 9407TIP3   OH249711   5.240   0.361  14.055  0.6222 -0.0805 -0.7256
 9407TIP3    H149712   5.158   0.313  14.065  0.1895  0.7260 -0.3535
 9407TIP3    H249713   5.262   0.392  14.143 -0.2019  2.1623 -1.2693
 9408TIP3   OH249714   6.695   2.747   3.851  0.3844 -0.4366  0.3170
 9408TIP3    H149715   6.761   2.683   3.823  0.5863 -0.4047  0.7251
 9408TIP3    H249716   6.638   2.698   3.911 -2.2847 -1.5768 -2.9991
 9409TIP3   OH249717   2.307   0.393  16.526 -0.8279  0.0172 -0.2643
 9409TIP3    H149718   2.317   0.453  16.453 -0.4282  0.9117  0.5159
 9409TIP3    H249719   2.283   0.310  16.486  0.0708  0.3217 -1.4565
 9410TIP3   OH249720   3.545   1.722   1.890  0.4303 -0.0043 -0.2424
 9410TIP3    H149721   3.460   1.685   1.914  0.7394  0.0298  0.9382
 9410TIP3    H249722   3.610   1.663   1.929  0.9394  0.5810 -0.1850
 9411TIP3   OH249723   2.429   4.976  12.453 -0.1460  0.0590  0.2881
 9411TIP3    H149724   2.342   5.014  12.464  0.9432  2.6954  0.0199
 9411TIP3    H249725   2.448   4.987  12.359  0.5944 -0.2181  0.3986
 9412TIP3   OH249726   6.376   6.697  11.553 -0.1028 -0.4106  0.1898
 9412TIP3    H149727   6.296   6.644  11.550  1.2647 -2.6254  1.1154
 9412TIP3    H249728   6.357   6.766  11.617 -1.2437 -0.9801  0.4825
 9413TIP3   OH249729   5.518   5.430   1.764  0.2927  0.7786 -0.1014
 9413TIP3    H149730   5.438   5.465   1.724  0.4822  1.5940  0.2149
 9413TIP3    H249731   5.524   5.340   1.732  0.8213  1.6222 -2.4631
 9414TIP3   OH249732   6.073   3.719   0.692 -0.1326  0.7265  0.0058
 9414TIP3    H149733   6.015   3.647   0.716  0.7802  0.5989  1.9157
 9414TIP3    H249734   6.021   3.773   0.632 -1.7753 -0.0524  0.6987
 9415TIP3   OH249735   0.582   4.847  11.402 -0.0646  0.1425 -0.2296
 9415TIP3    H149736   0.649   4.861  11.336  0.1060  5.0381  0.7692
 9415TIP3    H249737   0.631   4.825  11.482  0.0142 -0.9027 -0.5540
 9416TIP3   OH249738   6.266   4.033  17.184 -0.3629 -0.0396  0.1630
 9416TIP3    H149739   6.200   4.050  17.251  1.3048 -0.8580  2.0717
 9416TIP3    H249740   6.339   4.091  17.206  1.0107 -1.7802  0.2965
 9417TIP3   OH249741   4.547   2.702   4.384 -0.8805  0.2207 -0.4474
 9417TIP3    H149742   4.593   2.670   4.461  0.7572 -0.9790 -1.8730
 9417TIP3    H249743   4.487   2.631   4.361  1.5494 -1.2159 -2.6234
 9418TIP3   OH249744   6.016   1.594  16.524 -0.2440  0.3676  0.0291
 9418TIP3    H149745   5.926   1.573  16.500  0.0497 -0.3933 -0.4429
 9418TIP3    H249746   6.060   1.509  16.528  0.1848  0.6454  1.3790
 9419TIP3   OH249747   3.702   2.581   3.526  0.3131 -0.3680 -0.5383
 9419TIP3    H149748   3.780   2.629   3.554 -0.5505  0.2130  0.9081
 9419TIP3    H249749   3.628   2.630   3.564 -0.5746 -3.1327  1.4902
 9420TIP3   OH249750   0.816   6.460   3.486 -0.1807 -0.2115 -0.1273
 9420TIP3    H149751   0.799   6.433   3.396 -0.3956  1.6167 -0.6537
 9420TIP3    H249752   0.759   6.405   3.540 -1.0212 -0.3874 -1.2028
 9421TIP3   OH249753   3.065   3.959   4.669  0.8999 -0.2219  0.0745
 9421TIP3    H149754   2.994   3.956   4.733 -0.5369  1.4218 -1.3920
 9421TIP3    H249755   3.125   4.026   4.702  0.9269 -0.4351  0.4581
 9422TIP3   OH249756   1.624   6.283  10.698 -0.0394  0.3053 -0.0484
 9422TIP3    H149757   1.562   6.288  10.770 -0.4928  0.4386 -0.4449
 9422TIP3    H249758   1.668   6.368  10.697 -0.2133  0.3946 -0.0886
 9423TIP3   OH249759   2.300   2.852  15.232  0.5678  0.1961 -0.2135
 9423TIP3    H149760   2.360   2.791  15.188  0.4857 -0.5587  0.6983
 9423TIP3    H249761   2.214   2.813  15.219  0.4485  0.4445 -0.1570
 9424TIP3   OH249762   2.115   1.570   3.244  1.1042 -0.0292  0.7081
 9424TIP3    H149763   2.125   1.571   3.339 -0.8345 -1.1138  0.9380
 9424TIP3    H249764   2.119   1.477   3.220 -0.1589  0.0962 -0.0569
 9425TIP3   OH249765   0.171   4.116  12.600  0.0728 -0.1147 -0.3670
 9425TIP3    H149766   0.087   4.161  12.590 -0.2964 -0.6721  0.2666
 9425TIP3    H249767   0.151   4.024  12.585  0.4900 -0.3065  0.2697
 9426TIP3   OH249768   6.051   3.952   3.186 -0.2902  0.8320 -0.4577
 9426TIP3    H149769   6.027   3.875   3.133  0.0263  1.4221 -1.4692
 9426TIP3    H249770   5.968   3.996   3.202 -0.8277 -1.0870  2.3175
 9427TIP3   OH249771   3.286   5.449  12.083  0.1753  0.9608 -0.6615
 9427TIP3    H149772   3.288   5.425  11.990  1.0330  0.5284 -0.5270
 9427TIP3    H249773   3.204   5.498  12.092 -0.0032  0.8564 -1.6085
 9428TIP3   OH249774   0.940   5.088  15.260  0.0102 -0.2246  0.3050
 9428TIP3    H149775   0.944   5.071  15.165 -0.7148  1.4570 -0.0483
 9428TIP3    H249776   0.897   5.011  15.296  0.0645 -0.7780 -0.7763
 9429TIP3   OH249777   0.648   0.639   0.480  0.3556  0.0691  0.4444
 9429TIP3    H149778   0.565   0.594   0.464 -1.3033  3.8128 -2.2352
 9429TIP3    H249779   0.639   0.676   0.568 -2.2965  3.2026 -1.0301
 9430TIP3   OH249780   2.727   6.140  16.655 -0.0394 -0.3459  0.2939
 9430TIP3    H149781   2.730   6.053  16.615 -0.4930  0.1448 -0.8293
 9430TIP3    H249782   2.643   6.176  16.627 -0.1723  0.1894  1.3445
 9431TIP3   OH249783   5.679   6.814   4.121 -0.1274  0.5471 -0.6909
 9431TIP3    H149784   5.672   6.818   4.216 -0.3526 -0.4969 -0.6578
 9431TIP3    H249785   5.589   6.825   4.089 -0.1868  0.0005 -0.7352
 9432TIP3   OH249786   3.844   3.160   5.088 -0.8516 -0.1514  0.1311
 9432TIP3    H149787   3.789   3.221   5.039 -1.2009  0.0428  0.7527
 9432TIP3    H249788   3.858   3.086   5.029 -0.7006  0.3856 -0.5089
 9433TIP3   OH249789   4.946   4.240  12.844  0.0913 -0.4968  0.2896
 9433TIP3    H149790   4.946   4.159  12.793 -0.3567 -0.4577  0.2235
 9433TIP3    H249791   5.005   4.222  12.916  0.5869 -0.6175 -0.1447
 9434TIP3   OH249792   1.889   1.368   1.161  0.1475  0.0842 -0.0997
 9434TIP3    H149793   1.904   1.443   1.104 -0.4354  0.4339  0.2075
 9434TIP3    H249794   1.926   1.293   1.112  1.0408  0.6112 -0.2519
 9435TIP3   OH249795   6.817   0.002   5.201  0.2190  0.3401  0.1844
 9435TIP3    H149796   6.897   0.009   5.148  1.0261 -0.4407  1.2813
 9435TIP3    H249797   6.837   0.051   5.281 -0.5622  0.5159  0.2765
 9436TIP3   OH249798   6.229   4.009  16.453  0.4308  0.2530  0.4634
 9436TIP3    H149799   6.196   4.093  16.484 -0.2263 -0.3219  1.3626
 9436TIP3    H249800   6.178   3.944  16.501  1.9909 -0.6607  0.9532
 9437TIP3   OH249801   2.110   0.698  11.345  0.3752 -0.4785 -0.1372
 9437TIP3    H149802   2.142   0.655  11.265  0.2779 -1.6199  0.4239
 9437TIP3    H249803   2.072   0.780  11.314 -2.3107 -2.2140 -1.6790
 9438TIP3   OH249804   2.363   4.900   1.208 -0.7537 -0.1350  0.1276
 9438TIP3    H149805   2.335   4.953   1.134  0.2053  0.6844  0.3514
 9438TIP3    H249806   2.307   4.929   1.280 -1.5702 -0.8133 -0.2232
 9439TIP3   OH249807   1.285   0.623  15.581  0.3250  0.3501 -0.1720
 9439TIP3    H149808   1.197   0.584  15.579  0.2978  0.4273 -0.4768
 9439TIP3    H249809   1.273   0.707  15.625 -0.0488  1.1010 -1.7046
 9440TIP3   OH249810   3.467   4.252  11.344  0.3387 -0.7510 -0.0462
 9440TIP3    H149811   3.553   4.212  11.341  0.7604  0.2155 -1.3413
 9440TIP3    H249812   3.484   4.344  11.366 -0.1136  0.0488 -2.7769
 9441TIP3   OH249813   4.339   0.217   6.170  0.0348 -0.4511  0.2082
 9441TIP3    H149814   4.298   0.131   6.183  1.2502 -0.9778  0.5881
 9441TIP3    H249815   4.409   0.220   6.235  1.1243  0.1198 -0.9843
 9442TIP3   OH249816   3.753   3.842  16.031 -0.5595 -0.3056 -0.6296
 9442TIP3    H149817   3.804   3.919  16.005 -1.2940  1.2719  2.4810
 9442TIP3    H249818   3.819   3.778  16.059 -0.1246  0.4772  0.1339
 9443TIP3   OH249819   1.652   6.149  11.107  0.0254 -0.3982 -0.3114
 9443TIP3    H149820   1.668   6.058  11.083  0.3524 -0.5016  0.2810
 9443TIP3    H249821   1.607   6.144  11.192  0.1445 -0.0081 -0.2258
 9444TIP3   OH249822   6.306   0.417   5.006 -0.3834  0.0540  0.4766
 9444TIP3    H149823   6.252   0.467   4.944  0.9809 -0.0376 -0.8240
 9444TIP3    H249824   6.254   0.341   5.028 -1.6146  0.9804  0.8194
 9445TIP3   OH249825   2.436   0.396  16.975 -0.0829 -0.1378 -0.2325
 9445TIP3    H149826   2.458   0.373  16.884 -0.0754  2.1204 -0.8300
 9445TIP3    H249827   2.341   0.394  16.978 -0.0728 -0.6201 -0.1712
 9446TIP3   OH249828   1.014   3.919   1.826 -0.5134 -0.0731  0.4094
 9446TIP3    H149829   1.019   4.015   1.833 -0.2762 -0.0530 -0.0276
 9446TIP3    H249830   0.945   3.904   1.761  1.2389 -0.1439 -1.4847
 9447TIP3   OH249831   4.819   0.639  16.012 -0.3442  0.2484  0.0007
 9447TIP3    H149832   4.753   0.577  16.042  0.7111 -0.1156  1.6320
 9447TIP3    H249833   4.839   0.692  16.089 -1.1799  2.6020 -1.3526
 9448TIP3   OH249834   5.630   3.980  11.668  0.2229  0.1925  0.1958
 9448TIP3    H149835   5.557   3.921  11.648 -0.4421  0.7274  1.0126
 9448TIP3    H249836   5.607   4.062  11.626  0.8553  0.0565 -0.4194
 9449TIP3   OH249837   2.607   1.664   1.040 -0.6040  0.1429  0.7006
 9449TIP3    H149838   2.594   1.580   1.082 -0.9809  0.9114  2.1555
 9449TIP3    H249839   2.519   1.696   1.023 -0.4564 -0.7842 -1.9883
 9450TIP3   OH249840   5.707   2.975   4.179  0.7575 -0.0966  0.5157
 9450TIP3    H149841   5.666   3.039   4.237 -0.9723 -0.1461 -0.6012
 9450TIP3    H249842   5.679   3.002   4.091  0.7803 -1.8389 -0.0386
 9451TIP3   OH249843   1.310   2.558   0.975 -0.2864  0.2520 -0.0762
 9451TIP3    H149844   1.255   2.592   0.904  0.4234  1.5006 -0.0401
 9451TIP3    H249845   1.384   2.619   0.979 -0.2339  0.0770  1.6333
 9452TIP3   OH249846   4.193   3.029   2.075 -0.1049  0.2156  0.3129
 9452TIP3    H149847   4.171   2.965   2.007  0.9689  0.5531 -0.3568
 9452TIP3    H249848   4.277   2.999   2.111 -0.4278  0.3061  1.1657
 9453TIP3   OH249849   5.082   1.770  14.071 -0.4140 -0.0281 -0.4343
 9453TIP3    H149850   4.996   1.800  14.045 -0.8707 -0.8883  0.0538
 9453TIP3    H249851   5.089   1.794  14.164  0.3640  1.1240 -0.7669
 9454TIP3   OH249852   0.801   0.020   0.098 -0.2965 -0.1675 -0.2879
 9454TIP3    H149853   0.880  -0.003   0.147 -0.8311  0.4693  0.9052
 9454TIP3    H249854   0.735  -0.043   0.126 -0.3638 -0.3610 -0.8714
 9455TIP3   OH249855   5.295   1.845   3.425  1.1408 -0.3299 -0.2944
 9455TIP3    H149856   5.275   1.927   3.380  2.6952  0.8611  1.1189
 9455TIP3    H249857   5.214   1.823   3.471  0.7203  0.4482 -0.6523
 9456TIP3   OH249858   4.668   2.570   4.617  0.1498  0.2463 -0.0275
 9456TIP3    H149859   4.763   2.585   4.613  0.5464 -1.8698  0.9021
 9456TIP3    H249860   4.655   2.487   4.571 -1.1727  0.1614  0.4848
 9457TIP3   OH249861   5.826   4.729   3.940  0.4091  0.3388 -0.0552
 9457TIP3    H149862   5.818   4.751   3.847 -1.5641  2.3246  0.5237
 9457TIP3    H249863   5.740   4.694   3.963  0.5012  0.9750  1.2827
 9458TIP3   OH249864   5.704   6.644   3.702  0.3415 -0.2712 -0.6178
 9458TIP3    H149865   5.776   6.581   3.691  1.2404  0.0514  2.7712
 9458TIP3    H249866   5.681   6.638   3.795 -0.3741  3.5386 -0.4563
 9459TIP3   OH249867   6.558   2.898   3.149  0.8406  0.5025  0.5559
 9459TIP3    H149868   6.505   2.955   3.204 -0.3232  0.4999 -0.5355
 9459TIP3    H249869   6.495   2.858   3.089  1.9515 -0.2588 -0.1182
 9460TIP3   OH249870   2.471   4.243  12.178  0.2227  0.2592  0.4820
 9460TIP3    H149871   2.516   4.312  12.130 -0.6453  0.3729 -0.1702
 9460TIP3    H249872   2.528   4.225  12.253  0.7090  1.3143  0.3710
 9461TIP3   OH249873   0.379   0.335  12.061 -0.3159  0.4527  0.6821
 9461TIP3    H149874   0.308   0.389  12.093 -1.0339  0.4308 -0.8334
 9461TIP3    H249875   0.401   0.278  12.134 -1.5152  0.8057  1.3221
 9462TIP3   OH249876   1.734   4.230   3.145  0.3246  0.1612 -0.0615
 9462TIP3    H149877   1.777   4.160   3.194 -1.5365 -0.3236  0.8901
 9462TIP3    H249878   1.751   4.208   3.053  0.1339 -1.2894  0.2414
 9463TIP3   OH249879   1.784   6.510   4.258 -0.4889  0.0209 -0.2328
 9463TIP3    H149880   1.777   6.422   4.294  1.2540 -0.1197 -0.2156
 9463TIP3    H249881   1.843   6.557   4.317  0.2038  0.5942 -1.3501
 9464TIP3   OH249882   0.979   2.741  12.487 -0.4958  0.0337 -0.0350
 9464TIP3    H149883   0.943   2.662  12.445 -1.2035  1.1582 -1.6026
 9464TIP3    H249884   0.910   2.807  12.476  0.5080  1.1611  0.3641
 9465TIP3   OH249885   1.290   0.968  15.429  0.7569  0.0445  0.2814
 9465TIP3    H149886   1.306   0.897  15.367  0.5897 -0.4123  0.7550
 9465TIP3    H249887   1.224   0.933  15.489  1.8201  0.0152  1.4688
 9466TIP3   OH249888   1.088   6.466  11.474  0.0851  0.5997  0.6649
 9466TIP3    H149889   1.111   6.453  11.382  1.6267 -1.1037  1.2574
 9466TIP3    H249890   1.164   6.511  11.511  0.6146 -1.0856  1.6761
 9467TIP3   OH249891   3.879   4.305   1.550 -0.3251  0.3124  0.8541
 9467TIP3    H149892   3.822   4.380   1.570 -2.1525 -0.9154  0.4013
 9467TIP3    H249893   3.921   4.328   1.467 -0.8937  0.8314  0.7042
 9468TIP3   OH249894   5.416   3.254   0.648  0.9342  0.1785  0.1945
 9468TIP3    H149895   5.477   3.319   0.614 -0.1775  0.6046 -1.0330
 9468TIP3    H249896   5.354   3.239   0.576  0.6606 -1.5809  0.7718
 9469TIP3   OH249897   2.982   6.616   4.048 -0.0697  0.1116  0.1559
 9469TIP3    H149898   2.919   6.647   4.113 -0.8010 -0.3788 -0.3121
 9469TIP3    H249899   3.052   6.681   4.049 -0.7747  0.8669  0.3953
 9470TIP3   OH249900   0.997   0.994   5.208 -0.0080  0.3315 -0.0909
 9470TIP3    H149901   1.005   0.955   5.295  0.4131 -1.7881 -1.0384
 9470TIP3    H249902   1.088   1.007   5.179 -0.1205 -0.5013 -0.8537
 9471TIP3   OH249903   0.801   3.634  12.220 -0.3044  0.7921  0.4502
 9471TIP3    H149904   0.881   3.587  12.200 -0.8032  0.0992  0.0454
 9471TIP3    H249905   0.798   3.706  12.156 -0.1330  0.6643  0.2997
 9472TIP3   OH249906   0.860   4.270   1.164 -0.2259  0.0573  0.6054
 9472TIP3    H149907   0.931   4.252   1.103 -1.2249 -0.1028 -0.5302
 9472TIP3    H249908   0.843   4.363   1.155  1.0028  0.4591  2.1753
 9473TIP3   OH249909   1.630   5.540   2.917  0.4243 -0.4058  0.4779
 9473TIP3    H149910   1.537   5.564   2.910  0.2061 -1.0982  1.0124
 9473TIP3    H249911   1.651   5.555   3.010  1.1902  0.9922  0.0927
 9474TIP3   OH249912   4.399   6.455   5.377  0.1459 -0.7814  0.6256
 9474TIP3    H149913   4.415   6.497   5.292 -0.6192  0.3342  1.0184
 9474TIP3    H249914   4.304   6.443   5.380 -0.0834  1.0330  2.1461
 9475TIP3   OH249915   3.661   1.721   5.768  0.3080 -0.0094  0.2703
 9475TIP3    H149916   3.732   1.682   5.818  0.9201 -1.0362 -1.3366
 9475TIP3    H249917   3.629   1.649   5.712 -0.3346  1.0818 -0.8053
 9476TIP3   OH249918   4.276   4.512  12.292 -0.3294  0.4644  0.6390
 9476TIP3    H149919   4.251   4.596  12.330  0.1596  0.5749  0.7164
 9476TIP3    H249920   4.367   4.499  12.319 -0.2115  0.1973  0.1123
 9477TIP3   OH249921   1.365   2.123   0.545  0.0651  0.2107 -0.2651
 9477TIP3    H149922   1.443   2.076   0.516 -1.0170 -1.3073 -0.7992
 9477TIP3    H249923   1.293   2.061   0.532 -0.8669  0.5230  2.8863
 9478TIP3   OH249924   0.298   1.740  12.029 -0.5664  0.1356  0.7196
 9478TIP3    H149925   0.309   1.719  11.937  2.4578 -0.3173  1.1142
 9478TIP3    H249926   0.218   1.694  12.055 -1.3289  0.0939 -1.5867
 9479TIP3   OH249927   1.923   6.746   5.799 -0.1546  0.2717  0.0779
 9479TIP3    H149928   1.873   6.801   5.738  0.4053  0.2461 -0.4077
 9479TIP3    H249929   1.970   6.808   5.854  0.6586  0.2865 -0.6217
 9480TIP3   OH249930   3.027   6.069   1.442  0.4379 -0.0678 -0.2581
 9480TIP3    H149931   3.106   6.093   1.490  0.6245 -0.6998 -0.2503
 9480TIP3    H249932   2.985   6.153   1.423  0.6703  0.2216  0.4782
 9481TIP3   OH249933   3.494   6.679   1.947 -0.0861  0.3856  0.3880
 9481TIP3    H149934   3.457   6.591   1.950 -0.2517  0.4362 -0.0547
 9481TIP3    H249935   3.464   6.715   1.863 -2.1751  1.7863  1.6810
 9482TIP3   OH249936   1.365   3.725   0.925  0.3306  0.5982  0.5232
 9482TIP3    H149937   1.390   3.697   0.837  2.4469  0.0576  1.2649
 9482TIP3    H249938   1.410   3.664   0.983 -1.1038  0.8995  2.0034
 9483TIP3   OH249939   0.032   3.600   1.653 -1.0114  0.3948  0.3278
 9483TIP3    H149940  -0.017   3.635   1.727 -3.4059 -1.6037 -0.2373
 9483TIP3    H249941   0.002   3.650   1.578  0.3050  1.4098  0.4696
 9484TIP3   OH249942   2.604   1.875   1.383  0.2528 -0.7126  0.1337
 9484TIP3    H149943   2.694   1.859   1.356  0.9519  1.2341  1.1566
 9484TIP3    H249944   2.559   1.903   1.303  1.0425  0.1483 -0.0166
 9485TIP3   OH249945   3.602   4.855  11.288 -0.6194 -0.0198 -0.6420
 9485TIP3    H149946   3.566   4.921  11.348  2.6199  1.7851 -0.5565
 9485TIP3    H249947   3.598   4.897  11.202  3.4014  1.2509 -0.3029
 9486TIP3   OH249948   4.340   4.691   3.322 -0.1204  0.2010  0.2884
 9486TIP3    H149949   4.336   4.732   3.408 -0.6625  2.0596 -0.5837
 9486TIP3    H249950   4.252   4.659   3.306 -0.3808  1.1041 -0.1399
 9487TIP3   OH249951   3.828   0.307  12.263  0.0064 -0.2978  0.1921
 9487TIP3    H149952   3.739   0.273  12.258  0.1158 -0.4536 -0.7311
 9487TIP3    H249953   3.838   0.335  12.354 -0.5660 -1.4305  0.6157
 9488TIP3   OH249954   5.626   3.048  11.597 -0.3380  0.4134  0.5102
 9488TIP3    H149955   5.532   3.038  11.590 -0.1557 -0.3692 -1.0631
 9488TIP3    H249956   5.659   3.035  11.508  1.1777  1.5316  0.8642
 9489TIP3   OH249957   4.524   3.932  14.737 -0.1246 -0.6113  0.1023
 9489TIP3    H149958   4.509   3.880  14.816  0.7752 -2.8088 -1.1352
 9489TIP3    H249959   4.516   3.870  14.665  3.5357  0.3722 -1.2902
 9490TIP3   OH249960   4.783   1.192  16.345  0.4849 -0.4819  0.0888
 9490TIP3    H149961   4.713   1.253  16.366  1.5288  0.8699 -0.3074
 9490TIP3    H249962   4.778   1.182  16.250  0.6070 -0.6737  0.1023
 9491TIP3   OH249963   2.837   2.200  14.436  0.6475  0.0812 -0.1133
 9491TIP3    H149964   2.747   2.235  14.437  1.4949  2.3689 -0.2084
 9491TIP3    H249965   2.885   2.259  14.494  2.4217 -0.1992 -1.2895
 9492TIP3   OH249966   2.488   0.653   1.878 -0.2658  0.6133  0.2683
 9492TIP3    H149967   2.531   0.722   1.827 -0.2203  0.7158  0.4463
 9492TIP3    H249968   2.398   0.684   1.889  0.1767  1.4252  1.7639
 9493TIP3   OH249969   6.799   4.765  13.492  0.1506 -0.0559  0.5725
 9493TIP3    H149970   6.717   4.765  13.542  1.1214 -1.4100  2.2232
 9493TIP3    H249971   6.773   4.732  13.405 -1.2061  0.3799  0.7971
 9494TIP3   OH249972   3.697   2.691  13.295  0.4822  0.5734 -0.5510
 9494TIP3    H149973   3.766   2.758  13.289  0.5293  0.8134  2.0181
 9494TIP3    H249974   3.745   2.609  13.296  0.9295  0.8161  3.2203
 9495TIP3   OH249975   6.542   4.360  14.997  0.3991 -0.1753 -0.2211
 9495TIP3    H149976   6.530   4.428  15.063  1.1036 -1.4848  1.2758
 9495TIP3    H249977   6.524   4.404  14.914  1.5185  2.0096  0.6583
 9496TIP3   OH249978   4.158   5.624   2.101 -0.2612 -0.0854  0.5893
 9496TIP3    H149979   4.203   5.676   2.167 -1.0027  2.7144 -1.0600
 9496TIP3    H249980   4.227   5.571   2.061  1.1620  2.3027 -0.1886
 9497TIP3   OH249981   5.222   5.425  15.640 -0.1210  0.1245  0.4629
 9497TIP3    H149982   5.255   5.461  15.722 -0.9545 -0.8402  1.2405
 9497TIP3    H249983   5.179   5.343  15.666 -0.5628 -0.0866 -0.9086
 9498TIP3   OH249984   3.062   4.066  14.012  0.1909 -0.1054 -0.4594
 9498TIP3    H149985   3.083   4.155  14.041  0.8621 -0.1853 -0.6731
 9498TIP3    H249986   3.003   4.078  13.938  0.0884  0.1567 -0.3350
 9499TIP3   OH249987   6.245   3.398  17.045 -0.1637 -0.7240  0.0976
 9499TIP3    H149988   6.223   3.397  17.139  0.2489 -0.3238  0.1991
 9499TIP3    H249989   6.169   3.358  17.003 -0.3667 -0.8813  0.5994
 9500TIP3   OH249990   0.613   5.902   5.877 -0.0925  0.0395  0.1998
 9500TIP3    H149991   0.631   5.824   5.825 -2.2172 -1.1375  1.1490
 9500TIP3    H249992   0.641   5.975   5.822  0.4552 -1.3044 -1.3454
 9501TIP3   OH249993   1.429   2.185  14.944 -0.8178  0.2494 -0.0953
 9501TIP3    H149994   1.413   2.179  15.038 -0.7213  1.1382 -0.0215
 9501TIP3    H249995   1.378   2.261  14.916 -1.8048 -0.7151 -0.9701
 9502TIP3   OH249996   0.533   0.548  14.313 -0.7519 -0.8019  0.5079
 9502TIP3    H149997   0.571   0.583  14.233  1.7123 -3.4108  0.4725
 9502TIP3    H249998   0.442   0.580  14.312  0.3098  2.3931 -1.3269
 9503TIP3   OH249999   4.007   2.684   1.712 -0.0812  0.2589 -0.0738
 9503TIP3    H150000   4.019   2.652   1.622  2.6679  1.4760 -0.1678
 9503TIP3    H250001   4.006   2.605   1.766  1.5669 -0.2914 -0.8357
 9504TIP3   OH250002   3.187   4.903  11.523 -0.2873  0.1582 -0.3152
 9504TIP3    H150003   3.124   4.851  11.475 -0.1987  0.0030 -0.2649
 9504TIP3    H250004   3.137   4.979  11.554 -0.5798 -0.2329  0.1866
 9505TIP3   OH250005   0.412   0.607  15.214 -0.9004 -0.1375  0.1225
 9505TIP3    H150006   0.348   0.570  15.153 -0.9557 -1.7046  1.0867
 9505TIP3    H250007   0.365   0.610  15.298  0.2359 -1.2068  0.8172
 9506TIP3   OH250008   0.121   0.743  14.659  0.0512 -0.0433  0.4267
 9506TIP3    H150009   0.149   0.734  14.750 -1.3414 -0.6280  0.8173
 9506TIP3    H250010   0.136   0.656  14.621  0.0724  0.0360  0.2521
 9507TIP3   OH250011   0.830   1.507  16.108 -0.4288  0.3874  0.4456
 9507TIP3    H150012   0.754   1.566  16.111 -1.6924 -1.1843  0.5604
 9507TIP3    H250013   0.906   1.564  16.120 -1.6775  1.8431  1.6783
 9508TIP3   OH250014   4.090   6.307   3.358 -0.1168 -0.3266  0.1856
 9508TIP3    H150015   4.163   6.306   3.420  0.3180  0.5276 -0.2973
 9508TIP3    H250016   4.040   6.228   3.377  0.7371 -0.7277  0.7631
 9509TIP3   OH250017   0.034   0.357  13.933  0.2118  0.4050 -0.0385
 9509TIP3    H150018   0.010   0.268  13.962 -1.4091  0.6978 -0.4057
 9509TIP3    H250019   0.023   0.411  14.011  1.2573  0.2876  0.1997
 9510TIP3   OH250020   2.187   2.673  13.551 -0.4479  0.2314  0.0923
 9510TIP3    H150021   2.232   2.636  13.627 -1.5611 -1.1699  0.0883
 9510TIP3    H250022   2.252   2.671  13.481 -0.3767 -1.4271  0.1868
 9511TIP3   OH250023   5.595   5.860  15.410 -0.0669 -0.2934 -0.2091
 9511TIP3    H150024   5.675   5.853  15.462  0.6215  0.4310 -1.1387
 9511TIP3    H250025   5.546   5.932  15.450 -0.5533 -1.1737  0.7612
 9512TIP3   OH250026   6.026   3.611  14.277 -0.2752 -0.2572 -0.6731
 9512TIP3    H150027   6.003   3.527  14.317  1.0535 -0.0140  0.6287
 9512TIP3    H250028   6.079   3.586  14.200  0.7576 -0.6052  0.1346
 9513TIP3   OH250029   2.761   5.358   1.583 -0.4463  0.2605 -0.6674
 9513TIP3    H150030   2.850   5.354   1.547 -1.1717  0.7305 -2.5350
 9513TIP3    H250031   2.768   5.420   1.655  0.7777  0.1625 -0.6845
 9514TIP3   OH250032   6.254   0.298  11.941  0.0970 -0.1551 -0.5222
 9514TIP3    H150033   6.328   0.329  11.993 -0.7081  0.4301  0.2954
 9514TIP3    H250034   6.247   0.361  11.869 -0.3226  0.4532  0.0462
 9515TIP3   OH250035   4.271   2.459   3.620 -0.0534  0.3592  0.1222
 9515TIP3    H150036   4.246   2.408   3.697 -1.2115  1.4032  0.4573
 9515TIP3    H250037   4.190   2.504   3.594  0.3692  0.1799 -1.5855
 9516TIP3   OH250038   4.573   1.319  15.775 -0.3749 -0.2008  0.0676
 9516TIP3    H150039   4.563   1.278  15.861  0.9156  1.4631  1.0408
 9516TIP3    H250040   4.593   1.246  15.717 -2.0528 -1.4543  1.0090
 9517TIP3   OH250041   4.778   0.860  11.900  0.1045 -0.1626 -0.2744
 9517TIP3    H150042   4.790   0.934  11.960  0.6363 -1.3537  1.1199
 9517TIP3    H250043   4.729   0.796  11.951 -1.3474 -0.3249 -1.8519
 9518TIP3   OH250044   3.387   3.033  11.846  0.2444  0.1358  0.5919
 9518TIP3    H150045   3.337   2.965  11.801 -2.2189  1.9032  0.5321
 9518TIP3    H250046   3.377   3.111  11.790  0.6567  1.2771  2.0730
 9519TIP3   OH250047   5.027   0.075   3.270 -0.1056 -0.4945 -0.2661
 9519TIP3    H150048   5.021   0.056   3.364  0.0927 -0.9655 -0.3484
 9519TIP3    H250049   5.087   0.150   3.265 -1.9871  1.0700  0.1642
 9520TIP3   OH250050   0.299   6.408   1.646  0.0370 -0.2189 -0.0919
 9520TIP3    H150051   0.296   6.467   1.721  2.8491 -0.1597  0.0055
 9520TIP3    H250052   0.279   6.463   1.571  0.0099  0.3026  0.2964
 9521TIP3   OH250053   5.017   4.561   1.224 -0.2082 -0.1308  0.3074
 9521TIP3    H150054   4.993   4.477   1.263 -0.0760 -0.3091  0.0013
 9521TIP3    H250055   4.940   4.588   1.175 -1.6751  1.7502  3.4600
 9522TIP3   OH250056   3.348   6.408  17.018 -0.2903 -1.0233  0.5274
 9522TIP3    H150057   3.301   6.386  17.099 -1.0876  0.7122  0.5589
 9522TIP3    H250058   3.285   6.458  16.967  1.6569  1.7708  0.7659
 9523TIP3   OH250059   3.567   3.249  11.199  0.3951  0.7339 -0.2558
 9523TIP3    H150060   3.624   3.175  11.223 -0.4065 -0.4557 -1.9655
 9523TIP3    H250061   3.614   3.292  11.128 -0.2771  0.4465 -0.8731
 9524TIP3   OH250062   2.604   5.300  15.451  0.1840 -0.5260  0.4286
 9524TIP3    H150063   2.558   5.216  15.456 -1.2720  0.3465  2.2994
 9524TIP3    H250064   2.556   5.358  15.510  0.3715  2.0310 -1.8094
 9525TIP3   OH250065   2.652   4.587  10.362 -0.1616  0.2181  0.1941
 9525TIP3    H150066   2.627   4.677  10.381 -1.7121 -0.2773  0.5964
 9525TIP3    H250067   2.670   4.586  10.268  0.4824  1.0815  0.3084
 9526TIP3   OH250068   1.699   0.073  14.909  0.6579 -0.7424 -0.3744
 9526TIP3    H150069   1.761   0.146  14.905  0.2424 -0.2362  2.0917
 9526TIP3    H250070   1.752  -0.005  14.891  1.5966 -0.1109 -0.3452
 9527TIP3   OH250071   4.220   2.347   3.881  0.4525 -0.1378 -0.6203
 9527TIP3    H150072   4.200   2.274   3.822 -0.4918 -0.5232  0.1660
 9527TIP3    H250073   4.182   2.321   3.965  0.3632  1.1308 -0.2613
 9528TIP3   OH250074   4.866   3.839   3.170  0.3669 -0.2424 -0.6301
 9528TIP3    H150075   4.908   3.758   3.199  0.1397  0.0847  0.6255
 9528TIP3    H250076   4.878   3.839   3.075 -0.3517 -2.1426 -0.7356
 9529TIP3   OH250077   5.503   0.106   1.426  0.4993  0.1405  0.1508
 9529TIP3    H150078   5.493   0.146   1.340  1.1813 -1.6187 -0.7891
 9529TIP3    H250079   5.435   0.146   1.480 -0.4848  0.6518 -1.4309
 9530TIP3   OH250080   2.393   3.538   4.114 -0.5615  0.0600 -0.1552
 9530TIP3    H150081   2.395   3.596   4.191 -0.5609 -0.5014  0.2662
 9530TIP3    H250082   2.348   3.590   4.047 -0.5906  0.5400  0.2290
 9531TIP3   OH250083   0.091   1.645   0.912  0.4024  0.7413 -0.0730
 9531TIP3    H150084   0.087   1.624   0.819 -0.1497  1.3457 -0.1896
 9531TIP3    H250085   0.157   1.713   0.919  0.9499  0.1957  0.0723
 9532TIP3   OH250086   4.085   0.529  11.023 -0.1376 -0.1239 -0.3592
 9532TIP3    H150087   4.174   0.535  10.987 -0.7982 -0.4107 -2.0991
 9532TIP3    H250088   4.052   0.619  11.021  0.3546  0.0975  0.9636
 9533TIP3   OH250089   2.233   3.054  13.754  0.3207  0.5716  0.0352
 9533TIP3    H150090   2.322   3.089  13.742  1.0745 -1.4426 -0.4695
 9533TIP3    H250091   2.232   3.022  13.844 -0.0564  1.0078  0.1886
 9534TIP3   OH250092   0.134   1.098  12.190 -0.2602 -0.3356  0.3137
 9534TIP3    H150093   0.130   1.153  12.111  1.0367 -1.3908 -0.4976
 9534TIP3    H250094   0.048   1.055  12.194 -0.6534  0.4062 -0.0139
 9535TIP3   OH250095   5.504   3.033  11.931 -0.3778  0.2233 -0.0713
 9535TIP3    H150096   5.597   3.056  11.934  0.0401 -1.1240 -1.8610
 9535TIP3    H250097   5.466   3.094  11.867 -0.1872 -0.8926 -1.2832
 9536TIP3   OH250098   5.357   4.809   0.707 -0.1677 -0.2309  0.5970
 9536TIP3    H150099   5.290   4.762   0.658 -0.2709  0.3017  0.2162
 9536TIP3    H250100   5.325   4.899   0.711  0.8369  0.1630 -0.1437
 9537TIP3   OH250101   3.552   0.592  15.906  0.3856  0.3747  0.0641
 9537TIP3    H150102   3.548   0.521  15.970 -2.4767  1.2019  0.8961
 9537TIP3    H250103   3.587   0.552  15.827  2.1327 -1.1109  1.5620
 9538TIP3   OH250104   4.780   4.606   1.097 -0.4273  0.0189  0.1523
 9538TIP3    H150105   4.707   4.650   1.142 -1.4219 -1.9162  0.4546
 9538TIP3    H250106   4.765   4.625   1.005 -1.0718  0.0116  0.2478
 9539TIP3   OH250107   5.498   5.684   4.230  0.3054  0.2178  0.2854
 9539TIP3    H150108   5.532   5.595   4.233 -0.1409  0.0559  0.6178
 9539TIP3    H250109   5.418   5.682   4.283 -0.8470  0.3024 -1.3707
 9540TIP3   OH250110   4.578   2.079   1.211 -0.4111  0.8361  0.1958
 9540TIP3    H150111   4.521   2.002   1.210 -0.0026  0.5329 -0.6162
 9540TIP3    H250112   4.533   2.143   1.155 -1.1080  1.4623  1.4497
 9541TIP3   OH250113   1.892   2.714   4.166  0.0508 -0.0762  0.5125
 9541TIP3    H150114   1.942   2.757   4.235  0.2647 -0.1830  0.4262
 9541TIP3    H250115   1.834   2.781   4.132  0.4856  0.1838  0.2796
 9542TIP3   OH250116   3.138   5.340   4.038 -0.3680 -0.1190  0.3117
 9542TIP3    H150117   3.192   5.269   4.071 -1.5437 -0.6714  1.0769
 9542TIP3    H250118   3.100   5.306   3.957 -0.6858 -0.2616  0.5172
 9543TIP3   OH250119   2.075   5.742   6.359  0.2763  0.0931  0.5912
 9543TIP3    H150120   2.159   5.781   6.385  0.5871 -0.2952  0.1678
 9543TIP3    H250121   2.079   5.652   6.390  0.9135 -0.5692 -1.3300
 9544TIP3   OH250122   6.644   5.906   0.027 -0.3577  0.4102 -0.1289
 9544TIP3    H150123   6.645   5.909  -0.069 -2.7565 -2.7414 -0.3361
 9544TIP3    H250124   6.640   5.813   0.048  0.1155  1.0455  3.0609
 9545TIP3   OH250125   5.469   6.717   6.022  0.1916  0.3111 -0.7997
 9545TIP3    H150126   5.500   6.635   5.983  0.1377  0.2350 -0.6820
 9545TIP3    H250127   5.479   6.782   5.952  1.1372  0.4006 -0.5957
 9546TIP3   OH250128   0.224   1.177   1.632  0.6760  0.3503  0.0077
 9546TIP3    H150129   0.291   1.128   1.679 -1.0245  0.2809  2.4212
 9546TIP3    H250130   0.141   1.134   1.655 -0.5842  2.7458  0.1125
 9547TIP3   OH250131   2.724   6.205   3.216 -0.0170  0.0835 -0.4651
 9547TIP3    H150132   2.646   6.259   3.227 -0.2158 -0.3871  0.4039
 9547TIP3    H250133   2.735   6.199   3.121 -0.2078  1.3441 -0.5792
 9548TIP3   OH250134   5.257   4.247   1.661  0.1108 -0.3050 -0.1669
 9548TIP3    H150135   5.285   4.179   1.724  0.3402 -0.0211  0.0423
 9548TIP3    H250136   5.184   4.208   1.615 -0.8990 -0.0358  1.1756
 9549TIP3   OH250137   5.392   2.301  12.082  0.3931 -0.4820  0.5754
 9549TIP3    H150138   5.423   2.212  12.068 -0.9221 -0.9338  0.4878
 9549TIP3    H250139   5.420   2.349  12.004  0.8983 -0.8719  0.5179
 9550TIP3   OH250140   4.626   0.843  12.175 -0.0095 -0.0176  0.2419
 9550TIP3    H150141   4.646   0.753  12.148  0.3863  0.2346 -0.3096
 9550TIP3    H250142   4.641   0.843  12.269  2.2567  0.0671 -0.1064
 9551TIP3   OH250143   4.254   4.820   3.565  0.2313  0.5474  0.3158
 9551TIP3    H150144   4.336   4.855   3.599  0.6348  0.1038 -0.1887
 9551TIP3    H250145   4.194   4.823   3.639  0.9929 -0.0658  0.9686
 9552TIP3   OH250146   1.722   6.318  12.103 -0.3905 -0.1616  0.6405
 9552TIP3    H150147   1.796   6.352  12.153 -0.4774  0.5621  0.2818
 9552TIP3    H250148   1.722   6.369  12.022 -1.6670  0.2828  0.9043
 9553TIP3   OH250149   4.611   1.872  12.580  0.0793  0.3584  0.3028
 9553TIP3    H150150   4.615   1.940  12.513  3.0102  0.5325  0.6019
 9553TIP3    H250151   4.570   1.915  12.655 -2.4377  0.3987 -1.0563
 9554TIP3   OH250152   5.219   2.073   3.252 -0.4975 -0.1244 -0.2483
 9554TIP3    H150153   5.250   2.160   3.230 -0.5241 -0.6843 -2.6922
 9554TIP3    H250154   5.136   2.064   3.204 -0.6646 -1.3580  0.2357
 9555TIP3   OH250155   1.759   0.334  14.527 -0.2789  0.3174 -0.6682
 9555TIP3    H150156   1.854   0.341  14.537 -0.3085  1.6633 -1.1307
 9555TIP3    H250157   1.724   0.383  14.601 -0.5780  1.9168 -1.8450
 9556TIP3   OH250158   2.246   6.287   4.039  0.0730  0.0966 -0.6440
 9556TIP3    H150159   2.206   6.231   4.106  0.4458 -0.0516 -0.5430
 9556TIP3    H250160   2.187   6.362   4.031  1.1624  1.1965  1.4193
 9557TIP3   OH250161   4.435   6.320  13.562 -0.3568 -0.1330  0.7272
 9557TIP3    H150162   4.346   6.284  13.569 -0.5484  0.4454  1.2758
 9557TIP3    H250163   4.434   6.367  13.478  0.1406 -2.0633 -0.3872
 9558TIP3   OH250164   3.745   5.332   3.648 -0.4904  0.1148  0.3487
 9558TIP3    H150165   3.701   5.417   3.649 -0.9735 -0.1299  0.1689
 9558TIP3    H250166   3.812   5.339   3.715  0.0097  0.9278 -0.2200
 9559TIP3   OH250167   6.467   0.050  13.923  0.0131  0.3900  0.3003
 9559TIP3    H150168   6.525  -0.014  13.882 -1.1534 -1.5195  1.5163
 9559TIP3    H250169   6.442   0.108  13.852  0.5316 -0.9484 -1.0167
 9560TIP3   OH250170   5.003   1.067  11.483 -0.0765  0.2379 -0.4024
 9560TIP3    H150171   5.088   1.022  11.483 -0.5556 -0.6831 -0.9505
 9560TIP3    H250172   4.948   1.012  11.539 -1.1069 -0.7266 -2.3081
 9561TIP3   OH250173   4.358   5.295   4.336 -0.3802 -0.3601  0.1778
 9561TIP3    H150174   4.267   5.322   4.328 -0.0597  0.5577 -0.5807
 9561TIP3    H250175   4.374   5.242   4.257  0.1144  0.6500 -0.4219
 9562TIP3   OH250176   2.038   3.652   5.958 -0.4492 -0.1167  0.0997
 9562TIP3    H150177   2.102   3.711   5.996 -0.7841  0.6220 -0.4585
 9562TIP3    H250178   2.026   3.582   6.023  1.7416 -0.8655 -0.2787
 9563TIP3   OH250179   6.506   1.004  16.949  0.2443  0.7036  0.0920
 9563TIP3    H150180   6.453   1.050  17.015  1.0515  0.6842  0.7577
 9563TIP3    H250181   6.485   1.048  16.867  0.7223  2.0091  0.6594
 9564TIP3   OH250182   0.223   4.440  11.270 -0.0429  0.0621  0.0036
 9564TIP3    H150183   0.181   4.442  11.184  0.5002  0.3606 -0.2571
 9564TIP3    H250184   0.302   4.388  11.257  0.4702  0.8058  0.1245
 9565TIP3   OH250185   3.836   3.245   4.295  0.1005 -0.4676 -0.1701
 9565TIP3    H150186   3.931   3.231   4.298  0.2297  0.1343 -0.9682
 9565TIP3    H250187   3.798   3.159   4.310  0.7434 -0.4182  1.8657
 9566TIP3   OH250188   0.031   0.132  12.280 -0.0367  0.2653 -0.4300
 9566TIP3    H150189   0.099   0.182  12.323 -1.0640  1.7213 -0.4824
 9566TIP3    H250190   0.065   0.117  12.191 -0.1453  1.7174 -0.7239
 9567TIP3   OH250191   4.625   5.159  16.241  0.3338 -0.0611  0.2618
 9567TIP3    H150192   4.688   5.090  16.265  0.1615 -0.4522 -0.3831
 9567TIP3    H250193   4.569   5.168  16.317  0.3818 -0.6166  0.3633
 9568TIP3   OH250194   3.554   2.049  14.388  0.0403  0.0778 -0.0585
 9568TIP3    H150195   3.556   2.145  14.399 -0.2343  0.1477 -0.6166
 9568TIP3    H250196   3.468   2.023  14.420  0.4723 -0.1059  1.0095
 9569TIP3   OH250197   1.910   6.276   1.978 -0.1385 -0.3136 -0.0528
 9569TIP3    H150198   1.950   6.361   1.959 -0.2721 -0.6175 -1.7953
 9569TIP3    H250199   1.985   6.216   1.983 -0.2254 -0.5319 -1.3260
 9570TIP3   OH250200   3.932   2.121  17.196  0.5165  0.4317  0.4382
 9570TIP3    H150201   3.874   2.045  17.185  1.8332 -0.4813 -0.2758
 9570TIP3    H250202   3.894   2.188  17.139 -0.1180  0.0029  0.3462
 9571TIP3   OH250203   1.779   4.952   5.941  0.2919 -0.1863 -0.4199
 9571TIP3    H150204   1.840   4.903   5.996 -1.1804  0.7570  2.1816
 9571TIP3    H250205   1.749   4.889   5.876  0.0445 -2.1766  1.5379
 9572TIP3   OH250206   0.408   5.169  17.290 -0.1509 -0.2100 -0.6391
 9572TIP3    H150207   0.392   5.257  17.256 -2.3029 -0.1379  0.5156
 9572TIP3    H250208   0.348   5.113  17.241 -0.5224 -0.6809  0.3556
 9573TIP3   OH250209   6.641   5.484   2.820 -0.0156 -0.1012  0.5855
 9573TIP3    H150210   6.608   5.528   2.898  2.1658  3.7494 -0.5438
 9573TIP3    H250211   6.570   5.493   2.756  0.4269  1.8662  0.3517
 9574TIP3   OH250212   6.632   6.415  16.229 -0.1384 -0.4320 -0.1257
 9574TIP3    H150213   6.593   6.336  16.191  1.5411 -1.4490  0.1566
 9574TIP3    H250214   6.684   6.452  16.158 -0.7480  0.3005 -0.1891
 9575TIP3   OH250215   3.433   1.749  10.726 -0.1501  0.6704 -0.3936
 9575TIP3    H150216   3.363   1.813  10.731 -2.1876 -1.5655  0.3880
 9575TIP3    H250217   3.397   1.670  10.765  2.1497 -1.1082 -1.7178
 9576TIP3   OH250218   0.590   4.036   4.131  0.0749  0.4007  0.4690
 9576TIP3    H150219   0.557   4.027   4.042 -1.5455  0.5229  1.0406
 9576TIP3    H250220   0.666   3.977   4.135  0.4410  0.7429 -1.1058
 9577TIP3   OH250221   2.668   4.256   1.748 -0.0589 -0.2271  0.2660
 9577TIP3    H150222   2.658   4.344   1.712 -0.3657 -0.5479 -0.4386
 9577TIP3    H250223   2.695   4.203   1.673  0.2685 -0.7035  0.7201
 9578TIP3   OH250224   5.378   5.159  15.808  0.1075 -0.3347  0.2660
 9578TIP3    H150225   5.322   5.146  15.732 -2.4457  2.2710  1.5978
 9578TIP3    H250226   5.415   5.072  15.826 -2.3480 -1.8188 -1.5493
 9579TIP3   OH250227   1.752   2.098   3.345 -0.3432 -0.1488  0.4550
 9579TIP3    H150228   1.830   2.120   3.294 -0.8035 -3.2585 -1.6695
 9579TIP3    H250229   1.687   2.163   3.318  0.2688 -0.0323 -0.7665
 9580TIP3   OH250230   6.797   5.243   6.239 -0.1694  0.1616  0.3053
 9580TIP3    H150231   6.834   5.163   6.276 -0.6352  0.1555  0.7683
 9580TIP3    H250232   6.754   5.286   6.313 -0.2525  0.6476 -0.0225
 9581TIP3   OH250233   3.652   5.863  17.108 -0.8563  0.6387 -0.2045
 9581TIP3    H150234   3.715   5.935  17.105 -1.2602  1.0374  0.6052
 9581TIP3    H250235   3.588   5.885  17.040 -1.5945  1.6424  0.7866
 9582TIP3   OH250236   3.073   4.378   2.072 -0.1319 -0.2010 -0.4081
 9582TIP3    H150237   3.121   4.423   2.141  0.7212  0.2905 -1.3096
 9582TIP3    H250238   3.076   4.285   2.098  1.5256 -0.2065 -0.5730
 9583TIP3   OH250239   1.698   0.433   5.776 -0.2556 -0.4441  0.4739
 9583TIP3    H150240   1.635   0.460   5.710  0.5621  0.4999  0.0710
 9583TIP3    H250241   1.685   0.494   5.848 -0.5452 -0.9289  0.8351
 9584TIP3   OH250242   3.960   6.387  17.129  0.1076 -0.0489  0.4138
 9584TIP3    H150243   3.988   6.462  17.182  0.6665 -1.7080  2.5536
 9584TIP3    H250244   4.033   6.325  17.134 -0.4319 -0.8276 -1.1402
 9585TIP3   OH250245   5.453   2.802   0.350 -0.0834  0.2572  0.0222
 9585TIP3    H150246   5.487   2.847   0.428  1.0016 -0.0489 -0.2696
 9585TIP3    H250247   5.528   2.796   0.291 -1.3822  2.3305 -1.9264
 9586TIP3   OH250248   5.044   5.545   3.033  0.5126 -0.0879  0.5389
 9586TIP3    H150249   5.066   5.573   3.122  0.0936 -0.1360  0.6543
 9586TIP3    H250250   4.956   5.578   3.018  0.8829  0.6027 -0.1490
 9587TIP3   OH250251   3.987   1.455  13.760  0.3664  0.0349 -0.2468
 9587TIP3    H150252   4.006   1.481  13.850  1.4920  0.0364 -0.4753
 9587TIP3    H250253   4.072   1.457  13.716 -0.0527 -0.7189 -1.1164
 9588TIP3   OH250254   3.367   1.820   5.525 -1.0120  0.0579 -0.1948
 9588TIP3    H150255   3.416   1.789   5.449 -1.5912 -1.1681 -0.0826
 9588TIP3    H250256   3.425   1.884   5.567  0.2153 -0.8824 -0.4261
 9589TIP3   OH250257   4.121   4.123  16.880  0.2684  0.7302  0.7519
 9589TIP3    H150258   4.213   4.140  16.899  0.8679 -0.9348 -0.5333
 9589TIP3    H250259   4.120   4.099  16.788 -1.1639 -1.3211  1.2788
 9590TIP3   OH250260   4.173   0.973  16.168  0.7636  0.4016  0.3361
 9590TIP3    H150261   4.123   1.046  16.130 -0.5798 -0.4031  0.5284
 9590TIP3    H250262   4.180   0.909  16.097  3.0863  1.2466 -0.2416
 9591TIP3   OH250263   3.224   0.520   5.323 -0.7694  0.3996 -0.6822
 9591TIP3    H150264   3.263   0.586   5.266 -0.7004  1.0882  0.1597
 9591TIP3    H250265   3.150   0.564   5.364 -1.0593 -0.2148 -0.5415
 9592TIP3   OH250266   3.283   6.721   5.813 -0.8669  0.1087 -0.3420
 9592TIP3    H150267   3.273   6.761   5.726  0.8170  0.1591 -0.5228
 9592TIP3    H250268   3.375   6.697   5.818 -1.7865 -3.7414 -0.2434
 9593TIP3   OH250269   4.035   6.658  13.633 -0.2110  0.0157  0.5249
 9593TIP3    H150270   4.066   6.713  13.562  1.6641 -0.5590  0.8637
 9593TIP3    H250271   3.967   6.604  13.594 -1.3673  1.8433 -0.0479
 9594TIP3   OH250272   2.242   5.025  16.721  0.1934 -0.4215  0.2414
 9594TIP3    H150273   2.179   4.953  16.716 -0.6315  0.4181 -2.1211
 9594TIP3    H250274   2.188   5.104  16.727  0.9508  0.3635 -2.6617
 9595TIP3   OH250275   1.804   6.510   2.379 -0.3405  0.0002  0.2339
 9595TIP3    H150276   1.819   6.442   2.314  1.7807  0.0688  0.6278
 9595TIP3    H250277   1.824   6.592   2.333  1.2447  0.0423  0.9598
 9596TIP3   OH250278   5.182   4.743  14.029  0.1998  0.3504  0.2663
 9596TIP3    H150279   5.137   4.663  14.055 -1.2896  0.7549 -0.9821
 9596TIP3    H250280   5.169   4.803  14.103 -0.3520  0.0803  0.3905
 9597TIP3   OH250281   2.003   2.159   3.556 -0.1524 -0.0064 -0.3305
 9597TIP3    H150282   2.043   2.229   3.504  1.6879  0.5304  1.7452
 9597TIP3    H250283   1.989   2.088   3.493 -0.1839  1.4802 -2.0470
 9598TIP3   OH250284   1.013   3.425   5.293 -0.6779 -0.4166 -0.1200
 9598TIP3    H150285   1.086   3.397   5.238 -1.0964 -0.0121 -0.8866
 9598TIP3    H250286   0.970   3.343   5.319  0.6089 -0.7084  1.1213
 9599TIP3   OH250287   3.202   1.938   5.095  0.0901  0.0109 -0.6977
 9599TIP3    H150288   3.285   1.903   5.064 -0.5196 -1.6381 -0.4985
 9599TIP3    H250289   3.201   1.918   5.188 -0.0793  0.9771 -0.4801
 9600TIP3   OH250290   0.703   5.440   2.931  0.0484 -0.4950 -0.8188
 9600TIP3    H150291   0.708   5.385   2.853 -1.5209 -0.9695 -0.5932
 9600TIP3    H250292   0.710   5.530   2.898 -2.5113 -0.5939 -1.7214
 9601TIP3   OH250293   5.969   0.428   2.577 -0.0810  0.1351 -0.6703
 9601TIP3    H150294   6.037   0.373   2.538  1.5544  0.1195  2.1062
 9601TIP3    H250295   5.989   0.517   2.547 -0.7944 -0.2847 -2.4795
 9602TIP3   OH250296   0.063   5.646  13.617 -1.0194  0.2916  0.1491
 9602TIP3    H150297   0.098   5.557  13.625 -0.1743  0.5338 -0.7049
 9602TIP3    H250298   0.104   5.694  13.689 -0.6828  0.2292  0.0024
 9603TIP3   OH250299   0.158   5.771  13.385 -0.7569 -0.0882 -0.5985
 9603TIP3    H150300   0.117   5.720  13.456  0.2304 -0.4362 -0.2681
 9603TIP3    H250301   0.123   5.859  13.396  0.7082  0.2795  1.4139
 9604TIP3   OH250302   0.044   3.364  16.513 -0.1689 -0.6203  0.2443
 9604TIP3    H150303   0.058   3.415  16.433 -0.5332 -1.8417 -0.5994
 9604TIP3    H250304   0.130   3.326  16.533  0.5615  1.7493  1.9005
 9605TIP3   OH250305   6.483   1.711   1.361 -0.0795 -0.5395 -0.1067
 9605TIP3    H150306   6.558   1.663   1.325  0.7708  0.3524  0.4718
 9605TIP3    H250307   6.499   1.714   1.455 -0.5112  0.2259 -0.0584
 9606TIP3   OH250308   2.309   1.020  16.214 -0.0567  0.2472  0.7237
 9606TIP3    H150309   2.399   1.050  16.227  0.2986 -0.3743 -0.2163
 9606TIP3    H250310   2.295   1.027  16.119 -0.1831 -1.9322  0.5586
 9607TIP3   OH250311   2.556   2.273   5.523  0.2374 -0.0491  0.2016
 9607TIP3    H150312   2.607   2.243   5.598  0.8592 -2.5580 -1.1515
 9607TIP3    H250313   2.606   2.347   5.489  0.5571  0.3812  1.5706
 9608TIP3   OH250314   3.385   2.558  12.502 -0.2761  0.5613 -0.0394
 9608TIP3    H150315   3.443   2.482  12.496 -0.4398  0.5353 -1.7236
 9608TIP3    H250316   3.437   2.631  12.466 -0.6963  0.8860 -0.0018
 9609TIP3   OH250317   6.672   3.004  12.336  0.3329  0.0296 -0.0094
 9609TIP3    H150318   6.713   2.930  12.293 -1.6477  0.6486 -3.1386
 9609TIP3    H250319   6.733   3.076  12.324  1.0913 -0.4695  0.7884
 9610TIP3   OH250320   4.142   1.229   3.677 -0.3476 -0.3598  0.4640
 9610TIP3    H150321   4.062   1.213   3.627  0.0607  3.2932 -1.4780
 9610TIP3    H250322   4.114   1.225   3.769 -1.8520 -3.3128 -0.0553
 9611TIP3   OH250323   4.827   1.398  12.256 -0.5861 -0.0682 -0.0779
 9611TIP3    H150324   4.842   1.358  12.171 -1.4488  0.3198 -0.4190
 9611TIP3    H250325   4.805   1.489  12.236  3.2980  1.1768  0.7587
 9612TIP3   OH250326   5.123   2.227  12.694  0.1595 -0.2204  0.6545
 9612TIP3    H150327   5.144   2.186  12.610  0.7590  1.5947 -0.1143
 9612TIP3    H250328   5.128   2.156  12.757 -0.9919 -1.7737 -0.9309
 9613TIP3   OH250329   6.073   6.524   1.477 -0.0381  0.7193 -0.1938
 9613TIP3    H150330   6.136   6.561   1.539  0.0651 -0.5756  0.4936
 9613TIP3    H250331   6.101   6.433   1.466 -1.8372  0.0992  0.1755
 9614TIP3   OH250332   4.610   1.924  12.002 -0.4278 -0.4512 -0.2987
 9614TIP3    H150333   4.558   2.004  12.012 -0.1452 -0.1173 -1.4338
 9614TIP3    H250334   4.585   1.870  12.077 -2.0500 -0.0959 -0.5701
 9615TIP3   OH250335   1.417   5.244   1.613  0.1993 -0.2574  0.0146
 9615TIP3    H150336   1.472   5.292   1.551  2.3053 -0.7470  1.4546
 9615TIP3    H250337   1.400   5.160   1.569  1.1902 -0.3760 -0.1558
 9616TIP3   OH250338   6.380   2.450  14.265 -0.2306  0.0033 -0.1584
 9616TIP3    H150339   6.457   2.401  14.293 -0.0444  0.4368  0.0899
 9616TIP3    H250340   6.326   2.386  14.218 -1.4682 -1.2276  2.8415
 9617TIP3   OH250341   2.265   6.710   5.231  0.3714  0.4667  0.3337
 9617TIP3    H150342   2.303   6.695   5.145  0.2891  1.2367  0.1619
 9617TIP3    H250343   2.277   6.804   5.247 -0.3473  0.4832  0.8071
 9618TIP3   OH250344   2.094   3.447   1.151  0.4522 -0.2216 -0.0710
 9618TIP3    H150345   2.071   3.357   1.129 -0.5600  0.0941 -0.3463
 9618TIP3    H250346   2.169   3.467   1.094  0.8017 -0.9422  0.1296
 9619TIP3   OH250347   3.430   0.725   1.936  0.3611  0.3152  0.6456
 9619TIP3    H150348   3.433   0.692   2.026  0.7726  1.9338  1.2439
 9619TIP3    H250349   3.510   0.692   1.896 -0.7282 -1.9918  0.2777
 9620TIP3   OH250350   0.775   2.345  16.935  0.2848  0.1603  0.1888
 9620TIP3    H150351   0.767   2.434  16.970  2.1567  1.1182 -1.6729
 9620TIP3    H250352   0.865   2.341  16.901 -0.0215 -2.2056 -0.4336
 9621TIP3   OH250353   5.114   2.686   2.142  0.4241  0.1656  0.2051
 9621TIP3    H150354   5.081   2.622   2.204 -2.2458  1.7794  0.5398
 9621TIP3    H250355   5.049   2.687   2.071  0.7290  2.0450 -0.0741
 9622TIP3   OH250356   6.049   1.070  14.787  0.8002  0.1761  0.5532
 9622TIP3    H150357   5.988   1.012  14.741  1.7719 -0.9769  0.6933
 9622TIP3    H250358   6.048   1.151  14.736 -0.3394 -0.0644  0.1719
 9623TIP3   OH250359   6.667   5.726   4.139  0.1789 -0.2015 -0.7383
 9623TIP3    H150360   6.640   5.635   4.152  0.3019 -0.3814 -1.7025
 9623TIP3    H250361   6.702   5.728   4.049 -2.5884  1.4332 -1.8495
 9624TIP3   OH250362   2.233   0.192   5.182  0.6166 -0.1211  0.0642
 9624TIP3    H150363   2.249   0.256   5.251  2.9147 -0.2281 -0.3314
 9624TIP3    H250364   2.268   0.233   5.103 -1.3624 -0.2866 -0.9192
 9625TIP3   OH250365   0.110   3.337   1.716  0.4660  0.7275 -0.1343
 9625TIP3    H150366   0.056   3.339   1.637 -0.5319 -0.6503  0.4987
 9625TIP3    H250367   0.146   3.425   1.722  0.6613  0.8094 -2.1991
 9626TIP3   OH250368   0.866   2.514  15.580  0.5839 -0.4362 -0.5781
 9626TIP3    H150369   0.794   2.526  15.642  1.6002  0.1105  0.5245
 9626TIP3    H250370   0.880   2.419  15.579  0.7501 -0.4252  0.2580
 9627TIP3   OH250371   6.099   4.540  16.864  0.6312 -0.4016  0.3875
 9627TIP3    H150372   6.160   4.589  16.919 -0.3331  0.1610  0.9563
 9627TIP3    H250373   6.125   4.561  16.774  0.5262  0.7692  0.6284
 9628TIP3   OH250374   4.673   1.732   5.347 -0.6659  0.4024  0.2402
 9628TIP3    H150375   4.763   1.761   5.365 -1.1392  0.4784  2.7053
 9628TIP3    H250376   4.654   1.670   5.417 -2.0546 -0.6744 -1.0836
 9629TIP3   OH250377   2.547   6.171  15.716 -0.4700  0.1729 -0.0760
 9629TIP3    H150378   2.511   6.123  15.791  0.0183  1.8508  1.2738
 9629TIP3    H250379   2.526   6.262  15.734  1.4267  0.8064 -0.9998
 9630TIP3   OH250380   3.690   5.530   1.846 -0.2672 -0.3838 -0.0227
 9630TIP3    H150381   3.618   5.467   1.843 -0.4600 -0.1636 -0.0405
 9630TIP3    H250382   3.768   5.477   1.864 -0.5450 -0.5264  0.7718
 9631TIP3   OH250383   0.338   1.176   5.143  0.4837 -0.3355 -0.3252
 9631TIP3    H150384   0.245   1.175   5.121  0.9403  0.4700 -2.4128
 9631TIP3    H250385   0.382   1.201   5.062  2.4326  0.7362  1.0091
 9632TIP3   OH250386   4.293   5.540   3.875  0.1776 -0.1951 -0.8250
 9632TIP3    H150387   4.221   5.582   3.828 -0.3131 -0.4695 -0.3308
 9632TIP3    H250388   4.257   5.457   3.905  1.2932 -1.1904 -2.1997
 9633TIP3   OH250389   3.810   4.555  12.750  0.5361 -0.2408  0.0622
 9633TIP3    H150390   3.808   4.622  12.681  0.7281 -0.4826 -0.1768
 9633TIP3    H250391   3.902   4.551  12.776  0.7547 -1.3680 -0.8504
 9634TIP3   OH250392   0.049   1.159  15.353 -0.8137  0.8489 -0.0181
 9634TIP3    H150393   0.006   1.073  15.350  0.0413  0.4589 -2.2847
 9634TIP3    H250394   0.033   1.191  15.442 -3.3556 -0.5116  0.0615
 9635TIP3   OH250395   5.323   5.609   2.202 -0.2713  0.2277  0.1768
 9635TIP3    H150396   5.248   5.662   2.176  0.2123  0.4432 -0.8219
 9635TIP3    H250397   5.306   5.585   2.293 -1.1302  0.9914  0.2204
 9636TIP3   OH250398   4.051   2.807  11.955 -0.4302  0.4233 -0.7017
 9636TIP3    H150399   4.071   2.885  12.007 -0.3232  0.2622 -0.5024
 9636TIP3    H250400   3.973   2.831  11.905 -1.5347 -0.0052  0.7973
 9637TIP3   OH250401   2.041   1.218  12.027 -0.0741  0.5844 -0.1117
 9637TIP3    H150402   2.016   1.232  11.936  0.8535  0.8671 -0.3237
 9637TIP3    H250403   2.053   1.123  12.034  1.0292  0.6783 -0.5966
 9638TIP3   OH250404   1.834   3.694   3.859 -0.3582 -0.2108 -0.8292
 9638TIP3    H150405   1.759   3.680   3.916  0.1181 -0.8710 -0.3430
 9638TIP3    H250406   1.806   3.661   3.774 -1.5738  2.1131 -1.3458
 9639TIP3   OH250407   2.163   1.097  16.787  0.0470  1.1014  0.5655
 9639TIP3    H150408   2.138   1.017  16.833 -0.6805  1.1555  0.2669
 9639TIP3    H250409   2.155   1.075  16.694 -2.6147  2.2656  0.4764
 9640TIP3   OH250410   5.927   3.429  13.648 -0.2468  0.1446 -0.1385
 9640TIP3    H150411   5.840   3.455  13.620  0.0823  0.3102 -1.0383
 9640TIP3    H250412   5.915   3.345  13.691 -0.5753 -0.9153 -2.2114
 9641TIP3   OH250413   1.810   5.657   6.524  0.3371  0.3362 -0.1621
 9641TIP3    H150414   1.879   5.670   6.589  0.1476 -1.6551  0.4709
 9641TIP3    H250415   1.825   5.568   6.491 -1.4344  0.1878 -0.5950
 9642TIP3   OH250416   5.875   1.543   0.297  0.8083  0.4075  0.1243
 9642TIP3    H150417   5.901   1.606   0.229 -2.5057 -0.0910 -1.7151
 9642TIP3    H250418   5.842   1.597   0.369  2.9289  0.8898  0.7763
 9643TIP3   OH250419   5.240   4.447  12.499 -0.2774  0.0555  0.7098
 9643TIP3    H150420   5.146   4.434  12.482 -0.1991 -0.2865  0.5337
 9643TIP3    H250421   5.268   4.367  12.542  0.6141 -1.1634 -2.0459
 9644TIP3   OH250422   3.087   3.096   0.172 -0.5770  0.3575  0.0277
 9644TIP3    H150423   3.171   3.070   0.209 -0.6492  0.8447  0.5410
 9644TIP3    H250424   3.022   3.045   0.220 -0.6058  0.3150 -0.0565
 9645TIP3   OH250425   4.301   1.753   3.574 -0.1633 -0.1555 -0.3166
 9645TIP3    H150426   4.286   1.662   3.602  0.8327 -0.1407  0.2863
 9645TIP3    H250427   4.329   1.798   3.653 -0.4839  0.6451 -0.6573
 9646TIP3   OH250428   3.315   6.257   6.485 -1.1960  0.8439 -0.0848
 9646TIP3    H150429   3.238   6.210   6.454 -1.4514  0.5231  1.0394
 9646TIP3    H250430   3.346   6.208   6.561 -0.8384  1.8808  0.4609
 9647TIP3   OH250431   6.395   1.510  11.765  0.3062  0.1826  0.5446
 9647TIP3    H150432   6.312   1.471  11.795 -0.4893  1.4861  0.0836
 9647TIP3    H250433   6.397   1.596  11.806  1.6778 -0.0273  0.9253
 9648TIP3   OH250434   6.402   6.151  15.113  0.0374 -0.5211  0.0998
 9648TIP3    H150435   6.345   6.115  15.045  0.2977  1.8789 -1.4654
 9648TIP3    H250436   6.476   6.188  15.066  1.3033 -0.7140  1.8803
 9649TIP3   OH250437   4.981   3.639  15.099 -0.1961 -0.0076 -0.1923
 9649TIP3    H150438   4.889   3.623  15.120 -0.1375 -1.1403 -0.7531
 9649TIP3    H250439   5.018   3.552  15.085  1.2245  0.3601  1.0891
 9650TIP3   OH250440   1.244   6.263   4.789 -0.2403 -0.0842 -0.0574
 9650TIP3    H150441   1.213   6.229   4.873 -0.2053 -0.0246 -0.0202
 9650TIP3    H250442   1.187   6.339   4.772  0.5881  0.6786  0.5369
 9651TIP3   OH250443   3.556   6.406  16.847 -0.2393  0.2284 -0.3670
 9651TIP3    H150444   3.489   6.380  16.911  1.0118  0.3803  1.0271
 9651TIP3    H250445   3.603   6.478  16.890 -1.9854  3.1204 -3.1258
 9652TIP3   OH250446   5.313   1.763  11.902  1.0552  0.3289  0.3905
 9652TIP3    H150447   5.296   1.714  11.982  1.4181 -2.3443 -1.1347
 9652TIP3    H250448   5.227   1.791  11.871  0.7531 -0.2673  0.7001
 9653TIP3   OH250449   1.514   1.493   5.420 -0.1781  0.9963 -0.2452
 9653TIP3    H150450   1.521   1.453   5.334 -0.5675  0.3881 -0.0023
 9653TIP3    H250451   1.605   1.504   5.449 -0.0432  1.4623 -0.8465
 9654TIP3   OH250452   5.397   5.348  17.162 -0.5878  0.3229  0.8095
 9654TIP3    H150453   5.418   5.340  17.255 -0.6947  0.0963  0.8159
 9654TIP3    H250454   5.416   5.439  17.140  0.2144  0.1714  0.8640
 9655TIP3   OH250455   1.580   6.697  10.820  0.0041 -0.2656  0.2136
 9655TIP3    H150456   1.517   6.700  10.748  0.9311 -0.2816 -0.6185
 9655TIP3    H250457   1.643   6.630  10.795  1.5439  1.1986 -0.0036
 9656TIP3   OH250458   1.199   1.631  13.165  0.0270 -0.1794  0.2148
 9656TIP3    H150459   1.242   1.715  13.152  2.0654 -1.4310 -1.3681
 9656TIP3    H250460   1.115   1.639  13.120  1.1631  0.2746 -1.8594
 9657TIP3   OH250461   2.288   2.267  11.965 -0.4557  0.3831  0.3666
 9657TIP3    H150462   2.295   2.307  12.052 -0.0812  0.8902  0.1070
 9657TIP3    H250463   2.331   2.329  11.907  1.6957 -1.1945  0.2029
 9658TIP3   OH250464   5.137   2.623   6.569  0.2602  0.1690  0.2420
 9658TIP3    H150465   5.205   2.689   6.587  0.7263 -0.1737 -0.2648
 9658TIP3    H250466   5.138   2.613   6.474 -1.6314  1.3632  0.0807
 9659TIP3   OH250467   4.293   6.360   1.828  0.4653 -0.1337  0.1434
 9659TIP3    H150468   4.314   6.372   1.921 -1.2123  0.5735  0.4483
 9659TIP3    H250469   4.201   6.335   1.827  0.1782  0.9020 -1.3804
 9660TIP3   OH250470   3.104   4.500  16.114 -0.4058  0.0097 -0.7349
 9660TIP3    H150471   3.083   4.409  16.134  0.3172 -0.6219 -2.7186
 9660TIP3    H250472   3.120   4.540  16.199 -1.4898 -1.5239  0.2189
 9661TIP3   OH250473   6.770   4.669  12.710  0.4286 -0.2853  0.2068
 9661TIP3    H150474   6.787   4.606  12.780  0.4457  0.7042  1.1182
 9661TIP3    H250475   6.695   4.719  12.741  0.9493  0.7043 -0.1197
 9662TIP3   OH250476   4.299   0.182   2.594  0.0481 -0.1391 -0.1854
 9662TIP3    H150477   4.382   0.137   2.611 -0.6765 -0.7257  1.9980
 9662TIP3    H250478   4.309   0.268   2.634 -0.5898 -0.4335  0.6350
 9663TIP3   OH250479   5.255   2.676  12.729 -0.4641 -0.5786 -0.1033
 9663TIP3    H150480   5.314   2.603  12.710 -0.1498 -0.3532  0.0007
 9663TIP3    H250481   5.213   2.695  12.645 -0.7205 -1.0295 -0.0803
 9664TIP3   OH250482   0.456   2.738  12.785 -0.1260  0.3606 -0.3216
 9664TIP3    H150483   0.448   2.777  12.872  1.6983 -1.1115  0.5356
 9664TIP3    H250484   0.410   2.799  12.727  0.6345  2.5273  1.3053
 9665TIP3   OH250485   5.332   4.065   1.374  0.1055 -0.6242  0.2470
 9665TIP3    H150486   5.425   4.050   1.394 -0.1905 -2.3805  0.4401
 9665TIP3    H250487   5.298   3.977   1.353 -2.2384 -0.4942  3.2259
 9666TIP3   OH250488   3.269   3.571   1.903  0.0875 -0.3577  0.3241
 9666TIP3    H150489   3.258   3.657   1.862 -1.8041 -1.6477 -2.0289
 9666TIP3    H250490   3.195   3.564   1.963  0.6827 -0.0400  1.1011
 9667TIP3   OH250491   2.616   3.764  15.811  0.2193 -0.3978  0.0396
 9667TIP3    H150492   2.578   3.753  15.723  0.7237  0.2675 -0.2670
 9667TIP3    H250493   2.567   3.837  15.849  0.2549 -0.4435  0.1721
 9668TIP3   OH250494   2.909   2.950   4.296  0.0537 -0.2439  0.0136
 9668TIP3    H150495   2.953   3.027   4.334  0.7766 -0.6909  0.0972
 9668TIP3    H250496   2.896   2.891   4.370 -0.6557 -0.1296 -0.0211
 9669TIP3   OH250497   4.132   2.138   4.040 -0.3633  0.0849  0.1284
 9669TIP3    H150498   4.077   2.106   4.112 -0.1225 -1.6775 -0.4606
 9669TIP3    H250499   4.220   2.111   4.064  0.0966  1.8151  0.4478
 9670TIP3   OH250500   5.502   1.842   0.773 -0.6254  0.5018  0.4376
 9670TIP3    H150501   5.537   1.879   0.854 -1.6489  0.2619  0.9865
 9670TIP3    H250502   5.522   1.908   0.706 -2.9665  2.3302  1.5004
 9671TIP3   OH250503   4.507   5.797   1.526 -0.6706 -0.3996 -0.5034
 9671TIP3    H150504   4.430   5.852   1.510 -0.3048  0.4714  0.6364
 9671TIP3    H250505   4.577   5.859   1.546 -0.4302 -1.2966  1.5466
 9672TIP3   OH250506   6.142   4.881   3.443 -0.6865 -0.1539 -0.2020
 9672TIP3    H150507   6.117   4.819   3.512  0.1220 -0.5464 -0.2625
 9672TIP3    H250508   6.095   4.962   3.466 -0.6066 -0.3492  0.6855
 9673TIP3   OH250509   4.903   4.606  16.806 -0.3708 -0.0559  0.1852
 9673TIP3    H150510   4.884   4.588  16.899 -0.4202  0.4613  0.2774
 9673TIP3    H250511   4.820   4.636  16.770 -0.3672 -0.3215 -0.0479
 9674TIP3   OH250512   6.555   4.902  14.760  0.2138 -0.1147 -0.1764
 9674TIP3    H150513   6.468   4.881  14.727  0.1672  0.5062 -0.4433
 9674TIP3    H250514   6.545   4.983  14.809  0.6951  0.1206 -0.4577
 9675TIP3   OH250515   4.396   3.699  14.550 -0.2388 -0.7060  0.5123
 9675TIP3    H150516   4.351   3.621  14.516  0.4397  0.1048 -2.4120
 9675TIP3    H250517   4.328   3.765  14.558 -0.2100 -0.5533 -0.4523
 9676TIP3   OH250518   3.235   2.960  17.026  0.2081 -0.4210 -0.4558
 9676TIP3    H150519   3.185   2.896  17.077 -0.6686  0.6053 -0.0169
 9676TIP3    H250520   3.252   3.031  17.086  0.4311  0.1523 -1.1872
 9677TIP3   OH250521   0.139   4.197   3.656 -0.0662  0.0318  0.2762
 9677TIP3    H150522   0.172   4.233   3.738  0.1989  3.6516 -1.3237
 9677TIP3    H250523   0.045   4.216   3.658 -0.1132 -0.1616 -0.1172
 9678TIP3   OH250524   5.453   0.062   5.782  0.5613  0.0829 -0.3405
 9678TIP3    H150525   5.492   0.027   5.702 -0.9448 -0.3026 -0.9063
 9678TIP3    H250526   5.381   0.117   5.752  1.8353  2.3769  0.6211
 9679TIP3   OH250527   6.649   2.283  13.399  0.1792  0.3953 -0.8307
 9679TIP3    H150528   6.703   2.262  13.323 -0.2817 -1.1338 -0.7582
 9679TIP3    H250529   6.583   2.213  13.401 -0.0544  0.6489  0.7260
 9680TIP3   OH250530   6.479   0.829   4.946 -0.8328  0.5580 -0.2662
 9680TIP3    H150531   6.506   0.921   4.944 -1.7428  0.9175  2.1258
 9680TIP3    H250532   6.551   0.784   4.990 -0.9294  0.3037 -0.3668
 9681TIP3   OH250533   0.382   6.437   2.796 -0.0216  0.2730  0.1303
 9681TIP3    H150534   0.379   6.471   2.706  0.0406  0.8018  0.3247
 9681TIP3    H250535   0.394   6.515   2.850  1.0148 -0.1549  0.5220
 9682TIP3   OH250536   6.273   5.200   4.607  0.3003 -0.0252  0.3491
 9682TIP3    H150537   6.187   5.201   4.566  0.2027 -0.0396  0.5541
 9682TIP3    H250538   6.288   5.291   4.634 -0.0886 -0.2226  1.2302
 9683TIP3   OH250539   4.765   6.600   4.147  0.2604  0.2023  0.2962
 9683TIP3    H150540   4.807   6.625   4.229 -0.5777 -0.4130  0.9208
 9683TIP3    H250541   4.751   6.683   4.101  1.3189  0.4926  0.4764
 9684TIP3   OH250542   3.077   6.335   1.366  0.0116  0.1439 -0.6272
 9684TIP3    H150543   3.093   6.399   1.435 -1.6079 -0.0575 -0.0335
 9684TIP3    H250544   3.021   6.381   1.303 -0.4850 -0.4157 -0.6018
 9685TIP3   OH250545   1.429   4.658  14.294 -0.4051 -0.3101  0.2880
 9685TIP3    H150546   1.364   4.633  14.360  0.1567  1.3436  1.4991
 9685TIP3    H250547   1.379   4.697  14.223 -0.7328  1.4473  1.4478
 9686TIP3   OH250548   0.819   2.135  11.388 -0.1903 -0.4438  0.0249
 9686TIP3    H150549   0.776   2.164  11.308 -0.2309 -0.2604  0.1127
 9686TIP3    H250550   0.839   2.216  11.435  1.0355 -0.4679 -0.4228
 9687TIP3   OH250551   4.731   1.495  14.026 -0.0814 -0.0491  0.3670
 9687TIP3    H150552   4.816   1.482  14.068 -0.5373  0.4682  1.4700
 9687TIP3    H250553   4.733   1.439  13.949  0.6523 -1.2439  1.2544
 9688TIP3   OH250554   1.826   1.200  12.209  0.0114 -0.0911  0.1734
 9688TIP3    H150555   1.819   1.292  12.234  0.5854 -0.3691  1.3542
 9688TIP3    H250556   1.882   1.200  12.131 -0.5709  0.6228 -0.2494
 9689TIP3   OH250557   1.595   6.209  14.019  0.1408 -0.7237  0.4587
 9689TIP3    H150558   1.658   6.144  14.051 -1.0658 -1.7750  0.7575
 9689TIP3    H250559   1.646   6.263  13.958  0.9157 -2.6819 -0.7099
 9690TIP3   OH250560   0.425   4.042  15.621 -0.3494  0.0979  0.2569
 9690TIP3    H150561   0.462   4.126  15.645  0.9448 -0.2251 -0.5542
 9690TIP3    H250562   0.490   3.978  15.650 -1.3951 -0.6407  1.0171
 9691TIP3   OH250563   0.463   6.456   3.854  0.2742  0.4243  0.2907
 9691TIP3    H150564   0.522   6.480   3.925 -0.5147  0.4723  0.9261
 9691TIP3    H250565   0.378   6.490   3.880  0.0177  0.6327 -0.7746
 9692TIP3   OH250566   0.478   5.311   3.560 -0.4306 -0.1249  0.2778
 9692TIP3    H150567   0.471   5.406   3.553 -0.7624  0.0302  2.4478
 9692TIP3    H250568   0.565   5.290   3.526  0.1182  1.0840  0.9242
 9693TIP3   OH250569   3.858   1.680  14.139 -0.1916 -0.4409 -0.1521
 9693TIP3    H150570   3.769   1.662  14.170 -0.3097  0.5097  0.0866
 9693TIP3    H250571   3.904   1.713  14.217 -0.2766  1.2458 -0.7903
 9694TIP3   OH250572   4.580   3.313  15.337  0.4147  0.5508 -0.0106
 9694TIP3    H150573   4.664   3.277  15.366  0.3778  0.2340 -0.2932
 9694TIP3    H250574   4.539   3.345  15.417  0.7232  0.5327  0.1557
 9695TIP3   OH250575   0.539   5.439   5.188  0.6951 -0.2133 -0.1625
 9695TIP3    H150576   0.626   5.400   5.177  0.8368  0.3251 -0.9116
 9695TIP3    H250577   0.555   5.531   5.206  0.4075 -0.6803  2.7616
 9696TIP3   OH250578   0.814   1.746  14.571  0.1341 -0.1216 -0.7915
 9696TIP3    H150579   0.822   1.745  14.476  1.6826 -0.3982 -0.6761
 9696TIP3    H250580   0.745   1.683  14.590  0.9012 -1.2428 -1.6541
 9697TIP3   OH250581   5.237   3.224  15.933  0.3747  0.4933  0.2082
 9697TIP3    H150582   5.171   3.156  15.927 -0.8479  1.4474  2.0744
 9697TIP3    H250583   5.299   3.192  15.999  0.6368  0.5192 -0.0247
 9698TIP3   OH250584   6.318   2.618  10.550 -0.1555  0.4112 -0.3278
 9698TIP3    H150585   6.312   2.525  10.531 -3.7460  0.2764  1.1157
 9698TIP3    H250586   6.386   2.624  10.617  1.1958 -0.9160 -1.5133
 9699TIP3   OH250587   2.787   0.564   2.566 -0.1086  0.4856 -0.4893
 9699TIP3    H150588   2.766   0.511   2.489  0.8819 -0.8831  0.1780
 9699TIP3    H250589   2.703   0.576   2.610 -0.4098 -0.1309 -0.8909
 9700TIP3   OH250590   3.373   4.842  13.952 -0.2642 -0.2373  0.1697
 9700TIP3    H150591   3.322   4.916  13.984  1.0091  0.2903  1.0266
 9700TIP3    H250592   3.460   4.879  13.932  0.3387 -1.4597  0.4774
 9701TIP3   OH250593   1.544   5.021  10.886  0.2242 -0.4489  0.2927
 9701TIP3    H150594   1.573   5.076  10.813 -1.0731  0.5122  0.4924
 9701TIP3    H250595   1.571   4.932  10.860 -2.1098 -0.4475 -2.3802
 9702TIP3   OH250596   2.997   6.044  10.449  0.2855  0.5489 -0.0386
 9702TIP3    H150597   2.928   6.093  10.493 -1.5073 -0.3795 -1.7198
 9702TIP3    H250598   2.950   5.983  10.392  2.4909  2.0793 -3.6724
 9703TIP3   OH250599   1.940   3.784  15.045 -0.7960  0.0547  0.6856
 9703TIP3    H150600   2.021   3.735  15.036  1.0639  2.6580  2.5500
 9703TIP3    H250601   1.919   3.813  14.957  0.9032  0.2859  0.3519
 9704TIP3   OH250602   6.106   5.199  11.402  0.2811 -0.5641 -0.1052
 9704TIP3    H150603   6.193   5.221  11.437 -0.4225  1.0625  0.6660
 9704TIP3    H250604   6.114   5.213  11.308  1.2497 -1.7818 -0.2149
 9705TIP3   OH250605   2.545   2.790  15.064 -0.9282  0.5950 -0.2980
 9705TIP3    H150606   2.543   2.747  14.979  1.8106 -1.7859  0.7595
 9705TIP3    H250607   2.589   2.874  15.049 -1.7427  0.8158 -1.4670
 9706TIP3   OH250608   1.308   6.441   3.384 -0.0209 -0.3661  0.6766
 9706TIP3    H150609   1.319   6.360   3.434 -0.8400 -0.4370  0.7627
 9706TIP3    H250610   1.265   6.501   3.445  1.0659  0.3162  0.7795
 9707TIP3   OH250611   6.356   3.607  16.891  0.0730 -0.0101 -0.0304
 9707TIP3    H150612   6.355   3.568  16.803  2.2582 -0.8963  0.3166
 9707TIP3    H250613   6.317   3.539  16.947  0.7988 -0.3688  0.0431
 9708TIP3   OH250614   6.143   5.619  12.621  0.6649 -0.5087 -0.1082
 9708TIP3    H150615   6.131   5.560  12.547 -0.7311  1.2876 -1.3345
 9708TIP3    H250616   6.054   5.637  12.652  1.2218 -1.1104  1.9206
 9709TIP3   OH250617   2.513   5.310   4.970 -0.5892  0.3994 -0.2368
 9709TIP3    H150618   2.537   5.320   4.877 -1.4736 -1.4249 -0.6799
 9709TIP3    H250619   2.418   5.301   4.969 -0.5423 -0.2605  0.7931
 9710TIP3   OH250620   4.287   4.070   1.826  0.0170  0.3161 -0.0166
 9710TIP3    H150621   4.246   4.152   1.855  2.8431  2.0914 -0.8800
 9710TIP3    H250622   4.213   4.014   1.804 -2.0141  3.2583 -1.0728
 9711TIP3   OH250623   3.732   6.668  11.431  0.1028 -0.3158 -0.1572
 9711TIP3    H150624   3.665   6.684  11.497 -0.7147 -0.4429 -0.9545
 9711TIP3    H250625   3.789   6.745  11.435 -0.7321  0.3092 -0.2654
 9712TIP3   OH250626   1.767   2.260   2.266  0.0498  0.3707  0.1185
 9712TIP3    H150627   1.692   2.217   2.308  0.2661  0.7020  0.8525
 9712TIP3    H250628   1.748   2.254   2.173 -0.2684 -0.6796  0.2404
 9713TIP3   OH250629   5.678   4.593   2.393  0.4283  0.1865  0.3465
 9713TIP3    H150630   5.616   4.589   2.465 -0.0937 -0.0201 -0.1068
 9713TIP3    H250631   5.705   4.685   2.390 -0.4230  0.4391  0.0849
 9714TIP3   OH250632   0.347   2.495   1.218  0.2208  0.0220  0.2207
 9714TIP3    H150633   0.434   2.484   1.256  0.4195  1.2054  0.1245
 9714TIP3    H250634   0.322   2.585   1.238  0.1469  0.5524 -2.0668
 9715TIP3   OH250635   4.221   6.721   6.226 -0.1278 -0.6394 -0.2887
 9715TIP3    H150636   4.237   6.743   6.318 -0.2225 -0.9768 -0.1915
 9715TIP3    H250637   4.220   6.625   6.224 -0.9122 -0.6333 -0.5026
 9716TIP3   OH250638   5.743   2.716  14.900  0.2930  0.2009  0.8763
 9716TIP3    H150639   5.718   2.627  14.874  1.2569 -0.0092  0.6384
 9716TIP3    H250640   5.739   2.767  14.818  2.0656 -0.1704  0.5333
 9717TIP3   OH250641   5.828   3.826  16.422  0.1144 -0.3173  0.5194
 9717TIP3    H150642   5.837   3.738  16.460  1.5982  0.9023  3.1155
 9717TIP3    H250643   5.772   3.873  16.483  0.1433  0.8598 -0.3464
 9718TIP3   OH250644   2.130   4.444  12.637  0.3726 -0.7972  0.1043
 9718TIP3    H150645   2.058   4.459  12.699  0.9168 -0.4443  0.6484
 9718TIP3    H250646   2.088   4.402  12.562 -0.3280 -1.0326  0.6220
 9719TIP3   OH250647   2.364   3.615   3.204  0.2300  0.0666  0.4258
 9719TIP3    H150648   2.433   3.642   3.144 -0.4601  0.2573 -0.3024
 9719TIP3    H250649   2.295   3.580   3.147 -1.2319  1.9920  0.9453
 9720TIP3   OH250650   5.364   4.041  14.645 -0.5076  0.7759  0.0710
 9720TIP3    H150651   5.287   4.068  14.695 -1.6173  0.3831 -1.3768
 9720TIP3    H250652   5.348   3.949  14.624 -0.0954  0.9493 -1.0416
 9721TIP3   OH250653   3.887   3.547   5.111  0.7236  0.0421 -0.1906
 9721TIP3    H150654   3.900   3.499   5.193  2.6960 -0.4647 -0.7745
 9721TIP3    H250655   3.796   3.532   5.088  0.7280 -1.5935  0.8048
 9722TIP3   OH250656   2.359   5.679  12.211  0.6769  1.1550 -0.0850
 9722TIP3    H150657   2.293   5.664  12.278  1.6026  1.2397  0.8609
 9722TIP3    H250658   2.443   5.666  12.256  1.3010  0.4105 -1.4217
 9723TIP3   OH250659   1.383   0.311  13.246  0.1406  0.6165  0.0911
 9723TIP3    H150660   1.378   0.406  13.233 -1.7086  0.5996  0.5328
 9723TIP3    H250661   1.392   0.275  13.158  0.8146  1.2071 -0.0829
 9724TIP3   OH250662   1.120   4.609  13.723 -0.0394 -0.4322  0.3794
 9724TIP3    H150663   1.153   4.521  13.743  0.9029 -0.2406 -0.3163
 9724TIP3    H250664   1.120   4.613  13.627 -4.7363 -1.4300  0.2357
 9725TIP3   OH250665   5.541   6.722  11.389  0.2273 -0.7269  0.0618
 9725TIP3    H150666   5.611   6.672  11.347 -1.5446 -1.3312 -2.2807
 9725TIP3    H250667   5.477   6.737  11.319 -0.9822  1.6985  1.6069
 9726TIP3   OH250668   2.919   6.387  13.212  0.8217 -0.5263  0.8940
 9726TIP3    H150669   2.967   6.393  13.130 -0.3859 -0.3593  0.2003
 9726TIP3    H250670   2.979   6.341  13.271  1.8849 -0.2084  0.0768
 9727TIP3   OH250671   1.981   4.121   0.882  0.3132 -0.2554  0.0798
 9727TIP3    H150672   2.052   4.062   0.908  1.6681  0.9396 -0.7998
 9727TIP3    H250673   1.980   4.189   0.950 -0.5345 -0.6896  0.5153
 9728TIP3   OH250674   3.200   5.397  12.846  0.1806  0.4122 -0.8146
 9728TIP3    H150675   3.194   5.408  12.941  1.1754  1.3873 -0.8537
 9728TIP3    H250676   3.242   5.312  12.833  1.0475  0.7666 -0.3598
 9729TIP3   OH250677   2.041   5.244   6.164  0.8271  0.3791  0.3314
 9729TIP3    H150678   1.963   5.231   6.219  0.4983  0.6057 -0.0812
 9729TIP3    H250679   2.105   5.182   6.199  0.3490 -0.0422  0.4635
 9730TIP3   OH250680   0.784   0.659  12.058 -0.6864  0.4456  0.0038
 9730TIP3    H150681   0.802   0.692  12.146 -0.6987  0.9645 -0.1851
 9730TIP3    H250682   0.753   0.736  12.009 -1.8191 -0.0835 -0.1265
 9731TIP3   OH250683   4.225   5.401   2.957  0.0874  0.0473 -0.1577
 9731TIP3    H150684   4.224   5.358   2.871 -3.2880  0.2612 -0.3018
 9731TIP3    H250685   4.192   5.334   3.017 -1.5956  1.2146  0.2501
 9732TIP3   OH250686   6.715   2.119  11.440  0.0813  0.2722  1.2940
 9732TIP3    H150687   6.656   2.165  11.379  1.7970  0.3799 -0.3151
 9732TIP3    H250688   6.760   2.189  11.487  0.9475  0.2151  0.5489
 9733TIP3   OH250689   2.987   4.215  17.264 -0.3852 -0.1748 -0.0824
 9733TIP3    H150690   2.947   4.262  17.337 -0.6895 -0.0116 -0.3548
 9733TIP3    H250691   2.924   4.223  17.193 -0.2932 -0.7192 -0.2284
 9734TIP3   OH250692   1.402   2.886   2.897  0.0568 -0.3758 -0.5210
 9734TIP3    H150693   1.312   2.880   2.931  0.1034 -0.6751 -0.4566
 9734TIP3    H250694   1.398   2.845   2.811  0.0534 -0.0724 -0.6666
 9735TIP3   OH250695   0.973   1.816  15.213  0.0841  0.5038 -0.3477
 9735TIP3    H150696   0.913   1.744  15.195  0.0543  0.4775 -0.1427
 9735TIP3    H250697   1.008   1.840  15.127  0.7363 -0.3182 -0.3098
 9736TIP3   OH250698   5.388   0.018  13.121  0.1174  0.0006  0.3806
 9736TIP3    H150699   5.454   0.078  13.086 -0.0026 -0.3110 -0.3970
 9736TIP3    H250700   5.423  -0.009  13.206  0.1651  1.1689  0.7403
 9737TIP3   OH250701   3.231   5.370   2.827  0.7345  0.4515 -0.1582
 9737TIP3    H150702   3.267   5.331   2.907 -0.1739 -1.2494 -0.5567
 9737TIP3    H250703   3.161   5.428   2.857 -0.5773 -1.2889  0.2131
 9738TIP3   OH250704   3.271   1.540  11.958 -0.2201 -0.3227  0.3279
 9738TIP3    H150705   3.189   1.505  11.993  0.6256 -2.3017  0.3515
 9738TIP3    H250706   3.323   1.463  11.935  0.8626  0.9073 -1.5152
 9739TIP3   OH250707   2.355   5.483  15.389 -0.0597  0.0776 -0.5332
 9739TIP3    H150708   2.385   5.403  15.346 -0.7030 -0.7441  0.5331
 9739TIP3    H250709   2.428   5.545  15.377  1.1392 -1.1904  0.0803
 9740TIP3   OH250710   3.111   2.371   1.422  0.3322 -0.2117  0.6355
 9740TIP3    H150711   3.102   2.466   1.436  0.3471  0.1723 -1.8544
 9740TIP3    H250712   3.203   2.353   1.442  0.5900  0.4868  0.1307
 9741TIP3   OH250713   4.554   1.428  16.704  0.1433 -0.0611  0.6942
 9741TIP3    H150714   4.603   1.390  16.777  0.2233 -0.3909  0.4678
 9741TIP3    H250715   4.497   1.493  16.745 -0.1800 -0.6054  1.1059
 9742TIP3   OH250716   0.583   2.406  13.980  0.9006  0.0775  0.1730
 9742TIP3    H150717   0.657   2.446  13.935  1.0191  0.6448  0.8645
 9742TIP3    H250718   0.621   2.367  14.059  0.3654  0.9511  0.8676
 9743TIP3   OH250719   4.462   5.597   6.388  0.1191 -0.0562  0.3595
 9743TIP3    H150720   4.458   5.502   6.403  0.3581  0.0551  1.1700
 9743TIP3    H250721   4.545   5.624   6.427 -0.8531  0.7815  1.8797
 9744TIP3   OH250722   4.335   6.224  12.373 -0.0434 -0.2572 -0.0286
 9744TIP3    H150723   4.251   6.198  12.336 -0.0531  0.3295 -0.4257
 9744TIP3    H250724   4.343   6.172  12.453 -1.2558  0.4166  0.5448
 9745TIP3   OH250725   4.878   1.489  16.696 -0.0547  0.2876 -0.3341
 9745TIP3    H150726   4.796   1.510  16.739 -0.2024 -1.3985  0.2164
 9745TIP3    H250727   4.943   1.544  16.740 -0.4988 -0.1039  0.8323
 9746TIP3   OH250728   6.546   5.063   3.735  0.1240  0.0683 -0.1023
 9746TIP3    H150729   6.498   4.997   3.785  1.0511 -0.3823  0.1928
 9746TIP3    H250730   6.478   5.125   3.706 -0.5680 -0.2873  0.7425
 9747TIP3   OH250731   6.028   2.930  14.635 -0.6145 -0.0314  0.4354
 9747TIP3    H150732   5.991   2.909  14.549  0.3769  2.1187 -0.5559
 9747TIP3    H250733   6.077   2.852  14.660  1.7796  0.4830 -2.4467
 9748TIP3   OH250734   4.346   2.082   2.612  0.7337  0.2572  0.3600
 9748TIP3    H150735   4.408   2.038   2.553 -0.4187  0.1927 -0.8357
 9748TIP3    H250736   4.260   2.064   2.573 -0.1061 -0.3614  2.4502
 9749TIP3   OH250737   4.135   5.273   0.287 -0.3601  0.5864 -0.5353
 9749TIP3    H150738   4.172   5.227   0.212  0.3395 -0.3789  0.3881
 9749TIP3    H250739   4.085   5.206   0.334  0.8409  0.7046  0.9370
 9750TIP3   OH250740   2.381   4.584   4.555  0.3688 -0.2662 -0.1264
 9750TIP3    H150741   2.398   4.492   4.578 -0.2953 -0.4877 -0.5246
 9750TIP3    H250742   2.289   4.586   4.530  0.3603  0.5311 -0.0378
 9751TIP3   OH250743   1.297   3.986  12.565  0.1366 -0.5520  0.2424
 9751TIP3    H150744   1.221   3.932  12.586  0.3127 -0.0538  2.2399
 9751TIP3    H250745   1.307   4.044  12.640  0.5960  1.5589 -1.3851
 9752TIP3   OH250746   6.374   4.565   0.090 -0.2377  0.0475 -0.5503
 9752TIP3    H150747   6.330   4.500   0.035 -1.4712  0.6910 -0.3292
 9752TIP3    H250748   6.305   4.600   0.146  0.8254  0.0973  0.7472
 9753TIP3   OH250749   3.323   1.275   4.206 -0.0540  0.3266  0.0558
 9753TIP3    H150750   3.373   1.335   4.261  0.5587  0.3947 -0.5712
 9753TIP3    H250751   3.244   1.325   4.183  0.1119  0.6291  0.1370
 9754TIP3   OH250752   6.047   0.242   6.117  0.6105 -0.4441 -0.5226
 9754TIP3    H150753   6.051   0.260   6.211  1.9800  0.4364 -0.7361
 9754TIP3    H250754   5.990   0.166   6.110 -1.4373  0.9119  0.8224
 9755TIP3   OH250755   2.180   0.209  12.953  0.0733 -0.0174  0.5738
 9755TIP3    H150756   2.217   0.136  13.003  0.1671 -0.8809 -0.7470
 9755TIP3    H250757   2.089   0.214  12.983 -0.3658 -1.6819 -0.4548
 9756TIP3   OH250758   2.370   2.137   2.049 -0.3663  0.2561 -0.3323
 9756TIP3    H150759   2.317   2.062   2.022 -0.5495  0.8488 -1.6675
 9756TIP3    H250760   2.450   2.098   2.085 -1.7170 -0.6456  1.7585
 9757TIP3   OH250761   3.863   0.703   4.242  0.7882 -0.7233 -0.2030
 9757TIP3    H150762   3.928   0.753   4.291  0.2477 -0.8753  0.6951
 9757TIP3    H250763   3.804   0.669   4.310 -1.1753  0.7661 -1.1187
 9758TIP3   OH250764   1.456   0.100  14.766 -0.1584  0.6087  0.0043
 9758TIP3    H150765   1.479   0.101  14.674 -0.7183  0.8567 -0.1379
 9758TIP3    H250766   1.539   0.091  14.812  0.0664 -0.1740 -0.5441
 9759TIP3   OH250767   5.898   4.734   1.265  0.5518 -0.1056  0.4129
 9759TIP3    H150768   5.962   4.669   1.293 -0.3849 -0.7790  1.0143
 9759TIP3    H250769   5.817   4.710   1.310 -0.7795 -0.7033 -2.1772
 9760TIP3   OH250770   5.337   3.081  15.633 -0.3315 -0.2870 -0.3720
 9760TIP3    H150771   5.417   3.133  15.643 -0.8866  0.5813 -0.4385
 9760TIP3    H250772   5.320   3.048  15.721  0.8378 -1.5842 -0.6114
 9761TIP3   OH250773   0.898   0.180  12.158  0.5685  0.3384 -0.2721
 9761TIP3    H150774   0.878   0.188  12.251 -0.5005  0.0121 -0.4642
 9761TIP3    H250775   0.889   0.269  12.124 -0.4887  0.2140 -0.3362
 9762TIP3   OH250776   0.210   2.661   1.034  0.4074 -0.9128  0.0449
 9762TIP3    H150777   0.251   2.575   1.042 -1.7880 -2.0429 -0.4173
 9762TIP3    H250778   0.173   2.678   1.121  0.3219 -0.7260 -0.0283
 9763TIP3   OH250779   1.897   6.378  16.461 -0.2705  0.5550 -0.3651
 9763TIP3    H150780   1.908   6.413  16.373 -1.6206  0.8885 -0.4040
 9763TIP3    H250781   1.810   6.408  16.489  0.3317  0.8506  1.2601
 9764TIP3   OH250782   1.144   6.232   1.610  0.0503  0.3844 -0.1794
 9764TIP3    H150783   1.172   6.227   1.701 -1.0150 -0.1985  0.1277
 9764TIP3    H250784   1.086   6.308   1.607  0.5143  0.7287 -0.4933
 9765TIP3   OH250785   1.830   0.145   2.146  0.2932  0.0322 -0.6151
 9765TIP3    H150786   1.893   0.109   2.084  0.4111 -2.0237  0.6442
 9765TIP3    H250787   1.884   0.176   2.220 -0.1341 -1.6797  0.4399
 9766TIP3   OH250788   1.028   4.071  15.706  0.6286 -0.2793 -0.4779
 9766TIP3    H150789   1.036   4.003  15.638  0.8968 -0.5098 -0.2141
 9766TIP3    H250790   1.113   4.115  15.706 -0.0666  1.0901 -1.7394
 9767TIP3   OH250791   4.729   3.551  15.152 -0.2795  0.2415  0.0309
 9767TIP3    H150792   4.715   3.507  15.236 -1.4068  0.9762  0.2447
 9767TIP3    H250793   4.695   3.490  15.087  2.2143 -1.1021 -0.0694
 9768TIP3   OH250794   2.931   0.991  13.271  0.5871  0.3877 -0.2373
 9768TIP3    H150795   2.987   1.046  13.327  0.4394  3.0202 -2.5603
 9768TIP3    H250796   2.990   0.959  13.203 -0.6061  3.1025 -2.6429
 9769TIP3   OH250797   2.214   2.080   0.805 -0.3358 -0.5867  0.1474
 9769TIP3    H150798   2.232   2.171   0.781 -1.1908 -1.0505 -2.3900
 9769TIP3    H250799   2.299   2.046   0.833  0.5909  0.1929 -1.6459
 9770TIP3   OH250800   4.958   3.223   3.072  0.1356 -0.0569  1.1882
 9770TIP3    H150801   5.031   3.245   3.013  0.2461  0.1158  1.3896
 9770TIP3    H250802   4.927   3.307   3.105 -1.5157  0.0302 -0.5118
 9771TIP3   OH250803   6.818   3.636   4.121 -0.6268 -0.1821  0.3019
 9771TIP3    H150804   6.883   3.565   4.123 -0.6159 -0.1741  0.2329
 9771TIP3    H250805   6.858   3.702   4.065 -0.5983 -0.0836  0.4381
 9772TIP3   OH250806   3.387   3.998   1.495  0.6795  0.1741  0.1284
 9772TIP3    H150807   3.435   4.054   1.555 -0.4669  3.0784 -1.5669
 9772TIP3    H250808   3.446   3.985   1.421  0.5889 -0.0445  0.0947
 9773TIP3   OH250809   4.889   1.128  11.258 -0.0743 -0.5370 -0.0089
 9773TIP3    H150810   4.933   1.067  11.199 -0.6554 -0.8698 -0.1115
 9773TIP3    H250811   4.921   1.104  11.345 -1.7553 -2.3176  0.1768
 9774TIP3   OH250812   4.623   5.973  11.701  0.5935  0.6455  0.4157
 9774TIP3    H150813   4.647   5.907  11.766  0.6841 -0.3209 -0.5993
 9774TIP3    H250814   4.530   5.989  11.717  1.2795  2.6843  2.8005
 9775TIP3   OH250815   4.667   4.303   4.641 -0.0121  0.4589 -0.0010
 9775TIP3    H150816   4.683   4.225   4.588  2.7309  0.6422  0.4760
 9775TIP3    H250817   4.587   4.283   4.690  0.1391 -1.6714 -0.5824
 9776TIP3   OH250818   6.021   2.757  11.498 -0.8230 -0.5140 -0.6109
 9776TIP3    H150819   5.975   2.784  11.578  1.8828  2.2729  0.0992
 9776TIP3    H250820   6.079   2.686  11.527  1.2861  1.5183  0.3280
 9777TIP3   OH250821   6.565   6.455   5.965 -0.1336  0.6106 -0.2965
 9777TIP3    H150822   6.536   6.515   6.034 -4.2058  0.0245 -1.3423
 9777TIP3    H250823   6.511   6.376   5.978  1.4985 -0.8317 -2.0280
 9778TIP3   OH250824   3.242   2.006   6.100  0.7030  0.4379 -0.2054
 9778TIP3    H150825   3.238   1.978   6.192 -1.0245  1.5617  0.1078
 9778TIP3    H250826   3.305   2.077   6.099  0.2872  0.8206  0.2474
 9779TIP3   OH250827   6.616   2.388  16.644  0.3578  0.7632  0.0113
 9779TIP3    H150828   6.704   2.423  16.655  1.5731 -1.8522 -1.2317
 9779TIP3    H250829   6.626   2.314  16.585 -2.7623  0.7332 -0.5546
 9780TIP3   OH250830   4.142   3.416  13.222 -0.6300 -0.0992  0.4651
 9780TIP3    H150831   4.229   3.409  13.263  0.4567 -0.0038 -1.7521
 9780TIP3    H250832   4.156   3.471  13.145 -2.4804 -0.7852 -0.3885
 9781TIP3   OH250833   0.448   2.767  12.482 -0.2462 -0.1764  0.3799
 9781TIP3    H150834   0.384   2.743  12.415 -0.8555  0.4360  0.7382
 9781TIP3    H250835   0.414   2.847  12.521 -0.0393 -0.6634  1.6038
 9782TIP3   OH250836   0.409   4.299  12.159  0.2703  0.6908  0.0429
 9782TIP3    H150837   0.429   4.251  12.239  0.7384  0.5026 -0.1859
 9782TIP3    H250838   0.322   4.336  12.174 -0.0171 -0.0808  0.2889
 9783TIP3   OH250839   6.443   0.849  16.265 -0.1139 -0.5018  0.2405
 9783TIP3    H150840   6.397   0.802  16.335  0.9935  0.0637  1.3595
 9783TIP3    H250841   6.535   0.826  16.277  0.1361 -0.0324 -0.7567
 9784TIP3   OH250842   4.457   1.875   2.416 -0.6816 -0.2834  0.1409
 9784TIP3    H150843   4.551   1.881   2.401 -0.8492  1.3264 -0.3861
 9784TIP3    H250844   4.425   1.819   2.345 -0.2387 -0.0541 -0.2460
 9785TIP3   OH250845   0.054   4.608  14.703  0.7869 -0.6703 -0.0782
 9785TIP3    H150846   0.034   4.624  14.611  0.2959 -2.3826 -0.3020
 9785TIP3    H250847   0.113   4.679  14.729  3.1763 -1.7178 -2.4710
 9786TIP3   OH250848   5.285   0.922  16.620 -0.4279  0.0907 -0.1188
 9786TIP3    H150849   5.378   0.909  16.640 -0.1409  1.1926 -0.7468
 9786TIP3    H250850   5.263   0.849  16.561 -0.5084 -1.3963  1.6858
 9787TIP3   OH250851   6.116   5.259   3.919 -0.5494 -0.1146  0.3223
 9787TIP3    H150852   6.021   5.253   3.928 -0.3461 -2.1775  1.2703
 9787TIP3    H250853   6.151   5.205   3.990  1.3445  0.5304 -0.0721
 9788TIP3   OH250854   0.022   2.608   3.036 -0.0857  0.5097  0.3705
 9788TIP3    H150855  -0.010   2.578   3.121  1.7433 -2.2344  0.1559
 9788TIP3    H250856  -0.050   2.592   2.976  0.2188 -1.8984  0.6042
 9789TIP3   OH250857   3.737   2.833   3.796  0.1683  0.3593 -0.2284
 9789TIP3    H150858   3.779   2.763   3.846  1.3176 -1.5812 -3.7777
 9789TIP3    H250859   3.649   2.839   3.834  1.2994 -0.3272  2.6590
 9790TIP3   OH250860   2.490   0.609   2.578 -0.1438 -0.0830  0.1361
 9790TIP3    H150861   2.484   0.624   2.484 -0.6904  1.9353  0.4637
 9790TIP3    H250862   2.423   0.543   2.596  0.5626 -1.1332 -1.0029
 9791TIP3   OH250863   0.593   3.074  13.880 -0.8886 -0.3478  0.8155
 9791TIP3    H150864   0.513   3.056  13.832  0.4581  1.2652 -2.1197
 9791TIP3    H250865   0.654   3.005  13.852  0.0986  0.9609 -0.2983
 9792TIP3   OH250866   5.038   3.213  16.623 -1.1092  0.2401 -0.9193
 9792TIP3    H150867   5.111   3.199  16.684 -1.6744  2.3253  0.2996
 9792TIP3    H250868   5.079   3.209  16.537  0.5835  1.7270 -0.2397
 9793TIP3   OH250869   5.717   5.684  14.598  0.1699 -0.3267 -0.2241
 9793TIP3    H150870   5.626   5.666  14.572 -0.5026  1.3601  0.8763
 9793TIP3    H250871   5.748   5.747  14.533  0.4493 -0.6580 -0.4125
 9794TIP3   OH250872   2.589   4.800   2.110 -0.0614 -0.2325 -0.3952
 9794TIP3    H150873   2.534   4.879   2.112  0.4426  0.2562 -3.0738
 9794TIP3    H250874   2.529   4.728   2.126 -1.3490  0.3693 -2.3648
 9795TIP3   OH250875   1.842   4.005  15.167 -0.6907  0.9066 -0.5315
 9795TIP3    H150876   1.888   3.935  15.121 -2.2158  0.5664 -1.5845
 9795TIP3    H250877   1.886   4.085  15.141  0.1927  0.4650 -0.4017
 9796TIP3   OH250878   3.943   2.423   2.840 -0.1136 -0.1805 -0.5071
 9796TIP3    H150879   4.014   2.468   2.886 -1.6168 -0.4660  2.2353
 9796TIP3    H250880   3.982   2.341   2.810  0.9941  0.1362  0.0452
 9797TIP3   OH250881   3.692   0.976   0.919  0.3389  0.2109  0.2767
 9797TIP3    H150882   3.739   0.949   0.840  0.1740  1.0638 -0.1158
 9797TIP3    H250883   3.730   0.922   0.989  1.3458  0.3181 -0.1782
 9798TIP3   OH250884   0.136   2.045  10.360  0.5783 -0.3829 -0.1337
 9798TIP3    H150885   0.214   2.099  10.348 -0.0399  0.3501 -0.9223
 9798TIP3    H250886   0.066   2.108  10.375 -0.2629 -0.9268 -1.6569
 9799TIP3   OH250887   2.542   6.284   1.624 -0.5405  0.2428 -0.1686
 9799TIP3    H150888   2.541   6.311   1.532 -0.7988  0.8145  0.0025
 9799TIP3    H250889   2.607   6.342   1.665 -0.4444  0.0059  0.0182
 9800TIP3   OH250890   5.038   0.161  14.288  0.0262  0.3857  0.3220
 9800TIP3    H150891   4.953   0.121  14.268 -0.3490  1.6096 -0.5896
 9800TIP3    H250892   5.088   0.091  14.329 -1.2645 -0.4876  0.4439
 9801TIP3   OH250893   6.084   3.894  14.045 -0.1431 -0.0924  0.4075
 9801TIP3    H150894   6.029   3.962  14.083  0.7084  0.8583 -0.0249
 9801TIP3    H250895   6.027   3.817  14.039 -1.0365  0.4962  1.1521
 9802TIP3   OH250896   2.828   6.002   1.762 -0.1355  1.2076 -0.1349
 9802TIP3    H150897   2.761   5.950   1.806  0.2750  0.7284 -0.0721
 9802TIP3    H250898   2.802   6.003   1.670  1.8285 -2.2928 -0.8393
 9803TIP3   OH250899   4.661   6.072  14.127  0.0705  0.1367 -0.1248
 9803TIP3    H150900   4.716   6.119  14.190 -1.7339 -0.5950  2.0607
 9803TIP3    H250901   4.619   6.140  14.076 -0.5700  0.8525  1.3257
 9804TIP3   OH250902   5.381   1.029  13.738  0.7184  0.0552  0.7771
 9804TIP3    H150903   5.341   1.091  13.798  0.5068 -0.7564  1.4900
 9804TIP3    H250904   5.312   0.965  13.721  0.8708  0.1245 -0.1003
 9805TIP3   OH250905   3.021   6.713  11.792 -0.4742  0.6195  0.6357
 9805TIP3    H150906   2.954   6.776  11.818 -0.2436  0.6487  1.1595
 9805TIP3    H250907   2.972   6.632  11.773 -0.6643  0.6478  0.9892
 9806TIP3   OH250908   6.711   6.159  14.138 -0.0373  0.1157  0.0038
 9806TIP3    H150909   6.627   6.196  14.164 -0.5487  0.3965 -1.9241
 9806TIP3    H250910   6.755   6.231  14.092  0.0578 -0.8628 -1.4729
 9807TIP3   OH250911   5.654   4.689   1.372  0.1889 -0.5930 -0.2917
 9807TIP3    H150912   5.627   4.602   1.341 -2.6118  0.1330 -0.0650
 9807TIP3    H250913   5.609   4.699   1.456  2.8316 -0.0592  1.1170
 9808TIP3   OH250914   0.517   0.483  12.957 -0.0411 -0.2129  0.2624
 9808TIP3    H150915   0.505   0.560  13.013 -0.4291 -1.0091  1.2997
 9808TIP3    H250916   0.507   0.516  12.868 -0.7566  0.8395  0.7214
 9809TIP3   OH250917   0.934   2.034   5.622 -0.2919  0.3760 -0.1134
 9809TIP3    H150918   1.015   1.997   5.655 -0.6449  1.0181  1.5327
 9809TIP3    H250919   0.956   2.124   5.598 -0.1535  0.0635 -1.1801
 9810TIP3   OH250920   2.114   1.856   0.965 -0.1236  1.2771  0.0557
 9810TIP3    H150921   2.131   1.921   0.897 -4.1182 -0.4181 -2.7040
 9810TIP3    H250922   2.034   1.886   1.008 -0.9551 -0.7810  0.0102
 9811TIP3   OH250923   4.159   6.469  11.560 -0.3191 -0.3046  0.4296
 9811TIP3    H150924   4.074   6.511  11.546  1.0707  1.9788 -1.5860
 9811TIP3    H250925   4.197   6.464  11.472  2.5110  0.7102  1.5550
 9812TIP3   OH250926   0.084   0.093   2.397 -0.3750  0.4636 -0.7645
 9812TIP3    H150927   0.104   0.005   2.365 -1.1574  0.2473 -0.6782
 9812TIP3    H250928   0.163   0.121   2.444 -1.2823 -1.5111  2.0451
 9813TIP3   OH250929   3.865   5.136  15.449  0.1008  0.2659  0.1901
 9813TIP3    H150930   3.842   5.154  15.357 -1.1835  3.6641  1.1206
 9813TIP3    H250931   3.945   5.083  15.443  1.4565  2.4733 -2.9128
 9814TIP3   OH250932   6.692   4.373  17.127 -0.4786  0.1951 -0.2246
 9814TIP3    H150933   6.643   4.382  17.045  0.1381 -0.0415 -0.6253
 9814TIP3    H250934   6.783   4.386  17.101 -0.3136  0.4702  0.4850
 9815TIP3   OH250935   2.211   4.577  15.378 -0.3070 -0.0065 -0.2857
 9815TIP3    H150936   2.188   4.516  15.449 -2.4716  1.3721  0.2608
 9815TIP3    H250937   2.220   4.522  15.301 -2.6578 -0.9985  0.1050
 9816TIP3   OH250938   6.002   4.051  16.872 -0.1192  0.1944  0.3553
 9816TIP3    H150939   6.049   4.077  16.793 -1.4085 -1.7581 -1.0979
 9816TIP3    H250940   6.058   3.985  16.912  0.2190  0.6989  0.7151
 9817TIP3   OH250941   5.433   4.055  13.652  0.6353 -0.6788 -0.7223
 9817TIP3    H150942   5.384   4.128  13.689  0.9127 -1.2349  0.7460
 9817TIP3    H250943   5.525   4.077  13.668  0.7632 -0.9358 -1.0762
 9818TIP3   OH250944   6.374   6.261   3.021 -0.0448  0.3414 -0.5265
 9818TIP3    H150945   6.449   6.305   3.062  0.3740 -0.3535 -0.5328
 9818TIP3    H250946   6.379   6.171   3.054 -2.6732  1.0464  1.9433
 9819TIP3   OH250947   5.524   0.739   4.509  0.5024 -0.3039  0.0260
 9819TIP3    H150948   5.455   0.675   4.493  0.3182  0.0522 -0.6235
 9819TIP3    H250949   5.509   0.769   4.598  0.9057 -1.5434  0.5259
 9820TIP3   OH250950   1.759   3.518  14.868  0.5342 -0.3842  0.0595
 9820TIP3    H150951   1.776   3.468  14.947  0.3643 -2.3495 -1.1330
 9820TIP3    H250952   1.842   3.564  14.850  0.3462  0.6523  1.7505
 9821TIP3   OH250953   2.047   5.485   1.551  0.1191  0.9271  0.5814
 9821TIP3    H150954   2.123   5.542   1.565  1.8688 -0.9444 -0.9555
 9821TIP3    H250955   1.996   5.493   1.632  3.5463 -0.1240  2.9676
 9822TIP3   OH250956   2.945   4.422   1.491 -0.3081  0.0278 -0.2185
 9822TIP3    H150957   2.923   4.433   1.584 -0.4885 -1.3870 -0.0844
 9822TIP3    H250958   3.038   4.401   1.490  0.2660  2.4163 -0.5441
 9823TIP3   OH250959   3.982   6.795   6.111 -0.0190  0.2350  0.1501
 9823TIP3    H150960   3.966   6.712   6.156 -0.2597 -0.0123 -0.3767
 9823TIP3    H250961   4.065   6.827   6.146  0.6100 -0.7583 -0.4240
 9824TIP3   OH250962   4.240   1.498   2.817  0.0685 -0.3353  0.0678
 9824TIP3    H150963   4.184   1.512   2.893 -0.5022  0.4199 -0.4760
 9824TIP3    H250964   4.298   1.574   2.814  1.0997 -1.0961  0.6008
 9825TIP3   OH250965   3.046   2.561   6.069 -0.3574 -0.2964 -0.6171
 9825TIP3    H150966   3.106   2.572   5.995  0.7354  0.9596  0.4458
 9825TIP3    H250967   2.996   2.482   6.047  0.5754 -0.4518 -2.2693
 9826TIP3   OH250968   3.783   3.530   6.402  0.0888 -0.0546 -0.4032
 9826TIP3    H150969   3.700   3.492   6.429  1.2641 -0.6099  2.6584
 9826TIP3    H250970   3.837   3.455   6.377  0.3563  0.1249 -0.3750
 9827TIP3   OH250971   2.303   1.540  13.144  0.1143  0.6956  0.2114
 9827TIP3    H150972   2.330   1.632  13.141  0.7420  0.5006 -0.1398
 9827TIP3    H250973   2.373   1.496  13.192  1.0246 -0.0203 -1.7489
 9828TIP3   OH250974   4.806   2.441   4.101  0.4027 -0.3414 -0.3246
 9828TIP3    H150975   4.788   2.404   4.015  0.8604 -0.5606 -0.3290
 9828TIP3    H250976   4.815   2.366   4.159  1.2188 -0.2410 -0.3135
 9829TIP3   OH250977   2.869   2.065   2.114 -0.3248  0.2374  0.1720
 9829TIP3    H150978   2.810   2.123   2.066  1.9495  1.4831 -1.2058
 9829TIP3    H250979   2.868   2.098   2.204 -0.5188  1.2189 -0.1887
 9830TIP3   OH250980   3.478   3.469   1.505 -0.4458  0.0902 -0.0938
 9830TIP3    H150981   3.438   3.540   1.455 -0.9052 -2.0045 -2.8525
 9830TIP3    H250982   3.404   3.418   1.537 -0.0935 -0.0281  0.5402
 9831TIP3   OH250983   3.846   3.423   4.627 -0.4379  0.2720 -0.1019
 9831TIP3    H150984   3.920   3.484   4.634 -0.9481  0.9392 -0.5106
 9831TIP3    H250985   3.810   3.439   4.540  0.3661 -1.7126 -0.8129
 9832TIP3   OH250986   1.747   5.306  13.342 -0.0643 -0.4444 -0.6531
 9832TIP3    H150987   1.661   5.328  13.377  0.5379 -0.6008  0.9597
 9832TIP3    H250988   1.764   5.217  13.374  0.6119 -0.4785 -1.1024
 9833TIP3   OH250989   0.320   6.418  15.966  0.1667  0.5902  0.4390
 9833TIP3    H150990   0.371   6.463  15.899  0.9188 -0.2717  0.4162
 9833TIP3    H250991   0.260   6.363  15.916 -0.3470  1.1291  0.4684
 9834TIP3   OH250992   2.127   4.648  11.874  0.4627  0.3955 -0.6014
 9834TIP3    H150993   2.187   4.606  11.813  4.1323 -2.0552  4.2999
 9834TIP3    H250994   2.048   4.593  11.872  0.4645  0.4334 -3.0902
 9835TIP3   OH250995   3.700   6.814  11.145 -0.5181  0.3068  0.6453
 9835TIP3    H150996   3.730   6.756  11.215 -2.2680 -0.4130  0.8289
 9835TIP3    H250997   3.605   6.820  11.158 -0.6035  1.7100 -0.5128
 9836TIP3   OH250998   0.129   4.458   4.328  0.1333 -0.0343  0.2291
 9836TIP3    H150999   0.201   4.477   4.267 -0.0674 -0.9492 -0.2990
 9836TIP3    H251000   0.073   4.397   4.281 -1.6942  1.6682  0.1410
 9837TIP3   OH251001   1.382   6.062   3.098 -0.2430  0.1361 -0.2481
 9837TIP3    H151002   1.459   6.046   3.042 -0.5150 -1.3567 -0.2222
 9837TIP3    H251003   1.326   6.118   3.045  0.3768  0.3383 -0.7053
 9838TIP3   OH251004   6.023   0.170   1.380 -0.7309 -0.3121  0.3235
 9838TIP3    H151005   6.011   0.100   1.444 -1.2111 -0.3434  0.2013
 9838TIP3    H251006   6.016   0.251   1.430 -1.1701 -0.3354  0.2979
 9839TIP3   OH251007   3.139   3.737   1.737  0.1686  0.9017  0.5717
 9839TIP3    H151008   3.130   3.821   1.691  0.6545  1.5519  1.6342
 9839TIP3    H251009   3.062   3.732   1.794  0.8832  1.3181  1.5847
 9840TIP3   OH251010   0.452   6.522  11.797 -0.0000 -0.4632 -0.8585
 9840TIP3    H151011   0.434   6.438  11.839  1.4622  0.5082  1.8182
 9840TIP3    H251012   0.366   6.565  11.792 -0.3070 -0.8772  0.5637
 9841TIP3   OH251013   4.400   5.391   0.322  0.1915 -0.3276  0.3538
 9841TIP3    H151014   4.438   5.304   0.307  0.0366 -0.0167 -2.0798
 9841TIP3    H251015   4.310   5.383   0.291  0.7595  1.2240 -1.7655
 9842TIP3   OH251016   6.657   2.632   6.367 -0.4228  0.6943  0.4103
 9842TIP3    H151017   6.688   2.704   6.422  2.1058  0.8070 -1.0944
 9842TIP3    H251018   6.736   2.582   6.345 -1.8950 -1.4916 -0.0836
 9843TIP3   OH251019   2.114   5.188   3.908  0.0531 -0.6831 -0.1131
 9843TIP3    H151020   2.201   5.155   3.934 -0.0290  0.5979  1.8631
 9843TIP3    H251021   2.053   5.122   3.941  0.1655 -0.7554 -0.0477
 9844TIP3   OH251022   1.469   5.650   2.226 -0.3056  0.4423  1.1912
 9844TIP3    H151023   1.524   5.664   2.303 -0.6898 -0.4210  1.6394
 9844TIP3    H251024   1.414   5.575   2.250  0.6306 -0.8378 -0.4872
 9845TIP3   OH251025   3.781   3.166   3.529  0.7582  0.1270  0.0170
 9845TIP3    H151026   3.777   3.190   3.621 -3.1255 -1.3339  0.3149
 9845TIP3    H251027   3.785   3.250   3.483 -0.1696  0.9811  1.4456
 9846TIP3   OH251028   1.234   0.046   5.268 -0.5654 -0.0826  0.7564
 9846TIP3    H151029   1.314   0.013   5.310 -1.0869  0.6202  2.3407
 9846TIP3    H251030   1.192   0.099   5.335 -1.4058  1.1234 -0.6940
 9847TIP3   OH251031   5.046   0.100  14.673 -0.0561  0.0315 -0.4457
 9847TIP3    H151032   5.099   0.067  14.745 -0.2931 -0.8028 -0.6501
 9847TIP3    H251033   4.975   0.036  14.663 -0.5978  0.6712 -0.7498
 9848TIP3   OH251034   4.732   2.539  11.976 -0.5122  0.5718  0.8277
 9848TIP3    H151035   4.704   2.450  11.952 -0.7013  0.5066  1.2839
 9848TIP3    H251036   4.711   2.592  11.899  0.3238  0.0750  0.2547
 9849TIP3   OH251037   5.045   1.226  16.042 -0.4094  0.1372 -0.0158
 9849TIP3    H151038   4.954   1.201  16.028 -1.1234  1.9744  1.1770
 9849TIP3    H251039   5.041   1.306  16.094  1.7880  1.9083 -2.4088
 9850TIP3   OH251040   1.208   4.052   4.230  0.0165  0.9940 -0.0131
 9850TIP3    H151041   1.289   4.087   4.267  0.1594 -1.4521  2.1405
 9850TIP3    H251042   1.142   4.069   4.298 -0.4952 -0.2488 -0.1783
 9851TIP3   OH251043   0.463   0.390  11.106  0.4977 -0.0173  0.2086
 9851TIP3    H151044   0.412   0.404  11.186  0.6268  0.2890  0.2366
 9851TIP3    H251045   0.426   0.310  11.068 -1.0596  1.0439 -0.5806
 9852TIP3   OH251046   4.990   5.102   1.357 -0.1690  0.4171 -0.3205
 9852TIP3    H151047   5.030   5.058   1.431 -0.1720  0.6260 -0.1938
 9852TIP3    H251048   4.905   5.131   1.389 -1.8884 -3.0432 -1.6107
 9853TIP3   OH251049   6.301   1.418   1.940  0.3066 -0.3130 -0.3705
 9853TIP3    H151050   6.394   1.399   1.933  0.3279  0.0201 -1.0165
 9853TIP3    H251051   6.280   1.469   1.862 -0.6176 -1.2157 -0.7450
 9854TIP3   OH251052   3.290   6.163   2.873  0.3397 -0.0644 -0.3362
 9854TIP3    H151053   3.213   6.114   2.844  0.1569  0.3876 -0.6253
 9854TIP3    H251054   3.299   6.234   2.810  1.2708 -0.3760 -0.5617
 9855TIP3   OH251055   0.527   4.739   1.974  0.2095  0.2058 -0.0967
 9855TIP3    H151056   0.539   4.741   1.879  0.5458 -0.7422 -0.0841
 9855TIP3    H251057   0.589   4.673   2.004 -0.8283 -0.4448  0.6475
 9856TIP3   OH251058   1.861   2.113   4.088  0.0468  0.2188 -0.1937
 9856TIP3    H151059   1.935   2.085   4.142  0.1716  1.9993  0.5799
 9856TIP3    H251060   1.793   2.047   4.104  0.2894  0.4010  1.6985
 9857TIP3   OH251061   6.427   4.194  12.674 -0.2773  0.0124 -0.1755
 9857TIP3    H151062   6.401   4.249  12.747 -1.2298 -0.1749 -0.3671
 9857TIP3    H251063   6.509   4.154  12.702  1.4990  3.0491 -0.8320
 9858TIP3   OH251064   3.358   3.679   1.375 -0.6989  0.1969 -0.2031
 9858TIP3    H151065   3.383   3.699   1.285  1.7938 -3.0542 -0.3429
 9858TIP3    H251066   3.359   3.763   1.420  3.5769  1.2122 -1.9786
 9859TIP3   OH251067   2.698   3.180  12.053  0.5177 -0.3186  0.0200
 9859TIP3    H151068   2.634   3.135  11.999  0.5291 -0.6715  0.3013
 9859TIP3    H251069   2.750   3.110  12.092  0.9178 -0.0437 -0.0144
 9860TIP3   OH251070   5.219   2.654   0.394  0.1875  0.1202  0.0558
 9860TIP3    H151071   5.235   2.562   0.414 -2.2123  0.0270  1.8075
 9860TIP3    H251072   5.307   2.694   0.392  1.3831 -2.4990 -2.5411
 9861TIP3   OH251073   5.327   2.608  16.989 -0.0321  0.1178 -0.3623
 9861TIP3    H151074   5.261   2.548  17.023 -0.6802  0.7412 -0.5166
 9861TIP3    H251075   5.308   2.692  17.031 -0.0220  0.5666 -1.2509
 9862TIP3   OH251076   4.264   1.956  11.031 -0.6846 -0.3514 -0.0325
 9862TIP3    H151077   4.226   2.039  11.000 -0.4508  0.4614  1.7640
 9862TIP3    H251078   4.346   1.949  10.983  0.2363  1.4871  1.1641
 9863TIP3   OH251079   0.274   0.177  16.684  0.1800 -0.8666 -0.7163
 9863TIP3    H151080   0.359   0.218  16.673  1.2126 -2.7670  0.0491
 9863TIP3    H251081   0.283   0.091  16.643 -0.5947 -2.0388  1.5292
 9864TIP3   OH251082   3.653   2.764  15.568 -0.1237  0.1002 -0.3873
 9864TIP3    H151083   3.567   2.792  15.538  0.0944 -0.3984 -1.5086
 9864TIP3    H251084   3.636   2.705  15.641 -0.8053 -1.2654 -1.6286
 9865TIP3   OH251085   3.525   4.027  16.236 -0.1865  0.7324  0.4038
 9865TIP3    H151086   3.607   3.979  16.250  0.4338  2.0308  1.2155
 9865TIP3    H251087   3.495   4.050  16.324  0.8818  4.1056 -0.0494
 9866TIP3   OH251088   6.089   0.581  11.454  0.1991  0.3385  0.1803
 9866TIP3    H151089   6.166   0.636  11.439  0.8368 -1.0097 -1.6500
 9866TIP3    H251090   6.031   0.599  11.380  0.1109 -0.9237 -0.0696
 9867TIP3   OH251091   6.365   6.262  14.647 -0.3998 -0.1299  0.0454
 9867TIP3    H151092   6.428   6.316  14.599  0.9458 -0.5055  1.3640
 9867TIP3    H251093   6.327   6.323  14.710  0.9716 -0.6507  1.3965
 9868TIP3   OH251094   6.814   5.464   1.237 -0.3283  0.0571  0.2292
 9868TIP3    H151095   6.893   5.484   1.187  0.0714  2.3793  1.6666
 9868TIP3    H251096   6.742   5.480   1.176  0.1615  2.5145  0.2461
 9869TIP3   OH251097   3.606   6.627  17.217  0.5570  0.0573 -0.6227
 9869TIP3    H151098   3.554   6.682  17.276 -1.2453 -1.0564 -1.1447
 9869TIP3    H251099   3.649   6.688  17.158 -1.5323  0.9468 -1.2803
 9870TIP3   OH251100   5.044   1.675  15.309 -0.1190  0.2284 -0.0025
 9870TIP3    H151101   5.104   1.675  15.384  1.1215 -1.4045 -0.9537
 9870TIP3    H251102   5.090   1.724  15.242 -0.0176 -0.6658 -0.5952
 9871TIP3   OH251103   6.559   2.566  12.079 -0.4432 -0.1714 -0.3759
 9871TIP3    H151104   6.471   2.563  12.117 -1.3377 -2.3560 -2.5338
 9871TIP3    H251105   6.616   2.585  12.153 -2.6407  0.5019  1.2009
 9872TIP3   OH251106   1.083   5.460   4.479  0.0012  0.1049  0.1765
 9872TIP3    H151107   1.087   5.494   4.390 -0.0349  0.1332  0.1857
 9872TIP3    H251108   1.166   5.413   4.491 -0.7482 -1.4204 -0.4905
 9873TIP3   OH251109   6.220   2.950   3.030 -0.2992  0.2804  0.1315
 9873TIP3    H151110   6.292   2.925   2.972 -0.9693  0.9624 -1.0154
 9873TIP3    H251111   6.211   2.877   3.090  0.3664 -0.4706 -0.6674
 9874TIP3   OH251112   4.936   1.337  13.485  0.3538 -0.4267 -0.2469
 9874TIP3    H151113   4.931   1.242  13.472  0.1496 -0.5002  0.3713
 9874TIP3    H251114   4.864   1.357  13.544 -1.2352  0.5078 -2.4507
 9875TIP3   OH251115   6.222   5.242   0.383  0.3277  0.2515 -0.5367
 9875TIP3    H151116   6.207   5.232   0.289 -0.2217  2.7650 -0.7546
 9875TIP3    H251117   6.136   5.266   0.419  1.0390  1.8582  0.1809
 9876TIP3   OH251118   2.628   6.700  12.251  0.1081 -0.2519 -0.0541
 9876TIP3    H151119   2.550   6.645  12.251 -2.4028  3.1855 -0.7564
 9876TIP3    H251120   2.634   6.734  12.340  0.4224  0.0718 -0.1962
 9877TIP3   OH251121   1.166   1.650  16.554 -0.3120  0.1837 -0.2495
 9877TIP3    H151122   1.217   1.588  16.607 -0.4122  1.9766  2.0267
 9877TIP3    H251123   1.075   1.626  16.569 -0.2971 -0.2922 -0.8838
 9878TIP3   OH251124   3.556   1.212  11.610  0.1074  0.1290  0.2124
 9878TIP3    H151125   3.617   1.281  11.635 -0.2704 -0.0754  1.6996
 9878TIP3    H251126   3.603   1.131  11.626  0.6519  0.0225 -1.7916
 9879TIP3   OH251127   6.820   2.363  11.573 -0.0303  1.1130 -0.1130
 9879TIP3    H151128   6.850   2.369  11.663  1.3548  0.0502 -0.4781
 9879TIP3    H251129   6.877   2.422  11.524  0.5831  0.1532 -0.5904
 9880TIP3   OH251130   6.224   0.402  13.026 -0.0501  0.5210  0.0382
 9880TIP3    H151131   6.217   0.326  13.084  0.7441  0.9162  0.6539
 9880TIP3    H251132   6.288   0.375  12.960  0.0972  0.5945  0.1525
 9881TIP3   OH251133   6.424   6.338  16.779 -0.0467  0.3814 -0.0540
 9881TIP3    H151134   6.511   6.369  16.804 -0.4516  1.7093 -0.2916
 9881TIP3    H251135   6.421   6.348  16.684 -1.0128  1.7564  0.1144
 9882TIP3   OH251136   2.242   5.260   3.116 -0.1729  0.0948  0.3229
 9882TIP3    H151137   2.254   5.303   3.201 -1.7957 -0.8805  1.0574
 9882TIP3    H251138   2.178   5.315   3.071  1.2893  1.0711 -0.6246
 9883TIP3   OH251139   6.678   5.505  14.514 -0.3063  0.7377 -0.0993
 9883TIP3    H151140   6.593   5.502  14.469  0.9165 -0.2623 -2.4512
 9883TIP3    H251141   6.690   5.598  14.534 -2.1186  0.8443  0.6397
 9884TIP3   OH251142   4.664   0.633   2.685 -0.1725 -0.1248 -0.7974
 9884TIP3    H151143   4.573   0.648   2.661 -0.3495 -0.1739 -0.1501
 9884TIP3    H251144   4.682   0.697   2.753  0.6338  0.6883 -1.7458
 9885TIP3   OH251145   4.810   0.452  11.249  0.2731  0.4712 -0.2508
 9885TIP3    H151146   4.874   0.471  11.317  0.7949  0.0326 -0.6191
 9885TIP3    H251147   4.862   0.428  11.172 -0.2030  3.3387 -1.5566
 9886TIP3   OH251148   6.066   5.362   2.666  0.0825  0.1852 -0.3551
 9886TIP3    H151149   6.100   5.343   2.753 -1.3205 -1.0059 -0.0422
 9886TIP3    H251150   6.083   5.456   2.653  0.8551  0.2277  0.9324
 9887TIP3   OH251151   4.592   4.732  11.025  0.0986 -0.1468  0.2199
 9887TIP3    H151152   4.643   4.660  10.989 -0.0906 -0.7843  1.2026
 9887TIP3    H251153   4.509   4.729  10.977 -0.2530 -1.1602  0.8706
 9888TIP3   OH251154   2.266   3.188   0.160 -0.0031 -0.0226  0.5016
 9888TIP3    H151155   2.182   3.147   0.137  0.2211  0.5492 -1.4641
 9888TIP3    H251156   2.261   3.275   0.121  1.8933 -0.3355 -0.4967
 9889TIP3   OH251157   0.436   3.810  17.133  0.1945 -0.8511 -0.0945
 9889TIP3    H151158   0.513   3.766  17.169  1.1166  0.8651  0.0595
 9889TIP3    H251159   0.428   3.891  17.184 -1.0193 -0.4678 -0.8798
 9890TIP3   OH251160   1.741   2.487  15.387  0.3905  0.0555  0.1515
 9890TIP3    H151161   1.783   2.418  15.336  1.5939  0.0490  1.1382
 9890TIP3    H251162   1.648   2.462  15.391  0.8585 -1.6193  0.6968
 9891TIP3   OH251163   5.489   3.576  14.797  0.2851  0.2828 -0.1601
 9891TIP3    H151164   5.471   3.500  14.743  0.8889  0.7277 -0.9910
 9891TIP3    H251165   5.583   3.573  14.812  0.3119  0.8548 -0.1861
 9892TIP3   OH251166   2.787   1.851  13.834 -0.6553  0.0037  0.1605
 9892TIP3    H151167   2.753   1.825  13.920  0.9444 -0.5283  0.6507
 9892TIP3    H251168   2.882   1.855  13.847 -0.5419  1.8708 -1.0523
 9893TIP3   OH251169   6.101   3.638   3.355 -0.2063 -0.3908 -0.7304
 9893TIP3    H151170   6.032   3.651   3.289 -0.4758  0.5700 -0.2593
 9893TIP3    H251171   6.154   3.717   3.350 -1.0410  0.2941  1.1824
 9894TIP3   OH251172   5.347   1.206  11.734 -0.1847 -0.3107  0.3548
 9894TIP3    H151173   5.354   1.178  11.642  0.5857  0.6028  0.1274
 9894TIP3    H251174   5.436   1.230  11.758 -1.0138  3.2735  0.1116
 9895TIP3   OH251175   1.275   3.784  15.866  0.4840  0.1314  0.4124
 9895TIP3    H151176   1.270   3.878  15.886 -2.4360  0.0850  0.1354
 9895TIP3    H251177   1.254   3.742  15.949  1.1387 -0.2781  0.3697
 9896TIP3   OH251178   1.019   2.879  11.699  0.2699  0.3537  0.0618
 9896TIP3    H151179   1.109   2.899  11.723 -0.1566  1.1264  1.0943
 9896TIP3    H251180   1.003   2.928  11.619  0.9489 -0.2706 -0.4608
 9897TIP3   OH251181   5.096   5.431  16.711  0.3632 -0.6358  0.3073
 9897TIP3    H151182   5.146   5.505  16.744 -0.0850  1.2585 -3.0100
 9897TIP3    H251183   5.032   5.470  16.651  0.0254 -3.6629 -1.4337
 9898TIP3   OH251184   1.657   3.938  16.205  0.4076  0.0786 -0.3891
 9898TIP3    H151185   1.703   3.965  16.125 -0.4833 -0.1925 -1.0047
 9898TIP3    H251186   1.611   3.859  16.180  0.1407 -0.0245  0.4147
 9899TIP3   OH251187   3.063   4.632   4.829  0.1584  0.6155  0.1265
 9899TIP3    H151188   3.054   4.722   4.860  1.5746  0.6709  0.4070
 9899TIP3    H251189   3.059   4.579   4.908  1.0944  0.5617  0.1397
 9900TIP3   OH251190   6.297   6.187  16.414 -0.3863 -0.1247  0.5652
 9900TIP3    H151191   6.338   6.101  16.410 -1.3842 -0.6431  1.2196
 9900TIP3    H251192   6.246   6.194  16.334 -0.1721 -0.0705  0.4329
 9901TIP3   OH251193   3.249   5.711   2.296  0.0323 -0.1500  0.1553
 9901TIP3    H151194   3.281   5.799   2.276  2.4632 -0.7243  1.2982
 9901TIP3    H251195   3.243   5.668   2.212  3.3439 -0.3304 -0.0506
 9902TIP3   OH251196   3.384   6.736  17.053 -0.4799 -0.1197  0.1288
 9902TIP3    H151197   3.427   6.763  17.134  0.7577  1.0339 -0.8781
 9902TIP3    H251198   3.314   6.677  17.081 -0.1871  0.4083  2.0379
 9903TIP3   OH251199   2.037   4.516  15.632 -0.5572  0.1903  0.3852
 9903TIP3    H151200   2.089   4.595  15.619  0.7861 -0.5022  1.3700
 9903TIP3    H251201   2.100   4.450  15.661 -1.5701 -1.3812 -0.8927
 9904TIP3   OH251202   3.637   3.302  13.233 -0.0802 -0.3043 -0.6880
 9904TIP3    H151203   3.696   3.234  13.199  0.3517 -0.4288  0.2856
 9904TIP3    H251204   3.646   3.374  13.171  1.6417 -0.0640 -0.2102
 9905TIP3   OH251205   0.108   2.667   1.307  0.3994  0.0245 -0.1459
 9905TIP3    H151206   0.120   2.582   1.349  0.6448  0.5061  0.7770
 9905TIP3    H251207   0.054   2.716   1.368  0.2136  0.5230 -0.7033
 9906TIP3   OH251208   6.808   3.564  13.711 -0.2218 -0.0471 -0.4563
 9906TIP3    H151209   6.787   3.638  13.655 -0.0906 -0.2088 -0.7260
 9906TIP3    H251210   6.763   3.490  13.671 -0.5472 -0.0692 -0.0538
 9907TIP3   OH251211   1.542   3.911  16.706  0.6041 -0.1061 -0.7688
 9907TIP3    H151212   1.550   3.973  16.633 -0.4725 -2.4772 -3.0139
 9907TIP3    H251213   1.464   3.860  16.685  1.2768 -1.9832  1.1487
 9908TIP3   OH251214   4.687   4.957  15.753 -0.1130 -1.0927 -0.1408
 9908TIP3    H151215   4.743   4.988  15.682 -0.7328 -0.9992 -0.6025
 9908TIP3    H251216   4.746   4.942  15.827  0.5767 -1.4732 -0.7663
 9909TIP3   OH251217   0.846   6.697  12.402 -0.7469  0.2789 -0.3878
 9909TIP3    H151218   0.786   6.644  12.455  0.7713  0.4567  1.5856
 9909TIP3    H251219   0.848   6.653  12.317 -1.4639 -1.3717  0.4189
 9910TIP3   OH251220   2.721   0.637   0.413  0.2278  0.6474 -0.1035
 9910TIP3    H151221   2.637   0.662   0.375  0.1700 -0.9187 -1.0460
 9910TIP3    H251222   2.730   0.692   0.491 -1.7521  0.6893  0.1121
 9911TIP3   OH251223   0.231   3.523   1.973  0.1566 -0.0992 -0.3798
 9911TIP3    H151224   0.284   3.463   2.025 -0.0135 -2.3530 -2.6820
 9911TIP3    H251225   0.141   3.495   1.987 -0.6142  3.8085  3.6235
 9912TIP3   OH251226   2.380   4.145  15.585 -0.1096 -0.5033  0.3998
 9912TIP3    H151227   2.385   4.120  15.677 -0.8606 -0.9141  0.3257
 9912TIP3    H251228   2.396   4.064  15.537 -2.1777 -0.8062  0.1681
 9913TIP3   OH251229   3.837   5.789   1.120 -0.4571 -0.5968  0.3636
 9913TIP3    H151230   3.758   5.831   1.153 -1.4172 -2.2676  0.2841
 9913TIP3    H251231   3.864   5.730   1.191  1.1082  0.4335  0.6580
 9914TIP3   OH251232   2.454   6.019  16.841  0.3232 -0.0424 -0.1179
 9914TIP3    H151233   2.449   6.094  16.782 -0.6229 -0.1298 -0.1586
 9914TIP3    H251234   2.546   6.014  16.866  0.4957  0.7738 -0.5793
 9915TIP3   OH251235   2.834   1.214   1.659  0.5226  0.1473 -1.0971
 9915TIP3    H151236   2.843   1.179   1.571 -0.3967 -1.0727 -0.7154
 9915TIP3    H251237   2.824   1.137   1.715 -1.1016  0.9906 -0.1898
 9916TIP3   OH251238   4.819   6.332  14.770  0.4775 -0.7295 -0.1865
 9916TIP3    H151239   4.751   6.391  14.737 -0.2427 -1.7229 -0.5129
 9916TIP3    H251240   4.771   6.268  14.823  1.4331 -0.0788  1.5249
 9917TIP3   OH251241   0.755   1.287   2.066 -0.0154  0.0507  0.8277
 9917TIP3    H151242   0.760   1.378   2.036 -1.0886 -0.5630 -1.3665
 9917TIP3    H251243   0.847   1.258   2.070  0.2221  0.4547 -1.0780
 9918TIP3   OH251244   5.772   2.898  14.323  0.2569 -0.4288 -0.4109
 9918TIP3    H151245   5.732   2.840  14.258 -1.8301 -0.5710  0.9372
 9918TIP3    H251246   5.750   2.858  14.408 -0.2919  1.7136  0.5102
 9919TIP3   OH251247   4.967   0.061   2.803  0.2882  0.6919  0.4860
 9919TIP3    H151248   4.997   0.071   2.713  0.6271  0.5883  0.5881
 9919TIP3    H251249   4.902  -0.009   2.799  2.8089 -1.7365  0.8908
 9920TIP3   OH251250   1.404   2.817   0.450 -0.1305  0.2973  0.0111
 9920TIP3    H151251   1.492   2.779   0.450 -0.2091  0.1149  0.5647
 9920TIP3    H251252   1.363   2.782   0.371  0.0939 -0.0845  0.0626
 9921TIP3   OH251253   3.066   3.806  14.087  0.9685  0.1611 -0.5870
 9921TIP3    H151254   3.077   3.900  14.079  0.8584  0.1709 -0.6209
 9921TIP3    H251255   2.978   3.789  14.053  0.3356  0.2521  0.9837
 9922TIP3   OH251256   2.855   3.238   3.993 -0.2587 -0.3084  0.1746
 9922TIP3    H151257   2.926   3.190   3.950 -0.0889  0.0416  0.0601
 9922TIP3    H251258   2.876   3.330   3.978 -1.5764 -0.2181 -1.2259
 9923TIP3   OH251259   2.317   4.184  12.753 -0.1557 -0.0377  0.7866
 9923TIP3    H151260   2.346   4.258  12.806  0.6730 -1.6029  2.5738
 9923TIP3    H251261   2.364   4.109  12.789  0.2090 -1.1997 -1.9990
 9924TIP3   OH251262   5.769   6.753   5.349 -0.1612  0.6794 -0.0929
 9924TIP3    H151263   5.839   6.811   5.379  0.3915  0.3934 -0.8172
 9924TIP3    H251264   5.717   6.807   5.290 -0.8851  1.0591  0.8848
 9925TIP3   OH251265   5.744   4.846   2.416  0.4272  0.3672  0.5127
 9925TIP3    H151266   5.707   4.933   2.427 -0.4841 -0.1450  1.6696
 9925TIP3    H251267   5.837   4.861   2.398  0.0847  1.5966 -0.2779
 9926TIP3   OH251268   3.205   3.456   3.429  0.2381 -0.3031  0.6647
 9926TIP3    H151269   3.290   3.500   3.439  0.9346 -1.0469 -1.6884
 9926TIP3    H251270   3.141   3.525   3.442  1.2833  0.9442 -0.6472
 9927TIP3   OH251271   5.752   2.474  16.872  0.1705  0.0458  0.5443
 9927TIP3    H151272   5.714   2.500  16.788 -0.0378  0.3442  0.7325
 9927TIP3    H251273   5.692   2.509  16.938 -0.0943 -0.8748  0.7973
 9928TIP3   OH251274   4.575   2.163  13.196  0.0512 -0.2234 -0.6465
 9928TIP3    H151275   4.575   2.253  13.165  0.6710 -0.0655 -0.1989
 9928TIP3    H251276   4.544   2.169  13.286 -3.1028 -0.8346 -1.6331
 9929TIP3   OH251277   1.892   5.445   4.799 -0.0238  0.0809  0.3711
 9929TIP3    H151278   1.876   5.357   4.833  0.8576 -0.2636 -0.0734
 9929TIP3    H251279   1.987   5.456   4.806 -0.0957  0.8729  0.1360
 9930TIP3   OH251280   4.269   1.695   6.646 -0.5421 -0.2231 -0.1258
 9930TIP3    H151281   4.286   1.746   6.725  0.4971 -0.1882 -0.3698
 9930TIP3    H251282   4.173   1.692   6.639 -0.6382 -0.2924  1.1738
 9931TIP3   OH251283   5.929   4.427  11.557  0.6534 -0.1687 -0.4451
 9931TIP3    H151284   5.978   4.358  11.513  3.3980  0.4677  1.4341
 9931TIP3    H251285   5.984   4.450  11.633 -2.3129  1.0286  1.4093
 9932TIP3   OH251286   6.672   4.229  16.771 -0.3703  0.0002  0.4183
 9932TIP3    H151287   6.609   4.174  16.819  0.1292 -1.6970 -0.7903
 9932TIP3    H251288   6.702   4.173  16.699  0.4426  1.7624 -0.6509
 9933TIP3   OH251289   5.173   0.861  11.855 -0.4505 -0.4480  0.2395
 9933TIP3    H151290   5.135   0.943  11.823 -1.6784  0.2762  3.3501
 9933TIP3    H251291   5.125   0.793  11.808  1.0815  0.5478 -2.9190
 9934TIP3   OH251292   3.940   5.406   5.024  0.1664  0.1888 -0.7559
 9934TIP3    H151293   4.029   5.374   5.010  0.7615  0.9054  1.3396
 9934TIP3    H251294   3.891   5.373   4.948  1.7366 -1.9372 -0.8870
 9935TIP3   OH251295   3.230   0.673  15.022  0.1869  0.1057  0.9560
 9935TIP3    H151296   3.294   0.602  15.023 -0.3449 -0.3786  0.1042
 9935TIP3    H251297   3.264   0.736  15.087  0.5508 -0.9948  1.8417
 9936TIP3   OH251298   3.342   6.144   3.128  0.1652 -0.0179  0.0095
 9936TIP3    H151299   3.331   6.135   3.034  0.2019  0.3451 -0.0302
 9936TIP3    H251300   3.414   6.085   3.149 -0.8801 -1.3207  0.0574
 9937TIP3   OH251301   6.059   6.258   1.976  0.7829 -0.2451 -0.5563
 9937TIP3    H151302   6.066   6.238   1.882 -1.4926 -0.5699 -0.6707
 9937TIP3    H251303   6.122   6.330   1.989  0.5094  0.3876 -2.5147
 9938TIP3   OH251304   6.194   6.549  13.553 -0.5524  0.5217  0.5458
 9938TIP3    H151305   6.098   6.542  13.554 -0.4245 -2.5088 -2.1345
 9938TIP3    H251306   6.224   6.463  13.583  1.3433  0.8232 -0.4632
 9939TIP3   OH251307   6.752   6.221   6.010 -0.1193 -0.1196  0.1474
 9939TIP3    H151308   6.686   6.291   6.006 -0.6882 -0.5342  1.8624
 9939TIP3    H251309   6.720   6.163   6.079  0.8181 -1.6063 -0.6623
 9940TIP3   OH251310   2.474   5.143  16.536 -0.3724  0.1218  0.2056
 9940TIP3    H151311   2.546   5.137  16.473 -2.2829  1.7330 -2.2410
 9940TIP3    H251312   2.463   5.237  16.551  0.3396 -0.2454  3.3691
 9941TIP3   OH251313   3.598   4.290   2.468  0.0471  0.8249  0.3068
 9941TIP3    H151314   3.509   4.277   2.501  0.7169 -0.4645  1.6274
 9941TIP3    H251315   3.625   4.373   2.506 -0.4271  1.0166  0.2346
 9942TIP3   OH251316   5.300   6.811  11.224  0.3811  0.2195  0.2047
 9942TIP3    H151317   5.328   6.845  11.139  2.6820  0.4502  1.0106
 9942TIP3    H251318   5.204   6.805  11.218  0.4587  0.9602 -2.1079
 9943TIP3   OH251319   3.779   6.290   2.498 -0.9050  0.0442 -0.2100
 9943TIP3    H151320   3.837   6.362   2.525  0.7490 -1.1096 -0.6056
 9943TIP3    H251321   3.799   6.219   2.559 -2.9388  0.0929  0.5287
 9944TIP3   OH251322   2.252   6.612   0.612  0.2102  0.2101  1.1829
 9944TIP3    H151323   2.181   6.551   0.631 -0.0987  0.2851  0.2943
 9944TIP3    H251324   2.292   6.577   0.532  0.9576  0.3565  1.4905
 9945TIP3   OH251325   4.970   3.620  11.066 -0.3930  0.3665  0.3678
 9945TIP3    H151326   5.045   3.672  11.096 -0.7849  1.3789 -0.3620
 9945TIP3    H251327   4.973   3.627  10.970  0.1573 -1.8458  0.2162
 9946TIP3   OH251328   5.088   4.106   1.509 -0.1676 -0.0579 -0.2195
 9946TIP3    H151329   5.061   4.025   1.466 -1.2131  0.4676 -0.5441
 9946TIP3    H251330   5.174   4.125   1.472  1.2203 -2.3375  1.6327
 9947TIP3   OH251331   1.064   4.207   0.995 -0.5735  0.3868  0.0694
 9947TIP3    H151332   1.110   4.123   0.996 -0.5715  0.3791  2.0797
 9947TIP3    H251333   1.077   4.240   0.907  2.8299  0.1053  0.3772
 9948TIP3   OH251334   3.822   5.884   0.386  0.2738 -0.2087 -0.2677
 9948TIP3    H151335   3.755   5.952   0.372  0.7494  0.2777 -0.2110
 9948TIP3    H251336   3.809   5.823   0.314  1.0270  0.9095 -1.3658
 9949TIP3   OH251337   5.961   3.133   3.938  0.0080  0.3802 -0.3261
 9949TIP3    H151338   5.990   3.073   4.006 -0.6221 -0.9168 -1.1801
 9949TIP3    H251339   6.040   3.182   3.914  0.3082  0.6036  1.0668
 9950TIP3   OH251340   1.647   0.494  16.268  0.3319  0.2707  0.3552
 9950TIP3    H151341   1.666   0.469  16.177  0.5967  0.2040  0.4297
 9950TIP3    H251342   1.696   0.575  16.282 -1.4034  1.4760 -0.2492
 9951TIP3   OH251343   1.043   5.907   0.034  0.1643  0.0376 -0.5718
 9951TIP3    H151344   1.072   5.816   0.040  1.8191  0.6473  1.7140
 9951TIP3    H251345   1.115   5.952  -0.011 -0.9632  0.1117 -2.3400
 9952TIP3   OH251346   0.986   5.839  16.634  0.4530  0.5405 -0.1451
 9952TIP3    H151347   0.932   5.898  16.687  1.2788  0.5844  0.6624
 9952TIP3    H251348   0.926   5.770  16.606 -0.1769  0.9488  0.1811
 9953TIP3   OH251349   0.324   4.122   5.770  0.3008  0.0878  0.1892
 9953TIP3    H151350   0.281   4.140   5.854 -0.1614  1.3607 -0.3216
 9953TIP3    H251351   0.352   4.031   5.778 -0.6461 -0.1263  1.3360
 9954TIP3   OH251352   0.043   3.804   4.918 -0.7154 -0.3279  0.2251
 9954TIP3    H151353   0.077   3.796   5.007  0.8167 -0.9019 -0.3839
 9954TIP3    H251354  -0.050   3.781   4.925 -0.6300 -0.2615  1.6803
 9955TIP3   OH251355   5.472   4.276  16.383 -0.3219 -0.0322 -0.5145
 9955TIP3    H151356   5.447   4.354  16.433  0.1062  0.7223 -1.4648
 9955TIP3    H251357   5.395   4.220  16.386 -0.0776 -0.3134  1.5905
 9956TIP3   OH251358   4.811   0.584  15.642 -0.4364 -0.2092 -0.4762
 9956TIP3    H151359   4.739   0.557  15.585 -0.2959 -0.1598 -0.6793
 9956TIP3    H251360   4.825   0.510  15.701 -1.7302  0.4108  0.6244
 9957TIP3   OH251361   0.066   1.064   2.658 -0.2332  0.2699 -0.6500
 9957TIP3    H151362   0.037   0.992   2.715  0.2609 -0.4593 -1.3193
 9957TIP3    H251363   0.074   1.025   2.571 -0.4405  1.2534 -1.1186
 9958TIP3   OH251364   3.839   2.204  11.759  0.3360  0.2815 -0.1730
 9958TIP3    H151365   3.848   2.130  11.819  0.0336 -0.3763 -0.9326
 9958TIP3    H251366   3.754   2.242  11.780  0.4732  0.3910  0.1885
 9959TIP3   OH251367   4.502   2.297   1.044  0.1071 -0.3029 -0.2012
 9959TIP3    H151368   4.425   2.349   1.022  1.7167  2.3883  0.2183
 9959TIP3    H251369   4.570   2.329   0.984  1.5502 -0.7879  1.1364
 9960TIP3   OH251370   0.116   6.417  15.045  0.3861 -0.5365 -0.4905
 9960TIP3    H151371   0.113   6.322  15.042  1.1840 -0.5298 -2.9638
 9960TIP3    H251372   0.207   6.438  15.064 -0.1659 -0.2418  2.0362
 9961TIP3   OH251373   1.631   2.098  16.237  0.1061 -0.2320  0.0323
 9961TIP3    H151374   1.709   2.097  16.181  0.7928 -1.7428  0.9857
 9961TIP3    H251375   1.558   2.089  16.176  0.5682  2.2199 -0.9730
 9962TIP3   OH251376   5.649   0.712  16.754  0.5433 -0.0779 -0.2239
 9962TIP3    H151377   5.735   0.724  16.795 -0.3335  0.4627  1.5026
 9962TIP3    H251378   5.634   0.794  16.707  0.4530  0.3021  0.4623
 9963TIP3   OH251379   2.613   2.012   3.794  0.1791  0.0435 -0.1632
 9963TIP3    H151380   2.562   2.081   3.836  0.2258  0.2141 -0.3876
 9963TIP3    H251381   2.602   1.936   3.852 -0.9524 -0.1407 -0.5995
 9964TIP3   OH251382   6.628   1.541   3.305 -0.8193  0.5321 -0.1776
 9964TIP3    H151383   6.697   1.576   3.361 -1.6111 -1.8570  2.4090
 9964TIP3    H251384   6.651   1.449   3.292 -1.0796  0.8457 -3.1794
 9965TIP3   OH251385   5.975   2.419  12.272 -0.5177  0.4095  0.0296
 9965TIP3    H151386   5.971   2.437  12.178  0.5909 -1.2280 -0.3476
 9965TIP3    H251387   6.064   2.445  12.298 -0.7393  0.6318  0.5810
 9966TIP3   OH251388   2.882   2.653   0.981 -0.2938 -0.7773  0.5337
 9966TIP3    H151389   2.943   2.614   1.044  0.8409  1.0150  0.5847
 9966TIP3    H251390   2.913   2.623   0.895  0.1324 -0.5637  0.6152
 9967TIP3   OH251391   4.840   0.080   5.368  0.3378  0.0521 -0.1149
 9967TIP3    H151392   4.805   0.151   5.422 -1.1623  0.6299 -1.7730
 9967TIP3    H251393   4.930   0.105   5.350  0.2124  0.8850  0.3923
 9968TIP3   OH251394   1.323   0.971   5.636 -0.8335  0.1002 -0.1088
 9968TIP3    H151395   1.391   1.038   5.632  0.6250 -1.3629 -0.3370
 9968TIP3    H251396   1.243   1.017   5.609  0.5466  1.2307 -2.4690
 9969TIP3   OH251397   6.032   3.761   2.280 -0.4306 -0.2515 -0.4784
 9969TIP3    H151398   6.014   3.853   2.297 -2.8321 -0.9667  1.1696
 9969TIP3    H251399   6.038   3.722   2.368 -0.5967 -1.8541 -1.1649
 9970TIP3   OH251400   2.564   5.179   0.834  0.3544 -0.5348  0.6704
 9970TIP3    H151401   2.565   5.204   0.927  1.2152 -1.2110  0.8514
 9970TIP3    H251402   2.475   5.146   0.819 -0.6146  1.9680  0.5846
 9971TIP3   OH251403   4.792   3.253  11.895 -0.3500  0.0413 -0.0162
 9971TIP3    H151404   4.747   3.245  11.811 -1.7047 -0.3094  0.7378
 9971TIP3    H251405   4.748   3.189  11.951  0.4004  0.4443  1.0290
 9972TIP3   OH251406   4.430   4.581  14.451  0.1612  0.6882  0.0824
 9972TIP3    H151407   4.404   4.661  14.498 -1.3028  0.7808 -0.8609
 9972TIP3    H251408   4.509   4.607  14.403  0.0524  1.3964  0.2760
 9973TIP3   OH251409   1.166   3.461  11.580  0.4914  0.1592  0.1047
 9973TIP3    H151410   1.134   3.508  11.657  0.0387 -2.6390  1.6774
 9973TIP3    H251411   1.245   3.510  11.554  0.4603  1.3485  2.1093
 9974TIP3   OH251412   2.923   3.034  16.577 -0.2844 -0.1768  0.2669
 9974TIP3    H151413   2.967   3.062  16.497 -2.7925 -1.3644 -1.6013
 9974TIP3    H251414   2.949   2.943  16.589  1.1624  0.3844  1.6118
 9975TIP3   OH251415   4.433   1.986  13.659 -0.4755 -0.1280  0.0893
 9975TIP3    H151416   4.347   1.952  13.632 -2.0918  2.4996  1.7196
 9975TIP3    H251417   4.441   1.958  13.751  0.6457 -0.7472 -0.1893
 9976TIP3   OH251418   4.413   1.755  11.547  0.0448 -0.2680  0.2137
 9976TIP3    H151419   4.416   1.806  11.628 -1.2851  0.9658 -0.4775
 9976TIP3    H251420   4.319   1.740  11.532  0.3591 -1.8366 -0.2790
 9977TIP3   OH251421   3.610   3.343   4.453  0.3736  0.2431  0.6670
 9977TIP3    H151422   3.695   3.328   4.412  0.9981  1.9620  1.2750
 9977TIP3    H251423   3.554   3.372   4.381  0.0956 -1.5520  0.1373
 9978TIP3   OH251424   6.751   6.685  15.651  0.2941  0.3606 -0.1958
 9978TIP3    H151425   6.796   6.600  15.647  0.2715  0.3369  0.0647
 9978TIP3    H251426   6.667   6.669  15.608  0.6106  0.4531 -0.8551
 9979TIP3   OH251427   4.495   0.960  13.419  0.0266  0.4411  0.6722
 9979TIP3    H151428   4.432   0.936  13.487  0.2297  0.9611  1.0464
 9979TIP3    H251429   4.511   0.878  13.371  0.3305 -0.0583  1.6193
 9980TIP3   OH251430   6.225   2.092  16.485  0.4944 -0.1053  0.8817
 9980TIP3    H151431   6.225   2.003  16.521 -0.3180 -0.1355  0.8291
 9980TIP3    H251432   6.179   2.144  16.551 -0.7561 -0.1021  0.0308
 9981TIP3   OH251433   3.483   1.377   6.399 -0.0500 -0.1450  0.2647
 9981TIP3    H151434   3.556   1.431   6.370 -0.3152  0.1686  0.1817
 9981TIP3    H251435   3.433   1.433   6.458 -1.1220  0.1775 -0.9353
 9982TIP3   OH251436   5.243   1.376   4.723  0.3441  0.1706  0.3175
 9982TIP3    H151437   5.148   1.371   4.721  0.2829  1.3851 -0.1249
 9982TIP3    H251438   5.268   1.329   4.802 -0.6288 -0.0867  0.4721
 9983TIP3   OH251439   2.999   1.911  16.402  0.5455 -0.2113 -0.2022
 9983TIP3    H151440   2.927   1.940  16.458  0.5385  2.4464 -1.4997
 9983TIP3    H251441   2.955   1.861  16.332 -0.1416  1.7029 -1.1891
 9984TIP3   OH251442   3.906   3.619   5.973 -0.0808 -0.2471 -0.2766
 9984TIP3    H151443   3.958   3.671   5.911  0.3110  1.2917  1.2984
 9984TIP3    H251444   3.931   3.652   6.059 -0.7531 -2.2303  0.7078
 9985TIP3   OH251445   6.408   1.454   0.429  0.0618 -0.3094  0.0461
 9985TIP3    H151446   6.469   1.528   0.433 -1.8676  1.3688 -0.6666
 9985TIP3    H251447   6.413   1.414   0.515  1.3778  0.4617  0.3352
 9986TIP3   OH251448   0.383   4.131   4.298  0.3834 -0.3847 -0.6366
 9986TIP3    H151449   0.473   4.128   4.266  1.3081 -0.3531  1.8014
 9986TIP3    H251450   0.378   4.059   4.361 -1.1776 -0.1067 -0.4059
 9987TIP3   OH251451   2.730   2.990  15.090 -0.2265 -0.0002  0.2734
 9987TIP3    H151452   2.715   3.041  15.010 -3.8358  0.2283  0.9917
 9987TIP3    H251453   2.741   3.056  15.158 -0.3029 -0.1703  0.4514
 9988TIP3   OH251454   4.882   0.407  14.337  0.2565 -0.1085  0.1611
 9988TIP3    H151455   4.798   0.367  14.317 -0.7669  2.0267  0.0163
 9988TIP3    H251456   4.907   0.371  14.423 -0.9178 -0.5474  0.3198
 9989TIP3   OH251457   0.545   2.286   2.935  0.0802  0.5463 -0.3769
 9989TIP3    H151458   0.612   2.217   2.929 -1.6271 -1.3987  2.1661
 9989TIP3    H251459   0.497   2.280   2.852  0.8274 -0.3554 -0.7567
 9990TIP3   OH251460   0.378   3.034   0.901 -0.3246 -0.2740  0.4217
 9990TIP3    H151461   0.349   3.075   0.819  1.0089 -0.2759 -0.0619
 9990TIP3    H251462   0.349   3.095   0.970 -1.1628 -0.1108 -0.0618
 9991TIP3   OH251463   1.281   5.871  13.423  0.0839 -0.1164 -0.5638
 9991TIP3    H151464   1.346   5.880  13.493  0.6788  1.3218 -1.2998
 9991TIP3    H251465   1.214   5.813  13.461  0.7325  0.0956  0.9573
 9992TIP3   OH251466   0.482   5.262  14.853 -0.7256  0.1195  0.4104
 9992TIP3    H151467   0.405   5.207  14.843  0.3218 -1.3847  0.3873
 9992TIP3    H251468   0.483   5.317  14.775 -1.4857 -0.2040  0.1709
 9993TIP3   OH251469   3.969   4.551  12.387  0.3026 -0.2939 -0.4552
 9993TIP3    H151470   3.962   4.482  12.452 -0.5177 -0.0265 -0.2527
 9993TIP3    H251471   4.047   4.529  12.336  0.2314 -1.1860 -0.1839
 9994TIP3   OH251472   4.920   5.260  11.959 -0.1816  1.0300  0.0221
 9994TIP3    H151473   5.009   5.229  11.941 -0.1272  0.8832  0.5390
 9994TIP3    H251474   4.889   5.293  11.874 -0.4256 -0.9055 -0.6673
 9995TIP3   OH251475   6.507   1.948   1.200  0.0023 -0.5338  0.6753
 9995TIP3    H151476   6.549   2.001   1.267  2.2842 -0.6595 -0.6130
 9995TIP3    H251477   6.487   1.865   1.243  1.2992 -0.5574  1.2506
 9996TIP3   OH251478   4.919   4.210  16.557  0.3255  0.6436  0.3499
 9996TIP3    H151479   4.919   4.200  16.462  0.2140  1.0840  0.3005
 9996TIP3    H251480   4.892   4.301  16.571  3.9361  1.7819  0.6528
 9997TIP3   OH251481   6.538   2.238   4.056  0.3568  0.2122  0.1542
 9997TIP3    H151482   6.551   2.281   3.971  0.4770 -1.2296 -0.5767
 9997TIP3    H251483   6.458   2.186   4.045  0.4159 -0.0456  0.8890
 9998TIP3   OH251484   5.325   3.772  12.499  0.0655 -0.3110  0.1242
 9998TIP3    H151485   5.264   3.798  12.568  0.5801 -0.0852  0.4988
 9998TIP3    H251486   5.332   3.848  12.442  2.6939  0.9331  2.0294
 9999TIP3   OH251487   5.980   4.757  11.163 -0.4729 -0.5364  0.1673
 9999TIP3    H151488   5.928   4.731  11.086  0.9278 -0.5948 -0.7778
 9999TIP3    H251489   6.033   4.831  11.132  0.6886 -1.0765  0.8343
10000TIP3   OH251490   5.056   3.824   2.047 -0.2491  0.0083  0.4407
10000TIP3    H151491   5.105   3.891   1.999  0.8260 -1.6786 -0.8771
10000TIP3    H251492   4.966   3.856   2.048  0.2611  1.5112 -0.1025
10001TIP3   OH251493   1.312   1.567   4.930 -0.0076 -0.0258  0.1339
10001TIP3    H151494   1.373   1.631   4.968  1.4721 -0.4166 -1.5316
10001TIP3    H251495   1.313   1.586   4.836 -1.6659 -0.7258 -0.0361
10002TIP3   OH251496   4.851   0.317   0.340 -0.6344  0.0294  0.0283
10002TIP3    H151497   4.772   0.278   0.302  0.1649 -1.5664 -0.0116
10002TIP3    H251498   4.894   0.360   0.266 -1.6565  1.2466  0.1253
10003TIP3   OH251499   0.499   2.637   3.317  0.1605  0.7077 -0.5156
10003TIP3    H151500   0.499   2.709   3.254 -0.4594  2.0223  0.9304
10003TIP3    H251501   0.529   2.561   3.267 -0.7857  1.5905 -2.5104
10004TIP3   OH251502   5.684   3.259  14.464 -0.6672  0.4983  0.0210
10004TIP3    H151503   5.599   3.248  14.421 -1.9338  3.5040  1.5697
10004TIP3    H251504   5.665   3.244  14.557  1.3351 -2.6239 -0.0075
10005TIP3   OH251505   5.112   2.019   5.359  0.1051 -0.0041 -0.2569
10005TIP3    H151506   5.063   2.061   5.288  0.5299  0.9493  0.0156
10005TIP3    H251507   5.101   2.077   5.434 -1.3914 -1.6430  0.8387
10006TIP3   OH251508   3.913   3.733   6.220  0.2372 -0.4616  0.5116
10006TIP3    H151509   4.000   3.751   6.255 -1.2104  3.6141  2.1904
10006TIP3    H251510   3.857   3.724   6.297 -1.1553 -1.3615 -0.5869
10007TIP3   OH251511   6.186   0.542   0.056 -0.1011 -0.2445 -0.2447
10007TIP3    H151512   6.197   0.603   0.128 -0.4453 -1.3651  0.7685
10007TIP3    H251513   6.099   0.563   0.020 -1.2832 -1.7491  1.6677
10008TIP3   OH251514   0.504   5.027   2.966 -0.2070 -0.4166 -0.4872
10008TIP3    H151515   0.411   5.002   2.963 -0.2794 -0.0323 -1.5296
10008TIP3    H251516   0.503   5.118   2.995 -0.1631 -0.3962 -0.5496
10009TIP3   OH251517   5.750   4.971   1.737  0.2683 -0.5229 -0.0289
10009TIP3    H151518   5.698   4.932   1.808 -1.3769 -0.2895 -1.0806
10009TIP3    H251519   5.809   5.031   1.782 -1.0750 -0.0235  1.1212
10010TIP3   OH251520   3.658   2.103   4.745 -0.1390  0.5342  0.4216
10010TIP3    H151521   3.692   2.192   4.751 -1.4511  1.1427 -0.8076
10010TIP3    H251522   3.667   2.067   4.833  0.7713  1.7466  0.8291
10011TIP3   OH251523   2.724   2.474  16.338  0.1027 -0.0230  1.0841
10011TIP3    H151524   2.714   2.566  16.363  1.6606  0.1282  1.2128
10011TIP3    H251525   2.762   2.477  16.251 -3.6345 -0.5619 -0.6838
10012TIP3   OH251526   1.771   2.742  11.388  0.0919 -0.1428 -0.1806
10012TIP3    H151527   1.763   2.836  11.373  1.2533  0.0682  0.5319
10012TIP3    H251528   1.680   2.710  11.388 -0.2396  0.7372 -1.8481
10013TIP3   OH251529   4.674   0.425  13.949 -0.1395 -0.0664 -0.4486
10013TIP3    H151530   4.663   0.393  13.859  1.4998  1.4933 -1.2704
10013TIP3    H251531   4.717   0.353  13.995  1.1051 -0.0697 -1.5586
10014TIP3   OH251532   1.811   0.717   1.560 -0.3915  0.0391 -0.4654
10014TIP3    H151533   1.742   0.658   1.532 -0.4066  0.4951 -1.3849
10014TIP3    H251534   1.767   0.800   1.578 -0.2105  0.0833 -0.2125
10015TIP3   OH251535   0.745   1.660  16.975 -0.1869 -0.5085 -0.4027
10015TIP3    H151536   0.781   1.679  17.061 -3.5312 -1.4582  1.2528
10015TIP3    H251537   0.758   1.742  16.926  2.7936 -0.3341  0.5400
10016TIP3   OH251538   5.721   5.169  11.437  0.2582  0.2616 -0.0842
10016TIP3    H151539   5.701   5.075  11.430  2.0687 -0.0837 -1.0188
10016TIP3    H251540   5.707   5.190  11.529 -1.4924 -0.6032 -0.1294
10017TIP3   OH251541   3.261   0.209  16.432 -0.0069  0.2781  0.1437
10017TIP3    H151542   3.331   0.236  16.372  0.3075  2.6196  1.4852
10017TIP3    H251543   3.183   0.207  16.377  0.6231  0.4330 -0.7744
10018TIP3   OH251544   0.690   2.967  16.389 -0.5517  0.4502  0.2043
10018TIP3    H151545   0.766   2.938  16.339 -0.2335 -0.5973  1.2813
10018TIP3    H251546   0.616   2.959  16.329 -0.3327 -1.7660  0.2091
10019TIP3   OH251547   4.258   5.107   5.227  0.1144  0.0553  0.1093
10019TIP3    H151548   4.278   5.148   5.312 -0.4995 -1.2634  0.9023
10019TIP3    H251549   4.282   5.015   5.239 -0.0718 -0.1586 -1.1247
10020TIP3   OH251550   4.579   5.556  15.091  0.6440  0.0872  0.1249
10020TIP3    H151551   4.577   5.647  15.061  0.8129  0.3144  0.8027
10020TIP3    H251552   4.503   5.549  15.150  2.7083  0.8058  2.9811
10021TIP3   OH251553   1.103   3.295   0.668  0.0244 -0.3243 -0.0797
10021TIP3    H151554   1.070   3.383   0.646  2.1745  0.7094  0.6719
10021TIP3    H251555   1.192   3.293   0.634  1.0149 -1.1539  2.3997
10022TIP3   OH251556   6.669   2.117   1.382 -0.5806 -0.2421 -0.2153
10022TIP3    H151557   6.738   2.074   1.332  0.8597  1.6748  0.0473
10022TIP3    H251558   6.715   2.159   1.455 -1.9239  1.5725 -0.3804
10023TIP3   OH251559   6.235   3.892   3.390 -0.6489  0.3460  0.0206
10023TIP3    H151560   6.325   3.923   3.379 -0.5380  0.0118 -0.0205
10023TIP3    H251561   6.185   3.941   3.325 -0.4671  0.3998 -0.0793
10024TIP3   OH251562   3.360   4.739   4.814  0.3131  1.0433 -0.0415
10024TIP3    H151563   3.304   4.663   4.802  0.3398  0.9592  0.3531
10024TIP3    H251564   3.317   4.790   4.883  0.7215  0.9749  0.2693
10025TIP3   OH251565   2.413   5.439   4.001 -0.4787  0.1722 -0.0111
10025TIP3    H151566   2.465   5.519   4.008 -1.5826  0.7239  2.1502
10025TIP3    H251567   2.474   5.373   3.968  0.9442  1.4070  0.1249
10026TIP3   OH251568   6.668   5.244  14.429  0.6575 -0.1238  0.1446
10026TIP3    H151569   6.597   5.252  14.365  0.4796 -2.3868  0.0322
10026TIP3    H251570   6.684   5.334  14.457 -2.0981  0.4658 -0.0027
10027TIP3   OH251571   2.788   4.335   5.368  0.3374 -0.0680 -0.0291
10027TIP3    H151572   2.882   4.317   5.364  0.8210  2.3443  0.0876
10027TIP3    H251573   2.770   4.347   5.461 -0.4031 -2.0338  0.1005
10028TIP3   OH251574   3.965   5.031   1.720 -0.0991 -0.0229 -0.1405
10028TIP3    H151575   3.994   5.048   1.810  0.2110  1.2114 -0.4599
10028TIP3    H251576   3.897   5.097   1.705  0.7705  0.6126 -1.2612
10029TIP3   OH251577   1.241   2.002   0.154  0.3025  0.4461 -0.3615
10029TIP3    H151578   1.242   1.914   0.115  1.6284 -0.1837  1.0415
10029TIP3    H251579   1.317   2.046   0.117  0.1404  0.7016 -0.3906
10030TIP3   OH251580   5.065   1.414  12.501 -0.2727 -0.3459 -0.9265
10030TIP3    H151581   5.049   1.321  12.481  1.0852 -0.5631 -1.0477
10030TIP3    H251582   5.060   1.419  12.597  0.5804 -0.7178 -0.8652
10031TIP3   OH251583   5.638   2.191  11.664  0.1289  0.4359  0.7337
10031TIP3    H151584   5.665   2.216  11.576  1.4263  1.0731  1.3004
10031TIP3    H251585   5.547   2.165  11.655  0.5748 -0.5734 -1.0048
10032TIP3   OH251586   6.467   6.226  11.295 -0.3556  0.0226  0.2558
10032TIP3    H151587   6.396   6.204  11.234 -1.6657 -0.9815  2.0835
10032TIP3    H251588   6.422   6.240  11.379  1.5760 -0.1102  1.3264
10033TIP3   OH251589   5.432   3.852   3.707  0.2842 -0.1151  0.2423
10033TIP3    H151590   5.364   3.841   3.640  0.8962 -1.3011 -0.1943
10033TIP3    H251591   5.500   3.903   3.663 -1.0475  2.6134  1.2120
10034TIP3   OH251592   2.620   4.770  15.534  0.4946 -0.5555  0.5114
10034TIP3    H151593   2.706   4.730  15.541 -0.1725 -2.1948 -0.2347
10034TIP3    H251594   2.559   4.699  15.554 -0.7096  0.2983 -0.0453
10035TIP3   OH251595   5.688   6.709   1.917  0.2035 -0.1281  0.0739
10035TIP3    H151596   5.720   6.773   1.853 -0.0969  0.8858  0.9289
10035TIP3    H251597   5.675   6.629   1.866  1.9874  0.0591 -0.7338
10036TIP3   OH251598   3.058   0.935   0.897 -0.4446 -0.5237 -0.2749
10036TIP3    H151599   2.986   0.915   0.956 -1.2823  0.2367 -1.0177
10036TIP3    H251600   3.054   0.866   0.830 -0.0366 -0.8903  0.0789
10037TIP3   OH251601   3.542   3.149  13.664  0.2354 -0.3093  0.3312
10037TIP3    H151602   3.511   3.096  13.591  2.0167  0.0387 -0.7080
10037TIP3    H251603   3.569   3.231  13.624  2.9531 -0.7896  1.1008
10038TIP3   OH251604   0.446   6.002   1.280 -0.1028  0.0189  0.2591
10038TIP3    H151605   0.365   5.993   1.229 -0.1662 -1.5270  0.6290
10038TIP3    H251606   0.516   5.995   1.216 -0.1973 -1.3077  0.3069
10039TIP3   OH251607   4.884   5.189  16.475  0.0330 -0.0225  0.1075
10039TIP3    H151608   4.793   5.218  16.479  0.3031  0.8079  0.2959
10039TIP3    H251609   4.912   5.186  16.567  0.3798  0.3122  0.0148
10040TIP3   OH251610   1.165   3.493   6.367  0.0775  0.5169  0.2502
10040TIP3    H151611   1.137   3.583   6.352  1.6608  0.6761 -1.9162
10040TIP3    H251612   1.258   3.501   6.391  0.2146 -0.5210  0.0791
10041TIP3   OH251613   4.318   4.438  14.197 -0.0564 -0.2551 -0.1672
10041TIP3    H151614   4.362   4.523  14.194 -0.5033 -0.0018  0.3153
10041TIP3    H251615   4.388   4.376  14.217  0.1952  0.0622 -0.0482
10042TIP3   OH251616   2.534   6.358   4.657 -0.2039 -0.3749  0.3291
10042TIP3    H151617   2.611   6.373   4.712  0.6563 -2.9414 -0.1108
10042TIP3    H251618   2.555   6.401   4.574 -0.5728  1.5861  1.2249
10043TIP3   OH251619   5.775   0.082   2.135  0.0729  0.4754  0.0833
10043TIP3    H151620   5.739   0.133   2.208  0.9459 -0.0361  0.8795
10043TIP3    H251621   5.700   0.033   2.102 -0.7328  2.1063 -0.5566
10044TIP3   OH251622   3.101   1.955   1.213 -0.4937  0.1454  0.0370
10044TIP3    H151623   3.135   1.911   1.291 -2.2047 -0.6669  0.3480
10044TIP3    H251624   3.143   2.041   1.213  0.6411 -0.4042  1.0429
10045TIP3   OH251625   4.840   2.428   1.177 -0.6807  0.4284 -0.4268
10045TIP3    H151626   4.907   2.411   1.243  1.2181  1.6039 -1.9809
10045TIP3    H251627   4.793   2.505   1.210  0.4728  1.2142 -0.5845
10046TIP3   OH251628   1.514   2.385  14.681 -0.2842 -0.1092 -0.2088
10046TIP3    H151629   1.508   2.441  14.758 -2.5206  2.1619 -1.9469
10046TIP3    H251630   1.597   2.410  14.639 -0.5100  0.7789 -0.1287
10047TIP3   OH251631   3.338   0.856   1.723  0.3120 -0.2928 -0.0766
10047TIP3    H151632   3.372   0.798   1.791  0.3714  0.1709  0.2928
10047TIP3    H251633   3.248   0.826   1.709 -0.0807  0.3420  1.0358
10048TIP3   OH251634   1.849   0.990  14.505  0.5464  0.1711 -0.2795
10048TIP3    H151635   1.860   1.049  14.580  0.5490 -1.0586  0.7071
10048TIP3    H251636   1.765   0.947  14.521  1.7645 -2.0181  0.3826
10049TIP3   OH251637   0.460   0.688  13.111 -0.3105 -0.0782 -0.2383
10049TIP3    H151638   0.374   0.696  13.152 -0.6729  2.3391 -1.3988
10049TIP3    H251639   0.508   0.766  13.139  0.4090  0.1939 -2.1487
10050TIP3   OH251640   1.318   1.611  15.125  0.4597  0.6214  0.3421
10050TIP3    H151641   1.283   1.546  15.187  4.2437 -2.8826 -0.9526
10050TIP3    H251642   1.290   1.580  15.039  1.4801  1.2261 -0.2197
10051TIP3   OH251643   0.274   5.516   2.393 -0.3975 -0.0149  0.1271
10051TIP3    H151644   0.189   5.528   2.351 -0.6079 -0.3322  0.4562
10051TIP3    H251645   0.269   5.428   2.431 -0.0449  0.0964  0.4301
10052TIP3   OH251646   5.461   5.930   0.368 -0.3336 -0.0897  0.4833
10052TIP3    H151647   5.483   6.009   0.417  0.5586 -1.0548  1.6801
10052TIP3    H251648   5.437   5.962   0.281  4.3752  1.2329 -0.4906
10053TIP3   OH251649   2.850   2.519  11.555 -0.3307  0.5196 -0.4171
10053TIP3    H151650   2.874   2.444  11.610  2.0312  0.5566 -1.3143
10053TIP3    H251651   2.761   2.501  11.527  0.5529 -2.4974 -1.4662
10054TIP3   OH251652   2.466   4.589   5.665 -0.0338  0.0098 -0.0585
10054TIP3    H151653   2.510   4.672   5.685 -0.9161  0.7014 -0.9374
10054TIP3    H251654   2.468   4.541   5.748  0.5765  0.8670  0.4398
10055TIP3   OH251655   3.726   4.149  11.424 -0.4652 -0.9776  0.9268
10055TIP3    H151656   3.684   4.178  11.504  0.0578 -0.0435  0.8707
10055TIP3    H251657   3.684   4.065  11.403 -1.1637 -0.8267  1.7263
10056TIP3   OH251658   3.907   3.996  15.689  0.4273  0.3857 -0.6490
10056TIP3    H151659   3.945   4.002  15.601 -0.7182 -3.7079 -1.5405
10056TIP3    H251660   3.980   3.970  15.745  0.7875  1.2515 -0.7140
10057TIP3   OH251661   1.341   5.694   6.094  0.6569 -0.2009  0.3803
10057TIP3    H151662   1.263   5.750   6.085  1.3590  0.5835 -1.0738
10057TIP3    H251663   1.319   5.615   6.046  0.5763 -0.1678  0.3629
10058TIP3   OH251664   4.806   5.794  12.069 -0.4122 -0.2145  0.3229
10058TIP3    H151665   4.766   5.712  12.040 -1.7662 -0.1689  1.9912
10058TIP3    H251666   4.736   5.839  12.117  0.7247  1.2941  0.6080
10059TIP3   OH251667   4.698   0.090   5.093  0.0777 -0.1994 -0.4757
10059TIP3    H151668   4.740   0.079   5.178  0.1363  1.5673 -0.2565
10059TIP3    H251669   4.751   0.038   5.032 -0.0339 -1.5611  0.5773
10060TIP3   OH251670   6.358   0.774  12.115 -0.4970 -0.1172 -0.1531
10060TIP3    H151671   6.414   0.710  12.158 -1.7797 -0.8633  0.4059
10060TIP3    H251672   6.405   0.857  12.125  0.1304 -0.6063  0.9868
10061TIP3   OH251673   5.135   1.329   3.979 -0.0334  0.2973  0.0586
10061TIP3    H151674   5.124   1.252   4.035  0.3766  1.5615  1.9210
10061TIP3    H251675   5.053   1.336   3.931 -0.8118 -0.2006  1.3008
10062TIP3   OH251676   1.269   0.725  16.016 -0.6446 -0.2718 -0.1737
10062TIP3    H151677   1.324   0.656  16.052 -0.0858  0.2828  0.0464
10062TIP3    H251678   1.180   0.689  16.019 -0.0099 -2.2867 -3.1675
10063TIP3   OH251679   4.301   5.218  16.916  0.3139  0.6230  0.1942
10063TIP3    H151680   4.276   5.179  17.000 -0.3926  0.4071 -0.1155
10063TIP3    H251681   4.229   5.196  16.857  1.1735  0.1061 -0.6716
10064TIP3   OH251682   4.216   6.081  16.361 -0.3013  0.1062 -0.6244
10064TIP3    H151683   4.295   6.088  16.308 -0.9025  0.3913 -1.4999
10064TIP3    H251684   4.164   6.158  16.337  0.6038  1.7410  2.3613
10065TIP3   OH251685   1.626   0.707  16.021 -0.7669  0.3609 -0.5211
10065TIP3    H151686   1.652   0.733  16.109 -0.6201 -0.6866 -0.2507
10065TIP3    H251687   1.636   0.787  15.969 -0.9969  1.0280  0.4322
10066TIP3   OH251688   1.727   3.676  12.197  0.2528 -0.0616  0.2507
10066TIP3    H151689   1.812   3.671  12.154  0.6440  0.9400  0.8902
10066TIP3    H251690   1.681   3.748  12.153 -0.2729 -0.6098 -0.1059
10067TIP3   OH251691   4.265   3.966  10.975  0.6327  0.7129  0.2037
10067TIP3    H151692   4.181   4.001  11.004  0.4103 -0.3072  0.8348
10067TIP3    H251693   4.323   3.979  11.051  1.4467  2.7396 -0.7388
10068TIP3   OH251694   4.066   5.899  15.377 -0.2048  0.3007 -0.3688
10068TIP3    H151695   4.060   5.951  15.297  0.2509 -1.0257 -1.2943
10068TIP3    H251696   4.021   5.817  15.355  1.4861 -0.7764  0.1391
10069TIP3   OH251697   6.546   4.765   1.130 -0.1234 -0.2713 -0.8966
10069TIP3    H151698   6.627   4.713   1.137 -1.1366 -1.6658  0.6718
10069TIP3    H251699   6.534   4.803   1.216 -0.2879  1.2818 -1.5887
10070TIP3   OH251700   0.079   5.544   2.147  0.0076  0.3713 -0.0114
10070TIP3    H151701  -0.011   5.517   2.132  0.9010 -2.1647 -1.2272
10070TIP3    H251702   0.129   5.462   2.144  1.7903  1.0654  5.3484
10071TIP3   OH251703   1.236   2.514  17.251 -0.5409 -0.2222  0.0901
10071TIP3    H151704   1.176   2.580  17.216  0.2090 -0.8212 -2.4243
10071TIP3    H251705   1.324   2.550  17.237 -0.2233 -0.2737  1.8189
10072TIP3   OH251706   2.736   1.094  15.880  0.0440 -1.0913 -0.1298
10072TIP3    H151707   2.736   1.131  15.791  0.6242  0.8565  0.6427
10072TIP3    H251708   2.646   1.103  15.910  0.3018  0.2472  0.2621
10073TIP3   OH251709   6.312   1.595   1.213  0.0997  0.0376 -0.5846
10073TIP3    H151710   6.382   1.643   1.257 -0.3207 -0.5439  0.7638
10073TIP3    H251711   6.248   1.662   1.190  1.1435  0.5939 -1.9490
10074TIP3   OH251712   4.328   5.661  15.507 -0.1228  0.4770  1.1163
10074TIP3    H151713   4.361   5.737  15.554  0.5417  0.6066  0.4473
10074TIP3    H251714   4.402   5.600  15.506 -0.3316  0.2316  0.7735
10075TIP3   OH251715   1.594   4.823  17.006 -0.6437  0.1402  0.3809
10075TIP3    H151716   1.616   4.886  16.938  0.5560  1.1026  1.6514
10075TIP3    H251717   1.670   4.763  17.009 -0.8768 -0.1489  0.5846
10076TIP3   OH251718   3.747   5.800   4.620 -0.4320 -0.2632 -0.2708
10076TIP3    H151719   3.786   5.887   4.635  0.8563 -0.8979  0.1127
10076TIP3    H251720   3.653   5.817   4.614 -0.2709  1.0462  0.7039
10077TIP3   OH251721   2.213   3.952  14.373 -0.5425 -0.1200 -0.1704
10077TIP3    H151722   2.280   3.885  14.357  0.1891  0.5981 -0.1681
10077TIP3    H251723   2.225   3.976  14.465 -2.5481 -1.8696  0.5775
10078TIP3   OH251724   4.680   4.515   3.929 -0.3360  0.4787 -0.2856
10078TIP3    H151725   4.660   4.500   4.022  3.6106 -2.5901  0.1857
10078TIP3    H251726   4.610   4.470   3.882 -0.0228 -1.7173  1.2537
10079TIP3   OH251727   0.107   4.007  14.936 -0.1160 -0.1857  0.3647
10079TIP3    H151728   0.108   4.046  14.849  0.6464 -3.9447 -1.3699
10079TIP3    H251729   0.016   3.979  14.949  0.3288 -1.9752 -0.3231
10080TIP3   OH251730   3.677   1.611   1.168 -0.0899 -0.5690  0.4958
10080TIP3    H151731   3.632   1.674   1.223  1.2559 -0.4476  1.4883
10080TIP3    H251732   3.681   1.651   1.081 -0.1933  0.2412  0.8686
10081TIP3   OH251733   6.430   5.358  16.113  0.0649  0.2477  0.2087
10081TIP3    H151734   6.522   5.337  16.129  0.5338  1.3202 -0.9793
10081TIP3    H251735   6.407   5.418  16.184  0.2577 -0.0561  0.5320
10082TIP3   OH251736   5.006   0.773   2.875  0.2088  0.0259  0.4900
10082TIP3    H151737   5.033   0.713   2.805 -1.7104 -0.9969  0.6172
10082TIP3    H251738   4.945   0.834   2.833 -2.3317 -1.6699  1.6156
10083TIP3   OH251739   1.352   1.716  14.347 -0.5313  0.2790 -0.5898
10083TIP3    H151740   1.409   1.656  14.395 -1.9970 -0.3760  0.3644
10083TIP3    H251741   1.321   1.777  14.414 -1.6645  0.0807 -0.9335
10084TIP3   OH251742   6.317   3.200   3.470 -0.5073  0.1979 -0.1742
10084TIP3    H151743   6.314   3.104   3.479 -1.0928  0.4434  2.7916
10084TIP3    H251744   6.272   3.218   3.388  1.3879 -2.1849 -1.8253
10085TIP3   OH251745   3.740   6.600   1.684 -0.0109  0.1225 -0.3094
10085TIP3    H151746   3.738   6.693   1.708 -0.3246  0.0772 -0.1644
10085TIP3    H251747   3.753   6.554   1.767 -0.0582  0.0244 -0.3560
10086TIP3   OH251748   0.098   6.026   6.651  0.3317  0.6415 -0.2244
10086TIP3    H151749   0.075   6.116   6.625  1.7315  0.8063 -0.8948
10086TIP3    H251750   0.084   6.026   6.746  1.4672  1.9321 -0.0343
10087TIP3   OH251751   6.684   1.578   6.193  0.0995 -0.6167 -0.1052
10087TIP3    H151752   6.594   1.602   6.216  0.1803 -1.1302  0.7836
10087TIP3    H251753   6.736   1.603   6.269  1.0993  1.8574 -1.5368
10088TIP3   OH251754   5.664   5.443  16.226 -0.9200 -0.3034  0.3591
10088TIP3    H151755   5.735   5.388  16.193 -2.2648 -1.6157 -0.4378
10088TIP3    H251756   5.674   5.442  16.321  0.7436  0.4004  0.2009
10089TIP3   OH251757   3.682   0.554   4.433 -0.4262 -0.3308 -0.0585
10089TIP3    H151758   3.593   0.540   4.401 -0.2943  0.9042 -1.0073
10089TIP3    H251759   3.717   0.465   4.447 -1.5788 -0.8262 -0.2851
10090TIP3   OH251760   2.900   3.301   5.614  0.6027 -0.2288  0.1720
10090TIP3    H151761   2.882   3.234   5.681  0.1460 -0.3937 -0.1168
10090TIP3    H251762   2.995   3.299   5.604  0.3814 -2.7686 -1.8282
10091TIP3   OH251763   1.201   2.005   4.491 -0.3939  0.1855 -0.1524
10091TIP3    H151764   1.216   2.010   4.585 -0.0792  2.1768 -0.2863
10091TIP3    H251765   1.192   1.912   4.473  1.8191 -0.3967  1.5016
10092TIP3   OH251766   1.097   2.370  11.322  0.2438 -0.2245  0.2107
10092TIP3    H151767   1.139   2.285  11.316  1.7839  0.7338 -3.4017
10092TIP3    H251768   1.021   2.364  11.265  0.8279  1.0682 -0.7250
10093TIP3   OH251769   0.319   1.360  12.208 -0.2138  0.3160  0.1328
10093TIP3    H151770   0.329   1.428  12.275  2.4336 -0.1581  0.2812
10093TIP3    H251771   0.401   1.310  12.212 -0.7210 -0.7986 -2.2915
10094TIP3   OH251772   1.283   6.095   0.425 -0.5185 -0.7348 -0.3519
10094TIP3    H151773   1.308   6.051   0.343 -1.7786 -1.8830 -0.1452
10094TIP3    H251774   1.336   6.052   0.492  0.5047  0.1973 -0.5584
10095TIP3   OH251775   0.917   5.572   4.069 -0.1873 -0.0547 -0.2063
10095TIP3    H151776   0.951   5.535   4.150 -1.8602  0.2646  0.6843
10095TIP3    H251777   0.868   5.501   4.028  1.5303 -0.5150 -1.4672
10096TIP3   OH251778   3.273   4.478   3.629 -0.0896 -0.3075 -0.4385
10096TIP3    H151779   3.226   4.394   3.633  0.5616 -0.6583 -0.0737
10096TIP3    H251780   3.271   4.510   3.719  0.4948 -0.3905 -0.3979
10097TIP3   OH251781   1.972   1.112  15.040 -0.4412 -0.3608 -0.2787
10097TIP3    H151782   1.949   1.187  14.985  2.1749 -0.5161 -1.6590
10097TIP3    H251783   1.919   1.123  15.119 -3.1427  0.7134 -2.1604
10098TIP3   OH251784   6.273   4.850   2.529 -0.0569  0.1462 -0.0300
10098TIP3    H151785   6.343   4.820   2.471  2.0385  1.4051  1.7650
10098TIP3    H251786   6.318   4.903   2.595 -2.4155 -0.9400  2.5410
10099TIP3   OH251787   2.406   1.460  14.643  0.1375  0.1528  0.5386
10099TIP3    H151788   2.338   1.399  14.613  0.4441 -0.0684  0.2856
10099TIP3    H251789   2.420   1.437  14.735  1.9811 -1.8066 -0.1928
10100TIP3   OH251790   2.976   6.779   5.637 -0.1902 -0.0757  0.0150
10100TIP3    H151791   2.898   6.763   5.584  0.1992 -1.7221 -0.0791
10100TIP3    H251792   3.043   6.723   5.599  0.7651  0.5442  0.7549
10101TIP3   OH251793   0.855   0.366  14.742  0.7960  0.6947  0.1475
10101TIP3    H151794   0.823   0.278  14.722 -1.4588  1.6766 -0.7409
10101TIP3    H251795   0.920   0.385  14.674  0.2888  0.2496 -0.4609
10102TIP3   OH251796   0.370   5.167  16.905 -0.8310 -0.1292  0.1740
10102TIP3    H151797   0.428   5.100  16.870  1.1224  0.9347  1.2988
10102TIP3    H251798   0.370   5.236  16.839  0.6829  0.6721  0.9765
10103TIP3   OH251799   4.155   4.419  11.485 -0.0954  0.6560 -0.4906
10103TIP3    H151800   4.076   4.464  11.455 -0.8753 -0.2512  0.1923
10103TIP3    H251801   4.129   4.327  11.494  0.6531  0.5710  1.0495
10104TIP3   OH251802   6.141   1.201   0.671 -0.1264 -0.6477  0.0438
10104TIP3    H151803   6.106   1.113   0.657 -0.5159 -0.4603 -0.1844
10104TIP3    H251804   6.136   1.243   0.585 -1.8616  0.2718  0.5575
10105TIP3   OH251805   5.222   4.071   3.656 -0.3194 -0.4477 -0.3920
10105TIP3    H151806   5.244   4.015   3.581  0.6423 -0.4168 -0.1348
10105TIP3    H251807   5.207   4.158   3.618  0.4322 -0.3714 -0.5207
10106TIP3   OH251808   0.628   3.374   3.129 -0.7467 -0.0515 -0.5720
10106TIP3    H151809   0.629   3.324   3.210 -5.3797  1.2597  0.4675
10106TIP3    H251810   0.591   3.314   3.064  1.3395 -0.5446 -1.3280
10107TIP3   OH251811   2.073   1.623  13.977 -0.0135 -0.4887  0.0088
10107TIP3    H151812   2.058   1.675  14.056 -0.3615  0.3865 -0.6337
10107TIP3    H251813   1.990   1.626  13.929  1.1582  1.7074 -1.9801
10108TIP3   OH251814   3.816   5.055  10.683 -1.0414  0.1714  0.4710
10108TIP3    H151815   3.834   4.961  10.682 -1.0892  0.1282  2.2844
10108TIP3    H251816   3.736   5.065  10.735 -0.7850  1.2494  0.6895
10109TIP3   OH251817   4.356   4.899  15.098 -0.6275 -0.0963  0.6440
10109TIP3    H151818   4.315   4.967  15.152  1.8163  1.4783  0.5409
10109TIP3    H251819   4.414   4.852  15.158  0.4956  0.2867 -0.1416
10110TIP3   OH251820   1.691   2.362   0.462  0.1706  0.1565  0.0490
10110TIP3    H151821   1.601   2.338   0.438 -1.4486  3.0446  2.7808
10110TIP3    H251822   1.706   2.444   0.415 -0.6582  2.4521  3.5952
10111TIP3   OH251823   5.364   1.210   4.938  0.2976 -0.5686  0.2486
10111TIP3    H151824   5.424   1.153   4.889  2.0846  2.7432 -1.6177
10111TIP3    H251825   5.421   1.259   4.997 -1.0234  0.2373  0.8754
10112TIP3   OH251826   4.699   1.769  14.037  0.2260  0.6425  0.3734
10112TIP3    H151827   4.721   1.676  14.034 -0.7379  0.4369 -0.6285
10112TIP3    H251828   4.771   1.809  14.086  0.9728 -0.5256  0.2500
10113TIP3   OH251829   1.733   4.903   5.315 -0.5202 -0.3525 -0.2682
10113TIP3    H151830   1.667   4.899   5.384 -2.1629  0.3179 -1.7590
10113TIP3    H251831   1.686   4.878   5.235  1.6281 -2.2780 -0.9743
10114TIP3   OH251832   6.239   4.432   3.139  0.1905 -0.0106  0.3156
10114TIP3    H151833   6.269   4.462   3.053 -0.8116  1.6401  0.5074
10114TIP3    H251834   6.307   4.371   3.169  0.8267 -0.1510 -1.3959
10115TIP3   OH251835   2.823   6.201   1.141  0.0767 -0.5743 -0.4734
10115TIP3    H151836   2.905   6.187   1.093 -0.9085  0.1666 -2.4011
10115TIP3    H251837   2.805   6.294   1.131 -1.1945 -0.8107 -0.3541
10116TIP3   OH251838   3.383   1.425  13.131  0.6766  0.8287  0.1207
10116TIP3    H151839   3.477   1.411  13.144  0.9616 -0.7306 -3.2429
10116TIP3    H251840   3.376   1.456  13.041 -2.1095  0.4220  0.1759
10117TIP3   OH251841   3.438   5.772   4.322  0.0289  0.9599 -0.3522
10117TIP3    H151842   3.497   5.704   4.356 -2.5191  0.5509  3.5754
10117TIP3    H251843   3.438   5.840   4.389 -1.6576  2.3518 -1.7075
10118TIP3   OH251844   0.946   5.377  14.555  0.1708  0.2925  0.3923
10118TIP3    H151845   0.924   5.469  14.568  1.0491  0.2864  2.1010
10118TIP3    H251846   0.869   5.340  14.510  0.6955  2.2935 -2.2776
10119TIP3   OH251847   6.180   1.534  14.350  0.1610  0.4336  0.9065
10119TIP3    H151848   6.113   1.587  14.306  0.9183  0.7391  0.1007
10119TIP3    H251849   6.190   1.575  14.435  0.3605  1.2768  0.4834
10120TIP3   OH251850   0.263   5.236   2.453  0.5432  0.2851 -0.5437
10120TIP3    H151851   0.316   5.214   2.530  0.8082  1.9107 -0.2306
10120TIP3    H251852   0.181   5.189   2.466  1.1710 -0.6867 -0.0405
10121TIP3   OH251853   3.432   6.018  16.652  0.7134  0.9318  0.4005
10121TIP3    H151854   3.443   6.099  16.602 -0.5459 -0.1987 -1.8084
10121TIP3    H251855   3.508   5.965  16.626  0.8513  0.9157  0.8430
10122TIP3   OH251856   2.480   6.355   6.443 -0.4466  0.4697  0.1383
10122TIP3    H151857   2.569   6.388   6.434 -1.3148  2.7241 -0.6290
10122TIP3    H251858   2.484   6.298   6.520  1.3429  1.7276  1.0392
10123TIP3   OH251859   3.020   4.953  14.013 -0.0347  0.2043  0.4661
10123TIP3    H151860   3.065   4.873  14.040  2.2306  1.2848  0.0644
10123TIP3    H251861   3.091   5.011  13.981 -1.7019  2.0317 -0.0508
10124TIP3   OH251862   6.224   6.809  16.105 -0.3294 -0.2747 -0.6610
10124TIP3    H151863   6.293   6.743  16.109  0.2668  0.3182 -0.9873
10124TIP3    H251864   6.151   6.765  16.060  1.2345  0.2689 -3.8959
10125TIP3   OH251865   3.504   2.761  12.345  0.8893 -0.4284  0.3596
10125TIP3    H151866   3.596   2.752  12.369  0.7921 -1.0499  0.5142
10125TIP3    H251867   3.501   2.836  12.286  1.3492  0.2316  1.1604
10126TIP3   OH251868   0.587   0.328   3.541 -0.3716 -0.2295 -0.3649
10126TIP3    H151869   0.620   0.252   3.494  1.0565 -0.0324  0.3026
10126TIP3    H251870   0.647   0.399   3.517 -0.0779  0.0481  1.1411
10127TIP3   OH251871   3.767   4.457  10.954 -0.4174  0.0437  0.2196
10127TIP3    H151872   3.692   4.446  11.014 -1.8584  0.1410 -1.5167
10127TIP3    H251873   3.736   4.519  10.888  1.6629  1.0813  0.1821
10128TIP3   OH251874   1.465   1.200  15.417 -0.2297  0.0137 -0.1534
10128TIP3    H151875   1.460   1.188  15.512 -2.2547 -2.6426 -0.5367
10128TIP3    H251876   1.402   1.137  15.381 -1.3336  2.6662 -3.1702
10129TIP3   OH251877   1.890   4.687  11.245 -0.0316  0.4032  0.4836
10129TIP3    H151878   1.803   4.670  11.283 -0.5527  1.1676 -0.3505
10129TIP3    H251879   1.908   4.609  11.193 -0.4792  0.4983  0.1830
10130TIP3   OH251880   5.464   3.603   3.565  0.0528  0.3210 -0.2219
10130TIP3    H151881   5.463   3.659   3.643 -1.0941  0.3832 -0.2693
10130TIP3    H251882   5.487   3.516   3.598  4.4582  1.2597 -0.4899
10131TIP3   OH251883   6.176   5.625  15.742 -0.0299 -0.0260 -0.1699
10131TIP3    H151884   6.150   5.561  15.809  2.5127 -0.4061  0.4821
10131TIP3    H251885   6.161   5.579  15.659 -1.2024 -0.3057  0.1786
10132TIP3   OH251886   2.927   1.740   4.208  0.2685 -0.4450 -0.2976
10132TIP3    H151887   2.944   1.656   4.166 -1.0161 -0.2875 -1.1574
10132TIP3    H251888   3.008   1.760   4.255  0.2083 -2.6987  0.8307
10133TIP3   OH251889   1.001   3.852   0.053 -0.5175  0.1913  0.2652
10133TIP3    H151890   1.053   3.877   0.130 -0.7919  0.8746  0.2269
10133TIP3    H251891   0.978   3.760   0.070 -0.2991  0.2377  0.8471
10134TIP3   OH251892   2.487   2.376  14.860  0.4078  0.3619  0.0294
10134TIP3    H151893   2.434   2.366  14.781 -0.8111 -0.4938  0.9388
10134TIP3    H251894   2.574   2.401  14.828 -0.0537 -0.0683 -1.5822
10135TIP3   OH251895   3.127   4.388  17.010  0.5179 -0.0993 -0.3169
10135TIP3    H151896   3.055   4.362  16.953  0.1976 -1.0198  0.5023
10135TIP3    H251897   3.089   4.454  17.069  0.4724 -0.2371 -0.1937
10136TIP3   OH251898   2.780   3.142  11.505  0.4417  0.2069  0.3157
10136TIP3    H151899   2.825   3.203  11.446  0.4511  1.2023  1.3379
10136TIP3    H251900   2.851   3.095  11.549  0.4332 -1.4200 -1.3384
10137TIP3   OH251901   4.204   2.720   5.322  0.0889  0.1225  0.1818
10137TIP3    H151902   4.159   2.725   5.238  0.7909 -1.3751 -0.3041
10137TIP3    H251903   4.147   2.766   5.383 -0.4826  1.1239 -1.0929
10138TIP3   OH251904   3.994   0.605   1.925 -0.4933 -0.4685  0.4897
10138TIP3    H151905   4.005   0.534   1.862  0.7874  0.5579 -0.4771
10138TIP3    H251906   4.002   0.563   2.011 -1.6137 -1.7721 -0.0297
10139TIP3   OH251907   5.474   6.768   1.692  0.6218 -0.3588  0.0607
10139TIP3    H151908   5.509   6.680   1.703 -0.2044 -0.9131 -1.5248
10139TIP3    H251909   5.499   6.793   1.603  0.0416  0.6321  0.1643
10140TIP3   OH251910   5.272   1.228  15.298 -0.4356 -0.6484  0.4773
10140TIP3    H151911   5.237   1.234  15.387  1.4704 -0.5032  1.2558
10140TIP3    H251912   5.348   1.287  15.299 -0.5291 -0.4733 -1.3241
10141TIP3   OH251913   3.537   5.207   3.476 -0.1461 -0.1202 -0.0936
10141TIP3    H151914   3.589   5.256   3.540  0.6500  0.1390 -0.9379
10141TIP3    H251915   3.452   5.195   3.519 -0.1801  1.5332  0.3269
10142TIP3   OH251916   2.670   1.128   1.295 -0.0530 -0.3827 -0.4864
10142TIP3    H151917   2.742   1.128   1.358 -0.4731 -2.2151  0.0359
10142TIP3    H251918   2.671   1.040   1.258 -2.4302 -0.6809  0.0235
10143TIP3   OH251919   0.281   3.415  11.897  0.2776  0.2145 -0.0968
10143TIP3    H151920   0.209   3.354  11.885 -1.0232  2.1842 -2.7925
10143TIP3    H251921   0.331   3.411  11.816 -0.3277  3.3068 -0.6905
10144TIP3   OH251922   4.862   0.652   3.117  1.2853 -0.2669  0.4484
10144TIP3    H151923   4.891   0.561   3.110 -0.3102 -0.6956 -0.8296
10144TIP3    H251924   4.889   0.692   3.035  1.1776  0.1661  0.6240
10145TIP3   OH251925   2.070   6.234   1.692 -0.3805  0.2014  0.8122
10145TIP3    H151926   2.091   6.203   1.780 -0.4451 -0.7471  0.4953
10145TIP3    H251927   1.983   6.200   1.674 -1.0134  1.6779  0.9687
10146TIP3   OH251928   2.476   3.850  10.897 -0.7500  0.0025 -0.2737
10146TIP3    H151929   2.427   3.905  10.958 -0.9531  0.0125 -0.4479
10146TIP3    H251930   2.508   3.910  10.830 -2.6497 -0.3714 -1.5582
10147TIP3   OH251931   3.485   6.586   4.140  0.3020 -0.5747 -0.1117
10147TIP3    H151932   3.489   6.572   4.235 -1.5612 -2.6760 -0.3125
10147TIP3    H251933   3.455   6.676   4.130  1.0640 -0.1543  1.2864
10148TIP3   OH251934   3.185   2.990   4.127  0.2157  0.3486  0.6727
10148TIP3    H151935   3.205   3.033   4.211 -0.2857  2.7462 -0.3844
10148TIP3    H251936   3.091   2.971   4.131 -0.0816  1.6559  0.1570
10149TIP3   OH251937   4.046   3.662   3.440 -0.2234  0.3707 -0.0255
10149TIP3    H151938   4.025   3.653   3.347 -1.1095 -1.8692  0.3607
10149TIP3    H251939   3.966   3.694   3.481 -0.4314 -0.4756  0.2425
10150TIP3   OH251940   4.923   1.441  15.266  0.0354 -0.1251  0.0044
10150TIP3    H151941   4.855   1.444  15.333  1.3642  0.6935  1.3175
10150TIP3    H251942   4.980   1.515  15.285  0.2974  0.2891 -2.1922
10151TIP3   OH251943   6.355   6.778   4.628 -0.7557  0.7587 -0.1006
10151TIP3    H151944   6.432   6.760   4.683 -0.1073  1.8325 -0.6308
10151TIP3    H251945   6.308   6.847   4.675 -1.1153  0.4738 -0.0420
10152TIP3   OH251946   2.868   5.587   5.543 -0.1515  0.2885 -0.1411
10152TIP3    H151947   2.807   5.643   5.590  0.9851  0.9664  0.5350
10152TIP3    H251948   2.936   5.566   5.607  0.8031  0.2730 -1.1523
10153TIP3   OH251949   0.600   0.197   0.814  0.2661  0.5545 -0.4561
10153TIP3    H151950   0.570   0.154   0.734  2.7386  1.0967 -1.7286
10153TIP3    H251951   0.562   0.284   0.810 -0.1028  0.3822 -0.7446
10154TIP3   OH251952   1.434   0.610   1.619 -0.1346  0.5357  0.0548
10154TIP3    H151953   1.433   0.690   1.567 -2.8036  1.7307  1.8356
10154TIP3    H251954   1.389   0.545   1.565 -0.7566  1.1074 -0.1124
10155TIP3   OH251955   2.686   0.202   6.113 -0.0065  0.0818 -0.4163
10155TIP3    H151956   2.667   0.266   6.181 -0.9661  0.4338 -1.0040
10155TIP3    H251957   2.614   0.212   6.050  0.3840 -0.8624 -1.0207
10156TIP3   OH251958   5.841   2.044   3.639  0.3607 -0.2637 -0.1015
10156TIP3    H151959   5.808   2.085   3.560  2.7531  0.1670 -0.9265
10156TIP3    H251960   5.936   2.040   3.626  0.6531 -1.4614  2.1366
10157TIP3   OH251961   2.298   4.362  16.690 -0.2535  0.1899  0.0235
10157TIP3    H151962   2.338   4.443  16.660  1.3246 -1.0926 -1.3953
10157TIP3    H251963   2.352   4.293  16.653 -3.3279 -1.5998 -1.3461
10158TIP3   OH251964   5.135   3.640   6.442  0.2447 -0.3833  0.3969
10158TIP3    H151965   5.055   3.610   6.400  0.0013 -0.7899  1.1310
10158TIP3    H251966   5.204   3.587   6.404  0.0054 -0.8736  0.6454
10159TIP3   OH251967   6.148   4.668  14.362 -0.0067  0.0825  0.2110
10159TIP3    H151968   6.139   4.573  14.364 -0.6340  0.1349  0.0866
10159TIP3    H251969   6.059   4.700  14.345  0.0780  0.7165  0.9365
10160TIP3   OH251970   5.261   0.428   0.051  0.4392 -0.1636 -0.0436
10160TIP3    H151971   5.317   0.351   0.066  1.1342  0.5735  1.2342
10160TIP3    H251972   5.263   0.440  -0.044  2.7725  0.0474 -0.0091
10161TIP3   OH251973   3.658   2.746   3.303  0.0575  0.2338 -0.0424
10161TIP3    H151974   3.651   2.820   3.242  2.4599  0.5036 -0.0198
10161TIP3    H251975   3.656   2.786   3.390  1.1883  0.2625 -0.0274
10162TIP3   OH251976   4.129   6.418   5.383  0.1896 -0.0240  0.2422
10162TIP3    H151977   4.067   6.345   5.385  0.2123 -0.1139 -1.5751
10162TIP3    H251978   4.073   6.496   5.383  0.1485 -0.0459  1.3771
10163TIP3   OH251979   5.111   5.458   5.257  0.4805  0.6692 -0.8822
10163TIP3    H151980   5.016   5.471   5.267  0.2876 -0.5775 -0.9628
10163TIP3    H251981   5.124   5.448   5.163  0.3471 -1.4785 -0.7045
10164TIP3   OH251982   4.157   5.733   5.098 -0.1184  0.2139 -0.7749
10164TIP3    H151983   4.193   5.675   5.031  0.9232  0.4962 -0.4585
10164TIP3    H251984   4.075   5.692   5.124  0.0684 -0.5266 -1.3618
10165TIP3   OH251985   5.943   3.021   0.039 -0.4178  0.3431  0.3775
10165TIP3    H151986   5.862   3.023   0.090 -1.1339 -0.2271 -0.7042
10165TIP3    H251987   5.962   2.928   0.028  0.1244  0.4715  0.2140
10166TIP3   OH251988   2.168   2.247  11.255 -0.3670  0.3144 -0.2630
10166TIP3    H151989   2.178   2.194  11.177 -0.2102 -1.7865  1.1492
10166TIP3    H251990   2.154   2.336  11.222  0.2923 -0.4301 -2.6424
10167TIP3   OH251991   6.078   1.601  10.721 -0.0161  0.2872  0.8677
10167TIP3    H151992   6.140   1.532  10.698  0.7678  0.2599  3.0004
10167TIP3    H251993   6.021   1.561  10.787 -2.3042  0.3334 -0.9858
10168TIP3   OH251994   0.907   5.707  11.930 -0.0617  0.1492 -0.8249
10168TIP3    H151995   0.966   5.673  11.997  0.0315  2.0819  0.0911
10168TIP3    H251996   0.896   5.633  11.869  3.3295 -0.2648 -1.0710
10169TIP3   OH251997   2.942   6.518  10.799 -0.3884  0.4399 -0.1293
10169TIP3    H151998   2.851   6.519  10.829  0.0871  0.7378  1.3664
10169TIP3    H251999   2.985   6.586  10.850  0.7825 -0.0333 -0.4615
10170TIP3   OH252000   0.334   6.203  13.141 -0.7025  0.0339  0.0351
10170TIP3    H152001   0.266   6.244  13.088 -1.3097  0.0190  0.7940
10170TIP3    H252002   0.337   6.112  13.109  0.9320  0.7297 -1.9266
10171TIP3   OH252003   4.664   1.506   0.022 -0.0548  0.4165  0.0403
10171TIP3    H152004   4.584   1.461   0.051  0.1242 -0.4617 -0.7878
10171TIP3    H252005   4.731   1.477   0.084  0.2650 -1.2383 -1.0338
10172TIP3   OH252006   6.816   4.842  15.420  0.0393 -0.1465  0.0875
10172TIP3    H152007   6.901   4.866  15.458  0.2833  0.7053 -0.9353
10172TIP3    H252008   6.782   4.774  15.477 -0.3482  2.1868  2.7420
10173TIP3   OH252009   3.900   0.475   3.835 -0.2087  0.0256 -0.7206
10173TIP3    H152010   3.986   0.433   3.844  1.0869  2.3286 -2.0519
10173TIP3    H252011   3.888   0.486   3.741 -1.5281  0.6066 -0.4973
10174TIP3   OH252012   1.582   2.030   1.024 -0.5933  0.0125 -0.5594
10174TIP3    H152013   1.548   2.049   0.937  0.5601  0.3711 -0.9390
10174TIP3    H252014   1.580   1.934   1.030  0.9475 -0.0951 -1.6514
10175TIP3   OH252015   2.535   4.880  14.349 -0.4859  0.4738 -0.0016
10175TIP3    H152016   2.537   4.881  14.445  1.4314 -1.2059 -0.0136
10175TIP3    H252017   2.441   4.876  14.328 -0.8984  0.0644  1.8031
10176TIP3   OH252018   0.122   3.655   3.739  0.2727 -0.1251 -0.4257
10176TIP3    H152019   0.086   3.744   3.744  0.5807 -0.0629  0.5996
10176TIP3    H252020   0.154   3.648   3.649 -0.6912  0.4397 -0.8246
10177TIP3   OH252021   5.696   4.441  11.753  0.4194 -0.3445  0.4072
10177TIP3    H152022   5.751   4.428  11.675  2.2316  0.7748  1.4708
10177TIP3    H252023   5.695   4.356  11.796 -2.2764 -1.5440 -1.8623
10178TIP3   OH252024   5.381   3.472  17.279  0.3602  0.4889  0.2211
10178TIP3    H152025   5.297   3.427  17.270  0.2153  1.3745 -3.6784
10178TIP3    H252026   5.363   3.562  17.253  2.4305  0.7694 -0.3477
10179TIP3   OH252027   3.417   3.709   3.425  0.1899 -0.0580  0.5624
10179TIP3    H152028   3.424   3.723   3.331  1.5806 -1.5901  0.4042
10179TIP3    H252029   3.438   3.793   3.464  1.8365  0.0204 -0.4556
10180TIP3   OH252030   2.064   0.682   0.202 -0.0888 -0.7934 -0.1302
10180TIP3    H152031   2.038   0.646   0.287 -0.0594  0.9628  0.6434
10180TIP3    H252032   1.990   0.735   0.175 -0.3512 -1.8493 -1.5150
10181TIP3   OH252033   0.214   2.619  12.889 -0.3071  0.0155  0.0189
10181TIP3    H152034   0.269   2.677  12.837 -0.5241 -0.1835 -0.4290
10181TIP3    H252035   0.275   2.553  12.924  0.0863  0.9902  1.2207
10182TIP3   OH252036   1.055   1.327  14.362 -0.5422 -0.0672  0.1961
10182TIP3    H152037   1.136   1.323  14.414 -0.3357 -1.5707 -0.2101
10182TIP3    H252038   1.046   1.419  14.339  0.7769  0.2028  0.6854
10183TIP3   OH252039   5.674   0.824   5.075 -0.6220  0.2047 -0.4293
10183TIP3    H152040   5.636   0.893   5.020 -0.1016  0.5986 -0.3020
10183TIP3    H252041   5.601   0.794   5.129 -0.3927  2.2255  1.1008
10184TIP3   OH252042   0.908   5.845   1.775 -0.1633 -0.0606 -0.3257
10184TIP3    H152043   0.849   5.787   1.824  1.6943 -0.0699  2.0294
10184TIP3    H252044   0.973   5.787   1.737 -0.1421  0.1963 -0.6869
10185TIP3   OH252045   1.620   4.310  14.144  0.3231 -0.2099  0.2399
10185TIP3    H152046   1.526   4.316  14.124  0.3811 -0.6991 -0.2005
10185TIP3    H252047   1.629   4.228  14.193  0.7417 -0.9787 -1.0905
10186TIP3   OH252048   6.355   5.841  12.570  0.1770 -0.1860 -0.0562
10186TIP3    H152049   6.371   5.812  12.480  1.5362 -0.9348  0.4255
10186TIP3    H252050   6.278   5.791  12.597  0.4461 -0.7916 -0.4059
10187TIP3   OH252051   2.188   1.399  16.593 -0.0632 -0.4889 -0.1151
10187TIP3    H152052   2.164   1.421  16.502 -0.4965 -1.2112 -0.1848
10187TIP3    H252053   2.277   1.365  16.587 -0.2508 -0.9380 -0.3268
10188TIP3   OH252054   3.207   2.913   3.277 -0.5825 -0.1495 -0.0892
10188TIP3    H152055   3.169   2.997   3.251  1.2858  0.8548  0.2822
10188TIP3    H252056   3.262   2.888   3.202 -0.7604 -0.7922 -0.0018
10189TIP3   OH252057   1.140   3.618  13.798 -0.1639  0.0099  0.7200
10189TIP3    H152058   1.138   3.650  13.888 -0.0957  0.7324  0.4652
10189TIP3    H252059   1.089   3.682  13.748  1.3166  0.6114 -0.0675
10190TIP3   OH252060   4.392   3.729   0.170 -0.0454 -0.1344 -0.5630
10190TIP3    H152061   4.348   3.673   0.107 -0.2779 -0.3113 -0.2485
10190TIP3    H252062   4.331   3.735   0.244  0.5339 -0.5525 -0.0375
10191TIP3   OH252063   3.589   1.864   2.988 -0.4297  0.2387 -0.4327
10191TIP3    H152064   3.593   1.916   3.068 -0.7232  1.0219 -0.9152
10191TIP3    H252065   3.592   1.929   2.917 -0.7167 -0.4063 -1.0488
10192TIP3   OH252066   3.076   3.703   3.487  0.4584  0.1107 -0.0001
10192TIP3    H152067   3.128   3.784   3.487 -1.5523  1.4458 -1.2914
10192TIP3    H252068   2.985   3.733   3.479 -0.6261 -2.1548  3.0593
10193TIP3   OH252069   0.485   3.595   5.785 -0.1580 -0.0836 -0.0202
10193TIP3    H152070   0.569   3.606   5.742  1.3592 -2.4301  2.1727
10193TIP3    H252071   0.446   3.518   5.744 -1.5236  1.2840 -1.3774
10194TIP3   OH252072   3.165   5.344  15.584  0.0201  0.3656 -0.0115
10194TIP3    H152073   3.100   5.415  15.585 -0.4547 -0.0565 -0.4716
10194TIP3    H252074   3.207   5.350  15.670  0.0328  1.2436 -0.0727
10195TIP3   OH252075   3.836   4.590  14.461 -0.4537 -0.0971  0.1425
10195TIP3    H152076   3.911   4.540  14.430 -0.5874  0.4299 -1.0798
10195TIP3    H252077   3.853   4.606  14.554 -0.1982 -1.9853  0.4228
10196TIP3   OH252078   1.619   1.702  17.148  0.0917  0.3973  0.4602
10196TIP3    H152079   1.584   1.621  17.185  0.7995 -0.5744 -0.9221
10196TIP3    H252080   1.611   1.767  17.218 -1.7089 -0.5376  1.1412
10197TIP3   OH252081   5.119   1.406   0.195 -0.2590  0.3294  0.6040
10197TIP3    H152082   5.024   1.406   0.185 -0.2927 -1.8853  0.6571
10197TIP3    H252083   5.153   1.412   0.105 -0.4681 -0.5003  0.4664
10198TIP3   OH252084   1.897   1.571   0.184  0.5575 -0.2012  0.4392
10198TIP3    H152085   1.935   1.484   0.177  0.5560 -0.3146  1.7785
10198TIP3    H252086   1.802   1.556   0.180  0.5863 -0.1219 -0.7190
10199TIP3   OH252087   1.241   0.913  16.199  0.9334 -0.5312  0.4590
10199TIP3    H152088   1.280   0.851  16.137  0.6381 -1.2481  0.9706
10199TIP3    H252089   1.299   0.911  16.275  0.5688 -0.6899  0.7424
10200TIP3   OH252090   0.795   2.521  11.855 -0.0305  0.3286 -0.3204
10200TIP3    H152091   0.702   2.528  11.878  0.2795  0.1260  1.0493
10200TIP3    H252092   0.799   2.447  11.794 -1.2212  2.4303 -3.0401
10201TIP3   OH252093   2.153   2.822   1.578 -0.0891 -0.2730  0.0805
10201TIP3    H152094   2.101   2.764   1.633 -0.8392  0.3628  0.0522
10201TIP3    H252095   2.244   2.802   1.601 -0.3424 -1.5319 -0.0183
10202TIP3   OH252096   1.997   2.757  12.776  0.4686  0.9633 -0.5082
10202TIP3    H152097   1.920   2.766  12.719  1.2776 -0.7974 -1.9331
10202TIP3    H252098   2.005   2.662  12.790  2.1981  1.1535 -0.1166
10203TIP3   OH252099   4.263   5.584  16.488  0.0729 -0.4765 -0.0085
10203TIP3    H152100   4.296   5.525  16.421 -0.0121  0.9227 -1.3177
10203TIP3    H252101   4.340   5.608  16.539  0.3407 -0.5909 -0.3614
10204TIP3   OH252102   2.502   0.029   5.846  0.4051  0.1642  0.3592
10204TIP3    H152103   2.475  -0.024   5.921 -0.6427 -1.3191 -1.0157
10204TIP3    H252104   2.490   0.119   5.874 -1.2588 -0.3928  1.5381
10205TIP3   OH252105   5.972   1.020   5.137  0.1172  0.5095 -0.6690
10205TIP3    H152106   5.994   1.106   5.101  2.1687  0.0563 -0.5925
10205TIP3    H252107   5.916   0.980   5.070 -1.4129  2.1440 -0.3988
10206TIP3   OH252108   3.552   2.222  11.974  0.3605 -0.0141  0.7244
10206TIP3    H152109   3.583   2.265  11.894  0.5813 -1.3766  0.0647
10206TIP3    H252110   3.572   2.284  12.044  1.4239  0.6113 -0.1137
10207TIP3   OH252111   4.521   3.320   4.195 -0.0584 -0.0177 -0.0038
10207TIP3    H152112   4.516   3.298   4.288  1.3576  1.7006  0.5138
10207TIP3    H252113   4.593   3.265   4.162  0.6985  0.7552  0.3480
10208TIP3   OH252114   4.722   6.117  12.701  0.2301 -0.8621 -0.5245
10208TIP3    H152115   4.672   6.103  12.620 -0.7983  2.5055 -0.5543
10208TIP3    H252116   4.799   6.167  12.673 -0.3203  0.6393  0.6088
10209TIP3   OH252117   6.002   0.994   5.646 -0.0523  0.0232 -0.6935
10209TIP3    H152118   6.041   0.947   5.573 -0.2273  0.2739 -0.9526
10209TIP3    H252119   5.969   0.926   5.704  0.4464 -0.1796 -0.6527
10210TIP3   OH252120   3.897   5.613   5.222 -0.2587 -0.5365  0.1686
10210TIP3    H152121   3.915   5.532   5.174  0.5565 -1.1308  1.4507
10210TIP3    H252122   3.887   5.585   5.313 -1.0779  0.6739  0.4597
10211TIP3   OH252123   4.095   1.444  16.818 -0.1446 -0.0343 -0.1626
10211TIP3    H152124   4.041   1.414  16.744  1.1853  0.6977 -1.4577
10211TIP3    H252125   4.076   1.538  16.824  1.8696  0.4835 -1.4209
10212TIP3   OH252126   2.274   4.720  11.138 -0.4253  0.3468  0.5776
10212TIP3    H152127   2.279   4.667  11.059 -1.1454  2.1331 -0.6864
10212TIP3    H252128   2.197   4.775  11.125  0.0634  1.4117  2.0713
10213TIP3   OH252129   2.881   6.098  16.222 -0.4950  0.0555 -0.0849
10213TIP3    H152130   2.850   6.149  16.147  0.0142  0.0864 -0.2774
10213TIP3    H252131   2.917   6.163  16.282  2.3176 -0.2324 -1.3613
10214TIP3   OH252132   5.855   1.310  15.319 -0.3588  0.1912 -0.8178
10214TIP3    H152133   5.939   1.328  15.361 -0.3349 -0.2577 -0.6678
10214TIP3    H252134   5.865   1.342  15.230 -0.3401  0.9643 -0.5381
10215TIP3   OH252135   6.583   6.293   3.355 -0.4554 -0.1227  0.1039
10215TIP3    H152136   6.490   6.304   3.378 -0.1204  2.1390  0.4992
10215TIP3    H252137   6.621   6.253   3.433 -1.1214 -1.2470 -0.1310
10216TIP3   OH252138   3.085   3.510  17.009 -0.0080 -0.4095  0.0605
10216TIP3    H152139   3.081   3.498  17.103  0.1623 -0.1263  0.1019
10216TIP3    H252140   3.090   3.605  16.996 -0.1404 -0.4402 -0.2352
10217TIP3   OH252141   1.925   0.971   3.908  0.7573  0.1649 -0.9112
10217TIP3    H152142   1.923   0.897   3.847 -0.3326  0.3507 -1.1151
10217TIP3    H252143   1.970   1.040   3.860 -0.2001  0.3475 -1.5590
10218TIP3   OH252144   2.240   1.205   0.463 -0.3649  0.9115 -0.0783
10218TIP3    H152145   2.277   1.149   0.394  0.8583 -0.2495  1.5064
10218TIP3    H252146   2.154   1.166   0.480  0.1250  0.0145  0.4068
10219TIP3   OH252147   2.301   3.240  15.589 -0.5705 -0.2719  0.1279
10219TIP3    H152148   2.334   3.316  15.541  2.9367 -1.2328  0.8857
10219TIP3    H252149   2.285   3.174  15.522 -2.1538  0.5915 -0.3686
10220TIP3   OH252150   5.101   0.222  12.618 -0.1321  0.5435 -0.2309
10220TIP3    H152151   5.125   0.163  12.547  2.2568  0.9358  0.2311
10220TIP3    H252152   5.131   0.308  12.589 -0.1927  0.9038  0.7549
10221TIP3   OH252153   0.591   4.838  10.853  0.2364  0.4558  0.0828
10221TIP3    H152154   0.594   4.747  10.823 -0.1232  0.5773 -0.3227
10221TIP3    H252155   0.683   4.860  10.871  0.1626 -0.5154  1.7967
10222TIP3   OH252156   2.249   3.653  13.394 -0.2374 -0.3093  0.1126
10222TIP3    H152157   2.264   3.661  13.300  1.1131  0.5663  0.3957
10222TIP3    H252158   2.215   3.564  13.405 -3.5717  0.6647 -1.5870
10223TIP3   OH252159   6.507   6.594   4.168 -0.2888  0.1167  0.6170
10223TIP3    H152160   6.491   6.679   4.126 -1.2729  0.2193  1.1864
10223TIP3    H252161   6.603   6.586   4.170 -0.2265  0.1383 -1.5667
10224TIP3   OH252162   3.777   0.567   3.605 -0.2146 -0.3365 -0.4719
10224TIP3    H152163   3.768   0.632   3.535  1.6763  0.2046 -0.2359
10224TIP3    H252164   3.733   0.606   3.680 -3.3130 -1.4242 -1.6312
10225TIP3   OH252165   4.162   3.533   1.612 -0.6310  0.0531  0.2802
10225TIP3    H152166   4.122   3.446   1.613 -3.2673  1.1212 -2.5541
10225TIP3    H252167   4.169   3.558   1.704  0.1281 -3.0899  1.1487
10226TIP3   OH252168   2.662   1.437  13.628  0.0919 -0.4932  0.5218
10226TIP3    H152169   2.756   1.455  13.629 -0.1374  0.7227  0.9288
10226TIP3    H252170   2.627   1.485  13.703 -0.6896 -1.9070  1.0806
10227TIP3   OH252171   6.135   4.937  15.666 -0.2026  0.6397 -0.0900
10227TIP3    H152172   6.133   4.895  15.580 -0.0467  0.7892 -0.1662
10227TIP3    H252173   6.194   4.882  15.718 -0.4806  0.4153 -0.0079
10228TIP3   OH252174   6.476   0.085   2.772 -0.5468  0.1569  0.0111
10228TIP3    H152175   6.518   0.132   2.845 -1.0324 -0.3565  0.6299
10228TIP3    H252176   6.521   0.001   2.769  0.1054  0.5413 -0.8890
10229TIP3   OH252177   5.906   6.354   0.089 -0.5767  0.2690  1.0436
10229TIP3    H152178   5.857   6.272   0.098 -1.8335  0.9319  0.3889
10229TIP3    H252179   5.980   6.331   0.031 -1.2415 -0.2782  0.3986
10230TIP3   OH252180   6.750   4.509   0.661 -0.6441 -0.0362 -0.4400
10230TIP3    H152181   6.686   4.554   0.717 -0.7242 -0.5326 -0.1226
10230TIP3    H252182   6.717   4.419   0.656 -0.3851 -0.1027 -0.9089
10231TIP3   OH252183   0.415   1.869   2.609  0.8900 -0.3993 -0.8906
10231TIP3    H152184   0.323   1.852   2.587  0.7177 -1.6678  0.7152
10231TIP3    H252185   0.415   1.958   2.646  0.1279 -0.7710  0.0271
10232TIP3   OH252186   1.422   4.606  14.595 -0.1664 -0.6292  0.1019
10232TIP3    H152187   1.465   4.600  14.681  1.5207  0.3025 -0.6558
10232TIP3    H252188   1.448   4.526  14.550 -0.5412 -0.8238  0.2317
10233TIP3   OH252189   1.425   5.603  12.053  0.2963 -0.3199 -0.4658
10233TIP3    H152190   1.352   5.612  12.114  1.7586 -0.1176  1.2946
10233TIP3    H252191   1.499   5.578  12.108  1.4704 -0.8973 -2.2728
10234TIP3   OH252192   0.521   3.917  14.994  0.7131  0.4220 -0.1276
10234TIP3    H152193   0.433   3.884  15.011  0.6251  0.7169 -0.0015
10234TIP3    H252194   0.556   3.859  14.926  0.3941  0.3474 -0.2300
10235TIP3   OH252195   2.316   5.378  12.448 -0.0027 -0.1853 -0.2817
10235TIP3    H152196   2.285   5.468  12.448 -1.5721 -0.6796  1.8017
10235TIP3    H252197   2.410   5.385  12.461 -0.1763  1.1458  0.3617
10236TIP3   OH252198   6.438   5.490   3.802  0.6832  0.2305  0.2576
10236TIP3    H152199   6.433   5.585   3.793 -0.2065  0.2750  1.1232
10236TIP3    H252200   6.435   5.457   3.712 -1.2112  0.9361  0.0318
10237TIP3   OH252201   1.267   0.219   3.040 -0.1242 -0.9398  0.2706
10237TIP3    H152202   1.262   0.298   3.094 -0.6769 -1.3661  0.8533
10237TIP3    H252203   1.184   0.217   2.994 -0.1172 -1.1870  0.2692
10238TIP3   OH252204   5.221   2.671  16.083 -0.1407 -0.1340 -0.1129
10238TIP3    H152205   5.129   2.694  16.072  0.1392 -0.0629 -2.5634
10238TIP3    H252206   5.238   2.607  16.014  1.7571  0.2100  0.0106
10239TIP3   OH252207   1.964   1.992  12.379  0.5666 -0.5080 -0.0993
10239TIP3    H152208   1.950   2.060  12.313  0.7916 -0.4266 -0.0634
10239TIP3    H252209   1.876   1.965  12.405  0.4766 -0.2244 -0.1063
10240TIP3   OH252210   4.383   0.285  10.557  0.7035 -0.5856 -0.1078
10240TIP3    H152211   4.360   0.335  10.635 -1.8011  0.7928 -1.6524
10240TIP3    H252212   4.376   0.194  10.583  0.9911 -0.1335  1.5715
10241TIP3   OH252213   2.362   4.669  13.056  0.1405  0.0939  0.5610
10241TIP3    H152214   2.378   4.761  13.036  2.2274  0.2371  2.5903
10241TIP3    H252215   2.330   4.631  12.974 -1.7728  2.8324  0.0028
10242TIP3   OH252216   4.074   6.287   1.240 -0.1539 -0.3485 -0.3821
10242TIP3    H152217   4.112   6.340   1.170  1.9295 -0.5427  0.5656
10242TIP3    H252218   3.979   6.291   1.224  0.1655  1.0951 -2.1259
10243TIP3   OH252219   5.337   6.404   4.378  0.2283  0.6949  0.8906
10243TIP3    H152220   5.409   6.351   4.343  1.0505  1.5206  1.3195
10243TIP3    H252221   5.359   6.494   4.354 -0.8364  0.9251  0.7302
10244TIP3   OH252222   4.148   0.927   4.659 -0.2438  0.2283  0.2018
10244TIP3    H152223   4.149   0.915   4.754 -0.4419 -2.1422 -0.0756
10244TIP3    H252224   4.200   0.854   4.625  0.7291  1.6692 -1.4669
10245TIP3   OH252225   1.888   6.046  16.512 -0.2422  0.5533  0.1055
10245TIP3    H152226   1.968   5.993  16.508 -0.4763  0.2366 -0.3417
10245TIP3    H252227   1.890   6.098  16.431 -0.5313  0.4961  0.0657
10246TIP3   OH252228   0.982   2.342   1.765 -0.8053 -0.2626 -0.3523
10246TIP3    H152229   1.000   2.428   1.727 -0.6331 -1.0738 -2.1448
10246TIP3    H252230   0.945   2.291   1.693  1.3604 -2.4411  0.0110
10247TIP3   OH252231   3.301   3.494  11.177  0.1221  0.3653  0.0586
10247TIP3    H152232   3.290   3.404  11.209  2.1909  1.0237  2.8003
10247TIP3    H252233   3.354   3.484  11.098 -1.7611 -1.0017 -1.0665
10248TIP3   OH252234   2.463   2.776   2.964  0.2121  0.5374  0.1870
10248TIP3    H152235   2.400   2.827   3.014  0.5796  2.4429 -1.2323
10248TIP3    H252236   2.441   2.793   2.872 -0.6084 -3.0580 -0.3777
10249TIP3   OH252237   1.730   4.029   1.408 -0.2874 -0.5654 -0.3391
10249TIP3    H152238   1.657   3.966   1.412 -1.9058  1.2874  0.3640
10249TIP3    H252239   1.747   4.040   1.315 -1.5574 -0.3281 -0.5585
10250TIP3   OH252240   6.348   0.845   2.143  0.4522 -0.7618 -0.7145
10250TIP3    H152241   6.317   0.928   2.178 -0.6266 -0.7696 -1.6337
10250TIP3    H252242   6.268   0.795   2.126  1.1099 -2.1530  0.2401
10251TIP3   OH252243   4.513   6.592   6.534 -0.3590  0.6640  0.0961
10251TIP3    H152244   4.586   6.651   6.517  1.9913 -1.8240  1.2089
10251TIP3    H252245   4.520   6.524   6.467 -0.4375 -0.6666  1.4149
10252TIP3   OH252246   5.171   2.630   4.314  0.0083 -0.1820 -0.1903
10252TIP3    H152247   5.172   2.630   4.218 -1.2219 -1.5268 -0.2093
10252TIP3    H252248   5.088   2.589   4.337 -0.4446  1.6083  1.4562
10253TIP3   OH252249   1.021   4.648   6.136  0.5433  0.1699  0.7472
10253TIP3    H152250   1.001   4.617   6.224  1.4652  3.0591  2.0605
10253TIP3    H252251   0.948   4.706   6.114 -0.3632 -1.5977 -0.9766
10254TIP3   OH252252   4.347   2.672   0.956 -0.0219 -0.1045  0.1215
10254TIP3    H152253   4.315   2.584   0.940  0.8418 -0.1613 -1.4006
10254TIP3    H252254   4.436   2.660   0.989  0.3590  0.2040 -0.7723
10255TIP3   OH252255   0.952   2.150   0.560  0.1977 -1.1129 -0.4693
10255TIP3    H152256   1.041   2.126   0.537  0.4996 -1.5505  1.0596
10255TIP3    H252257   0.945   2.128   0.653 -0.2497  2.6574  0.4709
10256TIP3   OH252258   1.683   2.970   0.427 -0.1244  0.1321 -0.0475
10256TIP3    H152259   1.761   2.922   0.400  1.1971  0.5703  2.8663
10256TIP3    H252260   1.674   2.951   0.520 -2.7922  1.0976 -0.0727
10257TIP3   OH252261   3.652   4.205   1.975 -0.5512 -0.6048  0.0464
10257TIP3    H152262   3.681   4.131   2.028  1.0797  1.0916  1.6566
10257TIP3    H252263   3.573   4.237   2.020 -0.3148 -0.3892  0.3147
10258TIP3   OH252264   6.172   1.877  11.639 -0.4513 -0.2303  0.2984
10258TIP3    H152265   6.170   1.799  11.694  2.7097 -1.9318 -1.8610
10258TIP3    H252266   6.255   1.920  11.661 -0.0749  0.1090 -1.7323
10259TIP3   OH252267   1.730   3.793   5.390 -0.2577  0.2212  0.0345
10259TIP3    H152268   1.790   3.790   5.465 -2.8160  0.5715  2.1636
10259TIP3    H252269   1.754   3.718   5.337  2.2039  0.4715  0.7121
10260TIP3   OH252270   1.909   0.627  15.965 -0.1861 -0.1911  0.1982
10260TIP3    H152271   1.967   0.684  16.017 -1.1181  1.3983 -0.4650
10260TIP3    H252272   1.821   0.647  15.997 -0.5835 -0.7032 -0.5706
10261TIP3   OH252273   3.426   0.473  16.147 -0.4189  0.1612 -0.1445
10261TIP3    H152274   3.340   0.440  16.121 -0.6084 -0.1813  0.8759
10261TIP3    H252275   3.409   0.521  16.228 -0.0632  2.3458 -1.3190
10262TIP3   OH252276   3.049   6.400  13.661 -0.0820  0.3075 -0.2383
10262TIP3    H152277   3.142   6.407  13.685 -0.1900  0.3037  0.1804
10262TIP3    H252278   3.017   6.490  13.662 -0.1953  0.2625  0.0562
10263TIP3   OH252279   6.524   0.326   2.530  0.2138  0.3465  0.4221
10263TIP3    H152280   6.495   0.407   2.574  0.0021  0.3504  0.2774
10263TIP3    H252281   6.502   0.340   2.438  1.8333  0.8591  0.1090
10264TIP3   OH252282   4.436   5.110  12.635 -0.1281 -0.2484  0.4788
10264TIP3    H152283   4.429   5.017  12.656  1.1875 -0.1487  1.3550
10264TIP3    H252284   4.528   5.125  12.616 -0.7738  0.2809 -2.5837
10265TIP3   OH252285   2.422   6.160   1.358  0.1726 -0.1381 -0.4056
10265TIP3    H152286   2.393   6.117   1.438  1.2392  1.0905  0.6708
10265TIP3    H252287   2.500   6.111   1.331 -1.4027 -1.8773 -1.9017
10266TIP3   OH252288   3.523   0.051   1.669  0.1119 -0.1215  0.0459
10266TIP3    H152289   3.434   0.015   1.662  0.1347 -0.4642  1.5195
10266TIP3    H252290   3.515   0.124   1.730  1.0527 -0.8666  1.0786
10267TIP3   OH252291   0.015   1.166  15.702  0.4513  0.1785 -0.0584
10267TIP3    H152292  -0.042   1.216  15.643  0.8360  0.4045 -0.2418
10267TIP3    H252293  -0.026   1.174  15.788  0.8372  1.3204  0.0251
10268TIP3   OH252294   5.091   6.547   0.580  0.4548  0.1791  0.0205
10268TIP3    H152295   5.049   6.461   0.585 -1.5690  1.2536  2.6493
10268TIP3    H252296   5.156   6.546   0.651  1.7135  0.1950 -1.1069
10269TIP3   OH252297   2.317   0.167  11.612 -0.3948 -0.4982 -0.0776
10269TIP3    H152298   2.261   0.200  11.682  0.9710 -1.1675  1.3551
10269TIP3    H252299   2.402   0.209  11.626  0.1673 -1.3820 -0.7445
10270TIP3   OH252300   4.977   4.026   6.672  0.4917  0.2402 -0.0677
10270TIP3    H152301   4.958   3.933   6.658 -0.4273  0.5267 -0.7455
10270TIP3    H252302   4.892   4.069   6.664  0.7795  1.0417  1.1125
10271TIP3   OH252303   2.347   5.544   1.343  0.0830 -0.4337  0.8381
10271TIP3    H152304   2.268   5.503   1.309 -0.3684  0.7764  0.3932
10271TIP3    H252305   2.417   5.482   1.323 -0.4484 -0.5702 -0.6394
10272TIP3   OH252306   5.855   5.437  14.103  0.6483  0.0986 -0.0744
10272TIP3    H152307   5.884   5.346  14.115  2.2550  0.6995  0.7466
10272TIP3    H252308   5.794   5.433  14.030 -2.6822 -2.3419  2.6459
10273TIP3   OH252309   4.961   3.600  13.975 -0.2643  0.2194  0.2497
10273TIP3    H152310   4.945   3.686  13.935  0.5222  0.1675 -0.1912
10273TIP3    H252311   4.892   3.591  14.040 -0.4968  1.0873  0.1341
10274TIP3   OH252312   6.608   6.065   2.243  0.3042  0.6604  0.7900
10274TIP3    H152313   6.570   6.053   2.156  0.9808  0.3455  0.5317
10274TIP3    H252314   6.573   6.149   2.273 -1.1700  0.0259  0.8681
10275TIP3   OH252315   3.476   5.917   1.480  0.6003 -0.4264  0.3022
10275TIP3    H152316   3.531   5.986   1.514  0.6912 -1.2954  1.9690
10275TIP3    H252317   3.389   5.934   1.517 -0.1456  0.5790 -1.8050
10276TIP3   OH252318   3.355   5.527   1.217 -0.4383  0.6600  0.3315
10276TIP3    H152319   3.397   5.538   1.302  0.1348 -0.0305  0.1472
10276TIP3    H252320   3.403   5.584   1.158  0.5888 -0.5219  0.0107
10277TIP3   OH252321   0.376   4.362   2.890  0.2635 -0.9915  0.2162
10277TIP3    H152322   0.404   4.274   2.915 -1.4251 -1.2769  1.1293
10277TIP3    H252323   0.326   4.350   2.809  2.0171 -0.5693 -0.9717
10278TIP3   OH252324   4.091   0.010  13.405 -0.0136 -0.4520  0.2073
10278TIP3    H152325   4.154   0.077  13.381 -1.2624  0.6205 -0.1053
10278TIP3    H252326   4.069  -0.033  13.323 -1.5891  0.8490 -0.0595
10279TIP3   OH252327   3.208   4.585  14.571 -0.0597 -0.2237  0.4772
10279TIP3    H152328   3.253   4.503  14.555 -2.1768 -0.7045 -3.7729
10279TIP3    H252329   3.245   4.646  14.507 -2.2105  0.6086 -0.0301
10280TIP3   OH252330   1.397   6.546  14.518  0.2800 -0.1377 -0.7523
10280TIP3    H152331   1.429   6.489  14.588  0.1387 -0.2010 -0.7391
10280TIP3    H252332   1.309   6.512  14.498 -0.5167  1.1659  0.4730
10281TIP3   OH252333   5.768   4.903   0.689 -0.2397  0.5808 -0.2226
10281TIP3    H152334   5.838   4.859   0.737  1.3159  1.0038 -2.0838
10281TIP3    H252335   5.780   4.996   0.708 -0.0603  0.6885 -0.8698
10282TIP3   OH252336   5.260   2.919  15.864  0.2953  1.0236 -0.1665
10282TIP3    H152337   5.210   2.922  15.945  0.1549 -0.1476 -0.2118
10282TIP3    H252338   5.352   2.916  15.893  0.1981 -0.8226 -0.0258
10283TIP3   OH252339   2.013   1.694  14.520 -0.0350  0.1273  0.1289
10283TIP3    H152340   2.060   1.661  14.596 -1.3003 -1.1344  0.3783
10283TIP3    H252341   1.940   1.744  14.556 -1.8419 -2.1963 -0.2079
10284TIP3   OH252342   4.700   1.531  15.988  0.1356  0.5645 -0.3196
10284TIP3    H152343   4.617   1.483  15.985  0.1980  0.2669  1.7206
10284TIP3    H252344   4.764   1.473  15.947  0.2435 -1.2109  2.2348
10285TIP3   OH252345   1.192   0.639   4.422  0.2344  0.2071  0.2295
10285TIP3    H152346   1.144   0.637   4.504  0.6922 -0.3016  0.4931
10285TIP3    H252347   1.239   0.722   4.423  0.4487  0.0814  0.6080
10286TIP3   OH252348   2.986   6.658  13.660  0.1109 -0.7598 -0.2914
10286TIP3    H152349   2.996   6.721  13.731 -1.1615 -0.0079 -0.7478
10286TIP3    H252350   2.990   6.711  13.580  0.4214 -1.4435 -0.7334
10287TIP3   OH252351   6.233   0.426  12.251  0.1866 -0.3718 -0.1737
10287TIP3    H152352   6.177   0.431  12.173  0.8097  0.4650 -0.5744
10287TIP3    H252353   6.321   0.445  12.219  0.4155  0.1845  0.7769
10288TIP3   OH252354   2.102   4.074  11.662  0.5076 -0.4500  0.3387
10288TIP3    H152355   2.112   4.036  11.574  1.7016 -1.0422  0.7263
10288TIP3    H252356   2.191   4.099  11.687  0.3134 -1.2365  1.8143
10289TIP3   OH252357   5.029   2.384   6.645 -0.6182  0.0380 -0.5989
10289TIP3    H152358   4.940   2.378   6.679  0.1977  0.6492  1.7277
10289TIP3    H252359   5.059   2.472   6.670  0.8911 -0.4334 -0.6639
10290TIP3   OH252360   5.280   0.911   2.097  0.0320 -0.4039  0.7175
10290TIP3    H152361   5.299   0.983   2.037  0.2992 -0.8614  0.2455
10290TIP3    H252362   5.359   0.902   2.150  0.3103 -0.8507  0.2469
10291TIP3   OH252363   2.127   0.906  15.520 -0.1497 -0.3109  0.1024
10291TIP3    H152364   2.216   0.870  15.523 -0.1470 -0.2665  0.6070
10291TIP3    H252365   2.128   0.967  15.447 -0.1268 -1.2690 -0.7170
10292TIP3   OH252366   0.448   3.819  16.138 -0.2674  0.0214  0.3875
10292TIP3    H152367   0.499   3.875  16.079 -1.4567  1.1198  0.4034
10292TIP3    H252368   0.469   3.730  16.109  2.3886  0.4077  0.9969
10293TIP3   OH252369   6.601   0.503   0.287  0.0254 -0.2164  0.0731
10293TIP3    H152370   6.587   0.436   0.220 -0.8734  0.6979 -0.6757
10293TIP3    H252371   6.648   0.573   0.241  1.1240 -0.3947  0.8929
10294TIP3   OH252372   5.723   1.279  11.847  0.1487  0.6232 -1.0143
10294TIP3    H152373   5.724   1.332  11.927  1.6818 -0.4586 -0.2891
10294TIP3    H252374   5.793   1.315  11.793 -0.8129  1.2824 -1.8483
10295TIP3   OH252375   2.163   1.535   0.598 -0.0761 -0.6025 -0.2374
10295TIP3    H152376   2.237   1.549   0.538  0.6970  0.0898  0.8498
10295TIP3    H252377   2.086   1.558   0.546  0.8210  3.3521  0.0287
10296TIP3   OH252378   1.525   2.511  11.857  0.4217 -0.2286  0.5158
10296TIP3    H152379   1.614   2.497  11.823 -1.1312 -0.5505 -3.7591
10296TIP3    H252380   1.483   2.425  11.849 -0.6414  0.2154  1.2819
10297TIP3   OH252381   1.475   0.709   0.504 -0.1226 -0.2094  0.5545
10297TIP3    H152382   1.448   0.791   0.547 -1.5080  0.2832 -1.1959
10297TIP3    H252383   1.568   0.721   0.488 -0.4651  1.3971 -0.4022
10298TIP3   OH252384   5.599   4.845  13.060  0.3013  0.1027 -0.2270
10298TIP3    H152385   5.522   4.858  13.115  0.8782  1.0731  0.3701
10298TIP3    H252386   5.628   4.756  13.079 -2.0940 -1.1641 -2.2933
10299TIP3   OH252387   1.747   4.185   3.906 -0.4434  0.3314  0.1530
10299TIP3    H152388   1.788   4.270   3.889  1.1795 -0.6882 -1.2346
10299TIP3    H252389   1.773   4.163   3.996  1.5104  0.0370 -0.4573
10300TIP3   OH252390   6.404   2.837  16.737 -0.1866 -0.0763 -0.1316
10300TIP3    H152391   6.476   2.827  16.674 -0.1005 -0.3994  0.0180
10300TIP3    H252392   6.441   2.807  16.820 -0.2732  0.4223  0.0919
10301TIP3   OH252393   4.089   4.790   4.817  0.1944 -0.1819 -0.4268
10301TIP3    H152394   4.020   4.845   4.780  0.3597  1.1313  1.1420
10301TIP3    H252395   4.170   4.839   4.802  0.3300  0.0896  1.0570
10302TIP3   OH252396   5.688   6.052  13.738  0.2658 -0.2740  0.6086
10302TIP3    H152397   5.626   6.119  13.708  0.0699 -0.9894 -0.5967
10302TIP3    H252398   5.641   6.006  13.808 -0.0530  0.0557  0.6152
10303TIP3   OH252399   5.630   1.914  14.245 -0.5314  0.3476  0.1510
10303TIP3    H152400   5.719   1.895  14.274 -0.2511  1.1193 -0.2207
10303TIP3    H252401   5.631   2.005  14.218 -1.6364  0.6043  0.9111
10304TIP3   OH252402   3.947   2.674  11.635 -0.5497 -0.4760  0.2025
10304TIP3    H152403   3.902   2.692  11.553  0.7530 -0.6154 -0.5592
10304TIP3    H252404   3.962   2.579  11.633  1.5999 -0.1600 -0.5421
10305TIP3   OH252405   2.400   6.511  11.190 -0.2412  0.3548  0.2290
10305TIP3    H152406   2.416   6.553  11.105 -0.1892  1.2235  0.6567
10305TIP3    H252407   2.485   6.513  11.234 -0.3013  0.0445  0.3577
10306TIP3   OH252408   4.775   0.392   1.457 -0.4324 -0.3623 -0.0927
10306TIP3    H152409   4.849   0.423   1.405  0.4463 -2.0347  0.1120
10306TIP3    H252410   4.815   0.337   1.525 -1.6348  1.0058  1.7813
10307TIP3   OH252411   1.860   1.384  13.025 -0.0682  0.5615 -0.1802
10307TIP3    H152412   1.799   1.458  13.030  0.0786  0.5136  3.3847
10307TIP3    H252413   1.947   1.424  13.024 -0.0275  0.4973  0.4304
10308TIP3   OH252414   0.215   4.744  12.459  0.0053  0.3379  0.9691
10308TIP3    H152415   0.293   4.800  12.463 -0.1328  0.4190  4.0088
10308TIP3    H252416   0.142   4.805  12.459 -0.1042  0.2967 -3.0837
10309TIP3   OH252417   3.176   1.273  13.043  0.5073  0.2704  0.1188
10309TIP3    H152418   3.202   1.358  13.078 -2.1003  0.1452  2.5145
10309TIP3    H252419   3.221   1.210  13.101  0.3424  0.0251 -0.0207
10310TIP3   OH252420   2.152   4.905   3.488 -1.1245 -0.3916  0.0147
10310TIP3    H152421   2.113   4.850   3.556  2.3123 -1.4378  1.2330
10310TIP3    H252422   2.196   4.844   3.430 -0.2010  0.8306 -0.5819
10311TIP3   OH252423   2.483   3.349  17.095 -0.8493  0.4654  0.6269
10311TIP3    H152424   2.499   3.265  17.051 -0.6752  0.9724 -0.2806
10311TIP3    H252425   2.402   3.381  17.055 -1.6729  0.0815  1.9597
10312TIP3   OH252426   0.006   3.932   6.685  0.3014 -0.4148 -0.4188
10312TIP3    H152427   0.073   3.947   6.752  2.1991 -1.9468 -1.9033
10312TIP3    H252428  -0.061   3.880   6.728  0.4341  0.4692  0.8739
10313TIP3   OH252429   4.093   5.378  11.072  0.0740  0.0558 -0.2716
10313TIP3    H152430   4.105   5.362  11.166 -0.3045 -2.1266 -0.5725
10313TIP3    H252431   4.177   5.415  11.043  0.5813 -0.3045  0.7183
10314TIP3   OH252432   5.696   5.714   6.307 -0.0392 -0.0679 -0.2859
10314TIP3    H152433   5.789   5.733   6.296 -0.5791  1.6520 -2.2408
10314TIP3    H252434   5.658   5.795   6.341 -0.9326 -0.5539 -0.0937
10315TIP3   OH252435   0.469   4.730  16.871 -0.2483  0.2200 -0.3074
10315TIP3    H152436   0.403   4.700  16.933 -3.0385  0.1652 -3.2124
10315TIP3    H252437   0.521   4.652  16.851 -1.7304 -0.6223 -0.9120
10316TIP3   OH252438   0.832   0.672   4.486  0.1016 -1.0385  0.2991
10316TIP3    H152439   0.755   0.725   4.512  0.6451 -1.0334  1.9892
10316TIP3    H252440   0.885   0.669   4.565  2.6400  0.2947 -1.3017
10317TIP3   OH252441   2.361   3.687  16.106  0.2403 -0.3135 -0.2274
10317TIP3    H152442   2.274   3.727  16.106  0.5871  0.5931 -3.3026
10317TIP3    H252443   2.420   3.759  16.086  1.6839 -0.9954  1.5115
10318TIP3   OH252444   6.083   5.900  15.765 -0.0804 -0.3351 -0.4564
10318TIP3    H152445   6.124   5.819  15.735 -2.9719 -1.1272 -2.4841
10318TIP3    H252446   6.068   5.951  15.685 -0.4014  1.2101  0.5516
10319TIP3   OH252447   3.004   1.998  14.520  0.2794  0.0152 -0.2369
10319TIP3    H152448   2.963   1.939  14.584 -0.7984 -0.0549 -0.9851
10319TIP3    H252449   2.939   2.066  14.505  0.6173  0.1566 -1.0942
10320TIP3   OH252450   5.150   6.393  14.806  0.4760  0.3390  0.2735
10320TIP3    H152451   5.239   6.426  14.813  1.2624 -1.7496  0.5011
10320TIP3    H252452   5.154   6.305  14.844 -1.6090  0.1007 -0.0006
10321TIP3   OH252453   6.495   5.802   5.863  0.2629 -0.0257 -0.2940
10321TIP3    H152454   6.577   5.757   5.845  0.9931  0.0940  2.5273
10321TIP3    H252455   6.517   5.895   5.863 -0.2149  0.0931 -1.1233
10322TIP3   OH252456   2.540   1.143  13.239 -0.1020  0.6666 -0.4158
10322TIP3    H152457   2.494   1.223  13.264  1.3017  1.4335 -0.2185
10322TIP3    H252458   2.620   1.144  13.291  1.2075  0.5071 -2.3581
10323TIP3   OH252459   5.550   4.326  14.507  0.0794  1.0393 -0.2715
10323TIP3    H152460   5.535   4.249  14.453  4.9485  0.0188 -0.3394
10323TIP3    H252461   5.584   4.392  14.446  0.5205  1.6326  0.6034
10324TIP3   OH252462   1.287   2.427  10.783 -0.5148 -0.5754  0.3748
10324TIP3    H152463   1.207   2.424  10.731  0.0162 -1.2651 -0.4302
10324TIP3    H252464   1.310   2.336  10.798  0.2696 -0.3954  0.3464
10325TIP3   OH252465   4.370   6.543   4.664 -0.7517 -0.6528  0.0667
10325TIP3    H152466   4.292   6.599   4.667  0.3402  0.9419 -0.4422
10325TIP3    H252467   4.416   6.562   4.746  0.9441  1.2055 -1.2605
10326TIP3   OH252468   1.930   4.892   5.625  0.1368 -0.3928 -0.5693
10326TIP3    H152469   1.860   4.837   5.659 -0.1434  0.1932 -0.1758
10326TIP3    H252470   1.944   4.861   5.536  2.3729 -3.3903  0.7590
10327TIP3   OH252471   3.772   4.102   2.360  0.0221 -0.1552 -0.1652
10327TIP3    H152472   3.706   4.155   2.405  0.0070  0.2510 -0.6718
10327TIP3    H252473   3.836   4.165   2.327 -0.9581 -0.2936 -2.3718
10328TIP3   OH252474   1.876   4.769   3.286 -0.4722  0.1005 -0.6965
10328TIP3    H152475   1.912   4.682   3.269 -0.6444 -0.2607  0.7139
10328TIP3    H252476   1.841   4.797   3.202  0.1139 -0.9514 -1.3003
10329TIP3   OH252477   3.207   4.185   3.907 -0.4563  0.1762  0.2088
10329TIP3    H152478   3.176   4.210   3.994 -1.5345 -2.3498  0.5797
10329TIP3    H252479   3.148   4.230   3.847 -0.9381  0.3357  0.7967
10330TIP3   OH252480   4.796   6.239   2.459  0.8353  0.5644 -0.3712
10330TIP3    H152481   4.871   6.180   2.463  0.3708 -0.1404 -2.0049
10330TIP3    H252482   4.798   6.286   2.543  1.4511 -1.4470  0.7610
10331TIP3   OH252483   4.698   3.124   4.083  0.2566 -0.3116  0.0261
10331TIP3    H152484   4.761   3.155   4.018  0.8716 -1.1781  0.1950
10331TIP3    H252485   4.702   3.028   4.078 -0.3795 -0.3850  0.6763
10332TIP3   OH252486   4.071   1.758  11.034 -0.1399  0.3143  0.1054
10332TIP3    H152487   4.140   1.821  11.013  1.7756 -2.0401 -0.9766
10332TIP3    H252488   4.017   1.802  11.100  1.8141  2.6163  0.2409
10333TIP3   OH252489   4.886   3.575  14.293  0.1119 -0.7750 -0.1404
10333TIP3    H152490   4.803   3.620  14.302 -0.6108 -2.4489  1.9751
10333TIP3    H252491   4.950   3.644  14.277 -1.4098  0.6725 -0.0337
10334TIP3   OH252492   5.550   1.805  12.127 -0.1671 -0.1243  0.3051
10334TIP3    H152493   5.539   1.710  12.120  0.3955 -0.1258 -0.6601
10334TIP3    H252494   5.478   1.833  12.183 -2.6445 -0.6404 -2.5132
10335TIP3   OH252495   2.276   4.565   3.636  0.3268  0.1747 -0.1331
10335TIP3    H152496   2.232   4.480   3.632 -0.5732  0.7156 -2.8865
10335TIP3    H252497   2.220   4.618   3.693 -0.2856 -0.4453 -0.1501
10336TIP3   OH252498   2.590   6.238  14.661  0.0369 -0.4195 -0.1179
10336TIP3    H152499   2.555   6.212  14.746 -0.5350 -1.2433 -0.6014
10336TIP3    H252500   2.684   6.246  14.675 -0.2736  1.4461  1.1038
10337TIP3   OH252501   0.245   0.847   4.466 -0.1419  0.2062 -0.1536
10337TIP3    H152502   0.233   0.754   4.447 -1.4342  0.4665 -0.6291
10337TIP3    H252503   0.183   0.865   4.537  0.3266  0.6448  0.1542
10338TIP3   OH252504   3.952   1.528  11.124  0.7734  0.2349  0.0456
10338TIP3    H152505   4.019   1.465  11.098  2.6445  1.8841  0.8341
10338TIP3    H252506   3.984   1.612  11.093  0.3080  1.4151  2.6608
10339TIP3   OH252507   1.079   6.137  16.021 -0.2672 -0.0450 -0.2978
10339TIP3    H152508   1.079   6.077  15.946 -1.6240 -1.5813  0.8870
10339TIP3    H252509   0.986   6.154  16.037  0.1096  2.6133 -0.7739
10340TIP3   OH252510   1.386   4.861   4.257  0.2928 -0.1528  0.4260
10340TIP3    H152511   1.320   4.911   4.209  0.9170 -0.2662 -0.5561
10340TIP3    H252512   1.394   4.908   4.341  0.2879  0.9367 -0.1668
10341TIP3   OH252513   2.543   4.499   1.644 -0.5184  0.3633 -0.0254
10341TIP3    H152514   2.584   4.503   1.558  0.2579 -1.4651  0.2307
10341TIP3    H252515   2.453   4.469   1.627 -0.3398 -0.0724 -0.1991
10342TIP3   OH252516   4.693   0.873  14.833  0.2825 -0.5439 -0.0446
10342TIP3    H152517   4.653   0.807  14.890 -1.6081  0.4380 -0.1939
10342TIP3    H252518   4.646   0.954  14.854  1.5016  0.4256 -0.9940
10343TIP3   OH252519   0.758   6.076   3.860 -0.3232  0.7474 -0.1263
10343TIP3    H152520   0.664   6.063   3.848 -0.4430 -0.2640  1.6309
10343TIP3    H252521   0.766   6.115   3.947  1.0364 -1.7853  0.9523
10344TIP3   OH252522   2.197   1.350  12.235  0.4062  0.6306 -0.1752
10344TIP3    H152523   2.283   1.327  12.202  1.1324  1.7386  0.9215
10344TIP3    H252524   2.136   1.305  12.176  1.7279 -0.6736 -0.5701
10345TIP3   OH252525   2.362   3.692   5.619 -0.2076 -0.2164  0.3717
10345TIP3    H152526   2.453   3.664   5.626 -0.9489 -2.4314  1.4278
10345TIP3    H252527   2.328   3.688   5.708 -1.6691 -0.5709 -0.1871
10346TIP3   OH252528   2.222   3.153  15.846  0.4443  0.2209  0.3239
10346TIP3    H152529   2.278   3.075  15.847 -0.4570 -0.4652 -1.3231
10346TIP3    H252530   2.262   3.210  15.781 -0.7053 -0.2521 -0.8287
10347TIP3   OH252531   4.943   4.427   4.170 -0.2134 -0.3210  0.9256
10347TIP3    H152532   4.850   4.408   4.162  0.1174 -1.6139 -0.0363
10347TIP3    H252533   4.958   4.434   4.265 -1.4133  0.6468  1.0570
10348TIP3   OH252534   0.540   1.601  15.495 -0.2262 -1.1591  0.0813
10348TIP3    H152535   0.568   1.647  15.416  0.9196 -1.3851  0.3486
10348TIP3    H252536   0.622   1.579  15.540 -0.7678 -3.0274  0.2063
10349TIP3   OH252537   4.511   6.007   0.100 -0.3157 -0.2802 -0.3133
10349TIP3    H152538   4.485   6.099   0.089 -0.4152  0.0420  2.3811
10349TIP3    H252539   4.435   5.957   0.068 -0.8661  0.5921 -0.3932
10350TIP3   OH252540   3.810   2.530   5.195  0.5678  0.4358  0.4852
10350TIP3    H152541   3.874   2.537   5.265  2.8867  2.1511 -1.7111
10350TIP3    H252542   3.778   2.620   5.183 -0.7511 -0.0638  0.1975
10351TIP3   OH252543   4.900   2.895   3.421 -0.1268  0.3734  0.1223
10351TIP3    H152544   4.995   2.910   3.421  0.1980 -1.4281  1.8738
10351TIP3    H252545   4.884   2.844   3.342  0.1670  1.8083 -0.8678
10352TIP3   OH252546   3.720   4.669  12.472 -0.3796  0.4364  0.0025
10352TIP3    H152547   3.642   4.615  12.463  0.1922 -0.3671 -0.1875
10352TIP3    H252548   3.789   4.621  12.426 -0.0366  1.7120 -0.8510
10353TIP3   OH252549   4.642   0.176  16.228  0.1670  0.9006 -0.1537
10353TIP3    H152550   4.569   0.128  16.190  0.3479  0.3525  0.1873
10353TIP3    H252551   4.718   0.148  16.179  0.1080  1.7048 -0.7176
10354TIP3   OH252552   2.760   5.894   6.049  0.3211 -0.7090 -0.3546
10354TIP3    H152553   2.754   5.860   5.960 -2.6502  0.5987 -0.6952
10354TIP3    H252554   2.725   5.825   6.105 -0.8390 -0.2700 -0.5319
10355TIP3   OH252555   5.063   0.969   0.455  0.0389 -0.0205  0.5653
10355TIP3    H152556   5.107   0.954   0.539  2.7845 -1.2131 -1.0186
10355TIP3    H252557   5.102   1.050   0.422 -1.0686  0.4733  0.4610
10356TIP3   OH252558   4.828   5.348   5.588  0.8090 -0.0098  0.0506
10356TIP3    H152559   4.785   5.423   5.627 -0.6802  0.4557 -2.3944
10356TIP3    H252560   4.758   5.299   5.544  1.7972 -2.6091  1.2181
10357TIP3   OH252561   3.337   5.323  16.112 -0.2220  0.0095 -0.4805
10357TIP3    H152562   3.323   5.286  16.199  2.1664  1.4990  0.5776
10357TIP3    H252563   3.323   5.417  16.123  2.4698  0.5332 -1.1203
10358TIP3   OH252564   3.207   4.859   3.764  0.0085 -0.4296  0.5485
10358TIP3    H152565   3.172   4.770   3.760  0.0629 -0.4688  0.8927
10358TIP3    H252566   3.147   4.911   3.710 -0.1277 -0.6437  0.4950
10359TIP3   OH252567   4.656   1.400   1.417 -0.4609  0.3427 -0.2555
10359TIP3    H152568   4.744   1.429   1.396 -0.6208  0.7618 -0.3579
10359TIP3    H252569   4.616   1.382   1.332 -0.6887  0.7957 -0.2470
10360TIP3   OH252570   0.872   6.225  16.759 -0.5596  0.1073 -0.2480
10360TIP3    H152571   0.933   6.279  16.708 -0.3952  1.0092  0.8616
10360TIP3    H252572   0.918   6.142  16.770  0.0344  0.4190 -0.3121
10361TIP3   OH252573   5.274   2.889   2.226 -0.4468  0.2583  0.2857
10361TIP3    H152574   5.228   2.811   2.194 -0.3895  1.7307 -3.5955
10361TIP3    H252575   5.204   2.949   2.251 -0.6231  0.9112 -1.6863
10362TIP3   OH252576   1.977   1.198  11.768 -0.7952 -0.3757  0.4884
10362TIP3    H152577   2.025   1.260  11.713  0.1368 -0.9395  0.6630
10362TIP3    H252578   1.970   1.119  11.716 -1.2678 -0.3989  0.5840
10363TIP3   OH252579   5.611   5.753  12.512  0.2576  0.2289 -0.0839
10363TIP3    H152580   5.631   5.694  12.585  0.8060  0.9885  0.3912
10363TIP3    H252581   5.563   5.699  12.450  0.4881 -0.6383  0.4816
10364TIP3   OH252582   3.712   1.699   4.924 -0.6241  0.6192 -0.5724
10364TIP3    H152583   3.787   1.730   4.874  0.2134  0.5609  0.6447
10364TIP3    H252584   3.745   1.628   4.978 -1.7632 -0.0361 -0.7102
10365TIP3   OH252585   4.729   4.064   1.650  0.2750  0.1843 -0.3966
10365TIP3    H152586   4.717   4.146   1.602  0.4622  0.8967  0.7620
10365TIP3    H252587   4.823   4.063   1.671  0.8287 -1.6504 -2.7740
10366TIP3   OH252588   1.487   5.930   6.104 -0.2971 -0.0032 -0.0253
10366TIP3    H152589   1.412   5.872   6.120  1.6022 -2.1809  1.3388
10366TIP3    H252590   1.543   5.879   6.045  1.6212  0.2283  1.5527
10367TIP3   OH252591   2.689   3.781  13.685 -0.4062 -0.0787  0.0279
10367TIP3    H152592   2.703   3.687  13.679 -1.6912 -0.3480  0.8304
10367TIP3    H252593   2.636   3.803  13.608 -1.4904 -0.3164  0.6910
10368TIP3   OH252594   0.691   6.259  15.097 -0.0206 -0.0110  0.9854
10368TIP3    H152595   0.661   6.171  15.117 -0.2152 -0.3195 -0.5720
10368TIP3    H252596   0.772   6.269  15.146 -0.4941 -0.7041  1.9218
10369TIP3   OH252597   0.064   2.418   1.429  0.2799  0.0749  0.0198
10369TIP3    H152598  -0.027   2.390   1.427 -0.6762  3.0874 -1.9330
10369TIP3    H252599   0.115   2.337   1.422 -2.1833 -1.7189  1.9006
10370TIP3   OH252600   2.947   1.361  13.496  0.0751 -0.3017 -0.1995
10370TIP3    H152601   2.993   1.287  13.535 -0.8905 -1.8191 -1.8595
10370TIP3    H252602   2.991   1.438  13.532  0.4550 -1.6534  2.3110
10371TIP3   OH252603   1.849   3.459   3.549  0.0974 -0.2124 -0.6655
10371TIP3    H152604   1.800   3.463   3.467  0.1653  0.3051 -0.6792
10371TIP3    H252605   1.785   3.432   3.615  0.3629 -2.0999 -1.1558
10372TIP3   OH252606   1.381   3.340   1.526  0.3440  0.1104 -0.3802
10372TIP3    H152607   1.309   3.285   1.558  1.6396 -0.6546  1.3467
10372TIP3    H252608   1.374   3.421   1.577 -0.1829  0.6406 -1.2833
10373TIP3   OH252609   5.508   1.160   0.664  0.1884 -0.0484 -0.1974
10373TIP3    H152610   5.554   1.111   0.596 -0.7977 -1.2328 -0.0204
10373TIP3    H252611   5.565   1.154   0.740  0.2146 -0.6693 -0.2639
10374TIP3   OH252612   2.459   1.275   3.228 -0.8156  0.3420 -0.7066
10374TIP3    H152613   2.505   1.350   3.189  0.0836 -0.9913 -2.2701
10374TIP3    H252614   2.519   1.202   3.218 -1.4286 -0.4701  1.4034
10375TIP3   OH252615   5.135   3.577  11.590 -0.2167 -0.2102 -0.6419
10375TIP3    H152616   5.081   3.629  11.649 -1.2204 -0.1444 -1.6007
10375TIP3    H252617   5.225   3.596  11.616 -0.6150  0.8206  0.0119
10376TIP3   OH252618   0.521   0.844  15.072 -0.2381  0.3584  0.3179
10376TIP3    H152619   0.486   0.766  15.114 -1.9506  0.6382 -0.5389
10376TIP3    H252620   0.503   0.832  14.979 -1.1512  2.0654  0.2494
10377TIP3   OH252621   1.933   2.501   2.814 -0.2323  0.2199  0.1789
10377TIP3    H152622   1.887   2.482   2.732  0.2414  1.7607 -0.4720
10377TIP3    H252623   1.911   2.592   2.833 -1.5547 -0.5699  2.6015
10378TIP3   OH252624   1.561   5.450   3.801  0.1379  0.5003 -0.5880
10378TIP3    H152625   1.617   5.382   3.762  0.9410  0.9810 -0.2997
10378TIP3    H252626   1.605   5.532   3.779 -0.1947  0.8600  0.0673
10379TIP3   OH252627   6.774   4.005  11.482 -0.2217  0.2163  0.0642
10379TIP3    H152628   6.823   4.086  11.468  0.2492  0.1427  1.2308
10379TIP3    H252629   6.791   3.953  11.404  1.8343  0.0539  0.6010
10380TIP3   OH252630   0.226   0.648   5.821  0.3738  0.1691  0.4020
10380TIP3    H152631   0.296   0.661   5.756 -1.3470  0.9610 -1.3644
10380TIP3    H252632   0.197   0.737   5.843 -0.5097 -0.1622  0.6009
10381TIP3   OH252633   0.258   5.059  14.797 -0.0378  0.2229 -0.2926
10381TIP3    H152634   0.204   5.077  14.720 -2.4281 -2.7211  0.6027
10381TIP3    H252635   0.313   4.985  14.771  0.2932  0.2662  0.2836
10382TIP3   OH252636   1.887   4.350   5.383 -0.6503  0.4286  0.1715
10382TIP3    H152637   1.887   4.273   5.327  1.0303  0.3884  0.1959
10382TIP3    H252638   1.811   4.337   5.441 -1.2095 -0.5057 -0.7460
10383TIP3   OH252639   0.122   5.537  14.997 -0.3403 -1.1641 -0.1909
10383TIP3    H152640   0.194   5.564  14.939 -0.3976 -2.1202 -0.7268
10383TIP3    H252641   0.162   5.476  15.058 -0.2761 -0.1275  0.8118
10384TIP3   OH252642   4.998   5.119   1.698 -0.2640  0.1786  0.0397
10384TIP3    H152643   4.905   5.101   1.686 -0.4025  0.2447  0.9694
10384TIP3    H252644   5.006   5.148   1.789  0.5692  0.8250 -0.2329
10385TIP3   OH252645   6.153   2.000   2.096 -0.3176  0.0414 -0.4767
10385TIP3    H152646   6.114   1.947   2.166 -0.6887 -0.1600 -0.8329
10385TIP3    H252647   6.175   1.936   2.028 -2.2189  0.5149 -1.5772
10386TIP3   OH252648   4.526   4.452   0.126  0.5999  0.2328 -0.2166
10386TIP3    H152649   4.526   4.447   0.031 -0.1521 -0.3922 -0.1926
10386TIP3    H252650   4.439   4.420   0.152  0.1712  1.9955  0.5963
10387TIP3   OH252651   2.001   0.412   5.786 -0.1090  0.4549  0.8473
10387TIP3    H152652   2.072   0.430   5.725  0.4121  1.0391  1.6130
10387TIP3    H252653   1.927   0.465   5.754  0.4959  1.6153  1.3451
10388TIP3   OH252654   4.756   4.430   2.729 -0.0381  0.3204  0.6729
10388TIP3    H152655   4.694   4.400   2.662  1.2324 -1.6569  0.3439
10388TIP3    H252656   4.741   4.371   2.803  1.4172 -0.1527  0.6037
10389TIP3   OH252657   3.059   6.802  13.881 -0.6766 -0.4324 -0.1844
10389TIP3    H152658   3.135   6.747  13.861 -0.7355 -1.2724  1.7654
10389TIP3    H252659   3.094   6.873  13.935 -1.3471 -1.0541  1.0697
10390TIP3   OH252660   3.126   6.784  14.924 -0.0446 -0.2707  0.3421
10390TIP3    H152661   3.176   6.720  14.974 -0.2544  0.6082  1.6903
10390TIP3    H252662   3.037   6.748  14.920  0.1381 -0.6846 -0.0148
10391TIP3   OH252663   1.357   1.145   6.186  0.3979 -0.3867  0.4414
10391TIP3    H152664   1.354   1.167   6.093  2.2651  0.9453  0.6666
10391TIP3    H252665   1.265   1.145   6.213 -0.2262 -1.6356 -1.5656
10392TIP3   OH252666   0.434   2.336   2.396 -0.4806 -0.2512  0.5277
10392TIP3    H152667   0.488   2.283   2.337 -0.2006  0.8101 -0.1746
10392TIP3    H252668   0.425   2.420   2.352 -1.4171  0.0990  1.3696
10393TIP3   OH252669   4.427   5.120   0.351 -0.6261  0.1406 -0.2375
10393TIP3    H152670   4.467   5.129   0.437 -1.3117 -0.4205  0.1524
10393TIP3    H252671   4.351   5.063   0.366  0.4237 -1.6794 -1.5750
10394TIP3   OH252672   6.291   5.254  17.194 -0.0290 -0.1871  0.6617
10394TIP3    H152673   6.302   5.166  17.160 -1.3813 -0.1501  0.1043
10394TIP3    H252674   6.207   5.253  17.239 -1.5384  1.6154 -1.9736
10395TIP3   OH252675   3.085   2.924  15.285 -0.1297  0.2998 -0.1407
10395TIP3    H152676   3.082   2.837  15.246  3.0769 -0.3240  0.8712
10395TIP3    H252677   3.017   2.973  15.239 -1.7535 -2.6120 -0.9685
10396TIP3   OH252678   2.248   5.877   2.204  0.3974  0.1590  0.0389
10396TIP3    H152679   2.295   5.802   2.241  1.4942 -0.1612 -1.9637
10396TIP3    H252680   2.300   5.953   2.230  0.3309  0.0661  0.4480
10397TIP3   OH252681   1.366   4.888  12.615 -0.0283  0.4720  0.1285
10397TIP3    H152682   1.428   4.918  12.682  0.3075 -2.0021  0.9744
10397TIP3    H252683   1.280   4.898  12.656 -0.0063  1.2013  0.0140
10398TIP3   OH252684   3.378   2.414   2.197  0.5728 -0.4232  0.4889
10398TIP3    H152685   3.451   2.398   2.138  0.7110  0.3432  0.4383
10398TIP3    H252686   3.339   2.328   2.212  1.2600 -0.7835  0.2265
10399TIP3   OH252687   2.526   5.437  15.672  0.0034 -0.0352  0.3351
10399TIP3    H152688   2.620   5.430  15.685  0.0299  0.4279  0.4027
10399TIP3    H252689   2.508   5.531  15.677 -0.5412 -0.1693  0.9123
10400TIP3   OH252690   5.118   5.944   5.284 -0.0951 -0.1502 -0.3266
10400TIP3    H152691   5.056   5.888   5.331 -1.2459  1.5091  0.1741
10400TIP3    H252692   5.097   5.930   5.192  0.7557 -1.8034 -0.2868
10401TIP3   OH252693   1.937   2.544   1.059  0.0212  0.2931 -0.1020
10401TIP3    H152694   1.954   2.456   1.092  0.4258  0.3329 -0.2039
10401TIP3    H252695   1.938   2.599   1.137 -1.4736  0.0398  0.1310
10402TIP3   OH252696   1.132   4.069   3.262  0.4840  0.0679  0.6619
10402TIP3    H152697   1.213   4.034   3.226  0.6578  0.3288  0.7932
10402TIP3    H252698   1.080   3.992   3.284  0.7733 -0.1046  0.7463
10403TIP3   OH252699   2.242   6.540  12.131  0.1169  0.1366 -0.2000
10403TIP3    H152700   2.177   6.602  12.162  0.0913  0.6607 -1.2762
10403TIP3    H252701   2.194   6.485  12.068  0.2573 -0.6657  0.3870
10404TIP3   OH252702   4.493   0.258   2.230  0.1007 -0.1820 -0.1743
10404TIP3    H152703   4.532   0.175   2.203  1.2039 -0.3378  1.8045
10404TIP3    H252704   4.539   0.324   2.177  0.8663 -0.6486 -0.1077
10405TIP3   OH252705   2.856   0.894   2.094 -0.0243 -0.0595 -0.0582
10405TIP3    H152706   2.808   0.972   2.123  1.2853  0.7279  0.0196
10405TIP3    H252707   2.850   0.834   2.169 -1.5562 -0.3019 -0.3437
10406TIP3   OH252708   0.592   4.592  12.285 -0.5463  0.2461 -0.0598
10406TIP3    H152709   0.503   4.609  12.255 -0.6409 -1.7639 -0.9550
10406TIP3    H252710   0.629   4.532  12.220  1.0565  0.1159  0.9405
10407TIP3   OH252711   0.552   1.978   3.347  0.1281 -0.1035 -0.2638
10407TIP3    H152712   0.528   1.972   3.440  0.8769  0.6504 -0.0179
10407TIP3    H252713   0.495   2.045   3.311  0.0747 -0.1511 -0.2670
10408TIP3   OH252714   5.587   2.040   1.287  0.5125  0.3954 -0.1247
10408TIP3    H152715   5.552   2.129   1.288 -1.6824 -0.4329  1.5072
10408TIP3    H252716   5.681   2.051   1.300  0.1553  2.4439  1.0637
10409TIP3   OH252717   1.052   2.308  16.207  0.0402  0.1562 -0.2304
10409TIP3    H152718   0.994   2.302  16.131 -3.4056  0.3732  2.2242
10409TIP3    H252719   1.082   2.219  16.223 -0.6021 -0.1640 -0.8351
10410TIP3   OH252720   5.701   5.758   3.146 -0.2511 -0.1996  0.1587
10410TIP3    H152721   5.634   5.812   3.104  1.0700  1.5110  0.2118
10410TIP3    H252722   5.719   5.803   3.229  1.4138 -0.2762 -0.1403
10411TIP3   OH252723   4.998   2.044   3.114  0.2340  0.0320  0.3675
10411TIP3    H152724   4.994   1.971   3.176  1.4584  0.0328  0.4666
10411TIP3    H252725   5.033   2.006   3.034  1.3845  0.6063  0.5858
10412TIP3   OH252726   2.929   2.168   6.183  0.2509  0.2633  0.0158
10412TIP3    H152727   2.866   2.106   6.220  1.4000 -2.0892 -1.8039
10412TIP3    H252728   3.000   2.170   6.246 -1.3489  2.5444  1.8339
10413TIP3   OH252729   6.212   3.098   0.105  0.3436  0.1341  0.3898
10413TIP3    H152730   6.276   3.027   0.116 -1.4251 -1.9193 -2.0807
10413TIP3    H252731   6.133   3.054   0.074 -0.8189  3.1872 -1.1289
10414TIP3   OH252732   4.193   0.829   3.622  0.4510  0.3784  0.3983
10414TIP3    H152733   4.110   0.839   3.669  0.4234  2.4569 -0.0256
10414TIP3    H252734   4.167   0.812   3.531  0.5082 -1.0644  0.6380
10415TIP3   OH252735   3.146   6.541  15.272 -0.2409 -1.0818  0.0943
10415TIP3    H152736   3.104   6.624  15.292 -1.7048 -1.7019 -0.3507
10415TIP3    H252737   3.115   6.518  15.184  0.5709 -1.8384 -0.0111
10416TIP3   OH252738   2.210   6.330  13.570  0.2307 -0.3567 -0.1298
10416TIP3    H152739   2.222   6.326  13.665 -2.7689 -0.3975  0.3103
10416TIP3    H252740   2.288   6.288  13.534  1.5746 -0.0543  2.2933
10417TIP3   OH252741   4.910   4.804  11.881 -0.0899  0.3840  0.4097
10417TIP3    H152742   4.838   4.844  11.930 -0.7965  0.8408 -0.9653
10417TIP3    H252743   4.866   4.750  11.814  0.8517 -0.3850  0.3987
10418TIP3   OH252744   0.165   1.401  17.184  0.5906  0.2501 -0.0514
10418TIP3    H152745   0.236   1.445  17.137 -0.3458  1.5858 -0.2313
10418TIP3    H252746   0.100   1.381  17.116 -0.0279  0.7061  0.3936
10419TIP3   OH252747   5.066   2.644   1.417 -0.0351  0.1424  0.0985
10419TIP3    H152748   5.064   2.709   1.488 -1.5194  1.3272 -1.0115
10419TIP3    H252749   5.130   2.679   1.355  0.4107 -0.3194  0.2931
10420TIP3   OH252750   0.155   1.531   5.753 -0.1990 -0.0532  0.3449
10420TIP3    H152751   0.090   1.577   5.808 -1.0201 -0.4314 -0.2953
10420TIP3    H252752   0.183   1.458   5.807  1.6090  1.5418  1.6337
10421TIP3   OH252753   5.430   2.568  12.962  0.4707  0.2308  0.5591
10421TIP3    H152754   5.368   2.494  12.954 -0.7102  1.2539  0.0054
10421TIP3    H252755   5.505   2.531  13.008 -0.1063 -1.3232  0.3132
10422TIP3   OH252756   6.583   3.077  14.329  0.1333  0.1530  0.5378
10422TIP3    H152757   6.649   3.024  14.285  0.5641  1.3082 -0.2081
10422TIP3    H252758   6.611   3.080  14.421  1.6490  1.4601  0.0364
10423TIP3   OH252759   3.084   0.762   1.679  0.2186 -0.0621 -0.3096
10423TIP3    H152760   3.024   0.803   1.742  0.1875 -1.7660  0.8119
10423TIP3    H252761   3.081   0.669   1.701 -0.8842 -0.9108 -3.7559
10424TIP3   OH252762   3.952   0.147  13.868  0.5960  0.1726 -0.0745
10424TIP3    H152763   4.037   0.152  13.913  0.4714 -0.7680  0.2832
10424TIP3    H252764   3.968   0.188  13.782  1.5614 -0.4847 -0.2215
10425TIP3   OH252765   5.084   6.453   6.315 -0.6940  0.0919  0.0373
10425TIP3    H152766   5.140   6.464   6.391  2.0355 -0.1011 -1.8627
10425TIP3    H252767   5.004   6.414   6.349  0.5173 -0.1021  2.7582
10426TIP3   OH252768   1.002   3.930   4.737 -0.1487  0.6866 -0.6331
10426TIP3    H152769   0.907   3.935   4.728 -0.2533 -0.1990 -0.0295
10426TIP3    H252770   1.034   4.004   4.685 -1.2519  2.2168  0.7892
10427TIP3   OH252771   4.934   5.986  16.129  0.2574 -0.6298  0.2471
10427TIP3    H152772   4.993   6.016  16.060  1.6701 -1.1871  1.2043
10427TIP3    H252773   4.849   5.979  16.085  1.0981 -0.8301 -1.4072
10428TIP3   OH252774   4.212   4.131   3.351  0.1182  0.1982 -0.0879
10428TIP3    H152775   4.151   4.063   3.325 -1.8473  2.5801 -1.9407
10428TIP3    H252776   4.162   4.189   3.407  1.4701  0.7009  0.6346
10429TIP3   OH252777   1.744   3.325   4.729 -0.3931  0.3889 -0.1442
10429TIP3    H152778   1.727   3.320   4.824  0.0847  1.2698 -0.0073
10429TIP3    H252779   1.786   3.410   4.717 -0.7733  0.4320 -1.2014
10430TIP3   OH252780   6.675   4.241   0.654  0.3117 -0.4787  0.1858
10430TIP3    H152781   6.583   4.242   0.682  0.1506  1.0358 -0.3599
10430TIP3    H252782   6.674   4.192   0.572 -0.0680 -0.1396 -0.0141
10431TIP3   OH252783   6.301   5.542   4.023  0.2681 -0.0162  0.3905
10431TIP3    H152784   6.337   5.507   3.941  1.7652  0.3560  0.8662
10431TIP3    H252785   6.211   5.510   4.025 -0.1597  0.9576 -1.9666
10432TIP3   OH252786   1.029   2.754   4.890  0.1282  0.1473  0.3918
10432TIP3    H152787   0.996   2.811   4.820 -0.9998 -1.2716 -0.2505
10432TIP3    H252788   0.988   2.789   4.970 -1.7246 -0.6027 -0.1909
10433TIP3   OH252789   3.050   1.353  16.465  0.3536 -0.3410  0.0398
10433TIP3    H152790   2.960   1.355  16.434  0.7892  0.8850 -1.1519
10433TIP3    H252791   3.104   1.358  16.386  1.4989 -2.0439  0.6643
10434TIP3   OH252792   3.445   2.448  12.176  0.1407 -0.1828 -0.2451
10434TIP3    H152793   3.367   2.410  12.215 -1.3197  0.4812 -2.4214
10434TIP3    H252794   3.440   2.541  12.196  0.9677 -0.3071  0.5669
10435TIP3   OH252795   1.931   3.580   0.861 -0.5986 -0.0666 -0.0588
10435TIP3    H152796   1.951   3.628   0.942 -0.0494 -0.9396  0.3337
10435TIP3    H252797   1.922   3.488   0.889 -2.7921 -0.0480 -0.6057
10436TIP3   OH252798   2.054   0.883   2.210 -0.3937 -0.4904  0.3177
10436TIP3    H152799   1.970   0.891   2.255 -0.4701  1.7208 -0.1702
10436TIP3    H252800   2.057   0.959   2.152  2.1992 -0.2332  0.7504
10437TIP3   OH252801   2.790   2.461   5.499  0.4633 -0.8351  0.1458
10437TIP3    H152802   2.802   2.492   5.588 -0.6156  0.7415 -0.2444
10437TIP3    H252803   2.721   2.516   5.462  1.8947 -0.4718 -2.1325
10438TIP3   OH252804   0.553   4.413   1.419 -0.1291  0.3113 -0.5383
10438TIP3    H152805   0.501   4.460   1.484  0.5138  0.5011 -0.1577
10438TIP3    H252806   0.579   4.479   1.355  0.6862  0.4583 -0.0600
10439TIP3   OH252807   5.909   2.108  11.351 -0.1126  0.1236  0.5663
10439TIP3    H152808   5.987   2.115  11.406  0.2694 -2.0882  0.3633
10439TIP3    H252809   5.854   2.044  11.397 -1.2324  0.7183  0.0510
10440TIP3   OH252810   1.320   5.781   0.524  0.0035 -0.3947 -0.6017
10440TIP3    H152811   1.342   5.757   0.434  0.2467 -2.8353  0.0625
10440TIP3    H252812   1.227   5.803   0.521 -0.6905 -3.1388 -0.9970
10441TIP3   OH252813   5.159   2.105  11.469  0.1320  0.2835 -0.4289
10441TIP3    H152814   5.152   2.010  11.473 -4.3436  0.5840  1.3619
10441TIP3    H252815   5.177   2.124  11.377 -2.6242 -2.1552 -1.5499
10442TIP3   OH252816   4.491   2.297  14.106  0.0800  0.0022  0.5267
10442TIP3    H152817   4.504   2.391  14.118  1.2868 -0.1061  0.0812
10442TIP3    H252818   4.555   2.272  14.039 -0.8436 -0.9718 -0.0043
10443TIP3   OH252819   6.441   0.229  13.383  0.0604 -0.0131 -0.1784
10443TIP3    H152820   6.502   0.200  13.451 -0.6176 -0.7587  0.1148
10443TIP3    H252821   6.357   0.236  13.427 -0.5032 -1.0491 -1.0740
10444TIP3   OH252822   2.708   5.775  15.233 -0.2332  0.1048  0.1779
10444TIP3    H152823   2.786   5.821  15.266 -0.1248 -0.1860  0.3236
10444TIP3    H252824   2.735   5.741  15.148  0.2256 -1.1470  0.8158
10445TIP3   OH252825   3.129   2.091  12.479  0.0576 -0.1263  0.1606
10445TIP3    H152826   3.158   2.053  12.397 -0.9132  1.1430 -0.7903
10445TIP3    H252827   3.210   2.119  12.522  0.4291  1.4060 -1.4753
10446TIP3   OH252828   1.063   5.425   1.196 -0.3249 -0.0922  0.2290
10446TIP3    H152829   0.980   5.473   1.201 -0.1625  0.0242  2.2744
10446TIP3    H252830   1.065   5.390   1.107 -2.0854  0.7607 -0.1717
10447TIP3   OH252831   5.920   1.135  12.721 -0.4872 -0.0258  0.2236
10447TIP3    H152832   5.853   1.067  12.722 -0.7123  0.1831 -0.4098
10447TIP3    H252833   5.919   1.169  12.631  0.7810 -0.3421  0.0797
10448TIP3   OH252834   3.953   1.037  16.762  0.0016  0.1681  0.5631
10448TIP3    H152835   3.864   1.069  16.778  0.4696  0.3227  3.0159
10448TIP3    H252836   3.959   0.957  16.815  0.6648 -1.0056 -1.2115
10449TIP3   OH252837   5.619   3.494   1.572  0.5049 -0.1643 -0.9097
10449TIP3    H152838   5.711   3.496   1.598  0.5468 -0.7256 -1.0041
10449TIP3    H252839   5.607   3.572   1.518  0.7214  0.3388 -0.2270
10450TIP3   OH252840   2.597   4.643   9.933 -0.4600 -0.1026 -0.0294
10450TIP3    H152841   2.606   4.738   9.930 -0.1984 -0.1070  0.6787
10450TIP3    H252842   2.683   4.612   9.962  0.5229 -0.7552 -3.4382
10451TIP3   OH252843   4.473   3.092   3.927 -0.4279  0.2352 -0.6249
10451TIP3    H152844   4.413   3.164   3.944 -0.5249  0.0336 -0.1027
10451TIP3    H252845   4.551   3.113   3.978 -1.2474 -1.0689  1.2364
10452TIP3   OH252846   6.580   2.455  11.717  0.6143 -0.0346 -0.6341
10452TIP3    H152847   6.663   2.485  11.681 -0.0557  1.1833 -1.1978
10452TIP3    H252848   6.582   2.360  11.706  1.2550  0.1352 -2.1122
10453TIP3   OH252849   2.234   0.759  12.577 -0.3985  0.2425  0.2171
10453TIP3    H152850   2.205   0.705  12.650  1.0708  1.1354  1.4797
10453TIP3    H252851   2.172   0.832  12.574  0.5975  1.1684  1.7342
10454TIP3   OH252852   5.817   5.024  13.075 -0.1941 -0.3442 -0.0572
10454TIP3    H152853   5.759   4.949  13.061 -1.3124  0.3486  0.7833
10454TIP3    H252854   5.782   5.092  13.018  0.4583 -0.2742 -0.3717
10455TIP3   OH252855   3.896   2.010   2.916  0.2684  0.0638  0.0722
10455TIP3    H152856   3.912   1.972   3.002 -1.9526  1.2199  1.0523
10455TIP3    H252857   3.899   1.936   2.856  1.3141 -0.8325  1.2093
10456TIP3   OH252858   0.736   3.969   3.670 -0.2385  0.2529 -0.1960
10456TIP3    H152859   0.759   3.880   3.642 -0.1492  0.1838  0.0872
10456TIP3    H252860   0.660   3.992   3.617  0.4676  0.4692 -1.1286
10457TIP3   OH252861   6.478   2.704   5.928 -0.2991  0.3651 -0.2727
10457TIP3    H152862   6.412   2.746   5.984  0.1588 -0.9008  1.2646
10457TIP3    H252863   6.552   2.764   5.929 -0.8960  1.1203 -0.8538
10458TIP3   OH252864   0.990   1.788  11.662 -0.0656 -0.6089  0.1326
10458TIP3    H152865   0.989   1.693  11.674 -0.3117 -0.6163  0.0608
10458TIP3    H252866   0.972   1.801  11.569 -2.8313 -0.4109  0.6664
10459TIP3   OH252867   4.977   1.253  13.021  0.1448 -0.5450  0.1449
10459TIP3    H152868   4.972   1.166  12.981 -0.5255 -0.4096 -0.0746
10459TIP3    H252869   5.028   1.240  13.101 -0.5406 -1.2694  0.4695
10460TIP3   OH252870   2.471   1.281   1.641  0.1588  0.0642 -0.3273
10460TIP3    H152871   2.502   1.266   1.551 -1.2469  0.4302 -0.8830
10460TIP3    H252872   2.382   1.314   1.630 -0.3288 -0.7315  1.2509
10461TIP3   OH252873   0.432   3.098  11.801 -0.3757 -0.0514  0.4366
10461TIP3    H152874   0.517   3.127  11.834 -0.8523 -0.7656  2.4118
10461TIP3    H252875   0.421   3.010  11.837 -1.4720 -0.3906 -0.6937
10462TIP3   OH252876   1.800   4.992  12.510 -0.2064 -0.2416  0.2855
10462TIP3    H152877   1.879   4.979  12.457 -0.0236 -1.2738  0.7988
10462TIP3    H252878   1.788   4.908  12.555 -0.5627  0.5196  1.6095
10463TIP3   OH252879   6.070   5.212  12.073  0.5072  0.5135 -0.5604
10463TIP3    H152880   6.142   5.270  12.099  0.3064 -0.0058  1.2614
10463TIP3    H252881   6.034   5.251  11.994  1.9283  1.5326 -0.7101
10464TIP3   OH252882   3.354   5.722   2.800  0.0109  0.6235 -0.0801
10464TIP3    H152883   3.299   5.692   2.873 -1.5481  0.7693 -1.1685
10464TIP3    H252884   3.300   5.708   2.722  1.2996  1.3384 -1.1226
10465TIP3   OH252885   5.485   3.422   3.770  0.5390 -0.9418 -0.1094
10465TIP3    H152886   5.506   3.334   3.801  2.1640 -0.1058  1.2167
10465TIP3    H252887   5.469   3.473   3.850 -3.9166 -0.8285 -0.9379
10466TIP3   OH252888   4.168   2.065   2.184  0.2310  0.6393  0.6778
10466TIP3    H152889   4.089   2.079   2.235 -0.5312 -1.2763  0.0727
10466TIP3    H252890   4.139   2.064   2.093  0.9625  0.1520  0.4364
10467TIP3   OH252891   6.732   6.748  15.298 -0.0204 -0.0781 -0.0938
10467TIP3    H152892   6.696   6.784  15.217  0.4866  1.9546  0.5514
10467TIP3    H252893   6.692   6.661  15.305 -0.3767 -0.1341 -2.3040
10468TIP3   OH252894   3.478   0.228  14.515 -0.5189  0.0774  0.1284
10468TIP3    H152895   3.567   0.224  14.482 -0.1116 -0.8783  1.2876
10468TIP3    H252896   3.486   0.207  14.608 -2.0888 -1.2723 -0.0115
10469TIP3   OH252897   2.289   6.648   3.946 -0.4753  0.0205 -0.1627
10469TIP3    H152898   2.280   6.585   3.874 -2.0777  0.3592 -0.2796
10469TIP3    H252899   2.236   6.611   4.017 -1.1920  1.0929 -0.1316
10470TIP3   OH252900   3.766   2.337  13.888 -0.8287  0.3320  0.2280
10470TIP3    H152901   3.724   2.268  13.837  0.5263  0.2710 -0.8595
10470TIP3    H252902   3.827   2.378  13.826  0.3590  0.7031  1.6062
10471TIP3   OH252903   2.586   4.073   5.069 -0.2992 -0.4138 -0.0664
10471TIP3    H152904   2.563   4.085   4.977 -3.1377  2.5353  0.9402
10471TIP3    H252905   2.503   4.055   5.113  0.8009 -0.2931  2.1515
10472TIP3   OH252906   1.546   4.084  12.010 -0.5171 -0.5834 -0.5465
10472TIP3    H152907   1.491   4.033  11.950  0.6098  0.8970 -2.9387
10472TIP3    H252908   1.493   4.161  12.032 -0.7875 -0.9423  0.0584
10473TIP3   OH252909   4.594   5.117   0.584  0.0137 -0.3192  0.1604
10473TIP3    H152910   4.617   5.120   0.677  0.1883  1.3295  0.0869
10473TIP3    H252911   4.679   5.123   0.539 -0.1612  0.1986 -0.1031
10474TIP3   OH252912   4.344   1.806   4.763 -0.1077 -0.7012 -0.4983
10474TIP3    H152913   4.400   1.854   4.701  1.3764 -2.1330 -0.2942
10474TIP3    H252914   4.369   1.715   4.752  0.1994 -0.9849  2.2331
10475TIP3   OH252915   4.870   0.045   1.024 -0.5251  0.7111 -0.4405
10475TIP3    H152916   4.785   0.073   1.058 -0.7643 -0.7185  0.1798
10475TIP3    H252917   4.918   0.127   1.009  0.1066  1.4696  4.6509
10476TIP3   OH252918   4.988   1.351   0.573 -0.0322  0.1653 -0.3469
10476TIP3    H152919   5.002   1.316   0.661 -0.9651 -1.5486 -0.8443
10476TIP3    H252920   5.009   1.278   0.515 -0.1995  1.0349 -1.5117
10477TIP3   OH252921   2.830   0.742  10.587  0.2474  0.6119  0.3668
10477TIP3    H152922   2.916   0.756  10.547 -0.2089  1.4486 -0.3457
10477TIP3    H252923   2.818   0.816  10.647  0.0694  0.4437  0.5411
10478TIP3   OH252924   5.851   3.279   5.556  0.0568  0.9597 -0.0282
10478TIP3    H152925   5.762   3.244   5.567  0.6534 -0.0467  1.9628
10478TIP3    H252926   5.866   3.279   5.462 -1.2246 -1.0623 -0.2715
10479TIP3   OH252927   0.527   4.993  16.778  0.4319 -0.0510 -1.0258
10479TIP3    H152928   0.515   4.902  16.806  2.1291 -0.3943 -1.3502
10479TIP3    H252929   0.564   4.986  16.690 -1.6812  0.9895 -2.0228
10480TIP3   OH252930   0.686   2.145   1.715 -0.0194 -0.3475  0.1551
10480TIP3    H152931   0.700   2.144   1.620  0.3104  0.3191  0.1907
10480TIP3    H252932   0.600   2.105   1.727  0.4919 -1.6152 -0.3248
10481TIP3   OH252933   5.917   3.723  15.319 -0.2728  0.1622 -0.0935
10481TIP3    H152934   5.999   3.740  15.274  0.9986 -1.0758  1.6913
10481TIP3    H252935   5.936   3.741  15.411 -2.0415  0.0038  0.3210
10482TIP3   OH252936   6.524   6.069  13.088 -0.1433  0.4082 -0.0588
10482TIP3    H152937   6.458   6.007  13.056 -0.4132  1.6542 -2.0414
10482TIP3    H252938   6.608   6.030  13.062 -0.1716 -0.4461  1.1231
10483TIP3   OH252939   6.284   5.175  14.789 -0.4317  0.1535 -0.4651
10483TIP3    H152940   6.225   5.193  14.716 -0.2975  0.8685 -0.4039
10483TIP3    H252941   6.232   5.195  14.867 -1.0035 -1.8361 -0.2974
10484TIP3   OH252942   1.662   4.893   4.052 -0.2637 -0.6909  0.1972
10484TIP3    H152943   1.653   4.884   4.147 -0.0198 -3.0124  0.0380
10484TIP3    H252944   1.591   4.840   4.016  0.5224 -1.0319 -0.9038
10485TIP3   OH252945   6.483   1.876   3.562  0.2221 -0.4979 -0.7590
10485TIP3    H152946   6.523   1.944   3.615 -1.6350  2.3258 -2.7949
10485TIP3    H252947   6.431   1.824   3.623  3.0198 -1.2224  1.0980
10486TIP3   OH252948   3.953   4.885   1.496  0.4058  0.4460  0.0343
10486TIP3    H152949   3.966   4.926   1.581  0.1259 -1.7913  1.2015
10486TIP3    H252950   3.866   4.845   1.502  1.7111 -2.5529 -0.0415
10487TIP3   OH252951   0.355   1.687   1.000 -0.1478  0.5464  0.2803
10487TIP3    H152952   0.426   1.750   1.011 -0.8450  1.1057  1.6710
10487TIP3    H252953   0.323   1.670   1.088 -0.7345 -0.8764 -0.1939
10488TIP3   OH252954   5.568   1.502   0.446 -0.1634 -0.3076 -0.3092
10488TIP3    H152955   5.503   1.545   0.501  0.2156 -1.1539  0.8207
10488TIP3    H252956   5.642   1.486   0.505  0.2740 -1.1623 -1.0880
10489TIP3   OH252957   0.421   4.098   6.084  0.3589  0.0117  0.1555
10489TIP3    H152958   0.437   4.186   6.050  0.7087  0.2877  1.0108
10489TIP3    H252959   0.391   4.112   6.174  0.1878 -0.7355  0.2199
10490TIP3   OH252960   0.048   3.849  11.235 -0.0949  0.3011  0.2467
10490TIP3    H152961   0.108   3.923  11.235 -0.7989  0.8800  0.3747
10490TIP3    H252962   0.059   3.809  11.149  1.1112 -0.1306  0.5929
10491TIP3   OH252963   0.917   4.932  13.674  0.5951 -0.2499 -0.0136
10491TIP3    H152964   0.874   4.976  13.748  0.8981 -0.7045  0.4367
10491TIP3    H252965   0.973   4.999  13.636 -0.8045  0.4600 -0.8431
10492TIP3   OH252966   0.844   0.820  12.304 -0.8333 -0.1061  0.1003
10492TIP3    H152967   0.858   0.905  12.263 -1.1574  0.0304  0.2813
10492TIP3    H252968   0.764   0.829  12.354  0.4904  0.2523  2.1949
10493TIP3   OH252969   6.465   1.389   2.841 -0.0461 -0.0615 -0.5359
10493TIP3    H152970   6.553   1.392   2.804  0.0010  1.3428 -0.3474
10493TIP3    H252971   6.420   1.321   2.790  1.6639 -2.0896  0.5746
10494TIP3   OH252972   0.161   5.255  14.955  0.1090 -0.3035  0.4851
10494TIP3    H152973   0.127   5.305  14.881 -2.4536  0.7427  2.3304
10494TIP3    H252974   0.168   5.165  14.922 -1.6882  0.0138 -0.7949
10495TIP3   OH252975   0.754   2.074   5.893  0.1858 -0.0313  0.2587
10495TIP3    H152976   0.699   2.108   5.822  0.8663  0.9581  0.1780
10495TIP3    H252977   0.812   2.148   5.914  1.1137 -0.8800  0.6916
10496TIP3   OH252978   4.615   2.897   6.041 -0.0811  0.1898 -0.2147
10496TIP3    H152979   4.598   2.990   6.028 -4.0717 -0.6311 -1.5311
10496TIP3    H252980   4.598   2.882   6.134 -1.3930  0.3982 -0.4197
10497TIP3   OH252981   3.176   2.618   0.026  0.3999  0.1916  0.7682
10497TIP3    H152982   3.149   2.650  -0.059 -0.0397 -0.4955  0.6452
10497TIP3    H252983   3.272   2.621   0.024  0.3844  0.3066  0.3052
10498TIP3   OH252984   1.428   4.599  12.115 -1.1020  0.1213  0.5223
10498TIP3    H152985   1.379   4.628  12.038 -0.0458  2.0355  0.5263
10498TIP3    H252986   1.466   4.680  12.150 -0.0248 -0.9870  1.9633
10499TIP3   OH252987   3.428   4.171  12.548 -0.2789 -0.2944  0.2552
10499TIP3    H152988   3.439   4.123  12.466 -0.3122 -2.0962  1.2719
10499TIP3    H252989   3.374   4.247  12.525  0.3497 -0.3660 -1.5252
10500TIP3   OH252990   4.036   2.502   1.899  0.3805 -0.3625  0.1007
10500TIP3    H152991   4.029   2.548   1.983 -0.5231 -0.2905 -0.0102
10500TIP3    H252992   4.124   2.464   1.900  0.9551  0.9658  0.3913
10501TIP3   OH252993   6.156   4.490   5.034 -0.2218  0.7346  0.3768
10501TIP3    H152994   6.184   4.461   5.121  0.2511  0.4586  0.1381
10501TIP3    H252995   6.101   4.567   5.050  0.7339  1.3244  0.8560
10502TIP3   OH252996   0.470   3.729  13.299 -0.2411  0.2679  0.5275
10502TIP3    H152997   0.423   3.650  13.324  1.2484 -0.4393  1.1984
10502TIP3    H252998   0.458   3.789  13.373 -2.0417  0.9850 -0.3295
10503TIP3   OH252999   4.053   5.514  14.921 -0.8134  0.2642 -0.1633
10503TIP3    H153000   3.982   5.490  14.981 -0.5525 -0.3562 -0.1007
10503TIP3    H253001   4.022   5.487  14.835 -1.5307  1.8938 -0.4273
10504TIP3   OH253002   2.222   0.810   5.175  0.4502 -0.2869 -0.8359
10504TIP3    H153003   2.258   0.867   5.107  0.6743  0.5305 -0.0430
10504TIP3    H253004   2.238   0.858   5.256 -3.4435  0.6108 -0.5334
10505TIP3   OH253005   4.059   3.522   0.077 -0.2075 -0.0137  0.1022
10505TIP3    H153006   4.079   3.612   0.053  0.7801  0.1586  1.5538
10505TIP3    H253007   3.973   3.506   0.037 -0.3601  1.5351 -0.2326
10506TIP3   OH253008   5.284   4.932   5.421  0.2533  0.1685 -0.2665
10506TIP3    H153009   5.299   5.026   5.411  0.3465  0.4361  2.2270
10506TIP3    H253010   5.200   4.925   5.465  0.0044 -0.9395 -0.9018
10507TIP3   OH253011   1.416   6.766   4.627 -0.0855 -0.1352  0.3231
10507TIP3    H153012   1.396   6.747   4.535 -1.4939  3.0079 -0.0749
10507TIP3    H253013   1.496   6.718   4.644 -1.6021 -3.5600 -1.5448
10508TIP3   OH253014   5.885   3.773   4.188 -0.3349  0.2125  0.0266
10508TIP3    H153015   5.816   3.737   4.245 -0.8121 -0.3394 -0.8834
10508TIP3    H253016   5.886   3.866   4.209 -0.1234 -0.0649  1.3322
10509TIP3   OH253017   4.389   3.452  13.313 -0.2560  1.1082 -0.3072
10509TIP3    H153018   4.457   3.386  13.296 -1.5984  0.0817 -1.8830
10509TIP3    H253019   4.426   3.534  13.279  0.8559  0.9007  0.3839
10510TIP3   OH253020   1.904   4.508   0.290  0.3972  0.1563  0.7831
10510TIP3    H153021   1.821   4.537   0.253  0.3485 -0.8813  0.0513
10510TIP3    H253022   1.948   4.463   0.218  1.0877 -0.3052  1.4842
10511TIP3   OH253023   5.625   3.777  15.896 -0.5398  0.3716 -0.5446
10511TIP3    H153024   5.593   3.706  15.842  1.1626  0.4417 -1.6860
10511TIP3    H253025   5.696   3.739  15.947 -0.5421  0.9104 -0.1286
10512TIP3   OH253026   0.672   2.061   1.166  0.2257  0.0781  0.0775
10512TIP3    H153027   0.757   2.090   1.134  0.1846  0.3380  0.2023
10512TIP3    H253028   0.610   2.091   1.099  0.2487 -0.2400 -0.0860
10513TIP3   OH253029   4.460   2.247  12.231  0.3198  0.0145 -0.8714
10513TIP3    H153030   4.537   2.201  12.265  0.8903  1.1062 -0.6577
10513TIP3    H253031   4.386   2.197  12.265  0.9114 -0.1087  0.2876
10514TIP3   OH253032   4.405   0.243   4.932 -0.0979 -0.3031  0.1655
10514TIP3    H153033   4.357   0.324   4.921  1.5047  0.5840 -0.5620
10514TIP3    H253034   4.429   0.240   5.024 -0.5816 -0.2042  0.2942
10515TIP3   OH253035   2.721   0.737   3.431 -0.1561 -0.0455 -0.2193
10515TIP3    H153036   2.796   0.705   3.482 -0.1439 -1.2611 -0.9906
10515TIP3    H253037   2.742   0.713   3.341 -1.8737 -1.1724 -0.3313
10516TIP3   OH253038   1.633   6.249  15.464  0.6345  0.3863 -0.4827
10516TIP3    H153039   1.613   6.316  15.399 -0.4700  0.5569  0.0174
10516TIP3    H253040   1.573   6.267  15.537 -0.7869 -2.0835 -0.9670
10517TIP3   OH253041   3.356   6.670   3.807 -0.8004 -0.2261 -0.0981
10517TIP3    H153042   3.291   6.659   3.876  0.7971  0.6178  1.5835
10517TIP3    H253043   3.430   6.714   3.850  1.9877 -3.5263 -1.2715
10518TIP3   OH253044   2.725   1.766   2.188 -0.0962 -0.0131 -0.4877
10518TIP3    H153045   2.814   1.786   2.160  0.2945  0.8587  1.2731
10518TIP3    H253046   2.733   1.749   2.282 -1.6626 -0.7061 -0.4663
10519TIP3   OH253047   6.739   6.305   2.432  0.1870  0.0576 -0.1029
10519TIP3    H153048   6.773   6.217   2.447  1.6545  0.7486  0.7683
10519TIP3    H253049   6.646   6.299   2.454  0.7531 -0.7359  2.3219
10520TIP3   OH253050   4.610   6.380   5.566  0.0812 -0.2548 -0.5266
10520TIP3    H153051   4.527   6.423   5.543  0.7973  2.4174  1.6776
10520TIP3    H253052   4.666   6.394   5.490 -1.1557 -1.2416 -1.6473
10521TIP3   OH253053   0.123   2.827   3.660  0.5250 -0.0917  0.2259
10521TIP3    H153054   0.070   2.897   3.696 -1.9565 -1.4319 -0.7080
10521TIP3    H253055   0.212   2.861   3.661 -0.4290  2.4647  1.2092
10522TIP3   OH253056   5.848   0.358  15.682  0.5888  0.2951  0.6053
10522TIP3    H153057   5.852   0.453  15.670 -0.2033  0.3314  0.5826
10522TIP3    H253058   5.759   0.335  15.656  1.3965 -0.7467 -1.2841
10523TIP3   OH253059   0.885   3.494   0.346  0.1542 -0.2364 -0.0776
10523TIP3    H153060   0.825   3.532   0.411  0.6551 -0.2022  0.3707
10523TIP3    H253061   0.972   3.506   0.384  0.2889 -2.3278  0.3382
10524TIP3   OH253062   3.466   6.507   1.604 -0.2913 -0.2960 -0.4663
10524TIP3    H153063   3.523   6.433   1.584 -0.8222 -0.4581 -1.4479
10524TIP3    H253064   3.526   6.581   1.614  0.3051 -0.9969  1.3125
10525TIP3   OH253065   5.451   4.785  13.450 -0.3026  0.3110  0.0520
10525TIP3    H153066   5.463   4.775  13.545  1.9617  0.4578 -0.2007
10525TIP3    H253067   5.388   4.856  13.441  0.4397  1.1558  1.4315
10526TIP3   OH253068   0.584   5.993  15.149  0.7693 -0.0907  0.4900
10526TIP3    H153069   0.579   5.913  15.096 -1.0572 -0.7100  1.5686
10526TIP3    H253070   0.640   5.970  15.223 -0.4146 -0.6238  1.2241
10527TIP3   OH253071   3.343   3.068   2.631  0.0890 -0.5426  0.2634
10527TIP3    H153072   3.340   3.097   2.540 -1.5203 -1.6801 -0.0589
10527TIP3    H253073   3.283   3.128   2.676  1.3365  0.4050  0.7186
10528TIP3   OH253074   6.018   0.676   2.461 -0.2405 -0.4010  0.8341
10528TIP3    H153075   5.981   0.756   2.499 -1.7994 -1.8656  2.5266
10528TIP3    H253076   6.089   0.707   2.405  0.3971  2.0487  2.8773
10529TIP3   OH253077   1.169   3.950   5.983  0.0169 -0.0972  0.3422
10529TIP3    H153078   1.088   3.909   5.953  0.8794 -1.2774 -0.3998
10529TIP3    H253079   1.206   3.888   6.045  0.1365  0.6519  1.0385
10530TIP3   OH253080   5.945   5.817   5.876 -0.0354  0.1000  0.0861
10530TIP3    H153081   6.033   5.853   5.881  0.8679 -1.9332 -0.8619
10530TIP3    H253082   5.952   5.730   5.915 -1.5539 -0.2043 -0.2850
10531TIP3   OH253083   4.698   1.218   0.293 -0.2800 -0.5475 -0.0353
10531TIP3    H153084   4.663   1.258   0.373  0.9515 -0.6770  0.5789
10531TIP3    H253085   4.640   1.143   0.277 -0.1334 -0.9235  1.1138
10532TIP3   OH253086   6.437   4.516  15.858 -0.2804  0.7939  0.6925
10532TIP3    H153087   6.437   4.508  15.762  1.7180  0.0686  0.7393
10532TIP3    H253088   6.523   4.484  15.885 -0.7536  1.1790  2.7271
10533TIP3   OH253089   1.297   0.386   4.709 -0.3357 -0.8153  0.1007
10533TIP3    H153090   1.218   0.439   4.693 -0.1960 -0.3044  1.0410
10533TIP3    H253091   1.263   0.299   4.731 -0.6702 -0.4199  1.1749
10534TIP3   OH253092   5.543   1.602  10.800  0.1630 -0.6511 -0.3379
10534TIP3    H153093   5.471   1.591  10.738 -0.3648  1.0718 -0.0367
10534TIP3    H253094   5.518   1.551  10.876 -0.8156  0.0537 -0.1775
10535TIP3   OH253095   5.394   0.865  16.975 -0.1221 -0.0924 -0.7469
10535TIP3    H153096   5.378   0.774  16.952 -0.9475 -0.1973  0.2275
10535TIP3    H253097   5.451   0.898  16.905 -0.3247 -1.1766 -1.4257
10536TIP3   OH253098   3.146   5.090  17.248 -0.6538  0.2298  0.3216
10536TIP3    H153099   3.062   5.092  17.295  0.0865  0.7079  1.6402
10536TIP3    H253100   3.196   5.020  17.291  0.2991  1.1518  0.7335
10537TIP3   OH253101   0.290   2.096   3.351  0.0736  0.1148  0.6485
10537TIP3    H153102   0.293   2.152   3.274 -1.7568  0.8960  1.1224
10537TIP3    H253103   0.326   2.151   3.422 -1.1719  0.5113  0.9889
10538TIP3   OH253104   0.741   0.552   3.506 -1.1944  0.3468  0.2107
10538TIP3    H153105   0.724   0.582   3.595 -0.5499  1.0469  0.0997
10538TIP3    H253106   0.837   0.550   3.499 -1.1989  2.8015 -1.2865
10539TIP3   OH253107   4.897   2.792  13.815  0.4284  0.2904 -0.2117
10539TIP3    H153108   4.864   2.882  13.820  0.7213  0.3000  1.9071
10539TIP3    H253109   4.941   2.778  13.898  0.7107 -1.7043 -0.6737
10540TIP3   OH253110   3.661   6.314  13.337 -0.1839  0.0714  0.3191
10540TIP3    H153111   3.588   6.370  13.364 -1.3518 -0.8256 -0.9174
10540TIP3    H253112   3.629   6.225  13.352  0.7288 -0.3264 -0.0632
10541TIP3   OH253113   1.182   3.177  17.083  0.2507 -0.3408  0.1434
10541TIP3    H153114   1.267   3.168  17.041  0.6391 -0.4305  0.9454
10541TIP3    H253115   1.178   3.104  17.146  0.0677  0.3513  0.9363
10542TIP3   OH253116   6.732   0.062   1.372  0.0036 -0.4190 -0.4132
10542TIP3    H153117   6.706   0.017   1.291 -4.0166  1.9661 -0.5489
10542TIP3    H253118   6.742   0.153   1.346  0.8922  0.0043  1.3570
10543TIP3   OH253119   1.197   5.859  12.654  0.4141 -0.0854  0.2335
10543TIP3    H153120   1.116   5.900  12.686 -0.3014  0.9070 -2.7151
10543TIP3    H253121   1.259   5.931  12.647  1.4881 -0.7905  2.1418
10544TIP3   OH253122   4.455   3.073  16.219 -0.6670  0.0628 -0.3221
10544TIP3    H153123   4.491   3.089  16.306  0.9366  0.2486 -0.9870
10544TIP3    H253124   4.397   2.998  16.230 -1.1306  0.6124  1.0620
10545TIP3   OH253125   1.756   6.237   3.306 -0.1106 -0.0010  0.1327
10545TIP3    H153126   1.768   6.211   3.215  1.4743  1.1282  0.0148
10545TIP3    H253127   1.823   6.189   3.354 -1.5942 -1.4024  0.8886
10546TIP3   OH253128   1.778   1.817   4.630  0.3436  0.5739 -0.2940
10546TIP3    H153129   1.874   1.814   4.621  0.3868  1.1719 -0.0633
10546TIP3    H253130   1.763   1.802   4.724  0.2784  1.6516 -0.1232
10547TIP3   OH253131   0.442   5.189   1.877  0.1489  0.0180 -0.4027
10547TIP3    H153132   0.490   5.264   1.843 -0.5567  0.6683  0.0374
10547TIP3    H253133   0.501   5.150   1.942  0.2849  0.5211 -0.2242
10548TIP3   OH253134   6.460   6.275  10.540 -0.9467  0.1316  0.3191
10548TIP3    H153135   6.482   6.340  10.606 -0.2269 -0.0798  0.2861
10548TIP3    H253136   6.443   6.195  10.589 -0.2231 -0.0748  0.2351
10549TIP3   OH253137   3.453   1.514  16.380 -0.7773 -0.4027 -0.2151
10549TIP3    H153138   3.525   1.570  16.351  0.9840 -2.8114 -0.6930
10549TIP3    H253139   3.374   1.566  16.365  0.8280  2.2013  0.0806
10550TIP3   OH253140   2.717   3.432   1.179  0.0544 -0.1418 -0.1639
10550TIP3    H153141   2.793   3.424   1.235  0.2664  1.7389 -0.1757
10550TIP3    H253142   2.648   3.466   1.236 -0.6297 -1.2431 -0.3012
10551TIP3   OH253143   4.484   4.343   1.954  0.0884 -0.0933  0.2897
10551TIP3    H153144   4.425   4.295   2.012 -0.1199  0.5851  0.6407
10551TIP3    H253145   4.458   4.317   1.866  1.0507 -1.9125  0.5120
10552TIP3   OH253146   4.669   0.438  16.124  0.2235 -0.0852  0.6040
10552TIP3    H153147   4.665   0.344  16.140 -0.6219  0.1835  2.0959
10552TIP3    H253148   4.578   0.465  16.113  0.4424  0.5963  0.4026
10553TIP3   OH253149   3.622   0.485  12.447 -0.3154 -0.1169 -0.1138
10553TIP3    H153150   3.627   0.522  12.359 -0.3460  0.9015  0.3122
10553TIP3    H253151   3.560   0.413  12.439 -0.3155 -0.0334 -0.9281
10554TIP3   OH253152   4.315   2.020   5.157 -0.4209  0.3602  0.6585
10554TIP3    H153153   4.374   2.030   5.232  1.4424  0.6240 -0.8201
10554TIP3    H253154   4.331   1.931   5.126 -1.3072  0.1971  0.6424
10555TIP3   OH253155   1.480   1.016  15.961  0.2155 -0.1832  0.0172
10555TIP3    H153156   1.476   0.928  15.923  0.5931  0.0178 -0.4997
10555TIP3    H253157   1.571   1.026  15.987  0.4848  0.5697 -1.1824
10556TIP3   OH253158   1.261   0.586  14.812  0.5242 -1.0235  0.2771
10556TIP3    H153159   1.328   0.517  14.812 -0.4171 -1.9854 -1.5813
10556TIP3    H253160   1.179   0.539  14.796 -0.2696  0.4348  0.0240
10557TIP3   OH253161   4.457   0.020  16.542  0.7973 -0.6248  0.5208
10557TIP3    H153162   4.467  -0.050  16.606 -0.4423 -1.2959 -0.0170
10557TIP3    H253163   4.380  -0.004  16.491  1.8791 -0.2089 -1.3713
10558TIP3   OH253164   5.100   6.694  15.389  0.2950 -0.1438  0.0788
10558TIP3    H153165   5.106   6.788  15.407 -0.2995 -0.3362  1.3519
10558TIP3    H253166   5.147   6.654  15.462  1.6319 -0.7936 -1.1232
10559TIP3   OH253167   5.103   5.899   2.162  0.4377 -0.1172  0.2056
10559TIP3    H153168   5.098   5.928   2.071  2.1470 -1.9111 -0.5128
10559TIP3    H253169   5.167   5.957   2.203  1.8457 -1.0966 -0.5328
10560TIP3   OH253170   3.870   2.595   4.471  0.2353  0.3958  0.0974
10560TIP3    H153171   3.894   2.672   4.420  0.8945 -0.6725 -1.2465
10560TIP3    H253172   3.952   2.549   4.487 -0.0550  0.3691  1.5662
10561TIP3   OH253173   2.986   4.876   4.407  0.1420  0.4052 -0.1445
10561TIP3    H153174   3.026   4.962   4.400  0.1758  0.3263 -0.9616
10561TIP3    H253175   3.059   4.815   4.410  0.1074  0.3692 -0.0011
10562TIP3   OH253176   5.575   2.992   3.143 -0.1620  0.6925 -0.2134
10562TIP3    H153177   5.651   2.938   3.120 -0.8339  0.3416 -1.7000
10562TIP3    H253178   5.612   3.079   3.156  0.3725  0.7808 -2.0800
10563TIP3   OH253179   3.224   5.529  17.277 -0.5032 -0.1156  0.0510
10563TIP3    H153180   3.227   5.447  17.228  1.3678  0.1229 -0.2861
10563TIP3    H253181   3.190   5.593  17.215  0.7909 -0.0463 -0.6053
10564TIP3   OH253182   0.840   2.444  14.249  0.0751 -0.1114 -0.0609
10564TIP3    H153183   0.813   2.365  14.202 -0.7976  0.3214 -0.3000
10564TIP3    H253184   0.929   2.462  14.217 -0.7042  0.4704 -1.9285
10565TIP3   OH253185   4.802   2.697   2.098 -0.0122  0.2606  0.0097
10565TIP3    H153186   4.817   2.620   2.043  0.8962  0.2019  0.3292
10565TIP3    H253187   4.854   2.766   2.059  0.2579  0.3464  0.5109
10566TIP3   OH253188   5.082   4.421  13.694 -0.1459  0.4496  0.0038
10566TIP3    H153189   5.114   4.457  13.611 -1.3118  0.5341 -0.4271
10566TIP3    H253190   5.022   4.489  13.727 -2.7736 -1.2723 -1.0658
10567TIP3   OH253191   1.350   5.744   3.703  0.0405  0.1025 -0.1531
10567TIP3    H153192   1.382   5.737   3.793  0.3201 -3.9231 -0.4843
10567TIP3    H253193   1.256   5.727   3.709 -0.4434  2.5653 -0.3325
10568TIP3   OH253194   3.888   2.023  11.523  0.1180  0.1124 -0.0837
10568TIP3    H153195   3.960   2.068  11.568 -0.2791 -1.0646  1.7805
10568TIP3    H253196   3.811   2.076  11.542  0.1698  0.3444 -0.5119
10569TIP3   OH253197   0.058   1.356  12.828  0.4326  0.3244 -0.2361
10569TIP3    H153198   0.019   1.269  12.837  1.5924 -0.1027  0.8681
10569TIP3    H253199   0.008   1.398  12.758 -1.0681 -0.7111  0.1981
10570TIP3   OH253200   4.917   4.483   0.052 -0.3769  0.2957 -0.3106
10570TIP3    H153201   4.921   4.400   0.101 -1.8621 -0.7772 -1.9544
10570TIP3    H253202   4.826   4.511   0.061  0.0885  1.7141  0.1262
10571TIP3   OH253203   6.300   4.650   3.882  0.3867  0.2760  0.0399
10571TIP3    H153204   6.379   4.604   3.912  0.0434  0.0350  0.5845
10571TIP3    H253205   6.229   4.610   3.932  0.2047  2.1289  1.3275
10572TIP3   OH253206   0.165   1.494  15.329  0.0597 -0.0443 -0.3837
10572TIP3    H153207   0.196   1.406  15.307 -0.4308 -0.6815  1.4067
10572TIP3    H253208   0.195   1.509  15.419 -1.2580  0.9657 -0.0880
10573TIP3   OH253209   3.890   3.649  11.684  0.4640  0.1114 -0.3105
10573TIP3    H153210   3.824   3.657  11.614 -0.5867 -2.1437  0.3673
10573TIP3    H253211   3.953   3.586  11.650  0.6406 -0.0349  0.2908
10574TIP3   OH253212   2.457   5.397   1.558  0.0877  0.3649  0.4823
10574TIP3    H153213   2.550   5.420   1.565  0.4666 -0.9918 -0.0494
10574TIP3    H253214   2.451   5.345   1.478 -1.3400  1.4550 -0.1431
10575TIP3   OH253215   0.283   4.781  11.692 -0.3316 -0.2009 -0.5599
10575TIP3    H153216   0.371   4.767  11.727  0.3018 -0.1450 -2.0905
10575TIP3    H253217   0.242   4.694  11.693 -0.7500 -0.0084  1.3875
10576TIP3   OH253218   2.750   6.443   1.787  0.3813 -0.2613 -0.2247
10576TIP3    H153219   2.815   6.503   1.751 -0.5827 -0.6494 -2.7084
10576TIP3    H253220   2.801   6.368   1.819  1.2076 -0.2485 -1.5059
10577TIP3   OH253221   0.072   0.295   4.840  0.0777  0.2242 -0.0095
10577TIP3    H153222  -0.018   0.264   4.837  0.9591 -2.5200  0.8387
10577TIP3    H253223   0.065   0.386   4.868 -2.3665 -0.2348  0.9995
10578TIP3   OH253224   5.303   4.924  17.164 -0.4044 -0.1025 -0.0383
10578TIP3    H153225   5.248   4.958  17.235  0.3315 -2.7175  1.8789
10578TIP3    H253226   5.244   4.870  17.111 -0.4011 -0.2012  0.0587
10579TIP3   OH253227   5.739   2.508   3.248 -0.7666  0.3758  0.3554
10579TIP3    H153228   5.706   2.594   3.275 -0.2885  1.3202 -1.9244
10579TIP3    H253229   5.674   2.477   3.184 -1.3966 -1.3762  1.8024
10580TIP3   OH253230   3.567   0.308   1.458  0.2264  0.2165 -0.1921
10580TIP3    H153231   3.613   0.368   1.399  0.4418  0.6135  0.3808
10580TIP3    H253232   3.504   0.364   1.504 -0.2703 -0.1797 -0.3841
10581TIP3   OH253233   1.868   3.260   1.005  0.3164 -0.2270  0.6563
10581TIP3    H153234   1.843   3.278   1.095  0.3385  1.7651  0.2984
10581TIP3    H253235   1.954   3.220   1.011 -0.3306 -1.4982  1.5871
10582TIP3   OH253236   2.206   5.315   2.779  0.0037  0.3586 -0.2339
10582TIP3    H153237   2.157   5.369   2.716 -0.6068 -1.0055 -0.9489
10582TIP3    H253238   2.140   5.257   2.816  0.4874  0.7303  1.2177
10583TIP3   OH253239   6.719   4.913   3.091 -0.0411  0.1127  0.2412
10583TIP3    H153240   6.783   4.848   3.063  2.1186  0.3289  4.3541
10583TIP3    H253241   6.636   4.864   3.096  0.7405 -1.3200 -0.4635
10584TIP3   OH253242   6.636   1.202  11.451  0.0382 -0.1904  0.0513
10584TIP3    H153243   6.565   1.202  11.387 -0.1265  0.9782  0.2152
10584TIP3    H253244   6.618   1.126  11.507 -1.0084  0.0088 -0.0044
10585TIP3   OH253245   5.095   2.888   0.953 -0.3204  0.8253  0.3725
10585TIP3    H153246   5.027   2.829   0.921  0.3035  0.9995 -1.3616
10585TIP3    H253247   5.177   2.853   0.917  0.2194  1.9486  0.4614
10586TIP3   OH253248   1.991   0.082   1.947  0.1904 -0.0020 -0.2941
10586TIP3    H153249   1.917   0.040   1.904  0.8589 -1.6869  0.1852
10586TIP3    H253250   2.068   0.038   1.911  0.8459  0.0825  0.9933
10587TIP3   OH253251   2.365   1.152  16.512  0.4395  0.5284  0.1565
10587TIP3    H153252   2.423   1.221  16.544  2.2751 -1.3025  0.8773
10587TIP3    H253253   2.401   1.127  16.427  1.1950 -1.1389  0.9369
10588TIP3   OH253254   6.386   3.725   2.803 -0.4956 -0.1162  0.1902
10588TIP3    H153255   6.410   3.639   2.768 -0.3517  0.5835 -1.4409
10588TIP3    H253256   6.304   3.710   2.849 -0.6934 -1.0499 -0.4547
10589TIP3   OH253257   6.202   0.264  16.052 -0.0700 -0.2180  0.6358
10589TIP3    H153258   6.297   0.267  16.045  0.0752  0.7732  2.5263
10589TIP3    H253259   6.183   0.176  16.085  0.2013 -0.3635  0.4055
10590TIP3   OH253260   5.927   3.377  16.190  0.4505  0.6993  0.1850
10590TIP3    H153261   5.842   3.408  16.224 -0.6493 -1.5929 -0.3735
10590TIP3    H253262   5.954   3.309  16.252  1.4242  0.7702 -0.1597
10591TIP3   OH253263   5.072   1.713  13.773  0.3084 -0.6464  0.1868
10591TIP3    H153264   5.044   1.781  13.712  1.2178 -0.7007 -0.3021
10591TIP3    H253265   5.018   1.726  13.850 -0.3212 -0.0894 -0.3429
10592TIP3   OH253266   6.386   2.958   2.378 -0.1211 -0.3020  0.3354
10592TIP3    H153267   6.361   2.998   2.461  0.2857 -0.3059  0.4597
10592TIP3    H253268   6.461   2.903   2.400  0.5161  0.3531 -0.1948
10593TIP3   OH253269   0.825   2.621  13.284  0.1511 -0.4441  0.3308
10593TIP3    H153270   0.900   2.604  13.227  0.5290  0.2821  0.6143
10593TIP3    H253271   0.791   2.706  13.255 -1.2591 -1.2672 -0.5476
10594TIP3   OH253272   0.621   6.540  12.503 -0.1628  0.4309 -0.7051
10594TIP3    H153273   0.615   6.455  12.547 -0.2511  0.1392 -1.2737
10594TIP3    H253274   0.562   6.597  12.553 -0.4393  0.0413 -0.5825
10595TIP3   OH253275   1.618   5.847   5.614  0.3838 -0.2595  0.1845
10595TIP3    H153276   1.555   5.886   5.553  0.3402 -1.0736 -0.3169
10595TIP3    H253277   1.575   5.851   5.699  1.1741  2.4806  0.4735
10596TIP3   OH253278   4.705   0.065   3.304  0.0588 -0.3803 -0.3652
10596TIP3    H153279   4.749   0.027   3.228  2.4211 -2.0616  1.7452
10596TIP3    H253280   4.774   0.112   3.351 -1.4425  0.9377  0.5706
10597TIP3   OH253281   0.844   2.154   4.480  0.2079 -0.2751 -0.3012
10597TIP3    H153282   0.870   2.074   4.526  0.5621  0.4764  0.8161
10597TIP3    H253283   0.775   2.126   4.420  0.4815 -1.4625 -0.0684
10598TIP3   OH253284   6.618   2.578   4.777  0.5643  0.0067 -0.5248
10598TIP3    H153285   6.618   2.543   4.867  1.1620  0.6250 -0.2809
10598TIP3    H253286   6.711   2.586   4.755  0.4321 -2.4788 -2.1147
10599TIP3   OH253287   6.518   5.743  15.082  0.0659  0.6485 -0.4601
10599TIP3    H153288   6.454   5.693  15.133  0.8643  0.4566  0.3596
10599TIP3    H253289   6.496   5.724  14.991  0.9164 -1.8830 -0.1633
10600TIP3   OH253290   0.973   2.699   6.055  0.3182  0.2261 -0.0646
10600TIP3    H153291   0.998   2.627   6.114  0.2511 -0.6742 -1.1291
10600TIP3    H253292   0.892   2.734   6.094  0.4682 -0.1259  0.5803
10601TIP3   OH253293   2.521   5.040   2.340  0.3081  0.2479  0.4079
10601TIP3    H153294   2.610   5.026   2.373  0.6846  0.8737 -0.3252
10601TIP3    H253295   2.468   4.977   2.388  0.6728  1.7868  2.9450
10602TIP3   OH253296   4.273   1.787  13.055 -0.0454  0.0923 -0.1014
10602TIP3    H153297   4.294   1.739  13.135 -1.7801  0.7090  0.7572
10602TIP3    H253298   4.317   1.872  13.066  1.2791 -0.5134 -0.6680
10603TIP3   OH253299   2.256   0.742  17.076  0.2843  0.2775  0.0648
10603TIP3    H153300   2.343   0.707  17.093  0.4530  0.9593  0.6620
10603TIP3    H253301   2.258   0.831  17.113 -1.0853 -0.1922  1.3567
10604TIP3   OH253302   4.754   2.387  10.823  0.2058 -0.3244  0.0420
10604TIP3    H153303   4.696   2.311  10.817 -0.3672  0.2203 -1.5863
10604TIP3    H253304   4.792   2.395  10.735  2.5270 -0.4916  1.0088
10605TIP3   OH253305   1.929   6.058   4.197  0.0841  0.0099 -0.2158
10605TIP3    H153306   1.850   6.102   4.164  0.3711 -0.9204 -2.2157
10605TIP3    H253307   1.898   6.008   4.273 -0.9160  0.9821  0.0271
10606TIP3   OH253308   2.167   1.968   3.313 -0.8193 -0.1050  0.1341
10606TIP3    H153309   2.207   1.937   3.231 -0.5511  0.9333 -0.1288
10606TIP3    H253310   2.235   1.957   3.379 -0.4120  0.7888 -0.1366
10607TIP3   OH253311   6.629   2.013   0.363 -0.6433 -0.2865  0.6171
10607TIP3    H153312   6.596   1.930   0.330 -0.6577  0.1791 -0.5717
10607TIP3    H253313   6.588   2.080   0.307  0.1615  0.4537  0.8875
10608TIP3   OH253314   2.711   6.533   0.368  0.1365 -0.4950 -0.4207
10608TIP3    H153315   2.800   6.513   0.339  0.3424  0.3360 -0.3924
10608TIP3    H253316   2.657   6.465   0.328  0.8449 -1.2864 -0.0374
10609TIP3   OH253317   5.210   1.757   2.387  0.0172  0.0931  0.3199
10609TIP3    H153318   5.150   1.693   2.349 -0.8807  0.7874  0.5327
10609TIP3    H253319   5.186   1.841   2.347  1.4830  0.2335 -0.3044
10610TIP3   OH253320   1.472   1.136   3.196  0.2613  0.4961  0.3925
10610TIP3    H153321   1.567   1.137   3.179  0.1300  1.2020 -0.3470
10610TIP3    H253322   1.462   1.185   3.277  0.5680  0.0588  0.6989
10611TIP3   OH253323   2.830   3.885  13.331  0.3719 -0.0026  0.4660
10611TIP3    H153324   2.884   3.876  13.252  0.6253 -0.9259  0.7329
10611TIP3    H253325   2.741   3.899  13.298  0.7929  1.7073  0.0235
10612TIP3   OH253326   6.598   1.789   1.612  0.1178  0.4193 -0.4307
10612TIP3    H153327   6.544   1.865   1.632 -0.1259  0.5591 -1.5494
10612TIP3    H253328   6.676   1.799   1.666  0.2964  1.7001 -0.9159
10613TIP3   OH253329   1.213   6.513   2.793  0.0437  0.1612  0.1779
10613TIP3    H153330   1.293   6.551   2.755 -0.1433 -1.6803 -2.2505
10613TIP3    H253331   1.187   6.574   2.861  2.0024  2.2136 -0.8362
10614TIP3   OH253332   3.975   0.044   3.655 -0.0376 -0.2247 -0.3693
10614TIP3    H153333   3.981  -0.047   3.686 -1.6687 -0.1154  0.3301
10614TIP3    H253334   4.033   0.047   3.580 -1.0719 -2.2553 -1.3014
10615TIP3   OH253335   1.178   4.364   3.999 -0.4728  0.1049  0.9585
10615TIP3    H153336   1.220   4.387   4.081  3.5705 -0.9413 -0.6716
10615TIP3    H253337   1.155   4.271   4.008  0.0710 -0.0382  0.8685
10616TIP3   OH253338   0.998   2.899  12.134  0.0541 -0.5403 -0.6592
10616TIP3    H153339   1.081   2.885  12.179 -1.2287 -1.2164  1.6108
10616TIP3    H253340   1.012   2.976  12.079  2.4258 -1.1837 -0.9736
10617TIP3   OH253341   1.712   5.128  12.057 -0.4553 -0.3083  0.0402
10617TIP3    H153342   1.683   5.120  12.148  0.4699  0.4038  0.4029
10617TIP3    H253343   1.665   5.058  12.011 -3.4954  1.3975  0.4081
10618TIP3   OH253344   2.305   0.533  13.770  0.6789  0.5265  0.0333
10618TIP3    H153345   2.270   0.478  13.841  0.5801  1.0941  0.4268
10618TIP3    H253346   2.342   0.471  13.708 -1.1529 -0.1098 -0.4511
10619TIP3   OH253347   4.988   0.036  14.021  0.2633 -0.0722  0.0523
10619TIP3    H153348   4.959   0.126  14.005  0.4465  0.1594  1.0364
10619TIP3    H253349   4.922   0.001  14.081 -0.9081 -1.2230 -1.8523
10620TIP3   OH253350   5.681   0.663   1.950 -0.8924  0.1539  0.8116
10620TIP3    H153351   5.765   0.682   1.992  0.2233 -0.6825 -0.9791
10620TIP3    H253352   5.661   0.743   1.900 -0.8172  0.1210  0.7264
10621TIP3   OH253353   5.917   4.072   6.729  0.0382 -0.4684  0.0972
10621TIP3    H153354   5.889   3.985   6.757  0.6213 -0.5388  0.4466
10621TIP3    H253355   6.005   4.060   6.695  0.1707  0.0153  0.2717
10622TIP3   OH253356   4.136   3.198   5.834 -0.1284 -0.6261  0.6174
10622TIP3    H153357   4.217   3.177   5.881 -0.0880 -2.1481 -0.0857
10622TIP3    H253358   4.068   3.194   5.901  0.2725 -0.0727  1.0686
10623TIP3   OH253359   1.825   6.268   2.252  0.5503  0.2090  0.0129
10623TIP3    H153360   1.834   6.173   2.262  2.3854  0.3289 -0.4087
10623TIP3    H253361   1.856   6.286   2.163 -0.0670  1.1760 -0.0150
10624TIP3   OH253362   5.294   4.199  11.804 -0.5835 -0.2785  0.5749
10624TIP3    H153363   5.318   4.189  11.712 -2.7986  0.6337 -0.1587
10624TIP3    H253364   5.342   4.277  11.832  0.1533 -0.5940  0.2095
10625TIP3   OH253365   5.442   6.151   0.952  0.1235 -0.4581  0.3250
10625TIP3    H153366   5.481   6.170   1.038 -1.5793  0.3762  0.9387
10625TIP3    H253367   5.411   6.061   0.960  0.0705 -0.4213  0.5460
10626TIP3   OH253368   0.982   3.271  14.812 -0.5613  0.2522  0.7498
10626TIP3    H153369   1.046   3.334  14.778  1.2463 -0.3044  2.9808
10626TIP3    H253370   0.941   3.317  14.886 -1.2380 -0.1604  0.6292
10627TIP3   OH253371   4.966   4.720   2.193 -0.4942 -0.3500 -0.1593
10627TIP3    H153372   4.999   4.799   2.236  0.8714  0.2463 -2.2389
10627TIP3    H253373   4.976   4.651   2.259 -3.6805  1.5310  2.4709
10628TIP3   OH253374   0.808   5.122   4.116 -0.2592  0.1164 -0.4759
10628TIP3    H153375   0.792   5.028   4.111 -0.6103  0.0182  1.9693
10628TIP3    H253376   0.736   5.157   4.168  0.2789  1.6230 -0.6950
10629TIP3   OH253377   5.786   3.490   2.827  0.8371 -0.9142 -0.1297
10629TIP3    H153378   5.784   3.547   2.750 -0.1903  0.7271  1.0892
10629TIP3    H253379   5.810   3.548   2.899 -3.6177 -1.2481  1.7477
10630TIP3   OH253380   4.811   1.741  12.388  0.1553  0.0174  0.6585
10630TIP3    H153381   4.734   1.764  12.441 -0.8729  1.4208 -1.3751
10630TIP3    H253382   4.857   1.676  12.440 -2.5277 -1.0118  1.8421
10631TIP3   OH253383   4.456   5.305  14.004  0.1545  0.1129  0.2257
10631TIP3    H153384   4.532   5.280  14.056  0.3242  0.5409  0.1854
10631TIP3    H253385   4.433   5.392  14.035  0.4704  0.5150 -0.6627
10632TIP3   OH253386   5.279   5.882   0.129  0.0953  0.0425  0.4546
10632TIP3    H153387   5.300   5.976   0.128 -0.3718  0.1527 -1.8384
10632TIP3    H253388   5.195   5.876   0.084  0.9095 -1.6523 -0.8840
10633TIP3   OH253389   2.461   1.680  15.422  0.2412  0.4839  0.3110
10633TIP3    H153390   2.543   1.640  15.451 -0.2707 -0.3393  0.6372
10633TIP3    H253391   2.415   1.703  15.503  1.7637  4.3787  0.1907
10634TIP3   OH253392   4.988   3.654  15.538  0.3460  0.4976  0.4994
10634TIP3    H153393   5.068   3.606  15.518  0.3216  1.2446 -1.4717
10634TIP3    H253394   5.010   3.706  15.616  1.4508 -0.0495  0.5575
10635TIP3   OH253395   5.752   2.292   2.017  0.2826  0.3049 -0.1075
10635TIP3    H153396   5.813   2.352   1.974  1.7238 -0.1603  1.2404
10635TIP3    H253397   5.727   2.338   2.098  0.2819 -0.2857  0.2291
10636TIP3   OH253398   1.178   6.632   2.345 -0.8071  0.0357 -0.0679
10636TIP3    H153399   1.167   6.661   2.255 -0.1773  0.3388 -0.0529
10636TIP3    H253400   1.242   6.561   2.340  0.4452  1.0936  0.2996
10637TIP3   OH253401   0.202   1.883  15.215 -0.2323 -0.2544 -0.1964
10637TIP3    H153402   0.153   1.860  15.294 -1.1802  0.8783 -0.4386
10637TIP3    H253403   0.235   1.971  15.232 -2.1517  0.8093 -1.8573
10638TIP3   OH253404   3.060   6.069   3.854 -0.6034 -0.5120 -0.3584
10638TIP3    H153405   3.015   6.103   3.931 -1.1536 -2.0395  0.0112
10638TIP3    H253406   3.132   6.130   3.839 -0.4818 -0.2140  1.3854
10639TIP3   OH253407   1.598   5.841   1.220  0.1153  0.1140 -0.2163
10639TIP3    H153408   1.655   5.911   1.187  0.4425 -0.0509 -0.0020
10639TIP3    H253409   1.511   5.866   1.192  0.3882 -0.0066 -1.2056
10640TIP3   OH253410   6.185   6.425   2.406  0.1825  0.2644 -0.3355
10640TIP3    H153411   6.170   6.343   2.453  0.1054  0.4004 -0.1230
10640TIP3    H253412   6.207   6.489   2.474  0.1326  0.4471 -0.4891
10641TIP3   OH253413   3.932   2.551  15.700  0.5594 -0.5882  0.5350
10641TIP3    H153414   3.944   2.456  15.692  0.2613 -0.7625  2.1359
10641TIP3    H253415   3.865   2.561  15.767 -1.9959  0.6466 -2.1090
10642TIP3   OH253416   3.104   3.992  12.709  0.1088  0.6369 -0.2734
10642TIP3    H153417   3.196   3.986  12.733  0.1094  0.2659 -0.3591
10642TIP3    H253418   3.067   4.056  12.769  0.5371  1.1865 -0.5942
10643TIP3   OH253419   1.209   0.060  13.955 -0.4210 -0.7500  0.4573
10643TIP3    H153420   1.205  -0.035  13.949 -1.0012 -0.7728  1.1135
10643TIP3    H253421   1.135   0.084  14.012 -0.9960  0.1842 -0.6596
10644TIP3   OH253422   0.289   0.814   0.388  0.5740  0.1350 -0.0255
10644TIP3    H153423   0.368   0.785   0.342  1.4726  1.8455  0.3913
10644TIP3    H253424   0.296   0.775   0.475 -0.0664 -1.3661 -0.6310
10645TIP3   OH253425   5.482   3.162  10.795 -0.5858 -0.2878  0.2642
10645TIP3    H153426   5.414   3.158  10.728  1.1569 -0.9340 -1.5091
10645TIP3    H253427   5.564   3.151  10.747  0.8881  1.8092  2.1854
10646TIP3   OH253428   0.546   0.385   4.028  0.5989  0.0873  0.0766
10646TIP3    H153429   0.593   0.374   4.111  1.7205  0.4347 -0.5146
10646TIP3    H253430   0.585   0.320   3.970  0.1196  0.1586 -0.3241
10647TIP3   OH253431   0.665   3.097  12.541 -0.0913 -0.7354 -0.3311
10647TIP3    H153432   0.614   3.153  12.483 -1.1787 -1.6554 -0.2784
10647TIP3    H253433   0.732   3.155  12.578 -1.1235  0.4910 -0.3644
10648TIP3   OH253434   3.978   2.536   3.625 -0.0767  0.1970 -0.3957
10648TIP3    H153435   3.928   2.455   3.624 -1.2042  0.8808 -1.3961
10648TIP3    H253436   3.951   2.581   3.705  0.9668 -0.6376  0.4534
10649TIP3   OH253437   3.778   2.625  14.574 -0.2881 -0.0505 -0.3811
10649TIP3    H153438   3.719   2.586  14.639 -0.7974  1.0857 -0.1528
10649TIP3    H253439   3.852   2.564  14.570 -0.4709 -0.3814  0.9181
10650TIP3   OH253440   0.839   0.146  12.432 -0.3746 -0.6285  0.8181
10650TIP3    H153441   0.820   0.052  12.441  1.2346 -1.2571 -1.6481
10650TIP3    H253442   0.913   0.161  12.491 -0.2964 -1.0338  0.8274
10651TIP3   OH253443   2.716   0.573   4.756  0.2906 -0.2261 -0.0878
10651TIP3    H153444   2.789   0.596   4.815 -0.9523  0.1564  1.3330
10651TIP3    H253445   2.757   0.521   4.687  2.2823  1.8166 -0.5062
10652TIP3   OH253446   0.411   5.244  15.556  0.2434  0.2819 -0.2897
10652TIP3    H153447   0.461   5.188  15.616  0.5584 -0.7604 -1.5105
10652TIP3    H253448   0.421   5.202  15.471 -2.3403  0.3194 -0.6454
10653TIP3   OH253449   1.309   4.654   1.878  0.1734 -0.6588 -0.3279
10653TIP3    H153450   1.390   4.693   1.910  0.2087  0.2743 -1.5122
10653TIP3    H253451   1.292   4.699   1.794 -0.9301 -1.6694 -0.6620
10654TIP3   OH253452   6.682   3.279   0.484  0.7893  0.1186 -0.4473
10654TIP3    H153453   6.619   3.235   0.427  0.8111  1.4441 -1.5488
10654TIP3    H253454   6.697   3.219   0.556 -1.8250 -0.1719 -0.1198
10655TIP3   OH253455   5.124   6.245  10.909  0.0113  0.0372 -0.3839
10655TIP3    H153456   5.057   6.224  10.844  2.3441 -2.5857 -2.0928
10655TIP3    H253457   5.180   6.309  10.866  0.8319 -0.7548 -0.5295
10656TIP3   OH253458   0.522   4.231   5.191  0.2142 -0.0931  0.7258
10656TIP3    H153459   0.470   4.278   5.126  1.2027 -0.4580 -0.3533
10656TIP3    H253460   0.511   4.139   5.169  2.6519 -0.1030 -0.5876
10657TIP3   OH253461   3.017   6.661  17.218  0.5363 -0.5883  0.2696
10657TIP3    H153462   3.070   6.636  17.142 -0.0024 -1.2556  0.1107
10657TIP3    H253463   3.004   6.755  17.208  0.4799 -0.6683 -0.4608
10658TIP3   OH253464   6.595   2.079  14.040 -0.6410 -0.2860  0.8727
10658TIP3    H153465   6.636   2.008  14.090  1.3526  1.0559  1.1854
10658TIP3    H253466   6.638   2.159  14.070 -0.9379  0.8002 -1.4075
10659TIP3   OH253467   4.493   5.989   3.643 -0.1374 -0.1068  0.2366
10659TIP3    H153468   4.476   5.986   3.737  1.6136 -1.7319  0.5308
10659TIP3    H253469   4.559   6.058   3.632 -0.1880 -0.0612  0.2098
10660TIP3   OH253470   3.269   1.381   0.058  0.0857 -0.5180 -0.4764
10660TIP3    H153471   3.175   1.376   0.040 -0.4234  2.3250  1.1126
10660TIP3    H253472   3.306   1.424  -0.020  0.0114 -1.2816 -0.9337
10661TIP3   OH253473   2.566   5.033   5.113 -0.3321 -0.2007 -0.0007
10661TIP3    H153474   2.581   5.002   5.024  2.3501 -0.3562  0.4717
10661TIP3    H253475   2.563   5.128   5.106  2.3262 -0.0893  0.0601
10662TIP3   OH253476   1.667   2.568   0.258 -0.2259 -0.2912 -0.2038
10662TIP3    H153477   1.719   2.530   0.187  0.6262  1.6220 -0.6303
10662TIP3    H253478   1.675   2.662   0.246 -0.0940  0.0681  2.4261
10663TIP3   OH253479   4.667   0.822  17.017  0.2803 -0.6471 -0.3892
10663TIP3    H153480   4.656   0.896  16.957 -1.4496 -0.9291 -0.4507
10663TIP3    H253481   4.726   0.762  16.971  0.1154 -0.2055 -1.1880
10664TIP3   OH253482   1.932   4.070  12.244 -0.1189  0.2351  0.1694
10664TIP3    H153483   1.855   4.107  12.200  0.7032  2.6809  0.7334
10664TIP3    H253484   2.002   4.074  12.179 -0.2401 -1.1987 -0.0632
10665TIP3   OH253485   6.768   2.127  13.186  0.2181  0.1008  0.0692
10665TIP3    H153486   6.851   2.085  13.210 -0.3085 -0.0468  1.7000
10665TIP3    H253487   6.711   2.054  13.162 -0.4043 -0.0847  2.0049
10666TIP3   OH253488   0.500   6.194   3.940 -0.1516  0.0466 -0.1356
10666TIP3    H153489   0.495   6.289   3.926  0.1202  0.1950  0.7767
10666TIP3    H253490   0.409   6.166   3.944 -0.2364  0.3673  0.2368
10667TIP3   OH253491   6.628   2.836   2.075 -0.1282 -0.3776 -0.1398
10667TIP3    H153492   6.677   2.847   1.994 -0.6799  0.9254 -0.3034
10667TIP3    H253493   6.605   2.925   2.102  1.8877 -0.6349  2.6061
10668TIP3   OH253494   4.391   1.603  13.698 -0.7656  1.2866  0.1233
10668TIP3    H153495   4.424   1.654  13.624  2.7966  1.3013  1.6080
10668TIP3    H253496   4.441   1.635  13.773 -1.4232 -1.5046  1.8390
10669TIP3   OH253497   3.431   2.774  12.967  0.7188  0.2285  0.4674
10669TIP3    H153498   3.425   2.693  12.916 -1.2173  0.4982  0.2219
10669TIP3    H253499   3.411   2.843  12.903  2.7496  0.9558  0.5846
10670TIP3   OH253500   6.468   4.152   4.273 -0.1414  0.5576 -0.1119
10670TIP3    H153501   6.384   4.158   4.318  0.9198 -0.8343  2.2099
10670TIP3    H253502   6.474   4.060   4.245 -0.3408  1.1793 -2.2499
10671TIP3   OH253503   0.969   5.670  14.839 -0.7832  0.4056  0.2050
10671TIP3    H153504   0.948   5.741  14.778 -0.3419 -0.6621 -1.2091
10671TIP3    H253505   0.886   5.626  14.855 -0.4022 -1.1401 -1.9683
10672TIP3   OH253506   2.406   2.934  15.883  0.7679  0.7270  0.0490
10672TIP3    H153507   2.457   2.892  15.814 -2.5053 -1.6850 -0.9909
10672TIP3    H253508   2.370   2.862  15.935 -2.1932  2.2593  0.2582
10673TIP3   OH253509   5.044   2.876  14.719  0.0435  0.3357 -0.2654
10673TIP3    H153510   5.000   2.840  14.797  0.4509 -0.1003 -0.2318
10673TIP3    H253511   5.032   2.970  14.726  1.0835  0.3813  0.9390
10674TIP3   OH253512   2.974   2.248  13.618  0.1525  0.4118 -0.0021
10674TIP3    H153513   2.945   2.177  13.675  0.3198  1.5567  1.5401
10674TIP3    H253514   2.900   2.307  13.613  1.5229  2.4411  2.4934
10675TIP3   OH253515   0.032   0.984   1.059  0.1582 -0.0297  0.0742
10675TIP3    H153516   0.001   1.073   1.078 -1.0978 -0.5742  0.6429
10675TIP3    H253517  -0.006   0.930   1.129  2.3751 -0.7418  0.7684
10676TIP3   OH253518   5.742   2.379  13.608 -0.5584  0.1954 -0.0282
10676TIP3    H153519   5.773   2.413  13.692 -1.1258 -2.2148  1.1957
10676TIP3    H253520   5.801   2.307  13.588  0.7842  1.9831 -2.7147
10677TIP3   OH253521   1.800   6.648  13.120 -0.4906  0.0986  0.0619
10677TIP3    H153522   1.809   6.591  13.043 -0.0256  0.0083  0.1847
10677TIP3    H253523   1.706   6.664  13.126 -0.5389  0.0395 -0.4811
10678TIP3   OH253524   3.010   5.127   0.878  0.1812  0.4458 -0.0581
10678TIP3    H153525   3.033   5.047   0.924  0.6901 -0.2820 -1.5389
10678TIP3    H253526   3.047   5.197   0.931  0.4535 -0.3521  0.8115
10679TIP3   OH253527   3.938   2.478   6.591  0.1705 -0.3761 -0.6129
10679TIP3    H153528   4.033   2.467   6.593  0.0042 -1.9566 -0.8335
10679TIP3    H253529   3.915   2.473   6.498 -0.1984 -0.6043 -0.5086
10680TIP3   OH253530   3.948   4.349   5.661  0.2605 -0.2054 -0.2594
10680TIP3    H153531   3.949   4.413   5.732 -2.0966 -0.0575 -0.3169
10680TIP3    H253532   3.907   4.395   5.588 -1.4479 -1.7412 -0.3026
10681TIP3   OH253533   0.057   5.785   1.320  0.0472 -0.7959 -0.4035
10681TIP3    H153534   0.083   5.745   1.403  0.3939  0.8111  0.2753
10681TIP3    H253535   0.076   5.878   1.331 -2.2903 -0.1652 -1.3556
10682TIP3   OH253536   3.075   3.394   3.114 -0.1709 -0.3869 -0.7477
10682TIP3    H153537   3.041   3.311   3.147 -3.0380  0.8442 -0.4656
10682TIP3    H253538   3.138   3.422   3.181 -1.6015 -0.7510  0.7877
10683TIP3   OH253539   3.235   2.804  14.296 -0.7739 -0.7495 -0.4110
10683TIP3    H153540   3.170   2.822  14.228 -1.2635 -2.6387 -0.4443
10683TIP3    H253541   3.320   2.815  14.251 -0.9928  2.2641 -0.2318
10684TIP3   OH253542   0.411   0.297   2.291  0.4657 -0.4018 -0.1938
10684TIP3    H153543   0.493   0.297   2.242  1.0145 -1.2414  0.7036
10684TIP3    H253544   0.343   0.306   2.225  1.3147  1.0905 -0.8908
10685TIP3   OH253545   5.123   5.761   4.619 -0.2997  0.1959 -0.2417
10685TIP3    H153546   5.066   5.794   4.688 -0.3606 -0.4743  0.0338
10685TIP3    H253547   5.066   5.706   4.565 -0.6158  1.9420 -1.7273
10686TIP3   OH253548   6.569   6.633  11.858 -0.0257 -0.1800  0.0646
10686TIP3    H153549   6.495   6.693  11.863 -0.9382 -1.1223 -1.6380
10686TIP3    H253550   6.637   6.684  11.812 -0.4424 -0.0913 -0.4658
10687TIP3   OH253551   4.497   0.166   5.964  0.1203  0.0474 -0.2780
10687TIP3    H153552   4.442   0.199   6.035 -1.6253 -1.8436 -0.7017
10687TIP3    H253553   4.513   0.243   5.908 -4.4992  0.1465 -1.6593
10688TIP3   OH253554   3.568   4.023   2.896  0.0822  0.0298  0.1260
10688TIP3    H153555   3.476   4.047   2.909  0.1416  0.6516 -0.5809
10688TIP3    H253556   3.564   3.942   2.845 -0.0802 -0.4464  0.8723
10689TIP3   OH253557   3.249   4.530  15.873 -0.6016  0.2069 -0.1662
10689TIP3    H153558   3.279   4.617  15.848 -1.0889  0.4677  0.1449
10689TIP3    H253559   3.218   4.541  15.963  1.6285 -0.8188  0.7856
10690TIP3   OH253560   0.176   4.754   3.831  0.0508 -0.2732 -0.2297
10690TIP3    H153561   0.097   4.732   3.782 -0.5175  1.7376 -0.2605
10690TIP3    H253562   0.150   4.827   3.887  1.1260 -1.4907  1.9063
10691TIP3   OH253563   2.671   3.934  14.362  0.6747  0.0599 -0.0895
10691TIP3    H153564   2.758   3.966  14.341  0.8263 -1.0249 -1.1995
10691TIP3    H253565   2.613   3.980  14.302  0.7392 -0.7279 -0.7730
10692TIP3   OH253566   6.631   1.465   4.227 -0.0993 -0.1607  0.3785
10692TIP3    H153567   6.712   1.414   4.225 -0.7465 -1.1952  0.1994
10692TIP3    H253568   6.605   1.465   4.319  0.0834  0.1518  0.4324
10693TIP3   OH253569   2.632   0.057   0.861  0.3296 -0.3405  0.1094
10693TIP3    H153570   2.578   0.014   0.794  1.5579  0.8023 -1.6490
10693TIP3    H253571   2.721   0.052   0.826  0.5348  3.4798 -0.0711
10694TIP3   OH253572   4.944   3.957  11.586  0.6091 -0.2346 -0.2225
10694TIP3    H153573   4.953   4.034  11.641  0.7441 -1.0048  0.8512
10694TIP3    H253574   4.884   3.984  11.516  1.9654  1.3293 -0.7974
10695TIP3   OH253575   6.495   4.956   1.570 -0.4396 -0.4414  0.1868
10695TIP3    H153576   6.416   4.903   1.562 -1.0810  0.8904 -3.1140
10695TIP3    H253577   6.467   5.035   1.615 -0.5438 -0.7715  0.7093
10696TIP3   OH253578   3.177   3.424   1.227 -0.3895  0.0661  0.4771
10696TIP3    H153579   3.240   3.465   1.167 -0.5391  0.9906  0.9399
10696TIP3    H253580   3.181   3.477   1.306  0.6040 -1.8066  1.7042
10697TIP3   OH253581   1.810   1.783   6.425 -0.1188  0.3914  0.4384
10697TIP3    H153582   1.740   1.729   6.462 -0.1524  0.1781  0.0741
10697TIP3    H253583   1.789   1.788   6.331 -0.7882  2.0767  0.6631
10698TIP3   OH253584   2.869   1.992  14.211  0.3164 -0.2235  0.2223
10698TIP3    H153585   2.949   2.038  14.235 -0.3927  0.8558  0.5374
10698TIP3    H253586   2.822   2.054  14.155 -1.0140 -0.2501  1.2977
10699TIP3   OH253587   3.082   4.902   3.218  0.5069 -0.0910  0.0010
10699TIP3    H153588   2.999   4.855   3.214  0.3491  0.0505  1.5650
10699TIP3    H253589   3.125   4.882   3.135  0.2452 -2.6087  0.4488
10700TIP3   OH253590   4.996   4.564   1.684  0.1196 -0.0931 -0.1030
10700TIP3    H153591   4.970   4.637   1.740  0.8951  1.5040 -1.7607
10700TIP3    H253592   5.043   4.605   1.611 -1.3022 -2.0424 -2.1970
10701TIP3   OH253593   4.932   4.880   0.971  0.1642 -0.2890 -0.3677
10701TIP3    H153594   4.953   4.851   1.059  0.8672  0.1756 -0.3716
10701TIP3    H253595   4.976   4.965   0.963 -2.2814  1.0480 -0.1503
10702TIP3   OH253596   4.774   3.836  12.150  0.2031 -0.2938  0.4850
10702TIP3    H153597   4.725   3.872  12.076  1.4571  1.2356  0.3751
10702TIP3    H253598   4.838   3.777  12.110  2.0215  1.8257  0.1627
10703TIP3   OH253599   0.216   2.673   3.351  0.1335  0.1124 -0.3646
10703TIP3    H153600   0.288   2.661   3.289  1.7576  1.6927  1.1346
10703TIP3    H253601   0.227   2.602   3.414 -0.0455 -0.0850 -0.5603
10704TIP3   OH253602   2.576   2.155  15.018  0.3140 -0.1265  0.6361
10704TIP3    H153603   2.654   2.118  14.976 -0.9978 -2.9900  0.6215
10704TIP3    H253604   2.544   2.220  14.956  0.4439 -1.7460 -1.1722
10705TIP3   OH253605   3.591   1.956  16.899 -0.4901  0.2458  0.0495
10705TIP3    H153606   3.516   1.899  16.916 -0.3123 -0.2882 -0.9335
10705TIP3    H253607   3.667   1.902  16.921 -0.3796  0.7511  0.9431
10706TIP3   OH253608   6.468   6.047  16.758  0.1533  0.1333 -0.1386
10706TIP3    H153609   6.390   5.992  16.751 -0.4221  0.9883 -0.6860
10706TIP3    H253610   6.491   6.067  16.667 -0.5138  1.9530  0.0643
10707TIP3   OH253611   1.458   4.106   4.533  0.2241  0.3105 -0.1946
10707TIP3    H153612   1.526   4.039   4.525 -0.0698  0.2093 -2.2432
10707TIP3    H253613   1.379   4.057   4.557  0.9493  0.4956  2.7649
10708TIP3   OH253614   4.028   2.088  16.773 -0.1427  0.2641  0.3454
10708TIP3    H153615   4.016   2.183  16.770 -0.6058  0.1807 -0.7354
10708TIP3    H253616   4.122   2.075  16.760 -0.2101  0.5401 -0.4671
10709TIP3   OH253617   4.018   5.952   1.292 -0.0948 -0.1041 -0.6459
10709TIP3    H153618   4.014   6.047   1.284 -0.0301 -0.1772 -1.7417
10709TIP3    H253619   3.940   5.921   1.245 -0.1389 -0.5837 -0.2575
10710TIP3   OH253620   5.414   2.039  12.004  0.2815 -0.2408 -0.3444
10710TIP3    H153621   5.381   2.030  11.915  0.2553 -0.8567 -0.2740
10710TIP3    H253622   5.448   1.953  12.026 -0.8472 -0.4441  0.6912
10711TIP3   OH253623   1.236   5.737   5.230 -0.5214 -0.3920 -0.1583
10711TIP3    H153624   1.308   5.791   5.198 -0.3110 -1.1902 -1.0615
10711TIP3    H253625   1.160   5.766   5.180 -1.4278  2.2756  2.6478
10712TIP3   OH253626   3.122   5.020  13.658  0.3791  0.6061  0.1300
10712TIP3    H153627   3.109   5.065  13.575 -0.8675  1.5014  0.7970
10712TIP3    H253628   3.129   4.927  13.635  0.5893  0.9023 -1.0167
10713TIP3   OH253629   1.734   3.896   3.124 -0.0301  0.8383 -0.3209
10713TIP3    H153630   1.829   3.900   3.109  0.1193 -2.3568 -0.5976
10713TIP3    H253631   1.725   3.911   3.218  0.9389 -0.5734  0.0195
10714TIP3   OH253632   5.725   4.579   0.014 -0.3565 -0.2311 -1.1921
10714TIP3    H153633   5.639   4.617   0.027 -1.2204 -2.6735  0.4536
10714TIP3    H253634   5.710   4.503  -0.043  0.5383 -1.2124 -0.1619
10715TIP3   OH253635   5.828   2.749   4.971 -0.6538 -0.0327  0.5742
10715TIP3    H153636   5.790   2.672   5.013 -1.4945  0.5780  0.9691
10715TIP3    H253637   5.752   2.801   4.944 -0.1002  0.5171  0.0617
10716TIP3   OH253638   4.326   0.084  12.107  0.6257 -0.1665 -0.5450
10716TIP3    H153639   4.257   0.135  12.148  0.4800  0.0014 -0.9975
10716TIP3    H253640   4.341   0.011  12.167  0.4914  0.1389 -0.1402
10717TIP3   OH253641   2.192   6.699  16.333  0.4978 -0.4442 -0.4034
10717TIP3    H153642   2.219   6.692  16.424  0.6020  0.6728 -0.3459
10717TIP3    H253643   2.098   6.677  16.334  0.4353 -0.1607  0.0179
10718TIP3   OH253644   2.971   2.354  14.621 -0.5788  0.6654  0.0110
10718TIP3    H153645   3.062   2.351  14.590 -0.2774 -1.0360  1.0053
10718TIP3    H253646   2.950   2.447  14.624  1.1503  1.0764 -0.1810
10719TIP3   OH253647   4.200   4.758   4.178 -0.5535 -0.0187  0.2575
10719TIP3    H153648   4.126   4.777   4.120 -2.3917  1.6593  2.9859
10719TIP3    H253649   4.160   4.712   4.253  1.2752  0.2554  1.4324
10720TIP3   OH253650   6.774   2.369   4.571 -0.2125 -0.2740  0.6267
10720TIP3    H153651   6.821   2.416   4.640  0.1275  0.5182 -0.1291
10720TIP3    H253652   6.737   2.438   4.516  0.9542 -0.8741 -0.9454
10721TIP3   OH253653   2.227   2.279   0.369  0.0142 -0.3317  0.3673
10721TIP3    H153654   2.270   2.348   0.420 -0.6469 -0.4869  1.1470
10721TIP3    H253655   2.274   2.199   0.393  0.4922 -0.2223 -0.1977
10722TIP3   OH253656   5.416   2.448   4.607  0.1243 -0.3861  0.5857
10722TIP3    H153657   5.367   2.527   4.628  0.4469  0.5561 -2.0607
10722TIP3    H253658   5.505   2.479   4.588 -0.2091 -1.0929 -2.3836
10723TIP3   OH253659   2.624   3.091   4.057 -0.1047 -0.0070 -0.0164
10723TIP3    H153660   2.553   3.132   4.106  0.1534 -0.6819  0.9472
10723TIP3    H253661   2.688   3.161   4.045 -0.8487  0.5513 -0.7212
10724TIP3   OH253662   0.778   0.110   3.634  0.4344  0.3768  0.6091
10724TIP3    H153663   0.764   0.016   3.643  0.1060  0.4133  0.4836
10724TIP3    H253664   0.819   0.120   3.548 -0.3049  0.4266  0.2602
10725TIP3   OH253665   5.569   6.357  14.679 -0.3698  0.5211  0.1762
10725TIP3    H153666   5.537   6.447  14.671  0.2476  0.9419  2.1215
10725TIP3    H253667   5.548   6.331  14.768  1.7870 -0.3255  0.4754
10726TIP3   OH253668   4.993   2.213   5.085  0.2620  0.1393 -0.6946
10726TIP3    H153669   4.946   2.235   5.005 -0.1097 -1.0381 -0.8064
10726TIP3    H253670   5.067   2.275   5.087 -0.1815  0.7039 -1.5162
10727TIP3   OH253671   6.396   3.161  11.277  0.0520 -0.1281  0.5816
10727TIP3    H153672   6.337   3.199  11.212  1.4204  1.7764  0.3918
10727TIP3    H253673   6.373   3.069  11.280 -1.7873  0.2581 -0.7082
10728TIP3   OH253674   2.480   5.721  15.731  0.3617  0.2756 -0.4098
10728TIP3    H153675   2.540   5.795  15.721 -2.1168  2.7401  1.8571
10728TIP3    H253676   2.501   5.684  15.816 -0.8056  0.7386  0.1045
10729TIP3   OH253677   2.846   5.835   4.208  0.1631 -0.3814 -0.5529
10729TIP3    H153678   2.914   5.801   4.265 -0.0006  2.0663  1.1557
10729TIP3    H253679   2.787   5.884   4.265 -0.9860  0.6605 -2.5371
10730TIP3   OH253680   4.348   1.229  10.727  0.0436 -0.0751  0.2573
10730TIP3    H153681   4.270   1.279  10.701 -0.5315 -1.0352  0.1117
10730TIP3    H253682   4.401   1.224  10.648  0.5009  1.0191  0.4853
10731TIP3   OH253683   4.957   3.738   6.650  0.5378 -0.0828 -0.4652
10731TIP3    H153684   4.903   3.740   6.571  1.1451 -0.9078 -0.9090
10731TIP3    H253685   5.046   3.725   6.617  0.8641  0.1407  0.3239
10732TIP3   OH253686   1.071   1.728   6.458  0.5041  0.2707 -0.3780
10732TIP3    H153687   1.036   1.700   6.543  1.3035 -0.5337 -0.3133
10732TIP3    H253688   1.157   1.688   6.453  0.9505  1.2913 -1.0550
10733TIP3   OH253689   2.597   4.450  12.054  0.0147 -0.5349 -0.1849
10733TIP3    H153690   2.687   4.429  12.030 -0.4709 -1.7428 -1.0358
10733TIP3    H253691   2.556   4.478  11.972 -0.6938 -1.1752 -0.0622
10734TIP3   OH253692   5.943   5.865  15.269 -0.3647  0.6968  0.2361
10734TIP3    H153693   5.968   5.888  15.180  1.2203 -0.8492  0.2491
10734TIP3    H253694   5.880   5.794  15.259 -1.5281  1.6923  0.3253
10735TIP3   OH253695   0.988   0.523   4.660  0.5390  0.3391 -0.5141
10735TIP3    H153696   0.965   0.593   4.721 -0.6960  0.6984 -1.3662
10735TIP3    H253697   0.966   0.442   4.706 -1.9992  0.6456 -1.0747
10736TIP3   OH253698   1.954   4.154   1.536 -0.5407  0.3672  0.2945
10736TIP3    H153699   1.885   4.088   1.525  0.0691 -0.3143  0.4422
10736TIP3    H253700   2.030   4.116   1.491 -0.2449  1.0776  0.1896
10737TIP3   OH253701   1.620   4.094  16.504  0.1403  0.8762  0.0833
10737TIP3    H153702   1.695   4.102  16.563 -0.4920  1.1602  0.8545
10737TIP3    H253703   1.620   4.175  16.454  0.6739  0.6386 -0.2993
10738TIP3   OH253704   2.414   5.257   0.013  0.0597  0.2068  0.3085
10738TIP3    H153705   2.386   5.323   0.078 -1.0650 -1.2763  1.3684
10738TIP3    H253706   2.399   5.173   0.057 -1.8331 -0.8723 -2.3089
10739TIP3   OH253707   3.391   5.198   2.598 -0.0981  0.3237 -0.3040
10739TIP3    H153708   3.330   5.125   2.584 -0.2619 -0.2756  3.1794
10739TIP3    H253709   3.342   5.260   2.651  1.4297  1.0922  0.2285
10740TIP3   OH253710   4.779   6.561  16.870 -0.3788  0.0814  0.5027
10740TIP3    H153711   4.785   6.484  16.813 -0.9617  0.6123 -0.2864
10740TIP3    H253712   4.868   6.571  16.905  0.0904 -0.0170 -0.6322
10741TIP3   OH253713   4.091   0.418  11.835 -0.0089 -0.1811 -0.2496
10741TIP3    H153714   4.173   0.426  11.884  0.6088  0.7963 -1.4157
10741TIP3    H253715   4.024   0.410  11.903  0.9735 -0.2514  0.7344
10742TIP3   OH253716   4.923   2.689  10.649 -0.4435 -0.8533 -0.1587
10742TIP3    H153717   4.840   2.731  10.628  0.5448  1.2938  0.0542
10742TIP3    H253718   4.942   2.634  10.573 -1.0402  0.2963 -1.1616
10743TIP3   OH253719   5.497   3.380   5.992 -0.6460  0.1624 -0.3088
10743TIP3    H153720   5.420   3.383   5.934 -2.5929 -0.1577  2.1543
10743TIP3    H253721   5.560   3.439   5.952 -0.3452 -3.0397 -4.9043
10744TIP3   OH253722   0.185   0.128   5.027 -0.3691  0.6050  0.0299
10744TIP3    H153723   0.262   0.183   5.011  0.5909 -1.4507 -2.8275
10744TIP3    H253724   0.125   0.149   4.956 -0.0104 -1.9151 -1.0768
10745TIP3   OH253725   3.350   3.684   6.030 -0.5108  0.1867 -0.0371
10745TIP3    H153726   3.437   3.690   5.990 -0.8088 -0.4004 -0.7783
10745TIP3    H253727   3.367   3.682   6.125  0.3694 -1.4175 -0.2225
10746TIP3   OH253728   4.953   3.884  17.000 -0.0098  0.5308 -0.3734
10746TIP3    H153729   5.042   3.848  17.007 -0.3273 -0.0399  0.8093
10746TIP3    H253730   4.896   3.814  17.032 -0.9928  0.4663 -2.2002
10747TIP3   OH253731   0.624   4.417   2.640  0.2870 -0.2839  0.6169
10747TIP3    H153732   0.622   4.350   2.708 -1.0093  0.3858  1.2517
10747TIP3    H253733   0.582   4.375   2.564  0.0509 -0.4011  0.8131
10748TIP3   OH253734   1.603   2.034   5.450  0.3947  0.6521  0.5365
10748TIP3    H153735   1.568   1.999   5.532  0.0481  1.3073  0.6735
10748TIP3    H253736   1.665   1.967   5.420  0.8150  0.5773  1.5341
10749TIP3   OH253737   3.415   2.157   5.355  0.0874  0.6479 -0.0882
10749TIP3    H153738   3.458   2.237   5.387 -1.3211  0.9478  1.1228
10749TIP3    H253739   3.340   2.146   5.413  0.1786 -1.4915 -0.3507
10750TIP3   OH253740   1.261   1.585   5.450  0.3325 -0.4490  0.2104
10750TIP3    H153741   1.331   1.522   5.468  1.2615  0.1604 -1.2432
10750TIP3    H253742   1.200   1.574   5.523  1.7409 -1.2661  1.2913
10751TIP3   OH253743   2.863   1.149   0.526 -0.0370 -0.2826 -0.3979
10751TIP3    H153744   2.802   1.202   0.475  1.2878  0.8309 -0.8475
10751TIP3    H253745   2.810   1.115   0.598 -1.4035 -0.0920 -1.2893
10752TIP3   OH253746   6.598   6.729   2.231  0.1170  0.6092  0.1843
10752TIP3    H153747   6.660   6.682   2.286  0.7435 -0.8884 -1.7292
10752TIP3    H253748   6.517   6.677   2.235  0.1359  0.5448 -0.2180
10753TIP3   OH253749   2.769   2.467  13.601 -0.0040 -0.2285  0.1792
10753TIP3    H153750   2.753   2.476  13.507 -0.4937  0.9359  0.3693
10753TIP3    H253751   2.696   2.512  13.643  0.4428 -0.3648  1.1188
10754TIP3   OH253752   6.239   0.500  15.911  0.5053  0.0559 -0.1870
10754TIP3    H153753   6.214   0.588  15.938 -0.4696 -0.4821  0.6960
10754TIP3    H253754   6.245   0.450  15.992  0.9871 -0.7064 -0.6827
10755TIP3   OH253755   1.496   3.063  11.938  0.2419 -0.4698 -0.4804
10755TIP3    H153756   1.557   2.991  11.949  0.0648 -0.4614  0.6748
10755TIP3    H253757   1.441   3.060  12.016  0.0271  0.7112 -0.5693
10756TIP3   OH253758   0.507   2.800  16.541  0.5845  0.8760  0.0956
10756TIP3    H153759   0.552   2.870  16.494 -0.2680  0.8356 -0.7939
10756TIP3    H253760   0.491   2.836  16.628  1.1330  1.3803 -0.0140
10757TIP3   OH253761   4.399   5.985   3.377  0.3476  0.0916  0.5556
10757TIP3    H153762   4.407   5.963   3.469  0.8143 -0.3397  0.4108
10757TIP3    H253763   4.335   5.922   3.343 -1.9394  2.0050  1.1825
10758TIP3   OH253764   1.986   2.722  14.190 -0.1708  0.0495  0.1059
10758TIP3    H153765   2.052   2.792  14.192  0.2421 -0.3300  0.0041
10758TIP3    H253766   1.939   2.731  14.273  0.2625  0.0867  0.3513
10759TIP3   OH253767   0.141   5.904  16.823 -1.0680  0.0866  0.0930
10759TIP3    H153768   0.064   5.915  16.767 -0.6326  1.6448 -0.2331
10759TIP3    H253769   0.145   5.985  16.874  1.2708  0.7437 -1.0769
10760TIP3   OH253770   2.380   3.355  11.548 -0.0872  0.3629  0.1703
10760TIP3    H153771   2.426   3.355  11.464  0.8039  0.0435  0.6491
10760TIP3    H253772   2.425   3.288  11.600 -1.5504 -0.4395  0.4154
10761TIP3   OH253773   6.529   3.901  10.616  0.0546  0.1086 -0.2880
10761TIP3    H153774   6.570   3.974  10.569 -0.0016 -2.1449 -4.0891
10761TIP3    H253775   6.602   3.857  10.660  0.8898 -0.3946 -2.1059
10762TIP3   OH253776   4.651   0.115   4.704  0.2035  0.5338  0.6045
10762TIP3    H153777   4.558   0.095   4.717  0.5062 -2.3055 -1.0895
10762TIP3    H253778   4.654   0.168   4.625 -0.2057  3.3944  2.4513
10763TIP3   OH253779   1.175   2.523   4.999  0.4347 -0.5141 -0.2061
10763TIP3    H153780   1.099   2.567   4.960  0.2294 -0.5259  0.1719
10763TIP3    H253781   1.221   2.483   4.925 -0.1398 -0.8293 -0.3966
10764TIP3   OH253782   5.054   1.752  13.235  0.3145  0.1753  0.0697
10764TIP3    H153783   5.080   1.668  13.272 -2.0259 -0.3936  0.5126
10764TIP3    H253784   4.961   1.761  13.257  0.6396  3.1430  0.5172
10765TIP3   OH253785   3.555   1.610  11.760  0.8194 -0.1137 -0.6173
10765TIP3    H153786   3.470   1.566  11.757 -0.4427  2.1122  1.5036
10765TIP3    H253787   3.582   1.615  11.668 -1.6679 -0.2093 -1.3939
10766TIP3   OH253788   3.921   5.399   5.872 -0.2995 -0.4827  0.1022
10766TIP3    H153789   3.904   5.450   5.951 -0.3961 -2.9165  1.6995
10766TIP3    H253790   3.982   5.331   5.900  1.7170  0.1535 -2.5329
10767TIP3   OH253791   5.806   0.545  13.622 -0.2767  0.2260  1.0108
10767TIP3    H153792   5.863   0.617  13.597 -2.1537  1.2497 -0.4360
10767TIP3    H253793   5.762   0.576  13.702  1.5789 -0.7974  2.4635
10768TIP3   OH253794   2.398   5.349  13.555  0.1916  0.3025  0.3296
10768TIP3    H153795   2.373   5.257  13.552 -0.1746  0.3818  0.9107
10768TIP3    H253796   2.478   5.350  13.608  0.9238  0.1630 -0.7629
10769TIP3   OH253797   4.388   0.625  16.877  0.1912  0.2501 -0.0200
10769TIP3    H153798   4.359   0.586  16.794  2.4101 -0.4210 -0.5241
10769TIP3    H253799   4.407   0.550  16.933 -1.2949  0.7073  1.1032
10770TIP3   OH253800   0.372   5.566  12.933 -0.2221  0.0440 -0.0706
10770TIP3    H153801   0.302   5.500  12.931 -0.4181  0.2807 -1.0211
10770TIP3    H253802   0.350   5.620  13.009 -0.2273 -0.7895  0.5386
10771TIP3   OH253803   2.588   4.097  13.108  0.1869  0.0638 -0.3433
10771TIP3    H153804   2.497   4.095  13.139 -0.0767 -1.4131 -1.1949
10771TIP3    H253805   2.588   4.162  13.039 -0.0711  0.5729  0.1308
10772TIP3   OH253806   3.838   2.321   3.663 -0.4969  0.2222  0.4110
10772TIP3    H153807   3.808   2.348   3.750 -0.3539  2.1320 -0.1142
10772TIP3    H253808   3.893   2.244   3.680  0.5059  1.2835  2.1384
10773TIP3   OH253809   3.360   6.516   0.741  0.3193  0.1239 -0.5980
10773TIP3    H153810   3.449   6.530   0.708  0.4307 -1.5865 -1.1154
10773TIP3    H253811   3.372   6.474   0.826  0.0349 -1.0802 -1.1314
10774TIP3   OH253812   3.648   0.779  14.690 -0.3397  0.1481  0.3522
10774TIP3    H153813   3.574   0.786  14.630 -1.7573  1.5210  2.2115
10774TIP3    H253814   3.631   0.699  14.740  0.9180 -1.0775 -1.1205
10775TIP3   OH253815   1.930   0.411   1.930 -0.1165  0.6563 -0.6839
10775TIP3    H153816   2.017   0.449   1.921  0.1049  0.0409 -1.1557
10775TIP3    H253817   1.944   0.316   1.926 -0.6499  0.5058  0.6281
10776TIP3   OH253818   3.341   0.873  16.716 -0.0787 -0.4169  0.0622
10776TIP3    H153819   3.332   0.887  16.811  0.8881 -1.1892  0.2830
10776TIP3    H253820   3.279   0.934  16.677 -0.9124 -0.4934  1.2156
10777TIP3   OH253821   5.397   6.535  11.810 -0.0007 -0.1889  0.1071
10777TIP3    H153822   5.335   6.574  11.748 -0.3377 -1.2981 -0.2626
10777TIP3    H253823   5.390   6.590  11.888 -1.0159  0.0446 -0.1381
10778TIP3   OH253824   0.958   5.454  13.720  0.2324 -0.1959  0.0595
10778TIP3    H153825   0.970   5.399  13.643 -1.5091  0.6832 -0.8774
10778TIP3    H253826   0.917   5.534  13.686 -0.4737  0.2420  1.8718
10779TIP3   OH253827   1.385   1.567   2.612  0.1010  0.2703  0.3186
10779TIP3    H153828   1.445   1.624   2.661  1.4165 -0.6110 -0.2391
10779TIP3    H253829   1.402   1.587   2.520 -1.2947  0.8324  0.1688
10780TIP3   OH253830   6.003   4.316  13.346 -0.1717 -0.1388  1.0716
10780TIP3    H153831   5.983   4.391  13.290  0.3331  1.0367  2.4138
10780TIP3    H253832   6.094   4.294  13.325  0.1420  0.5456  1.6865
10781TIP3   OH253833   4.866   6.327  15.908 -0.9803 -0.0937  0.3618
10781TIP3    H153834   4.899   6.245  15.871 -1.9357 -1.3364  2.1725
10781TIP3    H253835   4.779   6.338  15.870  0.0197  1.2971 -1.6222
10782TIP3   OH253836   3.332   4.186  14.951 -0.1103  0.7403  0.2468
10782TIP3    H153837   3.427   4.195  14.947  0.0651 -1.5497 -2.7708
10782TIP3    H253838   3.298   4.276  14.947  1.8717  1.5322  0.8173
10783TIP3   OH253839   4.072   1.951  15.573 -0.5466 -0.6594  0.4802
10783TIP3    H153840   4.067   1.876  15.514  1.5905 -0.9426  0.5992
10783TIP3    H253841   4.008   2.013  15.539 -0.0071 -1.2041 -1.6105
10784TIP3   OH253842   0.163   4.249   0.646 -0.1969  0.2039 -0.1062
10784TIP3    H153843   0.103   4.322   0.627  0.3921  0.0231 -2.8695
10784TIP3    H253844   0.113   4.171   0.626 -0.3489 -0.1326  1.5025
10785TIP3   OH253845   2.655   0.746  11.033  0.0698 -0.0996  0.2299
10785TIP3    H153846   2.673   0.834  11.066  0.1197 -0.1278  0.2780
10785TIP3    H253847   2.584   0.714  11.088 -0.3710  0.1470 -0.1908
10786TIP3   OH253848   1.494   1.474  13.663  0.0239 -0.2438 -0.6704
10786TIP3    H153849   1.442   1.539  13.615  0.0223  0.0904 -0.2154
10786TIP3    H253850   1.503   1.401  13.602  0.2430  0.2889 -1.2769
10787TIP3   OH253851   0.743   0.460   5.319  0.4600  0.0896 -0.3062
10787TIP3    H153852   0.776   0.550   5.321  2.9230 -0.7949  2.6871
10787TIP3    H253853   0.710   0.444   5.407 -0.4041 -1.8021 -0.9402
10788TIP3   OH253854   6.010   2.299  14.947 -0.0339  0.0175 -0.4573
10788TIP3    H153855   6.006   2.383  14.993  0.5074 -1.4619  2.3779
10788TIP3    H253856   6.085   2.308  14.889  0.7881  1.0652  0.7308
10789TIP3   OH253857   0.680   0.124  11.559  0.0787  0.2262  0.1901
10789TIP3    H153858   0.645   0.081  11.637  1.9549  0.3067  1.1059
10789TIP3    H253859   0.632   0.207  11.554  0.0700  0.3016  1.3812
10790TIP3   OH253860   1.159   5.673   3.391 -0.0288 -0.3077 -0.7208
10790TIP3    H153861   1.207   5.746   3.351 -0.3311 -0.1894 -0.8706
10790TIP3    H253862   1.075   5.710   3.416  1.0560  0.2509  2.3351
10791TIP3   OH253863   1.496   6.532   2.244  0.3345 -0.5611  1.0995
10791TIP3    H153864   1.491   6.585   2.324  0.0320 -0.4984  1.0399
10791TIP3    H253865   1.497   6.442   2.275 -1.2861 -0.5858  1.1189
10792TIP3   OH253866   6.776   0.403   3.816 -0.3547  0.0796 -0.2777
10792TIP3    H153867   6.705   0.364   3.766 -1.2572  2.3344 -0.8177
10792TIP3    H253868   6.736   0.476   3.863  1.0556 -0.2809  1.5682
10793TIP3   OH253869   0.527   5.620   1.301  0.3443  0.2141 -0.0752
10793TIP3    H153870   0.554   5.616   1.210  1.7550 -0.9085  0.3801
10793TIP3    H253871   0.582   5.688   1.340  0.6435 -0.2103  0.2424
10794TIP3   OH253872   1.938   4.613   5.111 -0.0674 -0.4786 -0.1294
10794TIP3    H153873   1.945   4.694   5.060 -1.1605 -1.3619 -1.7183
10794TIP3    H253874   1.844   4.602   5.125  0.1237 -1.1022  0.7042
10795TIP3   OH253875   2.547   5.985   6.295 -0.2611 -0.0819  0.2827
10795TIP3    H153876   2.598   5.908   6.319  0.4111  0.4325  0.5489
10795TIP3    H253877   2.604   6.059   6.318 -0.4346  0.4672 -1.0177
10796TIP3   OH253878   5.186   6.402   3.052  0.1182  0.0641  0.0305
10796TIP3    H153879   5.214   6.425   3.141  0.2956 -1.9269  0.5095
10796TIP3    H253880   5.238   6.325   3.029  2.0829  2.1645 -2.8963
10797TIP3   OH253881   2.563   2.237  14.428  0.1600  0.0593 -0.3035
10797TIP3    H153882   2.543   2.153  14.467  1.0100  0.9737  2.2110
10797TIP3    H253883   2.479   2.270  14.396 -0.5195 -0.8136  0.5617
10798TIP3   OH253884   6.665   3.724   5.159 -0.1669 -0.3945  0.7783
10798TIP3    H153885   6.590   3.717   5.218 -2.3010 -2.7935 -2.1022
10798TIP3    H253886   6.641   3.674   5.082  4.2629 -0.9142 -0.4446
10799TIP3   OH253887   3.215   1.619  13.781 -0.1893 -1.0801 -0.4377
10799TIP3    H153888   3.251   1.575  13.858 -0.2123 -1.7633 -0.8103
10799TIP3    H253889   3.152   1.682  13.817 -0.2766 -1.4631  0.0972
10800TIP3   OH253890   3.610   5.220  13.030 -0.1468 -0.5515  0.1408
10800TIP3    H153891   3.693   5.265  13.013 -0.1759 -0.7609 -0.5813
10800TIP3    H253892   3.619   5.186  13.119  0.7116 -0.9256 -0.0823
10801TIP3   OH253893   1.823   5.893  11.728  0.3154 -0.1381  0.0326
10801TIP3    H153894   1.741   5.854  11.759  1.0716 -0.9467  1.0576
10801TIP3    H253895   1.891   5.833  11.759  1.4681  1.7643  1.2471
10802TIP3   OH253896   3.171   6.639  15.598 -0.0878 -0.2044  0.0597
10802TIP3    H153897   3.093   6.652  15.544 -1.0396  0.7960  1.5913
10802TIP3    H253898   3.242   6.678  15.548 -1.0851  1.4148 -0.1505
10803TIP3   OH253899   4.952   6.025  16.645  0.0516 -0.3735  0.1060
10803TIP3    H153900   5.023   5.967  16.673  1.8190  1.2596 -0.9034
10803TIP3    H253901   4.955   6.098  16.706 -0.8052 -0.3117  0.0843
10804TIP3   OH253902   6.617   3.926  13.392 -0.6594 -0.3391 -0.8153
10804TIP3    H153903   6.674   3.861  13.433  0.0925  2.3628  2.7183
10804TIP3    H253904   6.531   3.908  13.429 -0.4517  0.5979  0.1602
10805TIP3   OH253905   3.459   4.205   5.024 -0.6097 -0.1068  0.0324
10805TIP3    H153906   3.533   4.266   5.032  0.0943 -1.0204  0.6382
10805TIP3    H253907   3.400   4.246   4.961  0.9561  0.1092 -1.3133
10806TIP3   OH253908   0.721   6.082  15.588 -0.2693 -0.1770 -0.0299
10806TIP3    H153909   0.638   6.090  15.634 -1.3610 -1.6208 -1.6507
10806TIP3    H253910   0.740   5.988  15.590  0.6878 -0.0027 -0.7187
10807TIP3   OH253911   5.021   1.157   1.892 -0.5801  0.3718 -0.3895
10807TIP3    H153912   4.934   1.158   1.853 -0.4480  0.3111 -0.6859
10807TIP3    H253913   5.074   1.106   1.831 -0.0956  1.2731 -0.7284
10808TIP3   OH253914   6.266   4.198   0.580  0.6720 -0.1736 -0.6439
10808TIP3    H153915   6.297   4.177   0.492 -0.3125 -0.5725 -0.9054
10808TIP3    H253916   6.180   4.238   0.566  0.5716 -0.1140  0.1277
10809TIP3   OH253917   4.765   3.816   0.761  0.0868  0.0317  0.4657
10809TIP3    H153918   4.712   3.895   0.751  0.2048 -0.0124 -0.6582
10809TIP3    H253919   4.790   3.793   0.671 -1.4982 -2.3466  0.6086
10810TIP3   OH253920   0.734   5.866   6.153  0.0867 -0.1961 -0.0451
10810TIP3    H153921   0.776   5.941   6.111 -0.0084 -0.9964 -1.5977
10810TIP3    H253922   0.707   5.899   6.238  1.1694  1.1853 -0.2080
10811TIP3   OH253923   3.745   0.494   2.854  0.4295 -0.0215 -0.1579
10811TIP3    H153924   3.713   0.452   2.933  0.2419 -1.0627 -0.7810
10811TIP3    H253925   3.667   0.537   2.817  0.5935  0.7830  0.4022
10812TIP3   OH253926   5.349   6.417   1.564  0.2930  0.2364  0.2208
10812TIP3    H153927   5.407   6.410   1.640 -0.3869 -0.4007  0.6969
10812TIP3    H253928   5.261   6.414   1.601 -0.0627 -1.5030 -0.6909
10813TIP3   OH253929   6.805   1.634   0.392 -0.3514 -0.2150  0.2235
10813TIP3    H153930   6.858   1.588   0.327  1.7232  1.6870  0.5017
10813TIP3    H253931   6.801   1.725   0.360 -1.1228  0.2705  1.6404
10814TIP3   OH253932   1.123   0.719  11.648  0.1131  0.6477 -0.2272
10814TIP3    H153933   1.213   0.729  11.615 -0.4251  1.6609 -1.4632
10814TIP3    H253934   1.105   0.625  11.641  1.6509  0.1808  1.6370
10815TIP3   OH253935   6.396   2.306   2.735  0.3754  0.2809 -0.4348
10815TIP3    H153936   6.356   2.219   2.740  2.8340 -0.9233 -1.2176
10815TIP3    H253937   6.436   2.309   2.648  1.4755  1.6669  0.1097
10816TIP3   OH253938   6.256   1.813   4.070 -0.3448 -0.3240  0.1453
10816TIP3    H153939   6.240   1.879   4.137  2.1095 -0.1844  0.6391
10816TIP3    H253940   6.194   1.743   4.089 -0.7939  0.4426  1.5543
10817TIP3   OH253941   4.029   5.351  12.706  0.1001 -0.8834 -0.1280
10817TIP3    H153942   3.961   5.284  12.715 -1.5439  0.6895 -0.4058
10817TIP3    H253943   4.032   5.393  12.791 -1.3912  0.9645 -0.9348
10818TIP3   OH253944   5.083   4.912  12.089  0.3398  0.0471 -0.5809
10818TIP3    H153945   5.048   4.850  12.153  1.2761  1.8001  1.7478
10818TIP3    H253946   5.022   4.908  12.015 -1.5191 -1.1131  0.9567
10819TIP3   OH253947   4.369   2.980   3.436  0.1056  0.3377 -0.3920
10819TIP3    H153948   4.362   3.044   3.365 -1.1578 -0.0517 -0.6417
10819TIP3    H253949   4.406   3.030   3.510  1.8928  0.6200 -1.4501
10820TIP3   OH253950   2.999   0.739   3.498  0.0277  0.0504  0.0582
10820TIP3    H153951   2.977   0.753   3.590  1.5921  0.1151  0.4302
10820TIP3    H253952   3.000   0.827   3.460  0.0210  0.0823  0.1314
10821TIP3   OH253953   0.235   3.582  11.256 -0.1646 -0.5616 -0.0021
10821TIP3    H153954   0.275   3.611  11.338 -2.7268  0.9213  0.7768
10821TIP3    H253955   0.260   3.648  11.192 -0.7763 -0.0087  0.3252
10822TIP3   OH253956   4.139   6.082   5.270 -0.1354 -0.1737 -0.3131
10822TIP3    H153957   4.044   6.081   5.273 -0.1393  0.7892  0.1675
10822TIP3    H253958   4.166   5.995   5.298 -0.8612 -0.1677  0.4187
10823TIP3   OH253959   1.160   2.536  13.566  0.6973 -0.2567 -0.1951
10823TIP3    H153960   1.181   2.443  13.558 -1.8516 -0.7154 -2.0861
10823TIP3    H253961   1.214   2.579  13.500 -0.2880 -0.7728 -1.3556
10824TIP3   OH253962   1.815   1.906   1.982 -0.1853 -0.5124  1.0492
10824TIP3    H153963   1.865   1.951   2.050  1.1191  0.4123 -0.4749
10824TIP3    H253964   1.764   1.975   1.940  0.3157 -0.7676 -0.0093
10825TIP3   OH253965   4.017   5.033  12.915  0.0362  1.0603 -0.3652
10825TIP3    H153966   4.099   5.028  12.866  0.1948 -0.8155  0.0295
10825TIP3    H253967   4.043   5.068  13.001  0.5936 -0.3078  0.0461
10826TIP3   OH253968   3.293   4.389  12.504 -0.1523 -0.0451  0.1632
10826TIP3    H153969   3.311   4.467  12.558 -0.1031 -0.7836  1.2413
10826TIP3    H253970   3.199   4.374  12.514 -0.4002  0.6179 -1.0809
10827TIP3   OH253971   4.321   3.849  13.252 -0.1521  0.1432  0.0554
10827TIP3    H153972   4.265   3.858  13.329 -2.2111 -2.8529 -1.0150
10827TIP3    H253973   4.407   3.827  13.287 -0.5809  0.7972  1.5450
10828TIP3   OH253974   4.912   3.999   3.390 -0.1938  0.3008 -0.1436
10828TIP3    H153975   4.888   3.949   3.312  0.0486 -0.5986  0.3638
10828TIP3    H253976   4.952   4.079   3.354  0.3489 -0.3177 -0.9537
10829TIP3   OH253977   1.060   4.785   3.950  0.0225 -0.1816  0.5415
10829TIP3    H153978   0.989   4.824   3.900 -0.4124  0.1182  1.3906
10829TIP3    H253979   1.090   4.711   3.896 -2.7759 -2.0502  1.4438
10830TIP3   OH253980   0.233   6.513  13.430  0.4852 -0.1163  0.5432
10830TIP3    H153981   0.305   6.473  13.381 -0.2313  0.5228 -1.0704
10830TIP3    H253982   0.181   6.439  13.460  2.1785 -0.6247  2.3566
10831TIP3   OH253983   6.719   1.205  13.303 -0.0138  0.1205 -0.2910
10831TIP3    H153984   6.666   1.131  13.331  0.0957  0.4459  0.8026
10831TIP3    H253985   6.660   1.281  13.312  0.7686  0.5553  1.4165
10832TIP3   OH253986   3.428   0.508  15.079 -0.1945  0.4992  0.0073
10832TIP3    H153987   3.477   0.434  15.042 -0.0461  0.4559  0.2894
10832TIP3    H253988   3.489   0.582  15.074 -0.7301  0.8694 -1.3075
10833TIP3   OH253989   3.324   2.578  13.189  0.2450 -0.1927  0.2656
10833TIP3    H153990   3.265   2.578  13.113 -0.2619  1.3894  0.6295
10833TIP3    H253991   3.351   2.669  13.197  0.9287 -0.5082  1.5014
10834TIP3   OH253992   4.823   6.806   4.865  0.0845 -0.0466  0.1723
10834TIP3    H153993   4.772   6.862   4.808 -0.3757 -0.3278  0.3078
10834TIP3    H253994   4.914   6.823   4.841 -0.1696 -1.7613 -2.1612
10835TIP3   OH253995   0.897   2.334  13.725 -0.3603  0.2220 -0.1278
10835TIP3    H153996   0.837   2.404  13.751 -1.7540 -0.7603 -0.6235
10835TIP3    H253997   0.932   2.363  13.641 -0.8366  0.3989 -0.2679
10836TIP3   OH253998   6.349   4.381   4.100  0.9873 -0.3485  0.7211
10836TIP3    H153999   6.268   4.342   4.130  0.9055 -2.5061 -2.0884
10836TIP3    H254000   6.418   4.338   4.151  0.6424 -1.6308  0.1118
10837TIP3   OH254001   2.658   3.561   0.956 -0.4156 -0.1852  0.4497
10837TIP3    H154002   2.668   3.514   1.039 -0.7550 -0.1309  0.5266
10837TIP3    H254003   2.685   3.499   0.889 -0.0888 -0.2114  0.6066
10838TIP3   OH254004   6.268   2.500   3.946 -0.0969 -0.1632 -0.1310
10838TIP3    H154005   6.355   2.535   3.967 -0.6147  0.2826  1.3203
10838TIP3    H254006   6.235   2.467   4.029 -1.3926 -0.1802 -0.6457
10839TIP3   OH254007   1.714   0.614  13.836  0.5496  0.4294  0.3052
10839TIP3    H154008   1.626   0.581  13.854  0.8627  0.3171  1.7349
10839TIP3    H254009   1.770   0.564  13.895  1.4760  1.0466 -0.0440
10840TIP3   OH254010   3.323   4.664  14.329 -0.7389  0.3786 -0.3453
10840TIP3    H154011   3.386   4.735  14.345 -0.6510  0.0321  0.9025
10840TIP3    H254012   3.377   4.593  14.294 -0.3700 -0.0106  0.9700
10841TIP3   OH254013   4.979   2.257  11.771  0.0498 -0.3103 -0.2606
10841TIP3    H154014   4.884   2.259  11.777 -0.0027 -0.8355 -0.8243
10841TIP3    H254015   5.009   2.247  11.861 -0.4193  0.0750 -0.0600
10842TIP3   OH254016   6.728   5.673   2.443  0.0340 -0.0703 -0.2962
10842TIP3    H154017   6.744   5.590   2.398 -2.3745  0.3952 -2.1009
10842TIP3    H254018   6.811   5.693   2.485  0.6209 -3.4649  0.3276
10843TIP3   OH254019   2.109   6.482   1.997 -0.1621  0.5441 -0.0672
10843TIP3    H154020   2.131   6.569   1.965 -1.7200  0.2711 -2.0387
10843TIP3    H254021   2.192   6.436   2.002  0.3338  1.0739 -2.4537
10844TIP3   OH254022   0.550   2.148   5.444  0.0735  0.7319 -0.0708
10844TIP3    H154023   0.631   2.104   5.416  1.0704  3.1066 -1.0012
10844TIP3    H254024   0.482   2.083   5.427  1.6259 -0.8676 -0.4255
10845TIP3   OH254025   0.647   4.835   5.926 -0.2771 -0.0071 -0.3148
10845TIP3    H154026   0.615   4.771   5.862  1.7736  0.8832 -2.2842
10845TIP3    H254027   0.700   4.897   5.874 -1.7219  2.9747  1.6061
10846TIP3   OH254028   6.416   0.699   1.884  0.3798 -0.4524 -0.3357
10846TIP3    H154029   6.443   0.608   1.896 -3.5028 -1.9267 -1.9142
10846TIP3    H254030   6.378   0.725   1.967  1.2721 -0.3069  0.0380
10847TIP3   OH254031   3.230   3.882   0.299  0.5678 -0.0881  0.2394
10847TIP3    H154032   3.141   3.847   0.291  0.4207  0.5617 -1.0514
10847TIP3    H254033   3.218   3.977   0.300  1.0781 -0.0251  2.3513
10848TIP3   OH254034   4.437   1.722  17.106  0.0420 -0.2228 -0.5029
10848TIP3    H154035   4.497   1.742  17.178 -1.8898  1.5964  0.6407
10848TIP3    H254036   4.454   1.629  17.086  0.4845 -0.8258  2.4329
10849TIP3   OH254037   2.582   1.194  14.104 -0.5940  0.3605 -0.3869
10849TIP3    H154038   2.552   1.281  14.132 -0.7573  0.3640 -0.5739
10849TIP3    H254039   2.633   1.162  14.178  1.8467  1.7909 -1.3882
10850TIP3   OH254040   6.137   3.408   6.431 -0.0232  0.2471  0.2148
10850TIP3    H154041   6.205   3.365   6.378  0.8019  1.8876 -0.0920
10850TIP3    H254042   6.072   3.339   6.446  1.3249 -1.1456 -0.1408
10851TIP3   OH254043   4.094   5.566   5.752 -0.8522  0.1339  0.4182
10851TIP3    H154044   4.038   5.490   5.768 -1.8935  0.8980  0.4537
10851TIP3    H254045   4.062   5.633   5.812  1.1709  0.0624  1.6072
10852TIP3   OH254046   3.086   5.312  11.866  0.1320  0.2086  0.4142
10852TIP3    H154047   3.066   5.351  11.780 -0.8396  1.4929  1.2019
10852TIP3    H254048   3.003   5.273  11.894  0.6658 -0.9529  0.4091
10853TIP3   OH254049   0.587   6.056  14.222  0.2708 -0.5764 -0.2281
10853TIP3    H154050   0.635   6.001  14.284 -0.6186 -0.1993  0.8162
10853TIP3    H254051   0.499   6.020  14.221  0.0022  0.0767 -0.4745
10854TIP3   OH254052   4.801   3.584  13.604 -0.0516  0.0850 -0.3715
10854TIP3    H154053   4.883   3.576  13.652 -0.2435  0.2218 -0.0197
10854TIP3    H254054   4.782   3.678  13.604 -0.8618 -0.0633  0.6543
10855TIP3   OH254055   4.938   6.234  16.852 -0.2223  0.0496 -0.4925
10855TIP3    H154056   5.009   6.298  16.845  0.0541 -0.1461  0.4594
10855TIP3    H254057   4.860   6.282  16.823 -0.2993  1.3226  1.7255
10856TIP3   OH254058   3.055   2.968   2.503  0.1361  0.1265  0.3600
10856TIP3    H154059   3.032   2.920   2.583  0.8112 -0.3313  0.2832
10856TIP3    H254060   3.133   2.923   2.470 -0.0971  0.3688 -0.5135
10857TIP3   OH254061   2.861   4.382   0.506 -0.5179  0.4616 -0.1254
10857TIP3    H154062   2.776   4.416   0.533 -1.3237 -1.7268  0.1776
10857TIP3    H254063   2.908   4.459   0.472 -1.6153  2.1997  2.1184
10858TIP3   OH254064   0.488   2.989  10.542 -0.6216 -0.2788 -0.0066
10858TIP3    H154065   0.540   3.068  10.525 -0.8327 -0.1435 -0.0270
10858TIP3    H254066   0.452   3.004  10.630  0.8388 -1.1728  0.7695
10859TIP3   OH254067   2.736   6.062   0.515  0.1235  0.3077 -0.1574
10859TIP3    H154068   2.695   6.035   0.597 -0.1505  1.0936 -0.0301
10859TIP3    H254069   2.824   6.091   0.540  0.6985 -1.2207 -0.4070
10860TIP3   OH254070   0.587   6.583   0.681 -0.0946  0.1510 -0.5282
10860TIP3    H154071   0.621   6.494   0.675 -1.5745 -0.5957  1.7325
10860TIP3    H254072   0.636   6.623   0.752  1.7110  1.7097 -2.5958
10861TIP3   OH254073   6.483   5.294  14.187  0.2798  0.7381 -0.2719
10861TIP3    H154074   6.440   5.371  14.149  1.9465  2.1489  0.6103
10861TIP3    H254075   6.570   5.294  14.146  0.4175 -0.4504  0.0295
10862TIP3   OH254076   2.226   1.550  13.519 -0.1356 -0.0854 -0.0430
10862TIP3    H154077   2.133   1.527  13.519  0.2203 -1.7014 -2.3916
10862TIP3    H254078   2.228   1.642  13.492 -1.0839  0.1314  0.6083
10863TIP3   OH254079   3.320   2.703   4.642  0.4640  0.3925  0.4032
10863TIP3    H154080   3.409   2.726   4.617  0.3672 -0.3260 -0.6247
10863TIP3    H254081   3.275   2.686   4.559 -0.3398 -0.2971  0.9682
10864TIP3   OH254082   0.796   6.433  11.312  0.1536  0.2761 -0.2608
10864TIP3    H154083   0.774   6.524  11.292  1.7036  0.2137 -2.3544
10864TIP3    H254084   0.771   6.384  11.234  0.1871 -0.9548  0.4927
10865TIP3   OH254085   3.643   2.387  16.071  0.3714 -0.3458  0.3617
10865TIP3    H154086   3.598   2.423  16.147 -0.8677 -2.5819  0.7122
10865TIP3    H254087   3.733   2.373  16.101  0.4606  0.8591  0.7044
10866TIP3   OH254088   4.747   5.670  16.132 -0.4575  0.3759  1.0215
10866TIP3    H154089   4.712   5.665  16.221 -1.3379  0.6858  0.6935
10866TIP3    H254090   4.729   5.760  16.104 -1.4362 -0.1173  0.0272
10867TIP3   OH254091   1.185   1.312   1.307 -0.9180 -0.0395 -0.3135
10867TIP3    H154092   1.144   1.373   1.368  1.8137  0.5741  1.0189
10867TIP3    H254093   1.204   1.234   1.360 -0.3679 -0.2925 -0.8677
10868TIP3   OH254094   0.418   6.777   1.270  0.0632  0.0437 -0.1251
10868TIP3    H154095   0.325   6.757   1.269  0.5906 -2.8473  1.4618
10868TIP3    H254096   0.431   6.838   1.197 -2.8372 -0.4855 -1.1324
10869TIP3   OH254097   3.455   3.833   0.775 -0.7220  0.1322 -0.0116
10869TIP3    H154098   3.361   3.853   0.772 -1.2107 -2.2293 -1.1046
10869TIP3    H254099   3.478   3.812   0.685  0.3918 -1.3768  0.6125
10870TIP3   OH254100   1.097   0.440  14.276 -0.5202  0.0352 -0.4129
10870TIP3    H154101   1.157   0.510  14.250 -1.2661  0.7560 -0.2047
10870TIP3    H254102   1.154   0.371  14.310  0.2045  0.6239 -0.4155
10871TIP3   OH254103   1.419   2.421  16.417 -0.3981  0.8438  0.1291
10871TIP3    H154104   1.479   2.421  16.492 -0.4822 -0.5623  0.2120
10871TIP3    H254105   1.335   2.393  16.453  0.0531 -1.8889 -0.8370
10872TIP3   OH254106   1.804   2.159  14.862  0.1805 -0.1878  0.6887
10872TIP3    H154107   1.732   2.096  14.874  1.6577 -2.0688 -0.1552
10872TIP3    H254108   1.833   2.145  14.772  1.8866  0.2884  1.1593
10873TIP3   OH254109   2.552   1.117  16.221 -0.4219  0.3408 -0.3062
10873TIP3    H154110   2.642   1.087  16.224 -0.5210  0.0876  0.2925
10873TIP3    H254111   2.558   1.212  16.210 -0.0459  0.5713  1.6468
10874TIP3   OH254112   1.105   2.186  15.058  0.3778 -0.7900  0.4151
10874TIP3    H154113   1.068   2.135  15.130 -1.2664  1.4096  1.2072
10874TIP3    H254114   1.192   2.212  15.089 -0.4265  0.3659  1.7372
10875TIP3   OH254115   3.362   2.393  15.709 -0.1016 -0.0413 -0.4371
10875TIP3    H154116   3.391   2.393  15.617 -0.0553 -0.2323 -0.4207
10875TIP3    H254117   3.385   2.481  15.741 -0.3053  0.0971 -0.6677
10876TIP3   OH254118   5.587   5.912   2.327 -0.1749  0.0983  0.2703
10876TIP3    H154119   5.580   5.880   2.236  0.6046  0.4413  0.0862
10876TIP3    H254120   5.575   5.834   2.380  0.1477 -0.2473 -0.1522
10877TIP3   OH254121   5.699   3.704  10.780 -0.3090 -0.0205 -0.0062
10877TIP3    H154122   5.732   3.737  10.697  0.5818  1.7802  1.0423
10877TIP3    H254123   5.609   3.736  10.784  0.7577  3.0285  1.3257
10878TIP3   OH254124   0.066   2.883   4.015 -0.1173  0.1158  0.6428
10878TIP3    H154125   0.026   2.969   4.026 -1.2539 -0.4612  1.1543
10878TIP3    H254126   0.016   2.842   3.944  2.4513  1.0465 -1.7690
10879TIP3   OH254127   5.910   5.332   3.749  0.2409  0.2639 -0.2383
10879TIP3    H154128   5.859   5.404   3.712  1.2495  0.9252 -0.3637
10879TIP3    H254129   5.874   5.253   3.709 -1.3047  0.6376  0.3859
10880TIP3   OH254130   4.025   6.770   1.336  0.1983  0.0342  0.0717
10880TIP3    H154131   4.021   6.846   1.278  0.8589 -0.7031 -0.9605
10880TIP3    H254132   4.060   6.805   1.418  0.3137  0.8859 -0.3318
10881TIP3   OH254133   0.595   5.381  14.119 -0.1335  0.4411 -0.0541
10881TIP3    H154134   0.552   5.310  14.072  0.5010 -0.0556  0.1152
10881TIP3    H254135   0.531   5.452  14.119 -0.9331 -0.2846  0.1742
10882TIP3   OH254136   4.723   5.889   5.099  0.0588  0.0333  0.2103
10882TIP3    H154137   4.736   5.970   5.050 -0.0916  1.6347  2.7536
10882TIP3    H254138   4.812   5.857   5.117  0.1228 -0.0988 -0.3263
10883TIP3   OH254139   1.490   1.905   3.563  0.2356 -0.6090 -0.2134
10883TIP3    H154140   1.574   1.861   3.554  1.3223  1.5060 -0.5139
10883TIP3    H254141   1.494   1.946   3.650 -0.7526 -1.0530  0.0497
10884TIP3   OH254142   3.990   5.469  17.068 -0.3869 -0.1421 -0.7886
10884TIP3    H154143   4.031   5.535  17.011  0.7669  0.5530  0.8065
10884TIP3    H254144   4.064   5.422  17.106 -1.1866 -1.7082 -1.1376
10885TIP3   OH254145   0.272   3.285   3.917 -0.1411 -0.2450 -0.0695
10885TIP3    H154146   0.340   3.339   3.956 -0.6805  0.9603 -0.7649
10885TIP3    H254147   0.192   3.338   3.924 -0.3175 -0.1235 -2.4905
10886TIP3   OH254148   4.198   6.567  14.044  0.4507  0.2037  0.7572
10886TIP3    H154149   4.221   6.612  13.963  1.2270  0.5023  1.1382
10886TIP3    H254150   4.194   6.637  14.110  0.0480 -0.0647  1.0166
10887TIP3   OH254151   1.730   0.367   1.169  0.4637  0.0297  0.0107
10887TIP3    H154152   1.795   0.384   1.238 -0.9977  1.4057  1.0836
10887TIP3    H254153   1.716   0.452   1.128  0.4818 -0.5653 -1.2531
10888TIP3   OH254154   4.456   0.306  13.750 -0.8070 -0.0827  0.3311
10888TIP3    H154155   4.373   0.353  13.756 -1.6340 -1.2583 -1.1898
10888TIP3    H254156   4.443   0.227  13.803 -0.4936 -0.0316  0.4843
10889TIP3   OH254157   1.221   0.705   5.252 -0.2804 -0.2221  0.6843
10889TIP3    H154158   1.312   0.715   5.278 -0.5021  0.1414  1.3188
10889TIP3    H254159   1.178   0.785   5.282 -0.5376  0.2122 -0.7973
10890TIP3   OH254160   5.982   1.787   0.182 -0.0608  0.5192 -0.5364
10890TIP3    H154161   6.009   1.879   0.190  2.0290  0.0508 -2.0868
10890TIP3    H254162   6.061   1.740   0.157 -1.3416 -1.5781 -0.7644
10891TIP3   OH254163   5.123   5.287   4.131 -0.1597  0.0688 -0.3448
10891TIP3    H154164   5.048   5.339   4.160  0.8482  1.3155  0.0426
10891TIP3    H254165   5.141   5.228   4.205 -1.6414 -1.2541 -0.9961
10892TIP3   OH254166   0.544   2.111  14.489  0.4732 -0.0103  0.1069
10892TIP3    H154167   0.584   2.198  14.490 -2.4119  1.3828  1.0966
10892TIP3    H254168   0.545   2.083  14.581  1.1204 -0.9245 -0.1651
10893TIP3   OH254169   1.809   0.933   0.236 -0.4078  0.4791  0.2202
10893TIP3    H154170   1.746   0.889   0.294 -0.0082  0.3394  0.5505
10893TIP3    H254171   1.800   1.026   0.256  0.9502  0.3036  1.7464
10894TIP3   OH254172   4.546   2.274   5.909 -0.2512  0.1374 -0.0742
10894TIP3    H154173   4.623   2.316   5.871  0.0277  0.9571  1.3402
10894TIP3    H254174   4.474   2.336   5.891 -0.3596 -0.0751 -0.3748
10895TIP3   OH254175   1.346   2.016  13.411 -0.2312  0.5763  0.1325
10895TIP3    H154176   1.398   1.955  13.359 -1.2702  0.4229 -0.7452
10895TIP3    H254177   1.405   2.089  13.429  0.3362  0.3283 -0.7054
10896TIP3   OH254178   5.380   0.063   3.990  0.2334  0.3959 -0.4057
10896TIP3    H154179   5.333   0.059   4.073 -1.5929 -2.6665 -1.5132
10896TIP3    H254180   5.405  -0.028   3.972 -1.0429  0.6956 -4.1086
10897TIP3   OH254181   1.469   0.876  13.771 -0.0832 -0.1441 -0.0036
10897TIP3    H154182   1.471   0.881  13.676  0.1328 -1.2684 -0.0613
10897TIP3    H254183   1.558   0.852  13.796  0.0485  0.8483  0.5357
10898TIP3   OH254184   1.378   5.218  12.421 -0.3988  0.7498  0.0182
10898TIP3    H154185   1.336   5.249  12.340 -0.5670  1.1026  0.2390
10898TIP3    H254186   1.305   5.196  12.479 -0.2765  0.3513  0.0177
10899TIP3   OH254187   1.110   4.161  12.259 -0.4968 -0.5907 -0.5148
10899TIP3    H154188   1.172   4.230  12.235 -0.5128 -0.3249  0.1971
10899TIP3    H254189   1.034   4.177  12.204  0.5371 -1.6548 -2.2919
10900TIP3   OH254190   3.576   2.328  12.468  0.2633  0.5357 -0.0272
10900TIP3    H154191   3.609   2.397  12.525  3.1932 -1.4112  0.7761
10900TIP3    H254192   3.632   2.331  12.391 -1.3979  0.8605 -1.2407
10901TIP3   OH254193   4.565   1.704   3.011  0.1205  0.1750  0.0826
10901TIP3    H154194   4.500   1.726   2.944 -0.7949 -0.8153  0.6239
10901TIP3    H254195   4.533   1.622   3.049  2.4030 -1.0616 -0.5747
10902TIP3   OH254196   4.672   3.758   0.225  0.4824  0.3977 -0.7060
10902TIP3    H154197   4.717   3.773   0.308  0.2998  4.1245 -1.2273
10902TIP3    H254198   4.579   3.763   0.247  0.4409  2.0591 -1.2439
10903TIP3   OH254199   3.166   0.683  12.469  0.1677  0.5331  0.0023
10903TIP3    H154200   3.082   0.720  12.439  0.7857  1.1141 -1.0365
10903TIP3    H254201   3.177   0.604  12.416  1.2214  1.5151 -1.2657
10904TIP3   OH254202   4.750   1.751  16.895  0.2622  0.2040 -0.1033
10904TIP3    H154203   4.659   1.765  16.921 -0.0445  0.0885 -1.0759
10904TIP3    H254204   4.773   1.666  16.933 -0.2815 -0.1181 -0.4936
10905TIP3   OH254205   2.051   2.839  11.763  0.0859 -0.1704  0.2211
10905TIP3    H154206   2.057   2.757  11.812  0.2630 -1.2162 -1.4984
10905TIP3    H254207   2.018   2.813  11.677  0.6780  1.4898 -0.5306
10906TIP3   OH254208   2.039   4.970  12.339  0.1195  0.0191  0.1245
10906TIP3    H154209   2.094   5.031  12.388 -3.0571  2.2763  1.0732
10906TIP3    H254210   2.043   5.002  12.248  0.5686  0.0066  0.1398
10907TIP3   OH254211   0.240   5.108  13.458 -0.4297  0.0836 -0.0502
10907TIP3    H154212   0.332   5.081  13.455 -0.1202  0.8920  1.5896
10907TIP3    H254213   0.198   5.044  13.515 -0.4844  0.7906  0.7196
10908TIP3   OH254214   3.734   5.089  15.209 -0.0716  0.5074  0.3754
10908TIP3    H154215   3.662   5.096  15.146 -0.6448  0.7587  1.0412
10908TIP3    H254216   3.771   5.002  15.195 -0.0040  0.6797 -0.5063
10909TIP3   OH254217   5.815   2.559  15.110 -0.5180  0.0880  0.7201
10909TIP3    H154218   5.755   2.583  15.180 -0.7124  0.6764  0.3564
10909TIP3    H254219   5.804   2.628  15.044 -0.0180 -0.2223  0.3068
10910TIP3   OH254220   2.988   1.748  16.185  0.1388  0.4552  0.0682
10910TIP3    H154221   2.955   1.777  16.100 -0.7002  0.7287  0.4844
10910TIP3    H254222   2.983   1.653  16.182  1.2181  0.4065 -0.6243
10911TIP3   OH254223   5.330   6.048   2.296 -0.2487  0.2841 -0.2316
10911TIP3    H154224   5.299   6.059   2.386  0.3774  1.7509 -0.1736
10911TIP3    H254225   5.421   6.022   2.305 -0.5728 -0.9635 -0.4405
10912TIP3   OH254226   3.518   4.124   0.825 -0.0962  0.0439 -0.1885
10912TIP3    H154227   3.516   4.029   0.817  0.4892  0.0178 -0.0917
10912TIP3    H254228   3.596   4.141   0.878  0.1315  0.6116 -0.7026
10913TIP3   OH254229   5.515   0.256  13.061  0.4173  0.3383 -0.7296
10913TIP3    H154230   5.484   0.270  13.151 -1.3805  0.2682 -1.3159
10913TIP3    H254231   5.508   0.343  13.020 -0.9769 -0.1000 -1.4494
10914TIP3   OH254232   5.151   2.757   2.619 -0.4251 -0.1693 -0.7450
10914TIP3    H154233   5.222   2.800   2.571 -0.2020  1.2512  0.8143
10914TIP3    H254234   5.071   2.798   2.585 -0.1925  1.7886  1.0018
10915TIP3   OH254235   6.809   4.475   4.968  0.2380 -0.0954  0.5940
10915TIP3    H154236   6.724   4.468   5.011 -0.5061 -1.9657 -1.0982
10915TIP3    H254237   6.849   4.554   5.005 -1.1522 -0.6152  3.2797
10916TIP3   OH254238   5.121   5.563   1.299 -0.1916 -0.1752 -0.1115
10916TIP3    H154239   5.104   5.656   1.314  0.5989  0.3454 -2.1633
10916TIP3    H254240   5.216   5.556   1.294 -0.2297 -1.1460  0.3173
10917TIP3   OH254241   5.143   6.178   6.045  0.7807  0.0029  0.0116
10917TIP3    H154242   5.184   6.170   6.131  0.6860  1.4481  0.1990
10917TIP3    H254243   5.156   6.092   6.004  2.6706 -0.0443  0.6464
10918TIP3   OH254244   5.168   3.162  16.383 -0.1192 -0.1203 -0.4880
10918TIP3    H154245   5.092   3.125  16.337 -0.3009 -1.3790  0.7919
10918TIP3    H254246   5.226   3.192  16.313 -1.9380  1.1842 -1.4892
10919TIP3   OH254247   2.436   2.168   3.962 -0.4410  0.3777 -0.0998
10919TIP3    H154248   2.391   2.224   4.026 -0.4737 -0.7461  0.8921
10919TIP3    H254249   2.451   2.224   3.887 -3.0042  0.9536 -0.2216
10920TIP3   OH254250   2.078   3.656  16.588 -0.0330  0.1101 -0.1910
10920TIP3    H154251   2.033   3.608  16.657  0.2149  0.6138  0.3324
10920TIP3    H254252   2.154   3.602  16.566  0.6944  0.6332  0.9674
10921TIP3   OH254253   0.843   3.892   2.342  0.7741  0.6601  0.0078
10921TIP3    H154254   0.895   3.867   2.266  0.6575  0.1175  0.1030
10921TIP3    H254255   0.836   3.812   2.393 -0.5629  0.5972 -0.2530
10922TIP3   OH254256   4.938   2.575   3.564 -0.0351 -0.0635  0.6894
10922TIP3    H154257   4.874   2.594   3.496 -0.1245  0.4237  0.9030
10922TIP3    H254258   4.949   2.480   3.562  1.6908  0.1508 -1.5553
10923TIP3   OH254259   4.794   1.686  16.182 -0.1755  0.2793  0.3190
10923TIP3    H154260   4.788   1.616  16.247 -0.4334  0.7173  0.7664
10923TIP3    H254261   4.774   1.643  16.099 -0.9376 -0.0478  0.6727
10924TIP3   OH254262   2.280   2.625  12.417  0.1698  0.3348  0.1160
10924TIP3    H154263   2.374   2.630  12.402  0.3320 -0.6143  0.7816
10924TIP3    H254264   2.271   2.608  12.511 -0.6158 -1.0633 -0.1943
10925TIP3   OH254265   4.742   0.470  17.256 -0.5567  0.3157  0.6505
10925TIP3    H154266   4.703   0.449  17.172 -0.9772 -2.0653  1.4167
10925TIP3    H254267   4.799   0.396  17.275  2.3290  2.4688  0.8093
10926TIP3   OH254268   2.495   1.891   5.915 -0.3535 -0.0720 -0.1203
10926TIP3    H154269   2.575   1.896   5.967  0.2019  0.1085 -0.9830
10926TIP3    H254270   2.425   1.888   5.980  0.4407 -2.3579  0.6932
10927TIP3   OH254271   6.149   2.803   3.905  0.0160 -0.0170  0.4484
10927TIP3    H154272   6.082   2.736   3.892  0.2864 -0.6221  2.0208
10927TIP3    H254273   6.209   2.792   3.831 -1.4413  0.3145 -0.7902
10928TIP3   OH254274   0.751   2.154   2.622 -0.0921 -0.1191 -0.4802
10928TIP3    H154275   0.787   2.241   2.637 -0.1720 -0.2275  0.3663
10928TIP3    H254276   0.779   2.103   2.698 -1.4059 -0.4011 -0.1812
10929TIP3   OH254277   0.446   6.256  11.852 -0.1826  0.4198  0.4224
10929TIP3    H154278   0.526   6.210  11.826 -0.1015  1.2973 -0.9130
10929TIP3    H254279   0.375   6.206  11.813 -0.4072 -1.1885  2.8061
10930TIP3   OH254280   1.844   2.121  13.433  0.5629 -0.0236  0.1566
10930TIP3    H154281   1.775   2.129  13.499 -0.1473 -2.1740 -0.2774
10930TIP3    H254282   1.904   2.056  13.469  2.1247  1.4512  0.2942
10931TIP3   OH254283   3.654   1.121  14.143 -0.0333 -0.3712  0.1881
10931TIP3    H154284   3.639   1.184  14.214 -1.0498 -1.1470  0.6760
10931TIP3    H254285   3.641   1.035  14.184  0.2616 -0.8605 -0.7290
10932TIP3   OH254286   4.701   3.300  11.619 -0.1507  0.4554 -0.2399
10932TIP3    H154287   4.749   3.383  11.620 -0.5665  0.6959 -0.1439
10932TIP3    H254288   4.743   3.250  11.549  0.2694  0.6453 -0.1283
10933TIP3   OH254289   1.415   1.666  14.064 -0.3948 -0.1091  0.0025
10933TIP3    H154290   1.421   1.704  14.151  0.2778  3.4627 -1.5033
10933TIP3    H254291   1.498   1.621  14.051 -0.5658 -0.8045  1.2263
10934TIP3   OH254292   2.464   1.175   2.035  0.4319  0.0147  0.4200
10934TIP3    H154293   2.454   1.134   2.121  0.8402 -1.2807 -0.1393
10934TIP3    H254294   2.422   1.261   2.044 -2.3818 -1.3696  0.9751
10935TIP3   OH254295   0.869   3.397  15.019 -0.0716 -0.3654 -0.5828
10935TIP3    H154296   0.842   3.379  15.109 -0.3888 -1.9851 -0.9873
10935TIP3    H254297   0.901   3.487  15.021 -3.3305  0.8397  0.4259
10936TIP3   OH254298   0.698   2.401  14.467 -0.1851  0.3270  0.0744
10936TIP3    H154299   0.629   2.466  14.479 -0.6531  0.0614 -1.0797
10936TIP3    H254300   0.757   2.441  14.403  1.0001  0.7537  1.4161
10937TIP3   OH254301   0.180   2.088   1.324 -0.3736 -0.2416 -0.0431
10937TIP3    H154302   0.269   2.056   1.309 -0.2965  0.4557 -1.1048
10937TIP3    H254303   0.125   2.031   1.271 -0.2658  1.1416 -1.6975
10938TIP3   OH254304   3.327   4.319  16.399  0.3727 -0.0178 -0.2383
10938TIP3    H154305   3.381   4.386  16.358  0.4866  0.1103  0.1186
10938TIP3    H254306   3.295   4.266  16.327  1.0231 -0.1295 -0.4467
10939TIP3   OH254307   6.613   1.081   1.865  0.5555  0.3622 -0.0711
10939TIP3    H154308   6.542   1.019   1.852 -1.0645  1.7901  1.5443
10939TIP3    H254309   6.677   1.035   1.920  0.2121 -0.4752 -0.3833
10940TIP3   OH254310   3.630   0.875  14.320 -0.4614  0.2788  0.3546
10940TIP3    H154311   3.676   0.792  14.311 -2.2643 -0.6709 -0.3695
10940TIP3    H254312   3.565   0.859  14.389  0.8924  1.8961  2.0742
10941TIP3   OH254313   3.644   2.106   0.957 -0.0506 -0.2021 -0.2590
10941TIP3    H154314   3.608   2.030   1.003 -3.0167  1.5850  0.4775
10941TIP3    H254315   3.574   2.133   0.897  0.1671  3.0976  0.8715
10942TIP3   OH254316   3.975   6.573  15.822  0.4668  0.1581  0.2365
10942TIP3    H154317   4.016   6.652  15.858  0.2142  0.1215  0.6014
10942TIP3    H254318   3.952   6.521  15.899 -1.0144  0.5437  0.0569
10943TIP3   OH254319   2.432   3.178   2.076 -0.5639 -0.1686 -0.6362
10943TIP3    H154320   2.482   3.242   2.026 -1.7170  0.3127 -1.2118
10943TIP3    H254321   2.409   3.223   2.157 -0.3866 -0.2445 -0.5463
10944TIP3   OH254322   3.134   0.179   5.575  0.0988 -0.3979 -0.0311
10944TIP3    H154323   3.064   0.123   5.609 -1.1143  0.9296 -0.2657
10944TIP3    H254324   3.110   0.194   5.484 -0.7020  2.0819  0.5265
10945TIP3   OH254325   3.778   1.393  11.660  0.2756  0.7610  0.5162
10945TIP3    H154326   3.857   1.342  11.640  0.7005  1.7149 -0.2519
10945TIP3    H254327   3.804   1.451  11.732  0.1088  0.6624  0.6557
10946TIP3   OH254328   6.274   2.120   6.337 -0.2567 -0.1558  0.1660
10946TIP3    H154329   6.347   2.157   6.387 -0.5516  2.1697 -1.0795
10946TIP3    H254330   6.288   2.025   6.342  0.9137  0.1013  2.8290
10947TIP3   OH254331   2.106   2.474  15.557  0.2248  0.0400  0.5453
10947TIP3    H154332   2.138   2.392  15.594  1.1836  0.9068  1.6379
10947TIP3    H254333   2.137   2.542  15.617 -0.1715  1.2480 -0.5945
10948TIP3   OH254334   3.874   5.908   0.891 -0.1057 -0.1371 -0.2500
10948TIP3    H154335   3.862   5.860   0.973  0.0618  0.7949  0.3250
10948TIP3    H254336   3.942   5.972   0.910  0.4419 -0.3869 -1.3305
10949TIP3   OH254337   2.456   5.691   1.970  0.3127  0.0747  0.2072
10949TIP3    H154338   2.412   5.607   1.952  2.5091 -1.2377  0.8529
10949TIP3    H254339   2.449   5.702   2.065  1.9521 -0.4605  0.3906
10950TIP3   OH254340   3.600   6.165   1.740 -0.1641 -0.4489  0.0762
10950TIP3    H154341   3.623   6.231   1.674 -1.6734 -0.8366 -0.8634
10950TIP3    H254342   3.518   6.195   1.777 -0.3729 -1.3024  0.3207
10951TIP3   OH254343   2.459   6.590  14.474 -0.2071  0.0170 -0.4457
10951TIP3    H154344   2.365   6.587  14.488  0.2102  0.1859  3.1020
10951TIP3    H254345   2.483   6.681  14.492  0.7550 -0.2873 -0.1067
10952TIP3   OH254346   1.948   0.217  11.592 -0.2318 -0.2976  0.0818
10952TIP3    H154347   1.853   0.213  11.578 -0.3736  0.2666  0.8435
10952TIP3    H254348   1.969   0.309  11.585  0.3843 -0.5047 -0.8202
10953TIP3   OH254349   5.956   6.709  15.715  0.2461  0.0212 -0.2931
10953TIP3    H154350   5.979   6.721  15.807  0.7067 -1.3690 -0.2273
10953TIP3    H254351   5.979   6.792  15.673 -0.8269  0.9909  1.0070
10954TIP3   OH254352   4.155   6.783   0.831 -0.0085 -0.1816 -0.3176
10954TIP3    H154353   4.138   6.772   0.738  0.1540 -0.5537 -0.3024
10954TIP3    H254354   4.078   6.746   0.874 -1.2978  2.3628 -0.3646
10955TIP3   OH254355   3.170   1.062  13.744  0.5361  0.1254 -0.1701
10955TIP3    H154356   3.259   1.042  13.712 -0.3784 -1.5318 -1.8071
10955TIP3    H254357   3.162   1.157  13.735  1.3806  0.0396 -2.0781
10956TIP3   OH254358   6.450   4.098  14.962 -0.2119 -0.2211 -0.9143
10956TIP3    H154359   6.408   4.030  15.015  0.4372  0.2524  0.2164
10956TIP3    H254360   6.457   4.173  15.020  0.2368  0.4081 -1.7690
10957TIP3   OH254361   1.821   0.731   0.044  0.2897  0.5613 -0.5444
10957TIP3    H154362   1.800   0.800   0.107 -3.3014 -0.6739 -0.3169
10957TIP3    H254363   1.798   0.768  -0.041 -0.5088  0.0715 -0.5411
10958TIP3   OH254364   0.553   6.019  13.618  0.2382 -0.5207  0.4738
10958TIP3    H154365   0.539   5.945  13.559  1.0064  1.6467 -2.5786
10958TIP3    H254366   0.465   6.051  13.638 -0.0069  0.1513 -1.4933
10959TIP3   OH254367   5.675   4.542   4.166  0.5493  0.2716  0.2857
10959TIP3    H154368   5.626   4.511   4.090  1.4954  0.7748 -0.5464
10959TIP3    H254369   5.764   4.508   4.154  1.0111  1.3355  0.5461
10960TIP3   OH254370   4.177   5.603   4.234 -0.2732 -0.2102 -0.0885
10960TIP3    H154371   4.130   5.613   4.151 -3.1427  1.8143  1.6894
10960TIP3    H254372   4.150   5.518   4.267  0.7668 -0.9594 -1.1157
10961TIP3   OH254373   5.423   1.677   1.036  0.1169  0.2115  0.1985
10961TIP3    H154374   5.459   1.623   0.966  0.2018  0.0407  0.3718
10961TIP3    H254375   5.493   1.681   1.101 -0.7384 -1.4666  1.2798
10962TIP3   OH254376   6.264   6.398  17.037  0.3955  0.1183 -0.2516
10962TIP3    H154377   6.313   6.451  17.101 -0.1497  1.4638 -0.9297
10962TIP3    H254378   6.268   6.448  16.956  0.9500 -1.5068 -1.2531
10963TIP3   OH254379   2.637   2.043  16.580 -0.6629 -0.3005 -0.0111
10963TIP3    H154380   2.652   1.979  16.650  0.3211 -1.6503 -1.4119
10963TIP3    H254381   2.628   2.127  16.626 -3.9313 -1.6612  2.0410
10964TIP3   OH254382   3.621   0.727   6.501 -0.2966 -0.0130 -0.2429
10964TIP3    H154383   3.650   0.641   6.472 -2.4102 -1.0652  0.6426
10964TIP3    H254384   3.528   0.730   6.479 -0.6138  1.4284  1.1430
10965TIP3   OH254385   6.450   0.751   0.372 -0.1917  0.0207  0.4087
10965TIP3    H154386   6.530   0.763   0.423  0.7295  0.5249 -1.1430
10965TIP3    H254387   6.454   0.661   0.341  0.0013  0.2029 -0.0846
10966TIP3   OH254388   5.793   3.447   4.018 -0.1975 -0.2592 -0.3425
10966TIP3    H154389   5.842   3.416   4.095 -0.3211 -1.3095 -0.6775
10966TIP3    H254390   5.804   3.377   3.953  0.3100  0.8272 -1.4585
10967TIP3   OH254391   0.950   3.777   5.965  0.0983 -0.6059  0.0967
10967TIP3    H154392   0.952   3.702   5.906 -0.5362 -0.3961 -0.1870
10967TIP3    H254393   0.858   3.791   5.984  0.2489 -0.2091  0.5542
10968TIP3   OH254394   4.184   2.791   4.715 -0.2816 -0.3260  0.4220
10968TIP3    H154395   4.162   2.727   4.647 -0.7800 -1.3371  1.5312
10968TIP3    H254396   4.243   2.852   4.671 -0.1340 -1.2969 -0.7652
10969TIP3   OH254397   1.858   1.557  14.339 -0.0154 -0.2346 -0.0602
10969TIP3    H154398   1.945   1.590  14.362  0.4827 -0.7595 -1.1603
10969TIP3    H254399   1.875   1.487  14.276 -1.1443 -1.4960  1.0042
10970TIP3   OH254400   3.558   2.475  12.983  0.0944  0.3850 -0.2109
10970TIP3    H154401   3.545   2.510  13.071 -1.2408  0.3653 -0.3906
10970TIP3    H254402   3.638   2.517  12.952  0.2645  0.8166  0.7921
10971TIP3   OH254403   0.666   2.030   6.420  0.0188  0.2379 -0.4445
10971TIP3    H154404   0.690   2.088   6.348  1.4217 -0.1937 -0.3467
10971TIP3    H254405   0.713   1.948   6.401 -0.1294 -0.0961  0.6021
10972TIP3   OH254406   2.610   4.548   5.264  0.1340  0.2468 -0.0967
10972TIP3    H154407   2.557   4.470   5.277 -0.9570  1.0456  0.3103
10972TIP3    H254408   2.700   4.519   5.280 -0.4493 -0.5080  1.9039
10973TIP3   OH254409   3.318   1.080   6.498  0.5627  0.1951 -0.0465
10973TIP3    H154410   3.412   1.072   6.512  0.8404 -2.6996 -2.8746
10973TIP3    H254411   3.279   1.025   6.566  1.0361 -0.4167 -0.2653
10974TIP3   OH254412   2.127   6.127   1.924  0.4982 -0.3007 -0.0502
10974TIP3    H154413   2.154   6.036   1.925  1.2264 -0.0849  1.7028
10974TIP3    H254414   2.199   6.174   1.966  0.4315  1.1823 -1.5018
10975TIP3   OH254415   2.223   3.198  13.460 -0.0491  0.4629  0.1849
10975TIP3    H154416   2.239   3.241  13.376  1.8690 -0.4751  0.0292
10975TIP3    H254417   2.277   3.247  13.523 -0.7202  0.5547  0.6981
10976TIP3   OH254418   3.910   5.393  14.136  0.2223  0.0488  0.5625
10976TIP3    H154419   3.998   5.401  14.174  1.1969 -0.5025 -1.5275
10976TIP3    H254420   3.871   5.480  14.148  1.8594  0.9501 -0.4406
10977TIP3   OH254421   5.127   4.632  15.883  0.2502 -1.0280 -0.7082
10977TIP3    H154422   5.191   4.585  15.830 -0.0517  0.8019 -2.7868
10977TIP3    H254423   5.166   4.636  15.971  1.4460 -2.8046 -1.1351
10978TIP3   OH254424   2.947   1.923   1.544  0.2577 -0.1128 -0.5799
10978TIP3    H154425   2.871   1.948   1.493  1.4173  1.1484 -1.7128
10978TIP3    H254426   2.944   1.827   1.546 -0.3163 -0.1420 -2.2248
10979TIP3   OH254427   6.171   6.564  16.838 -0.0415 -0.0112 -0.3653
10979TIP3    H154428   6.118   6.493  16.873 -0.7407  0.7702  0.1680
10979TIP3    H254429   6.154   6.562  16.744 -0.6675 -0.0388 -0.2499
10980TIP3   OH254430   3.532   0.811  16.087 -0.1157  0.6267  0.2990
10980TIP3    H154431   3.564   0.746  16.024  0.7565  0.8353  0.5169
10980TIP3    H254432   3.520   0.762  16.168 -0.0417  0.6076  0.3007
10981TIP3   OH254433   1.998   3.687  11.538  0.8673 -0.7241 -0.0694
10981TIP3    H154434   1.984   3.670  11.445  1.6325  1.6080 -0.6509
10981TIP3    H254435   2.005   3.600  11.578 -3.3708 -1.8892 -1.5412
10982TIP3   OH254436   0.029   4.026   4.522  0.0968  0.1667  0.6722
10982TIP3    H154437   0.053   4.119   4.521  1.4839 -0.1129 -3.9752
10982TIP3    H254438   0.072   3.990   4.444 -3.7762 -3.4980  0.0749
10983TIP3   OH254439   4.663   0.779  15.806  0.8614 -0.5999 -0.3376
10983TIP3    H154440   4.706   0.733  15.734  1.2244 -2.1252  0.8190
10983TIP3    H254441   4.717   0.760  15.882 -0.5491 -0.5825  0.6862
10984TIP3   OH254442   5.480   6.634  16.597  0.5586  0.3310 -0.9535
10984TIP3    H154443   5.427   6.644  16.676 -0.8796 -1.4269 -1.6347
10984TIP3    H254444   5.568   6.658  16.623  0.3608 -1.4835  1.5597
10985TIP3   OH254445   3.365   6.357   3.507  0.2731 -0.1594 -0.0104
10985TIP3    H154446   3.432   6.378   3.572  1.7761 -1.1758 -1.1844
10985TIP3    H254447   3.402   6.284   3.458 -2.1166 -1.3714 -0.0801
10986TIP3   OH254448   0.834   4.789   2.119  0.0226  0.1030 -0.9736
10986TIP3    H154449   0.819   4.805   2.026 -0.7788 -2.7509 -1.3987
10986TIP3    H254450   0.929   4.796   2.129 -0.0377  2.2584 -1.5968
10987TIP3   OH254451   3.194   1.290  11.481  0.1662 -0.2076 -0.2673
10987TIP3    H154452   3.099   1.275  11.488 -0.0469  1.5780  1.1046
10987TIP3    H254453   3.234   1.214  11.522 -0.6240 -1.6522 -2.1058
10988TIP3   OH254454   0.638   3.681  16.894 -0.4447 -0.0436  0.7006
10988TIP3    H154455   0.561   3.643  16.853 -0.2624  0.2249  0.1056
10988TIP3    H254456   0.639   3.644  16.982 -0.0827 -1.6486  0.0184
10989TIP3   OH254457   6.498   6.641   5.274 -0.2634  0.0891 -0.2539
10989TIP3    H154458   6.483   6.710   5.338 -0.9767  1.8119 -2.2331
10989TIP3    H254459   6.433   6.574   5.294 -0.8450  0.8666  0.4558
10990TIP3   OH254460   2.379   1.908  13.881  0.5283  0.2024 -0.1427
10990TIP3    H154461   2.443   1.923  13.811  0.4179 -1.1861 -0.5755
10990TIP3    H254462   2.322   1.839  13.846  0.0455 -0.0138  1.0402
10991TIP3   OH254463   6.058   3.489  12.659 -0.5691 -0.1878  0.9536
10991TIP3    H154464   6.092   3.577  12.643 -1.4159  0.0076  0.2131
10991TIP3    H254465   6.124   3.431  12.619 -0.2254  0.1203  1.0687
10992TIP3   OH254466   5.779   4.808  17.143  0.5321  0.0282  0.3490
10992TIP3    H154467   5.772   4.725  17.189  1.2568 -1.2299 -1.7269
10992TIP3    H254468   5.697   4.853  17.161 -0.1662 -1.4470  0.9344
10993TIP3   OH254469   0.218   1.717   4.794  0.1832  0.2166 -0.3823
10993TIP3    H154470   0.136   1.671   4.810  0.1709  0.8033  1.3245
10993TIP3    H254471   0.266   1.659   4.735 -0.2328 -1.5683  0.9707
10994TIP3   OH254472   5.284   5.669   3.668  0.3773  0.1537 -0.3589
10994TIP3    H154473   5.302   5.758   3.697 -0.7306  0.4052 -0.4459
10994TIP3    H254474   5.360   5.619   3.698 -0.0037  0.7052  1.6117
10995TIP3   OH254475   3.986   2.270  15.712  0.4211  0.4498  0.2740
10995TIP3    H154476   3.941   2.187  15.693  1.7853 -0.3187  0.3839
10995TIP3    H254477   3.982   2.277  15.807 -0.9325  1.2256  0.1777
10996TIP3   OH254478   3.446   5.963  15.686  0.1151 -0.0273 -0.3918
10996TIP3    H154479   3.504   5.915  15.627 -1.3240 -1.8383 -0.4119
10996TIP3    H254480   3.423   6.042  15.639  0.5463 -0.5138 -1.4402
10997TIP3   OH254481   2.432   4.947  12.987 -0.2693 -0.6586  0.6526
10997TIP3    H154482   2.495   4.999  12.937  0.7470  1.7094  4.2339
10997TIP3    H254483   2.348   4.992  12.975 -0.1196 -0.3573  0.7549
10998TIP3   OH254484   3.765   3.253   2.844  0.3758  0.0209  0.8764
10998TIP3    H154485   3.830   3.227   2.779  2.8534  2.9653  2.0330
10998TIP3    H254486   3.766   3.183   2.909 -0.6766 -1.9639 -1.1958
10999TIP3   OH254487   5.612   1.293  17.208 -0.0397 -0.1955 -0.3611
10999TIP3    H154488   5.620   1.284  17.113 -1.8003  1.4155 -0.6948
10999TIP3    H254489   5.567   1.213  17.236  2.3989 -1.6965 -0.5511
11000TIP3   OH254490   2.044   2.590  17.057  0.2853  0.1202 -0.0732
11000TIP3    H154491   2.065   2.679  17.030  1.2452 -0.0786  0.0013
11000TIP3    H254492   1.956   2.574  17.024  0.7605  0.5032 -1.5308
11001TIP3   OH254493   6.230   5.828  17.078 -0.2703  0.4388  1.1285
11001TIP3    H154494   6.152   5.797  17.124  0.1893 -0.9238  1.0087
11001TIP3    H254495   6.284   5.750  17.068  0.9065  1.2841  0.8009
11002TIP3   OH254496   2.115   4.516  14.473 -0.2684  0.1554  0.0277
11002TIP3    H154497   2.207   4.492  14.464 -0.3813  0.6430 -3.2899
11002TIP3    H254498   2.103   4.532  14.566  2.7708 -0.8120  0.6525
11003TIP3   OH254499   3.132   1.447   3.376 -0.4578  0.7319 -0.4196
11003TIP3    H154500   3.081   1.404   3.308 -0.6145  0.3384 -0.0623
11003TIP3    H254501   3.079   1.523   3.402 -0.6068  0.6336 -0.4328
11004TIP3   OH254502   3.526   4.477   1.858  0.6893 -0.1011  0.4200
11004TIP3    H154503   3.459   4.414   1.832 -0.6123  1.8330 -1.0227
11004TIP3    H254504   3.505   4.497   1.949 -0.4448  0.1830  0.1026
11005TIP3   OH254505   0.545   5.457  15.076 -0.4870 -0.3537  0.4556
11005TIP3    H154506   0.627   5.430  15.117 -0.1502 -1.0398 -0.6596
11005TIP3    H254507   0.545   5.413  14.991 -0.9450  1.4159 -0.4971
11006TIP3   OH254508   3.091   3.682  12.639 -0.4757  0.5949  0.2231
11006TIP3    H154509   3.048   3.761  12.669 -0.3703  1.9065 -2.9523
11006TIP3    H254510   3.074   3.679  12.545 -1.3777 -3.7145  0.4153
11007TIP3   OH254511   2.738   6.732   4.180 -0.8582 -0.5988 -0.5126
11007TIP3    H154512   2.680   6.808   4.180 -0.1425 -0.0398 -1.2510
11007TIP3    H254513   2.701   6.674   4.113 -2.2549 -1.5870  1.0698
11008TIP3   OH254514   5.060   2.972  12.622 -0.0979  0.2629 -0.1408
11008TIP3    H154515   5.055   2.957  12.528  0.6699  0.8528 -0.2787
11008TIP3    H254516   5.082   3.065  12.630 -1.2527  0.4787  0.6368
11009TIP3   OH254517   0.748   5.169   6.601 -0.5411  0.3743  0.1750
11009TIP3    H154518   0.689   5.116   6.654 -0.7089  1.1727  0.7907
11009TIP3    H254519   0.820   5.192   6.660  0.2221 -0.3120 -0.4744
11010TIP3   OH254520   6.641   3.366   1.324  0.4512  0.2050 -0.7626
11010TIP3    H154521   6.546   3.369   1.317  0.4312  2.7159  0.0052
11010TIP3    H254522   6.672   3.431   1.261  1.4638  1.9572  1.4664
11011TIP3   OH254523   5.499   3.130  17.213 -0.5376 -0.0309 -0.4647
11011TIP3    H154524   5.450   3.182  17.149  0.1170 -0.9279 -1.7187
11011TIP3    H254525   5.571   3.187  17.240 -1.6641  0.8969  0.5852
11012TIP3   OH254526   5.318   4.408  15.554 -0.6455 -0.2996  0.5117
11012TIP3    H154527   5.369   4.459  15.617 -0.8741 -1.1552  1.3996
11012TIP3    H254528   5.341   4.317  15.572  2.3214 -0.4547 -3.2583
11013TIP3   OH254529   3.725   4.369  15.522 -0.4091 -0.5247 -0.4744
11013TIP3    H154530   3.660   4.318  15.474 -0.4292  1.6399 -2.8719
11013TIP3    H254531   3.674   4.433  15.571 -0.1850  0.8863 -2.0108
11014TIP3   OH254532   5.181   6.753   4.553  0.1133  0.5721  0.0341
11014TIP3    H154533   5.168   6.672   4.603  0.8495  0.5146  0.1498
11014TIP3    H254534   5.114   6.751   4.486 -0.2276  0.1339  0.3835
11015TIP3   OH254535   0.740   6.374   0.825  0.2142 -0.5527  0.1038
11015TIP3    H154536   0.658   6.350   0.782  1.5538 -1.8282 -1.8329
11015TIP3    H254537   0.766   6.297   0.875  0.7122 -0.5228 -0.0943
11016TIP3   OH254538   2.207   5.634  16.004 -0.4078  0.0803  1.4413
11016TIP3    H154539   2.302   5.643  15.991 -0.2333  0.1380  2.6409
11016TIP3    H254540   2.199   5.564  16.070 -1.2648 -0.9648  0.2437
11017TIP3   OH254541   1.727   1.347   3.146 -0.0649 -0.2557  0.2377
11017TIP3    H154542   1.661   1.331   3.079 -2.3223 -0.3732  2.4246
11017TIP3    H254543   1.753   1.438   3.134 -2.1915  0.4386  0.6422
11018TIP3   OH254544   4.225   2.346  15.542 -0.0525 -0.1518 -0.0566
11018TIP3    H154545   4.157   2.306  15.597  2.0671 -1.6492  1.5446
11018TIP3    H254546   4.205   2.316  15.454 -1.5296 -0.4810  0.3749
11019TIP3   OH254547   4.397   5.899  15.976  0.2835  0.4155 -0.2953
11019TIP3    H154548   4.372   5.839  15.906  0.0340 -1.8367  1.6459
11019TIP3    H254549   4.313   5.929  16.013  0.4126  0.0343  0.3113
11020TIP3   OH254550   2.750   4.979   0.432 -0.0295  0.1968  0.2598
11020TIP3    H154551   2.804   5.026   0.497 -0.8891 -1.1621  1.9846
11020TIP3    H254552   2.742   4.891   0.467 -1.2777 -0.3106 -1.2682
11021TIP3   OH254553   2.903   2.798   5.581  0.1527  0.7822 -0.0642
11021TIP3    H154554   2.818   2.804   5.537 -0.4002 -2.0699  0.5257
11021TIP3    H254555   2.883   2.766   5.669  1.7569  0.8185  0.3301
11022TIP3   OH254556   0.640   3.913  15.717  0.1537 -0.2542  0.6652
11022TIP3    H154557   0.722   3.879  15.752  0.9784  0.1770 -0.8033
11022TIP3    H254558   0.663   3.950  15.632 -1.5193  0.0870  0.3297
11023TIP3   OH254559   2.026   4.704   2.312 -0.7190 -0.3453 -0.6660
11023TIP3    H154560   2.103   4.648   2.309 -1.1902 -1.0080 -0.3852
11023TIP3    H254561   2.045   4.773   2.248  1.2938  1.0605  1.3749
11024TIP3   OH254562   2.745   6.052   3.807 -0.1096  0.3391 -0.7884
11024TIP3    H154563   2.832   6.089   3.823  0.2556 -1.6314  2.2020
11024TIP3    H254564   2.763   5.967   3.766 -0.4472 -1.0527  1.8219
11025TIP3   OH254565   6.561   2.985   3.869 -0.2521  0.3073 -0.1548
11025TIP3    H154566   6.616   2.908   3.854 -0.7945 -0.2510  0.6852
11025TIP3    H254567   6.584   3.045   3.798  1.4670  0.1016  0.2159
11026TIP3   OH254568   4.456   4.864  13.607  0.9135  0.0010  0.3794
11026TIP3    H154569   4.441   4.951  13.568  1.1904 -0.5504 -0.9772
11026TIP3    H254570   4.539   4.835  13.569  0.2024 -1.3871 -0.1251
11027TIP3   OH254571   3.528   5.022  10.747  0.0153  1.4421 -0.0144
11027TIP3    H154572   3.508   4.947  10.691  0.8796  1.4780 -0.3774
11027TIP3    H254573   3.500   5.098  10.696 -0.7162  1.3777  0.2904
11028TIP3   OH254574   2.538   1.550  12.646  0.3729 -0.3785 -0.6226
11028TIP3    H154575   2.465   1.583  12.594 -0.9546 -1.3687  0.5726
11028TIP3    H254576   2.556   1.463  12.611  0.4667 -0.4495 -0.4031
11029TIP3   OH254577   3.215   3.282   0.945  0.1751 -0.2712 -0.0099
11029TIP3    H154578   3.285   3.269   0.881  0.7397  1.4486  0.2200
11029TIP3    H254579   3.253   3.340   1.011 -1.0916 -0.2649  0.7419
11030TIP3   OH254580   5.480   4.161  16.778  0.0474 -0.1976  0.9666
11030TIP3    H154581   5.538   4.181  16.705 -0.0725  1.1316  1.2253
11030TIP3    H254582   5.532   4.178  16.856 -0.2883 -0.2122  1.1976
11031TIP3   OH254583   1.317   4.951  11.882 -0.4556 -0.4449 -0.2502
11031TIP3    H154584   1.275   5.037  11.878 -1.7694 -1.0196  0.7317
11031TIP3    H254585   1.252   4.894  11.924 -0.2997 -2.3375 -2.5036
11032TIP3   OH254586   4.050   5.340   2.392  0.0924 -0.0137  0.0553
11032TIP3    H154587   4.072   5.352   2.300 -1.9252  3.0239 -0.0892
11032TIP3    H254588   3.960   5.309   2.391 -0.6409  1.9882  1.0226
11033TIP3   OH254589   6.279   3.311   0.630  0.5603 -0.1431  0.4665
11033TIP3    H154590   6.340   3.237   0.629  0.4958 -0.2071  1.1641
11033TIP3    H254591   6.317   3.372   0.693  1.4268  1.1120 -1.2240
11034TIP3   OH254592   1.368   1.509  17.199 -0.3502 -0.0635  0.5705
11034TIP3    H154593   1.373   1.417  17.226  0.5174  0.3856  2.0230
11034TIP3    H254594   1.274   1.525  17.187 -0.4290 -1.4015 -0.6620
11035TIP3   OH254595   2.757   3.231   2.790  0.2269 -0.5523  0.6671
11035TIP3    H154596   2.844   3.270   2.801  0.1252 -0.3889  0.9087
11035TIP3    H254597   2.747   3.220   2.696  1.2301 -2.2436  0.7569
11036TIP3   OH254598   5.100   4.805  11.187 -0.1648  0.2470  0.5011
11036TIP3    H154599   5.080   4.720  11.148 -0.6462  0.1764  0.8859
11036TIP3    H254600   5.118   4.862  11.113  0.8789 -0.3694  0.2669
11037TIP3   OH254601   0.602   6.269  12.584  0.2879 -0.3791 -0.0326
11037TIP3    H154602   0.553   6.206  12.531 -0.8972  2.0199 -1.8964
11037TIP3    H254603   0.693   6.240  12.577 -0.1524 -1.5193 -1.4177
11038TIP3   OH254604   6.138   6.152  16.134  0.0004 -0.2377  0.7740
11038TIP3    H154605   6.048   6.137  16.104 -0.1097 -0.7021  1.3365
11038TIP3    H254606   6.180   6.196  16.060 -0.5983 -0.3012  0.3890
11039TIP3   OH254607   1.155   3.142  16.526 -0.0896 -0.4386  0.5572
11039TIP3    H154608   1.111   3.223  16.553 -1.1814 -1.3116  1.4491
11039TIP3    H254609   1.148   3.085  16.602 -2.4768 -2.6753 -1.2712
11040TIP3   OH254610   1.967   0.015  15.830  0.1618 -0.1575  0.0754
11040TIP3    H154611   1.988  -0.077  15.815  0.6332 -0.2079  0.9956
11040TIP3    H254612   2.016   0.038  15.909 -2.0552  0.1610  1.3728
11041TIP3   OH254613   3.997   6.797  14.187  0.1052  0.5052  0.0299
11041TIP3    H154614   3.990   6.892  14.195 -1.1348  0.2814  1.7717
11041TIP3    H254615   4.086   6.777  14.215  0.1610  1.0921  0.2738
11042TIP3   OH254616   5.364   4.093   0.665  0.5172  0.0616 -0.2494
11042TIP3    H154617   5.302   4.056   0.601  0.0050 -0.8994  0.7821
11042TIP3    H254618   5.358   4.187   0.652 -0.8598 -0.0366 -0.4580
11043TIP3   OH254619   0.608   3.619   0.283  0.2042  0.5676  0.0498
11043TIP3    H154620   0.522   3.621   0.326  1.4957  2.0013  2.6734
11043TIP3    H254621   0.609   3.536   0.236 -1.8493 -0.3698  1.5779
11044TIP3   OH254622   3.624   1.050  12.209  0.4034 -0.0518  0.3739
11044TIP3    H154623   3.562   0.978  12.199  0.7265 -0.3396  0.4445
11044TIP3    H254624   3.632   1.063  12.303  0.2225  0.1827  0.3574
11045TIP3   OH254625   1.356   1.470   0.803  0.5116 -0.4108  0.4854
11045TIP3    H154626   1.291   1.463   0.873 -0.7107 -0.1446 -0.5973
11045TIP3    H254627   1.337   1.396   0.745 -0.5358  1.1195 -1.2037
11046TIP3   OH254628   4.337   1.140   4.961 -0.5467 -0.2275  0.1742
11046TIP3    H154629   4.273   1.206   4.933  0.4691  1.1666  1.0006
11046TIP3    H254630   4.304   1.110   5.046 -0.2092  0.3823  0.5301
11047TIP3   OH254631   2.494   6.741   3.031 -0.3979  0.7358 -0.0376
11047TIP3    H154632   2.556   6.693   3.087 -0.8161  0.9755  0.6370
11047TIP3    H254633   2.545   6.815   2.997 -0.5770  1.5069  1.3235
11048TIP3   OH254634   3.208   0.134   5.951  0.0200  0.4310  0.6734
11048TIP3    H154635   3.225   0.108   6.041 -2.2330 -2.6149  0.3041
11048TIP3    H254636   3.206   0.051   5.902 -1.4030  1.8095 -1.7068
11049TIP3   OH254637   3.798   0.259   2.450  0.2620 -0.3443  0.1712
11049TIP3    H154638   3.890   0.233   2.438  0.9302  1.8754  0.0723
11049TIP3    H254639   3.781   0.246   2.543  0.6393 -0.8845  0.1684
11050TIP3   OH254640   3.231   4.804  12.973  0.1006 -0.0110 -0.1311
11050TIP3    H154641   3.291   4.850  13.031 -1.5822  0.4610  1.2780
11050TIP3    H254642   3.234   4.713  13.002 -0.4710  0.1601  0.4710
11051TIP3   OH254643   6.027   4.963  12.163 -0.1182  0.3081  0.1741
11051TIP3    H154644   6.015   5.054  12.139 -0.3312  0.1318 -0.3792
11051TIP3    H254645   5.939   4.925  12.161  0.0322 -0.0254 -0.0520
11052TIP3   OH254646   4.521   5.173  14.851  0.3655  0.3153  0.8374
11052TIP3    H154647   4.549   5.143  14.765 -0.2416 -0.0256  0.7595
11052TIP3    H254648   4.599   5.215  14.888  0.5923  0.5824  0.0716
11053TIP3   OH254649   0.429   1.112  16.327 -0.0642 -0.0064 -0.1146
11053TIP3    H154650   0.371   1.087  16.254 -1.7446 -0.8677  1.4735
11053TIP3    H254651   0.379   1.178  16.375  1.0272  0.5340  0.2831
11054TIP3   OH254652   4.593   1.343  14.826 -0.2352  0.0303  0.7558
11054TIP3    H154653   4.588   1.262  14.877 -1.9047  1.4555  2.9678
11054TIP3    H254654   4.560   1.410  14.886 -0.0561  2.1405 -1.4609
11055TIP3   OH254655   5.985   3.984   1.118  0.7095  0.6638 -0.0826
11055TIP3    H154656   6.027   4.007   1.035  2.2792  1.0202  0.7965
11055TIP3    H254657   5.948   4.066   1.150  1.1126  0.7545  0.1442
11056TIP3   OH254658   4.051   1.544  15.222 -0.0341  0.6497 -0.1246
11056TIP3    H154659   4.143   1.570  15.221 -0.2519  1.4699 -2.1982
11056TIP3    H254660   4.015   1.580  15.141 -1.8764 -0.7803  0.0117
11057TIP3   OH254661   0.192   5.308   2.171  0.4475 -0.3554  0.1756
11057TIP3    H154662   0.176   5.303   2.265  0.6438  1.1869  0.3070
11057TIP3    H254663   0.283   5.277   2.161  0.5650 -0.1353  0.5449
11058TIP3   OH254664   0.761   6.183  12.905  0.0606 -0.4328  0.0192
11058TIP3    H154665   0.697   6.124  12.944  1.5938 -3.1991 -1.4223
11058TIP3    H254666   0.750   6.171  12.810  0.3311  1.7161 -0.3062
11059TIP3   OH254667   6.684   3.499  16.871  0.3749 -0.0596 -0.4309
11059TIP3    H154668   6.716   3.580  16.909  1.8370  0.1433 -2.0417
11059TIP3    H254669   6.611   3.473  16.927  1.2256  1.2522  1.3170
11060TIP3   OH254670   6.103   3.788  14.472 -0.2151  0.0543  0.1050
11060TIP3    H154671   6.068   3.720  14.415 -1.5664  0.0954  0.8533
11060TIP3    H254672   6.146   3.740  14.543 -0.0011 -0.0084 -0.0682
11061TIP3   OH254673   2.075   4.160  16.758  0.0715 -0.2846 -0.5977
11061TIP3    H154674   2.089   4.138  16.665  0.2058 -0.1497 -0.6096
11061TIP3    H254675   2.126   4.240  16.771 -0.2715 -0.0833 -0.5057
11062TIP3   OH254676   0.800   5.437   3.346 -0.3796  0.0948  0.7834
11062TIP3    H154677   0.739   5.381   3.394 -2.0904  0.1028 -1.3398
11062TIP3    H254678   0.886   5.406   3.373 -1.2733 -3.2952  0.0220
11063TIP3   OH254679   5.409   2.201  10.425  0.1817 -0.1641 -0.2658
11063TIP3    H154680   5.452   2.227  10.507  0.9223 -0.1503 -0.6548
11063TIP3    H254681   5.349   2.273  10.405  2.3214  1.3543 -1.4076
11064TIP3   OH254682   4.859   0.982  14.581 -0.2998 -0.5178  0.0800
11064TIP3    H154683   4.855   1.077  14.580 -0.4305 -0.5174  0.5812
11064TIP3    H254684   4.822   0.957  14.666 -1.8944 -1.0951 -0.7609
11065TIP3   OH254685   0.417   0.169  17.094  0.2629  0.2148  0.5227
11065TIP3    H154686   0.364   0.244  17.069 -0.8175 -0.6631  0.1381
11065TIP3    H254687   0.504   0.188  17.059 -0.0592  1.1749  0.2323
11066TIP3   OH254688   0.676   2.185   5.072 -0.2373  0.4850  0.5182
11066TIP3    H154689   0.710   2.110   5.120  1.0664 -0.0727 -1.2133
11066TIP3    H254690   0.610   2.148   5.013 -1.2711  1.0449  1.3178
11067TIP3   OH254691   2.728   3.836  12.640  0.6396 -0.0135  0.7314
11067TIP3    H154692   2.728   3.799  12.729 -1.2066 -2.2960 -0.1448
11067TIP3    H254693   2.783   3.776  12.590 -0.6638 -0.3728 -0.2755
11068TIP3   OH254694   2.703   3.802   3.889 -0.3700 -0.4879 -0.2610
11068TIP3    H154695   2.743   3.836   3.970  0.0203  0.1066 -0.6989
11068TIP3    H254696   2.771   3.812   3.823 -1.1381  0.2593 -0.9458
11069TIP3   OH254697   2.060   4.794  16.730  0.2398 -0.3724 -0.5032
11069TIP3    H154698   1.975   4.820  16.696 -0.0815 -0.3227  0.3311
11069TIP3    H254699   2.077   4.708  16.691  0.5632  0.3457 -1.9650
11070TIP3   OH254700   1.328   5.200  15.775 -0.0243  0.0154 -0.1103
11070TIP3    H154701   1.394   5.186  15.707 -0.3174 -0.4992 -0.2977
11070TIP3    H254702   1.320   5.295  15.782 -0.3519  0.0810 -1.1584
11071TIP3   OH254703   5.893   5.219  15.495 -0.7080 -0.4021 -0.0450
11071TIP3    H154704   5.983   5.194  15.515 -0.9412  0.0034  1.5305
11071TIP3    H254705   5.849   5.223  15.580 -2.2654 -0.7748 -0.8028
11072TIP3   OH254706   1.232   2.695   5.400 -0.3708  0.0457  0.3196
11072TIP3    H154707   1.213   2.632   5.469 -1.2122  0.5089  0.5301
11072TIP3    H254708   1.318   2.731   5.422 -0.3862 -0.2203  0.8129
11073TIP3   OH254709   2.381   3.295  13.245 -0.7242  0.0909 -0.3097
11073TIP3    H154710   2.457   3.285  13.303 -1.4969  0.3245  0.7576
11073TIP3    H254711   2.416   3.281  13.157  0.8117  1.5184  0.0573
11074TIP3   OH254712   4.185   4.449   1.261 -0.2408  0.2232  0.0597
11074TIP3    H154713   4.234   4.465   1.342  0.8969 -0.8641 -0.4089
11074TIP3    H254714   4.096   4.478   1.282 -0.0085 -0.2200  1.7622
11075TIP3   OH254715   3.191   3.734  12.001  0.4552  0.3558  0.2061
11075TIP3    H154716   3.128   3.698  11.939  0.1676  2.6252 -0.8769
11075TIP3    H254717   3.224   3.658  12.049 -2.5122 -0.9827  0.2617
11076TIP3   OH254718   1.976   0.224  12.682 -0.3741 -0.6075  1.4538
11076TIP3    H154719   2.069   0.216  12.700 -0.4727 -0.5915  1.9929
11076TIP3    H254720   1.933   0.193  12.762 -0.8098  0.5645  1.6825
11077TIP3   OH254721   5.549   4.853   5.472  0.7490  0.4041 -0.5649
11077TIP3    H154722   5.591   4.858   5.385  0.2475 -2.3780 -1.0095
11077TIP3    H254723   5.457   4.870   5.454  0.6606 -0.0752 -0.5680
11078TIP3   OH254724   3.160   5.847   6.063 -0.6197 -0.4770 -0.5632
11078TIP3    H154725   3.238   5.873   6.112 -1.3647  2.8830 -0.9875
11078TIP3    H254726   3.182   5.863   5.971 -1.3966 -0.6025 -0.7815
11079TIP3   OH254727   3.731   2.041   4.437  0.5543 -0.0077 -0.6928
11079TIP3    H154728   3.710   2.069   4.526 -0.4308 -2.7922  0.0168
11079TIP3    H254729   3.646   2.033   4.393  0.8682 -0.7807 -1.1818
11080TIP3   OH254730   5.814   0.201  12.881  1.1098  0.5019 -0.1305
11080TIP3    H154731   5.745   0.214  12.816  1.0191 -1.9248 -0.5851
11080TIP3    H254732   5.783   0.246  12.959 -1.1907 -0.8504 -0.2263
11081TIP3   OH254733   3.798   0.367   4.923  0.3302  0.2205  0.1459
11081TIP3    H154734   3.736   0.305   4.962  0.0080 -0.3812 -1.2992
11081TIP3    H254735   3.833   0.415   4.998 -1.8773  0.5846  0.9808
11082TIP3   OH254736   6.444   0.367  14.854  0.1369 -0.3885 -0.1854
11082TIP3    H154737   6.418   0.387  14.764  1.7392  0.6481 -0.4364
11082TIP3    H254738   6.384   0.419  14.909 -0.2862 -0.3660 -0.6636
11083TIP3   OH254739   0.962   1.036  11.351 -0.0299 -0.6953 -0.2583
11083TIP3    H154740   1.000   0.962  11.303  0.4931  0.3355 -1.4500
11083TIP3    H254741   1.016   1.044  11.430  0.5400 -0.9489 -0.6212
11084TIP3   OH254742   5.129   2.010  12.125  0.1869 -0.2284  0.2081
11084TIP3    H154743   5.210   2.043  12.085 -0.1535 -1.5218 -1.5922
11084TIP3    H254744   5.062   2.073  12.101  0.4648  0.3286  0.8779
11085TIP3   OH254745   3.146   6.712  15.861  0.1861  0.4923  0.1550
11085TIP3    H154746   3.164   6.699  15.768  1.6331 -2.4172  0.7620
11085TIP3    H254747   3.055   6.686  15.872  1.1382 -3.2078  0.1490
11086TIP3   OH254748   2.149   1.208  13.584  0.2039 -0.0807  0.6465
11086TIP3    H154749   2.121   1.282  13.639 -0.2671  0.7690 -0.7125
11086TIP3    H254750   2.245   1.210  13.588  0.1838  0.2847  1.0217
11087TIP3   OH254751   5.927   1.574  17.100 -0.8464  0.1115 -0.2047
11087TIP3    H154752   6.010   1.535  17.128 -1.7059 -1.2863  0.4594
11087TIP3    H254753   5.946   1.667  17.092  0.5934 -0.0831  0.7083
11088TIP3   OH254754   1.469   3.510  16.598  0.1068  0.4085 -0.7678
11088TIP3    H154755   1.403   3.563  16.642 -0.1740 -1.1519  0.7263
11088TIP3    H254756   1.471   3.428  16.646  1.8961 -0.2412 -1.8733
11089TIP3   OH254757   3.396   6.497   4.811 -0.1519  0.1577  0.7560
11089TIP3    H154758   3.320   6.445   4.785 -1.3935  1.8203  0.9265
11089TIP3    H254759   3.455   6.492   4.736 -1.1711  0.1926 -0.0663
11090TIP3   OH254760   5.204   5.804  15.709  0.3808 -0.0696  0.1197
11090TIP3    H154761   5.249   5.838  15.632 -0.1964  0.3453 -0.0416
11090TIP3    H254762   5.262   5.737  15.744 -0.1378 -1.5061 -1.6730
11091TIP3   OH254763   1.238   1.579  14.635  0.5110  0.4507  0.2491
11091TIP3    H154764   1.170   1.640  14.665  1.5641  1.1973  1.1190
11091TIP3    H254765   1.215   1.496  14.676  0.4402  0.8310  0.9814
11092TIP3   OH254766   1.100   3.989  14.377 -0.1700  0.2352  0.0149
11092TIP3    H154767   1.142   3.949  14.453  1.3841  0.8154 -0.5177
11092TIP3    H254768   1.164   3.980  14.307 -1.1110  0.7777 -0.9204
11093TIP3   OH254769   6.386   0.936   4.330  0.0931 -0.2979  0.4697
11093TIP3    H154770   6.378   0.853   4.378 -0.2717  0.0355  0.9878
11093TIP3    H254771   6.350   1.001   4.389 -3.4536 -0.3075 -1.5702
11094TIP3   OH254772   6.317   6.465   5.340  0.4277 -0.3219  0.1704
11094TIP3    H154773   6.266   6.388   5.314  0.0453 -0.3973  1.1241
11094TIP3    H254774   6.345   6.446   5.430 -1.0998  1.3967  1.0298
11095TIP3   OH254775   6.728   6.159  10.698  0.0590  0.0721  0.4093
11095TIP3    H154776   6.817   6.179  10.728 -0.0347  1.3477 -0.1153
11095TIP3    H254777   6.689   6.244  10.681 -0.9383 -0.5172 -0.3117
11096TIP3   OH254778   2.827   4.507   2.119 -0.5171  0.1019 -0.4049
11096TIP3    H154779   2.792   4.567   2.053 -0.3519  0.4384 -0.1859
11096TIP3    H254780   2.903   4.467   2.076 -0.2835  0.4775 -0.3423
11097TIP3   OH254781   1.715   0.330   6.332 -0.1603  0.4938  0.3999
11097TIP3    H154782   1.672   0.289   6.408 -0.2343  1.0510  0.6646
11097TIP3    H254783   1.804   0.295   6.334 -0.7538 -1.1130 -0.4899
11098TIP3   OH254784   4.304   3.058  10.527 -0.4230 -0.8501 -0.5718
11098TIP3    H154785   4.229   3.103  10.566  0.4578 -0.0764  0.2517
11098TIP3    H254786   4.265   2.989  10.472 -1.7115 -1.3767  0.9612
11099TIP3   OH254787   0.555   3.484  15.679  0.6313 -0.7397  0.0701
11099TIP3    H154788   0.461   3.498  15.671  0.9534  1.2237 -0.7478
11099TIP3    H254789   0.569   3.393  15.654 -1.0089 -0.9680 -0.0599
11100TIP3   OH254790   2.144   3.615  10.628 -0.2985 -0.4748 -0.3933
11100TIP3    H154791   2.134   3.592  10.720 -1.3778  0.0637 -0.3698
11100TIP3    H254792   2.087   3.554  10.581 -0.3230 -0.2687 -0.6373
11101TIP3   OH254793   0.954   1.320   1.770 -0.0997 -0.2830  0.1875
11101TIP3    H154794   0.886   1.373   1.812  0.2330 -0.2518  0.6970
11101TIP3    H254795   0.906   1.259   1.715 -0.5491 -0.2960  0.5847
11102TIP3   OH254796   1.973   3.978   2.369 -0.0238  0.0724  0.1403
11102TIP3    H154797   1.936   3.894   2.397 -1.4548  1.3459  2.2308
11102TIP3    H254798   2.007   3.961   2.281 -0.9317 -2.4968  0.2297
11103TIP3   OH254799   3.920   2.937  14.588 -0.1734  0.0253  0.1841
11103TIP3    H154800   4.002   2.984  14.575  1.4797 -2.5549  0.9649
11103TIP3    H254801   3.885   2.926  14.499  0.1578  1.3509 -0.1342
11104TIP3   OH254802   5.851   1.914  15.488  0.0248  0.2935 -0.0834
11104TIP3    H154803   5.840   1.986  15.550  0.4376  0.7801 -0.5751
11104TIP3    H254804   5.831   1.953  15.403  1.0750  0.0308 -0.4509
11105TIP3   OH254805   1.402   0.764  11.525  0.0555 -0.2528  0.0739
11105TIP3    H154806   1.383   0.852  11.559  1.2888 -0.2607  0.8224
11105TIP3    H254807   1.488   0.772  11.485 -0.1147 -0.9744 -0.4502
11106TIP3   OH254808   3.916   5.586  11.503  0.5320 -0.5326 -0.4311
11106TIP3    H154809   3.989   5.574  11.563 -0.6953  0.4426  1.2821
11106TIP3    H254810   3.897   5.680  11.507  0.3658 -0.4583 -2.2766
11107TIP3   OH254811   3.648   5.613   4.402  0.4157 -0.3036 -0.2514
11107TIP3    H154812   3.708   5.686   4.387 -0.0489  0.6140  2.2327
11107TIP3    H254813   3.704   5.535   4.396  1.5421  0.4478  0.3641
11108TIP3   OH254814   1.677   1.754  13.695  0.4955 -0.9759  0.8162
11108TIP3    H154815   1.758   1.751  13.747  0.7868  0.8546  0.5096
11108TIP3    H254816   1.607   1.759  13.761  0.8309  0.7636  1.0580
11109TIP3   OH254817   5.466   6.436  16.941  0.3049 -0.3050 -0.2290
11109TIP3    H154818   5.538   6.412  16.882 -1.3729 -0.2150 -2.3663
11109TIP3    H254819   5.450   6.356  16.991  0.1644 -1.1443 -1.5819
11110TIP3   OH254820   2.938   6.139  16.846  0.6017  0.6081 -0.5583
11110TIP3    H154821   3.029   6.151  16.820  0.9499 -2.2807 -0.8936
11110TIP3    H254822   2.887   6.162  16.768  1.2351 -0.8159 -1.4139
11111TIP3   OH254823   0.866   1.645  12.773 -0.7782  0.3274  0.4494
11111TIP3    H154824   0.783   1.639  12.820 -0.2175 -0.5543  1.3629
11111TIP3    H254825   0.896   1.735  12.790 -1.9495  0.9327 -0.6144
11112TIP3   OH254826   0.790   4.141   5.910 -0.1588 -0.4820  0.2763
11112TIP3    H154827   0.771   4.158   6.003 -0.8462 -0.5459  0.1508
11112TIP3    H254828   0.763   4.049   5.898 -0.1756 -0.4369 -0.0121
11113TIP3   OH254829   6.204   1.389   1.368  0.2979  0.3612  0.2922
11113TIP3    H154830   6.233   1.449   1.300  0.4658  1.1604  1.0625
11113TIP3    H254831   6.283   1.367   1.417  0.2128 -0.3710  0.1040
11114TIP3   OH254832   3.159   1.325  13.697 -0.0920  0.0323  0.2526
11114TIP3    H154833   3.213   1.380  13.754 -1.0790  0.9364  0.3432
11114TIP3    H254834   3.216   1.301  13.625  0.3547  1.2206  0.2023
11115TIP3   OH254835   5.718   0.354   3.926  0.1948  0.3211  0.3194
11115TIP3    H154836   5.706   0.261   3.908 -0.6431  0.5444 -0.3203
11115TIP3    H254837   5.693   0.398   3.844 -0.0755  1.1430  0.8285
11116TIP3   OH254838   3.099   5.020  10.694  0.4112 -0.1778  0.5288
11116TIP3    H154839   3.022   5.056  10.651  1.7058 -0.5402 -2.2264
11116TIP3    H254840   3.149   5.097  10.723  1.5469  0.2559 -2.3903
11117TIP3   OH254841   3.574   4.698  12.173  0.1964  0.6488 -0.4829
11117TIP3    H154842   3.485   4.682  12.206  0.0144  1.8472 -0.3679
11117TIP3    H254843   3.626   4.627  12.210 -0.7052 -0.0519 -0.5182
11118TIP3   OH254844   4.299   5.966   1.475 -0.1673  0.0415 -0.0563
11118TIP3    H154845   4.295   6.018   1.395 -0.0592 -0.4722 -0.3996
11118TIP3    H254846   4.282   6.029   1.545  0.9670  0.7365 -0.3867
11119TIP3   OH254847   4.919   5.625  15.769 -0.3240  0.1329 -0.3507
11119TIP3    H154848   4.835   5.603  15.808 -1.0075  3.1104  0.0234
11119TIP3    H254849   4.981   5.621  15.841 -0.8597  1.6503  0.2200
11120TIP3   OH254850   4.194   1.615  13.961  0.0584  0.0166  0.9634
11120TIP3    H154851   4.194   1.631  14.055  0.1519 -1.4819  1.2250
11120TIP3    H254852   4.268   1.556  13.946 -0.7598 -0.8138  0.1371
11121TIP3   OH254853   5.618   4.605  12.833 -0.0415 -0.4417 -0.3487
11121TIP3    H154854   5.536   4.649  12.815 -0.8405 -2.1552 -1.0247
11121TIP3    H254855   5.612   4.580  12.926  0.2621  0.5492 -0.0613
11122TIP3   OH254856   2.872   3.834  10.934 -0.3206 -0.0491  0.2407
11122TIP3    H154857   2.884   3.859  10.842 -2.1647 -1.9706 -0.5847
11122TIP3    H254858   2.961   3.828  10.969  0.5896 -2.1852 -2.2611
11123TIP3   OH254859   0.174   4.173   2.161 -0.1462  0.1554  0.3778
11123TIP3    H154860   0.220   4.190   2.243 -1.8386  0.3523  1.3036
11123TIP3    H254861   0.182   4.079   2.148 -0.0989  0.0850  0.9021
11124TIP3   OH254862   2.529   4.411   1.208  0.1601  0.7186 -0.4605
11124TIP3    H154863   2.484   4.485   1.167  1.0361  0.9028 -1.1094
11124TIP3    H254864   2.541   4.437   1.299 -1.7530  0.3334 -0.0808
11125TIP3   OH254865   4.083   3.169  15.577 -0.4741 -0.1651 -0.2889
11125TIP3    H154866   4.061   3.139  15.489 -0.5919 -0.2955 -0.2132
11125TIP3    H254867   4.030   3.115  15.635 -0.1858 -0.2719 -0.1231
11126TIP3   OH254868   4.136   1.491   2.002  0.0786 -0.0619  0.2776
11126TIP3    H154869   4.226   1.479   1.971  0.0780  0.2918  0.1402
11126TIP3    H254870   4.084   1.496   1.921  0.2028  1.8995  0.3046
11127TIP3   OH254871   2.088   3.013  14.028  0.4580  0.9156 -0.4311
11127TIP3    H154872   2.097   2.981  14.118 -0.4737 -1.0601 -1.0179
11127TIP3    H254873   2.018   3.078  14.032  0.5569  0.9719  0.3178
11128TIP3   OH254874   5.475   6.185  10.889 -0.4225  0.3798 -0.4307
11128TIP3    H154875   5.441   6.274  10.890 -1.5384  0.0036 -2.3982
11128TIP3    H254876   5.567   6.195  10.867 -0.5344  1.0486 -0.6019
11129TIP3   OH254877   6.759   2.464  13.579 -0.6319 -0.0672  0.5928
11129TIP3    H154878   6.739   2.389  13.524 -1.0353 -0.4020  1.1806
11129TIP3    H254879   6.822   2.515  13.529 -2.0033  0.3462 -0.7642
11130TIP3   OH254880   3.886   1.903  14.007  0.1206 -0.5423 -0.2799
11130TIP3    H154881   3.872   1.959  14.083  0.7026 -1.7388  0.7254
11130TIP3    H254882   3.853   1.817  14.034  0.9521 -1.1404 -1.1460
11131TIP3   OH254883   5.980   0.904   1.877 -0.4633  0.2653 -0.0387
11131TIP3    H154884   5.942   0.873   1.960  1.6618  0.6372  1.1156
11131TIP3    H254885   5.957   0.996   1.873 -1.0373  0.1157 -0.1110
11132TIP3   OH254886   5.431   3.498  16.562 -0.0382 -0.0509 -0.7114
11132TIP3    H154887   5.412   3.428  16.500 -1.6505  0.1267 -0.4494
11132TIP3    H254888   5.356   3.498  16.622  0.7645  0.7690  0.3176
11133TIP3   OH254889   3.067   2.568  13.778  0.2738 -0.2079 -0.6153
11133TIP3    H154890   3.100   2.496  13.724 -0.3342 -0.9122 -0.0584
11133TIP3    H254891   2.976   2.545  13.796  0.7817 -0.5918  1.6747
11134TIP3   OH254892   5.989   0.568   5.034 -0.4997 -0.7729 -0.0211
11134TIP3    H154893   5.986   0.550   5.128 -0.3261 -1.3141 -0.1130
11134TIP3    H254894   6.055   0.637   5.024  0.8668 -2.0309  0.0701
11135TIP3   OH254895   2.429   4.590  15.618  0.1974  0.0645  0.3862
11135TIP3    H154896   2.336   4.574  15.603 -0.0932  1.4877  0.5950
11135TIP3    H254897   2.472   4.507  15.596 -1.0133 -0.2968 -0.6532
11136TIP3   OH254898   3.395   5.307   0.831  0.2773 -0.0891  0.7271
11136TIP3    H154899   3.429   5.219   0.845 -0.5465 -0.5051  0.1270
11136TIP3    H254900   3.321   5.314   0.891  1.3381  0.7818  1.9665
11137TIP3   OH254901   6.463   3.720  14.391 -0.3060  0.3992  0.3971
11137TIP3    H154902   6.436   3.812  14.395 -1.1568  0.1693 -0.1312
11137TIP3    H254903   6.391   3.675  14.349  0.7716 -0.2696 -0.7714
11138TIP3   OH254904   1.321   6.402   2.042 -0.3304  0.1778  0.0676
11138TIP3    H154905   1.292   6.492   2.034 -0.0822  0.1967 -0.7273
11138TIP3    H254906   1.415   6.408   2.054 -0.4270  0.0527  0.9394
11139TIP3   OH254907   2.979   1.437   0.072 -0.5750  0.3966 -0.2806
11139TIP3    H154908   2.930   1.434  -0.010  0.7629  0.2457 -1.0989
11139TIP3    H254909   2.943   1.365   0.124  0.1286 -1.0070 -1.6660
11140TIP3   OH254910   3.229   2.477  12.716  0.4027 -0.0696 -0.0037
11140TIP3    H154911   3.287   2.414  12.760  0.3202  0.2562  0.5755
11140TIP3    H254912   3.273   2.494  12.632 -0.5785 -2.4099 -1.0456
11141TIP3   OH254913   6.393   5.238  11.494 -0.6969 -0.6901  0.8700
11141TIP3    H154914   6.379   5.205  11.583 -0.5743 -1.8796  0.4453
11141TIP3    H254915   6.459   5.179  11.456  0.4602  0.7685  0.5326
11142TIP3   OH254916   5.820   0.084  15.205  0.1550  0.2348 -0.2522
11142TIP3    H154917   5.792   0.174  15.220  0.9004  0.5363 -0.6428
11142TIP3    H254918   5.830   0.078  15.110  1.6599  0.2159 -0.1122
11143TIP3   OH254919   6.519   5.186   4.255  0.4858  0.1652 -0.2113
11143TIP3    H154920   6.438   5.200   4.207  1.0619  1.6246 -0.8127
11143TIP3    H254921   6.586   5.229   4.201  1.5787 -0.6084  0.5050
11144TIP3   OH254922   6.727   0.011  14.346 -0.4888  0.7226 -0.0861
11144TIP3    H154923   6.706   0.091  14.297 -1.0429  0.8880  0.4061
11144TIP3    H254924   6.821   0.001  14.337 -0.2897  1.9189  0.5594
11145TIP3   OH254925   0.503   3.818   3.473 -0.2561 -0.3634 -0.0998
11145TIP3    H154926   0.487   3.805   3.566 -1.9971 -0.8662 -0.4434
11145TIP3    H254927   0.497   3.731   3.435 -1.1882  0.0378 -0.9005
11146TIP3   OH254928   4.903   0.204   1.647  0.3916 -0.4492 -0.8115
11146TIP3    H154929   4.874   0.114   1.662  0.7172 -0.6851 -1.5451
11146TIP3    H254930   4.925   0.237   1.734 -1.5907 -0.4131 -0.3014
11147TIP3   OH254931   4.528   5.172  14.249  0.2726  0.2663 -0.6538
11147TIP3    H154932   4.618   5.195  14.272  0.7938 -1.3170 -1.0723
11147TIP3    H254933   4.475   5.212  14.318  1.2799  1.3280 -0.4864
11148TIP3   OH254934   5.975   0.342   1.845 -0.5620  0.4626  0.2886
11148TIP3    H154935   6.022   0.314   1.924 -2.4856 -2.3895  0.5313
11148TIP3    H254936   6.040   0.338   1.775  0.0951 -1.4231  0.9599
11149TIP3   OH254937   1.392   1.283   0.096 -0.2110  0.1603  0.1057
11149TIP3    H154938   1.304   1.306   0.067 -0.6313 -1.3994  0.0612
11149TIP3    H254939   1.422   1.217   0.033  0.6295  0.0222  0.6347
11150TIP3   OH254940   6.253   2.383  15.573 -0.6390 -0.0873  0.3003
11150TIP3    H154941   6.233   2.313  15.636  0.8524  0.2074  1.1299
11150TIP3    H254942   6.242   2.464  15.622  0.0781  0.1680  0.0419
11151TIP3   OH254943   0.013   6.734   5.897  0.0125 -0.3714 -0.0287
11151TIP3    H154944   0.069   6.783   5.838  1.3494 -0.5940  1.0247
11151TIP3    H254945  -0.002   6.651   5.852  0.8209 -0.4437 -0.1796
11152TIP3   OH254946   5.917   3.297  16.687  0.2648  0.4637  0.1996
11152TIP3    H154947   5.989   3.279  16.747 -0.4374  1.5882  1.4019
11152TIP3    H254948   5.839   3.297  16.743 -0.4960  0.6787 -0.8586
11153TIP3   OH254949   1.283   5.477  11.656 -0.0705  0.0062  0.2871
11153TIP3    H154950   1.368   5.515  11.635 -0.1829  0.0905 -0.0192
11153TIP3    H254951   1.220   5.530  11.607 -0.3101  0.0059  0.5874
11154TIP3   OH254952   3.790   3.133   2.547 -0.1900  0.0816  0.3002
11154TIP3    H154953   3.830   3.091   2.471 -2.5183 -0.7633 -0.5043
11154TIP3    H254954   3.864   3.164   2.599  1.5012 -1.6782 -0.9888
11155TIP3   OH254955   5.389   1.263   1.160 -0.1669 -0.0980 -0.4962
11155TIP3    H154956   5.428   1.336   1.208 -1.5911 -0.3080  0.9980
11155TIP3    H254957   5.371   1.298   1.073 -1.1332  1.4170  0.3054
11156TIP3   OH254958   2.125   4.137  16.472 -0.7723  0.2948 -0.2626
11156TIP3    H154959   2.053   4.134  16.409  1.1072 -0.1510 -2.4692
11156TIP3    H254960   2.188   4.198  16.433  0.6851 -0.4364  0.8984
11157TIP3   OH254961   3.901   4.511  11.435 -0.2896 -0.3234  0.1739
11157TIP3    H154962   3.822   4.461  11.456 -1.0810  0.9030  0.1796
11157TIP3    H254963   3.869   4.598  11.413  1.1393  0.4558  1.0853
11158TIP3   OH254964   2.474   6.583   2.597  0.0963 -0.1978  0.5304
11158TIP3    H154965   2.511   6.514   2.653 -0.8905 -2.0697 -1.0556
11158TIP3    H254966   2.495   6.556   2.508 -0.5179  1.4448 -0.1349
11159TIP3   OH254967   1.826   4.250  15.768  0.0839  0.3870 -0.8065
11159TIP3    H154968   1.786   4.325  15.722  3.0554  0.9575 -2.5483
11159TIP3    H254969   1.835   4.183  15.701 -1.0646 -0.9878  0.3886
11160TIP3   OH254970   6.184   0.769   0.251 -0.1774 -0.3386 -0.0122
11160TIP3    H154971   6.267   0.814   0.266 -0.0283 -0.8520  0.7489
11160TIP3    H254972   6.133   0.784   0.330 -0.8455  0.0335 -0.5057
11161TIP3   OH254973   5.468   5.968   6.071 -0.4251 -0.4090  0.2971
11161TIP3    H154974   5.494   5.919   6.149 -0.2550 -1.0445 -0.1555
11161TIP3    H254975   5.373   5.967   6.072 -0.4208 -1.0569  0.0959
11162TIP3   OH254976   5.650   2.513  14.297  0.5513 -0.4545 -0.2832
11162TIP3    H154977   5.639   2.419  14.279  1.7174 -0.5442 -0.5069
11162TIP3    H254978   5.585   2.556  14.242  0.3986 -1.0932 -0.6042
11163TIP3   OH254979   0.427   5.237  13.982  0.2554  0.1610  0.0748
11163TIP3    H154980   0.388   5.178  14.046  0.7493  1.8420  1.9998
11163TIP3    H254981   0.498   5.186  13.942 -0.3471 -1.0571  0.5385
11164TIP3   OH254982   6.188   4.703   0.263  0.3573 -0.1553  0.1656
11164TIP3    H154983   6.207   4.797   0.261 -0.2866  0.0153  1.5143
11164TIP3    H254984   6.228   4.672   0.344  0.7905 -1.1009 -0.4054
11165TIP3   OH254985   0.372   0.331  11.801 -0.2681 -0.0896  0.2088
11165TIP3    H154986   0.398   0.302  11.889 -0.6714 -0.1424  0.3075
11165TIP3    H254987   0.342   0.421  11.814 -0.0003  0.0213  0.0671
11166TIP3   OH254988   4.577   2.663   1.833 -0.0795  0.4784 -0.7612
11166TIP3    H154989   4.499   2.613   1.858 -0.1753  2.3118  2.9534
11166TIP3    H254990   4.650   2.603   1.847 -0.3690  0.6237  1.5287
11167TIP3   OH254991   6.287   0.857  16.706  0.0880  0.4407  0.0126
11167TIP3    H154992   6.258   0.789  16.767 -1.3990  0.1768 -0.9625
11167TIP3    H254993   6.364   0.820  16.663  0.0613 -0.1004  0.4280
11168TIP3   OH254994   6.641   4.124   2.115 -0.2019 -0.2564 -0.0584
11168TIP3    H154995   6.565   4.134   2.058 -1.1169 -1.6290  0.8849
11168TIP3    H254996   6.604   4.106   2.201  1.2035 -1.3258  0.3386
11169TIP3   OH254997   5.693   3.149   1.055 -0.3511 -0.7944  0.4850
11169TIP3    H154998   5.672   3.148   1.149 -1.4647 -0.6321  0.2389
11169TIP3    H254999   5.615   3.183   1.013  0.9222  1.2229 -0.3399
11170TIP3   OH255000   0.743   4.458  14.932  0.4399  0.2105  0.2183
11170TIP3    H155001   0.738   4.473  14.838  2.5604  0.6537  0.1669
11170TIP3    H255002   0.742   4.363  14.942  0.6614  0.1630 -0.2570
11171TIP3   OH255003   3.021   5.244  16.147 -0.0143 -0.4809 -0.6945
11171TIP3    H155004   3.014   5.157  16.107 -0.7010 -0.0349 -1.5603
11171TIP3    H255005   3.013   5.304  16.074  2.9510  0.2814 -0.4318
11172TIP3   OH255006   6.012   5.430  15.180 -0.5362  0.2949 -0.5075
11172TIP3    H155007   6.081   5.397  15.237 -2.5548  0.9883  2.4503
11172TIP3    H255008   6.049   5.508  15.140  1.1872 -0.6425 -0.8059
11173TIP3   OH255009   6.645   5.573   1.519  0.1150  0.4009  0.3318
11173TIP3    H155010   6.648   5.510   1.447  0.6008  0.0087  0.6960
11173TIP3    H255011   6.678   5.525   1.595  1.9474  1.5333  0.2740
11174TIP3   OH255012   0.549   3.480  11.389 -0.2812 -0.1456 -0.1045
11174TIP3    H155013   0.643   3.466  11.395 -0.1783  0.1709 -0.9140
11174TIP3    H255014   0.528   3.463  11.298 -0.4000  3.3853 -0.8292
11175TIP3   OH255015   1.366   5.131   5.449 -0.6173 -0.4887  0.0228
11175TIP3    H155016   1.319   5.213   5.466 -0.2573 -0.5654  1.4413
11175TIP3    H255017   1.454   5.159   5.427 -0.0356 -0.5473  2.1767
11176TIP3   OH255018   2.941   1.414   4.267  0.3472  0.4991  0.5440
11176TIP3    H155019   3.011   1.470   4.300 -0.4788 -0.2326  3.6928
11176TIP3    H255020   2.950   1.332   4.315 -2.5316  0.3027  0.8683
11177TIP3   OH255021   0.151   2.640  13.424  0.0238 -0.4630 -0.7819
11177TIP3    H155022   0.206   2.621  13.500 -1.7177  1.3926  1.0032
11177TIP3    H255023   0.196   2.712  13.379 -0.0577 -0.0944 -0.2777
11178TIP3   OH255024   5.691   6.245  11.300 -0.0837 -0.1205  0.5347
11178TIP3    H155025   5.671   6.169  11.245 -1.2874  0.5821 -0.0137
11178TIP3    H255026   5.624   6.242  11.369 -0.9900  1.2167 -0.2715
11179TIP3   OH255027   0.732   1.461   3.712  0.1505  0.2266 -0.0436
11179TIP3    H155028   0.647   1.481   3.673  0.4610  1.3100 -0.1890
11179TIP3    H255029   0.752   1.538   3.765  0.1065 -0.8866  1.6188
11180TIP3   OH255030   3.579   3.734  12.999  0.1205  0.7399  0.0300
11180TIP3    H155031   3.559   3.761  12.910  1.8902 -3.1501 -1.6561
11180TIP3    H255032   3.668   3.766  13.014  0.6942 -0.6110 -0.4706
11181TIP3   OH255033   4.592   0.205  16.689 -0.0694 -0.6651 -0.4143
11181TIP3    H155034   4.622   0.272  16.627 -0.0484 -0.2030  0.0975
11181TIP3    H255035   4.544   0.143  16.634 -1.2323  0.4542 -0.7200
11182TIP3   OH255036   4.096   4.353  12.559 -0.1779 -0.0148  0.5977
11182TIP3    H155037   4.100   4.306  12.643  0.6382  0.2506  0.7093
11182TIP3    H255038   4.076   4.285  12.495 -0.6570 -0.2433  0.9832
11183TIP3   OH255039   3.665   2.018  12.648 -0.1305 -0.4405  0.3501
11183TIP3    H155040   3.590   1.980  12.604  0.7380 -3.0930  1.0737
11183TIP3    H255041   3.679   1.962  12.724  2.0925  0.4672  0.6489
11184TIP3   OH255042   4.454   3.234   0.659 -0.1625 -0.7602 -0.2197
11184TIP3    H155043   4.450   3.188   0.743  0.8030  0.5695  0.5868
11184TIP3    H255044   4.505   3.177   0.602  0.3298 -1.0654  0.5221
11185TIP3   OH255045   6.055   0.500   0.763 -0.4626 -0.2988  0.4074
11185TIP3    H155046   6.033   0.411   0.737 -1.2737 -0.1336  0.5205
11185TIP3    H255047   6.119   0.529   0.698  1.1844 -1.5963  1.4166
11186TIP3   OH255048   0.637   1.226   0.844  0.3804  0.1319  0.0995
11186TIP3    H155049   0.669   1.145   0.885 -1.5356 -1.4874 -1.5161
11186TIP3    H255050   0.585   1.268   0.912 -1.3713 -1.6921 -0.0611
11187TIP3   OH255051   4.216   0.823  17.150  0.0714 -0.1190 -0.4437
11187TIP3    H155052   4.299   0.777  17.153  0.1546  0.0851  0.7078
11187TIP3    H255053   4.151   0.754  17.135  0.3588 -0.3891 -0.4591
11188TIP3   OH255054   4.448   6.240   4.906 -0.3225  0.2637 -0.0780
11188TIP3    H155055   4.381   6.304   4.884  0.0274  0.3403 -0.9956
11188TIP3    H255056   4.476   6.262   4.995  0.2939  1.8462 -0.6427
11189TIP3   OH255057   4.533   3.764  12.887 -0.2224  0.6134 -0.0435
11189TIP3    H155058   4.570   3.852  12.875 -0.4530  0.8637  1.0301
11189TIP3    H255059   4.438   3.779  12.892 -0.4561  0.0360 -2.2105
11190TIP3   OH255060   2.260   1.085  11.508  0.2700 -0.3325  0.5673
11190TIP3    H155061   2.272   1.012  11.447 -1.4793 -0.3278  0.1807
11190TIP3    H255062   2.215   1.152  11.457 -0.5342 -0.0314  1.6483
11191TIP3   OH255063   3.309   3.821   4.339 -0.0605 -0.6349  0.2812
11191TIP3    H155064   3.355   3.870   4.407 -0.9688 -1.2694  1.3750
11191TIP3    H255065   3.351   3.734   4.340 -1.5802 -1.3811  1.6359
11192TIP3   OH255066   0.266   4.135   0.894 -0.0681 -0.4803  0.4664
11192TIP3    H155067   0.173   4.121   0.909 -0.6850  2.7851  0.1528
11192TIP3    H255068   0.275   4.146   0.799  0.3746  0.8045  0.6468
11193TIP3   OH255069   5.006   4.327   6.088 -0.2891 -0.2893  0.7758
11193TIP3    H155070   5.052   4.405   6.057 -2.1741  0.6580  0.3626
11193TIP3    H255071   4.920   4.331   6.047  0.3909 -3.8280 -1.1841
11194TIP3   OH255072   5.329   4.243  15.846 -0.1507  0.0754  0.3949
11194TIP3    H155073   5.304   4.230  15.937  1.9181 -1.3846  0.8152
11194TIP3    H255074   5.418   4.207  15.841  0.2412  1.2942 -1.9045
11195TIP3   OH255075   0.693   5.650   0.031  0.0646  0.7462 -0.0908
11195TIP3    H155076   0.610   5.614   0.061  0.2901 -0.9922 -1.4681
11195TIP3    H255077   0.674   5.740   0.007 -1.2858  0.5319  0.1727
11196TIP3   OH255078   3.128   1.008  12.823 -0.2714 -0.0787  0.0201
11196TIP3    H155079   3.060   1.072  12.845  0.3632  0.6929 -0.2515
11196TIP3    H255080   3.138   0.955  12.902  0.1237  0.9955  0.7064
11197TIP3   OH255081   3.317   5.591  13.780  0.0338  0.8515 -0.2201
11197TIP3    H155082   3.255   5.616  13.712 -1.6246  1.1494  1.3836
11197TIP3    H255083   3.400   5.631  13.752 -0.3099 -0.0297 -2.6635
11198TIP3   OH255084   5.451   0.997  12.636  0.2336 -0.0849 -0.8930
11198TIP3    H155085   5.476   1.089  12.645  2.8694 -0.8342  0.0327
11198TIP3    H255086   5.392   0.981  12.710  1.5635  0.3110  0.2821
11199TIP3   OH255087   3.229   2.365   4.430 -0.5756  0.2915 -0.2238
11199TIP3    H155088   3.316   2.337   4.457 -0.5182  0.6629 -0.0217
11199TIP3    H255089   3.184   2.284   4.407 -1.3626 -0.3427  3.2031
11200TIP3   OH255090   6.051   6.133   5.697  0.0737 -0.1685 -0.3338
11200TIP3    H155091   6.139   6.097   5.707  0.5236  1.3068  1.1829
11200TIP3    H255092   6.031   6.173   5.782 -1.4451  0.8518 -1.1459
11201TIP3   OH255093   1.433   3.800  12.265 -0.3465 -0.3047  0.7096
11201TIP3    H155094   1.416   3.893  12.272 -1.4446 -0.6112  2.3731
11201TIP3    H255095   1.481   3.778  12.345 -1.9446 -1.5443  1.3536
11202TIP3   OH255096   4.506   4.712  10.699  0.5205  0.2870 -0.4525
11202TIP3    H155097   4.460   4.651  10.642  0.2229 -0.9174  1.0379
11202TIP3    H255098   4.438   4.747  10.757  1.1250  0.0052  0.4444
11203TIP3   OH255099   2.382   3.923   6.530 -0.1448  0.0741 -0.0214
11203TIP3    H155100   2.376   3.967   6.445 -0.2166  1.3645  0.6431
11203TIP3    H255101   2.346   3.836   6.515 -0.1396  0.2878 -1.3180
11204TIP3   OH255102   0.599   1.773   0.239 -0.3303 -0.4918  0.4736
11204TIP3    H155103   0.542   1.738   0.170  1.4451 -0.3209 -1.1306
11204TIP3    H255104   0.665   1.705   0.251  0.2837  0.1816  0.8874
11205TIP3   OH255105   4.752   5.691  14.046 -0.5372  0.4159  0.3326
11205TIP3    H155106   4.750   5.600  14.074 -0.0981  0.7662  1.5538
11205TIP3    H255107   4.666   5.707  14.007 -1.0041 -0.2118  1.0977
11206TIP3   OH255108   6.221   4.918  13.095  0.1735 -0.4343  0.0812
11206TIP3    H155109   6.270   4.962  13.164  1.3901  0.0838 -1.0899
11206TIP3    H255110   6.131   4.914  13.127  0.5315  0.7287  1.2318
11207TIP3   OH255111   3.158   0.434   3.962 -0.2389 -0.2845  0.4430
11207TIP3    H155112   3.174   0.342   3.984  0.2104 -0.9641 -2.4702
11207TIP3    H255113   3.063   0.443   3.965 -0.4256 -1.3911 -1.0511
11208TIP3   OH255114   1.759   6.407   4.641 -0.1775  1.0837  0.4357
11208TIP3    H155115   1.721   6.375   4.560 -0.2777  0.5925  0.6748
11208TIP3    H255116   1.851   6.425   4.619  0.0015  0.1699  0.4231
11209TIP3   OH255117   6.646   6.345  15.853 -0.0519 -0.4046 -0.1041
11209TIP3    H155118   6.739   6.332  15.872 -0.2501  0.8009  1.8471
11209TIP3    H255119   6.624   6.276  15.791  3.0822  1.6347 -3.7300
11210TIP3   OH255120   1.103   1.571  17.140 -0.1278 -0.5880 -0.1379
11210TIP3    H155121   1.071   1.651  17.182 -0.7745 -0.9793  0.1169
11210TIP3    H255122   1.105   1.593  17.047  0.3447 -0.0491 -0.0026
11211TIP3   OH255123   5.936   6.572   1.225  0.0673 -0.2972 -0.1217
11211TIP3    H155124   5.974   6.539   1.306  0.5077 -0.2744 -0.3198
11211TIP3    H255125   5.877   6.502   1.196  0.5922 -0.6811 -0.2556
11212TIP3   OH255126   1.639   3.398   4.194 -0.3615 -0.4023  0.2964
11212TIP3    H155127   1.722   3.386   4.240 -0.5974  1.8924  1.4169
11212TIP3    H255128   1.614   3.311   4.166  0.6291 -1.6495  3.1178
11213TIP3   OH255129   6.032   6.571  17.097 -0.4212 -0.1326 -0.6621
11213TIP3    H155130   6.097   6.516  17.053  0.2400  1.6074 -1.9158
11213TIP3    H255131   6.072   6.658  17.099 -2.6149  0.9321 -1.2991
11214TIP3   OH255132   1.390   0.582  16.422 -0.1176 -0.1152 -0.0465
11214TIP3    H155133   1.458   0.604  16.358 -0.2734 -1.0820 -0.5597
11214TIP3    H255134   1.435   0.584  16.506 -0.1890  2.3823 -0.0260
11215TIP3   OH255135   6.603   0.591  16.870  0.0334 -0.4148  0.0127
11215TIP3    H155136   6.599   0.626  16.960 -0.7095 -1.6744  0.4780
11215TIP3    H255137   6.641   0.504  16.880 -0.0214 -0.5478 -0.9068
11216TIP3   OH255138   0.866   5.932   2.036  0.7203 -0.0461  0.7432
11216TIP3    H155139   0.890   5.908   1.946  0.5954 -1.8065  1.1610
11216TIP3    H255140   0.773   5.955   2.031  0.7839  0.1428  0.3782
11217TIP3   OH255141   2.224   2.781   5.661  0.0163 -0.0050 -0.0798
11217TIP3    H155142   2.314   2.756   5.638  0.3545  0.4565  0.7077
11217TIP3    H255143   2.223   2.781   5.757 -0.2710  1.9222 -0.0678
11218TIP3   OH255144   6.579   6.145  12.670  0.3346 -0.3678 -0.0461
11218TIP3    H155145   6.629   6.106  12.742  0.5979 -0.4801 -0.2897
11218TIP3    H255146   6.592   6.085  12.597  1.2180  0.4898 -0.5920
11219TIP3   OH255147   1.415   3.493  16.336 -0.6166 -1.1210 -0.3175
11219TIP3    H155148   1.505   3.493  16.303 -1.1739  0.3077 -1.9189
11219TIP3    H255149   1.424   3.513  16.429  0.7552 -1.5057 -0.3509
11220TIP3   OH255150   0.795   5.156  15.770  0.6911  0.2176 -0.3310
11220TIP3    H155151   0.890   5.149  15.765  0.6567  1.3666 -3.4809
11220TIP3    H255152   0.779   5.249  15.786  0.1002 -0.1080  1.0214
11221TIP3   OH255153   2.169   6.663  14.537 -0.3433  0.5924  0.1649
11221TIP3    H155154   2.152   6.619  14.454 -1.8218 -1.0232  1.3034
11221TIP3    H255155   2.083   6.681  14.574  0.2995  1.0209  1.5116
11222TIP3   OH255156   3.837   2.767  15.139 -0.4349  0.2237  0.9939
11222TIP3    H155157   3.814   2.853  15.106  0.3533 -0.9679 -2.8607
11222TIP3    H255158   3.761   2.740  15.190 -2.2116  1.6933 -0.8025
11223TIP3   OH255159   5.369   4.687  15.076  0.2978  0.9764 -0.2172
11223TIP3    H155160   5.287   4.660  15.119 -0.5026  3.1432 -0.3496
11223TIP3    H255161   5.392   4.611  15.021 -0.8205 -0.2324  0.9303
11224TIP3   OH255162   3.861   2.941   1.793 -0.3603 -0.1351  0.4058
11224TIP3    H155163   3.786   2.917   1.847 -0.5056 -1.7679 -0.5054
11224TIP3    H255164   3.918   2.865   1.795 -0.2014 -0.0987 -1.4602
11225TIP3   OH255165   1.273   0.026  13.511  0.4751 -0.4930  0.3342
11225TIP3    H155166   1.286  -0.023  13.430 -0.2924  1.0121 -0.7157
11225TIP3    H255167   1.184   0.004  13.538  1.4701 -2.7118  1.9857
11226TIP3   OH255168   2.742   4.237  11.837  0.1529  0.5441  0.5546
11226TIP3    H155169   2.774   4.154  11.800  1.5495  1.5558 -0.5705
11226TIP3    H255170   2.652   4.218  11.863 -0.6259 -0.5225 -2.5832
11227TIP3   OH255171   3.827   2.396   4.763  0.0865 -0.2553 -0.6167
11227TIP3    H155172   3.922   2.399   4.776  0.2892 -1.4320 -1.6960
11227TIP3    H255173   3.808   2.474   4.710  0.7834 -1.2046 -2.2959
11228TIP3   OH255174   0.759   5.103  12.137 -0.0599  0.0148  0.0727
11228TIP3    H155175   0.712   5.041  12.194  0.0940  0.4186  0.6485
11228TIP3    H255176   0.700   5.116  12.063 -0.1372 -0.7427 -0.0083
11229TIP3   OH255177   4.454   5.529   4.125 -0.9993 -0.3011 -0.1472
11229TIP3    H155178   4.381   5.534   4.187 -0.9656 -1.0548 -0.0419
11229TIP3    H255179   4.412   5.537   4.039 -1.4954 -3.1720 -0.2016
11230TIP3   OH255180   5.336   1.645  16.154 -0.0111 -0.5011  0.4038
11230TIP3    H155181   5.369   1.721  16.106 -1.8846  1.0208  1.5018
11230TIP3    H255182   5.242   1.645  16.138 -0.1784 -1.9549  1.3360
11231TIP3   OH255183   4.642   3.532  16.494 -0.1948  0.4881  0.4162
11231TIP3    H155184   4.553   3.503  16.474  0.2831  0.5963 -2.0241
11231TIP3    H255185   4.676   3.466  16.554 -1.1799 -0.7266 -0.3538
11232TIP3   OH255186   2.242   5.287  16.239 -0.0372  0.2389 -0.2943
11232TIP3    H155187   2.329   5.248  16.230 -0.2543 -0.3552  0.1078
11232TIP3    H255188   2.211   5.298  16.149  0.6395  0.8883 -0.4521
11233TIP3   OH255189   1.817   5.079  13.657  0.1306  0.1337 -0.4045
11233TIP3    H155190   1.882   5.020  13.618 -1.2152 -0.9150 -1.1421
11233TIP3    H255191   1.736   5.058  13.610 -1.1904 -0.0172  1.8714
11234TIP3   OH255192   6.257   3.832  14.902 -0.4296  0.0604 -0.1585
11234TIP3    H155193   6.282   3.836  14.810 -1.5264 -3.4697 -0.7141
11234TIP3    H255194   6.336   3.801  14.947 -0.7888 -1.3286 -0.4382
11235TIP3   OH255195   4.968   4.914   0.638 -0.3814 -0.2685 -0.1599
11235TIP3    H155196   5.040   4.969   0.669  0.4325 -0.5534 -1.4727
11235TIP3    H255197   4.890   4.968   0.651  0.3799  1.1714 -1.2776
11236TIP3   OH255198   6.644   6.692  13.799 -0.2278  0.4137  0.5242
11236TIP3    H155199   6.644   6.649  13.714 -0.4523  2.1679 -0.3940
11236TIP3    H255200   6.735   6.718  13.813 -0.2538  0.4362  0.6491
11237TIP3   OH255201   4.114   6.652   5.135 -0.3249 -0.4936 -0.4588
11237TIP3    H155202   4.159   6.734   5.158 -1.0914 -0.2149  0.0859
11237TIP3    H255203   4.182   6.596   5.098  0.6560 -0.4304  1.2363
11238TIP3   OH255204   0.207   5.929   0.943 -0.3800 -0.0024 -0.1496
11238TIP3    H155205   0.124   5.964   0.910  1.2553  3.8982 -0.3417
11238TIP3    H255206   0.260   5.915   0.864 -0.6070 -1.9899  0.0134
11239TIP3   OH255207   1.165   2.505   5.599  0.2756  0.0957 -0.3188
11239TIP3    H155208   1.138   2.523   5.689 -0.3730 -1.5123 -0.1862
11239TIP3    H255209   1.234   2.439   5.607  1.8319  1.5941 -0.8800
11240TIP3   OH255210   2.464   2.349   1.259  0.0513 -0.1113  0.0650
11240TIP3    H155211   2.447   2.385   1.346  0.6947 -0.1260  0.1984
11240TIP3    H255212   2.521   2.275   1.274 -0.0199 -0.2538 -0.3547
11241TIP3   OH255213   3.321   1.718  11.436 -0.5879  0.0788 -0.3508
11241TIP3    H155214   3.271   1.647  11.397 -0.4870 -0.1699 -0.0313
11241TIP3    H255215   3.399   1.676  11.471 -1.6273 -0.0244  1.9225
11242TIP3   OH255216   4.115   3.855  11.738  0.4524 -0.0395  0.1167
11242TIP3    H155217   4.079   3.768  11.717  0.9387 -0.5439  1.3385
11242TIP3    H255218   4.055   3.916  11.693  1.1445 -1.0279 -2.2643
11243TIP3   OH255219   5.840   5.735   2.785  0.3004  0.0375  0.2999
11243TIP3    H155220   5.750   5.767   2.770  0.6480  0.9478  0.0912
11243TIP3    H255221   5.884   5.809   2.827  0.5369 -0.9624  1.8432
11244TIP3   OH255222   2.064   5.771   4.762  0.0322 -0.1937  0.4046
11244TIP3    H155223   2.122   5.792   4.836 -0.6419 -1.4158  1.2977
11244TIP3    H255224   2.103   5.693   4.722 -0.0190  0.0252 -0.0699
11245TIP3   OH255225   3.273   0.171  11.959 -0.0005 -0.2435 -0.8227
11245TIP3    H155226   3.203   0.131  12.011  1.2706  0.3781  1.4463
11245TIP3    H255227   3.267   0.264  11.979  0.7161 -0.0368 -1.5629
11246TIP3   OH255228   1.200   0.646   4.978  0.1455  0.4002  0.4805
11246TIP3    H155229   1.188   0.670   5.070  4.0369  1.2397  0.8558
11246TIP3    H255230   1.236   0.558   4.981 -1.2334 -0.2130 -0.3555
11247TIP3   OH255231   2.834   2.821  14.444 -0.6004 -0.3326 -0.3581
11247TIP3    H155232   2.910   2.772  14.475 -0.4357 -1.1464 -2.0098
11247TIP3    H255233   2.813   2.782  14.359 -1.6565  1.1739 -0.8078
11248TIP3   OH255234   2.869   6.028  11.817  0.4617 -0.2024  0.0689
11248TIP3    H155235   2.941   6.045  11.757  0.2842  0.9108  0.1689
11248TIP3    H255236   2.901   6.056  11.903  0.7967 -1.9925  0.5641
11249TIP3   OH255237   1.794   1.678  15.661  0.1136 -0.8036 -0.0790
11249TIP3    H155238   1.773   1.608  15.723  0.0905 -0.8230 -0.1093
11249TIP3    H255239   1.888   1.668  15.645  0.2411 -0.4126  0.4232
11250TIP3   OH255240   2.741   1.713   5.806  0.6504 -0.1760  0.4939
11250TIP3    H155241   2.691   1.669   5.737  2.4892 -1.3658 -0.1272
11250TIP3    H255242   2.689   1.790   5.829 -1.4772 -1.4019 -0.0775
11251TIP3   OH255243   4.910   0.721   4.248  0.2803  0.1886 -0.4193
11251TIP3    H155244   4.889   0.628   4.236 -0.3002  0.3640 -0.7872
11251TIP3    H255245   4.934   0.752   4.161 -1.2451  0.7988 -0.6465
11252TIP3   OH255246   4.654   2.738   1.039 -0.1068 -0.5836  0.4209
11252TIP3    H155247   4.690   2.772   0.957  0.7582 -0.2947  0.9083
11252TIP3    H255248   4.722   2.757   1.104 -1.1254 -0.0613  1.3551
11253TIP3   OH255249   6.206   4.937  11.679  0.3774  0.0027 -0.3790
11253TIP3    H155250   6.185   4.892  11.598 -0.8569  1.6653 -1.0184
11253TIP3    H255251   6.250   5.017  11.651  0.5026  0.2919  0.6173
11254TIP3   OH255252   5.550   6.628  17.140 -0.3351 -0.1475  0.1689
11254TIP3    H155253   5.630   6.577  17.126  0.4648  1.2984 -0.7139
11254TIP3    H255254   5.483   6.582  17.089 -0.1327 -1.5167  1.1240
11255TIP3   OH255255   2.300   0.258  15.567 -0.0688  0.0952 -0.3083
11255TIP3    H155256   2.308   0.341  15.522 -0.9090 -0.7462 -2.0601
11255TIP3    H255257   2.212   0.260  15.605 -0.7210 -0.6710 -1.7650
11256TIP3   OH255258   0.169   0.679   3.622 -0.1945 -0.2395  0.0563
11256TIP3    H155259   0.206   0.596   3.592  0.7748  0.3153 -0.2868
11256TIP3    H255260   0.215   0.746   3.572  0.0431  0.5879  1.3571
11257TIP3   OH255261   6.097   0.257  14.569  0.2141  0.2043  0.0547
11257TIP3    H155262   6.152   0.330  14.540  0.4181  0.4863  1.1363
11257TIP3    H255263   6.008   0.291  14.563  0.3623  0.8874  1.4744
11258TIP3   OH255264   1.722   5.500  11.906 -0.8455  0.3002 -0.1905
11258TIP3    H155265   1.799   5.549  11.876 -1.2558  2.0479  1.5113
11258TIP3    H255266   1.758   5.434  11.965 -0.3909 -0.7733 -1.6453
11259TIP3   OH255267   5.655   5.115   2.435  0.3279 -0.0719 -0.5672
11259TIP3    H155268   5.714   5.172   2.484 -0.6559 -0.1130  0.6869
11259TIP3    H255269   5.578   5.170   2.418  0.2125 -0.3994 -1.1131
11260TIP3   OH255270   5.484   2.687  16.442  0.5976 -0.4994  0.4942
11260TIP3    H155271   5.403   2.639  16.457  0.5370 -0.7962 -0.7832
11260TIP3    H255272   5.553   2.621  16.447  0.7165 -0.3406  1.0054
11261TIP3   OH255273   5.943   6.429  13.101 -0.4212  0.4100  0.0827
11261TIP3    H155274   5.948   6.334  13.092 -1.5356  0.3697 -0.1262
11261TIP3    H255275   6.021   6.452  13.152  0.0984 -0.5576 -0.2562
11262TIP3   OH255276   6.162   2.627  15.347  0.2813  0.5644 -0.2800
11262TIP3    H155277   6.159   2.653  15.255 -0.0415 -1.0005 -0.7109
11262TIP3    H255278   6.139   2.534  15.348  0.2698  0.5580  1.3811
11263TIP3   OH255279   4.136   5.059  17.086  0.0028 -0.0234  0.1570
11263TIP3    H155280   4.180   4.999  17.146  1.0827  0.8583  0.2549
11263TIP3    H255281   4.096   5.124  17.143  1.6266  1.2172 -0.0976
11264TIP3   OH255282   5.366   4.564   3.738  0.3139 -0.0373  1.3457
11264TIP3    H155283   5.330   4.572   3.650  0.8794  1.6873  1.2672
11264TIP3    H255284   5.289   4.568   3.795  0.2844  3.3542  1.1631
11265TIP3   OH255285   2.377   3.635   1.811 -0.3243 -0.3640  0.1922
11265TIP3    H155286   2.369   3.554   1.760 -1.0374  0.3828 -0.9230
11265TIP3    H255287   2.466   3.666   1.793 -0.4141 -0.3465 -0.2255
11266TIP3   OH255288   5.007   0.839   5.389  0.0244 -0.3447  0.2528
11266TIP3    H155289   4.982   0.774   5.324  0.9686  0.8572 -1.3353
11266TIP3    H255290   4.935   0.903   5.389  0.5495  0.2602 -0.4571
11267TIP3   OH255291   4.800   0.035   0.026 -0.2368  0.0084  0.7156
11267TIP3    H155292   4.771  -0.035   0.085 -1.4211  1.2798  1.6710
11267TIP3    H255293   4.891   0.051   0.051 -0.1047 -0.8584  0.8062
11268TIP3   OH255294   6.095   0.963   1.379  0.5597  0.3165 -0.5204
11268TIP3    H155295   6.063   0.906   1.448  0.1826  0.7960 -0.2985
11268TIP3    H255296   6.104   0.905   1.303  0.4665 -0.0985 -0.2174
11269TIP3   OH255297   6.766   4.014   4.081  0.0399 -0.3848 -0.2329
11269TIP3    H155298   6.822   3.941   4.108 -1.0028 -1.2162 -0.2750
11269TIP3    H255299   6.706   3.975   4.016  0.1927  0.7637 -1.0734
11270TIP3   OH255300   3.126   6.689   0.758 -0.3855 -0.4065 -0.6713
11270TIP3    H155301   3.136   6.740   0.839 -1.9722  1.1912 -1.4665
11270TIP3    H255302   3.193   6.621   0.765 -0.6090 -0.4049  2.0706
11271TIP3   OH255303   6.119   3.582  14.002  0.3223  0.2100  0.3008
11271TIP3    H155304   6.130   3.518  13.932  1.9174 -0.2280  0.9382
11271TIP3    H255305   6.192   3.643  13.991 -1.4491  2.2384 -0.5999
11272TIP3   OH255306   3.484   2.364   4.572  0.3085  0.6487  0.8287
11272TIP3    H155307   3.466   2.351   4.665 -0.9621  1.7849  0.7564
11272TIP3    H255308   3.537   2.443   4.568  0.9640  0.2060  0.6313
11273TIP3   OH255309   0.065   1.442  16.763 -0.2004  0.1104 -0.0520
11273TIP3    H155310   0.145   1.399  16.734 -0.7762 -0.1504 -1.3012
11273TIP3    H255311   0.056   1.418  16.855  0.1596 -1.3950 -0.3982
11274TIP3   OH255312   2.479   6.186  13.582  0.7866  0.3776  0.5039
11274TIP3    H155313   2.574   6.191  13.572  0.5597  0.4182 -1.8418
11274TIP3    H255314   2.456   6.101  13.544 -0.1525  0.5614  0.6578
11275TIP3   OH255315   0.022   0.886   0.398 -0.5700 -0.6558 -0.3497
11275TIP3    H155316   0.111   0.853   0.392 -0.2503  0.1575 -0.1394
11275TIP3    H255317  -0.016   0.837   0.471 -0.5635 -1.5944 -0.9644
11276TIP3   OH255318   0.704   0.265   2.190  0.1707 -0.0790  0.1580
11276TIP3    H155319   0.723   0.327   2.261 -0.8950  0.8514 -0.3466
11276TIP3    H255320   0.787   0.221   2.174  0.9010  1.0685  0.6841
11277TIP3   OH255321   0.970   2.412   3.574  0.2010 -0.0891 -0.3861
11277TIP3    H155322   0.901   2.478   3.586 -0.6884 -1.1598  0.4834
11277TIP3    H255323   1.042   2.443   3.628  0.3118  0.8747 -1.0528
11278TIP3   OH255324   3.766   2.206   3.094  1.2435  0.2832 -0.1752
11278TIP3    H155325   3.810   2.177   3.014 -0.1397 -0.7662 -0.5604
11278TIP3    H255326   3.778   2.134   3.156 -0.5213 -0.3212 -0.5107
11279TIP3   OH255327   6.566   1.952  14.457  0.2684 -0.0768 -0.3432
11279TIP3    H155328   6.576   2.017  14.526  1.2620  2.1714 -2.5057
11279TIP3    H255329   6.656   1.926  14.435 -0.1286 -2.6528  0.8740
11280TIP3   OH255330   5.404   6.480   5.440  0.2415  0.2780 -0.2704
11280TIP3    H155331   5.319   6.483   5.483  0.0932  1.7207 -0.6490
11280TIP3    H255332   5.467   6.467   5.511 -0.2840 -0.9330 -0.0019
11281TIP3   OH255333   5.602   4.732   2.861 -0.6169 -0.0709 -0.2604
11281TIP3    H155334   5.697   4.744   2.855 -0.9471  2.0357 -1.9284
11281TIP3    H255335   5.570   4.809   2.908 -1.4061 -1.2246  1.0996
11282TIP3   OH255336   0.916   4.763   1.347 -0.1108  0.2187  0.4132
11282TIP3    H155337   0.898   4.689   1.404 -3.4356  0.1480 -0.6160
11282TIP3    H255338   0.856   4.832   1.378 -0.7681  0.7192 -1.9139
11283TIP3   OH255339   6.761   0.271  13.508 -0.1086 -0.4464 -0.3415
11283TIP3    H155340   6.812   0.350  13.490 -0.6403 -0.2825 -1.1831
11283TIP3    H255341   6.772   0.217  13.430 -0.5868 -0.7470 -0.2023
11284TIP3   OH255342   5.486   6.814  13.365  0.4073 -0.3625 -0.8052
11284TIP3    H155343   5.430   6.809  13.443 -0.1237 -1.6696 -1.2574
11284TIP3    H255344   5.505   6.908  13.355 -0.1775 -0.1016  0.4245
11285TIP3   OH255345   4.207   5.503  12.494  0.7002  0.6076 -0.1141
11285TIP3    H155346   4.157   5.476  12.571  1.1129  3.2568  1.1435
11285TIP3    H255347   4.244   5.422  12.460 -2.3594 -1.0992  0.3750
11286TIP3   OH255348   2.540   0.787  12.237  0.1571  0.2607 -0.4066
11286TIP3    H155349   2.575   0.708  12.195  0.5694 -0.7591  1.8154
11286TIP3    H255350   2.458   0.804  12.189 -0.0568 -1.6454 -0.7792
11287TIP3   OH255351   6.766   6.473   5.766 -0.3375  0.1867 -0.3610
11287TIP3    H155352   6.692   6.446   5.820  0.3726 -0.1778  0.4411
11287TIP3    H255353   6.746   6.437   5.679 -0.1545 -1.6165  0.3289
11288TIP3   OH255354   4.220   3.946  15.812 -0.0510 -0.4962 -0.6163
11288TIP3    H155355   4.189   3.915  15.727  0.2427 -3.0760  0.1722
11288TIP3    H255356   4.256   3.868  15.855 -2.0073  0.2826  2.6765
11289TIP3   OH255357   5.515   5.905   1.805  1.2401 -0.0806 -0.4265
11289TIP3    H155358   5.516   5.813   1.782  0.5588 -0.3676  0.6541
11289TIP3    H255359   5.601   5.921   1.845  1.0699 -0.4320  0.0792
11290TIP3   OH255360   3.494   5.809  11.070  0.4724  0.3435  0.6448
11290TIP3    H155361   3.470   5.866  11.143 -1.0418  0.4879  0.0652
11290TIP3    H255362   3.530   5.730  11.111 -0.2753  0.4696  1.5508
11291TIP3   OH255363   5.453   3.190  14.336  0.1955 -0.2967  0.5410
11291TIP3    H155364   5.402   3.110  14.326  0.0368 -0.1580  0.2617
11291TIP3    H255365   5.423   3.248  14.266 -2.2368  1.3660  2.8436
11292TIP3   OH255366   0.060   2.547  14.689  0.0925  0.1624 -0.1396
11292TIP3    H155367   0.129   2.560  14.754 -1.2481 -0.7851  1.5096
11292TIP3    H255368   0.003   2.623  14.699  0.8299  0.8895 -1.4242
11293TIP3   OH255369   0.383   2.840  10.944  0.0311  0.0495  0.0204
11293TIP3    H155370   0.309   2.792  10.908 -0.1456  0.0543  0.3727
11293TIP3    H255371   0.393   2.916  10.887 -1.4166  1.0434  1.0613
11294TIP3   OH255372   0.286   3.522  15.582 -0.5100 -0.0809 -0.0929
11294TIP3    H155373   0.228   3.501  15.508 -1.5593 -1.5020  1.1005
11294TIP3    H255374   0.282   3.617  15.590 -1.2092 -0.0073 -1.1969
11295TIP3   OH255375   0.053   1.342   6.823  0.0254 -0.0609 -0.1408
11295TIP3    H155376   0.006   1.367   6.743 -1.3397 -1.4508  0.2026
11295TIP3    H255377   0.037   1.247   6.831  0.8919 -0.0940  1.2894
11296TIP3   OH255378   3.755   3.467  12.668  0.0866  0.0282  0.5274
11296TIP3    H155379   3.798   3.549  12.691 -0.9764  0.1968  1.9405
11296TIP3    H255380   3.720   3.483  12.580 -0.9405  1.4390  1.1675
11297TIP3   OH255381   1.056   2.221  12.419 -0.2703  0.2107 -0.3170
11297TIP3    H155382   1.003   2.167  12.477 -0.0549 -0.1033 -0.4106
11297TIP3    H255383   1.088   2.293  12.474  0.2722 -0.3104  0.0566
11298TIP3   OH255384   4.524   5.389  12.962 -0.1682  0.2476  0.0510
11298TIP3    H155385   4.582   5.402  13.037  1.0721  0.5295 -0.9333
11298TIP3    H255386   4.499   5.297  12.966 -1.1127  0.5519  1.5041
11299TIP3   OH255387   0.586   0.599  16.100 -0.2609 -0.0100 -0.3360
11299TIP3    H155388   0.601   0.694  16.106 -0.6193 -0.0743  2.0176
11299TIP3    H255389   0.633   0.573  16.021 -0.0168  2.1121 -0.9299
11300TIP3   OH255390   2.608   6.622   4.872 -0.6361 -0.6519  0.4422
11300TIP3    H155391   2.598   6.627   4.777 -2.6801 -0.5371  0.6339
11300TIP3    H255392   2.554   6.547   4.898  0.4356 -1.0930  1.4509
11301TIP3   OH255393   0.863   6.051   4.747  0.2726 -0.0361  0.0062
11301TIP3    H155394   0.944   6.030   4.700 -0.5686  0.1366 -1.5610
11301TIP3    H255395   0.841   5.972   4.795  1.0516 -0.2816 -0.0388
11302TIP3   OH255396   5.904   0.112   2.528  0.1748 -0.7249  0.6935
11302TIP3    H155397   5.976   0.162   2.567  0.9475 -1.5487  0.3431
11302TIP3    H255398   5.933   0.021   2.535  1.2333 -0.8235 -3.5741
11303TIP3   OH255399   5.259   6.654   1.021 -0.4713 -0.1449 -0.2089
11303TIP3    H155400   5.301   6.712   1.085 -2.0166  1.0193 -0.2227
11303TIP3    H255401   5.269   6.567   1.058 -0.0193  0.3554  0.8882
11304TIP3   OH255402   6.343   3.094  15.828 -0.7471 -0.0967  0.4818
11304TIP3    H155403   6.258   3.053  15.815 -0.7507 -0.0651  0.4051
11304TIP3    H255404   6.395   3.028  15.874 -0.4092 -0.5808 -0.5879
11305TIP3   OH255405   4.439   6.647  14.706 -0.5026 -0.3590  0.1659
11305TIP3    H155406   4.433   6.669  14.613 -1.3520 -0.8025  0.1193
11305TIP3    H255407   4.416   6.728  14.751 -2.0359 -0.6873 -0.0114
11306TIP3   OH255408   4.865   6.446  14.445 -0.1005  0.2009  0.5835
11306TIP3    H155409   4.829   6.447  14.356  3.3214 -0.5906 -0.8612
11306TIP3    H255410   4.852   6.355  14.474  0.9726 -0.1511 -0.0344
11307TIP3   OH255411   3.125   4.241  12.212 -0.5965 -0.0447  0.4796
11307TIP3    H155412   3.034   4.253  12.238 -0.5494 -2.2454  1.7648
11307TIP3    H255413   3.130   4.151  12.180  1.0842  0.1122  0.2177
11308TIP3   OH255414   1.401   4.078   1.791 -0.0756  0.6927  0.1855
11308TIP3    H155415   1.368   4.033   1.713  1.2162 -2.0897  1.1771
11308TIP3    H255416   1.494   4.089   1.775  0.2946 -0.3605  1.5277
11309TIP3   OH255417   1.595   0.776  12.327 -0.1583 -0.4037 -0.3649
11309TIP3    H155418   1.623   0.824  12.405 -0.0967 -1.5252  0.3076
11309TIP3    H255419   1.623   0.831  12.254 -0.1163  0.5982  0.3941
11310TIP3   OH255420   6.686   6.035   4.863 -0.0720 -0.0611  0.0235
11310TIP3    H155421   6.594   6.056   4.852  0.2740  1.3119 -0.4856
11310TIP3    H255422   6.698   6.025   4.957 -0.5423  0.7966  0.1777
11311TIP3   OH255423   2.851   0.438   4.545  0.2745  0.0581 -0.3470
11311TIP3    H155424   2.825   0.394   4.464  1.2492 -1.9101  0.3802
11311TIP3    H255425   2.893   0.370   4.597  0.0800  1.4111  1.6388
11312TIP3   OH255426   0.619   2.277  12.311 -0.6009  0.0866 -0.0986
11312TIP3    H155427   0.616   2.355  12.256 -0.5352  1.2005  1.4330
11312TIP3    H255428   0.677   2.301  12.383  0.0406 -1.6583 -0.0089
11313TIP3   OH255429   3.386   2.000   3.966 -0.0882  0.2410 -0.3615
11313TIP3    H155430   3.393   1.925   3.907  1.0536 -1.2716  1.6639
11313TIP3    H255431   3.455   2.059   3.937  2.1157 -1.6121  1.0079
11314TIP3   OH255432   6.411   4.339   4.714  0.7501 -0.7733  0.0710
11314TIP3    H155433   6.489   4.305   4.669  1.8648  1.7141 -0.0033
11314TIP3    H255434   6.340   4.328   4.650  1.4244 -1.3804 -0.5848
11315TIP3   OH255435   6.032   2.357   3.497 -0.3269 -0.0214 -1.3485
11315TIP3    H155436   6.115   2.310   3.485 -0.8734 -0.9022 -1.7264
11315TIP3    H255437   6.021   2.363   3.592  0.5126  0.7202 -1.2906
11316TIP3   OH255438   6.143   4.353  11.028 -0.0808  0.0470  0.3653
11316TIP3    H155439   6.065   4.392  10.988  0.0380  0.4744  0.5482
11316TIP3    H255440   6.217   4.399  10.988  0.0028  1.2520  1.8665
11317TIP3   OH255441   5.252   2.872  11.200  0.1757 -0.0546 -0.7956
11317TIP3    H155442   5.238   2.778  11.184 -0.4387  0.0555 -0.9081
11317TIP3    H255443   5.209   2.889  11.283  1.5697 -0.1802 -0.0345
11318TIP3   OH255444   0.043   3.072   3.740 -0.5624  0.0469  0.4041
11318TIP3    H155445   0.050   3.137   3.810 -2.8166  2.3301 -1.3858
11318TIP3    H255446   0.127   3.076   3.695 -0.5883  1.5770  0.4693
11319TIP3   OH255447   4.134   6.536  11.855 -0.2397  0.1237 -0.1408
11319TIP3    H155448   4.126   6.629  11.833  0.8325  1.0487  3.1461
11319TIP3    H255449   4.193   6.501  11.789 -0.6853  1.7632 -1.4466
11320TIP3   OH255450   2.644   6.154   4.222  0.0876 -0.2309 -0.0839
11320TIP3    H155451   2.599   6.233   4.192 -1.4228  0.0170  2.7036
11320TIP3    H255452   2.605   6.083   4.170 -0.9221  0.4395 -0.2474
11321TIP3   OH255453   5.325   5.539   4.747  0.2830 -0.1344 -0.4460
11321TIP3    H155454   5.280   5.622   4.731  0.1205 -0.1883 -0.2809
11321TIP3    H255455   5.298   5.515   4.836 -0.8161 -1.0902 -1.0285
11322TIP3   OH255456   6.150   1.890   5.606 -0.0095 -0.2479 -0.0210
11322TIP3    H155457   6.059   1.861   5.597 -0.5859  1.1104  1.3122
11322TIP3    H255458   6.155   1.970   5.554 -0.0998  0.7476  1.4696
11323TIP3   OH255459   2.097   1.265   4.549 -0.2520 -0.1687  0.7577
11323TIP3    H155460   2.135   1.270   4.636  0.9396  1.3589  0.1948
11323TIP3    H255461   2.075   1.356   4.527 -0.2185 -0.4804 -0.6520
11324TIP3   OH255462   3.261   4.944   2.561  0.1477  0.2359  0.5931
11324TIP3    H155463   3.207   4.878   2.516 -0.9822  0.9810  0.8260
11324TIP3    H255464   3.200   4.987   2.621  1.3603  0.0741  1.9763
11325TIP3   OH255465   6.316   3.463  14.791 -0.4289  0.0604  0.0483
11325TIP3    H155466   6.250   3.430  14.731  0.7779 -0.8437 -0.7861
11325TIP3    H255467   6.358   3.385  14.827  0.0557  0.6252  0.7306
11326TIP3   OH255468   6.367   2.769   3.655  0.6957 -0.1663  0.3331
11326TIP3    H155469   6.439   2.825   3.628  1.4562 -1.2709  0.0087
11326TIP3    H255470   6.409   2.686   3.677 -0.3887 -0.5584  0.9393
11327TIP3   OH255471   0.641   5.539   4.675  0.2931 -0.2395 -0.5419
11327TIP3    H155472   0.705   5.533   4.604 -0.6711 -1.0788 -1.3689
11327TIP3    H255473   0.617   5.631   4.679  1.2540  0.0096 -0.4901
11328TIP3   OH255474   5.581   5.061   4.531  0.1233 -0.5513 -0.1344
11328TIP3    H155475   5.533   5.111   4.465 -0.9296  0.2220  1.1792
11328TIP3    H255476   5.656   5.024   4.484  0.5470  1.6943 -1.2898
11329TIP3   OH255477   5.400   3.797   5.886 -0.2590  0.6073 -0.0035
11329TIP3    H155478   5.304   3.788   5.890 -0.3491  0.8805 -1.2038
11329TIP3    H255479   5.416   3.890   5.905 -0.3103  0.7672 -0.7111
11330TIP3   OH255480   6.690   3.044   4.344  0.4347  0.0846  0.1364
11330TIP3    H155481   6.653   3.046   4.256  1.4726 -0.0729 -0.3050
11330TIP3    H255482   6.614   3.050   4.402 -0.2004  0.8260 -0.7704
11331TIP3   OH255483   1.931   0.693  14.941 -0.0561 -0.3145  0.1746
11331TIP3    H155484   1.859   0.701  14.879  0.2567 -1.1879 -0.3098
11331TIP3    H255485   1.894   0.646  15.015 -0.1889 -0.0797  0.2564
11332TIP3   OH255486   6.443   0.971   5.940 -0.0424  0.2360  0.5702
11332TIP3    H155487   6.530   0.965   5.902 -0.2183  0.4590  0.1288
11332TIP3    H255488   6.458   1.001   6.030  0.3572 -0.0953  0.6167
11333TIP3   OH255489   4.458   1.316  11.880  0.4919  0.2781  0.2430
11333TIP3    H155490   4.471   1.231  11.923 -0.4901 -0.9410 -1.7939
11333TIP3    H255491   4.373   1.346  11.913  0.8635  0.5065  1.0062
11334TIP3   OH255492   5.836   2.738   0.400  0.7844  0.2697 -0.2261
11334TIP3    H155493   5.769   2.761   0.465 -0.1306 -0.1320 -1.0028
11334TIP3    H255494   5.917   2.730   0.451  0.4616  1.8195  0.5589
11335TIP3   OH255495   2.226   6.562  15.687  0.4757  0.1892 -0.2406
11335TIP3    H155496   2.294   6.595  15.627  1.8266  0.4680  1.4000
11335TIP3    H255497   2.233   6.467  15.680  1.4812  0.2061  0.3797
11336TIP3   OH255498   1.108   0.337  16.372 -0.6166 -0.6659 -0.1682
11336TIP3    H155499   1.199   0.313  16.358 -0.1478  0.8877  0.0741
11336TIP3    H255500   1.074   0.357  16.285 -0.6028 -0.8554 -0.2138
11337TIP3   OH255501   6.743   6.770  11.706  0.3130  0.1971 -0.1906
11337TIP3    H155502   6.801   6.701  11.674 -1.3530 -1.8221  1.0334
11337TIP3    H255503   6.736   6.831  11.633  2.3843 -0.5532 -1.0509
11338TIP3   OH255504   4.812   5.065  11.623 -0.0290  0.1231  0.1045
11338TIP3    H155505   4.746   5.067  11.553  1.2339 -0.9390 -1.1382
11338TIP3    H255506   4.763   5.038  11.701 -1.1443 -0.2395 -0.7102
11339TIP3   OH255507   1.115   2.422  15.859 -0.0695 -0.3693  0.3799
11339TIP3    H155508   1.046   2.378  15.910 -0.6213 -1.3178 -1.1386
11339TIP3    H255509   1.143   2.356  15.796  0.4706  0.8524 -0.6727
11340TIP3   OH255510   4.618   2.428   6.322  0.3480  0.3406 -0.3108
11340TIP3    H155511   4.559   2.427   6.397 -0.0633  0.8323 -0.6215
11340TIP3    H255512   4.706   2.422   6.360  0.0679 -1.2241  0.1084
11341TIP3   OH255513   0.614   4.715   2.421  0.1224  0.3474  0.0957
11341TIP3    H155514   0.629   4.624   2.395  0.0879  0.5824 -0.7357
11341TIP3    H255515   0.695   4.740   2.466  0.8698  0.4984 -1.3255
11342TIP3   OH255516   3.750   6.415  14.163 -0.4860  0.5594 -0.1604
11342TIP3    H155517   3.698   6.388  14.238  0.8286 -0.8023  0.2767
11342TIP3    H255518   3.841   6.412  14.194 -0.1082  2.7976 -0.9334
11343TIP3   OH255519   0.115   3.202  12.533 -1.0795  0.1385 -0.1429
11343TIP3    H155520   0.088   3.220  12.443 -0.1472  0.3316 -0.3917
11343TIP3    H255521   0.124   3.107  12.537  0.0197  0.2155 -0.5973
11344TIP3   OH255522   5.643   0.206   2.768 -0.1195 -0.2447  0.3440
11344TIP3    H155523   5.616   0.191   2.858  0.9937 -0.9315  0.5844
11344TIP3    H255524   5.579   0.159   2.715 -0.2138 -0.6645  0.8257
11345TIP3   OH255525   5.698   6.149   2.410  0.0564 -0.5258  0.1137
11345TIP3    H155526   5.646   6.213   2.361  0.4646  1.7779  2.5561
11345TIP3    H255527   5.654   6.066   2.394 -2.0098  0.7389 -1.1317
11346TIP3   OH255528   2.291   2.850   0.084 -0.4154 -0.6292  0.2197
11346TIP3    H155529   2.350   2.843   0.009  0.7507  1.1290  0.9541
11346TIP3    H255530   2.213   2.894   0.049  0.6677  1.4214  0.3117
11347TIP3   OH255531   0.134   3.252   3.467 -0.7636  0.1491  0.7067
11347TIP3    H155532   0.191   3.249   3.544  0.3112 -0.6746 -0.0975
11347TIP3    H255533   0.139   3.164   3.430  1.6631  1.4570 -2.3741
11348TIP3   OH255534   0.722   4.140   1.922 -0.1268 -0.2659  0.5736
11348TIP3    H155535   0.726   4.092   2.005 -1.6471  2.2340  2.1841
11348TIP3    H255536   0.811   4.173   1.909 -0.2699  0.8001  2.1552
11349TIP3   OH255537   3.799   2.329  14.202 -0.0746  0.1260  0.2779
11349TIP3    H155538   3.760   2.362  14.122 -0.4134  0.6448  0.6541
11349TIP3    H255539   3.797   2.403  14.262 -0.6132 -0.4963  1.0451
11350TIP3   OH255540   1.065   3.573  16.683 -0.1197  0.1463  0.2568
11350TIP3    H155541   1.040   3.486  16.655  3.5918 -0.5443 -1.2079
11350TIP3    H255542   1.057   3.571  16.779 -2.4487 -0.9626  0.0558
11351TIP3   OH255543   0.405   1.689  11.101 -0.0144  1.2378 -0.0998
11351TIP3    H155544   0.494   1.708  11.071  0.7114  0.7666  1.6873
11351TIP3    H255545   0.409   1.698  11.196 -2.0481  1.8522 -0.0446
11352TIP3   OH255546   2.358   2.466   3.989 -0.2804 -0.1223 -0.6174
11352TIP3    H155547   2.446   2.504   3.987 -0.3910  0.1315 -0.5480
11352TIP3    H255548   2.302   2.534   4.025 -0.5250 -0.2521 -0.7487
11353TIP3   OH255549   1.137   3.407  13.397  0.2522  0.1735  0.6929
11353TIP3    H155550   1.169   3.411  13.307  1.7879 -2.2454  1.1105
11353TIP3    H255551   1.058   3.462  13.397  0.2009  0.1334 -2.1134
11354TIP3   OH255552   6.031   6.202   1.705  0.5233  0.3181 -0.2388
11354TIP3    H155553   6.069   6.244   1.628  2.6337  0.9713  1.1399
11354TIP3    H255554   6.083   6.123   1.717 -0.7722 -0.5790 -0.3474
11355TIP3   OH255555   6.005   6.330  16.881  1.1867  0.1351  0.4296
11355TIP3    H155556   5.925   6.281  16.898  0.3456  1.2560 -0.1944
11355TIP3    H255557   6.068   6.265  16.851  0.3643 -0.6893  0.4806
11356TIP3   OH255558   5.424   0.716  15.409  0.5148  0.2366  0.3943
11356TIP3    H155559   5.402   0.801  15.447 -0.3515  0.6408 -0.9703
11356TIP3    H255560   5.432   0.732  15.315 -0.8459 -1.4065 -0.0428
11357TIP3   OH255561   3.758   0.168  15.026 -0.3343 -0.1588 -0.3949
11357TIP3    H155562   3.801   0.107  15.085 -0.3116  0.8555  0.6429
11357TIP3    H255563   3.737   0.115  14.948 -1.0818 -1.6960  0.8223
11358TIP3   OH255564   6.277   0.568  16.508 -0.1503  0.3829  0.2430
11358TIP3    H155565   6.345   0.611  16.561 -1.5434  1.9916  0.7655
11358TIP3    H255566   6.292   0.601  16.420 -0.0599  0.4862  0.2943
11359TIP3   OH255567   5.110   2.574  17.288  0.2254  0.0884  0.9794
11359TIP3    H155568   5.148   2.515  17.353  2.6066  0.4079 -0.0596
11359TIP3    H255569   5.098   2.521  17.210  0.0725  0.3866  0.7980
11360TIP3   OH255570   1.179   3.741  14.044  0.1463 -0.3629 -0.3114
11360TIP3    H155571   1.223   3.670  14.090 -1.0783 -1.2807 -0.5542
11360TIP3    H255572   1.104   3.763  14.098 -1.2464 -1.3778 -1.7966
11361TIP3   OH255573   2.124   4.173   5.213 -0.2455  0.8665  0.5667
11361TIP3    H155574   2.202   4.223   5.193  1.0640 -0.7959  1.3899
11361TIP3    H255575   2.137   4.142   5.303 -2.6837  2.1069  1.4130
11362TIP3   OH255576   5.786   4.548  13.544 -0.4883  0.5736  0.4953
11362TIP3    H155577   5.755   4.512  13.628  2.8345 -0.1760  1.4532
11362TIP3    H255578   5.765   4.481  13.480  3.0974 -1.9581  1.8331
11363TIP3   OH255579   5.681   4.255   2.364  0.2803  0.0984 -0.0489
11363TIP3    H155580   5.707   4.176   2.317 -0.6111 -1.1283  1.4306
11363TIP3    H255581   5.745   4.321   2.339  1.6166 -1.3665 -0.5635
11364TIP3   OH255582   6.576   0.229  11.828  0.9502  0.3957  0.5020
11364TIP3    H155583   6.520   0.159  11.863 -0.0898  0.6468 -0.6287
11364TIP3    H255584   6.516   0.303  11.815  1.3307  0.3607 -1.6506
11365TIP3   OH255585   1.276   0.907  13.188  0.1073  0.1693  0.2997
11365TIP3    H155586   1.184   0.895  13.164  0.6416 -2.6015 -0.4649
11365TIP3    H255587   1.314   0.953  13.113 -0.8895  2.5927  1.1985
11366TIP3   OH255588   2.148   4.510   3.923 -0.3901  0.6275  0.2232
11366TIP3    H155589   2.161   4.449   3.850  2.3073  0.0492  1.1161
11366TIP3    H255590   2.121   4.592   3.881 -1.3074 -0.3800 -1.2170
11367TIP3   OH255591   2.809   0.774   3.749 -0.3270  0.7554  0.8870
11367TIP3    H155592   2.763   0.693   3.769  1.4390 -0.4231  0.2759
11367TIP3    H255593   2.851   0.798   3.832 -0.1315  0.5598  0.8461
11368TIP3   OH255594   6.781   1.572  12.542 -0.3046  0.3174 -0.2490
11368TIP3    H155595   6.703   1.611  12.502 -2.4077 -0.8859  2.4752
11368TIP3    H255596   6.774   1.479  12.523  0.0242  0.0948  0.7001
11369TIP3   OH255597   0.533   2.593  13.107 -0.3956  0.2118 -0.3625
11369TIP3    H155598   0.459   2.534  13.113 -0.5935  0.5832  1.0344
11369TIP3    H255599   0.501   2.668  13.056 -0.9642  0.3555  0.2116
11370TIP3   OH255600   5.933   4.257  15.674 -0.0943 -0.1154  0.1828
11370TIP3    H155601   5.846   4.274  15.710  0.3247  0.0129  1.1396
11370TIP3    H255602   5.952   4.335  15.621 -1.0605 -0.6813 -1.0138
11371TIP3   OH255603   4.470   3.357  11.260  0.1854  0.1043  0.2679
11371TIP3    H155604   4.482   3.401  11.176 -0.7377 -0.6762 -0.2708
11371TIP3    H255605   4.489   3.425  11.325 -0.1879  1.0104 -0.5591
11372TIP3   OH255606   6.028   5.771  13.705 -0.2857  0.0257  0.2123
11372TIP3    H155607   5.957   5.744  13.764 -0.8651 -1.2502 -1.0557
11372TIP3    H255608   6.106   5.729  13.742  0.1833  2.8304  2.6158
11373TIP3   OH255609   3.130   3.513   6.068  0.4874  0.2943  0.6145
11373TIP3    H155610   3.137   3.510   5.973  0.7701  2.0388  0.5619
11373TIP3    H255611   3.167   3.598   6.092 -1.2273  0.6365  2.1325
11374TIP3   OH255612   2.380   0.123   4.675  0.1511 -0.3754 -0.1059
11374TIP3    H155613   2.355   0.081   4.758 -0.1461  0.3492  0.1732
11374TIP3    H255614   2.417   0.208   4.701 -0.9730  0.3299 -0.7753
11375TIP3   OH255615   5.198   3.084   0.021 -0.2044 -0.5760 -0.0282
11375TIP3    H155616   5.253   3.005   0.022  0.7741  0.0889 -0.5563
11375TIP3    H255617   5.130   3.066   0.085 -1.3433 -2.8127 -1.7679
11376TIP3   OH255618   3.512   0.311  11.388  0.5653 -0.4717 -0.1924
11376TIP3    H155619   3.596   0.320  11.432 -0.2191  0.4156  1.1806
11376TIP3    H255620   3.529   0.338  11.298  0.8927  3.8802  1.0284
11377TIP3   OH255621   4.283   0.391   2.778 -0.5121  0.0060 -0.3544
11377TIP3    H155622   4.200   0.421   2.741 -1.1221  0.4860  1.3698
11377TIP3    H255623   4.337   0.469   2.785  0.4708 -0.4527 -2.3661
11378TIP3   OH255624   0.873   5.014   2.756  0.1208 -0.0857  0.2632
11378TIP3    H155625   0.804   4.951   2.776 -1.0161  0.6625 -1.2110
11378TIP3    H255626   0.954   4.966   2.769 -0.6596 -0.9856  2.0245
11379TIP3   OH255627   3.983   2.833   6.004 -0.2521  0.1949  0.1756
11379TIP3    H155628   4.014   2.775   5.934  0.8380  0.1250  0.6982
11379TIP3    H255629   3.910   2.881   5.966 -0.6552 -0.9571 -0.5173
11380TIP3   OH255630   4.302   5.647  15.923  0.3776 -0.2375  0.2322
11380TIP3    H155631   4.359   5.634  15.999  0.7513  0.0143 -0.0036
11380TIP3    H255632   4.264   5.560  15.907  2.3122 -0.9135 -0.8955
11381TIP3   OH255633   2.310   3.836  15.192  0.2694 -0.0656 -0.3445
11381TIP3    H155634   2.261   3.789  15.124  0.2852 -0.7118  0.0892
11381TIP3    H255635   2.280   3.797  15.274  0.2253  0.7404  0.0239
11382TIP3   OH255636   0.634   0.998   4.079  0.2531  0.3887  0.6793
11382TIP3    H155637   0.545   1.031   4.083  0.1617  0.3130 -0.6161
11382TIP3    H255638   0.630   0.923   4.020  1.3795  1.0567 -0.2571
11383TIP3   OH255639   1.423   0.200   5.959  0.2252 -0.2618  0.1241
11383TIP3    H155640   1.422   0.182   6.053 -3.2817 -1.5722 -0.0762
11383TIP3    H255641   1.438   0.295   5.953 -2.2703  0.3357  2.1981
11384TIP3   OH255642   0.011   6.537   3.001 -0.2705 -0.2269 -0.0561
11384TIP3    H155643   0.038   6.473   2.936 -0.5955 -1.6686  1.1931
11384TIP3    H255644   0.059   6.513   3.080  0.3341  1.6668  0.1774
11385TIP3   OH255645   3.173   1.505  13.326  0.1272  0.3827 -0.0903
11385TIP3    H155646   3.214   1.441  13.385  1.0385  0.9652 -0.0717
11385TIP3    H255647   3.245   1.534  13.270 -0.5463  0.5000 -0.8928
11386TIP3   OH255648   3.784   6.724  15.152 -0.4459 -0.7690 -0.7060
11386TIP3    H155649   3.867   6.684  15.177 -0.4160  0.1584  0.7498
11386TIP3    H255650   3.773   6.700  15.060  0.2861 -2.8325 -0.2750
11387TIP3   OH255651   6.001   5.237  13.922 -0.0686 -0.1428  0.0313
11387TIP3    H155652   6.033   5.228  13.832  0.2732 -0.3423  0.1707
11387TIP3    H255653   6.069   5.195  13.975 -0.3752 -0.2184  0.3631
11388TIP3   OH255654   5.640   2.667  12.486 -0.0879 -0.1304  0.4644
11388TIP3    H155655   5.641   2.759  12.462  0.1587  0.0357  1.1039
11388TIP3    H255656   5.631   2.667  12.581 -0.2747 -0.7675  0.4509
11389TIP3   OH255657   4.764   2.845  13.532  0.0991  0.9557 -0.0829
11389TIP3    H155658   4.723   2.764  13.501  0.8167  0.2889  0.6881
11389TIP3    H255659   4.811   2.820  13.611 -2.2837  2.7638  2.0021
11390TIP3   OH255660   0.512   1.480  16.661 -0.2863  0.3704 -0.3892
11390TIP3    H155661   0.592   1.451  16.705 -1.5166 -1.5706  0.6280
11390TIP3    H255662   0.529   1.571  16.638  1.6667  0.4178  1.1273
11391TIP3   OH255663   4.180   1.444  12.563 -0.4943  0.4130  0.0603
11391TIP3    H155664   4.211   1.509  12.501 -1.8255  0.4333 -0.6003
11391TIP3    H255665   4.245   1.373  12.559 -0.5042  0.4795 -1.2463
11392TIP3   OH255666   5.573   5.992   5.466 -0.6862  0.2665  0.3503
11392TIP3    H155667   5.620   6.064   5.508 -0.6164 -0.0523  0.8195
11392TIP3    H255668   5.483   6.001   5.498 -0.0539 -1.6500  2.8139
11393TIP3   OH255669   1.000   4.676  16.759  0.0564  0.1530  0.1862
11393TIP3    H155670   1.018   4.698  16.668  1.1144  0.6086  0.4936
11393TIP3    H255671   1.007   4.581  16.764  1.0640  0.2225  0.0197
11394TIP3   OH255672   5.246   5.054  12.524 -0.4158  0.3835 -0.6396
11394TIP3    H155673   5.280   4.991  12.460  0.4704  0.7685 -0.5533
11394TIP3    H255674   5.173   5.095  12.479  1.1495  1.7494 -2.0187
11395TIP3   OH255675   5.087   5.408  11.722 -0.2353 -0.0480  0.1829
11395TIP3    H155676   5.146   5.352  11.773  1.4358  0.3822 -1.2173
11395TIP3    H255677   5.080   5.363  11.638 -0.1555  1.0353 -0.4048
11396TIP3   OH255678   0.334   1.944  12.828 -0.0061 -0.5817 -0.6685
11396TIP3    H155679   0.301   2.029  12.856 -0.9806 -1.2114  0.1439
11396TIP3    H255680   0.267   1.882  12.858  2.4196 -2.0288  1.9275
11397TIP3   OH255681   2.506   6.119   5.641 -0.5829  0.0145  0.3813
11397TIP3    H155682   2.438   6.170   5.597 -1.0273 -0.6015  0.3314
11397TIP3    H255683   2.462   6.036   5.663  0.6943 -1.1587 -1.3734
11398TIP3   OH255684   6.308   1.174  16.481 -0.5929  0.0400  0.1617
11398TIP3    H155685   6.324   1.170  16.387  1.8222 -1.2917  0.6073
11398TIP3    H255686   6.220   1.136  16.492 -0.5452 -0.5699 -1.4534
11399TIP3   OH255687   2.929   0.762   3.996  0.2771  0.9026 -0.2908
11399TIP3    H155688   3.013   0.717   4.005 -1.0043 -1.7011 -0.6996
11399TIP3    H255689   2.896   0.770   4.085  0.8812  1.8349 -0.1398
11400TIP3   OH255690   4.126   6.076  12.203  1.0324  0.1062 -0.1122
11400TIP3    H155691   4.134   6.117  12.117 -0.8068  0.1506 -0.2876
11400TIP3    H255692   4.054   6.014  12.192  0.2483  0.7023  1.6292
11401TIP3   OH255693   3.112   5.821   0.174 -0.2822 -0.3035  0.1827
11401TIP3    H155694   3.112   5.904   0.126  0.7029 -1.1261 -1.2645
11401TIP3    H255695   3.052   5.765   0.124  2.0481 -1.7188 -1.0861
11402TIP3   OH255696   2.994   4.764   1.794 -0.1643  0.1341  0.7992
11402TIP3    H155697   3.039   4.711   1.859  2.0951  1.3077  0.2680
11402TIP3    H255698   2.946   4.830   1.844 -1.1929 -1.0476  1.3756
11403TIP3   OH255699   1.672   2.504   4.211  0.6165  0.0747  0.0265
11403TIP3    H155700   1.748   2.477   4.262  2.3337  1.5730 -1.6875
11403TIP3    H255701   1.662   2.436   4.145 -0.7641 -1.1365  1.4277
11404TIP3   OH255702   3.294   6.210  16.007 -0.0528 -0.0203  0.1327
11404TIP3    H155703   3.327   6.184  16.093  0.9009  1.6752  0.2977
11404TIP3    H255704   3.309   6.134  15.951 -1.9462 -1.6526  1.7658
11405TIP3   OH255705   0.571   1.103  17.078 -0.1582 -0.7084 -0.2380
11405TIP3    H155706   0.604   1.059  17.000  0.0918 -0.7358 -0.1181
11405TIP3    H255707   0.646   1.155  17.109 -0.8076  0.7573 -1.0752
11406TIP3   OH255708   3.701   6.106  10.979 -0.0881  0.2856 -0.4215
11406TIP3    H155709   3.746   6.027  10.951 -0.6769  0.2603 -1.3154
11406TIP3    H255710   3.755   6.141  11.050  2.1025  1.0299 -2.4268
11407TIP3   OH255711   1.307   1.831   2.098  0.4002  0.0262  0.3777
11407TIP3    H155712   1.296   1.746   2.142 -1.2119  0.1963  0.3432
11407TIP3    H255713   1.236   1.885   2.134  1.4259  1.3583  0.4068
11408TIP3   OH255714   3.807   4.194  14.680 -0.4177 -0.6449  0.3084
11408TIP3    H155715   3.743   4.207  14.610 -0.4229  0.0120  0.4309
11408TIP3    H255716   3.839   4.105  14.668 -0.3613 -0.5043 -0.5878
11409TIP3   OH255717   1.600   0.442   3.247  0.1232  0.1559 -0.4362
11409TIP3    H155718   1.594   0.517   3.306 -0.9294  0.1944 -0.5903
11409TIP3    H255719   1.578   0.367   3.302 -0.2664  0.1213 -0.6433
11410TIP3   OH255720   0.459   4.721   5.219  0.7225  0.2372  0.0309
11410TIP3    H155721   0.376   4.681   5.195  1.4706 -2.2906  1.5094
11410TIP3    H255722   0.468   4.795   5.159 -1.0672 -1.3364 -2.2803
11411TIP3   OH255723   0.134   3.639  16.607  0.6336  1.0952  0.2800
11411TIP3    H155724   0.081   3.639  16.528  2.5034  1.4679 -0.9954
11411TIP3    H255725   0.117   3.553  16.647 -2.2509  1.8570  0.8691
11412TIP3   OH255726   2.179   2.023   5.928 -0.4270 -0.2116  0.3799
11412TIP3    H155727   2.219   2.106   5.954  0.4064 -0.4102 -0.2149
11412TIP3    H255728   2.166   1.975   6.010 -0.0885  0.1513  0.6460
11413TIP3   OH255729   4.706   6.406  15.265  0.3542 -0.0542  0.3269
11413TIP3    H155730   4.727   6.331  15.210 -0.1020  0.3011 -0.3349
11413TIP3    H255731   4.615   6.394  15.290  0.6779 -0.4279  1.3522
11414TIP3   OH255732   0.880   1.578  16.579 -0.3444 -0.2648 -0.1465
11414TIP3    H155733   0.819   1.650  16.566  0.8080  0.7530  0.0641
11414TIP3    H255734   0.855   1.514  16.511 -0.8306  0.6864 -0.8791
11415TIP3   OH255735   0.112   2.920   1.215  0.5132 -0.3845 -0.2664
11415TIP3    H155736   0.033   2.942   1.264  0.8401 -0.0795  0.1223
11415TIP3    H255737   0.143   2.839   1.254  0.7061 -0.2056 -0.0483
11416TIP3   OH255738   6.777   4.191   0.910 -0.2898 -0.1094 -0.5499
11416TIP3    H155739   6.738   4.180   0.824 -2.0441 -0.3245  0.2419
11416TIP3    H255740   6.703   4.212   0.968  0.7915 -0.3455  0.9671
11417TIP3   OH255741   3.161   2.089   3.787 -0.8621 -0.1303  0.1933
11417TIP3    H155742   3.106   2.098   3.708 -1.8116 -1.4164  0.6861
11417TIP3    H255743   3.246   2.124   3.761 -1.1383 -0.6309 -1.4479
11418TIP3   OH255744   5.638   4.639   5.305  0.3270  0.1561 -0.0122
11418TIP3    H155745   5.559   4.631   5.358 -0.5181  0.8026 -1.1488
11418TIP3    H255746   5.690   4.561   5.326 -1.2102 -0.9424 -0.2272
11419TIP3   OH255747   5.768   4.221  12.763  0.0415 -0.0826  0.1909
11419TIP3    H155748   5.810   4.229  12.848 -0.9219 -0.1257  0.6830
11419TIP3    H255749   5.681   4.187  12.782 -0.2848  0.1691 -0.7867
11420TIP3   OH255750   3.917   5.460   1.581 -0.7922  0.0012  0.5006
11420TIP3    H155751   3.994   5.425   1.537 -1.2060  0.8761 -0.9896
11420TIP3    H255752   3.884   5.389   1.635  0.2414 -0.8351  0.0274
11421TIP3   OH255753   5.306   4.411  11.066  0.2657  0.3846 -0.3396
11421TIP3    H155754   5.212   4.395  11.073  0.5269 -1.7555 -1.4458
11421TIP3    H255755   5.313   4.506  11.052 -1.7939  0.4042 -1.4442
11422TIP3   OH255756   2.549   5.613  10.545  0.6510 -0.0627 -0.2736
11422TIP3    H155757   2.627   5.650  10.503  2.2461 -0.5622  2.1213
11422TIP3    H255758   2.538   5.527  10.505  0.5871  0.5062 -1.4944
11423TIP3   OH255759   5.463   4.766   3.937  0.3211  0.2369  0.7886
11423TIP3    H155760   5.445   4.673   3.920 -1.6436  0.3677  1.9755
11423TIP3    H255761   5.441   4.778   4.029 -2.5298  2.5543 -0.1181
11424TIP3   OH255762   5.684   2.557   4.672 -0.3330  0.2079 -0.0931
11424TIP3    H155763   5.757   2.523   4.723 -0.9727  0.4239  0.9750
11424TIP3    H255764   5.677   2.649   4.698 -1.7985 -0.1361  0.7820
11425TIP3   OH255765   0.470   0.276  14.884 -0.1764 -0.0162 -0.1867
11425TIP3    H155766   0.432   0.361  14.862  0.5079  0.4620  0.5000
11425TIP3    H255767   0.469   0.228  14.801 -0.6774  0.6099 -0.5493
11426TIP3   OH255768   2.500   6.083   6.602  0.3225  0.4995 -0.4446
11426TIP3    H155769   2.442   6.120   6.670  1.8608  2.7877 -0.3128
11426TIP3    H255770   2.518   5.994   6.632  2.1750  1.9383  2.9998
11427TIP3   OH255771   5.585   3.343  13.742  0.1460  0.2743 -0.6884
11427TIP3    H155772   5.649   3.272  13.737  0.8589  0.9699 -1.8483
11427TIP3    H255773   5.509   3.304  13.785  0.7666 -0.9985 -0.7046
11428TIP3   OH255774   6.052   6.080  16.619 -0.4306 -0.1616  0.1015
11428TIP3    H155775   6.131   6.078  16.565  0.0750  0.0857  0.8340
11428TIP3    H255776   5.980   6.082  16.555  0.1345 -0.7332 -0.5666
11429TIP3   OH255777   2.729   0.171   2.166 -0.1028  0.4020 -0.8247
11429TIP3    H155778   2.653   0.150   2.220  1.1457  0.8172  1.1271
11429TIP3    H255779   2.718   0.116   2.088 -0.5813 -2.1865  0.9918
11430TIP3   OH255780   3.740   1.852  15.364  0.2950 -0.1062 -0.0392
11430TIP3    H155781   3.713   1.925  15.420  0.7769 -2.0277  2.7544
11430TIP3    H255782   3.661   1.831  15.314 -0.0714  1.7916 -0.3072
11431TIP3   OH255783   1.997   5.387  10.964  0.0942  0.2094 -0.0491
11431TIP3    H155784   2.093   5.385  10.965  0.1030  0.9179  0.7787
11431TIP3    H255785   1.971   5.317  11.023  0.0938  0.0538 -0.2305
11432TIP3   OH255786   6.242   0.786  11.344  0.6294 -0.1967 -0.0988
11432TIP3    H155787   6.159   0.833  11.334 -0.4539 -1.4257  2.6126
11432TIP3    H255788   6.308   0.854  11.350 -0.3427  0.8322 -0.8121
11433TIP3   OH255789   3.728   1.381   3.352 -0.0210 -0.4746 -0.3048
11433TIP3    H155790   3.816   1.352   3.328 -0.0266 -0.3417 -0.4885
11433TIP3    H255791   3.729   1.386   3.447  0.1135 -0.6576 -0.2977
11434TIP3   OH255792   2.194   5.966   5.769 -0.5084 -0.6184 -0.1210
11434TIP3    H155793   2.181   5.969   5.674 -0.5051  1.2848 -0.0854
11434TIP3    H255794   2.282   5.932   5.780 -0.0415  0.3150 -0.8638
11435TIP3   OH255795   1.236   6.064   2.795 -0.3829 -0.1896 -0.0351
11435TIP3    H155796   1.311   6.068   2.735 -0.4078  2.9884  0.0619
11435TIP3    H255797   1.178   6.134   2.765 -1.0390  0.5638  2.8657
11436TIP3   OH255798   0.758   2.587   0.054 -0.4789  0.2302  0.0422
11436TIP3    H155799   0.698   2.577  -0.020 -1.0394  0.5500  0.4414
11436TIP3    H255800   0.788   2.498   0.072 -0.7540  0.0784 -0.2358
11437TIP3   OH255801   2.774   2.948   5.846 -0.2961  0.3306 -0.1069
11437TIP3    H155802   2.746   2.940   5.755  0.3392 -0.6962 -0.2177
11437TIP3    H255803   2.844   3.014   5.843 -0.3054  0.3292 -0.3506
11438TIP3   OH255804   3.503   3.864   1.890  0.4209 -0.1406  0.1747
11438TIP3    H155805   3.472   3.923   1.822  1.3064 -0.2482 -0.3265
11438TIP3    H255806   3.445   3.881   1.964  0.4547  1.1168 -0.0727
11439TIP3   OH255807   3.044   2.262  15.329  0.4656  0.1333  0.2431
11439TIP3    H155808   2.996   2.257  15.412 -0.1592  0.8536 -0.0683
11439TIP3    H255809   3.033   2.175  15.290  0.8385 -0.2412  0.9448
11440TIP3   OH255810   4.320   5.347   0.651  0.7024 -0.0201 -0.6328
11440TIP3    H155811   4.292   5.388   0.732 -0.8401 -0.6959 -0.7931
11440TIP3    H255812   4.295   5.409   0.582  0.8143 -0.0329 -0.6859
11441TIP3   OH255813   0.585   5.115   4.623 -0.0288 -0.0611  0.3051
11441TIP3    H155814   0.565   5.191   4.569  0.6975  0.5565  0.8935
11441TIP3    H255815   0.625   5.152   4.702  0.3192 -1.0491  0.5946
11442TIP3   OH255816   1.608   5.699   2.467 -0.1582  0.2091  0.1834
11442TIP3    H155817   1.661   5.653   2.532 -0.4483 -1.3135 -0.6270
11442TIP3    H255818   1.552   5.757   2.519  0.9240  0.4116  1.1612
11443TIP3   OH255819   5.410   1.907   6.225  0.2089  0.9686  0.4309
11443TIP3    H155820   5.324   1.940   6.249  0.0682  0.9697 -0.0628
11443TIP3    H255821   5.440   1.859   6.302 -1.4367 -1.4500 -0.3672
11444TIP3   OH255822   4.258   5.703  14.583 -0.0566  0.2799  0.3393
11444TIP3    H155823   4.233   5.766  14.651 -0.9315  1.4742 -1.0633
11444TIP3    H255824   4.318   5.751  14.527 -1.5588  0.2423 -1.3503
11445TIP3   OH255825   1.374   3.411   4.978  0.0163  0.5313  0.0630
11445TIP3    H155826   1.420   3.351   5.036  0.5983  1.9803  1.1217
11445TIP3    H255827   1.433   3.486   4.968 -1.7008  2.0473  0.7894
11446TIP3   OH255828   0.837   1.082   4.254  1.1040  0.2703  0.1492
11446TIP3    H155829   0.761   1.043   4.211  0.6011  1.1022  0.2747
11446TIP3    H255830   0.912   1.035   4.217  0.6125  0.3279 -0.9212
11447TIP3   OH255831   1.977   1.438  12.376 -0.1479 -0.1458  0.3518
11447TIP3    H155832   1.978   1.392  12.460  1.7820  2.2388  1.7304
11447TIP3    H255833   2.054   1.406  12.329 -1.4596 -1.7868 -0.7154
11448TIP3   OH255834   1.500   4.347   4.388 -0.1884 -0.1350 -0.2635
11448TIP3    H155835   1.446   4.274   4.416 -1.9100  1.5813  1.0097
11448TIP3    H255836   1.588   4.327   4.422 -0.7161 -1.4556  0.3251
11449TIP3   OH255837   6.342   6.236  12.447  0.2858 -0.3959  0.0957
11449TIP3    H155838   6.267   6.277  12.491 -1.0676 -1.3613 -1.2471
11449TIP3    H255839   6.314   6.228  12.356  2.0509 -0.7595 -0.4136
11450TIP3   OH255840   0.932   2.786   3.715 -0.1019  0.0895  0.3609
11450TIP3    H155841   0.948   2.765   3.623  0.7117 -0.8450  0.7143
11450TIP3    H255842   1.009   2.837   3.742  1.0183 -2.0541  1.2993
11451TIP3   OH255843   2.963   0.269   5.320 -0.0498 -0.2109  0.2627
11451TIP3    H155844   2.876   0.231   5.333  0.5855 -1.3510  1.2523
11451TIP3    H255845   2.964   0.346   5.377  0.1830 -1.1819  1.6105
11452TIP3   OH255846   2.289   0.009   1.601  0.1481 -0.0711 -0.1584
11452TIP3    H155847   2.358   0.037   1.541  0.6384 -2.8846 -0.9519
11452TIP3    H255848   2.208   0.034   1.557  0.5871  0.6545 -0.5651
11453TIP3   OH255849   2.961   3.326   4.616 -0.1931 -0.4965  0.3877
11453TIP3    H155850   2.965   3.273   4.537  0.2262  0.3429 -0.1637
11453TIP3    H255851   3.048   3.365   4.623 -0.5631  0.2847  0.6569
11454TIP3   OH255852   3.053   2.478   2.142 -0.2771  0.2038 -0.6091
11454TIP3    H155853   3.103   2.495   2.062 -0.4873  1.3273 -0.5182
11454TIP3    H255854   3.118   2.447   2.205 -0.2684 -1.6391 -1.4939
11455TIP3   OH255855   3.048   0.430   1.599 -0.2876  0.4428  0.0076
11455TIP3    H155856   2.957   0.436   1.571  0.2161  1.2273 -1.5548
11455TIP3    H255857   3.098   0.421   1.517  0.9550 -1.0838  0.9045
11456TIP3   OH255858   4.597   3.768   1.125  0.1975  0.0439  0.4879
11456TIP3    H155859   4.657   3.841   1.143  1.6563 -1.2510  1.0500
11456TIP3    H255860   4.654   3.697   1.096 -1.2788 -0.6449 -0.7804
11457TIP3   OH255861   4.768   1.825   1.121 -0.1877  0.1859 -0.4401
11457TIP3    H155862   4.744   1.735   1.097  0.1322  0.2752 -1.1107
11457TIP3    H255863   4.778   1.870   1.037  1.5523  0.3538 -0.1590
11458TIP3   OH255864   0.657   6.062  12.288 -0.1192  0.6320 -0.3504
11458TIP3    H155865   0.614   6.130  12.237  0.9840  0.8213 -1.0644
11458TIP3    H255866   0.716   6.019  12.226  1.1057  0.7315  0.7057
11459TIP3   OH255867   1.984   3.153  13.102  0.2946 -0.2566 -0.0431
11459TIP3    H155868   2.019   3.064  13.102  0.0125 -0.3818  1.4552
11459TIP3    H255869   1.922   3.154  13.175  0.1861  1.1254 -0.1447
11460TIP3   OH255870   3.784   5.506   0.885 -0.0043  0.0140  0.2525
11460TIP3    H155871   3.782   5.412   0.904 -0.8446 -0.0674 -0.2157
11460TIP3    H255872   3.702   5.540   0.919  0.0795  0.4995 -0.0145
11461TIP3   OH255873   4.182   6.307  17.290 -0.3468  0.2845  0.7097
11461TIP3    H155874   4.249   6.309  17.222  0.0776 -1.1074  1.0648
11461TIP3    H255875   4.177   6.397  17.321  1.6874  0.3262  0.9922
11462TIP3   OH255876   5.562   6.568   5.120 -0.2656  0.2344  0.9221
11462TIP3    H155877   5.528   6.499   5.063  1.8918  0.4279 -0.6817
11462TIP3    H255878   5.592   6.522   5.198 -1.4284 -0.2931  1.0637
11463TIP3   OH255879   2.832   0.983  12.957 -0.1114 -0.7022 -0.5465
11463TIP3    H155880   2.817   0.892  12.933 -2.2763 -0.3008 -0.8640
11463TIP3    H255881   2.863   0.979  13.048 -1.3479 -1.7144 -0.1463
11464TIP3   OH255882   1.436   0.990   4.217 -0.2215 -0.2041  0.4664
11464TIP3    H155883   1.471   1.058   4.275 -1.5363 -1.2306  2.5305
11464TIP3    H255884   1.512   0.960   4.166  0.5901  1.9869  0.3544
11465TIP3   OH255885   3.814   0.895  11.447 -0.3697 -0.1261 -0.0409
11465TIP3    H155886   3.859   0.810  11.448  0.7297  0.4372  1.3458
11465TIP3    H255887   3.868   0.950  11.503 -2.3873  0.8106  1.0200
11466TIP3   OH255888   4.832   2.041  12.703 -0.6048 -0.4791  0.4733
11466TIP3    H155889   4.820   1.979  12.631  0.8804  0.2875 -0.4461
11466TIP3    H255890   4.913   2.013  12.745  0.1096  0.8585  0.0149
11467TIP3   OH255891   6.320   4.554   2.916 -0.1476  0.0983  0.6118
11467TIP3    H155892   6.316   4.554   2.821  2.0702  0.8186  0.4812
11467TIP3    H255893   6.327   4.647   2.940 -0.8047 -0.0652  1.5001
11468TIP3   OH255894   2.680   5.422  11.360  0.3261 -0.5805  0.2596
11468TIP3    H155895   2.628   5.344  11.379  1.9503 -1.9020 -0.6161
11468TIP3    H255896   2.617   5.484  11.324 -0.4502 -2.6931 -2.2248
11469TIP3   OH255897   0.177   1.085  14.870 -0.3744 -0.6357 -0.3390
11469TIP3    H155898   0.193   1.068  14.777  1.2915 -1.2496  0.0448
11469TIP3    H255899   0.212   1.008  14.915  1.5370  0.9702  0.9869
11470TIP3   OH255900   2.661   3.004   5.598  0.9768 -0.1212  0.9074
11470TIP3    H155901   2.568   2.986   5.582  0.5679  1.5163  1.3478
11470TIP3    H255902   2.701   2.998   5.511  0.1710  0.7704  0.4598
11471TIP3   OH255903   4.347   3.706  15.895  0.4947 -0.1086 -0.3824
11471TIP3    H155904   4.374   3.723  15.985 -1.1007  0.7065 -0.0505
11471TIP3    H255905   4.370   3.614  15.880 -0.3179 -0.5855  1.2402
11472TIP3   OH255906   6.599   2.255   6.187 -0.2413 -0.2944  0.0687
11472TIP3    H155907   6.679   2.306   6.171  1.2554 -2.8022 -0.7844
11472TIP3    H255908   6.604   2.230   6.279  1.5026 -2.8718 -0.6609
11473TIP3   OH255909   6.088   4.586   4.239 -0.3328 -0.1087  0.3179
11473TIP3    H155910   6.173   4.625   4.260 -0.1053 -0.5661  0.2520
11473TIP3    H255911   6.076   4.518   4.306 -0.0957 -0.8517 -0.3852
11474TIP3   OH255912   6.527   1.942  17.142 -0.4963 -0.1995  0.6835
11474TIP3    H155913   6.574   2.022  17.117 -0.1615 -0.2752  1.0818
11474TIP3    H255914   6.438   1.972  17.161 -0.7343 -0.1242 -0.5135
11475TIP3   OH255915   3.928   5.675  14.500 -0.4143  0.2070 -0.2118
11475TIP3    H155916   3.884   5.754  14.470  0.2008 -0.2011 -2.2019
11475TIP3    H255917   4.021   5.690  14.483 -0.0345 -0.0538  1.4698
11476TIP3   OH255918   5.101   1.901   2.910 -0.2500 -0.3354  0.5289
11476TIP3    H155919   5.188   1.872   2.938  0.7121  1.5286 -0.4967
11476TIP3    H255920   5.100   1.887   2.815 -0.7912  0.3791  0.4261
11477TIP3   OH255921   3.002   0.221  16.350 -0.2001 -0.3908  0.3938
11477TIP3    H155922   2.966   0.146  16.303 -0.3084 -0.6002  0.8071
11477TIP3    H255923   2.925   0.275  16.372 -0.0958 -0.0313 -0.1253
11478TIP3   OH255924   0.815   1.604  15.101 -0.4482  0.4774  0.1030
11478TIP3    H155925   0.801   1.523  15.052  1.6066  0.7111 -0.9639
11478TIP3    H255926   0.777   1.673  15.047  0.1737  0.5154 -0.2973
11479TIP3   OH255927   2.523   2.566  15.258  0.2671  0.0078 -0.2427
11479TIP3    H155928   2.577   2.587  15.181 -2.1096  3.0684 -1.1826
11479TIP3    H255929   2.434   2.560  15.224 -0.9761  2.3255  2.3576
11480TIP3   OH255930   2.576   1.656   0.643 -0.1365  0.8013 -0.0805
11480TIP3    H155931   2.564   1.582   0.702 -2.1353  2.9938  2.3994
11480TIP3    H255932   2.488   1.686   0.624  0.6599  3.3805  0.0874
11481TIP3   OH255933   5.898   4.241   2.795  0.3480  0.2600  0.0411
11481TIP3    H155934   5.950   4.247   2.875 -1.0862  2.6548  0.8676
11481TIP3    H255935   5.922   4.319   2.746 -1.1496  0.4845 -0.3607
11482TIP3   OH255936   0.933   2.054  13.786  0.3754  0.1894 -0.0158
11482TIP3    H155937   1.026   2.044  13.766  0.3050 -0.7292  0.1072
11482TIP3    H255938   0.923   2.147  13.804  0.7329  0.7943 -2.7457
11483TIP3   OH255939   6.355   0.825   2.709 -0.0379  0.1681  0.4232
11483TIP3    H155940   6.276   0.878   2.712 -0.8319 -0.9155 -1.0064
11483TIP3    H255941   6.385   0.820   2.800 -1.5755  0.6175  0.9558
11484TIP3   OH255942   5.091   0.391   5.532 -0.4895  0.0502 -0.0263
11484TIP3    H155943   5.117   0.426   5.448 -0.3199 -3.1546 -1.3669
11484TIP3    H255944   4.999   0.418   5.542  0.0555  2.0674 -0.3034
11485TIP3   OH255945   2.324   3.485   2.220 -0.1523  0.8268 -0.4240
11485TIP3    H155946   2.275   3.541   2.281 -0.9102 -0.1528 -0.1271
11485TIP3    H255947   2.281   3.498   2.136 -1.5033 -0.6749 -0.0044
11486TIP3   OH255948   4.564   4.625   1.988  0.7757 -0.2058 -0.1686
11486TIP3    H155949   4.504   4.679   1.937 -0.0544  0.5652  1.5699
11486TIP3    H255950   4.534   4.535   1.974 -0.2132  0.0979 -0.0514
11487TIP3   OH255951   4.195   5.701  11.209 -0.0452 -0.1363  0.6131
11487TIP3    H155952   4.106   5.736  11.209 -0.8134 -1.9759 -1.6532
11487TIP3    H255953   4.249   5.774  11.180 -0.7856  1.0093  2.0193
11488TIP3   OH255954   3.878   4.255  15.766 -0.3464 -0.3095 -0.0453
11488TIP3    H155955   3.866   4.160  15.761 -0.0309 -0.3043 -1.0545
11488TIP3    H255956   3.846   4.287  15.682 -0.0601  0.4374  0.1316
11489TIP3   OH255957   1.163   5.192  14.140  0.0066 -0.3651 -0.5570
11489TIP3    H155958   1.083   5.164  14.095 -0.4303 -1.7068  1.0178
11489TIP3    H255959   1.204   5.110  14.169  0.9239  0.4135  0.3739
11490TIP3   OH255960   2.021   3.518  16.815  0.0816 -0.4179  0.0387
11490TIP3    H155961   2.084   3.562  16.872  1.3220 -0.9678 -0.8877
11490TIP3    H255962   1.942   3.510  16.868  0.0180  2.4033  0.4132
11491TIP3   OH255963   1.721   3.593  16.684  0.1554 -0.5908  0.0822
11491TIP3    H155964   1.781   3.527  16.650 -0.3038 -0.6659 -0.5921
11491TIP3    H255965   1.638   3.574  16.640 -0.6842 -1.2729  1.9244
11492TIP3   OH255966   6.786   6.067   1.387 -0.6978 -0.0702 -0.4355
11492TIP3    H155967   6.744   5.985   1.413 -1.1161 -0.1178 -1.2448
11492TIP3    H255968   6.715   6.119   1.348 -0.0873  0.0115 -1.4488
11493TIP3   OH255969   2.525   1.213   1.023 -0.1395 -0.3421  0.4433
11493TIP3    H155970   2.576   1.185   1.099  0.0373 -0.5236  0.2558
11493TIP3    H255971   2.565   1.296   0.997  0.9174 -1.1412 -0.5263
11494TIP3   OH255972   6.679   6.621   3.580  0.3769 -0.3593  0.4663
11494TIP3    H155973   6.748   6.556   3.567 -0.0258 -0.4482 -1.3531
11494TIP3    H255974   6.617   6.605   3.508 -0.5050  1.0318  0.8989
11495TIP3   OH255975   0.455   3.214   5.204 -0.3159  0.4753 -0.2555
11495TIP3    H155976   0.465   3.303   5.169 -0.5310  0.5375 -0.1605
11495TIP3    H255977   0.515   3.211   5.278 -0.1674  0.4801 -0.3749
11496TIP3   OH255978   6.784   0.844  11.785  0.4150  0.1619 -0.2847
11496TIP3    H155979   6.799   0.939  11.787 -0.0301  0.2493 -0.9122
11496TIP3    H255980   6.823   0.816  11.702  2.0802 -0.4766  0.6923
11497TIP3   OH255981   2.992   4.611   3.746 -0.0082 -0.0241 -0.4139
11497TIP3    H155982   2.989   4.606   3.841  1.7664 -2.6987 -0.4228
11497TIP3    H255983   2.909   4.574   3.717 -1.1234  2.0388  0.0871
11498TIP3   OH255984   5.973   1.347   3.135 -0.0889 -0.2038  0.2776
11498TIP3    H155985   6.014   1.409   3.194  0.5846 -0.3494 -0.0414
11498TIP3    H255986   5.935   1.400   3.065  1.9638 -0.2756 -0.9011
11499TIP3   OH255987   6.348   2.254  16.718  0.1394 -0.2352  0.1254
11499TIP3    H155988   6.371   2.275  16.628  0.3481  0.3912  0.3281
11499TIP3    H255989   6.395   2.318  16.771  0.1526 -0.7073  0.6926
11500TIP3   OH255990   4.364   1.796  16.537  0.8030  0.0742  0.1979
11500TIP3    H155991   4.419   1.874  16.541  0.3872  0.4223 -0.6269
11500TIP3    H255992   4.376   1.753  16.622  2.3984  0.0927 -0.0093
11501TIP3   OH255993   6.355   0.656  13.278 -0.0007 -0.2694 -0.1210
11501TIP3    H155994   6.377   0.670  13.370  0.0974  1.2104 -0.3551
11501TIP3    H255995   6.416   0.588  13.248  1.6170  0.9870  0.2751
11502TIP3   OH255996   2.423   5.092   3.830 -0.0247  0.4178  0.1164
11502TIP3    H155997   2.422   5.084   3.926 -2.3852  0.2902  0.1041
11502TIP3    H255998   2.379   5.013   3.799  0.3236  0.6854 -1.0537
11503TIP3   OH255999   6.025   4.398   4.447 -0.0501  0.0527 -0.3628
11503TIP3    H156000   6.035   4.310   4.411 -1.9724 -0.4356  0.2248
11503TIP3    H256001   5.971   4.386   4.525 -0.1004  1.7163 -0.1198
11504TIP3   OH256002   1.869   6.394  14.054 -0.4251 -0.2398  0.1373
11504TIP3    H156003   1.946   6.434  14.015  0.0742 -1.8729 -0.5974
11504TIP3    H256004   1.797   6.451  14.028  0.4148  0.8745  0.1830
11505TIP3   OH256005   5.976   2.607  16.995 -0.0587  0.2590  0.1554
11505TIP3    H156006   5.887   2.582  16.970  0.0028  1.1126 -0.9572
11505TIP3    H256007   6.002   2.542  17.060 -0.6181 -1.4227 -1.2653
11506TIP3   OH256008   6.503   4.771  13.877 -0.3744 -0.0794  0.3961
11506TIP3    H156009   6.556   4.778  13.798  2.1479  0.1456  2.0334
11506TIP3    H256010   6.417   4.742  13.847  1.1510 -2.0922 -2.1728
11507TIP3   OH256011   3.179   2.816   6.651  0.0857 -0.1534  0.2215
11507TIP3    H156012   3.093   2.853   6.670 -0.2089 -0.6050 -0.2022
11507TIP3    H256013   3.179   2.803   6.556  1.0370  0.8578  0.0823
11508TIP3   OH256014   6.572   3.054  13.978 -0.3613  0.4794  0.3085
11508TIP3    H156015   6.620   2.971  13.978 -0.5737  0.3576 -0.0955
11508TIP3    H256016   6.580   3.086  13.889  0.8555  1.5534  0.7872
11509TIP3   OH256017   6.791   3.740   2.073  0.1878 -0.4577 -0.1669
11509TIP3    H156018   6.703   3.755   2.107  0.0471 -0.9798 -0.2908
11509TIP3    H256019   6.786   3.768   1.981  1.0533  2.6478  0.7073
11510TIP3   OH256020   0.479   5.730   2.898 -0.4453 -0.1214 -0.4745
11510TIP3    H156021   0.574   5.731   2.889 -0.1949 -0.2875  2.0425
11510TIP3    H256022   0.449   5.798   2.837  1.1533 -1.0756 -2.3787
11511TIP3   OH256023   2.772   2.725  14.207 -0.1243  0.5691  0.2622
11511TIP3    H156024   2.677   2.740  14.203 -0.2601 -0.5969 -1.1903
11511TIP3    H256025   2.782   2.632  14.190  1.2976  0.7223  0.2681
11512TIP3   OH256026   3.463   0.649  12.031  0.3436 -0.1400  0.1303
11512TIP3    H156027   3.502   0.648  12.118  1.8348 -0.1843 -0.5224
11512TIP3    H256028   3.389   0.589  12.037 -0.4960  1.0314  1.7713
11513TIP3   OH256029   0.920   0.517   0.524 -0.1937 -0.4288  0.8459
11513TIP3    H156030   0.894   0.482   0.609  0.6650 -1.4883  0.6799
11513TIP3    H256031   0.844   0.567   0.495 -0.6740 -0.4707  2.0155
11514TIP3   OH256032   6.069   2.528  16.203 -0.3852 -0.1619 -0.0391
11514TIP3    H156033   6.126   2.554  16.277 -0.4705  0.2085 -0.1013
11514TIP3    H256034   6.063   2.433  16.210  1.3855 -0.3644 -0.8526
11515TIP3   OH256035   2.322   3.882  13.697  0.6021  0.1174  0.6548
11515TIP3    H156036   2.230   3.860  13.712 -0.0197  2.2666  0.1727
11515TIP3    H256037   2.329   3.892  13.603  1.1348  0.7840  0.7624
11516TIP3   OH256038   0.580   6.498   3.147  0.0781 -0.5076 -0.0667
11516TIP3    H156039   0.548   6.504   3.057  0.4510 -3.0006 -0.3976
11516TIP3    H256040   0.668   6.537   3.144 -0.9346  1.8389 -0.1899
11517TIP3   OH256041   2.186   3.680  14.973 -0.3449  0.0294  0.2273
11517TIP3    H156042   2.131   3.621  14.922  0.5256 -2.0279  1.6489
11517TIP3    H256043   2.270   3.682  14.926 -0.4456  0.2954  0.0606
11518TIP3   OH256044   6.246   1.305   5.065 -0.2059  0.2937 -0.2747
11518TIP3    H156045   6.323   1.360   5.052  0.1941  0.1169  1.2634
11518TIP3    H256046   6.276   1.234   5.122 -1.1436 -0.5775 -0.8470
11519TIP3   OH256047   1.019   1.312  14.083  0.0573 -0.1570  0.3859
11519TIP3    H156048   0.977   1.227  14.068  0.9812 -0.8534  1.6193
11519TIP3    H256049   1.041   1.312  14.176  0.3075  1.3363  0.3434
11520TIP3   OH256050   6.205   1.835   1.053  0.1944  0.2042  0.4895
11520TIP3    H156051   6.164   1.866   0.972 -0.4823 -0.7640  0.4481
11520TIP3    H256052   6.257   1.909   1.084 -0.1312  0.8295 -0.4421
11521TIP3   OH256053   6.575   2.010   0.943  0.2658 -0.9703  0.7559
11521TIP3    H156054   6.551   1.976   1.029  2.5086 -1.7663  1.1052
11521TIP3    H256055   6.640   2.077   0.961  1.5159 -1.8535 -0.3693
11522TIP3   OH256056   0.341   2.865  14.565 -0.2236  0.0916  0.1031
11522TIP3    H156057   0.423   2.909  14.590 -0.1813 -0.3386  0.7467
11522TIP3    H256058   0.322   2.897  14.477  0.2080  0.8216  0.2712
11523TIP3   OH256059   1.229   0.124   2.156  0.0941 -0.0127 -0.4107
11523TIP3    H156060   1.223   0.031   2.132  0.2812 -0.0748 -0.2175
11523TIP3    H256061   1.315   0.152   2.124 -0.4393  0.3889 -1.4884
11524TIP3   OH256062   6.422   2.351  13.837  0.4033 -0.3765  0.1716
11524TIP3    H156063   6.513   2.328  13.854  0.5090 -0.4243 -0.4472
11524TIP3    H256064   6.396   2.295  13.765  0.0503  0.0210 -0.0128
11525TIP3   OH256065   0.777   5.973   1.584 -0.3941 -0.1929 -0.0334
11525TIP3    H156066   0.839   6.015   1.525  1.4452  1.1950  2.7695
11525TIP3    H256067   0.829   5.946   1.659 -2.7093 -1.5649  1.1513
11526TIP3   OH256068   2.067   3.938   1.276 -0.3525 -0.4816  0.1163
11526TIP3    H156069   1.990   3.995   1.276 -0.0958 -0.1197  1.3078
11526TIP3    H256070   2.141   3.997   1.295  0.4321 -0.5663 -2.4946
11527TIP3   OH256071   6.146   5.768   5.616  0.4235 -0.2172 -0.0573
11527TIP3    H156072   6.130   5.812   5.699 -0.5204 -2.8424  1.1952
11527TIP3    H256073   6.085   5.809   5.555 -0.1605  0.4669  0.9665
11528TIP3   OH256074   1.138   6.129  15.635  0.2492 -0.1877  0.0175
11528TIP3    H156075   1.111   6.113  15.545  0.8186  1.8339 -0.5446
11528TIP3    H256076   1.064   6.176  15.675  0.2812 -0.4502  0.3884
11529TIP3   OH256077   6.590   1.194  12.744  0.2248 -0.1461 -0.1308
11529TIP3    H156078   6.547   1.108  12.745 -0.1603  0.0502  0.0276
11529TIP3    H256079   6.575   1.228  12.656  1.1892 -0.6492 -0.5044
11530TIP3   OH256080   1.704   6.739   2.986 -0.2100 -0.2067 -0.0268
11530TIP3    H156081   1.752   6.790   3.052  0.5795 -1.9470  0.7734
11530TIP3    H256082   1.754   6.753   2.905  0.0810  0.1911  0.2180
11531TIP3   OH256083   5.121   6.435  16.858  0.2241  0.4179 -0.6388
11531TIP3    H156084   5.202   6.405  16.817  0.7476  0.5862  0.2645
11531TIP3    H256085   5.133   6.529  16.869 -0.6875  0.6799 -1.8201
11532TIP3   OH256086   2.866   0.993  16.113 -0.1880 -0.3600  0.0551
11532TIP3    H156087   2.836   0.908  16.082 -2.1435 -0.0918  1.1484
11532TIP3    H256088   2.843   1.054  16.042  2.1446 -0.8490 -1.1821
11533TIP3   OH256089   2.810   4.198  17.046 -0.4268  1.0290  0.1029
11533TIP3    H156090   2.724   4.234  17.028 -0.8141  0.1727  0.1912
11533TIP3    H256091   2.859   4.210  16.965 -0.3829  2.2155  0.3056
11534TIP3   OH256092   2.640   3.339  16.224  0.0189 -0.3251  0.0693
11534TIP3    H156093   2.605   3.288  16.151  1.7800 -1.3521 -0.0969
11534TIP3    H256094   2.563   3.360  16.277 -0.8902 -2.4096 -0.3399
11535TIP3   OH256095   6.021   6.119  11.173 -0.2526  0.2748 -0.1581
11535TIP3    H156096   6.110   6.087  11.183 -0.7442 -0.5953  1.7655
11535TIP3    H256097   5.987   6.073  11.097  0.1133 -1.3527  0.6457
11536TIP3   OH256098   5.567   0.319   5.863  0.0011  0.0159 -0.4235
11536TIP3    H156099   5.556   0.245   5.803  0.6584  0.4107 -1.0397
11536TIP3    H256100   5.615   0.282   5.937 -1.1516 -0.5644  0.0511
11537TIP3   OH256101   6.728   3.317   1.905 -0.0168  0.0911  0.1959
11537TIP3    H156102   6.782   3.311   1.827  0.6994  1.1781  0.5918
11537TIP3    H256103   6.666   3.388   1.886 -1.0019 -0.8266 -0.0704
11538TIP3   OH256104   2.530   1.971   2.219 -0.2304 -0.1863 -0.1019
11538TIP3    H156105   2.595   1.903   2.202 -0.5812 -0.8573  1.2047
11538TIP3    H256106   2.449   1.923   2.238 -1.0377  0.6353 -1.4043
11539TIP3   OH256107   5.139   5.275   0.455 -0.3625 -0.2116  0.5852
11539TIP3    H156108   5.165   5.314   0.371  3.3713 -2.2710  0.6512
11539TIP3    H256109   5.122   5.350   0.512  0.3190  1.2534 -1.0922
11540TIP3   OH256110   6.580   4.775   2.228  0.6161  0.5220 -0.3020
11540TIP3    H156111   6.508   4.830   2.196 -0.6213  0.3088  2.0477
11540TIP3    H256112   6.558   4.687   2.198  0.0448  0.5062  0.1549
11541TIP3   OH256113   6.430   2.129  13.337 -0.3060  0.5348 -0.0694
11541TIP3    H156114   6.336   2.117  13.326  0.0281  0.2441 -2.8934
11541TIP3    H256115   6.454   2.194  13.271  1.6099 -0.0784 -0.0006
11542TIP3   OH256116   2.875   3.135  11.204 -0.0476  0.1661  0.1993
11542TIP3    H156117   2.943   3.093  11.151 -1.5158 -0.7406 -0.9765
11542TIP3    H256118   2.868   3.224  11.168  0.5236  0.2706  0.3393
11543TIP3   OH256119   5.504   2.863  14.604 -0.1674 -0.2974 -0.0325
11543TIP3    H156120   5.584   2.913  14.619 -0.3939 -0.1709  0.8041
11543TIP3    H256121   5.530   2.794  14.543  1.0552 -1.4030  1.6850
11544TIP3   OH256122   4.825   3.641   5.115 -0.0303  0.2017  0.5014
11544TIP3    H156123   4.772   3.721   5.113  1.1376  1.0301  2.2883
11544TIP3    H256124   4.760   3.570   5.121 -1.0660  0.9869 -1.0365
11545TIP3   OH256125   2.073   6.207  16.024 -0.0342  0.0856 -0.5908
11545TIP3    H156126   2.034   6.294  16.011 -0.9847 -0.4853 -1.5928
11545TIP3    H256127   2.056   6.161  15.943  1.4007 -0.7025 -0.4547
11546TIP3   OH256128   5.922   4.054  15.156  0.3927  0.2642 -0.0817
11546TIP3    H156129   5.935   4.079  15.247 -0.0210 -0.2508  0.1226
11546TIP3    H256130   6.003   4.010  15.131  0.1082 -0.5345  0.3646
11547TIP3   OH256131   0.466   3.618   0.896 -0.2028  0.0770  0.5086
11547TIP3    H156132   0.547   3.583   0.933 -0.7463 -1.1652  0.5463
11547TIP3    H256133   0.472   3.712   0.912  0.7438 -0.1264  1.4596
11548TIP3   OH256134   6.080   5.679   0.442 -0.1760  0.6562 -0.4531
11548TIP3    H156135   5.989   5.649   0.442 -0.3190  1.0809 -0.0226
11548TIP3    H256136   6.087   5.735   0.365  0.2358 -0.9137 -1.5565
11549TIP3   OH256137   5.632   0.564  15.371 -0.7747  0.4995  0.5393
11549TIP3    H156138   5.703   0.628  15.379  0.3963 -0.6216 -0.7046
11549TIP3    H256139   5.556   0.608  15.410 -0.0018  2.6517 -0.2992
11550TIP3   OH256140   2.259   2.541   3.173 -0.0106  0.4732  0.0846
11550TIP3    H156141   2.291   2.618   3.220 -0.8957  0.3071  0.9868
11550TIP3    H256142   2.167   2.533   3.200  0.0147 -0.7742 -0.1699
11551TIP3   OH256143   1.488   5.070   2.925 -0.7450 -0.2452 -0.7456
11551TIP3    H156144   1.407   5.091   2.879 -3.1443 -0.1783  3.2982
11551TIP3    H256145   1.496   5.136   2.994  1.7011 -1.4231  0.1885
11552TIP3   OH256146   1.804   1.624  11.048  0.0743  0.5908 -0.3801
11552TIP3    H156147   1.833   1.535  11.031 -3.9010 -0.7935 -0.3852
11552TIP3    H256148   1.812   1.668  10.964  0.0022 -0.3650 -0.8913
11553TIP3   OH256149   0.349   6.772   2.062  0.4684  0.5475  0.2886
11553TIP3    H156150   0.373   6.863   2.049  2.1658  0.1270  0.3944
11553TIP3    H256151   0.390   6.725   1.990 -1.1816 -0.0275 -0.3086
11554TIP3   OH256152   3.449   4.682   1.620 -0.2014  0.0705 -0.0398
11554TIP3    H156153   3.379   4.731   1.662  0.5196  0.9204  0.1974
11554TIP3    H256154   3.517   4.674   1.687 -0.4929 -1.6513  0.0597
11555TIP3   OH256155   4.663   0.689   5.756  0.3466  0.3157 -0.7780
11555TIP3    H156156   4.740   0.744   5.770  0.2178  0.5629 -1.0377
11555TIP3    H256157   4.590   0.741   5.789  0.6193 -1.0694  2.1612
11556TIP3   OH256158   5.083   4.829  16.607  0.4855  0.4630 -0.8219
11556TIP3    H156159   5.019   4.852  16.674  0.1537 -1.4931 -0.4328
11556TIP3    H256160   5.142   4.767  16.651  0.2913 -0.8108 -2.3305
11557TIP3   OH256161   0.423   3.034  11.147 -0.3548 -0.1112  0.2650
11557TIP3    H156162   0.414   2.953  11.097 -0.4115  0.5446 -0.8002
11557TIP3    H256163   0.491   3.083  11.101  0.7923 -0.2242  1.8091
11558TIP3   OH256164   4.943   6.349  15.090 -0.4593  0.2003  0.2753
11558TIP3    H156165   5.029   6.322  15.057 -0.5703 -0.4567  0.5050
11558TIP3    H256166   4.962   6.402  15.168 -0.2090  1.5239 -0.6757
11559TIP3   OH256167   0.316   0.060   1.780  0.4002 -0.2167  0.1908
11559TIP3    H156168   0.374  -0.015   1.771 -0.9768 -1.1812 -0.8664
11559TIP3    H256169   0.240   0.039   1.726 -1.5521  0.4217  2.5406
11560TIP3   OH256170   2.744   6.794  12.763  0.1533  0.1922  0.4093
11560TIP3    H156171   2.810   6.853  12.800  0.9065 -1.5198  1.8573
11560TIP3    H256172   2.683   6.778  12.835 -0.4356 -0.2532 -0.1820
11561TIP3   OH256173   1.357   4.631  11.856  0.7553  0.5349 -0.0614
11561TIP3    H156174   1.262   4.622  11.847  0.7344  0.2646  0.4089
11561TIP3    H256175   1.386   4.665  11.772  0.1600  1.2318  0.0108
11562TIP3   OH256176   2.966   4.928   4.779  0.4024 -0.7252  0.3824
11562TIP3    H156177   2.904   4.985   4.826  0.1298 -0.9570  0.3081
11562TIP3    H256178   2.943   4.940   4.687  0.0234 -1.3163  0.3938
11563TIP3   OH256179   1.507   0.757  13.276 -0.1163 -0.4843 -0.1159
11563TIP3    H156180   1.436   0.693  13.273 -1.3780  0.8459  0.9488
11563TIP3    H256181   1.464   0.842  13.261  1.1712  0.3774  0.9831
11564TIP3   OH256182   0.600   5.678   5.289 -0.2872  0.5609 -0.0667
11564TIP3    H156183   0.615   5.682   5.384  0.3801  1.1772 -0.1965
11564TIP3    H256184   0.663   5.739   5.252 -2.0501  1.9971 -0.7535
11565TIP3   OH256185   6.678   4.152   0.385 -0.3716  0.5956 -0.8091
11565TIP3    H156186   6.734   4.103   0.324 -0.5888  1.7010 -1.9261
11565TIP3    H256187   6.595   4.162   0.338 -0.7402  0.9544 -0.0877
11566TIP3   OH256188   0.777   1.028   1.000 -0.1852  0.2085  0.0492
11566TIP3    H156189   0.698   0.977   1.013  0.2506 -0.8596 -1.3645
11566TIP3    H256190   0.845   0.963   0.978  0.7559  1.2261 -0.1181
11567TIP3   OH256191   2.586   6.687  16.692  0.7722  0.1936 -0.3456
11567TIP3    H156192   2.616   6.753  16.630 -0.9840 -0.0304 -1.4828
11567TIP3    H256193   2.531   6.735  16.754 -0.0249 -0.0703 -0.8313
11568TIP3   OH256194   3.913   3.185  12.904 -0.4317  0.2108  0.0649
11568TIP3    H156195   3.956   3.206  12.821 -0.3793 -2.5635 -0.6524
11568TIP3    H256196   3.984   3.183  12.968  0.0435 -0.8991 -0.4700
11569TIP3   OH256197   3.899   4.300  15.272  0.3848 -0.3266  0.1454
11569TIP3    H156198   3.812   4.323  15.304 -0.1272 -2.3820  0.3084
11569TIP3    H256199   3.882   4.240  15.199  1.6289  0.8549 -1.1202
11570TIP3   OH256200   3.188   4.824  12.707  0.3810  0.2424  0.0474
11570TIP3    H156201   3.213   4.823  12.799  0.6937  0.3644 -0.0380
11570TIP3    H256202   3.257   4.872  12.663 -0.7231  1.8539  0.0287
11571TIP3   OH256203   3.593   3.124  17.257 -0.5969  0.1923  0.4276
11571TIP3    H156204   3.586   3.157  17.168  0.6549  1.2236  0.6964
11571TIP3    H256205   3.598   3.029  17.248 -2.5273  0.1641 -0.4650
11572TIP3   OH256206   1.617   4.328  14.790  0.4809  0.1697 -0.3264
11572TIP3    H156207   1.682   4.343  14.721  0.1110  0.4545 -0.6130
11572TIP3    H256208   1.632   4.399  14.852  2.0731 -1.1390  0.8616
11573TIP3   OH256209   3.059   0.352   5.916  0.6160 -0.5811 -0.0976
11573TIP3    H156210   3.090   0.411   5.984 -1.2080  0.1255  0.1653
11573TIP3    H256211   3.100   0.268   5.936  0.0408 -0.4023  1.9305
11574TIP3   OH256212   5.447   0.038  15.713 -0.5123 -0.3735 -0.7845
11574TIP3    H156213   5.433   0.132  15.701 -2.6244 -0.2528  2.1007
11574TIP3    H256214   5.420  -0.001  15.630 -1.3470  1.4237 -1.3761
11575TIP3   OH256215   2.869   0.921  15.390 -0.6836  0.3799  0.5918
11575TIP3    H156216   2.944   0.912  15.331 -1.3637 -2.4447  0.0683
11575TIP3    H256217   2.794   0.898  15.335 -1.7945  1.9034  1.4603
11576TIP3   OH256218   0.977   3.193  14.540 -0.0232  0.6369  0.1247
11576TIP3    H156219   0.968   3.208  14.634 -0.0685 -0.9646  0.3959
11576TIP3    H256220   0.991   3.280  14.503 -1.2504  1.4374  1.4684
11577TIP3   OH256221   1.600   3.457   5.460  0.3797 -0.0409  0.5415
11577TIP3    H156222   1.544   3.507   5.519 -1.0195 -0.5808 -0.3088
11577TIP3    H256223   1.677   3.434   5.513 -0.2404  0.6310  1.7419
11578TIP3   OH256224   4.561   6.328  12.803  0.0194 -0.0359 -0.2573
11578TIP3    H156225   4.627   6.264  12.774  0.9679  1.1303 -0.6969
11578TIP3    H256226   4.525   6.364  12.722 -1.7621 -1.2389 -0.0387
11579TIP3   OH256227   4.089   4.468  14.399 -0.1618 -0.0950  0.1089
11579TIP3    H156228   4.151   4.471  14.326  0.6589 -0.3629  0.7870
11579TIP3    H256229   4.101   4.551  14.444  0.9325 -0.8441  1.2298
11580TIP3   OH256230   3.604   2.042   2.772  0.2544  0.5147  0.0719
11580TIP3    H156231   3.581   2.130   2.800 -1.5453 -0.0124  0.3232
11580TIP3    H256232   3.686   2.052   2.725  0.3601  2.2353  0.6105
11581TIP3   OH256233   2.018   3.779   3.466  0.3708  0.1482  0.1534
11581TIP3    H156234   2.014   3.763   3.371  0.6460 -0.9501  0.3262
11581TIP3    H256235   2.107   3.812   3.481  1.1180 -1.8719  0.3492
11582TIP3   OH256236   1.552   5.375  17.117  0.2643 -0.0808 -0.0269
11582TIP3    H156237   1.623   5.360  17.055 -0.5927  0.1738 -1.0885
11582TIP3    H256238   1.475   5.391  17.062 -0.2321  1.5090  1.0859
11583TIP3   OH256239   1.339   0.672   2.220 -0.1411  0.7118  0.4070
11583TIP3    H156240   1.297   0.621   2.289 -0.7228  0.9841  0.2636
11583TIP3    H256241   1.405   0.613   2.183  0.4594  0.7118  1.4667
11584TIP3   OH256242   0.961   0.490  14.500 -0.3664  0.4532 -0.9340
11584TIP3    H156243   1.004   0.569  14.533  1.5829 -0.9453 -0.0747
11584TIP3    H256244   0.997   0.479  14.412 -2.4258  1.8031 -2.0172
11585TIP3   OH256245   3.621   0.978   4.101 -0.1861 -0.0052 -0.0117
11585TIP3    H156246   3.530   0.960   4.076 -0.4551 -1.7426  2.0726
11585TIP3    H256247   3.665   0.893   4.095  0.5761  0.2292  1.8198
11586TIP3   OH256248   3.819   4.980  15.747 -0.7822  0.0103 -0.4039
11586TIP3    H156249   3.902   4.989  15.795 -1.1814  0.3403  0.2325
11586TIP3    H256250   3.837   4.913  15.681 -0.0970 -0.1422 -0.0688
11587TIP3   OH256251   4.039   0.303  11.585  0.5315  0.8096  0.2062
11587TIP3    H156252   4.060   0.344  11.669  0.3150 -0.6789  1.0201
11587TIP3    H256253   4.095   0.226  11.582 -0.9602 -0.3038 -0.0325
11588TIP3   OH256254   4.717   1.781  13.054 -0.3147 -0.4159  0.4198
11588TIP3    H156255   4.647   1.759  13.116 -0.4124  1.4493  0.9802
11588TIP3    H256256   4.671   1.792  12.971 -0.5157 -0.4703  0.5211
11589TIP3   OH256257   6.783   2.917  13.446  0.6541 -0.0298  0.4780
11589TIP3    H156258   6.706   2.920  13.503 -0.2324  0.8487 -0.7642
11589TIP3    H256259   6.789   2.825  13.419 -1.6969  0.4273 -1.7610
11590TIP3   OH256260   4.882   5.511  16.556  0.4168  0.7831 -0.0293
11590TIP3    H156261   4.819   5.453  16.515  0.4675  0.0500  0.9121
11590TIP3    H256262   4.864   5.597  16.518 -1.2555  0.6122  0.3647
11591TIP3   OH256263   3.415   5.048   0.308  0.3942  0.3126 -0.0117
11591TIP3    H156264   3.373   5.070   0.391 -1.8063 -0.9086 -0.7767
11591TIP3    H256265   3.459   4.965   0.324  0.6045  0.4539  0.1445
11592TIP3   OH256266   0.723   5.764   3.881 -0.5618  0.4501 -0.2967
11592TIP3    H156267   0.756   5.705   3.949  2.6009 -0.6192 -2.6212
11592TIP3    H256268   0.760   5.849   3.903  1.5933 -0.1750 -1.3557
11593TIP3   OH256269   2.810   0.358   1.194  0.0737 -0.0407  0.1331
11593TIP3    H156270   2.772   0.414   1.262 -1.9900 -0.2836 -0.7907
11593TIP3    H256271   2.772   0.272   1.209  0.1061 -0.2465 -0.9152
11594TIP3   OH256272   1.828   2.881   2.269 -0.3734  0.1673  0.0732
11594TIP3    H156273   1.918   2.873   2.237 -0.4213  0.8313 -0.2447
11594TIP3    H256274   1.806   2.793   2.300  0.1515 -0.1657 -0.4670
11595TIP3   OH256275   5.492   1.789  16.477  0.1676 -0.0168 -0.0485
11595TIP3    H156276   5.547   1.721  16.516 -1.1432 -0.6307  0.7579
11595TIP3    H256277   5.435   1.743  16.417 -0.6425  0.3777  0.4038
11596TIP3   OH256278   2.510   3.987  17.022  0.0572 -0.9117  0.1059
11596TIP3    H156279   2.441   3.926  17.001 -1.5920  0.7806  0.4603
11596TIP3    H256280   2.587   3.932  17.040 -1.5403 -2.8847  1.0779
11597TIP3   OH256281   6.617   6.276  14.944  0.2888  0.8034  0.6247
11597TIP3    H156282   6.632   6.333  14.868 -0.9905  0.6343  0.2392
11597TIP3    H256283   6.704   6.248  14.971  0.6647 -0.4428 -1.7928
11598TIP3   OH256284   6.469   2.888  11.395  0.0354  0.5842 -0.1409
11598TIP3    H156285   6.556   2.849  11.384 -0.2347  0.6286 -2.6343
11598TIP3    H256286   6.410   2.826  11.352 -0.7136  2.4657 -1.8541
11599TIP3   OH256287   5.862   5.618   4.896  0.0678 -0.2521 -0.1285
11599TIP3    H156288   5.864   5.653   4.985  1.1452  0.2065 -0.3214
11599TIP3    H256289   5.770   5.621   4.871  0.3421  4.4307 -0.9038
11600TIP3   OH256290   4.295   1.645  15.248 -0.2703 -0.2766  0.2746
11600TIP3    H156291   4.321   1.672  15.336 -0.4779 -2.5559  1.0806
11600TIP3    H256292   4.324   1.716  15.191  1.9502  0.1781  1.9116
11601TIP3   OH256293   5.906   2.241   3.958 -0.3553  0.1945 -0.4714
11601TIP3    H156294   5.907   2.145   3.954  0.6493  0.2320 -1.7076
11601TIP3    H256295   5.832   2.266   3.902 -1.8862  0.1127  1.4620
11602TIP3   OH256296   5.400   1.469  17.189 -0.0776 -0.2127 -0.0182
11602TIP3    H156297   5.364   1.384  17.217 -0.1882  0.0764  0.7308
11602TIP3    H256298   5.488   1.447  17.158 -0.6622 -0.8286 -1.2983
11603TIP3   OH256299   4.787   6.124   4.164  0.5150 -0.1137  0.6141
11603TIP3    H156300   4.856   6.187   4.185 -0.0388  0.1524  1.6828
11603TIP3    H256301   4.709   6.177   4.153  0.3201 -0.4879  0.1819
11604TIP3   OH256302   1.349   3.868  13.848  0.2121 -0.8928 -0.6162
11604TIP3    H156303   1.395   3.803  13.794  0.4486 -1.3507  0.1249
11604TIP3    H256304   1.304   3.815  13.914 -0.5057 -0.3723 -0.6881
11605TIP3   OH256305   0.879   3.675  11.551  0.5263 -0.0703  0.6757
11605TIP3    H156306   0.789   3.699  11.530  0.4754  1.2171  2.2455
11605TIP3    H256307   0.915   3.640  11.470 -1.1156  0.2165 -0.1893
11606TIP3   OH256308   4.766   2.888  14.966  0.7562  0.0133  0.1671
11606TIP3    H156309   4.689   2.858  15.014  0.5721 -0.6635 -0.5514
11606TIP3    H256310   4.739   2.889  14.875  1.6023 -0.2481 -0.0958
11607TIP3   OH256311   2.848   3.871   4.128  0.1714 -0.4175  0.3685
11607TIP3    H156312   2.940   3.844   4.127 -0.2917 -1.9927 -1.9243
11607TIP3    H256313   2.819   3.857   4.218  1.6118 -1.8377  0.6163
11608TIP3   OH256314   0.248   5.295  13.212  0.0489  0.2862 -0.1443
11608TIP3    H156315   0.221   5.219  13.264  0.9130 -0.0862 -0.2365
11608TIP3    H256316   0.169   5.349  13.207 -0.1694  0.1178  1.1795
11609TIP3   OH256317   2.441   4.960  12.175 -0.4424  0.1962  0.0573
11609TIP3    H156318   2.424   4.890  12.112  0.2346  0.8191 -0.8110
11609TIP3    H256319   2.377   5.028  12.154 -0.8776 -0.0151  0.6869
11610TIP3   OH256320   1.380   5.223  11.294  0.2966  0.6110 -0.1110
11610TIP3    H156321   1.379   5.273  11.212  0.6604  1.2524  0.2639
11610TIP3    H256322   1.292   5.187  11.301  0.7965 -0.9473 -1.6771
11611TIP3   OH256323   1.888   2.443   1.503 -0.3824  0.2843 -0.1292
11611TIP3    H156324   1.927   2.393   1.431  2.2685  0.7452  0.9182
11611TIP3    H256325   1.879   2.531   1.469  0.3395  0.3720 -0.1068
11612TIP3   OH256326   3.573   2.399   0.509  0.0671  0.6346  0.8954
11612TIP3    H156327   3.619   2.320   0.482  0.1911  0.7605  0.7366
11612TIP3    H256328   3.634   2.470   0.490 -0.9657  0.9957 -1.2261
11613TIP3   OH256329   1.921   0.947  11.682  0.4364 -0.7893  0.2493
11613TIP3    H156330   1.886   0.875  11.736 -0.8571 -1.3750 -1.3131
11613TIP3    H256331   2.000   0.912  11.642  1.1411 -0.5111  1.3842
11614TIP3   OH256332   4.261   1.325  15.508  0.5030  0.3256 -0.2551
11614TIP3    H156333   4.272   1.327  15.603  1.0195  3.8120 -0.3303
11614TIP3    H256334   4.202   1.398  15.490 -0.0279 -0.6585 -2.5738
11615TIP3   OH256335   0.406   4.969   3.843 -0.1571 -0.2081  0.3678
11615TIP3    H156336   0.344   4.918   3.792 -0.2413 -0.3973  0.6621
11615TIP3    H256337   0.491   4.952   3.802 -0.2672 -0.1235  0.1047
11616TIP3   OH256338   2.103   1.668   2.708 -0.1068 -0.2132  0.6548
11616TIP3    H156339   2.024   1.613   2.706  0.2939 -0.7836  0.3546
11616TIP3    H256340   2.142   1.650   2.794  0.2185 -0.6799  0.4124
11617TIP3   OH256341   5.195   0.990  14.429 -0.8044 -0.2216  0.4488
11617TIP3    H156342   5.139   0.913  14.423 -0.7971 -0.2607  0.8338
11617TIP3    H256343   5.167   1.034  14.509 -0.7816  0.1554  0.2494
11618TIP3   OH256344   5.273   2.944  11.615 -0.4528 -0.4534  0.0869
11618TIP3    H156345   5.218   2.953  11.538 -0.6362 -0.3071  0.2331
11618TIP3    H256346   5.260   2.854  11.644 -0.1984 -0.5782 -0.1958
11619TIP3   OH256347   6.079   2.495  13.971 -0.3643  0.0499  0.1310
11619TIP3    H156348   6.045   2.410  13.944  0.8374 -0.9437  1.6723
11619TIP3    H256349   6.020   2.522  14.042  0.1822 -0.2363  0.7002
11620TIP3   OH256350   0.454   4.999  12.178  0.0956  0.5469 -0.5076
11620TIP3    H156351   0.502   5.028  12.101 -0.6107  2.7048 -0.1575
11620TIP3    H256352   0.382   5.061  12.187 -0.4426 -0.2873  1.2970
11621TIP3   OH256353   0.711   3.528  16.481  0.1297  0.4313  0.0483
11621TIP3    H156354   0.680   3.441  16.453  1.1594 -0.6119  2.0637
11621TIP3    H256355   0.630   3.576  16.499 -0.4694  0.0892 -1.5921
11622TIP3   OH256356   6.600   3.829   4.820  0.2599  1.0588 -0.2711
11622TIP3    H156357   6.653   3.762   4.776 -1.5009 -0.8257  0.3535
11622TIP3    H256358   6.611   3.907   4.767  2.2638  0.2214 -1.1201
11623TIP3   OH256359   4.562   2.878  11.894 -0.3528  0.5281 -0.0393
11623TIP3    H156360   4.591   2.813  11.830 -0.8606  0.8629 -0.6224
11623TIP3    H256361   4.484   2.839  11.934  1.7700 -1.1060  2.7223
11624TIP3   OH256362   0.014   3.869  15.445 -0.4072  0.2956 -0.2952
11624TIP3    H156363  -0.027   3.785  15.424 -0.4170  0.2426 -0.0691
11624TIP3    H256364   0.077   3.848  15.514 -1.9927  0.8348  1.3723
11625TIP3   OH256365   1.202   1.170   4.196 -0.0844 -0.0225  0.6301
11625TIP3    H156366   1.251   1.093   4.225  0.3080 -0.1060 -0.2537
11625TIP3    H256367   1.242   1.243   4.243  0.5645 -0.1585  0.2983
11626TIP3   OH256368   0.097   6.812   4.266  0.3457  0.0489  0.1899
11626TIP3    H156369   0.056   6.833   4.182 -1.1034  0.2530  0.9251
11626TIP3    H256370   0.141   6.892   4.292 -0.1754  0.3385  0.1761
11627TIP3   OH256371   5.577   4.671  15.646 -0.2709  0.1905 -0.1148
11627TIP3    H156372   5.555   4.647  15.737 -0.7801  0.5223 -0.1464
11627TIP3    H256373   5.499   4.718  15.615  0.5664  1.5566 -0.1759
11628TIP3   OH256374   2.096   4.542  16.217  0.2437  0.2159  0.5137
11628TIP3    H156375   2.054   4.517  16.135  1.2689  0.1775 -0.0087
11628TIP3    H256376   2.037   4.608  16.255  0.2808  1.0096 -0.7701
11629TIP3   OH256377   0.155   4.207   2.472  0.3066  0.2352 -0.3515
11629TIP3    H156378   0.073   4.242   2.437 -0.0654  0.3574  0.6242
11629TIP3    H256379   0.130   4.125   2.515  0.2969  1.3612  1.9024
11630TIP3   OH256380   2.954   0.388  14.436  0.5114 -0.1604  0.0482
11630TIP3    H156381   2.874   0.438  14.454  1.8041  1.7044  0.7242
11630TIP3    H256382   3.002   0.442  14.373  2.1507 -0.2967  1.1692
11631TIP3   OH256383   5.358   4.314  13.111 -0.3313 -0.1531  0.3737
11631TIP3    H156384   5.267   4.285  13.102 -0.1010 -0.8267  0.1576
11631TIP3    H256385   5.360   4.402  13.075 -0.5178 -0.8184 -1.3290
11632TIP3   OH256386   0.901   6.452   5.722 -0.3922  0.2107 -0.2998
11632TIP3    H156387   0.903   6.385   5.790 -0.8337 -0.3561 -0.8401
11632TIP3    H256388   0.989   6.449   5.682  0.7907  2.3864  1.9950
11633TIP3   OH256389   3.334   1.607  16.632 -0.3554  0.1617 -0.0873
11633TIP3    H156390   3.369   1.564  16.554 -0.1457 -0.5068  0.3694
11633TIP3    H256391   3.289   1.684  16.599 -1.3345 -0.7827 -0.9760
11634TIP3   OH256392   1.687   5.491   1.120  0.3503 -0.2948 -0.3069
11634TIP3    H156393   1.722   5.580   1.124  1.0708 -0.5355 -1.1972
11634TIP3    H256394   1.597   5.500   1.152  1.2127  0.3219  2.1093
11635TIP3   OH256395   1.050   5.946   5.636  0.1547  0.0946 -0.1325
11635TIP3    H156396   0.999   5.968   5.559 -0.6653 -2.5510 -0.3659
11635TIP3    H256397   1.136   5.984   5.619 -0.8422  2.0180 -1.0361
11636TIP3   OH256398   4.498   0.416  15.187 -0.3786  0.5609 -0.1629
11636TIP3    H156399   4.414   0.388  15.223 -0.8628  0.4089 -1.3842
11636TIP3    H256400   4.540   0.464  15.259 -0.8295 -0.6975  0.9575
11637TIP3   OH256401   1.465   0.756   1.953  0.1623  0.0627 -0.5526
11637TIP3    H156402   1.472   0.691   1.883  0.4063 -0.4861 -0.0254
11637TIP3    H256403   1.377   0.743   1.989  0.2986 -0.1460 -0.2895
11638TIP3   OH256404   0.233   4.974   2.027  0.0884  0.3173  0.1931
11638TIP3    H156405   0.274   5.039   2.084 -0.8921  0.3242  0.9078
11638TIP3    H256406   0.269   4.890   2.056  0.9174  0.4779 -0.3495
11639TIP3   OH256407   0.281   6.005   4.012  1.0046 -0.3558  0.4753
11639TIP3    H156408   0.202   6.022   4.064 -1.2658 -0.4941 -2.7939
11639TIP3    H256409   0.324   5.933   4.058 -1.8347 -1.6184  1.2818
11640TIP3   OH256410   5.821   0.629  15.635  0.4356 -0.5326 -0.2535
11640TIP3    H156411   5.807   0.671  15.550  0.1251 -1.2934 -0.5809
11640TIP3    H256412   5.793   0.695  15.698 -1.1447 -0.6528 -0.7960
11641TIP3   OH256413   3.647   5.276  15.594  0.2243  0.2840 -0.9574
11641TIP3    H156414   3.579   5.210  15.610  0.8343  0.2468  1.6188
11641TIP3    H256415   3.721   5.227  15.559 -0.8634  0.2637 -3.3571
11642TIP3   OH256416   6.639   0.847   5.297  0.4770 -0.4360  0.6520
11642TIP3    H156417   6.668   0.811   5.213  1.5978 -0.6552  1.1279
11642TIP3    H256418   6.543   0.843   5.293  0.5303 -0.6563 -0.5220
11643TIP3   OH256419   3.621   2.294  13.618  0.0528 -0.3276  0.4600
11643TIP3    H156420   3.698   2.347  13.598  0.4382 -0.1734  2.2266
11643TIP3    H256421   3.571   2.292  13.537  0.4920  1.9668  0.1104
11644TIP3   OH256422   5.143   1.843  11.587  0.4260 -0.2203  0.4750
11644TIP3    H156423   5.065   1.867  11.538  2.0504  3.2211 -0.5611
11644TIP3    H256424   5.112   1.831  11.677 -1.2788  1.1007  0.0861
11645TIP3   OH256425   2.995   4.955   3.636 -0.2494 -0.1156 -0.5207
11645TIP3    H156426   2.994   5.051   3.639  1.1397 -0.0964 -0.2391
11645TIP3    H256427   2.910   4.931   3.599 -1.1691  1.1730  0.7211
11646TIP3   OH256428   4.040   2.524   6.153  0.2882 -0.3607 -0.3774
11646TIP3    H156429   4.056   2.473   6.073  0.6925 -3.5574  1.6469
11646TIP3    H256430   3.998   2.462   6.212 -1.4284  2.4018  1.3809
11647TIP3   OH256431   6.312   0.331   0.393  0.1406  0.0801 -0.4634
11647TIP3    H156432   6.371   0.312   0.320  1.7279  0.4559  0.6770
11647TIP3    H256433   6.239   0.270   0.383  0.0372  0.5548 -2.6987
11648TIP3   OH256434   0.181   2.056   2.647  0.3297 -0.4050  0.1627
11648TIP3    H156435   0.155   2.000   2.574  1.6206  0.1403 -0.7243
11648TIP3    H256436   0.152   2.009   2.725  0.4159 -1.7662 -0.6205
11649TIP3   OH256437   2.997   3.139  14.900 -0.2546 -0.4213  0.0346
11649TIP3    H156438   3.080   3.171  14.865 -0.5244  0.2309  0.0036
11649TIP3    H256439   3.016   3.124  14.993 -0.7151  1.8543  0.5222
11650TIP3   OH256440   6.660   2.880   0.975  0.4521 -0.2937 -0.0607
11650TIP3    H156441   6.712   2.907   1.051  0.3113  0.4791 -0.2326
11650TIP3    H256442   6.722   2.835   0.918  1.3544  2.2381 -1.1161
11651TIP3   OH256443   6.083   5.926   5.403  0.3070 -0.6614  0.2469
11651TIP3    H156444   6.121   5.924   5.315 -0.3256  1.3487 -0.0920
11651TIP3    H256445   5.991   5.903   5.390 -0.0271  0.6490  0.2317
11652TIP3   OH256446   2.461   5.786   4.251  0.1596  0.0989 -0.4612
11652TIP3    H156447   2.429   5.706   4.294 -2.0407  1.6888  0.9843
11652TIP3    H256448   2.392   5.808   4.188  0.2124  1.4368 -0.0748
11653TIP3   OH256449   4.452   1.731   5.714 -0.2811 -0.1436  0.1016
11653TIP3    H156450   4.358   1.717   5.720 -0.4200  0.6962 -0.0614
11653TIP3    H256451   4.482   1.664   5.651 -0.9457  0.3745 -0.7778
11654TIP3   OH256452   4.326   2.186   4.937  0.2808  0.1228 -0.2880
11654TIP3    H156453   4.418   2.203   4.957  0.3380  0.1867 -0.5984
11654TIP3    H256454   4.297   2.126   5.005  0.3828  0.5973  0.1754
11655TIP3   OH256455   3.178   3.346  15.982 -0.0901  0.1938 -0.4656
11655TIP3    H156456   3.147   3.259  15.958 -0.2029 -0.1199  0.7887
11655TIP3    H256457   3.171   3.397  15.901 -2.4844 -0.2676 -0.5894
11656TIP3   OH256458   0.392   1.036   4.338  0.0182 -0.1204 -0.2227
11656TIP3    H156459   0.386   0.997   4.250 -0.5055 -0.4191 -0.0569
11656TIP3    H256460   0.335   0.981   4.392 -2.5658  2.2193 -0.4831
11657TIP3   OH256461   1.522   0.163  16.077 -0.4469 -0.3918 -0.5924
11657TIP3    H156462   1.483   0.188  15.992  2.3581  0.3538 -1.7221
11657TIP3    H256463   1.592   0.103  16.054  0.0591 -0.5313  1.2628
11658TIP3   OH256464   2.410   3.394  15.292  0.1229  0.5058 -0.2126
11658TIP3    H156465   2.346   3.465  15.291  0.1611  0.5315 -0.6774
11658TIP3    H256466   2.370   3.324  15.240 -0.3571 -0.2012  1.0922
11659TIP3   OH256467   1.292   2.753  16.981 -0.0761  0.2618  0.5474
11659TIP3    H156468   1.260   2.666  16.956  0.3906  0.1629  0.2816
11659TIP3    H256469   1.377   2.761  16.937 -0.5324  1.2263 -0.1902
11660TIP3   OH256470   0.502   5.726  15.069  0.7965 -0.0393 -0.1057
11660TIP3    H156471   0.420   5.719  15.118  0.1863  0.4378 -1.0523
11660TIP3    H256472   0.529   5.635  15.056 -0.0019 -0.2285 -0.4879
11661TIP3   OH256473   5.812   2.566  12.861  0.7815  0.2820 -0.8200
11661TIP3    H156474   5.786   2.484  12.817  0.4793  0.5137 -1.0798
11661TIP3    H256475   5.736   2.623  12.850  0.1490 -0.1396  1.2627
11662TIP3   OH256476   0.011   3.762  13.460 -0.3161 -0.2446  0.3459
11662TIP3    H156477  -0.004   3.675  13.423 -2.6540  0.0796  0.4520
11662TIP3    H256478   0.097   3.787  13.428  0.0381 -2.2709 -0.3448
11663TIP3   OH256479   4.773   2.192  16.896 -0.1427 -0.1721 -0.8120
11663TIP3    H156480   4.719   2.234  16.829 -0.3751  2.7308  1.0827
11663TIP3    H256481   4.718   2.194  16.975  2.1692  1.5383  0.8127
11664TIP3   OH256482   1.352   6.703   4.342 -0.0373 -0.0935  0.7740
11664TIP3    H156483   1.329   6.772   4.280 -0.7461 -1.0283 -0.0212
11664TIP3    H256484   1.281   6.640   4.334  0.9202 -1.2115  1.0444
11665TIP3   OH256485   4.611   0.304  15.600 -0.5529 -0.6074 -0.0138
11665TIP3    H156486   4.591   0.381  15.547  0.2331  0.4410  1.1760
11665TIP3    H256487   4.574   0.324  15.686  2.6213 -0.0292  1.2867
11666TIP3   OH256488   3.476   4.290  12.140  0.2923  0.8137  0.4315
11666TIP3    H156489   3.433   4.300  12.055  1.0596  1.2827  0.0829
11666TIP3    H256490   3.561   4.334  12.129 -0.4312  2.6937  2.0757
11667TIP3   OH256491   1.926   2.625  15.871 -0.2369 -0.3977 -0.3799
11667TIP3    H156492   1.917   2.720  15.859 -0.9837 -0.2986  0.9137
11667TIP3    H256493   1.900   2.588  15.787 -1.3525  0.4684 -0.4253
11668TIP3   OH256494   0.501   4.167   1.732  0.2844  0.4326 -0.0866
11668TIP3    H156495   0.577   4.145   1.785 -0.3464  1.9693  1.5124
11668TIP3    H256496   0.513   4.259   1.710 -1.2960  0.8037  0.5357
11669TIP3   OH256497   1.773   3.564  10.654 -0.0823  0.4877  0.0552
11669TIP3    H156498   1.828   3.518  10.591 -1.0754  0.2360 -0.6474
11669TIP3    H256499   1.811   3.651  10.661  0.0991  0.4786 -0.8195
11670TIP3   OH256500   4.386   2.031   4.162  0.4711  0.1104 -0.3066
11670TIP3    H156501   4.411   2.009   4.072 -0.3277 -0.8465 -0.3032
11670TIP3    H256502   4.319   1.966   4.185 -0.9068  1.6672  0.2150
11671TIP3   OH256503   1.535   2.986   2.416  0.5169  0.1935  0.1350
11671TIP3    H156504   1.441   2.978   2.434  0.1947  1.5577 -0.8104
11671TIP3    H256505   1.539   3.013   2.324  1.8119  0.8465  0.3730
11672TIP3   OH256506   1.797   4.166  17.262 -0.3057  0.4595  0.5147
11672TIP3    H156507   1.721   4.111  17.246  0.8840 -1.0393 -0.0592
11672TIP3    H256508   1.778   4.248  17.217 -2.2997  0.7201  1.7918
11673TIP3   OH256509   4.199   5.569  13.776  0.3802 -0.1217 -0.1374
11673TIP3    H156510   4.159   5.510  13.840  0.2616  0.8764  0.7373
11673TIP3    H256511   4.125   5.609  13.730  0.2111  3.0250  2.6630
11674TIP3   OH256512   6.314   1.160   2.791 -0.2749  0.2758  0.0430
11674TIP3    H156513   6.261   1.194   2.864  0.0463 -1.2979  1.0380
11674TIP3    H256514   6.265   1.083   2.760  0.1544  0.2886 -0.6693
11675TIP3   OH256515   5.907   3.769  11.346 -0.6016  0.3226 -0.1288
11675TIP3    H156516   5.893   3.848  11.398  1.9007  1.8694 -1.7374
11675TIP3    H256517   5.914   3.699  11.411  0.0795  1.8395  1.4775
11676TIP3   OH256518   0.004   6.648  10.764  0.3241  0.2001  0.4772
11676TIP3    H156519   0.045   6.698  10.835  0.4583  1.5390 -0.5306
11676TIP3    H256520   0.069   6.580  10.743  1.8623  2.0211 -0.7923
11677TIP3   OH256521   0.937   4.676  15.873 -0.6224  0.0320  0.1648
11677TIP3    H156522   0.887   4.624  15.936 -1.7534  1.2561  0.2820
11677TIP3    H256523   0.884   4.675  15.793 -0.5921  0.9257  0.1340
11678TIP3   OH256524   0.100   5.889  10.883 -0.2289  0.5475  0.3492
11678TIP3    H156525   0.088   5.952  10.954 -1.7957 -0.0728  0.6345
11678TIP3    H256526   0.143   5.814  10.924  0.0288  0.7080  0.3734
11679TIP3   OH256527   2.967   3.293   1.832  0.3749 -0.3415  0.0735
11679TIP3    H156528   2.954   3.204   1.866  0.9438 -0.3598  0.2359
11679TIP3    H256529   2.965   3.348   1.910 -0.8416 -0.1165 -0.1075
11680TIP3   OH256530   0.649   5.904  13.309 -0.3828  0.0093  0.3122
11680TIP3    H156531   0.632   5.825  13.257 -1.6662  0.1698  0.4753
11680TIP3    H256532   0.572   5.912  13.365  0.1701  0.8657  0.9554
11681TIP3   OH256533   3.525   0.986   2.127  0.8768 -0.3656  0.2468
11681TIP3    H156534   3.560   0.898   2.114  0.4807 -0.4936  0.0547
11681TIP3    H256535   3.599   1.044   2.106  0.3247 -0.5683 -2.3540
11682TIP3   OH256536   4.506   6.372   3.797 -0.1585  0.1392 -0.3819
11682TIP3    H156537   4.515   6.467   3.793  0.2336  0.0674 -1.3250
11682TIP3    H256538   4.589   6.339   3.764 -0.2748 -0.5351 -0.0005
11683TIP3   OH256539   2.845   4.580  14.195 -0.6071 -0.3449  0.0036
11683TIP3    H156540   2.776   4.637  14.230  0.6412  1.0931  0.1210
11683TIP3    H256541   2.892   4.550  14.272 -1.1029 -1.3768 -0.0763
11684TIP3   OH256542   2.135   4.435   4.921  0.7267  0.3817 -0.0615
11684TIP3    H156543   2.126   4.475   4.834 -1.1490 -1.4727 -0.7693
11684TIP3    H256544   2.079   4.489   4.978 -0.3085 -0.0860 -0.6193
11685TIP3   OH256545   0.604   3.148  14.797 -0.1631 -0.5598  0.4337
11685TIP3    H156546   0.526   3.139  14.852 -0.0715  2.0844  1.0316
11685TIP3    H256547   0.573   3.192  14.717  0.3879 -1.1136 -0.0963
11686TIP3   OH256548   1.567   6.066  17.160  0.3410  0.7588 -0.2626
11686TIP3    H156549   1.540   6.124  17.230  0.7674  1.2267 -0.4846
11686TIP3    H256550   1.562   6.119  17.080 -1.6213 -0.2127 -0.8032
11687TIP3   OH256551   5.792   5.050   5.161  0.2022  0.0853 -0.1435
11687TIP3    H156552   5.772   5.053   5.254 -0.6600  0.3907 -0.3330
11687TIP3    H256553   5.802   5.142   5.136  0.1683  0.0181 -0.4049
11688TIP3   OH256554   0.527   1.832   1.620  0.3233 -0.2533  0.3234
11688TIP3    H156555   0.568   1.844   1.705  2.0423  1.4078 -0.6967
11688TIP3    H256556   0.494   1.742   1.621  0.8600 -0.4543  2.4813
11689TIP3   OH256557   0.962   1.964  12.522 -0.1222  0.0791  0.3004
11689TIP3    H156558   0.869   1.942  12.519 -0.7557  2.3256  1.8604
11689TIP3    H256559   0.989   1.941  12.610  0.5528  0.4295  0.1847
11690TIP3   OH256560   4.588   1.340   1.165 -0.0469 -0.4177  0.1350
11690TIP3    H156561   4.559   1.412   1.109 -2.1549 -1.5723 -0.3169
11690TIP3    H256562   4.627   1.277   1.105  0.3739 -0.3481  0.3350
11691TIP3   OH256563   1.727   4.439  11.538 -0.1952 -0.1452  1.2280
11691TIP3    H156564   1.802   4.379  11.542 -0.6026 -0.7145  0.4079
11691TIP3    H256565   1.655   4.388  11.575 -0.4208  0.0231  1.0186
11692TIP3   OH256566   2.687   1.515   4.158  0.6455 -0.3376  0.2844
11692TIP3    H156567   2.773   1.506   4.201  1.8335 -0.1391 -1.9902
11692TIP3    H256568   2.678   1.435   4.106  0.3677  0.5555 -1.0587
11693TIP3   OH256569   4.957   3.251   0.363 -0.5026  1.0245 -0.1502
11693TIP3    H156570   4.940   3.343   0.346  1.3058  1.5883  0.8942
11693TIP3    H256571   5.051   3.241   0.351 -0.8302 -0.9260 -1.2714
11694TIP3   OH256572   3.132   2.632  13.423 -0.3386 -0.0496  0.6117
11694TIP3    H156573   3.038   2.650  13.425 -0.5126 -0.9061  0.3054
11694TIP3    H256574   3.173   2.718  13.421 -1.1275  0.3202  0.3504
11695TIP3   OH256575   0.432   3.899   1.468  0.3261 -0.6036 -0.3168
11695TIP3    H156576   0.381   3.821   1.445  0.1549 -0.3376 -0.8415
11695TIP3    H256577   0.366   3.968   1.478  0.2529 -0.9659  2.1464
11696TIP3   OH256578   2.036   0.438   1.136  0.4347  0.4103 -0.2662
11696TIP3    H156579   2.022   0.478   1.051  0.2934  0.8655 -0.0286
11696TIP3    H256580   2.006   0.347   1.126 -0.0764  0.6141 -0.5406
11697TIP3   OH256581   2.910   2.793  12.866  0.1655 -0.0933  0.1376
11697TIP3    H156582   2.989   2.847  12.862 -0.0285  0.2362  0.7741
11697TIP3    H256583   2.925   2.735  12.940  1.4298 -2.5843 -2.0032
11698TIP3   OH256584   1.389   3.629  11.534  0.3011 -0.6291  0.2179
11698TIP3    H156585   1.448   3.598  11.464  1.9183  2.7215  0.0079
11698TIP3    H256586   1.447   3.662  11.602 -1.3058 -1.9603  2.2839
11699TIP3   OH256587   1.185   1.047  15.921 -0.1233 -0.0594 -0.1593
11699TIP3    H156588   1.184   0.960  15.961 -0.0675  0.2945  0.6280
11699TIP3    H256589   1.260   1.091  15.960 -0.6117  0.6104  0.0379
11700TIP3   OH256590   6.189   5.286   5.379 -0.7916  0.0015 -0.2862
11700TIP3    H156591   6.245   5.342   5.433 -1.7528 -1.0953  1.9480
11700TIP3    H256592   6.101   5.321   5.392 -0.9684  0.1038 -1.6847
11701TIP3   OH256593   6.646   6.204  15.416 -0.0720  0.4085  0.1329
11701TIP3    H156594   6.562   6.238  15.384  0.0534 -0.1811 -0.8157
11701TIP3    H256595   6.638   6.109  15.409  0.0931  0.2874  1.5128
11702TIP3   OH256596   1.808   0.652  11.629  0.1311  0.2254  0.1878
11702TIP3    H156597   1.748   0.680  11.561 -0.5313 -0.4436  0.4863
11702TIP3    H256598   1.856   0.578  11.591 -1.1353 -0.9616  0.8849
11703TIP3   OH256599   1.847   3.616  17.017 -0.0600 -0.5833  0.0769
11703TIP3    H156600   1.800   3.564  17.082  1.1866  0.2797  1.7203
11703TIP3    H256601   1.824   3.707  17.039  3.0577 -0.0745  1.5266
11704TIP3   OH256602   5.860   4.335  13.722 -0.1305  0.5611  0.6083
11704TIP3    H156603   5.855   4.287  13.639 -0.5631  1.6522  0.0075
11704TIP3    H256604   5.843   4.268  13.789 -2.0762  0.1194 -0.2952
11705TIP3   OH256605   1.016   1.330   2.107 -0.0334 -0.4906  0.6341
11705TIP3    H156606   1.096   1.315   2.057 -0.7678 -1.4893 -0.2433
11705TIP3    H256607   1.009   1.426   2.112  0.4689 -0.3858 -0.4938
11706TIP3   OH256608   0.463   2.760   0.857 -0.2554  0.0111  0.4403
11706TIP3    H156609   0.395   2.696   0.877 -0.5499 -0.0799 -0.8238
11706TIP3    H256610   0.422   2.845   0.876 -0.9744 -0.0029 -1.0111
11707TIP3   OH256611   2.364   5.575  16.244 -0.0935 -0.5042 -0.2349
11707TIP3    H156612   2.437   5.621  16.285 -1.5559  2.0653 -0.4392
11707TIP3    H256613   2.396   5.485  16.232  3.3988  0.8012 -1.2368
11708TIP3   OH256614   2.542   3.698  16.494 -0.1198  0.7495 -0.1237
11708TIP3    H156615   2.604   3.769  16.480 -0.9419  1.5555  0.2749
11708TIP3    H256616   2.556   3.673  16.585 -0.4288  0.9759 -0.0155
11709TIP3   OH256617   5.288   1.316  14.515  0.2933 -0.4881  0.1337
11709TIP3    H156618   5.265   1.245  14.575 -0.8016  0.0706  0.3840
11709TIP3    H256619   5.329   1.382  14.571  1.4936 -0.9902 -0.1300
11710TIP3   OH256620   1.960   3.645   3.228 -0.7878  0.4888  0.2919
11710TIP3    H156621   1.995   3.592   3.156  1.0262 -0.8038  2.0520
11710TIP3    H256622   1.910   3.714   3.185 -0.6091 -0.8544 -2.1672
11711TIP3   OH256623   0.938   3.776   0.934 -0.6477  0.3266  0.3194
11711TIP3    H156624   0.878   3.838   0.976 -0.7011  1.5230 -1.4345
11711TIP3    H256625   1.025   3.812   0.951 -0.7426  1.6826 -1.8416
11712TIP3   OH256626   3.789   3.261  14.300  0.3693  0.6096  0.0989
11712TIP3    H156627   3.761   3.288  14.387  0.9453  0.4029  0.3506
11712TIP3    H256628   3.711   3.270  14.245 -0.0746  0.4462  0.7003
11713TIP3   OH256629   1.559   0.118   2.058 -0.1111 -0.2515  0.2420
11713TIP3    H156630   1.587   0.042   2.007 -0.9463 -1.3747  1.4436
11713TIP3    H256631   1.640   0.158   2.089  0.2744 -1.5191  0.8735
11714TIP3   OH256632   5.552   5.848   3.545  0.0098  0.5954  0.1481
11714TIP3    H156633   5.601   5.822   3.623 -0.1380 -0.3256 -0.0566
11714TIP3    H256634   5.509   5.930   3.570 -0.7660 -0.1599  1.3529
11715TIP3   OH256635   0.023   6.637   6.152  0.1218  0.0146  0.3563
11715TIP3    H156636   0.035   6.687   6.072 -0.4599  0.3941  0.5089
11715TIP3    H256637   0.050   6.548   6.129 -1.5434 -0.2380 -0.7006
11716TIP3   OH256638   1.035   2.692  15.708 -0.3925  0.4529  0.6793
11716TIP3    H156639   0.979   2.637  15.652  2.3816 -1.8481  0.0311
11716TIP3    H256640   1.072   2.631  15.772 -0.6125  2.4047  2.7076
11717TIP3   OH256641   5.711   0.855  15.864 -0.3352  0.2196 -0.3481
11717TIP3    H156642   5.650   0.924  15.892  0.1734  1.1842 -1.5815
11717TIP3    H256643   5.696   0.784  15.926 -2.6948  0.4514 -0.6047
11718TIP3   OH256644   6.346   1.930  16.130 -0.7943 -0.0827 -0.0799
11718TIP3    H156645   6.314   1.843  16.107 -0.0391 -0.1920 -0.7499
11718TIP3    H256646   6.366   1.924  16.224 -2.0857 -0.2031  0.1994
11719TIP3   OH256647   3.866   5.139   4.118  0.3304 -0.0613  0.1338
11719TIP3    H156648   3.778   5.150   4.081  0.8792  2.2744 -0.5117
11719TIP3    H256649   3.917   5.211   4.081  2.1059 -0.4289  1.8120
11720TIP3   OH256650   3.711   3.045  13.045  0.5068  0.6785 -0.1734
11720TIP3    H156651   3.759   3.090  12.974  0.4617 -0.7523 -1.1277
11720TIP3    H256652   3.766   2.969  13.066  0.4085  0.9814  1.1969
11721TIP3   OH256653   1.482   6.739  12.892 -0.2098 -0.1052  0.1560
11721TIP3    H156654   1.485   6.710  12.983  1.7990  1.0982  0.5011
11721TIP3    H256655   1.509   6.663  12.841  1.4795  0.0494  0.7905
11722TIP3   OH256656   0.888   3.240   2.287  0.6155 -0.0127  0.2721
11722TIP3    H156657   0.925   3.152   2.277  0.1593 -0.0762 -0.8624
11722TIP3    H256658   0.930   3.274   2.366  0.6251 -1.3378  0.8649
11723TIP3   OH256659   3.244   3.231  14.763 -0.0194 -0.5468 -0.6903
11723TIP3    H156660   3.251   3.316  14.719  0.6611 -0.2181  0.0336
11723TIP3    H256661   3.317   3.180  14.729  0.7742 -0.1375  0.3779
11724TIP3   OH256662   6.251   4.677   0.572 -0.4702  0.3452 -0.4198
11724TIP3    H156663   6.303   4.613   0.524 -0.4564  0.9347 -1.1925
11724TIP3    H256664   6.316   4.726   0.624 -0.5195 -0.4987  0.4488
11725TIP3   OH256665   0.685   0.723  16.791 -1.4507 -0.0258  0.0793
11725TIP3    H156666   0.596   0.689  16.789 -2.3387  2.2437 -1.3703
11725TIP3    H256667   0.732   0.672  16.725 -1.9754 -0.5011  0.0749
11726TIP3   OH256668   4.605   3.628   4.796  0.6602 -0.1246 -0.3581
11726TIP3    H156669   4.545   3.568   4.751  3.3524 -2.2231 -1.3105
11726TIP3    H256670   4.587   3.615   4.889 -1.9038  0.9916 -0.6421
11727TIP3   OH256671   5.931   0.634  17.272 -0.3426  0.4652  0.0372
11727TIP3    H156672   5.857   0.656  17.215 -0.5395  3.5302  1.3340
11727TIP3    H256673   5.892   0.626  17.359  0.7487  1.4555  0.6256
11728TIP3   OH256674   1.462   6.036  13.230 -0.2370 -0.0794 -0.1415
11728TIP3    H156675   1.429   6.108  13.283  0.8069 -1.0401  1.8453
11728TIP3    H256676   1.398   5.965  13.244  0.4286 -0.5717  0.4020
11729TIP3   OH256677   2.330   1.021  17.099 -0.1820 -0.1693 -0.3172
11729TIP3    H156678   2.371   1.093  17.052 -1.3587  0.7440  0.0344
11729TIP3    H256679   2.400   0.986  17.154  0.9527 -0.6432 -2.0228
11730TIP3   OH256680   3.785   2.418   0.868 -0.0437 -0.4086  0.0430
11730TIP3    H156681   3.747   2.333   0.889 -1.5520  0.5107  1.1435
11730TIP3    H256682   3.718   2.462   0.816  0.0466  0.7130  0.8498
11731TIP3   OH256683   1.434   2.832  13.590  0.3493  0.1576 -0.5569
11731TIP3    H156684   1.389   2.769  13.645 -2.0786  0.6439 -1.9406
11731TIP3    H256685   1.523   2.798  13.583  0.0322 -1.2145  1.5848
11732TIP3   OH256686   6.023   0.020   3.305  0.4550 -0.3416  0.1387
11732TIP3    H156687   6.049   0.070   3.227  0.1798  0.8739  0.8164
11732TIP3    H256688   5.927   0.019   3.301  0.2901  2.2844  2.0034
11733TIP3   OH256689   3.181   4.894   4.941  0.0236  0.0011 -0.6115
11733TIP3    H156690   3.184   4.943   5.023 -0.2386 -1.7756  0.5058
11733TIP3    H256691   3.095   4.914   4.904  0.1825  0.8876 -0.4989
11734TIP3   OH256692   5.382   5.730  11.939 -0.4544  0.6674  0.3299
11734TIP3    H156693   5.377   5.784  11.860 -0.3672  1.8257  1.1029
11734TIP3    H256694   5.352   5.644  11.911 -1.3377  1.3091 -0.7482
11735TIP3   OH256695   3.784   6.348  13.094  0.3650  0.2709 -0.2009
11735TIP3    H156696   3.740   6.312  13.171  1.0785  1.8022  0.9569
11735TIP3    H256697   3.713   6.382  13.039 -0.0388  0.8026  0.6401
11736TIP3   OH256698   5.050   5.008  14.838 -0.2280  0.8350 -0.2312
11736TIP3    H156699   5.092   4.927  14.808 -0.0779  1.1427 -0.8429
11736TIP3    H256700   5.110   5.078  14.812 -0.3995  1.1550  0.2227
11737TIP3   OH256701   6.456   5.994  11.778  0.0956 -0.0942 -0.3247
11737TIP3    H156702   6.535   5.952  11.810  0.0955 -0.2596 -0.5418
11737TIP3    H256703   6.446   5.961  11.689 -0.6351 -0.6610 -0.0380
11738TIP3   OH256704   5.695   5.369  14.539 -0.0722 -0.1716 -0.2867
11738TIP3    H156705   5.660   5.334  14.621 -3.3768 -0.2261 -1.6331
11738TIP3    H256706   5.702   5.463  14.554  1.7079 -0.4698  0.8529
11739TIP3   OH256707   1.010   4.294   5.769 -0.2871 -0.2772  0.1021
11739TIP3    H156708   0.968   4.380   5.774 -1.2795 -0.7009 -0.8566
11739TIP3    H256709   0.958   4.238   5.827  0.4801 -0.1983  0.8884
11740TIP3   OH256710   6.226   1.719   1.561 -0.6533  0.3444  0.6195
11740TIP3    H156711   6.188   1.791   1.509 -1.7138  1.6854  3.1542
11740TIP3    H256712   6.185   1.640   1.526 -2.1401  1.3264  0.0819
11741TIP3   OH256713   3.887   4.609   1.882  1.0638  0.3204  0.3861
11741TIP3    H156714   3.878   4.526   1.928  2.0419  0.4007  0.7497
11741TIP3    H256715   3.835   4.598   1.803 -0.3595  0.0609  1.3370
11742TIP3   OH256716   1.250   2.768  16.577 -0.1853  0.4381  0.1500
11742TIP3    H156717   1.279   2.837  16.637 -0.2252  1.4251 -0.9299
11742TIP3    H256718   1.316   2.768  16.507  0.1762 -1.0970  0.4827
11743TIP3   OH256719   4.113   0.549   3.195  0.1723  0.2179 -0.4270
11743TIP3    H156720   4.162   0.592   3.265  0.9089 -1.5587  0.2033
11743TIP3    H256721   4.173   0.481   3.163 -0.7585 -0.0270 -1.7050
11744TIP3   OH256722   5.190   4.944   1.867  0.0148  0.1753 -0.1395
11744TIP3    H156723   5.280   4.971   1.847  0.1052  0.0003  0.0254
11744TIP3    H256724   5.183   4.954   1.962  0.9100 -2.9245  0.3119
11745TIP3   OH256725   2.461   6.317  10.831  0.4395  0.7864 -0.1364
11745TIP3    H156726   2.497   6.364  10.756 -0.3155 -1.1898 -1.7982
11745TIP3    H256727   2.375   6.357  10.845  0.7253  1.3923 -0.1090
11746TIP3   OH256728   1.497   0.424   4.451  0.2096 -0.5309  0.0681
11746TIP3    H156729   1.559   0.490   4.422 -0.9574  1.4122  1.8250
11746TIP3    H256730   1.506   0.423   4.547 -1.4224 -1.2536  0.2361
11747TIP3   OH256731   0.571   2.747  13.999  0.7247 -0.0539 -0.1256
11747TIP3    H156732   0.538   2.682  14.060  2.3494  0.7193  1.6013
11747TIP3    H256733   0.491   2.786  13.961 -0.3269 -0.0172  2.0512
11748TIP3   OH256734   4.087   3.116   4.335 -0.3922  0.0194  0.6888
11748TIP3    H156735   4.110   3.067   4.256 -3.5325 -1.6313  0.7231
11748TIP3    H256736   4.137   3.073   4.405 -0.0356 -0.5378  0.1021
11749TIP3   OH256737   6.807   1.386   5.537  0.0665 -0.2059 -0.1098
11749TIP3    H156738   6.870   1.356   5.472  0.4382 -1.6062  0.8770
11749TIP3    H256739   6.860   1.428   5.604 -0.2964  1.0069 -0.5637
11750TIP3   OH256740   0.324   1.736   0.398 -0.0535  0.3721  0.5379
11750TIP3    H156741   0.305   1.749   0.491  1.9483  0.5909  0.9336
11750TIP3    H256742   0.277   1.806   0.353 -1.8336 -0.3212  1.2871
11751TIP3   OH256743   4.592   5.080   5.135 -0.2813 -0.3849  0.0611
11751TIP3    H156744   4.566   5.171   5.118  2.8142  0.4542 -0.3524
11751TIP3    H256745   4.601   5.042   5.048  0.1780 -0.5683  0.1891
11752TIP3   OH256746   5.817   6.238  12.388  0.1707 -0.0480 -0.0407
11752TIP3    H156747   5.834   6.264  12.297  0.6226 -1.5141 -0.3839
11752TIP3    H256748   5.771   6.154  12.381 -2.8711  1.4294  1.0114
11753TIP3   OH256749   1.350   6.261  13.294 -0.0422  0.5116 -0.1660
11753TIP3    H156750   1.307   6.265  13.379  0.1782  0.4539 -0.0526
11753TIP3    H256751   1.277   6.254  13.231 -0.1982  0.4116  0.0258
11754TIP3   OH256752   1.735   0.668  13.073  0.1757 -1.1086 -0.0465
11754TIP3    H156753   1.780   0.611  13.136  0.9948  1.3389  1.6549
11754TIP3    H256754   1.653   0.691  13.116  0.0733 -0.5863 -0.5156
11755TIP3   OH256755   5.799   3.629  16.068  0.5302  0.7678 -0.1963
11755TIP3    H156756   5.867   3.690  16.095 -0.4900  0.9477  2.1155
11755TIP3    H256757   5.720   3.661  16.111 -0.3458 -1.2454 -0.2511
11756TIP3   OH256758   2.920   6.373  17.014  0.0682 -0.0446  0.0134
11756TIP3    H156759   2.936   6.284  16.982 -1.1110  0.3104 -1.5871
11756TIP3    H256760   2.860   6.412  16.950 -2.1658  0.7743  2.5035
11757TIP3   OH256761   1.734   5.261  11.278 -0.0879 -0.0177  0.4961
11757TIP3    H156762   1.679   5.249  11.201 -0.2900  2.0083  0.3120
11757TIP3    H256763   1.673   5.276  11.350  0.1521 -0.2212  0.7453
11758TIP3   OH256764   2.470   5.052  15.244  0.6687 -0.5350  0.5641
11758TIP3    H156765   2.491   5.120  15.181 -0.1627 -0.2142  0.6315
11758TIP3    H256766   2.393   5.084  15.291  1.0473 -0.9314  1.4907
11759TIP3   OH256767   2.234   5.344   4.995 -0.1823 -0.2593  0.2901
11759TIP3    H156768   2.191   5.286   4.931  0.0764 -1.3543  1.0897
11759TIP3    H256769   2.203   5.312   5.079  3.5818 -2.2993  1.0349
11760TIP3   OH256770   3.129   6.576  16.960 -0.7242 -0.0176  0.1379
11760TIP3    H156771   3.136   6.597  16.867  0.9537 -0.6695  0.1073
11760TIP3    H256772   3.051   6.520  16.966  0.0943 -1.3143 -1.1178
11761TIP3   OH256773   1.538   0.341   2.963  0.2674 -0.1562  0.5031
11761TIP3    H156774   1.624   0.375   2.986  0.1828  0.9616 -0.7640
11761TIP3    H256775   1.478   0.415   2.978 -0.0915 -0.0995 -1.0616
11762TIP3   OH256776   3.046   0.692  16.026 -0.7866 -0.3011  0.0928
11762TIP3    H156777   3.049   0.666  16.118  0.1307  1.5639  0.5939
11762TIP3    H256778   2.961   0.735  16.016 -0.7302 -0.1783  0.1464
11763TIP3   OH256779   0.216   2.270   4.846  0.8167  0.3970 -0.4686
11763TIP3    H156780   0.281   2.329   4.807  2.6145 -1.3262 -0.1810
11763TIP3    H256781   0.263   2.225   4.916 -0.7778 -0.6728 -0.0536
11764TIP3   OH256782   0.615   6.017   5.004 -0.2671 -0.3730 -0.4910
11764TIP3    H156783   0.604   6.111   4.994 -0.2558 -0.1382  1.4037
11764TIP3    H256784   0.549   5.979   4.947 -1.3960  0.8171 -0.0054
11765TIP3   OH256785   1.436   0.261  15.831  0.3571  0.1380 -0.9041
11765TIP3    H156786   1.487   0.209  15.769 -1.2512 -0.5320 -1.6739
11765TIP3    H256787   1.353   0.277  15.787 -0.5041  0.3439  0.7542
11766TIP3   OH256788   6.339   0.606  15.584  0.1090 -0.3414 -0.6250
11766TIP3    H156789   6.372   0.541  15.522  1.8679  0.4371 -0.5373
11766TIP3    H256790   6.401   0.604  15.657 -0.8856  0.0909  0.2407
11767TIP3   OH256791   6.612   3.135   3.641 -0.1500  0.2793  0.3776
11767TIP3    H156792   6.701   3.101   3.644 -1.0106 -2.2276 -1.1064
11767TIP3    H256793   6.610   3.190   3.563  0.2052  0.6474  0.6272
11768TIP3   OH256794   5.032   5.580   2.149 -0.1932  0.0155  0.0188
11768TIP3    H156795   5.015   5.674   2.149 -0.6009 -0.0556  0.8493
11768TIP3    H256796   4.946   5.540   2.165  0.1849 -0.4568  0.8671
11769TIP3   OH256797   0.686   1.302   1.547  0.2458 -0.3229 -0.0407
11769TIP3    H156798   0.718   1.268   1.463  1.2004 -1.6651  0.8488
11769TIP3    H256799   0.689   1.227   1.606  0.8768  0.9305  1.5497
11770TIP3   OH256800   3.405   5.970   5.834  0.3037  0.0675  0.6567
11770TIP3    H156801   3.467   5.898   5.823  0.4683  0.2784  0.1984
11770TIP3    H256802   3.400   5.983   5.929  2.4864  1.3890  0.6149
11771TIP3   OH256803   6.318   4.980  17.125 -0.7008 -0.3582  0.8506
11771TIP3    H156804   6.309   4.986  17.030 -1.1474  1.6471  1.0075
11771TIP3    H256805   6.412   4.975  17.141 -0.6309 -0.8004  0.3167
11772TIP3   OH256806   6.259   1.185  13.093  0.2935  0.1406 -0.0765
11772TIP3    H156807   6.256   1.090  13.103  2.9359 -0.0274 -0.4449
11772TIP3    H256808   6.264   1.218  13.183  2.8263 -0.2732 -0.0352
11773TIP3   OH256809   4.411   3.375  12.626  0.0661 -0.5523  0.5386
11773TIP3    H156810   4.462   3.297  12.647  2.3225  0.5851 -0.5758
11773TIP3    H256811   4.387   3.364  12.534 -1.1923 -0.7863  0.8859
11774TIP3   OH256812   5.532   1.512  14.265  0.0441 -0.2992  0.2298
11774TIP3    H156813   5.511   1.564  14.188 -1.6802  0.2236  1.0254
11774TIP3    H256814   5.574   1.574  14.325 -2.0719  0.2483  1.2056
11775TIP3   OH256815   4.926   5.766   1.823  0.5623 -0.4799  0.3362
11775TIP3    H156816   4.944   5.849   1.779 -0.5913  0.4817  1.6265
11775TIP3    H256817   5.008   5.717   1.815  0.4511 -0.2875 -2.6760
11776TIP3   OH256818   5.873   3.295  15.373 -0.2307 -0.0048 -0.6099
11776TIP3    H156819   5.888   3.372  15.427 -0.5017 -0.0496 -0.4714
11776TIP3    H256820   5.946   3.237  15.394 -2.4227 -1.7363  2.7734
11777TIP3   OH256821   3.943   3.740  13.544 -0.2458  0.4239  0.1041
11777TIP3    H156822   3.878   3.708  13.481 -0.2104  0.6567 -0.0533
11777TIP3    H256823   3.901   3.816  13.585  0.0271  0.7398 -0.1916
11778TIP3   OH256824   5.328   5.471   1.573 -0.0699 -0.2739  0.3680
11778TIP3    H156825   5.382   5.469   1.494  1.2910  3.3160  1.1118
11778TIP3    H256826   5.241   5.442   1.543  0.3410  1.2935 -2.5256
11779TIP3   OH256827   0.192   0.998  14.606  0.1846 -0.4115  0.0492
11779TIP3    H156828   0.244   0.981  14.527 -0.7807 -0.5636 -0.5641
11779TIP3    H256829   0.160   0.911  14.632 -1.5753 -0.0538 -0.8573
11780TIP3   OH256830   2.692   6.071  17.007  0.5666 -0.1165  0.5882
11780TIP3    H156831   2.770   6.069  16.951 -0.0826  1.3450 -0.3979
11780TIP3    H256832   2.727   6.073  17.096  1.6217 -1.6399  0.2193
11781TIP3   OH256833   0.429   1.309  14.939  0.2455 -0.3529 -0.1607
11781TIP3    H156834   0.423   1.352  14.854 -0.7137 -1.9272 -0.9003
11781TIP3    H256835   0.434   1.216  14.920  4.2415 -0.5384  1.3727
11782TIP3   OH256836   6.800   0.861  15.367 -0.1871  0.3378  0.1597
11782TIP3    H156837   6.828   0.795  15.431 -0.1286  3.2821  3.2696
11782TIP3    H256838   6.707   0.843  15.354 -0.4001  0.2288  1.7431
11783TIP3   OH256839   3.100   2.342  13.215 -0.8009  0.5057  0.0008
11783TIP3    H156840   3.034   2.288  13.257 -0.1711  1.0372  1.7207
11783TIP3    H256841   3.075   2.343  13.123 -4.1219  1.9830  0.8246
11784TIP3   OH256842   3.117   4.949  16.544 -0.8066 -0.1114 -0.5366
11784TIP3    H156843   3.086   4.917  16.459 -1.2110 -1.2959  0.0483
11784TIP3    H256844   3.100   5.043  16.542 -1.3463 -0.2270 -1.5395
11785TIP3   OH256845   5.783   4.082  12.070  0.0858 -0.2746  0.4601
11785TIP3    H156846   5.714   4.016  12.079  0.4854 -0.9964 -1.4607
11785TIP3    H256847   5.863   4.031  12.056  0.2267  0.5809 -2.1516
11786TIP3   OH256848   1.753   4.730  11.899  0.4591 -0.6059 -0.0334
11786TIP3    H156849   1.804   4.661  11.855  2.0498 -0.1645  1.0760
11786TIP3    H256850   1.815   4.769  11.961 -1.3209 -0.2111  1.5279
11787TIP3   OH256851   4.081   4.193   1.205  0.4803  0.0018  0.6187
11787TIP3    H156852   4.086   4.157   1.294  0.4430 -2.8211 -0.4526
11787TIP3    H256853   4.153   4.256   1.200  0.6717 -0.0303  2.5477
11788TIP3   OH256854   5.673   2.701   2.179 -0.3631 -0.1060 -0.4323
11788TIP3    H156855   5.662   2.769   2.244  0.9176  0.4186 -0.7619
11788TIP3    H256856   5.683   2.748   2.096 -1.9560 -0.7586 -1.0322
11789TIP3   OH256857   0.754   1.706   3.872  0.1659  0.0625 -0.1126
11789TIP3    H156858   0.791   1.766   3.936  2.2671 -1.5324  0.2175
11789TIP3    H256859   0.671   1.679   3.910  0.4571  0.6944  0.9915
11790TIP3   OH256860   6.577   1.018   3.530  0.2194 -0.7394 -0.3761
11790TIP3    H156861   6.493   1.050   3.496 -0.0403 -0.7434  0.2549
11790TIP3    H256862   6.614   1.094   3.576 -0.0335 -1.1059  0.4444
11791TIP3   OH256863   1.717   5.727   1.495 -0.0519 -0.6543  0.3553
11791TIP3    H156864   1.663   5.715   1.573 -0.2728 -0.6850  0.1976
11791TIP3    H256865   1.710   5.820   1.475 -0.1645 -0.6872  0.2462
11792TIP3   OH256866   4.201   5.793   3.254  0.0458  0.0992 -0.6567
11792TIP3    H156867   4.150   5.742   3.316  1.6240 -1.9904 -1.0295
11792TIP3    H256868   4.201   5.741   3.174  2.6324  0.0925 -0.6940
11793TIP3   OH256869   1.587   2.581   1.152 -0.5597  0.1030 -0.0645
11793TIP3    H156870   1.593   2.623   1.066 -1.5176  0.0121 -0.1851
11793TIP3    H256871   1.599   2.488   1.134 -3.0006 -0.1770 -0.4207
11794TIP3   OH256872   2.950   6.202  12.033  0.8485  0.3822 -0.1907
11794TIP3    H156873   2.976   6.197  12.125  0.1188 -1.0256 -0.0603
11794TIP3    H256874   3.008   6.269  11.996  1.3006  0.7953  1.2300
11795TIP3   OH256875   3.849   1.979   5.831 -0.3878 -0.0538 -0.3069
11795TIP3    H156876   3.881   2.061   5.793  0.2841 -0.9641 -1.7423
11795TIP3    H256877   3.928   1.930   5.853 -0.7686 -0.9637 -0.9098
11796TIP3   OH256878   0.810   1.067   5.008  0.0856  0.2139  0.4174
11796TIP3    H156879   0.733   1.056   5.064 -0.5482 -1.1992 -0.6991
11796TIP3    H256880   0.880   1.022   5.054 -0.2607 -0.3187  0.4292
11797TIP3   OH256881   5.818   5.623   0.464  0.2945  0.1792  0.1963
11797TIP3    H156882   5.739   5.592   0.507 -0.0032  1.1530  0.3793
11797TIP3    H256883   5.790   5.702   0.418  1.1064  0.3914  0.0581
11798TIP3   OH256884   4.750   4.792  10.572 -0.3056  0.5517  0.3375
11798TIP3    H156885   4.753   4.741  10.492 -0.0097  1.2935 -0.1250
11798TIP3    H256886   4.662   4.775  10.608 -0.2999 -0.0690  0.0585
11799TIP3   OH256887   6.672   5.372  12.870 -0.2931  0.0636 -0.2334
11799TIP3    H156888   6.640   5.284  12.889  1.8737 -1.2844 -2.5368
11799TIP3    H256889   6.592   5.425  12.858 -1.6539 -0.8812  3.8104
11800TIP3   OH256890   0.924   5.127  14.017 -0.5423  0.1136  0.0756
11800TIP3    H156891   0.916   5.084  14.102  0.0583  0.4539  0.3052
11800TIP3    H256892   0.838   5.117  13.977 -0.4686 -1.1580  0.2005
11801TIP3   OH256893   1.491   3.835   4.371  0.6801 -0.3035  0.1223
11801TIP3    H156894   1.434   3.759   4.380  1.1680 -0.5320  1.4378
11801TIP3    H256895   1.575   3.806   4.407  1.2707  0.4157 -0.6530
11802TIP3   OH256896   4.173   6.563  15.557 -0.0691  0.1605 -0.2197
11802TIP3    H156897   4.241   6.589  15.619  1.2582  0.9957 -1.9559
11802TIP3    H256898   4.091   6.584  15.601  0.8511  1.0914  1.0931
11803TIP3   OH256899   2.599   5.409  16.545  0.7285 -0.2701 -0.2988
11803TIP3    H156900   2.665   5.421  16.614  1.0301 -0.2558 -0.5900
11803TIP3    H256901   2.552   5.492  16.542  0.6225 -0.3188 -0.0141
11804TIP3   OH256902   6.370   3.887   4.545  0.4513 -0.1902  0.1637
11804TIP3    H156903   6.462   3.904   4.527 -0.0742  2.5671 -0.1281
11804TIP3    H256904   6.368   3.797   4.577  2.9692 -1.0211 -1.8489
11805TIP3   OH256905   1.054   1.498   5.626  0.6411 -0.5530  0.1835
11805TIP3    H156906   1.009   1.568   5.580  0.5574 -0.8788 -0.2283
11805TIP3    H256907   0.986   1.432   5.643  0.7014 -0.5020  0.6357
11806TIP3   OH256908   1.501   3.579  15.037 -0.3664  0.4119  0.0606
11806TIP3    H156909   1.535   3.664  15.067 -0.3847 -0.0037  1.3025
11806TIP3    H256910   1.553   3.559  14.960  1.6754  0.1971  1.4444
11807TIP3   OH256911   5.384   3.565   2.378 -0.0012  0.2006  0.2313
11807TIP3    H156912   5.303   3.606   2.349  0.0129  0.9312  1.2082
11807TIP3    H256913   5.444   3.577   2.304  0.2203  2.5750  0.7422
11808TIP3   OH256914   2.132   3.419   4.190 -0.3423  0.1225  0.3056
11808TIP3    H156915   2.216   3.423   4.143 -1.0081  0.3111 -0.8749
11808TIP3    H256916   2.080   3.490   4.153 -0.4143  1.0888  2.2419
11809TIP3   OH256917   3.072   5.164  12.493 -0.5890 -0.7562  0.3783
11809TIP3    H156918   3.023   5.216  12.557  0.2500 -2.1195  2.1686
11809TIP3    H256919   3.158   5.206  12.489 -0.5570 -0.8263  0.3324
11810TIP3   OH256920   5.607   0.075   0.868 -0.2430  0.0984  0.4311
11810TIP3    H156921   5.643   0.010   0.927 -0.5602  0.5084  1.0790
11810TIP3    H256922   5.635   0.159   0.905 -1.9180  0.4318  0.9896
11811TIP3   OH256923   4.169   0.822   2.137  0.4963  0.3196 -0.8619
11811TIP3    H156924   4.246   0.813   2.193 -0.4074  0.7205  0.4960
11811TIP3    H256925   4.096   0.833   2.199 -0.7456 -0.8096 -2.0983
11812TIP3   OH256926   6.625   6.195   0.713  0.0790 -0.4018 -0.8933
11812TIP3    H156927   6.711   6.235   0.707 -0.9212  1.8256 -1.0374
11812TIP3    H256928   6.604   6.169   0.623 -0.2721  1.0267 -1.2465
11813TIP3   OH256929   4.495   0.985   4.015 -0.2943 -0.1475  0.3931
11813TIP3    H156930   4.550   1.030   4.080 -0.6438 -0.7177  1.0931
11813TIP3    H256931   4.407   1.018   4.032 -0.4503 -0.6093  0.4863
11814TIP3   OH256932   0.234   1.058  15.559 -0.4872 -0.6234 -0.1086
11814TIP3    H156933   0.220   1.079  15.467  0.3861 -1.1496 -0.3701
11814TIP3    H256934   0.156   1.091  15.604 -0.8769 -0.2920 -1.0220
11815TIP3   OH256935   0.290   5.130  11.806  0.2750  0.0743 -0.5632
11815TIP3    H156936   0.259   5.072  11.737 -1.4674 -1.2684  1.3215
11815TIP3    H256937   0.219   5.134  11.869  1.4777  2.0142  0.7400
11816TIP3   OH256938   6.062   5.914   3.220 -0.0258  0.1666 -0.3952
11816TIP3    H156939   6.021   5.960   3.294  0.8721  0.1061  0.1398
11816TIP3    H256940   6.029   5.825   3.227  1.0780 -0.1727  0.7196
11817TIP3   OH256941   2.225   0.334   4.416 -0.6627  0.1915 -0.2565
11817TIP3    H156942   2.198   0.376   4.335 -0.1240  0.2194 -0.4213
11817TIP3    H256943   2.304   0.381   4.443 -0.6353 -0.0504  0.0918
11818TIP3   OH256944   5.368   0.286  12.650 -0.3222 -0.6575  0.1297
11818TIP3    H156945   5.308   0.290  12.725 -0.4166  0.2693  0.0071
11818TIP3    H256946   5.328   0.341  12.583  0.0261 -1.0605 -0.4164
11819TIP3   OH256947   5.676   1.283  14.691 -0.1821  0.3691  0.4741
11819TIP3    H156948   5.654   1.337  14.767 -2.9168  0.9328 -0.6551
11819TIP3    H256949   5.612   1.212  14.693  1.8535 -1.5228  0.5627
11820TIP3   OH256950   1.159   5.018   5.819 -0.1408  0.9779  0.0002
11820TIP3    H156951   1.154   5.083   5.749 -0.6592  0.6044 -0.3182
11820TIP3    H256952   1.253   5.011   5.838  0.0421  0.8281 -0.9006
11821TIP3   OH256953   1.284   1.830   0.854 -0.3379  0.0307 -0.4201
11821TIP3    H156954   1.285   1.779   0.773 -0.0571  0.5144 -0.7280
11821TIP3    H256955   1.242   1.773   0.918  1.1101 -1.0811 -0.4270
11822TIP3   OH256956   3.561   2.210   5.673 -0.4617 -0.4962 -0.1511
11822TIP3    H156957   3.638   2.262   5.697  0.0557 -0.8500 -1.0134
11822TIP3    H256958   3.596   2.123   5.655 -0.7914 -0.2396 -2.2435
11823TIP3   OH256959   0.652   4.160   2.948 -0.2891 -0.1749  0.2575
11823TIP3    H156960   0.589   4.124   2.886  0.4783 -2.6344  0.8728
11823TIP3    H256961   0.662   4.093   3.015 -0.0273  1.8464  2.3121
11824TIP3   OH256962   6.041   1.646   4.089 -0.3593  0.3586  0.4491
11824TIP3    H156963   5.989   1.624   4.011  1.3407  0.5599 -0.7839
11824TIP3    H256964   5.998   1.600   4.161 -1.7082 -0.1959 -0.6887
11825TIP3   OH256965   4.936   2.626  16.081 -0.0658  0.2140  0.6066
11825TIP3    H156966   4.907   2.560  16.019 -1.4071  2.4561 -1.2307
11825TIP3    H256967   4.858   2.648  16.132  0.3495  0.4135  1.1596
11826TIP3   OH256968   0.139   3.907   4.298  0.1309 -0.5132 -0.5121
11826TIP3    H156969   0.159   3.835   4.238  2.3247  0.3700 -0.8883
11826TIP3    H256970   0.201   3.896   4.370 -0.7336 -0.0368  0.3252
11827TIP3   OH256971   4.389   0.598   4.571 -0.2207  0.1786  0.0617
11827TIP3    H156972   4.479   0.619   4.545 -0.7442 -0.0463 -2.0475
11827TIP3    H256973   4.376   0.645   4.654  2.8451 -2.2478  2.0311
11828TIP3   OH256974   2.656   5.133   1.461  0.2253  0.8193  0.4523
11828TIP3    H156975   2.631   5.053   1.509  0.3035  0.2006 -0.5267
11828TIP3    H256976   2.669   5.198   1.530  3.2830 -0.8165  1.5598
11829TIP3   OH256977   5.908   2.535  14.184  0.0274 -0.1638 -0.0869
11829TIP3    H156978   5.913   2.629  14.167  1.0553 -0.1350  0.3328
11829TIP3    H256979   5.816   2.519  14.206  0.4388  1.2897  2.9199
11830TIP3   OH256980   5.527   6.508  13.418  0.4366 -0.0809  0.4322
11830TIP3    H156981   5.457   6.478  13.361  1.4221 -1.5524 -0.0358
11830TIP3    H256982   5.521   6.604  13.416 -1.1634 -0.1845 -0.0706
11831TIP3   OH256983   4.283   4.789  13.945  0.2017 -0.3144  0.2528
11831TIP3    H156984   4.223   4.725  13.907  1.1327 -0.0074 -1.8278
11831TIP3    H256985   4.370   4.756  13.920  0.7670  0.6329  0.9763
11832TIP3   OH256986   5.446   5.312  14.290  0.5145  0.1754 -0.1293
11832TIP3    H156987   5.391   5.319  14.368  1.1151  0.9222  0.2353
11832TIP3    H256988   5.521   5.259  14.319 -1.4284 -3.4759 -1.4384
11833TIP3   OH256989   3.620   5.808   5.808 -0.3516 -0.0622 -0.2676
11833TIP3    H156990   3.662   5.728   5.777  0.4426  0.3801 -0.3415
11833TIP3    H256991   3.693   5.863   5.838 -0.8774  0.7282 -0.4428
11834TIP3   OH256992   1.179   2.159  12.820  0.3612 -0.3390 -0.0751
11834TIP3    H156993   1.110   2.220  12.794  1.1751 -0.2217 -2.0671
11834TIP3    H256994   1.167   2.148  12.914 -2.1686 -0.0767 -0.3292
11835TIP3   OH256995   5.298   3.050  16.702 -0.4584 -0.2699 -0.6807
11835TIP3    H156996   5.386   3.041  16.666 -0.3254 -0.2511 -0.3560
11835TIP3    H256997   5.247   2.981  16.658  0.2697 -1.8406  0.8959
11836TIP3   OH256998   1.021   4.766   1.091  0.8109 -0.4112 -0.7597
11836TIP3    H156999   1.041   4.858   1.071 -1.2411  0.2707  0.1775
11836TIP3    H257000   0.983   4.769   1.179 -0.1647 -2.0389 -1.1075
11837TIP3   OH257001   5.923   2.958  10.994 -0.2311 -0.0323 -0.5041
11837TIP3    H157002   5.914   2.947  11.089 -1.1646  1.0105 -0.4536
11837TIP3    H257003   5.916   3.053  10.981 -0.2216 -0.1835 -1.6260
11838TIP3   OH257004   3.134   3.415  12.494  0.2360  0.2312 -0.1322
11838TIP3    H157005   3.205   3.423  12.558 -0.8739  0.8393  1.0375
11838TIP3    H257006   3.119   3.504  12.463 -0.0657  0.1105 -0.3387
11839TIP3   OH257007   4.000   6.817  16.878  0.3690  0.5144 -0.0954
11839TIP3    H157008   4.079   6.852  16.919 -0.8274 -0.1263  2.8705
11839TIP3    H257009   3.958   6.894  16.839  2.5710  0.8081 -2.0531
11840TIP3   OH257010   5.687   5.932  13.986 -0.1140  0.2806 -0.2535
11840TIP3    H157011   5.743   5.988  14.040 -0.9717  0.5317  0.3828
11840TIP3    H257012   5.716   5.843  14.005 -0.1835  0.3871  0.3576
11841TIP3   OH257013   4.888   4.048   2.360  0.2701  0.0451  0.4593
11841TIP3    H157014   4.838   4.089   2.290  0.3398 -0.0438  0.3573
11841TIP3    H257015   4.980   4.056   2.332  0.2646 -0.4664  0.2860
11842TIP3   OH257016   1.779   3.813   5.919  0.7526  0.3675  0.1544
11842TIP3    H157017   1.866   3.773   5.913 -0.9813 -3.4489 -0.6301
11842TIP3    H257018   1.722   3.743   5.951 -1.7646  3.2987  2.3564
11843TIP3   OH257019   5.368   0.107   6.787  0.7813 -0.2201  1.1579
11843TIP3    H157020   5.363   0.201   6.767 -0.5815 -1.0550 -2.8257
11843TIP3    H257021   5.314   0.097   6.865  1.5404  2.4233  2.0834
11844TIP3   OH257022   6.630   1.907   5.567 -0.4032 -0.5121  0.0811
11844TIP3    H157023   6.627   1.813   5.549 -1.9375 -0.8317  1.8546
11844TIP3    H257024   6.593   1.948   5.489 -0.7005 -1.4354 -0.2682
11845TIP3   OH257025   6.707   2.800  11.286  0.8439  0.3980 -0.3615
11845TIP3    H157026   6.773   2.759  11.342  2.2699  1.8210 -0.9621
11845TIP3    H257027   6.750   2.808  11.200 -1.3953 -1.9991 -1.7860
11846TIP3   OH257028   5.351   1.145  14.979 -0.0357 -0.0709 -0.8267
11846TIP3    H157029   5.417   1.195  15.028 -0.6529 -0.0614  0.0128
11846TIP3    H257030   5.393   1.126  14.895  1.0270 -0.0406 -0.3167
11847TIP3   OH257031   0.426   3.807   4.190 -0.2791 -0.2955  0.2330
11847TIP3    H157032   0.436   3.893   4.149  1.4526 -0.2056  0.7867
11847TIP3    H257033   0.438   3.824   4.283  0.7325 -1.2366  0.2747
11848TIP3   OH257034   2.616   6.621   6.054 -0.3489  0.1235 -0.2952
11848TIP3    H157035   2.676   6.687   6.018  0.4705 -0.4446  0.0227
11848TIP3    H257036   2.619   6.636   6.149 -2.2104  1.3660 -0.3980
11849TIP3   OH257037   2.782   4.735  12.089 -0.2546  0.2478  0.2540
11849TIP3    H157038   2.817   4.651  12.061  2.0984  2.1406 -2.8979
11849TIP3    H257039   2.755   4.778  12.007  0.6134  3.3743  1.5277
11850TIP3   OH257040   0.182   1.743  16.083 -0.4988  0.0091 -0.3348
11850TIP3    H157041   0.114   1.757  16.017  0.7663  1.6266 -1.3132
11850TIP3    H257042   0.140   1.769  16.166 -0.6786  2.3235 -1.1113
11851TIP3   OH257043   0.769   1.209  10.474  0.1048 -0.1280 -0.4660
11851TIP3    H157044   0.756   1.119  10.503 -0.2542  0.1934  0.4032
11851TIP3    H257045   0.856   1.210  10.434  0.8354 -0.4814  1.0786
11852TIP3   OH257046   4.878   5.352   0.730  0.2540  0.6118  0.2095
11852TIP3    H157047   4.926   5.405   0.666  0.5261  1.5488  1.1656
11852TIP3    H257048   4.787   5.383   0.723  0.4134  1.2280  0.7717
11853TIP3   OH257049   5.805   1.128  16.839  0.2098 -0.5185  0.5982
11853TIP3    H157050   5.856   1.174  16.906  1.1083 -1.2146  0.3981
11853TIP3    H257051   5.841   1.039  16.838  0.2747 -0.4857 -0.8747
11854TIP3   OH257052   2.402   0.555   3.984  0.0297 -0.0246 -0.0780
11854TIP3    H157053   2.453   0.593   4.056 -0.4614 -2.4574  1.6120
11854TIP3    H257054   2.402   0.461   4.002 -2.2635 -0.3971 -1.8891
11855TIP3   OH257055   3.722   1.548   1.614  0.1755 -0.6082 -0.2433
11855TIP3    H157056   3.678   1.472   1.652  0.4061 -1.2286 -1.1970
11855TIP3    H257057   3.761   1.515   1.533  1.6870  0.1313  0.1586
11856TIP3   OH257058   5.534   0.977  16.769 -0.0587  0.1968 -0.2933
11856TIP3    H157059   5.621   1.014  16.782  0.2599 -0.7085  0.1932
11856TIP3    H257060   5.476   1.053  16.759  0.8253  0.7938 -0.8666
11857TIP3   OH257061   0.991   1.634   2.843  0.0014 -0.1982 -0.1467
11857TIP3    H157062   0.916   1.596   2.797  0.1588 -0.7554  0.0574
11857TIP3    H257063   1.063   1.575   2.824  0.6745  0.9535 -1.3096
11858TIP3   OH257064   3.055   5.256  14.519  0.0631 -0.3242  0.1752
11858TIP3    H157065   3.139   5.273  14.476 -0.6167  2.0584 -0.3152
11858TIP3    H257066   3.014   5.189  14.466  0.2450  0.8910 -1.5430
11859TIP3   OH257067   1.210   3.684  11.073 -0.5369  0.0827 -0.4595
11859TIP3    H157068   1.144   3.666  11.005 -0.6342  0.4048 -0.4541
11859TIP3    H257069   1.294   3.674  11.028 -0.5828 -0.6318 -0.3901
11860TIP3   OH257070   4.560   0.309  12.357  0.1757  0.5656 -0.1446
11860TIP3    H157071   4.640   0.281  12.401 -0.4109 -0.5663  0.2144
11860TIP3    H257072   4.501   0.233  12.363 -0.7207  1.1921 -0.8864
11861TIP3   OH257073   6.629   3.852   4.484 -0.0934  0.0106 -0.3052
11861TIP3    H157074   6.701   3.912   4.505  0.1525 -0.6879  0.9218
11861TIP3    H257075   6.671   3.771   4.458 -0.4304 -0.0409 -0.6969
11862TIP3   OH257076   4.813   0.376  15.853 -0.7075  0.1211  0.5898
11862TIP3    H157077   4.818   0.458  15.903 -1.7739  0.6495 -0.1484
11862TIP3    H257078   4.728   0.338  15.877 -2.0732  1.3009 -2.1884
11863TIP3   OH257079   0.056   1.921   0.431 -0.4389 -0.0879 -0.5023
11863TIP3    H157080   0.066   1.940   0.337 -0.9036  0.1733 -0.5028
11863TIP3    H257081  -0.028   1.960   0.454  0.2227  0.8911  0.2897
11864TIP3   OH257082   4.546   1.541   5.522 -0.3966 -0.0064  0.2797
11864TIP3    H157083   4.534   1.462   5.574 -0.7722  0.0085  0.2175
11864TIP3    H257084   4.464   1.551   5.474 -0.3519  0.4231  0.2905
11865TIP3   OH257085   2.913   3.320   3.577  0.1680 -0.3501  0.1038
11865TIP3    H157086   2.904   3.230   3.610  1.0019 -0.5804 -0.2850
11865TIP3    H257087   2.910   3.310   3.482 -0.7488  0.1464  0.0803
11866TIP3   OH257088   6.185   3.867  12.233 -0.0948 -0.2030  0.5768
11866TIP3    H157089   6.116   3.888  12.169 -0.9240 -0.8223  1.2619
11866TIP3    H257090   6.265   3.867  12.181 -0.4506  1.5775 -0.0491
11867TIP3   OH257091   4.046   4.966  14.349 -0.2416 -0.2859  0.2877
11867TIP3    H157092   4.093   5.032  14.299 -1.2386 -0.8559 -1.4457
11867TIP3    H257093   4.077   4.977  14.439  1.3749  0.9312 -0.4024
11868TIP3   OH257094   0.321   0.337   1.778 -0.3647 -0.0664 -0.3139
11868TIP3    H157095   0.273   0.295   1.707  0.8116 -1.3322 -0.3838
11868TIP3    H257096   0.355   0.265   1.831 -1.0874  0.8591  1.4579
11869TIP3   OH257097   6.797   2.615   4.185  0.0082  0.3368 -0.3887
11869TIP3    H157098   6.878   2.662   4.207  0.4844 -0.7908  0.3283
11869TIP3    H257099   6.812   2.581   4.097  0.7572 -0.7772  0.1535
11870TIP3   OH257100   4.636   0.983   1.957  0.6308 -0.0850  0.2749
11870TIP3    H157101   4.664   0.994   1.866 -1.5883 -3.4149 -0.8874
11870TIP3    H257102   4.653   0.891   1.977 -3.1030 -0.5517  1.6873
11871TIP3   OH257103   2.482   1.499  14.247 -0.0473 -0.4034 -0.3701
11871TIP3    H157104   2.558   1.552  14.273  0.2685 -0.8772 -0.3276
11871TIP3    H257105   2.413   1.526  14.307  0.2454 -0.3689 -0.0445
11872TIP3   OH257106   6.727   5.179  11.133 -0.6932  0.2074 -0.6363
11872TIP3    H157107   6.762   5.090  11.137 -0.2716  0.3501 -1.1655
11872TIP3    H257108   6.641   5.170  11.091 -0.4443  0.1132 -1.1266
11873TIP3   OH257109   5.837   0.206   6.493 -0.0270  0.0028 -0.0384
11873TIP3    H157110   5.905   0.187   6.429 -0.7656  0.9842 -1.1549
11873TIP3    H257111   5.819   0.122   6.536  0.1605 -0.7728 -1.4467
11874TIP3   OH257112   4.057   6.098  15.197 -0.0848  0.3322 -0.5558
11874TIP3    H157113   4.034   6.136  15.113 -0.6561  2.3765  0.4959
11874TIP3    H257114   4.081   6.173  15.252 -1.3554 -0.7867  1.6099
11875TIP3   OH257115   6.552   5.161   5.597  0.4378  0.5039  0.3741
11875TIP3    H157116   6.499   5.100   5.648  1.7471 -0.4651  0.6000
11875TIP3    H257117   6.618   5.107   5.555  0.6356  1.5666 -0.7089
11876TIP3   OH257118   1.089   1.939   3.876  0.0359  0.4391 -0.3365
11876TIP3    H157119   1.042   2.009   3.831  0.3917  0.5031 -0.6108
11876TIP3    H257120   1.072   1.860   3.824  1.4430  0.7386 -1.2922
11877TIP3   OH257121   6.170   5.553   3.362 -0.0974 -0.6241 -0.7824
11877TIP3    H157122   6.113   5.630   3.359 -0.2600 -0.7565 -1.0815
11877TIP3    H257123   6.113   5.481   3.387  0.4579 -0.2804  1.5396
11878TIP3   OH257124   2.022   5.104  12.093  0.1515  0.4354  0.2755
11878TIP3    H157125   1.947   5.161  12.076  0.2419  0.0127 -1.5829
11878TIP3    H257126   2.096   5.151  12.056  0.7237  0.5579  1.5515
11879TIP3   OH257127   3.534   6.465  12.948 -0.4683  0.1662 -0.7777
11879TIP3    H157128   3.503   6.505  12.866 -0.3611  0.6787 -0.5739
11879TIP3    H257129   3.459   6.470  13.007 -0.5186 -0.1221 -0.8186
11880TIP3   OH257130   0.375   1.888  16.611  0.1977  0.0024  0.0087
11880TIP3    H157131   0.333   1.930  16.536 -0.0863  3.6899  2.0673
11880TIP3    H257132   0.404   1.962  16.666  3.3880 -2.5226  1.8756
11881TIP3   OH257133   3.498   5.922   3.231  0.0751 -0.2560  0.1741
11881TIP3    H157134   3.581   5.969   3.221  1.2143 -1.8739  1.6780
11881TIP3    H257135   3.512   5.840   3.183  0.0947 -1.4093  2.1228
11882TIP3   OH257136   1.307   0.506  11.473  0.7178 -0.2157  0.1307
11882TIP3    H157137   1.305   0.601  11.470 -2.0826 -0.1731  1.6729
11882TIP3    H257138   1.332   0.479  11.384 -0.8821  1.9116 -0.9960
11883TIP3   OH257139   5.743   5.876   0.433 -0.1185 -0.2869 -0.1450
11883TIP3    H157140   5.657   5.902   0.400  0.1656  0.4158 -0.3311
11883TIP3    H257141   5.737   5.887   0.528  0.6345  2.3786 -0.3698
11884TIP3   OH257142   0.668   6.605  16.031  0.1127  0.7528  0.3039
11884TIP3    H157143   0.736   6.556  15.986 -0.6112  0.8175 -0.8947
11884TIP3    H257144   0.715   6.663  16.091  0.9960 -0.8305  1.1503
11885TIP3   OH257145   1.609   5.700   1.739 -0.2762  0.0984 -0.5849
11885TIP3    H157146   1.632   5.622   1.790  0.8836  0.1201 -1.0728
11885TIP3    H257147   1.662   5.770   1.777  0.5782  0.1223 -1.8127
11886TIP3   OH257148   2.840   6.466   5.713 -0.1776  0.6648 -0.3678
11886TIP3    H157149   2.932   6.481   5.691  0.0790  0.4394  0.5340
11886TIP3    H257150   2.843   6.416   5.795 -1.0833 -0.2328 -0.8770
11887TIP3   OH257151   1.283   2.690   2.060 -0.4897  0.4722 -0.0537
11887TIP3    H157152   1.357   2.742   2.093 -0.4781 -0.3354  1.2093
11887TIP3    H257153   1.294   2.604   2.100 -2.8782  0.7398  1.2320
11888TIP3   OH257154   6.616   1.173  12.375  0.7546 -0.1598  0.0706
11888TIP3    H157155   6.577   1.094  12.337  1.4193 -0.0742 -0.8058
11888TIP3    H257156   6.542   1.222  12.412  0.3466 -1.2411  0.7227
11889TIP3   OH257157   0.339   2.169   5.085  0.1372  0.4044 -0.0255
11889TIP3    H157158   0.334   2.096   5.146  1.5224 -0.0826 -0.4808
11889TIP3    H257159   0.408   2.144   5.023 -0.3587  1.4611 -1.0191
11890TIP3   OH257160   0.436   5.572   2.618 -0.7460  0.1016  0.4751
11890TIP3    H157161   0.385   5.587   2.538  0.3087 -1.5009 -0.5246
11890TIP3    H257162   0.440   5.658   2.660 -3.0378  0.5453 -0.1438
11891TIP3   OH257163   3.928   0.350   3.478  0.1971  0.1966 -0.0089
11891TIP3    H157164   3.860   0.404   3.517 -0.8270 -0.3917 -0.9502
11891TIP3    H257165   3.936   0.382   3.389  0.5685 -0.2749 -0.1491
11892TIP3   OH257166   2.075   1.948   6.185  0.5870 -0.0036 -0.1829
11892TIP3    H157167   2.020   1.870   6.176  2.4270 -1.3830  0.3003
11892TIP3    H257168   2.035   1.998   6.257  0.0028 -1.0075  0.1937
11893TIP3   OH257169   1.704   2.092   2.596 -0.4100  0.1000 -0.2202
11893TIP3    H157170   1.728   2.097   2.688 -0.4273 -2.3081 -0.0644
11893TIP3    H257171   1.777   2.132   2.549 -0.0041  0.5153  0.7643
11894TIP3   OH257172   5.248   6.154  16.865 -0.3777  0.0225 -0.0221
11894TIP3    H157173   5.199   6.072  16.863  0.7660 -0.6583 -0.5855
11894TIP3    H257174   5.291   6.153  16.951  1.9258 -1.3479 -1.1534
11895TIP3   OH257175   4.113   2.296  16.206  0.7427 -0.2917 -0.3299
11895TIP3    H157176   4.145   2.333  16.288  1.6576 -0.2728 -0.6925
11895TIP3    H257177   4.189   2.298  16.147  0.1379 -0.4481 -1.1297
11896TIP3   OH257178   1.262   4.471  16.721 -0.2340 -0.1742 -0.2538
11896TIP3    H157179   1.227   4.474  16.632  0.6164 -2.7175 -0.7185
11896TIP3    H257180   1.193   4.427  16.771  0.0724 -0.4142 -0.0468
11897TIP3   OH257181   4.624   1.101   3.515 -0.1475 -0.6483  0.7504
11897TIP3    H157182   4.536   1.070   3.493  0.7238 -3.4230  0.9868
11897TIP3    H257183   4.634   1.082   3.608 -0.1217  1.8362  1.2944
11898TIP3   OH257184   4.133   2.855   1.871 -0.0570  0.2172  0.5394
11898TIP3    H157185   4.219   2.818   1.848 -0.2064 -0.8563  1.6780
11898TIP3    H257186   4.073   2.818   1.806  0.7256  2.9916 -1.8887
11899TIP3   OH257187   5.883   5.058   3.431 -0.6030  0.3681 -0.0863
11899TIP3    H157188   5.792   5.087   3.435 -0.8635 -0.4069 -0.4540
11899TIP3    H257189   5.880   4.964   3.447  0.1735  0.3944  0.2809
11900TIP3   OH257190   4.231   0.569   0.267 -0.1359 -0.3714 -0.0429
11900TIP3    H157191   4.302   0.628   0.242  0.0322 -0.6220 -0.1602
11900TIP3    H257192   4.227   0.575   0.363 -0.1837 -0.0932 -0.0648
11901TIP3   OH257193   1.116   1.198   3.774 -0.0599  0.7277 -0.4057
11901TIP3    H157194   1.113   1.210   3.679 -2.4339  3.2398 -0.0590
11901TIP3    H257195   1.074   1.113   3.788  0.0033  0.4924 -1.5680
11902TIP3   OH257196   5.482   2.208  15.477 -0.2568  0.2734  0.1139
11902TIP3    H157197   5.500   2.271  15.547 -2.7458  2.3940 -1.0711
11902TIP3    H257198   5.555   2.217  15.416  1.9159 -1.5703  2.3335
11903TIP3   OH257199   3.574   2.079  10.410 -0.0974  0.4984 -0.0117
11903TIP3    H157200   3.489   2.037  10.394 -0.0336  0.7604 -1.0386
11903TIP3    H257201   3.552   2.167  10.440 -0.2368 -0.2728  2.2882
11904TIP3   OH257202   3.826   6.771  12.508 -0.5032  0.4714 -0.4247
11904TIP3    H157203   3.851   6.863  12.515 -0.2167  0.3836 -0.2898
11904TIP3    H257204   3.897   6.730  12.457  0.3855 -0.0748  1.2019
11905TIP3   OH257205   1.944   5.550  16.608 -0.7217  0.0814  0.1303
11905TIP3    H157206   1.855   5.585  16.612 -1.0457 -0.6404 -0.4858
11905TIP3    H257207   1.962   5.540  16.514 -0.1166 -0.0773  0.2568
11906TIP3   OH257208   2.033   3.456   6.163 -0.1807 -0.8931  0.1547
11906TIP3    H157209   1.951   3.474   6.208 -0.2611 -1.8629  0.4139
11906TIP3    H257210   2.100   3.465   6.230 -0.0971 -0.3575  0.0026
11907TIP3   OH257211   5.621   2.990   3.919  0.1371  0.2169 -0.3134
11907TIP3    H157212   5.623   2.909   3.868 -1.6506  0.8360 -1.3860
11907TIP3    H257213   5.571   3.051   3.866 -1.0744  1.1249  1.7955
11908TIP3   OH257214   1.121   2.397  13.889  0.0768  0.2363 -1.1026
11908TIP3    H157215   1.165   2.381  13.806 -1.7159 -0.4056 -1.9778
11908TIP3    H257216   1.039   2.347  13.882  0.2899 -0.5429  1.4029
11909TIP3   OH257217   0.252   1.260  15.220 -0.0368 -0.3270 -0.7421
11909TIP3    H157218   0.301   1.188  15.180 -1.5488 -1.2204 -1.0494
11909TIP3    H257219   0.167   1.221  15.241 -0.5261  1.1225 -0.0068
11910TIP3   OH257220   5.246   1.723   2.087 -0.5633  0.0346 -0.4619
11910TIP3    H157221   5.275   1.722   2.178  0.5967 -0.8044 -0.8293
11910TIP3    H257222   5.184   1.650   2.081  0.1743 -0.5853 -0.5980
11911TIP3   OH257223   4.854   6.603   5.630  0.3289  0.6037  0.0670
11911TIP3    H157224   4.763   6.614   5.657  0.2947  1.0984 -0.2301
11911TIP3    H257225   4.902   6.587   5.711  0.0899  1.1297  0.3174
11912TIP3   OH257226   3.090   2.494   1.110 -0.0523 -0.1327 -0.5088
11912TIP3    H157227   3.100   2.450   1.194  1.3035  0.5916 -0.2848
11912TIP3    H257228   3.082   2.423   1.046 -0.3825 -0.6789  0.1378
11913TIP3   OH257229   4.725   4.894  16.322 -0.8446  0.1700  0.2757
11913TIP3    H157230   4.692   4.912  16.410  0.9823  0.1792  0.9813
11913TIP3    H257231   4.816   4.866  16.336 -0.0970  1.5364 -1.7112
11914TIP3   OH257232   2.630   3.066  11.295  0.0499 -0.0328 -0.1084
11914TIP3    H157233   2.686   3.071  11.218 -0.6436 -0.4735 -0.6517
11914TIP3    H257234   2.686   3.092  11.368  0.8005  0.0653 -0.7192
11915TIP3   OH257235   5.522   2.754  15.589  0.5128  0.2081 -0.9322
11915TIP3    H157236   5.465   2.721  15.520 -0.0484 -0.2714 -0.2512
11915TIP3    H257237   5.566   2.829  15.550 -0.0410  0.1357 -1.7082
11916TIP3   OH257238   2.607   4.544  12.322 -0.7202 -0.3614  0.2813
11916TIP3    H157239   2.589   4.632  12.292  0.2881 -0.2435 -0.0040
11916TIP3    H257240   2.630   4.495  12.243 -0.6571 -0.7148  0.5132
11917TIP3   OH257241   2.451   0.498   2.904  0.3264  0.3142 -0.5356
11917TIP3    H157242   2.509   0.460   2.970  1.1541 -0.0676 -1.4531
11917TIP3    H257243   2.499   0.575   2.872 -0.6917  1.3018  0.2909
11918TIP3   OH257244   1.371   5.030   1.793  0.1528 -0.3223  0.1895
11918TIP3    H157245   1.275   5.034   1.791  0.1647 -0.6459 -1.3569
11918TIP3    H257246   1.399   5.122   1.798 -0.2203 -0.2241  0.5403
11919TIP3   OH257247   2.254   5.017  11.773  0.3445  0.7656  0.3627
11919TIP3    H157248   2.214   5.101  11.751 -0.4711 -0.0147 -1.2482
11919TIP3    H257249   2.182   4.954  11.768  0.8870  0.0123  1.8470
11920TIP3   OH257250   3.950   0.254  14.832 -0.0955 -0.0361  0.4157
11920TIP3    H157251   3.929   0.347  14.821 -2.6046 -0.7516 -1.2584
11920TIP3    H257252   3.907   0.229  14.914  0.8517  0.3522  1.0328
11921TIP3   OH257253   3.459   4.689   5.595 -0.9789  0.4260 -0.3437
11921TIP3    H157254   3.427   4.766   5.641 -0.2739  1.1982 -1.1132
11921TIP3    H257255   3.490   4.722   5.511 -0.2169 -0.6204 -0.4940
11922TIP3   OH257256   4.219   3.766   2.050 -0.0480  0.1342 -0.4219
11922TIP3    H157257   4.303   3.812   2.057  0.0681 -0.2730  0.9312
11922TIP3    H257258   4.155   3.827   2.085 -0.1700  0.0224 -0.4505
11923TIP3   OH257259   5.397   3.630  11.674  1.0560 -0.0065  0.0954
11923TIP3    H157260   5.420   3.553  11.621  1.6574  0.4410 -0.3017
11923TIP3    H257261   5.437   3.704  11.628  0.2572  0.5838  0.3253
11924TIP3   OH257262   2.315   2.330   4.513 -0.0841 -0.5191  0.1423
11924TIP3    H157263   2.260   2.253   4.529  1.1096 -1.5738 -0.7911
11924TIP3    H257264   2.260   2.404   4.539 -0.7850 -1.7454  2.2693
11925TIP3   OH257265   6.452   0.453  12.063 -0.3283  0.3562 -0.6208
11925TIP3    H157266   6.530   0.410  12.099  0.2342  1.7762 -0.0667
11925TIP3    H257267   6.487   0.524  12.009 -1.2241  1.3015  0.0097
11926TIP3   OH257268   2.832   4.565  16.325 -0.1642 -0.5774  0.3062
11926TIP3    H157269   2.900   4.626  16.352  0.0503 -1.1595  1.0983
11926TIP3    H257270   2.795   4.603  16.245  0.8428 -0.0821  0.0775
11927TIP3   OH257271   5.728   2.103   6.037 -0.2155 -0.4531  0.0818
11927TIP3    H157272   5.713   2.090   6.131 -0.8923  1.1443  0.2124
11927TIP3    H257273   5.820   2.129   6.030 -0.0761 -0.9060  0.2786
11928TIP3   OH257274   5.484   1.650  11.134 -0.0873 -0.3060  0.4807
11928TIP3    H157275   5.472   1.560  11.102 -0.1535 -0.8492  1.9946
11928TIP3    H257276   5.471   1.644  11.228 -0.5990  1.3978  0.5387
11929TIP3   OH257277   2.417   5.251  13.837  0.0112 -0.8293 -0.2628
11929TIP3    H157278   2.399   5.187  13.767 -0.4388 -1.2126  0.2009
11929TIP3    H257279   2.484   5.308  13.800 -1.3287 -0.0845 -1.5892
11930TIP3   OH257280   0.994   1.363  12.008  0.2993  0.4191  0.2609
11930TIP3    H157281   1.075   1.364  12.059  0.3567 -1.0123  0.2221
11930TIP3    H257282   0.930   1.411  12.061  0.2039 -1.5293  1.9344
11931TIP3   OH257283   2.968   5.033  15.975  0.0722 -0.2378 -0.0180
11931TIP3    H157284   3.060   5.009  15.965  0.1339  0.4853 -1.3230
11931TIP3    H257285   2.921   4.967  15.925 -0.0939 -0.4187  0.3796
11932TIP3   OH257286   3.528   2.752   0.305  0.5076  0.6320 -0.1491
11932TIP3    H157287   3.563   2.756   0.216 -1.5720  3.5328 -0.9091
11932TIP3    H257288   3.604   2.765   0.361  1.2462  3.3197 -1.6681
11933TIP3   OH257289   4.917   5.549   0.949  0.0748  0.2414  0.2942
11933TIP3    H157290   4.908   5.487   0.877  1.2247 -1.0463  1.2116
11933TIP3    H257291   4.904   5.635   0.910  1.9150 -0.3562 -1.6716
11934TIP3   OH257292   1.772   0.919   5.898 -0.2868  0.9505  0.4693
11934TIP3    H157293   1.725   0.888   5.821  0.0295  0.1828  0.5768
11934TIP3    H257294   1.704   0.932   5.964 -0.3110 -0.6824  0.7957
11935TIP3   OH257295   5.819   3.710  10.523  0.0622 -0.4061 -0.1944
11935TIP3    H157296   5.899   3.676  10.565  1.2872  1.9769 -0.5450
11935TIP3    H257297   5.851   3.758  10.446 -1.7453  0.3918 -0.4570
11936TIP3   OH257298   2.763   6.570   1.434  0.3016  0.0717 -0.2417
11936TIP3    H157299   2.740   6.662   1.449  1.1903  0.7982 -3.0196
11936TIP3    H257300   2.680   6.529   1.410 -0.3778 -0.2233  2.4516
11937TIP3   OH257301   5.579   4.732   3.251  0.3192  0.3572 -0.1783
11937TIP3    H157302   5.638   4.790   3.204  1.6532 -0.4480  0.4909
11937TIP3    H257303   5.500   4.784   3.265  0.1744  0.8545 -2.6654
11938TIP3   OH257304   6.602   5.469   4.706 -0.0933 -0.1303 -0.0871
11938TIP3    H157305   6.544   5.458   4.781  0.8016 -1.7251  0.4078
11938TIP3    H257306   6.670   5.402   4.718  2.7837  2.7338  0.2088
11939TIP3   OH257307   4.320   3.314   3.975 -0.2769  0.2857 -0.0464
11939TIP3    H157308   4.352   3.325   4.064  2.0438  0.2126 -0.8440
11939TIP3    H257309   4.233   3.353   3.976 -0.8376 -0.9373  2.5884
11940TIP3   OH257310   3.209   5.001   2.195  0.4787 -0.4430  0.4632
11940TIP3    H157311   3.297   4.965   2.192  1.6491  2.2886  0.3206
11940TIP3    H257312   3.173   4.984   2.108  1.0018 -1.2378  0.4025
11941TIP3   OH257313   5.453   3.579   6.541 -0.5901  0.0180 -1.0238
11941TIP3    H157314   5.421   3.515   6.605  0.2193  2.0732  1.5060
11941TIP3    H257315   5.374   3.615   6.502 -1.1964  0.5824  0.6819
11942TIP3   OH257316   2.030   3.462  16.030  0.6539  0.6192 -0.0390
11942TIP3    H157317   2.076   3.544  16.016 -0.1461  0.9494 -0.7306
11942TIP3    H257318   2.031   3.418  15.945  1.2601 -0.1893  0.3727
11943TIP3   OH257319   5.813   6.118   0.952 -0.2159 -0.3284 -0.1901
11943TIP3    H157320   5.752   6.105   1.025 -1.0867 -1.9439 -1.1683
11943TIP3    H257321   5.892   6.071   0.978 -0.1913 -0.1062  0.1291
11944TIP3   OH257322   1.279   5.862  16.322 -0.0747 -0.0997 -0.0160
11944TIP3    H157323   1.308   5.860  16.413 -0.7770  1.2643  0.2453
11944TIP3    H257324   1.184   5.856  16.327 -0.0698 -1.0331 -0.7227
11945TIP3   OH257325   5.455   4.999  14.543 -0.1764 -0.1586 -0.7983
11945TIP3    H157326   5.488   4.963  14.625 -0.3871 -1.6490 -1.3567
11945TIP3    H257327   5.409   5.079  14.569 -0.0226 -0.4765  0.4944
11946TIP3   OH257328   0.562   1.761   1.348  0.1618 -0.7929  0.2224
11946TIP3    H157329   0.657   1.775   1.349  0.3124 -1.7424 -0.1900
11946TIP3    H257330   0.535   1.776   1.439  0.5393  0.5211  0.1353
11947TIP3   OH257331   4.591   3.760  15.275  0.0557  0.0333  0.2196
11947TIP3    H157332   4.649   3.691  15.243  0.2096  0.3035 -0.0851
11947TIP3    H257333   4.627   3.784  15.361 -0.0973 -0.3838  0.3982
11948TIP3   OH257334   5.674   0.880  15.569 -0.6282  0.3121  0.7727
11948TIP3    H157335   5.700   0.855  15.658 -0.6185  0.8212  0.9159
11948TIP3    H257336   5.603   0.942  15.582  0.5814  1.8040  0.4883
11949TIP3   OH257337   5.726   1.804  15.112  0.3375 -0.1820 -0.7039
11949TIP3    H157338   5.759   1.882  15.156 -0.2757 -0.5339  0.3787
11949TIP3    H257339   5.660   1.838  15.052  1.0604  0.2756 -1.2612
11950TIP3   OH257340   1.073   4.774   5.748 -0.0216  0.2747 -0.1857
11950TIP3    H157341   1.157   4.730   5.737  1.0967  1.7832  1.9407
11950TIP3    H257342   1.095   4.866   5.757 -1.9602  0.7543 -0.1596
11951TIP3   OH257343   6.429   4.571   0.407  0.0292 -0.3989  0.7473
11951TIP3    H157344   6.485   4.645   0.386  1.0335 -0.2167  3.7909
11951TIP3    H257345   6.477   4.494   0.376  1.8610 -0.2178  3.0354
11952TIP3   OH257346   6.633   1.933   1.888 -0.0307  0.0836 -0.3343
11952TIP3    H157347   6.582   2.006   1.854 -0.4219 -0.4499 -0.9172
11952TIP3    H257348   6.595   1.915   1.975  1.7938  2.2537  0.9516
11953TIP3   OH257349   5.260   1.800   4.903  0.3717  0.4626  0.6050
11953TIP3    H157350   5.239   1.884   4.861 -0.3557  0.6213  1.2739
11953TIP3    H257351   5.176   1.757   4.915  0.8626 -1.0213 -1.0477
11954TIP3   OH257352   1.651   6.465   0.618  0.5318  0.5353  0.6990
11954TIP3    H157353   1.708   6.499   0.549 -0.7427 -1.5825 -1.5036
11954TIP3    H257354   1.699   6.390   0.653 -0.8203 -1.2767 -1.1884
11955TIP3   OH257355   4.933   0.241  10.800  0.9646 -0.0336 -0.2735
11955TIP3    H157356   4.855   0.287  10.769  1.2513  1.4045  1.0545
11955TIP3    H257357   5.006   0.291  10.764  1.2776 -0.1099  0.2538
11956TIP3   OH257358   6.810   6.348  12.792 -0.1284 -0.2425 -0.1468
11956TIP3    H157359   6.716   6.332  12.783 -0.4537  1.2577  0.3634
11956TIP3    H257360   6.828   6.420  12.732  0.6107 -0.2614  0.0437
11957TIP3   OH257361   1.608   0.127   4.446  0.5762  0.5031 -0.0324
11957TIP3    H157362   1.667   0.086   4.510 -1.3462 -2.1914  0.1034
11957TIP3    H257363   1.551   0.183   4.498  1.0875  0.7929  0.2180
11958TIP3   OH257364   5.823   3.807  15.024  0.0435 -0.3882  0.2888
11958TIP3    H157365   5.799   3.719  14.994  0.5008 -0.4929  0.2296
11958TIP3    H257366   5.861   3.793  15.110 -0.7063 -0.1520  0.6676
11959TIP3   OH257367   6.733   3.642   5.860  0.2563  0.3293  0.1099
11959TIP3    H157368   6.724   3.566   5.918 -1.9433 -0.1764 -0.8254
11959TIP3    H257369   6.645   3.656   5.826  1.5498  0.2504 -3.5392
11960TIP3   OH257370   6.462   4.664  13.367 -0.2328 -0.3073  0.0624
11960TIP3    H157371   6.527   4.600  13.398 -0.0109 -0.3010 -0.3713
11960TIP3    H257372   6.514   4.735  13.330 -0.4602 -1.4347 -2.5670
11961TIP3   OH257373   4.484   4.100  13.408  0.3621 -0.4595 -0.0702
11961TIP3    H157374   4.422   4.159  13.365  0.7846  0.9417  1.2098
11961TIP3    H257375   4.544   4.158  13.454  0.9320 -1.8963  1.0151
11962TIP3   OH257376   2.774   5.604   0.404  0.2340  0.0920 -0.3514
11962TIP3    H157377   2.856   5.567   0.371  0.0543 -2.0145  1.4651
11962TIP3    H257378   2.780   5.593   0.499 -1.0182  2.3238  0.0195
11963TIP3   OH257379   0.355   5.815   5.159  0.2236  0.0261  0.3256
11963TIP3    H157380   0.358   5.910   5.163  2.0743  0.0093 -0.1885
11963TIP3    H257381   0.262   5.794   5.150 -0.4199  1.6658  2.6886
11964TIP3   OH257382   1.650   0.573   1.390  0.1157 -0.2659 -0.1783
11964TIP3    H157383   1.574   0.631   1.380  0.3626 -0.1553 -1.4915
11964TIP3    H257384   1.617   0.486   1.365  0.0626 -0.4741  0.6062
11965TIP3   OH257385   3.088   2.255   3.220 -0.0737  0.1941 -0.4606
11965TIP3    H157386   3.028   2.185   3.245 -0.4089  0.0215 -1.6910
11965TIP3    H257387   3.053   2.333   3.263 -0.5818 -0.1045 -0.3256
11966TIP3   OH257388   3.138   5.765  14.447 -0.4546 -0.3179  0.3292
11966TIP3    H157389   3.185   5.692  14.489 -3.1355 -1.7987  0.8915
11966TIP3    H257390   3.088   5.804  14.518 -0.6236  0.8084 -0.3997
11967TIP3   OH257391   5.411   1.769  13.489 -0.0607 -0.3775  0.1416
11967TIP3    H157392   5.360   1.697  13.525 -2.5248  1.2906  0.1389
11967TIP3    H257393   5.497   1.761  13.530 -1.4403 -1.1030  3.0158
11968TIP3   OH257394   5.425   5.735  15.850 -0.0883  0.1423 -0.0904
11968TIP3    H157395   5.465   5.651  15.871 -0.6322 -0.4361 -1.3090
11968TIP3    H257396   5.499   5.792  15.828  0.3234  0.1663  1.3177
11969TIP3   OH257397   2.919   6.777   3.658 -0.4335 -0.3643  0.3286
11969TIP3    H157398   3.008   6.745   3.645 -0.1749  0.2008  0.6915
11969TIP3    H257399   2.879   6.774   3.571  0.1261 -0.0619  0.0627
11970TIP3   OH257400   4.461   6.165  16.261  0.0107 -0.1151  0.1733
11970TIP3    H157401   4.489   6.213  16.184 -0.0708 -0.4327 -0.0526
11970TIP3    H257402   4.468   6.228  16.333  1.0948 -0.1330  0.0841
11971TIP3   OH257403   4.407   3.810   4.431 -0.0535  0.0426 -0.0591
11971TIP3    H157404   4.484   3.755   4.414  0.2730  0.0461  1.4061
11971TIP3    H257405   4.376   3.783   4.517 -0.5048  1.4497  0.2314
11972TIP3   OH257406   0.930   3.679   5.410 -0.2619 -0.2494  0.1986
11972TIP3    H157407   1.022   3.700   5.393  0.4228 -4.1016 -1.3519
11972TIP3    H257408   0.887   3.685   5.325 -1.0087 -0.3832  0.5588
11973TIP3   OH257409   2.529   1.767  13.686 -0.2691 -0.4751 -0.4209
11973TIP3    H157410   2.592   1.736  13.751 -0.3247  2.3956  1.0729
11973TIP3    H257411   2.451   1.713  13.701  0.6748 -1.7621 -0.0378
11974TIP3   OH257412   4.004   5.708  14.024  0.5148 -0.6947  0.1690
11974TIP3    H157413   3.918   5.677  14.053  0.5269 -2.6848 -1.8835
11974TIP3    H257414   3.984   5.769  13.953  0.7868 -0.5250  0.2396
11975TIP3   OH257415   5.205   1.409   1.457  0.0021 -0.3158 -0.3342
11975TIP3    H157416   5.112   1.388   1.442 -0.6864  1.3505  1.3880
11975TIP3    H257417   5.248   1.324   1.457 -1.7154 -1.2210  0.0436
11976TIP3   OH257418   1.200   4.711  15.795  0.6220 -0.5953 -0.5708
11976TIP3    H157419   1.252   4.636  15.767 -0.3658 -0.7572 -1.9964
11976TIP3    H257420   1.121   4.674  15.832  1.6993 -0.3638  2.0672
11977TIP3   OH257421   5.547   5.135   1.225  0.3986  0.1904  0.0836
11977TIP3    H157422   5.607   5.085   1.281 -0.5875 -1.0191  0.0951
11977TIP3    H257423   5.490   5.068   1.188 -1.5511  1.4250  0.8184
11978TIP3   OH257424   5.033   3.328  13.359 -0.2206  0.1877  0.0364
11978TIP3    H157425   4.943   3.297  13.367  0.2061 -0.9414  0.6282
11978TIP3    H257426   5.039   3.362  13.270 -0.5984 -1.8760 -0.8141
11979TIP3   OH257427   0.777   5.639  16.595  0.2364 -0.2940 -0.3729
11979TIP3    H157428   0.696   5.689  16.604  0.1547 -0.5650  0.4896
11979TIP3    H257429   0.757   5.574  16.528  0.1549  0.4548 -1.0745
11980TIP3   OH257430   6.218   6.057  12.193 -0.3333  0.8759 -0.1573
11980TIP3    H157431   6.232   6.046  12.099  3.0676  2.1159  0.1487
11980TIP3    H257432   6.215   6.152  12.205 -0.2672  0.7248  1.0632
11981TIP3   OH257433   3.978   3.867  12.046 -0.1320 -0.6450 -0.0949
11981TIP3    H157434   4.018   3.951  12.025  0.8451 -0.8726  0.7726
11981TIP3    H257435   3.981   3.863  12.142 -2.2086 -0.6931 -0.0069
11982TIP3   OH257436   5.986   4.995   0.191 -0.1760 -0.1515  0.1845
11982TIP3    H157437   5.951   5.032   0.273 -1.1003  0.1422 -0.3372
11982TIP3    H257438   5.958   4.903   0.192  1.2300 -0.5801  0.9827
11983TIP3   OH257439   1.301   2.597   1.241 -0.4147 -0.2701 -0.1372
11983TIP3    H157440   1.301   2.562   1.152  1.8351 -0.5551 -0.0430
11983TIP3    H257441   1.391   2.625   1.257 -0.9598  0.5275  1.7700
11984TIP3   OH257442   0.392   5.721   5.482 -0.1477 -0.2071 -0.1435
11984TIP3    H157443   0.297   5.720   5.486 -0.3343  0.0644 -3.0192
11984TIP3    H257444   0.413   5.701   5.391  2.4890  1.2199  0.0587
11985TIP3   OH257445   1.389   3.119  14.903  0.1079 -0.1308 -0.1827
11985TIP3    H157446   1.437   3.197  14.875 -2.0315  0.9387 -0.9684
11985TIP3    H257447   1.341   3.147  14.981 -0.7185 -0.6332 -0.5016
11986TIP3   OH257448   3.570   6.800  12.959  0.1126 -0.6817 -0.4702
11986TIP3    H157449   3.549   6.839  12.874  0.7735  1.2093  0.2096
11986TIP3    H257450   3.599   6.711  12.938 -0.5559 -0.5298 -2.1313
11987TIP3   OH257451   6.008   4.320   0.600 -0.5547 -0.1044  0.5301
11987TIP3    H157452   5.971   4.236   0.628 -3.1537 -0.0260 -2.3767
11987TIP3    H257453   5.953   4.386   0.642 -0.7853  0.0740 -0.0428
11988TIP3   OH257454   1.626   2.484   4.773  0.3817 -0.0225  0.3068
11988TIP3    H157455   1.548   2.530   4.740 -2.3629 -2.0307  3.7004
11988TIP3    H257456   1.666   2.547   4.833  1.5032  1.0638 -1.5396
11989TIP3   OH257457   0.705   5.060  11.699 -0.1675  0.5064 -0.0542
11989TIP3    H157458   0.699   4.971  11.732 -0.1345 -0.0322 -1.4362
11989TIP3    H257459   0.782   5.096  11.741  0.5961 -0.5761 -0.5018
11990TIP3   OH257460   6.018   4.121   4.431  0.4781  0.2089  0.1284
11990TIP3    H157461   5.953   4.076   4.377  1.3397  0.9814 -1.5816
11990TIP3    H257462   6.013   4.077   4.516  0.6131 -2.4705 -1.1895
11991TIP3   OH257463   4.435   0.010   1.422 -0.1189  0.2721  0.4382
11991TIP3    H157464   4.416  -0.047   1.348 -1.6087 -0.3091  1.2540
11991TIP3    H257465   4.477   0.086   1.383  0.1807 -0.5496 -0.8699
11992TIP3   OH257466   4.044   0.738   0.882 -0.4733 -0.1289  0.2556
11992TIP3    H157467   4.103   0.698   0.946 -0.5111  0.9518  0.9734
11992TIP3    H257468   3.957   0.724   0.918 -0.8137 -3.0390 -1.5261
11993TIP3   OH257469   3.485   3.137   1.506  0.0727 -0.4962 -0.0450
11993TIP3    H157470   3.495   3.045   1.482 -0.7566 -0.0937 -2.0109
11993TIP3    H257471   3.501   3.139   1.601 -0.8488 -2.8068  0.1901
11994TIP3   OH257472   0.557   5.436   0.592 -0.4017 -0.1780  0.8118
11994TIP3    H157473   0.522   5.446   0.680  0.7404  2.5470  1.0177
11994TIP3    H257474   0.516   5.507   0.542 -0.5545 -1.3046 -0.7295
11995TIP3   OH257475   4.125   0.443   4.096 -0.5728  0.1068 -0.4607
11995TIP3    H157476   4.183   0.376   4.131  0.4520  1.2992  0.1834
11995TIP3    H257477   4.037   0.419   4.127 -0.2170 -0.9499 -0.2849
11996TIP3   OH257478   1.411   4.069   0.525 -0.2589  0.0136 -0.1758
11996TIP3    H157479   1.485   4.129   0.519  0.2365 -0.7542 -1.8619
11996TIP3    H257480   1.424   4.022   0.608  1.2418 -0.2625 -0.5670
11997TIP3   OH257481   3.433   2.259  12.836 -0.7053  0.2729 -0.5823
11997TIP3    H157482   3.387   2.205  12.900 -1.5453  0.4931 -0.9900
11997TIP3    H257483   3.467   2.333  12.887  2.2515 -1.6472  0.3684
11998TIP3   OH257484   2.415   4.309  11.233  0.1194 -0.7343  0.0223
11998TIP3    H157485   2.456   4.267  11.157  0.8180 -1.0923  0.5937
11998TIP3    H257486   2.388   4.236  11.289 -0.9591 -0.4895 -0.1760
11999TIP3   OH257487   4.403   3.366  16.457 -0.1195 -0.4572  0.3858
11999TIP3    H157488   4.326   3.346  16.404  0.6523  0.0547 -0.9557
11999TIP3    H257489   4.446   3.282  16.469  0.0035 -0.4951 -0.2932
12000TIP3   OH257490   3.794   3.291   3.804 -0.0858  0.5740 -0.0557
12000TIP3    H157491   3.785   3.331   3.891 -0.6703  0.0962  0.1048
12000TIP3    H257492   3.874   3.240   3.810 -0.5248 -0.0585  0.4408
12001TIP3   OH257493   1.995   3.464  15.128 -0.4112  0.3611  0.5648
12001TIP3    H157494   2.048   3.396  15.085 -0.9326  0.6942 -0.6207
12001TIP3    H257495   1.917   3.417  15.159  0.1403  0.0464  1.5075
12002TIP3   OH257496   1.278   0.852  10.931  0.2480  0.7164  0.2400
12002TIP3    H157497   1.357   0.844  10.984 -1.0397  3.4089  2.7065
12002TIP3    H257498   1.215   0.793  10.973  0.1280  0.5819 -0.1229
12003TIP3   OH257499   2.288   6.560  13.844 -0.2231  0.0771 -0.4087
12003TIP3    H157500   2.352   6.508  13.893  0.0340 -1.7449 -2.5787
12003TIP3    H257501   2.203   6.536  13.881  0.0768 -0.1069  0.1575
12004TIP3   OH257502   3.139   3.985  17.263 -0.3587  0.1390  0.2554
12004TIP3    H157503   3.058   3.953  17.302  0.3191 -0.3030  1.3285
12004TIP3    H257504   3.120   4.076  17.239 -1.1056  0.0990  0.6890
12005TIP3   OH257505   4.014   1.756  15.386  0.1422  0.4536 -0.2474
12005TIP3    H157506   4.023   1.661  15.393 -0.0589  0.6488  3.3762
12005TIP3    H257507   3.921   1.769  15.365 -0.5970 -0.0700  2.5226
12006TIP3   OH257508   4.432   3.764   3.971 -0.0179  0.7112  0.2781
12006TIP3    H157509   4.394   3.817   3.901 -1.7496 -0.6400  0.1377
12006TIP3    H257510   4.356   3.730   4.018  1.0962  2.3370  3.4315
12007TIP3   OH257511   3.496   2.822   3.919  0.3442 -0.2565 -0.0884
12007TIP3    H157512   3.482   2.843   4.011 -0.5773 -2.3616  0.2749
12007TIP3    H257513   3.445   2.888   3.871  1.0446  1.0045  0.8799
12008TIP3   OH257514   2.614   0.918  13.789  0.2513  0.0530 -0.3492
12008TIP3    H157515   2.615   0.999  13.737 -0.4855 -0.8212 -1.7709
12008TIP3    H257516   2.535   0.872  13.759  0.9821 -1.4548  0.0313
12009TIP3   OH257517   2.565   0.664  14.312 -0.0384  0.0958  0.0260
12009TIP3    H157518   2.567   0.568  14.311 -1.1379  0.0712 -0.4058
12009TIP3    H257519   2.570   0.689  14.220  0.7102  0.4700  0.1656
12010TIP3   OH257520   6.751   0.936  12.097 -0.8132 -0.3785 -0.5604
12010TIP3    H157521   6.705   0.953  12.015 -1.5783  0.4423  0.0248
12010TIP3    H257522   6.800   0.855  12.081 -1.1377 -0.3530 -1.7387
12011TIP3   OH257523   2.499   5.227  11.940 -0.0054  0.3451  1.0051
12011TIP3    H157524   2.537   5.142  11.918  2.4521  1.3196  1.3420
12011TIP3    H257525   2.480   5.268  11.855 -2.1669 -0.9149  0.8408
12012TIP3   OH257526   0.452   1.528  10.418 -0.0545 -0.1495 -0.0988
12012TIP3    H157527   0.404   1.448  10.395  4.3509 -2.2960 -2.4724
12012TIP3    H257528   0.432   1.589  10.347  1.0690 -1.2382 -1.3882
12013TIP3   OH257529   0.839   2.422   2.682 -0.5657  0.0610 -0.2584
12013TIP3    H157530   0.801   2.465   2.758  0.2729  0.0359  0.1812
12013TIP3    H257531   0.789   2.457   2.608 -0.3173  1.3178  0.1488
12014TIP3   OH257532   0.230   6.422   0.296 -0.2159 -0.2782 -0.1164
12014TIP3    H157533   0.141   6.391   0.282 -0.7569  1.9836 -2.0527
12014TIP3    H257534   0.273   6.411   0.212  1.3113 -1.1543  0.7450
12015TIP3   OH257535   0.931   4.843   0.719  0.5518 -0.0117 -0.1273
12015TIP3    H157536   0.934   4.939   0.720  0.5035 -0.0214  1.2134
12015TIP3    H257537   1.023   4.816   0.714  0.7297  0.0972  1.9653
12016TIP3   OH257538   5.869   1.682   5.785 -0.2715  0.6318  0.0100
12016TIP3    H157539   5.827   1.596   5.786  1.8965 -0.4698  0.7988
12016TIP3    H257540   5.878   1.704   5.693  1.2709 -1.0907 -0.2728
12017TIP3   OH257541   5.606   1.207   1.653 -0.1303  0.3733 -0.0176
12017TIP3    H157542   5.648   1.291   1.637  1.4244  0.0237  2.0980
12017TIP3    H257543   5.656   1.145   1.599 -0.7394  0.6558 -0.9170
12018TIP3   OH257544   3.978   1.761   0.317 -0.1909  0.3655 -0.1792
12018TIP3    H157545   4.043   1.778   0.385  0.0367  0.7650 -0.4970
12018TIP3    H257546   3.902   1.813   0.343 -0.4969 -0.3270  0.3487
12019TIP3   OH257547   0.501   1.685   5.895  0.6437 -0.1399  0.0850
12019TIP3    H157548   0.580   1.738   5.896 -0.1381  1.0444 -0.7097
12019TIP3    H257549   0.456   1.710   5.815 -0.1469 -1.3911  0.1335
12020TIP3   OH257550   6.396   5.301  12.583  0.0162 -0.2620 -0.1365
12020TIP3    H157551   6.469   5.361  12.567  1.0513 -1.3084  0.6210
12020TIP3    H257552   6.372   5.316  12.674 -0.6682  0.0061 -0.3547
12021TIP3   OH257553   0.716   6.263   3.099  0.1874  0.2010  0.1226
12021TIP3    H157554   0.668   6.331   3.147  0.3092 -0.0378  0.5903
12021TIP3    H257555   0.650   6.218   3.047  0.2195  1.1350 -0.7241
12022TIP3   OH257556   6.143   6.221   0.399 -0.4178  0.2557 -0.0127
12022TIP3    H157557   6.237   6.239   0.400 -0.3808  0.0755  1.0325
12022TIP3    H257558   6.125   6.184   0.313  0.2555  1.3979 -0.6517
12023TIP3   OH257559   4.138   3.238   1.664  0.1553 -0.0146  0.3927
12023TIP3    H157560   4.090   3.191   1.595  0.4459 -0.5561  0.5579
12023TIP3    H257561   4.085   3.223   1.743  0.1771  0.0514  0.4196
12024TIP3   OH257562   2.033   3.888   2.106  0.2225  0.3715 -0.0788
12024TIP3    H157563   1.943   3.890   2.072  0.4043 -2.2348 -0.7968
12024TIP3    H257564   2.080   3.950   2.050 -0.9616  1.2074 -0.1749
12025TIP3   OH257565   3.117   3.497   5.775 -0.5606  0.0595  0.6791
12025TIP3    H157566   3.025   3.514   5.797 -0.4552  0.0976  1.0889
12025TIP3    H257567   3.114   3.464   5.685 -1.0078 -0.2400  0.7985
12026TIP3   OH257568   2.256   0.822   1.882  0.5234 -0.4522 -0.1094
12026TIP3    H157569   2.275   0.915   1.867  1.0679 -0.8430 -1.8363
12026TIP3    H257570   2.192   0.799   1.814  2.3266 -2.0004 -1.3122
12027TIP3   OH257571   6.050   1.934  12.234  0.7570 -0.4463 -0.0789
12027TIP3    H157572   6.044   1.860  12.294 -0.4770 -0.5705 -0.3384
12027TIP3    H257573   5.980   1.919  12.170  0.0816  1.2634  0.2297
12028TIP3   OH257574   4.678   6.534   3.200 -0.0830  0.1560 -0.3205
12028TIP3    H157575   4.742   6.472   3.164  0.6907  0.6192  0.2546
12028TIP3    H257576   4.681   6.609   3.140 -0.0255  0.2158 -0.2436
12029TIP3   OH257577   6.494   3.928  10.272 -0.4946 -0.2358  0.5544
12029TIP3    H157578   6.543   3.994  10.320 -3.0893  1.3004  1.1841
12029TIP3    H257579   6.545   3.847  10.283  1.5466  1.1599  1.6548
12030TIP3   OH257580   6.165   3.402  11.438  0.4570 -0.1722 -0.0864
12030TIP3    H157581   6.083   3.444  11.413  0.3181  0.3364  1.1526
12030TIP3    H257582   6.222   3.475  11.464  1.6821 -0.4326 -1.9725
12031TIP3   OH257583   4.295   1.028  15.759  0.4208 -0.3449 -0.2746
12031TIP3    H157584   4.205   1.042  15.731  0.8450  0.8319 -1.1387
12031TIP3    H257585   4.330   0.964  15.697 -0.0175 -1.3625  0.5091
12032TIP3   OH257586   4.683   3.856   4.292  0.2458 -0.3885 -0.6684
12032TIP3    H157587   4.653   3.904   4.214 -1.1106  0.9031  0.5990
12032TIP3    H257588   4.666   3.764   4.272  0.4313 -0.1160 -2.1124
12033TIP3   OH257589   0.980   5.490  15.083 -0.4040  0.0336 -0.4384
12033TIP3    H157590   0.997   5.555  15.015 -2.3759  0.5700 -0.4566
12033TIP3    H257591   0.982   5.540  15.165  2.4917 -0.7038 -0.0039
12034TIP3   OH257592   3.563   6.152   5.136  0.4702  0.3506  0.1693
12034TIP3    H157593   3.590   6.196   5.217 -0.2205  1.6565 -0.3010
12034TIP3    H257594   3.490   6.204   5.104 -1.6521 -2.2639  0.6322
12035TIP3   OH257595   2.296   2.666  12.089 -0.1216  0.2180  0.6533
12035TIP3    H157596   2.381   2.708  12.076  0.4499 -1.3010 -0.7799
12035TIP3    H257597   2.232   2.736  12.076  0.8539  0.9871 -0.1105
12036TIP3   OH257598   0.934   6.304  11.863  0.1159  0.4641 -0.2694
12036TIP3    H157599   0.841   6.321  11.845 -0.2423  0.3132  1.4083
12036TIP3    H257600   0.978   6.384  11.834 -0.4418  0.2169 -1.8266
12037TIP3   OH257601   5.781   3.787   3.938 -0.7913  0.3490 -0.5785
12037TIP3    H157602   5.718   3.856   3.920  1.2396  2.8538  1.6186
12037TIP3    H257603   5.782   3.779   4.033  2.0271  0.2345 -0.5778
12038TIP3   OH257604   0.982   0.036   3.180 -0.9029  0.3719  0.0602
12038TIP3    H157605   0.954  -0.054   3.196  0.3523 -0.0921 -0.2879
12038TIP3    H257606   1.071   0.039   3.216 -0.3185  1.0092 -1.4189
12039TIP3   OH257607   2.148   5.255  17.258  0.0921  0.4243 -0.3318
12039TIP3    H157608   2.242   5.240  17.259  0.0411  0.0758  1.9859
12039TIP3    H257609   2.110   5.169  17.277 -0.7316  0.4428 -1.8062
12040TIP3   OH257610   1.374   2.398   3.270  0.2500  0.1167 -0.2714
12040TIP3    H157611   1.426   2.326   3.235  2.0397  1.4619 -0.4426
12040TIP3    H257612   1.284   2.366   3.267  1.0104 -2.0893 -0.3767
12041TIP3   OH257613   3.009   6.800  13.414  0.3804 -0.0439  0.2848
12041TIP3    H157614   3.047   6.870  13.361  0.8016 -0.4871  0.0015
12041TIP3    H257615   2.957   6.846  13.480 -1.6839  0.4754 -1.6456
12042TIP3   OH257616   3.508   4.933   2.427  0.2016 -0.1523 -0.0844
12042TIP3    H157617   3.423   4.933   2.472 -0.0385  0.0177 -0.5421
12042TIP3    H257618   3.487   4.945   2.335  0.7085 -0.3967 -0.2338
12043TIP3   OH257619   3.616   1.167   6.175  0.1120  0.0486  0.4962
12043TIP3    H157620   3.659   1.128   6.251  0.1825 -0.1839  0.3366
12043TIP3    H257621   3.643   1.112   6.101 -0.4527 -0.0979  0.3959
12044TIP3   OH257622   1.711   5.241   3.655  0.0159 -0.2301  0.3102
12044TIP3    H157623   1.730   5.244   3.561 -0.7946 -0.1185  0.1510
12044TIP3    H257624   1.750   5.159   3.684  0.6146 -0.0765 -0.0483
12045TIP3   OH257625   5.321   2.670  12.228  0.7906  0.3886 -0.1073
12045TIP3    H157626   5.267   2.667  12.149  0.9803  0.0365 -0.2277
12045TIP3    H257627   5.380   2.744  12.213  0.6196  0.5151 -0.1587
12046TIP3   OH257628   5.006   1.464  14.713  0.1661 -0.5645 -0.4287
12046TIP3    H157629   5.050   1.476  14.798 -0.2449  1.9766 -0.5533
12046TIP3    H257630   4.998   1.552  14.677 -0.2910 -1.5480 -2.8219
12047TIP3   OH257631   1.403   0.502  16.082  0.5325  0.3083 -0.1507
12047TIP3    H157632   1.418   0.533  16.171 -1.2748  0.8073 -0.0028
12047TIP3    H257633   1.490   0.504  16.041  1.0999  1.6591  1.0847
12048TIP3   OH257634   1.855   3.906  14.807  0.5047  0.3802 -0.4953
12048TIP3    H157635   1.923   3.914  14.741  1.9948 -0.4962  0.9002
12048TIP3    H257636   1.840   3.996  14.837  1.4353  0.5132 -0.4255
12049TIP3   OH257637   1.416   4.177   0.828 -0.4488 -0.0512 -0.4423
12049TIP3    H157638   1.471   4.250   0.800 -1.0367  0.4687 -0.2740
12049TIP3    H257639   1.335   4.188   0.777 -0.7000 -0.3392 -0.1072
12050TIP3   OH257640   6.397   3.905  12.072  0.0958  0.3466  0.1127
12050TIP3    H157641   6.472   3.942  12.118 -0.2453  0.7895  0.3271
12050TIP3    H257642   6.391   3.956  11.991 -1.3857  1.9180  1.1716
12051TIP3   OH257643   3.691   4.946   2.789 -0.0655 -0.5144  0.4278
12051TIP3    H157644   3.666   4.997   2.712 -1.6420 -0.9315  0.6391
12051TIP3    H257645   3.642   4.864   2.780 -1.3703  0.0144  2.5919
12052TIP3   OH257646   4.232   0.781   5.743  0.0384  0.4592 -0.1780
12052TIP3    H157647   4.284   0.710   5.705 -2.1596 -1.5384  0.3813
12052TIP3    H257648   4.187   0.821   5.668 -1.5027 -1.1397 -0.1575
12053TIP3   OH257649   1.789   3.554  16.108 -0.2338 -0.1259 -0.0178
12053TIP3    H157650   1.883   3.544  16.092  0.5240 -0.2462  4.0906
12053TIP3    H257651   1.755   3.465  16.112 -0.3732 -0.1018 -0.5960
12054TIP3   OH257652   3.596   4.805  16.159 -0.3989 -0.2201 -0.3483
12054TIP3    H157653   3.594   4.760  16.074 -1.0955  1.4989 -1.2462
12054TIP3    H257654   3.541   4.882  16.148 -2.3420 -1.0992  2.3337
12055TIP3   OH257655   5.530   5.776   1.281  0.2346  0.2902  0.4177
12055TIP3    H157656   5.611   5.759   1.234 -0.6687  0.0928 -1.1039
12055TIP3    H257657   5.511   5.868   1.263  1.2467  0.9621  2.5812
12056TIP3   OH257658   1.499   0.457  11.762 -0.0468  0.2154 -1.0537
12056TIP3    H157659   1.427   0.413  11.717  0.8521 -0.7672 -1.5770
12056TIP3    H257660   1.458   0.529  11.810 -1.3352 -0.1930 -1.5232
12057TIP3   OH257661   3.291   2.000  13.232 -0.5029 -0.0102  0.2536
12057TIP3    H157662   3.210   1.988  13.283 -1.0212  0.4991 -0.4365
12057TIP3    H257663   3.295   1.923  13.175  0.4195 -0.9077  1.5089
12058TIP3   OH257664   2.339   3.566  16.669  0.0012 -0.2531 -0.1389
12058TIP3    H157665   2.341   3.609  16.584  0.9992 -0.3556 -0.1735
12058TIP3    H257666   2.428   3.576  16.703 -1.2316  2.7132  2.3741
12059TIP3   OH257667   6.367   6.436  16.513  0.4484  0.1358 -0.1229
12059TIP3    H157668   6.337   6.352  16.478 -1.2398  0.2862  0.9021
12059TIP3    H257669   6.286   6.483  16.534  1.3561  0.0915  3.8479
12060TIP3   OH257670   6.559   5.805   2.232 -0.0051 -0.1824 -1.0124
12060TIP3    H157671   6.606   5.888   2.237  0.5448 -0.4486 -1.7410
12060TIP3    H257672   6.596   5.753   2.304  1.5776 -0.7652 -2.2037
12061TIP3   OH257673   4.728   1.625   3.380  0.1810 -0.2690 -0.1466
12061TIP3    H157674   4.692   1.639   3.468  0.0934 -0.6132 -0.1301
12061TIP3    H257675   4.696   1.700   3.330  0.4562  0.0763  0.1833
12062TIP3   OH257676   4.074   5.270  15.571 -0.0839  0.4082 -0.0787
12062TIP3    H157677   4.079   5.348  15.516  0.5643  0.8119  0.5465
12062TIP3    H257678   4.000   5.221  15.535 -1.4021  1.9875  0.3985
12063TIP3   OH257679   4.140   2.600   0.157  0.1154  0.5594 -0.0789
12063TIP3    H157680   4.106   2.552   0.233 -2.9182  0.6734 -1.2939
12063TIP3    H257681   4.182   2.533   0.103  0.5234  0.1560  0.7269
12064TIP3   OH257682   3.469   2.213  15.964 -0.1901  0.4842 -0.4708
12064TIP3    H157683   3.527   2.285  15.986 -0.5389  0.5084  0.4047
12064TIP3    H257684   3.408   2.250  15.901  0.2161  0.6938 -0.7422
12065TIP3   OH257685   5.920   2.461   1.877  0.4743  0.8303  0.0039
12065TIP3    H157686   5.922   2.556   1.886  1.0923  1.1039 -2.5346
12065TIP3    H257687   6.010   2.434   1.897  0.8535  1.0353 -1.3355
12066TIP3   OH257688   4.609   2.971   5.696  0.6129 -0.0781  0.0054
12066TIP3    H157689   4.616   2.878   5.675  0.6493 -0.8319  3.1083
12066TIP3    H257690   4.527   2.979   5.745  0.8358  1.4218  0.1715
12067TIP3   OH257691   3.701   3.729  13.379 -0.1101 -0.1939  0.0180
12067TIP3    H157692   3.639   3.719  13.451  0.3634  2.2434  0.7871
12067TIP3    H257693   3.671   3.805  13.331  2.1688  0.9572  0.3261
12068TIP3   OH257694   2.295   4.307  13.716 -0.1412  0.6114  0.4610
12068TIP3    H157695   2.353   4.265  13.653  1.0051 -0.5305  2.2245
12068TIP3    H257696   2.341   4.386  13.743  0.7819 -0.4709  2.1170
12069TIP3   OH257697   2.175   3.000   5.978  0.1101 -0.1330 -0.2189
12069TIP3    H157698   2.083   2.991   6.004  0.0723  0.2801 -0.2134
12069TIP3    H257699   2.194   3.093   5.987  0.8294 -0.3632  0.7956
12070TIP3   OH257700   2.944   3.890  12.103 -0.0921 -0.9946  0.3600
12070TIP3    H157701   2.926   3.823  12.037  1.2342 -0.5871 -0.4313
12070TIP3    H257702   3.038   3.885  12.117  0.2238  1.5525 -0.6307
12071TIP3   OH257703   1.998   2.464  13.621  0.1779  0.9052  0.2116
12071TIP3    H157704   2.038   2.543  13.584  0.5579  0.1071 -1.1257
12071TIP3    H257705   1.952   2.494  13.699  1.1410  2.2905  0.2590
12072TIP3   OH257706   3.618   2.226   1.202 -0.1255  0.1081  0.6119
12072TIP3    H157707   3.650   2.180   1.124  0.2247  0.9048  0.2824
12072TIP3    H257708   3.540   2.272   1.173 -0.6368 -0.5014  1.0123
12073TIP3   OH257709   2.534   0.273  12.030  0.1571  0.4671  0.3588
12073TIP3    H157710   2.575   0.336  12.090  1.6382 -0.2510  0.1221
12073TIP3    H257711   2.598   0.203  12.021 -0.4233  0.1295 -1.3641
12074TIP3   OH257712   0.705   1.435  10.885  0.0660 -0.0254 -0.3081
12074TIP3    H157713   0.693   1.424  10.791 -0.4970  0.7088 -0.3307
12074TIP3    H257714   0.724   1.528  10.896  1.3683 -0.3381  0.1827
12075TIP3   OH257715   1.109   6.622   0.083  0.0563 -0.2890  0.2290
12075TIP3    H157716   1.088   6.678   0.158  1.8008  1.3383 -0.4607
12075TIP3    H257717   1.203   6.609   0.089  0.4059  0.8188 -2.2990
12076TIP3   OH257718   0.559   4.574   3.819 -0.4012 -0.2025 -0.3412
12076TIP3    H157719   0.609   4.508   3.867 -0.1743 -0.0487 -0.3671
12076TIP3    H257720   0.500   4.523   3.763  0.1275 -0.3898 -0.7307
12077TIP3   OH257721   0.272   4.870   0.236  0.0659  0.7411  0.1718
12077TIP3    H157722   0.280   4.794   0.179  0.5054  0.9044  0.0122
12077TIP3    H257723   0.345   4.927   0.211 -0.6049  1.4793 -0.1049
12078TIP3   OH257724   2.960   3.071   3.473  0.4345 -0.0439  0.1065
12078TIP3    H157725   2.875   3.036   3.497 -0.4343  2.1713  0.4408
12078TIP3    H257726   3.023   3.020   3.523 -0.7776 -0.9612  0.7085
12079TIP3   OH257727   6.807   0.453   0.538 -0.1093 -0.3482  0.0146
12079TIP3    H157728   6.833   0.362   0.550  1.9043  0.0337 -1.2183
12079TIP3    H257729   6.733   0.449   0.477  0.2392 -1.1288 -0.3600
12080TIP3   OH257730   2.275   5.117   1.387  0.1876 -0.6265 -0.2989
12080TIP3    H157731   2.315   5.113   1.474 -0.1601  2.5762  0.0590
12080TIP3    H257732   2.346   5.145   1.329  0.6955 -3.7899 -1.2813
12081TIP3   OH257733   3.743   6.668  14.891  0.2365 -0.7605  0.5030
12081TIP3    H157734   3.756   6.714  14.808  0.0507 -1.5809  0.0063
12081TIP3    H257735   3.774   6.579  14.873 -0.0106 -0.9971  1.2470
12082TIP3   OH257736   3.705   1.113  12.468 -0.1453  0.0148 -0.3544
12082TIP3    H157737   3.722   1.207  12.461  2.0172 -0.4354 -1.3657
12082TIP3    H257738   3.667   1.102  12.555  0.5551  1.6832  0.1773
12083TIP3   OH257739   4.839   5.229  16.059 -0.5977 -0.5573 -0.0413
12083TIP3    H157740   4.767   5.204  16.117 -1.0435  0.5895 -0.0812
12083TIP3    H257741   4.877   5.307  16.100  2.4193 -2.7226  1.4614
12084TIP3   OH257742   1.411   0.681   1.314  0.2679 -0.8635  0.5059
12084TIP3    H157743   1.327   0.726   1.311  0.8583  0.2101  0.0409
12084TIP3    H257744   1.411   0.625   1.236  1.2304  1.3998 -1.1673
12085TIP3   OH257745   2.427   4.603   2.169 -0.0055 -0.0212 -0.3381
12085TIP3    H157746   2.378   4.570   2.244 -1.1100  2.6458  0.1988
12085TIP3    H257747   2.484   4.531   2.142 -0.6280 -1.4851  2.1753
12086TIP3   OH257748   5.445   0.036   4.624 -0.1978 -0.6230 -0.3702
12086TIP3    H157749   5.364  -0.001   4.590  0.7511 -2.2590 -0.9033
12086TIP3    H257750   5.503  -0.039   4.635  1.7934  0.6955 -1.5436
12087TIP3   OH257751   5.343   1.034  11.265 -0.2209  0.0125 -0.3553
12087TIP3    H157752   5.269   0.982  11.234  0.1934 -0.7548 -0.0637
12087TIP3    H257753   5.335   1.117  11.218 -0.1539 -0.7867 -1.7924
12088TIP3   OH257754   4.665   6.508  12.480  0.2731  0.0969  0.4133
12088TIP3    H157755   4.742   6.496  12.425  0.2615  0.5415  0.2984
12088TIP3    H257756   4.698   6.549  12.560  0.0037  1.3566 -0.0981
12089TIP3   OH257757   0.622   0.093  14.186  0.1797  0.2422 -0.2003
12089TIP3    H157758   0.558   0.142  14.135  1.8884  1.1983 -1.5015
12089TIP3    H257759   0.656   0.155  14.250  1.3506  0.4119 -0.9532
12090TIP3   OH257760   5.187   1.791   1.819 -0.1059  0.0362 -0.0486
12090TIP3    H157761   5.181   1.886   1.816 -1.4193 -0.0011  0.9494
12090TIP3    H257762   5.216   1.772   1.908 -1.8820 -0.5785  0.4148
12091TIP3   OH257763   3.712   3.901  11.896  0.4536  0.2885  0.1077
12091TIP3    H157764   3.618   3.887  11.888  0.7456 -0.5694 -1.9756
12091TIP3    H257765   3.719   3.985  11.941 -1.3055  0.9808 -0.8569
12092TIP3   OH257766   3.485   2.885   4.510 -0.0063  0.5180 -0.0882
12092TIP3    H157767   3.476   2.963   4.565  0.9527  0.0332  0.7793
12092TIP3    H257768   3.406   2.884   4.457 -1.6301  0.2374  2.2845
12093TIP3   OH257769   5.574   2.734   3.838 -0.4662  0.1461  0.1784
12093TIP3    H157770   5.486   2.712   3.809 -0.5647 -2.1833  2.0737
12093TIP3    H257771   5.577   2.705   3.929  2.5245 -0.6228 -0.1130
12094TIP3   OH257772   4.494   1.050  16.582 -0.1001  0.2093  0.0724
12094TIP3    H157773   4.456   1.137  16.572 -1.3347 -0.3664 -0.3358
12094TIP3    H257774   4.455   0.998  16.512  0.2936 -0.7885  0.5808
12095TIP3   OH257775   4.656   5.741  17.277 -0.5819  0.4561  0.6921
12095TIP3    H157776   4.593   5.697  17.335 -2.7395  0.8145 -1.2881
12095TIP3    H257777   4.645   5.834  17.297 -1.8317  0.6301 -0.7428
12096TIP3   OH257778   0.453   0.378   1.444 -0.1620 -0.0875  0.0352
12096TIP3    H157779   0.494   0.377   1.530 -0.3683 -0.3276  0.1308
12096TIP3    H257780   0.513   0.329   1.388 -0.9327 -1.5279  0.4567
12097TIP3   OH257781   3.452   1.905  12.500 -0.1298 -0.0343 -0.3170
12097TIP3    H157782   3.433   1.994  12.529  0.7330 -0.6814  2.3806
12097TIP3    H257783   3.382   1.884  12.438 -2.3680  1.2569  1.6969
12098TIP3   OH257784   1.090   3.968  13.188  0.3826  0.6168  0.1096
12098TIP3    H157785   1.128   3.917  13.260  1.1082 -0.8272 -1.2430
12098TIP3    H257786   1.082   4.057  13.222  0.6701 -0.0550  1.9752
12099TIP3   OH257787   1.903   3.455   2.601  0.0522  0.2049 -0.0282
12099TIP3    H157788   1.813   3.431   2.578  0.0087  0.2928  0.0495
12099TIP3    H257789   1.923   3.530   2.546  1.0392 -1.4748 -2.0483
12100TIP3   OH257790   5.218   1.975  13.256 -0.3159 -0.0058 -1.0829
12100TIP3    H157791   5.182   2.058  13.223 -1.1295  0.8936  1.9043
12100TIP3    H257792   5.174   1.908  13.205 -1.5821  1.3257 -1.7761
12101TIP3   OH257793   1.052   3.485  12.168 -0.0815 -0.0071  0.3897
12101TIP3    H157794   1.050   3.490  12.073 -1.4915 -1.5841  0.3091
12101TIP3    H257795   1.145   3.490  12.191  0.1394  2.7664 -0.8981
12102TIP3   OH257796   5.461   0.204  14.596  0.1200  0.6874  0.1980
12102TIP3    H157797   5.503   0.145  14.659 -0.1513  2.0966  1.7187
12102TIP3    H257798   5.400   0.256  14.648  0.9189  2.8622 -0.9694
12103TIP3   OH257799   0.553   5.264  16.012 -0.3046  0.2047 -0.4545
12103TIP3    H157800   0.626   5.234  16.066 -0.8538  2.0325  1.3786
12103TIP3    H257801   0.475   5.225  16.053 -0.8950  2.9795  1.1933
12104TIP3   OH257802   4.488   6.219   0.489  0.4640  0.1498 -0.0409
12104TIP3    H157803   4.426   6.229   0.417  0.8990  0.0851 -0.4254
12104TIP3    H257804   4.488   6.304   0.534 -2.3507 -0.8409  1.9341
12105TIP3   OH257805   1.312   0.481   2.782  0.2716 -0.2548 -0.6762
12105TIP3    H157806   1.341   0.554   2.728  0.4134 -0.5485 -0.9982
12105TIP3    H257807   1.217   0.490   2.787  0.2672 -0.1851 -0.9100
12106TIP3   OH257808   5.301   4.364   0.911 -0.7151 -0.1090 -0.0423
12106TIP3    H157809   5.367   4.335   0.973  1.4015  2.7187 -0.8911
12106TIP3    H257810   5.270   4.283   0.869  0.1755 -1.7175  2.3212
12107TIP3   OH257811   3.828   6.811  16.512  0.0634  0.6341 -0.1458
12107TIP3    H157812   3.802   6.783  16.600  0.8907 -1.9737 -0.6670
12107TIP3    H257813   3.746   6.821  16.464 -0.2859 -1.2722  0.0091
12108TIP3   OH257814   3.421   1.193  16.862  0.0292  0.1711  0.4392
12108TIP3    H157815   3.344   1.223  16.814 -0.0361 -2.1792 -0.9906
12108TIP3    H257816   3.385   1.147  16.938  0.0592 -0.0905  0.2944
12109TIP3   OH257817   2.290   2.668  15.896  0.7935 -0.0714 -0.0847
12109TIP3    H157818   2.234   2.673  15.819 -0.3499  1.5680  0.8053
12109TIP3    H257819   2.242   2.610  15.956 -2.0515  4.3668  2.2273
12110TIP3   OH257820   0.474   2.606   2.895  0.6026  0.0252 -0.1525
12110TIP3    H157821   0.566   2.594   2.922  0.3703  0.0113  0.6356
12110TIP3    H257822   0.426   2.543   2.949  0.2237 -0.5818 -1.1768
12111TIP3   OH257823   4.974   2.831  13.283  0.0005 -0.0684 -0.1878
12111TIP3    H157824   5.003   2.904  13.228  0.4257  0.3728  0.6147
12111TIP3    H257825   4.879   2.832  13.275  0.0260  0.3434 -0.4716
12112TIP3   OH257826   0.651   6.315  13.933 -0.0121  0.4583  0.5976
12112TIP3    H157827   0.598   6.395  13.946 -1.7396 -0.8466  1.8496
12112TIP3    H257828   0.587   6.248  13.909  1.5011 -0.4366 -0.9767
12113TIP3   OH257829   1.663   6.663   1.000 -0.4533  0.0154 -0.2183
12113TIP3    H157830   1.622   6.576   1.002 -0.2964 -0.0689 -0.6709
12113TIP3    H257831   1.733   6.658   1.065 -1.5356  0.3505  0.9923
12114TIP3   OH257832   1.830   5.857   4.606 -0.3826  0.5328  0.1715
12114TIP3    H157833   1.809   5.773   4.564  0.2738  1.1249 -1.3457
12114TIP3    H257834   1.923   5.850   4.627 -0.7167  0.2195  1.6147
12115TIP3   OH257835   5.588   1.540  13.383  0.9354 -0.2447 -0.7083
12115TIP3    H157836   5.586   1.550  13.479 -0.7235 -1.0441 -0.6607
12115TIP3    H257837   5.638   1.616  13.353 -1.2115  1.7256  0.5658
12116TIP3   OH257838   0.767   2.465  12.978 -0.1712 -0.2939  0.2757
12116TIP3    H157839   0.845   2.452  13.033  1.4002 -2.0091 -2.2232
12116TIP3    H257840   0.702   2.501  13.037  2.1094 -0.0693  2.7709
12117TIP3   OH257841   3.327   5.042   0.599  0.0087  0.2229 -0.8261
12117TIP3    H157842   3.368   5.036   0.685 -0.1927  0.4802 -0.7101
12117TIP3    H257843   3.259   5.109   0.610 -1.1414 -0.9434 -0.7397
12118TIP3   OH257844   5.768   6.066   1.267  0.0654 -0.2612  0.1466
12118TIP3    H157845   5.796   6.064   1.359  1.1265  1.3887 -0.1264
12118TIP3    H257846   5.849   6.062   1.217 -0.4184  0.4932 -0.7099
12119TIP3   OH257847   6.657   2.719  16.673  0.4707  0.3653 -0.1310
12119TIP3    H157848   6.679   2.629  16.695 -2.8291 -0.2766  0.7156
12119TIP3    H257849   6.721   2.772  16.722  1.2133 -1.4259  0.8646
12120TIP3   OH257850   4.923   6.029   3.341  0.1286 -0.7213 -0.3588
12120TIP3    H157851   4.942   6.118   3.312 -1.1267  0.0160  1.0344
12120TIP3    H257852   4.963   6.023   3.428 -3.6718  0.0166  1.5190
12121TIP3   OH257853   5.154   4.716   0.548 -0.1165  0.2632  0.3979
12121TIP3    H157854   5.085   4.774   0.582  0.8780  0.4322  2.1994
12121TIP3    H257855   5.127   4.696   0.458 -2.2949  0.6684  0.9338
12122TIP3   OH257856   1.370   1.224  14.983 -0.4051 -0.0471  0.3633
12122TIP3    H157857   1.421   1.274  15.046 -2.5122 -1.5596  3.4051
12122TIP3    H257858   1.288   1.204  15.029 -0.8520 -3.6726 -1.8193
12123TIP3   OH257859   2.060   1.965   2.232  0.1083  0.1247  0.0620
12123TIP3    H157860   2.027   1.877   2.247 -1.5687  0.9962  1.6828
12123TIP3    H257861   2.059   2.007   2.318  0.7360  1.7874 -0.7001
12124TIP3   OH257862   6.181   4.084   3.918 -0.2780  0.1888  0.3795
12124TIP3    H157863   6.127   4.031   3.859  2.4680 -0.7202 -1.3974
12124TIP3    H257864   6.215   4.021   3.982  0.1831  0.4076  0.3557
12125TIP3   OH257865   5.888   1.564   5.385  0.5639  0.5916  0.0718
12125TIP3    H157866   5.924   1.476   5.373  0.1688  0.3015  0.9717
12125TIP3    H257867   5.794   1.554   5.370  0.4939  0.8194  0.3404
12126TIP3   OH257868   2.019   0.550  12.185  0.4402  0.3360  0.3368
12126TIP3    H157869   1.957   0.618  12.158  0.7134  0.3984 -0.1208
12126TIP3    H257870   1.964   0.475  12.207  0.0760  0.9547  1.6177
12127TIP3   OH257871   2.868   0.794   1.826 -0.1227  0.3343  0.7242
12127TIP3    H157872   2.854   0.835   1.911 -1.0015  2.7608 -0.5201
12127TIP3    H257873   2.780   0.787   1.788  0.5493  2.7700 -1.4593
12128TIP3   OH257874   0.451   5.562  12.645 -0.2602 -0.2565 -0.0750
12128TIP3    H157875   0.459   5.657  12.657 -0.3966 -0.0475 -1.5442
12128TIP3    H257876   0.432   5.528  12.732  0.0258  1.0462  0.5044
12129TIP3   OH257877   5.636   5.506  12.069 -0.2210 -0.0535  0.1640
12129TIP3    H157878   5.665   5.580  12.016  1.5279 -0.3954  0.6047
12129TIP3    H257879   5.581   5.454  12.010  0.7631  0.1691 -0.9579
12130TIP3   OH257880   0.718   3.626  12.467 -0.6149  0.0456  0.1309
12130TIP3    H157881   0.639   3.681  12.461 -1.8931 -1.8031 -0.6929
12130TIP3    H257882   0.747   3.617  12.376  1.5238  2.0484  0.5929
12131TIP3   OH257883   3.621   0.978   5.320  0.2085  0.1936 -0.4961
12131TIP3    H157884   3.561   0.920   5.273 -1.6370  1.5097  0.1737
12131TIP3    H257885   3.635   1.051   5.260 -0.8131  1.0607  0.3010
12132TIP3   OH257886   0.510   3.602  10.474  0.2570 -0.1958 -0.2090
12132TIP3    H157887   0.464   3.551  10.541  1.8200 -0.7016  0.4902
12132TIP3    H257888   0.451   3.675  10.455 -1.1008 -1.1563  0.2433
12133TIP3   OH257889   3.737   4.936   3.879 -0.6441 -0.1212 -0.6114
12133TIP3    H157890   3.692   5.003   3.929  0.9993  0.8143 -0.3516
12133TIP3    H257891   3.689   4.930   3.796 -0.1813  2.1201 -1.0602
12134TIP3   OH257892   0.954   0.896  13.578 -0.5403 -0.3429 -0.6573
12134TIP3    H157893   0.939   0.991  13.581 -1.2749 -0.4566 -0.6762
12134TIP3    H257894   1.021   0.880  13.644 -0.7940  0.1217 -0.2839
12135TIP3   OH257895   6.455   3.927  11.374 -0.6470  0.5486  0.1643
12135TIP3    H157896   6.525   3.962  11.319 -0.2981  0.7649  0.7541
12135TIP3    H257897   6.488   3.932  11.463 -1.1165 -0.0455  0.3800
12136TIP3   OH257898   1.416   4.370   0.377 -0.8496  0.6894 -0.3967
12136TIP3    H157899   1.470   4.322   0.440 -1.7489  1.0688  0.6718
12136TIP3    H257900   1.469   4.446   0.352 -0.0389 -0.0421 -0.9540
12137TIP3   OH257901   5.040   3.348   5.326  0.4565 -0.2017 -0.0389
12137TIP3    H157902   4.993   3.291   5.265 -0.8944 -1.0870  1.7609
12137TIP3    H257903   5.131   3.319   5.322  0.4733  0.0968 -1.9968
12138TIP3   OH257904   4.609   3.604   0.527 -0.1853  0.3597  0.3379
12138TIP3    H157905   4.585   3.545   0.456 -0.1106  0.3235  0.3427
12138TIP3    H257906   4.683   3.654   0.494  0.2350 -0.0774  0.6069
12139TIP3   OH257907   1.373   0.306  12.379  0.3139  0.5717  0.4402
12139TIP3    H157908   1.325   0.313  12.296  2.9573 -0.3206 -1.2444
12139TIP3    H257909   1.437   0.376  12.376  1.1226 -0.1179  1.2564
12140TIP3   OH257910   4.375   3.462   4.733  0.4152  0.2420  0.0903
12140TIP3    H157911   4.401   3.376   4.765  0.3576  0.9188  2.0373
12140TIP3    H257912   4.285   3.473   4.764 -0.3050  0.1818 -1.8998
12141TIP3   OH257913   5.400   3.506  16.241 -0.1609  0.4091  0.3683
12141TIP3    H157914   5.364   3.426  16.202  0.3711  0.6119 -0.5327
12141TIP3    H257915   5.491   3.485  16.260 -0.7580 -0.1606  2.8275
12142TIP3   OH257916   4.477   2.735   4.789 -0.0418  0.0673  1.0539
12142TIP3    H157917   4.506   2.669   4.726  0.6949  0.7846  0.6267
12142TIP3    H257918   4.559   2.772   4.824 -0.4425 -0.3458  2.4455
12143TIP3   OH257919   4.199   2.243  13.394  0.0417 -0.4108  0.5096
12143TIP3    H157920   4.282   2.259  13.437  0.1231 -0.4210  0.3541
12143TIP3    H257921   4.218   2.251  13.301  0.2464 -2.1091  0.3827
12144TIP3   OH257922   3.812   4.777   5.342  0.0923  0.2694  0.0249
12144TIP3    H157923   3.825   4.766   5.436  0.4556 -2.2484 -0.2761
12144TIP3    H257924   3.878   4.842   5.316  1.0155 -0.1568  1.2499
12145TIP3   OH257925   4.141   3.944  15.503 -0.4341  0.2253  0.5419
12145TIP3    H157926   4.206   3.962  15.436 -0.8063  1.8587  0.5950
12145TIP3    H257927   4.097   3.864  15.474 -0.2970  0.6847 -0.9244
12146TIP3   OH257928   1.960   5.662  11.848  0.1579 -0.6389 -0.0541
12146TIP3    H157929   1.994   5.654  11.937 -1.0355 -1.8267  0.3040
12146TIP3    H257930   2.034   5.639  11.792  1.4631  1.8941  0.5350
12147TIP3   OH257931   3.650   5.407  14.753 -0.3376 -0.1667 -0.1141
12147TIP3    H157932   3.602   5.379  14.675 -0.7974 -2.6375  0.9942
12147TIP3    H257933   3.730   5.354  14.752 -0.3627 -0.2574  1.0962
12148TIP3   OH257934   3.555   0.732  11.261  0.0118 -0.3136 -0.4284
12148TIP3    H157935   3.634   0.696  11.220 -0.6829  2.5498 -4.4423
12148TIP3    H257936   3.587   0.772  11.342  2.6546  0.4973 -1.8126
12149TIP3   OH257937   1.744   0.858   6.286  0.5209 -0.4391  0.0137
12149TIP3    H157938   1.790   0.938   6.263 -1.1033 -0.1525 -2.4021
12149TIP3    H257939   1.655   0.887   6.306 -0.0509 -1.6077 -0.7803
12150TIP3   OH257940   2.759   1.262   4.038 -0.0650  0.0107  0.1783
12150TIP3    H157941   2.741   1.230   4.127 -0.4866  0.7552  0.3676
12150TIP3    H257942   2.823   1.201   4.003  0.9744  0.3630  1.4223
12151TIP3   OH257943   5.264   6.633   0.108 -0.2791  0.5510 -0.2380
12151TIP3    H157944   5.328   6.602   0.172 -0.1804  1.7048  0.2420
12151TIP3    H257945   5.189   6.661   0.161 -0.8788 -0.0637 -0.7471
12152TIP3   OH257946   5.772   1.492  16.515  0.3964 -0.1894  0.5438
12152TIP3    H157947   5.761   1.399  16.498 -1.9163  0.0786  0.4070
12152TIP3    H257948   5.690   1.519  16.556  1.0423  1.7799  0.5909
12153TIP3   OH257949   1.651   3.764   0.428 -0.1478  0.4470 -0.5427
12153TIP3    H157950   1.697   3.845   0.452 -0.1259  0.7173 -1.4842
12153TIP3    H257951   1.708   3.694   0.461 -0.5766  0.8081  1.0219
12154TIP3   OH257952   0.765   5.410  16.426  0.2383  0.5498 -0.3269
12154TIP3    H157953   0.774   5.375  16.337 -1.3264 -0.0684 -0.2514
12154TIP3    H257954   0.701   5.353  16.468 -0.5270  2.0329  0.5639
12155TIP3   OH257955   5.016   5.742  15.066 -0.3307  0.0610 -0.2627
12155TIP3    H157956   5.004   5.648  15.056  0.7138 -0.2889  1.7010
12155TIP3    H257957   5.010   5.758  15.160 -1.0762  2.0432 -0.6156
12156TIP3   OH257958   6.792   2.212   1.654  0.5419  0.2707 -0.1774
12156TIP3    H157959   6.837   2.278   1.707  3.2784 -0.3704 -1.5892
12156TIP3    H257960   6.812   2.129   1.697 -1.4141  0.1455  0.5727
12157TIP3   OH257961   6.677   4.019  16.220  0.1643  0.0828  0.0322
12157TIP3    H157962   6.606   3.994  16.279 -1.2152 -0.6674 -1.8731
12157TIP3    H257963   6.643   4.095  16.172  0.4736 -0.4876 -1.1342
12158TIP3   OH257964   0.758   2.561   2.938  0.5704  0.5785  0.7863
12158TIP3    H157965   0.838   2.613   2.945  1.0479 -0.3592  2.4598
12158TIP3    H257966   0.724   2.556   3.027 -0.7242 -0.0115  0.2732
12159TIP3   OH257967   1.161   5.363   0.630 -0.2105 -0.1582  0.2074
12159TIP3    H157968   1.099   5.423   0.587 -0.8529 -0.3060  0.9237
12159TIP3    H257969   1.148   5.279   0.586  2.0563  0.6623 -2.1266
12160TIP3   OH257970   2.656   3.937   1.964 -0.1298 -0.0986  0.3116
12160TIP3    H157971   2.728   3.998   1.948 -0.7923  0.5755 -0.1412
12160TIP3    H257972   2.611   3.930   1.879  1.0082 -2.6321 -0.1283
12161TIP3   OH257973   3.617   6.395  13.761 -0.2698 -0.2339  0.1901
12161TIP3    H157974   3.611   6.490  13.763 -0.8092 -0.2137 -1.6347
12161TIP3    H257975   3.586   6.371  13.675 -0.5675 -2.1146  0.8060
12162TIP3   OH257976   2.794   5.365   1.272 -0.9346  0.1021 -0.2127
12162TIP3    H157977   2.734   5.401   1.337 -1.0695 -0.3378 -0.0952
12162TIP3    H257978   2.791   5.428   1.199 -2.9800 -0.8867 -1.0175
12163TIP3   OH257979   4.572   3.797   5.431  0.1209 -0.4407 -0.1519
12163TIP3    H157980   4.510   3.808   5.502  0.4731 -1.0101  0.2493
12163TIP3    H257981   4.546   3.716   5.387 -1.0486  0.7187 -1.6517
12164TIP3   OH257982   1.760   0.048   1.410 -0.0839 -0.1465 -0.0431
12164TIP3    H157983   1.686  -0.012   1.404 -1.0718  1.2252 -1.9288
12164TIP3    H257984   1.720   0.133   1.429  1.0569  0.5188 -0.6030
12165TIP3   OH257985   2.780   2.242   0.934  0.1441 -0.3693 -0.0798
12165TIP3    H157986   2.875   2.234   0.929  0.1193  0.3462 -2.2293
12165TIP3    H257987   2.747   2.177   0.873 -0.7299 -0.1172  0.1149
12166TIP3   OH257988   1.854   2.567   4.572  0.3087  0.6623 -0.3876
12166TIP3    H157989   1.769   2.611   4.575 -0.1925 -0.2490 -1.2231
12166TIP3    H257990   1.887   2.572   4.662 -1.7593 -1.1760  0.5035
12167TIP3   OH257991   5.294   5.221   3.919 -0.4319 -0.3442 -0.1215
12167TIP3    H157992   5.240   5.190   3.846 -2.0718  2.3326 -0.0893
12167TIP3    H257993   5.232   5.237   3.989  0.2402  3.5057 -0.3152
12168TIP3   OH257994   3.326   5.407   3.309 -0.1787 -0.7777  0.0420
12168TIP3    H157995   3.264   5.459   3.361 -0.0606 -1.1411  0.5557
12168TIP3    H257996   3.320   5.319   3.347  0.3588 -0.9043 -0.1680
12169TIP3   OH257997   4.662   2.047  16.401 -0.5617  0.3450  0.0253
12169TIP3    H157998   4.736   2.097  16.436 -0.1394 -0.4832  0.3103
12169TIP3    H257999   4.631   1.995  16.475  0.2221 -1.2753 -0.7488
12170TIP3   OH258000   4.518   4.649  14.122  0.0115 -0.4631  0.1731
12170TIP3    H158001   4.510   4.677  14.031  2.2386 -1.2303 -0.2919
12170TIP3    H258002   4.488   4.724  14.173  0.8079  0.7997 -1.1661
12171TIP3   OH258003   2.640   0.034  14.744 -0.0793 -0.0355 -0.1902
12171TIP3    H158004   2.680   0.025  14.657  1.4992  0.9409  0.4235
12171TIP3    H258005   2.588   0.114  14.739 -0.7732 -0.4968 -0.5181
12172TIP3   OH258006   6.413   6.608  16.247  1.2115  0.3833 -0.0949
12172TIP3    H158007   6.457   6.524  16.235  0.2203 -0.0960 -0.4240
12172TIP3    H258008   6.326   6.585  16.279  1.3041  1.3429  0.8850
12173TIP3   OH258009   2.347   1.875  12.010 -0.2868  0.2771 -0.1399
12173TIP3    H158010   2.282   1.818  12.050 -0.8703  0.7761 -0.3774
12173TIP3    H258011   2.423   1.818  11.996  0.0367  0.1661  1.9405
12174TIP3   OH258012   1.080   5.019   1.864  0.1307 -0.1655  0.3509
12174TIP3    H158013   1.006   5.080   1.866 -0.8983 -1.4013  1.2474
12174TIP3    H258014   1.077   4.976   1.950  3.4141  1.5243  1.4034
12175TIP3   OH258015   5.275   0.500   6.447 -0.1086  0.1169 -0.2521
12175TIP3    H158016   5.329   0.567   6.406 -1.3780 -0.4440 -2.9045
12175TIP3    H258017   5.187   0.537   6.447 -0.3123 -0.3438  1.0097
12176TIP3   OH258018   0.746   4.121  12.388 -0.6465 -0.7826 -0.5165
12176TIP3    H158019   0.820   4.143  12.444  0.3884  1.2043 -2.5888
12176TIP3    H258020   0.670   4.158  12.433 -0.3633 -2.4259  1.3874
12177TIP3   OH258021   4.165   5.439   5.459 -0.6863 -0.1143  0.3055
12177TIP3    H158022   4.175   5.355   5.504 -0.8036  0.8620  2.1995
12177TIP3    H258023   4.224   5.498   5.504 -2.3649  1.4205  0.5455
12178TIP3   OH258024   1.626   4.241   0.523 -0.2471 -0.0476  0.4914
12178TIP3    H158025   1.710   4.217   0.483 -0.5093  0.4121 -0.3421
12178TIP3    H258026   1.646   4.250   0.616  0.7833  0.7707  0.2041
12179TIP3   OH258027   2.972   3.360   6.239 -0.1563 -0.6708  0.0666
12179TIP3    H158028   3.041   3.416   6.204  1.2187 -2.0324  0.5280
12179TIP3    H258029   2.891   3.399   6.208  0.8473  0.6906 -0.8842
12180TIP3   OH258030   2.438   3.003  14.639  0.0969 -0.1912 -0.2136
12180TIP3    H158031   2.519   2.953  14.649 -0.5580 -1.1123  0.6161
12180TIP3    H258032   2.439   3.033  14.548  1.6872  0.3846 -0.0242
12181TIP3   OH258033   1.898   4.431   3.299 -0.6118  0.2052 -0.4969
12181TIP3    H158034   1.814   4.389   3.314 -1.3778  1.4267 -1.2418
12181TIP3    H258035   1.925   4.465   3.384 -0.4272 -0.9751 -0.0801
12182TIP3   OH258036   1.583   1.410  15.294  0.0411  0.3961  0.2080
12182TIP3    H158037   1.626   1.367  15.220 -0.9711  0.5536 -0.4858
12182TIP3    H258038   1.539   1.338  15.341  0.7547  0.2835  0.7204
12183TIP3   OH258039   3.445   4.023   4.512 -0.3595  0.2443  0.3158
12183TIP3    H158040   3.426   4.025   4.606 -0.9717 -0.3750  0.2163
12183TIP3    H258041   3.415   4.107   4.479  0.5237  0.7519  0.7945
12184TIP3   OH258042   2.671   0.950  13.444  0.7132 -0.0736  0.6106
12184TIP3    H158043   2.693   0.961  13.351 -0.6935  0.0094  0.2812
12184TIP3    H258044   2.665   1.039  13.477 -1.1713 -0.0259  0.1998
12185TIP3   OH258045   0.001   3.200  13.782 -0.7954  0.2911  0.5484
12185TIP3    H158046   0.053   3.272  13.746 -0.4261  0.4581  1.4144
12185TIP3    H258047  -0.090   3.227  13.766 -0.6584  0.9133  0.7854
12186TIP3   OH258048   1.648   4.116   2.650 -0.2102 -0.6111 -0.5104
12186TIP3    H158049   1.558   4.090   2.671 -0.8213  1.0550 -0.9562
12186TIP3    H258050   1.658   4.093   2.557 -0.5671  0.2408 -0.7624
12187TIP3   OH258051   3.539   3.535  15.571 -0.4004  0.0685  0.0767
12187TIP3    H158052   3.582   3.475  15.631 -1.4943 -1.6199 -0.7882
12187TIP3    H258053   3.588   3.617  15.580  0.3294 -0.5652  2.1936
12188TIP3   OH258054   5.363   5.113  11.182 -0.4759 -0.1449 -0.3090
12188TIP3    H158055   5.298   5.155  11.126 -0.9301 -0.1572  0.2092
12188TIP3    H258056   5.317   5.097  11.264 -0.1065 -1.0238 -0.2692
12189TIP3   OH258057   0.128   2.341   2.372 -0.0698 -0.7181  0.0781
12189TIP3    H158058   0.215   2.329   2.412 -0.3575 -3.1524  0.0652
12189TIP3    H258059   0.073   2.370   2.445  0.7792  0.9919  0.0558
12190TIP3   OH258060   1.583   5.860   0.820 -0.4263 -0.3154 -0.3394
12190TIP3    H158061   1.544   5.773   0.812 -1.4607  0.2982 -2.6354
12190TIP3    H258062   1.676   5.844   0.831 -0.5274 -1.7194 -1.3812
12191TIP3   OH258063   3.028   1.708  11.035  0.1077 -0.2463  0.0188
12191TIP3    H158064   3.106   1.710  10.980  1.5504 -0.5662  2.0208
12191TIP3    H258065   3.015   1.616  11.055 -0.7568 -0.1855 -0.2447
12192TIP3   OH258066   4.281   0.640   1.487  0.4364 -0.0567 -0.3752
12192TIP3    H158067   4.242   0.705   1.545  0.2318 -0.8705  0.3985
12192TIP3    H258068   4.367   0.621   1.525  0.7922  0.2685 -0.9913
12193TIP3   OH258069   1.824   1.704  14.971  0.0350 -0.5116  0.8538
12193TIP3    H158070   1.913   1.718  14.937  0.2649 -0.6955  1.3823
12193TIP3    H258071   1.827   1.618  15.012 -0.5215 -0.7258  0.4458
12194TIP3   OH258072   6.665   1.222  15.908  0.2881  0.0892  0.2660
12194TIP3    H158073   6.570   1.219  15.894  0.1521 -1.0814  1.3359
12194TIP3    H258074   6.678   1.300  15.963 -0.2754 -0.7487  1.6145
12195TIP3   OH258075   6.154   6.024  14.262 -0.3783 -0.3514  0.2138
12195TIP3    H158076   6.119   6.069  14.339 -0.5664  0.4196 -0.3148
12195TIP3    H258077   6.248   6.020  14.277 -0.1498  1.7542 -0.5146
12196TIP3   OH258078   1.802   3.344  12.133 -0.0081  0.0405  0.7753
12196TIP3    H158079   1.895   3.363  12.138 -0.1372  0.9751 -0.2573
12196TIP3    H258080   1.763   3.395  12.204  0.0305  1.1929 -0.0242
12197TIP3   OH258081   6.599   2.455   1.436  0.0245 -0.2452  0.2615
12197TIP3    H158082   6.648   2.496   1.508 -1.1955  2.2970 -0.2850
12197TIP3    H258083   6.533   2.401   1.479  1.0823 -0.9460  1.0209
12198TIP3   OH258084   4.805   4.134   3.824 -0.0418 -0.2542  0.4031
12198TIP3    H158085   4.824   4.115   3.732  3.0008  2.6862  0.3135
12198TIP3    H258086   4.720   4.177   3.823  0.1248  0.0722 -1.1165
12199TIP3   OH258087   0.577   5.267  13.614 -0.1585 -0.0636  0.5442
12199TIP3    H158088   0.566   5.342  13.673 -0.6380  0.7081 -0.5085
12199TIP3    H258089   0.602   5.195  13.672  0.3635  0.9140  1.5760
12200TIP3   OH258090   2.124   5.494   3.070  0.3810 -0.2082 -0.5705
12200TIP3    H158091   2.053   5.469   3.012 -0.1821  2.0038 -0.9029
12200TIP3    H258092   2.147   5.583   3.042 -0.6925  1.3855  3.3314
12201TIP3   OH258093   4.330   1.403  13.394  0.0524  0.1985  0.4306
12201TIP3    H158094   4.391   1.329  13.386 -1.2154 -0.7769 -0.2951
12201TIP3    H258095   4.283   1.386  13.475 -0.4758  0.0253  0.0891
12202TIP3   OH258096   2.085   5.534   0.167 -0.2518  0.1846  0.5589
12202TIP3    H158097   2.107   5.626   0.152  0.0715  0.4927  2.7398
12202TIP3    H258098   2.163   5.485   0.138  0.1159  0.6954  0.6816
12203TIP3   OH258099   3.620   4.936  13.918  0.1257 -0.0677 -0.1685
12203TIP3    H158100   3.669   4.925  13.836 -1.4095  2.0781 -1.4358
12203TIP3    H258101   3.636   5.027  13.944  0.1397 -0.5701  1.6274
12204TIP3   OH258102   4.701   5.525  15.870 -0.4660  1.2294 -0.4920
12204TIP3    H158103   4.634   5.458  15.879  1.2278 -0.3512  0.6855
12204TIP3    H258104   4.715   5.557  15.959  0.3298  1.5549 -0.7282
12205TIP3   OH258105   4.368   1.169  14.647 -0.5316 -0.4509 -0.0906
12205TIP3    H158106   4.453   1.149  14.685  0.5020 -1.3576 -2.7651
12205TIP3    H258107   4.310   1.182  14.722  1.7081 -0.9294  1.7480
12206TIP3   OH258108   2.003   4.397  12.110  0.6708 -0.2035  0.1482
12206TIP3    H158109   1.940   4.343  12.063  0.8557  0.7564 -1.2345
12206TIP3    H258110   2.063   4.335  12.151  0.6652 -1.0524 -1.0981
12207TIP3   OH258111   1.861   4.933  11.179 -0.3834  0.1993 -0.5450
12207TIP3    H158112   1.766   4.926  11.185 -0.1980 -1.1999  1.4550
12207TIP3    H258113   1.894   4.849  11.213  1.5903  1.3514  0.5184
12208TIP3   OH258114   4.916   2.369  15.944 -0.3394 -0.3350 -0.2713
12208TIP3    H158115   4.882   2.376  15.855 -0.2778  1.6587 -0.1412
12208TIP3    H258116   4.857   2.306  15.987  0.0123 -1.8002 -1.8748
12209TIP3   OH258117   1.535   6.722   2.474 -0.3327 -0.1960 -0.0757
12209TIP3    H158118   1.616   6.718   2.423  1.1807  1.3164  2.1126
12209TIP3    H258119   1.537   6.809   2.515 -2.0597 -0.9321  1.6327
12210TIP3   OH258120   6.619   4.433  11.597  0.1226 -0.2078 -0.2360
12210TIP3    H158121   6.645   4.522  11.620  0.6772 -0.6362  0.8283
12210TIP3    H258122   6.691   4.400  11.544  0.5339 -0.4821  0.4913
12211TIP3   OH258123   1.582   4.578   1.336 -0.7598  0.4058  0.1051
12211TIP3    H158124   1.601   4.506   1.397 -0.3468  0.0360 -0.4480
12211TIP3    H258125   1.487   4.583   1.333 -0.7962 -0.5700 -0.3754
12212TIP3   OH258126   3.436   1.131  10.880 -0.5435 -0.4776 -0.5471
12212TIP3    H158127   3.484   1.163  10.803 -2.3961  1.7315 -0.8322
12212TIP3    H258128   3.441   1.036  10.873  1.7405 -0.3130 -1.8447
12213TIP3   OH258129   2.593   3.050   4.800 -0.1280 -0.4599  0.6777
12213TIP3    H158130   2.499   3.034   4.815 -0.8933  0.6154 -2.6043
12213TIP3    H258131   2.613   3.124   4.858 -1.4114 -0.4227  1.0999
12214TIP3   OH258132   3.031   5.622   5.962 -0.2759  0.3047 -0.3715
12214TIP3    H158133   3.083   5.679   6.018 -1.5860  1.2597 -0.1233
12214TIP3    H258134   2.969   5.680   5.918 -1.1172 -0.8181 -0.6934
12215TIP3   OH258135   1.880   2.151   1.807  0.1414 -0.3931  0.2508
12215TIP3    H158136   1.926   2.187   1.883  2.1968 -0.0263 -1.1483
12215TIP3    H258137   1.947   2.102   1.759 -0.8069  0.5609 -2.0840
12216TIP3   OH258138   3.154   2.737  15.577 -0.2197 -0.1713 -0.2409
12216TIP3    H158139   3.159   2.676  15.504 -1.0723 -1.3819  0.7074
12216TIP3    H258140   3.175   2.822  15.538  2.8020 -1.3001 -1.2170
12217TIP3   OH258141   3.362   3.528  12.096 -1.1311  0.4589  0.0873
12217TIP3    H158142   3.311   3.470  12.152 -0.6328 -0.4353 -0.3781
12217TIP3    H258143   3.414   3.581  12.157 -1.8991  0.7130  0.5264
12218TIP3   OH258144   2.630   4.604  14.404  0.1535  0.2434 -0.3551
12218TIP3    H158145   2.587   4.684  14.375 -0.7846 -0.6308 -1.4425
12218TIP3    H258146   2.581   4.577  14.482 -0.2502  0.1270 -0.6473
12219TIP3   OH258147   6.210   1.287  12.843  0.4375 -0.1236 -0.2269
12219TIP3    H158148   6.225   1.212  12.785 -0.0455 -0.4978  0.1228
12219TIP3    H258149   6.229   1.253  12.931  0.9470  0.3764 -0.1407
12220TIP3   OH258150   5.578   6.536   3.204 -0.7665 -0.1979  0.0192
12220TIP3    H158151   5.563   6.459   3.149 -2.5321  0.0179  0.1479
12220TIP3    H258152   5.525   6.605   3.163  2.0969  1.4106 -1.0492
12221TIP3   OH258153   1.502   6.016   1.010  0.1843 -0.3144  0.3512
12221TIP3    H158154   1.506   5.950   0.940  1.1104  2.0233 -1.8602
12221TIP3    H258155   1.584   6.064   1.001 -0.2957  0.8788  2.2307
12222TIP3   OH258156   5.885   0.822  14.954  0.3924  0.1068  0.1774
12222TIP3    H158157   5.938   0.750  14.990  0.9373  0.8635  0.8995
12222TIP3    H258158   5.807   0.824  15.010  1.0325  0.9933  1.0384
12223TIP3   OH258159   5.517   5.052   3.865 -0.0833  0.5270 -0.2713
12223TIP3    H158160   5.473   5.128   3.904 -1.9585 -1.3528  1.3901
12223TIP3    H258161   5.464   4.977   3.892  2.7523 -1.5718 -0.3330
12224TIP3   OH258162   5.358   3.402  11.554 -0.1077  0.4439 -0.3249
12224TIP3    H158163   5.283   3.349  11.527 -0.2395  0.2812  0.3333
12224TIP3    H258164   5.431   3.370  11.500 -0.5944  0.8691 -1.2352
12225TIP3   OH258165   3.719   6.682   5.044  0.5111  0.1746  0.0609
12225TIP3    H158166   3.738   6.602   5.093 -0.2230 -0.1238 -0.1338
12225TIP3    H258167   3.791   6.741   5.066  0.5347 -0.1866  0.9961
12226TIP3   OH258168   0.761   1.996  14.930  0.0900  0.7794 -0.5686
12226TIP3    H158169   0.854   1.977  14.914 -0.0741 -1.2890  0.6813
12226TIP3    H258170   0.753   1.995  15.026 -1.3817  0.1193 -0.6858
12227TIP3   OH258171   5.462   0.419   2.174  0.1837  0.0031  0.1874
12227TIP3    H158172   5.536   0.361   2.190  2.1664  2.0374 -1.4474
12227TIP3    H258173   5.422   0.387   2.094  0.3908  0.0145  0.0808
12228TIP3   OH258174   5.752   4.417  14.683  0.1772 -0.4375 -0.0990
12228TIP3    H158175   5.688   4.452  14.621 -0.2683 -0.1224  0.5232
12228TIP3    H258176   5.716   4.332  14.709 -0.8695  0.4662  1.5201
12229TIP3   OH258177   0.310   4.472   1.560 -0.0890 -0.3173 -0.5760
12229TIP3    H158178   0.307   4.454   1.654 -0.3246 -1.1315 -0.7371
12229TIP3    H258179   0.261   4.554   1.550  2.8273  1.6227  0.4337
12230TIP3   OH258180   3.281   3.222  14.011 -0.6117  0.4015  0.6402
12230TIP3    H158181   3.216   3.207  14.080 -0.6396 -2.2143  0.0868
12230TIP3    H258182   3.231   3.261  13.939 -0.7847  2.1307  1.6777
12231TIP3   OH258183   1.834   2.268  16.273  0.0572 -0.4437 -0.5237
12231TIP3    H158184   1.811   2.348  16.226 -0.1333  1.2472  2.3379
12231TIP3    H258185   1.751   2.223  16.286  0.0001 -0.4838 -1.0238
12232TIP3   OH258186   2.859   6.229   2.886  0.4937 -0.2591  0.4949
12232TIP3    H158187   2.849   6.236   2.791 -0.6051  0.8811  0.6912
12232TIP3    H258188   2.800   6.158   2.910  1.8446 -1.5317  0.1666
12233TIP3   OH258189   6.207   1.664  16.099 -0.2674  0.4555 -0.3246
12233TIP3    H158190   6.265   1.587  16.102  0.8589  1.3367  1.3433
12233TIP3    H258191   6.142   1.647  16.167  0.6678  1.4740  0.8582
12234TIP3   OH258192   6.126   6.194   5.002 -1.1224 -0.1879  0.0972
12234TIP3    H158193   6.055   6.222   5.060 -0.7402  1.4325 -0.2078
12234TIP3    H258194   6.088   6.198   4.915 -0.3660  1.6737 -0.1650
12235TIP3   OH258195   0.001   1.706   1.776  0.0265 -0.1822  0.6058
12235TIP3    H158196   0.086   1.670   1.803 -0.1859 -1.0431  0.1308
12235TIP3    H258197  -0.032   1.748   1.855  0.2960 -0.9991  1.1651
12236TIP3   OH258198   0.128   3.811   5.878  0.5920 -0.9904 -0.0355
12236TIP3    H158199   0.071   3.887   5.887  2.0901  0.4132 -1.8120
12236TIP3    H258200   0.069   3.736   5.878 -0.9110  0.1514  1.7743
12237TIP3   OH258201   5.727   3.592  13.057  0.5555  0.0560  0.1040
12237TIP3    H158202   5.757   3.587  12.966 -1.5201 -1.8271 -0.5364
12237TIP3    H258203   5.669   3.516  13.067  0.7144  0.2651  2.9907
12238TIP3   OH258204   1.189   3.572  13.094 -0.1752 -0.3402  0.0121
12238TIP3    H158205   1.247   3.532  13.160 -0.6843 -2.5437 -0.8597
12238TIP3    H258206   1.142   3.499  13.055  0.5666  0.8619 -3.2791
12239TIP3   OH258207   0.352   6.163   3.642  0.3322  0.4756 -0.0256
12239TIP3    H158208   0.414   6.236   3.644  1.0914 -0.1514 -0.7242
12239TIP3    H258209   0.394   6.096   3.589 -0.5981 -0.2726  0.1577
12240TIP3   OH258210   0.304   0.499  16.549 -0.2271 -0.1093 -0.1941
12240TIP3    H158211   0.382   0.450  16.524  0.2817 -0.0042  1.1483
12240TIP3    H258212   0.280   0.548  16.470  1.4448  0.3879 -0.4073
12241TIP3   OH258213   3.087   3.001   0.469 -0.2188 -0.3957  0.9640
12241TIP3    H158214   3.147   3.074   0.482 -2.0370  1.0971  1.0171
12241TIP3    H258215   3.033   2.999   0.547 -1.9222 -0.1481 -0.1967
12242TIP3   OH258216   3.473   2.951  16.859  0.2951  0.5666  0.0796
12242TIP3    H158217   3.393   2.973  16.906  0.1112  0.8929 -0.3831
12242TIP3    H258218   3.544   2.991  16.910  0.2399 -0.3872  0.9161
12243TIP3   OH258219   4.623   1.121  12.268  0.2146 -0.1134 -0.4533
12243TIP3    H158220   4.655   1.128  12.358  0.9149 -0.6273 -0.6556
12243TIP3    H258221   4.555   1.054  12.273 -0.7465  0.8815 -0.0478
12244TIP3   OH258222   1.004   2.666  17.181 -0.1500  0.0945  0.0446
12244TIP3    H158223   0.940   2.659  17.251  0.1826  1.7147  0.5231
12244TIP3    H258224   0.956   2.640  17.102 -1.2579  0.8245  0.4730
12245TIP3   OH258225   4.834   4.614  15.509  0.5851  0.9454  0.4280
12245TIP3    H158226   4.777   4.691  15.509  0.9677  1.2385 -0.2580
12245TIP3    H258227   4.789   4.550  15.453 -1.1948 -0.4653  3.3757
12246TIP3   OH258228   3.618   0.552  11.807  0.6118 -0.0727 -0.0204
12246TIP3    H158229   3.575   0.603  11.875  0.3458 -2.8176  1.9330
12246TIP3    H258230   3.624   0.464  11.843  0.0361 -1.7332 -3.7174
12247TIP3   OH258231   5.069   2.054   2.101 -0.3577 -0.5009  0.0345
12247TIP3    H158232   5.005   2.005   2.048  0.0371 -0.4591 -0.4863
12247TIP3    H258233   5.076   2.139   2.057 -0.5834 -0.1956  0.5839
12248TIP3   OH258234   4.960   6.307   3.321 -0.0871  0.2927  0.2367
12248TIP3    H158235   5.055   6.303   3.313 -0.2505  0.4187 -2.0882
12248TIP3    H258236   4.930   6.343   3.238 -2.2266 -0.6688  0.5455
12249TIP3   OH258237   4.631   1.111  12.553 -0.1619 -0.1154  0.0594
12249TIP3    H158238   4.598   1.035  12.600  1.0588 -0.1008  0.9541
12249TIP3    H258239   4.605   1.186  12.606  1.1208 -0.0934  0.6865
12250TIP3   OH258240   3.644   1.008   0.372  0.1176 -0.1017  0.4705
12250TIP3    H158241   3.730   1.028   0.336 -0.9947  1.9805 -1.1513
12250TIP3    H258242   3.639   1.058   0.453 -0.1782  1.1379 -0.2943
12251TIP3   OH258243   4.084   4.194  13.700 -0.3586  0.1557 -0.2760
12251TIP3    H158244   4.007   4.247  13.679 -0.1659  1.1004  1.3173
12251TIP3    H258245   4.057   4.104  13.680 -1.3843  0.6199 -1.0660
12252TIP3   OH258246   1.683   0.753   2.832  0.6030  0.0484  0.2401
12252TIP3    H158247   1.619   0.808   2.877 -0.2641 -1.9235  1.4650
12252TIP3    H258248   1.708   0.687   2.897  1.9905 -0.7201 -1.0451
12253TIP3   OH258249   6.761   5.450  16.846  0.4644 -0.2262  0.3014
12253TIP3    H158250   6.749   5.371  16.900  2.2997  0.2021  1.3766
12253TIP3    H258251   6.803   5.513  16.904  1.1155  0.7674 -1.2077
12254TIP3   OH258252   2.043   5.313   5.519 -0.4855 -0.5696 -0.3962
12254TIP3    H158253   1.979   5.346   5.582 -0.3087  0.5034 -0.7820
12254TIP3    H258254   2.060   5.223   5.548 -0.4801 -0.1245  1.0333
12255TIP3   OH258255   0.669   4.092  17.008 -0.6153 -0.1268 -0.1530
12255TIP3    H158256   0.685   4.044  16.927 -2.4222 -0.1499 -0.5162
12255TIP3    H258257   0.729   4.053  17.071  1.3881  0.4124 -1.6507
12256TIP3   OH258258   3.033   2.733  11.869  0.6559 -0.4271 -0.0564
12256TIP3    H158259   2.991   2.817  11.849  1.9765  0.1409 -0.4906
12256TIP3    H258260   2.972   2.689  11.928 -0.3859  0.5328 -0.4013
12257TIP3   OH258261   1.721   3.846  12.872 -0.5833  0.2520 -0.4805
12257TIP3    H158262   1.627   3.833  12.863 -0.1257 -3.0926 -1.1397
12257TIP3    H258263   1.732   3.883  12.959 -2.3938 -1.0927  0.3632
12258TIP3   OH258264   1.847   3.832  16.712 -0.2344 -0.1239 -0.2514
12258TIP3    H158265   1.793   3.754  16.721 -0.3311 -0.1255 -0.8123
12258TIP3    H258266   1.850   3.849  16.618  0.4685  0.0668 -0.2002
12259TIP3   OH258267   0.174   0.610   2.904 -0.0605  0.4178 -0.2018
12259TIP3    H158268   0.138   0.558   2.832  0.3150 -0.9488  0.5708
12259TIP3    H258269   0.097   0.644   2.950 -0.3357 -0.2934 -0.1264
12260TIP3   OH258270   2.501   3.932   1.664  0.1447  0.0827 -0.4935
12260TIP3    H158271   2.410   3.903   1.668 -0.0362  0.3836 -2.2176
12260TIP3    H258272   2.511   3.969   1.577  1.5038  1.4451  0.2035
12261TIP3   OH258273   0.746   5.741   1.408  0.7160 -0.4130 -0.7266
12261TIP3    H158274   0.790   5.656   1.402 -0.9880 -1.6886  2.8330
12261TIP3    H258275   0.787   5.784   1.483 -0.5374  0.5514 -0.5761
12262TIP3   OH258276   0.466   2.220  13.289 -0.4158 -0.5065  0.1725
12262TIP3    H158277   0.541   2.248  13.342  0.3461 -1.4903 -0.3522
12262TIP3    H258278   0.391   2.263  13.329  0.4027  0.3091  0.8595
12263TIP3   OH258279   2.424   6.226  13.171 -0.1886 -0.0169 -0.1270
12263TIP3    H158280   2.436   6.316  13.200 -2.2666 -0.2351  1.5981
12263TIP3    H258281   2.481   6.216  13.095  0.9891  2.3703  0.4207
12264TIP3   OH258282   3.866   6.226  14.413  0.2697  0.1311  0.4521
12264TIP3    H158283   3.919   6.297  14.377  1.3443 -1.2300 -0.7458
12264TIP3    H258284   3.779   6.264  14.427 -0.0017  0.9187 -2.9564
12265TIP3   OH258285   1.017   2.148  13.037  0.1640  0.1445  0.1176
12265TIP3    H158286   1.046   2.227  13.082  1.2251 -0.4579  0.5021
12265TIP3    H258287   0.924   2.164  13.020  0.0575  0.9479  1.3242
12266TIP3   OH258288   5.541   3.139   2.709 -0.3324  0.6982 -0.1854
12266TIP3    H158289   5.591   3.191   2.771 -0.4194  0.7573 -0.1648
12266TIP3    H258290   5.604   3.073   2.677 -0.1038  1.0710 -0.5207
12267TIP3   OH258291   4.816   5.428  14.144  0.0459  0.0984 -0.1065
12267TIP3    H158292   4.841   5.341  14.171 -0.6762 -0.4164 -1.0404
12267TIP3    H258293   4.797   5.475  14.225  0.1426 -0.7024  0.3737
12268TIP3   OH258294   2.797   3.425   2.155 -0.1082  0.6670 -0.7062
12268TIP3    H158295   2.747   3.487   2.102 -1.3660 -0.6678 -1.1052
12268TIP3    H258296   2.732   3.382   2.210  0.8042  0.0099 -0.1291
12269TIP3   OH258297   0.462   4.871  12.461 -0.1350  0.1668 -0.0797
12269TIP3    H158298   0.529   4.885  12.394 -0.8342 -1.2539 -1.1097
12269TIP3    H258299   0.506   4.820  12.528  0.6262  1.7675  0.6619
12270TIP3   OH258300   0.033   1.749  16.319 -0.4242 -0.1089  0.1038
12270TIP3    H158301  -0.022   1.672  16.308 -0.8838  0.1014  0.8933
12270TIP3    H258302   0.056   1.749  16.412 -0.4423  0.7179  0.1136
12271TIP3   OH258303   3.182   3.409  15.720 -0.1693  0.0463 -0.3487
12271TIP3    H158304   3.230   3.482  15.681  0.0431  1.0903  1.7498
12271TIP3    H258305   3.109   3.392  15.660  1.5483 -0.1074 -2.4497
12272TIP3   OH258306   2.359   4.752  14.019 -0.2488  1.0170  0.2248
12272TIP3    H158307   2.358   4.746  14.115 -0.5456  0.4129  0.1852
12272TIP3    H258308   2.397   4.838  14.001 -0.4556  1.2524  0.8911
12273TIP3   OH258309   1.569   1.107   5.642  0.3452  0.2118 -0.3718
12273TIP3    H158310   1.597   1.176   5.703  0.0728  0.3771 -0.4361
12273TIP3    H258311   1.638   1.104   5.576  1.7251 -1.4031  1.0953
12274TIP3   OH258312   2.273   3.871   3.265  0.3674 -0.2912 -0.1822
12274TIP3    H158313   2.272   3.854   3.359  1.0010 -1.7100 -0.4207
12274TIP3    H258314   2.338   3.809   3.230  0.2055  0.2861 -1.5368
12275TIP3   OH258315   3.450   2.171   3.206  0.2020  0.2642  0.2071
12275TIP3    H158316   3.525   2.116   3.228  0.1603  0.1037 -0.0554
12275TIP3    H258317   3.401   2.178   3.288  0.7533  0.7612  0.4995
12276TIP3   OH258318   2.507   6.727  16.170 -0.2514 -0.0467 -0.0500
12276TIP3    H158319   2.525   6.762  16.257 -1.0144  0.7736 -0.2165
12276TIP3    H258320   2.415   6.699  16.174  0.6486 -3.2020  0.4651
12277TIP3   OH258321   5.274   5.683   0.338  0.3371 -1.0133  0.5047
12277TIP3    H158322   5.275   5.742   0.262  1.6201 -2.5343 -0.6837
12277TIP3    H258323   5.347   5.712   0.392 -1.5737  1.1457  2.0668
12278TIP3   OH258324   3.035   0.183   3.808 -0.4870  0.0051 -0.2769
12278TIP3    H158325   3.047   0.276   3.789 -2.0291  0.0141 -1.2434
12278TIP3    H258326   3.013   0.143   3.724  0.2596 -1.2651  0.1139
12279TIP3   OH258327   5.891   0.852   2.761  0.4564  0.1160 -0.0967
12279TIP3    H158328   5.864   0.938   2.792  0.5189 -0.2383  0.9491
12279TIP3    H258329   5.809   0.803   2.753  0.6704 -0.5791  1.9173
12280TIP3   OH258330   4.202   2.128   1.393 -0.0262  0.0311 -0.1051
12280TIP3    H158331   4.227   2.216   1.364 -0.4300 -0.6245 -2.5526
12280TIP3    H258332   4.106   2.127   1.384  0.1166 -1.1521 -1.5260
12281TIP3   OH258333   6.622   0.728   5.548  0.5799  0.4644 -0.0314
12281TIP3    H158334   6.533   0.695   5.538  1.1741 -1.1582 -0.1188
12281TIP3    H258335   6.642   0.770   5.465  0.7991 -1.4066 -0.9420
12282TIP3   OH258336   3.851   3.771  13.003 -0.2133 -0.1730  0.1694
12282TIP3    H158337   3.897   3.717  12.938  1.9552 -0.3544  1.7805
12282TIP3    H258338   3.894   3.856  12.997  0.4493 -0.3675  1.7523
12283TIP3   OH258339   1.270   5.097   6.205 -0.1273 -0.4494 -0.1840
12283TIP3    H158340   1.221   5.178   6.223 -0.1704 -0.3365 -0.7862
12283TIP3    H258341   1.235   5.033   6.267 -1.2103 -0.4323 -0.7677
12284TIP3   OH258342   2.905   0.016  16.965  0.4303  0.5681  0.3254
12284TIP3    H158343   2.890   0.106  16.938  0.4218  0.0019 -1.6220
12284TIP3    H258344   2.843  -0.036  16.915 -0.7555 -0.3819  2.6866
12285TIP3   OH258345   0.632   1.734  14.933  0.4253  0.2369 -0.2498
12285TIP3    H158346   0.547   1.745  14.976  1.3597  1.2631  1.3571
12285TIP3    H258347   0.647   1.816  14.887  0.8381  0.2842 -0.0272
12286TIP3   OH258348   2.823   3.643   1.561 -0.3111 -0.1798  0.2442
12286TIP3    H158349   2.849   3.552   1.547 -0.7985 -0.1941 -0.6148
12286TIP3    H258350   2.775   3.667   1.482 -0.1641  0.8368  0.4497
12287TIP3   OH258351   1.701   5.561   0.702 -0.0053 -0.3780 -0.4120
12287TIP3    H158352   1.690   5.497   0.772 -1.1618  0.1484 -0.0964
12287TIP3    H258353   1.618   5.558   0.654 -0.2619  1.2424 -0.0829
12288TIP3   OH258354   3.278   5.987   5.601 -0.1673 -0.1444  0.1991
12288TIP3    H158355   3.300   5.899   5.570 -0.5838 -0.1899  0.0213
12288TIP3    H258356   3.302   5.988   5.693 -0.0708 -0.4141  0.1756
12289TIP3   OH258357   0.133   3.222  14.844  0.1705  0.0509 -0.5749
12289TIP3    H158358   0.198   3.260  14.903  0.5367 -1.8758  0.2920
12289TIP3    H258359   0.183   3.164  14.787 -0.7420 -1.1194 -0.1844
12290TIP3   OH258360   6.055   5.750  13.424  0.3695 -0.4083 -0.3971
12290TIP3    H158361   6.119   5.805  13.469 -0.8625  1.1213 -0.4434
12290TIP3    H258362   5.993   5.723  13.492  1.0775 -1.9016 -0.3452
12291TIP3   OH258363   6.571   2.455   4.244  0.1093 -0.4027  0.2504
12291TIP3    H158364   6.576   2.370   4.200 -0.9630  0.2536 -1.1554
12291TIP3    H258365   6.554   2.433   4.336  2.2984 -1.7737  0.3624
12292TIP3   OH258366   0.117   3.001   4.908 -0.4109 -0.0269 -0.2475
12292TIP3    H158367   0.073   3.058   4.971  2.3585  0.5993  1.2090
12292TIP3    H258368   0.056   2.995   4.834 -3.4406 -0.2922  2.2159
12293TIP3   OH258369   2.817   2.601  14.676  0.3562 -0.3073 -0.2969
12293TIP3    H158370   2.865   2.684  14.672 -0.8930  0.4475  0.0499
12293TIP3    H258371   2.770   2.597  14.592  2.1561 -1.7653 -1.2834
12294TIP3   OH258372   4.523   3.669  17.208  0.1743 -0.5638  0.5396
12294TIP3    H158373   4.465   3.594  17.200 -0.6942  0.0303  1.1417
12294TIP3    H258374   4.520   3.692  17.301  1.6463 -0.7329  0.6390
12295TIP3   OH258375   0.480   1.297   4.287  0.0306  0.4800  0.2712
12295TIP3    H158376   0.464   1.211   4.325  1.5712 -0.2704 -0.7310
12295TIP3    H258377   0.396   1.343   4.295 -1.6735 -2.1083 -1.8060
12296TIP3   OH258378   2.331   1.095  12.074  0.3354 -0.3361 -0.6663
12296TIP3    H158379   2.349   1.051  11.991  0.4682 -1.3605 -0.0979
12296TIP3    H258380   2.286   1.030  12.127 -2.4299  1.2334 -0.9859
12297TIP3   OH258381   6.582   0.686   1.631  0.5275  0.7619  0.0887
12297TIP3    H158382   6.534   0.746   1.574  1.3343  1.1586 -0.1692
12297TIP3    H258383   6.547   0.703   1.719 -1.0311 -0.1490 -0.3242
12298TIP3   OH258384   2.644   2.566  15.826 -0.0350  1.0291  0.1968
12298TIP3    H158385   2.635   2.569  15.731  1.2478 -0.6746  0.0065
12298TIP3    H258386   2.680   2.652  15.850  0.0240  1.3073 -0.8810
12299TIP3   OH258387   5.027   1.212  15.205 -0.1687  0.1845  0.4400
12299TIP3    H158388   5.019   1.305  15.227  0.3766  0.1862  0.6398
12299TIP3    H258389   5.121   1.199  15.193 -0.0363 -0.8235  2.4459
12300TIP3   OH258390   0.993   2.909  14.597 -0.2960 -0.2334  1.0308
12300TIP3    H158391   1.066   2.881  14.651  1.1500  0.1537 -0.6948
12300TIP3    H258392   0.927   2.939  14.659  0.4339 -1.9640  2.6518
12301TIP3   OH258393   3.475   6.304  16.611 -0.5290 -0.1557 -0.4298
12301TIP3    H158394   3.493   6.322  16.703 -0.0993  0.4185 -0.6224
12301TIP3    H258395   3.560   6.280  16.573 -0.6221  0.0361 -0.7707
12302TIP3   OH258396   5.804   0.389  12.630 -0.0809 -0.1155 -0.0838
12302TIP3    H158397   5.714   0.359  12.642 -0.3625  0.9774  0.5949
12302TIP3    H258398   5.817   0.389  12.535 -0.9815  0.2937 -0.2090
12303TIP3   OH258399   5.673   0.440   2.625  0.7596 -0.1617 -1.3230
12303TIP3    H158400   5.753   0.488   2.643 -0.0777  0.3768  1.2086
12303TIP3    H258401   5.692   0.350   2.650  0.6083 -0.0367 -0.7373
12304TIP3   OH258402   0.824   5.131   1.801 -0.3684 -0.1983 -0.0721
12304TIP3    H158403   0.853   5.131   1.710  0.6969 -0.8723  0.2606
12304TIP3    H258404   0.749   5.191   1.802  1.9756  2.8571 -0.6546
12305TIP3   OH258405   1.053   6.581  16.466 -0.1224 -0.3362  0.0480
12305TIP3    H158406   0.964   6.582  16.501 -0.1119  0.8765  0.0549
12305TIP3    H258407   1.070   6.671  16.440  0.8874 -0.6809 -0.5208
12306TIP3   OH258408   0.353   3.210   1.128  0.4496  0.7629 -0.4864
12306TIP3    H158409   0.265   3.230   1.159 -0.4255  0.1884 -2.5084
12306TIP3    H258410   0.388   3.293   1.096 -1.0182  0.2762 -3.5994
12307TIP3   OH258411   1.027   2.809  16.838 -0.4065 -0.3395  0.4476
12307TIP3    H158412   1.066   2.749  16.902 -0.6523 -0.2804  0.6565
12307TIP3    H258413   0.988   2.751  16.772  1.5578 -0.3714 -0.7040
12308TIP3   OH258414   3.100   5.466   5.389 -0.5999 -0.4295 -0.5642
12308TIP3    H158415   3.162   5.394   5.402 -3.4865 -2.7791  1.1194
12308TIP3    H258416   3.084   5.500   5.477  0.8849  2.4705 -1.3755
12309TIP3   OH258417   4.586   1.402   2.450  0.1725  0.2226  0.0054
12309TIP3    H158418   4.590   1.454   2.530 -1.1853  0.1676  0.1231
12309TIP3    H258419   4.588   1.467   2.380 -2.1859  0.5251  0.1633
12310TIP3   OH258420   0.332   2.554  14.225  0.3872  0.5115  0.7353
12310TIP3    H158421   0.241   2.584  14.232 -0.1215 -0.5970 -0.7954
12310TIP3    H258422   0.330   2.487  14.157  2.2213 -0.1134  1.2609
12311TIP3   OH258423   6.124   3.067  13.678 -0.1984  0.5211  0.4145
12311TIP3    H158424   6.197   3.026  13.723 -1.0098 -1.9251 -0.4218
12311TIP3    H258425   6.068   3.101  13.748  0.4206  0.0590  1.1302
12312TIP3   OH258426   4.967   0.680   0.701  0.2338  0.0783  0.4292
12312TIP3    H158427   4.920   0.758   0.673  0.0405 -0.3302 -0.3956
12312TIP3    H258428   5.046   0.678   0.646  1.0348  0.5494  1.5320
12313TIP3   OH258429   0.375   0.782  16.214  0.2783 -0.2283  0.2404
12313TIP3    H158430   0.470   0.768  16.212  0.8780  3.1185  1.2507
12313TIP3    H258431   0.363   0.862  16.162 -1.8448  0.0090  1.0871
12314TIP3   OH258432   0.166   4.681   3.330  0.2226  0.3117  0.0970
12314TIP3    H158433   0.250   4.653   3.367  0.2612 -1.0774 -0.9770
12314TIP3    H258434   0.183   4.767   3.293  0.7059  0.8248  1.4902
12315TIP3   OH258435   6.421   0.448   0.908 -0.0921 -0.2238 -0.3949
12315TIP3    H158436   6.356   0.512   0.938 -0.6934 -0.8580 -0.3501
12315TIP3    H258437   6.407   0.442   0.813 -3.1190 -3.6918  0.1923
12316TIP3   OH258438   1.177   4.497  14.573  0.3503 -0.0516 -0.6172
12316TIP3    H158439   1.189   4.467  14.663 -0.1945 -1.2811 -0.9526
12316TIP3    H258440   1.253   4.553  14.556 -0.1159  1.0812  0.9680
12317TIP3   OH258441   5.205   0.489  12.057 -0.2992  0.3990  0.2823
12317TIP3    H158442   5.252   0.407  12.041  0.5595  0.6775  1.2926
12317TIP3    H258443   5.273   0.551  12.085 -0.9393  1.4520 -0.4516
12318TIP3   OH258444   3.297   0.196  13.501  0.5145 -0.5674 -0.3058
12318TIP3    H158445   3.337   0.266  13.553  0.1172 -0.8973  0.4553
12318TIP3    H258446   3.252   0.141  13.565 -0.5500 -0.6084 -1.0810
12319TIP3   OH258447   0.480   6.294   4.918 -0.0984 -0.5414 -0.2465
12319TIP3    H158448   0.399   6.282   4.868 -0.4034  0.6096 -0.0446
12319TIP3    H258449   0.481   6.387   4.940 -0.1806 -1.1236  2.2854
12320TIP3   OH258450   1.069   5.410   3.400 -0.2002  0.0393  0.0943
12320TIP3    H158451   1.147   5.355   3.394 -0.6016 -0.5379  0.1889
12320TIP3    H258452   1.102   5.498   3.383  0.5789 -0.1121  0.7305
12321TIP3   OH258453   1.665   6.535   5.365  0.2891  0.9792 -0.1001
12321TIP3    H158454   1.753   6.506   5.389  0.6387  2.4319  0.4260
12321TIP3    H258455   1.677   6.585   5.285 -0.0961  0.9806 -0.1576
12322TIP3   OH258456   3.160   1.714  13.539 -0.3250  0.7157  0.4128
12322TIP3    H158457   3.203   1.669  13.612 -1.5533 -0.4388  0.4421
12322TIP3    H258458   3.157   1.648  13.469 -0.6666  1.2858 -0.1119
12323TIP3   OH258459   0.435   6.389  10.772  0.0059 -0.1078  1.0795
12323TIP3    H158460   0.435   6.458  10.838  0.6532 -0.5333  1.5367
12323TIP3    H258461   0.427   6.307  10.821 -0.0436 -0.3992  0.5988
12324TIP3   OH258462   4.410   6.138  15.085 -0.0376 -0.2898  0.0297
12324TIP3    H158463   4.496   6.111  15.053 -0.7463 -1.0139 -1.3008
12324TIP3    H258464   4.393   6.080  15.159  0.6865 -0.0367  0.3955
12325TIP3   OH258465   0.661   0.083   1.716  0.7007  0.4794  0.0956
12325TIP3    H158466   0.583   0.054   1.668 -0.8879  0.3147  2.6772
12325TIP3    H258467   0.693   0.004   1.760  0.7770  1.0818  1.1341
12326TIP3   OH258468   6.035   0.381   1.550 -1.4320 -0.0541  0.1430
12326TIP3    H158469   5.971   0.449   1.570 -1.4250  0.1269 -0.4256
12326TIP3    H258470   6.119   0.427   1.553 -1.4186 -0.0605 -0.1362
12327TIP3   OH258471   0.445   3.211  15.301  0.0207 -0.5085 -0.0525
12327TIP3    H158472   0.441   3.119  15.278 -1.7278 -0.6804  0.8217
12327TIP3    H258473   0.353   3.236  15.315  0.6467  0.7234  2.0881
12328TIP3   OH258474   1.441   5.643   0.730  0.0828 -0.5038  0.7332
12328TIP3    H158475   1.400   5.615   0.812 -0.7296  0.1144  0.5412
12328TIP3    H258476   1.375   5.697   0.687  0.7053 -0.3811 -0.0818
12329TIP3   OH258477   3.598   0.626  11.545 -0.3488 -0.8661 -0.2154
12329TIP3    H158478   3.621   0.600  11.634 -1.8292  0.5182  0.5899
12329TIP3    H258479   3.592   0.543  11.497  1.7275 -1.5390  0.6397
12330TIP3   OH258480   0.119   3.039  13.944 -0.2495 -0.3075  0.1438
12330TIP3    H158481   0.210   3.051  13.915  0.5219  0.3085  2.7151
12330TIP3    H258482   0.070   3.106  13.896  1.3010  1.9587  1.6290
12331TIP3   OH258483   1.427   3.262  10.599  0.3622  0.1206 -0.0600
12331TIP3    H158484   1.388   3.246  10.512 -1.2686  0.8274  0.5123
12331TIP3    H258485   1.394   3.190  10.653  0.2769  0.4372  0.3062
12332TIP3   OH258486   5.184   0.620  14.601 -0.4503  0.2090 -0.6530
12332TIP3    H158487   5.175   0.709  14.635  1.9276  1.0892 -2.1697
12332TIP3    H258488   5.145   0.564  14.668 -0.8267  2.2961  0.9112
12333TIP3   OH258489   5.959   1.889   3.335 -0.3360  0.3980 -0.2795
12333TIP3    H158490   6.052   1.902   3.352  0.0356  1.1427 -2.6903
12333TIP3    H258491   5.920   1.976   3.349 -0.5635  0.2353  0.0972
12334TIP3   OH258492   3.694   4.178   5.725 -0.7105  0.2766  0.1140
12334TIP3    H158493   3.760   4.248   5.723 -1.3366  0.8937  0.7186
12334TIP3    H258494   3.610   4.224   5.730 -1.0655 -0.5212  1.8659
12335TIP3   OH258495   3.340   5.431   4.664  0.3099 -0.2609 -0.4502
12335TIP3    H158496   3.272   5.378   4.705  0.1010 -0.4146 -0.9874
12335TIP3    H258497   3.416   5.373   4.659  0.1735 -0.4155 -0.7628
12336TIP3   OH258498   4.613   5.076   0.137 -0.2694 -0.5901  0.1623
12336TIP3    H158499   4.560   5.081   0.217 -1.3514 -2.1806 -0.4405
12336TIP3    H258500   4.702   5.059   0.169 -0.3903  0.4846  1.1056
12337TIP3   OH258501   2.585   5.268   3.485 -0.5168 -0.1352 -0.1707
12337TIP3    H158502   2.612   5.295   3.573 -0.0705 -2.2764  0.3620
12337TIP3    H258503   2.511   5.209   3.500 -0.6945 -0.1947 -1.2603
12338TIP3   OH258504   0.996   0.068   1.874  0.5418 -0.3233 -0.5242
12338TIP3    H158505   0.992   0.149   1.926 -1.7567  0.1701 -1.3987
12338TIP3    H258506   1.065   0.016   1.916 -0.2580  0.6657  2.1288
12339TIP3   OH258507   4.398   3.997  12.045  0.0348  0.4946  0.1582
12339TIP3    H158508   4.414   4.051  12.122  0.8331  1.4030 -0.6184
12339TIP3    H258509   4.316   4.030  12.009  0.3670  1.0170 -0.1430
12340TIP3   OH258510   3.207   0.927  14.371  0.3008 -0.2077  0.3222
12340TIP3    H158511   3.229   0.996  14.309  0.4379  0.7942  1.4525
12340TIP3    H258512   3.115   0.907  14.354  0.2788  0.2131 -0.0474
12341TIP3   OH258513   0.142   3.862  11.736  0.2648  0.3586  0.0646
12341TIP3    H158514   0.149   3.782  11.684  3.0534  0.7295 -0.2038
12341TIP3    H258515   0.047   3.875  11.747 -0.2772 -1.9183 -1.4799
12342TIP3   OH258516   3.837   3.099   0.840  0.3355 -0.5582  0.1711
12342TIP3    H158517   3.839   3.171   0.778  2.2820  0.4730  1.4190
12342TIP3    H258518   3.744   3.074   0.844 -0.3272  1.7395 -0.3872
12343TIP3   OH258519   3.421   3.328   3.766 -0.3726  0.2383  0.0397
12343TIP3    H158520   3.477   3.341   3.690 -0.9539  0.6234 -0.3245
12343TIP3    H258521   3.345   3.385   3.751  0.4446  1.8743  1.8626
12344TIP3   OH258522   3.187   2.923   1.432  0.0275 -0.4617  0.4060
12344TIP3    H158523   3.222   2.996   1.381 -0.4705 -0.7536 -0.3730
12344TIP3    H258524   3.115   2.961   1.482 -1.3736 -0.7708 -1.3414
12345TIP3   OH258525   3.617   1.576  14.256 -0.0585  0.5416 -0.1803
12345TIP3    H158526   3.533   1.600  14.296 -0.3490  0.9479 -1.0193
12345TIP3    H258527   3.623   1.481  14.266 -1.8325  0.1649 -2.4198
12346TIP3   OH258528   2.309   0.141  13.362 -0.4056  0.1193  0.0510
12346TIP3    H158529   2.285   0.089  13.438  1.1738 -2.4135 -1.1426
12346TIP3    H258530   2.285   0.231  13.387 -0.8454 -0.7775  3.1166
12347TIP3   OH258531   3.516   5.321   5.186  0.4971  0.0567  0.2588
12347TIP3    H158532   3.421   5.329   5.174  0.1769 -0.8222  2.0052
12347TIP3    H258533   3.546   5.411   5.194 -0.2127  0.3397 -0.1301
12348TIP3   OH258534   0.327   5.442   6.316  0.2491  0.4633  0.0548
12348TIP3    H158535   0.347   5.363   6.366  0.3442 -0.0012 -0.6994
12348TIP3    H258536   0.295   5.504   6.381  0.0360 -0.2435  0.6364
12349TIP3   OH258537   6.418   2.851   2.871  0.5594 -0.0244  0.8852
12349TIP3    H158538   6.412   2.758   2.852  0.4219  0.2059 -0.2865
12349TIP3    H258539   6.440   2.891   2.786  0.6499  0.9949  1.3795
12350TIP3   OH258540   4.206   3.216   2.499  0.5720 -0.3404 -0.0851
12350TIP3    H158541   4.219   3.309   2.514  0.0923 -0.2403 -0.2670
12350TIP3    H258542   4.226   3.203   2.406  1.3281 -0.5493  0.1023
12351TIP3   OH258543   3.105   0.682  14.555 -0.1926  0.0895 -0.1640
12351TIP3    H158544   3.136   0.765  14.593  0.0368 -0.3753  0.6781
12351TIP3    H258545   3.081   0.629  14.631  1.3789 -1.2944 -0.6101
12352TIP3   OH258546   1.870   4.353  13.927  0.5089 -0.3630 -0.3530
12352TIP3    H158547   1.790   4.349  13.875 -0.0230  0.0385  0.4337
12352TIP3    H258548   1.914   4.270  13.911 -0.0679 -0.5824 -0.7787
12353TIP3   OH258549   6.741   6.724  12.700  0.3174  0.2295 -0.2635
12353TIP3    H158550   6.671   6.671  12.739  1.2588 -0.8121  0.0160
12353TIP3    H258551   6.721   6.724  12.606 -0.8689  1.1502 -0.0332
12354TIP3   OH258552   4.513   0.830  12.623 -0.2548 -0.1707  0.2195
12354TIP3    H158553   4.425   0.840  12.661 -2.0791 -2.2725 -3.2290
12354TIP3    H258554   4.543   0.744  12.653 -1.1699 -1.2825 -1.9902
12355TIP3   OH258555   3.610   3.650   0.354  0.2291 -0.3964 -0.4413
12355TIP3    H158556   3.658   3.589   0.410 -0.5860 -0.6952 -0.0634
12355TIP3    H258557   3.557   3.702   0.414 -0.4438 -0.5333 -0.9129
12356TIP3   OH258558   2.546   1.507   5.252 -0.0903 -0.1033  0.0063
12356TIP3    H158559   2.580   1.583   5.205  2.8743 -1.1571  0.3761
12356TIP3    H258560   2.477   1.542   5.308  0.2241  2.0613 -0.9387
12357TIP3   OH258561   6.781   6.156   6.878  0.0615 -0.2422  0.1216
12357TIP3    H158562   6.686   6.147   6.892  0.3491 -0.2755  2.0673
12357TIP3    H258563   6.819   6.154   6.965  1.7702  1.0364 -0.5660
12358TIP3   OH258564   1.050   1.567   6.734 -0.8018  0.2115 -0.1467
12358TIP3    H158565   1.136   1.536   6.763 -0.1726  2.1934  0.1978
12358TIP3    H258566   0.999   1.574   6.815 -1.3199 -0.9944 -0.3545
12359TIP3   OH258567   1.066   0.732  14.053 -0.3209  0.3465  0.3639
12359TIP3    H158568   1.075   0.824  14.077  0.6659  0.0706  1.0644
12359TIP3    H258569   1.138   0.688  14.098 -0.0330 -0.5820 -0.9666
12360TIP3   OH258570   6.514   5.616   0.953  0.5247 -0.1175 -0.4336
12360TIP3    H158571   6.531   5.542   0.894 -1.4623  0.4663 -1.8108
12360TIP3    H258572   6.593   5.669   0.949  1.1014 -1.0208 -1.1927
12361TIP3   OH258573   3.358   6.724  15.151 -0.0079  0.1045  0.6150
12361TIP3    H158574   3.361   6.703  15.244  1.0374 -1.8056  0.1755
12361TIP3    H258575   3.319   6.812  15.147  0.3773  0.3988  2.8644
12362TIP3   OH258576   4.859   3.474   0.621 -0.0643 -0.1185 -0.3871
12362TIP3    H158577   4.767   3.466   0.645  0.2589  0.1631  1.0096
12362TIP3    H258578   4.863   3.554   0.568 -0.7458 -0.5820 -1.1467
12363TIP3   OH258579   5.186   2.716  12.462 -0.7009 -0.5258 -0.1365
12363TIP3    H158580   5.212   2.808  12.455  0.3148 -0.7109  1.0488
12363TIP3    H258581   5.223   2.675  12.384 -0.2657 -0.1397 -0.1330
12364TIP3   OH258582   2.833   6.735   5.252  0.1578 -0.1911 -0.2843
12364TIP3    H158583   2.803   6.763   5.166  1.1753 -0.3180 -0.6953
12364TIP3    H258584   2.809   6.642   5.258 -0.8738  0.0944  0.0086
12365TIP3   OH258585   3.866   4.764  16.184 -0.1279  0.2734  0.2422
12365TIP3    H158586   3.920   4.842  16.200 -0.5767  0.5680  0.3548
12365TIP3    H258587   3.776   4.798  16.184 -0.2561 -0.0456 -0.9425
12366TIP3   OH258588   1.984   3.718   0.619 -0.3394 -0.0993  0.5123
12366TIP3    H158589   1.986   3.685   0.709 -0.4049 -1.3060  0.0773
12366TIP3    H258590   1.925   3.657   0.573 -0.8618  0.9178 -0.1843
12367TIP3   OH258591   4.375   4.245  16.851  0.1218  0.1551 -0.1294
12367TIP3    H158592   4.326   4.319  16.813  0.6592  0.4947 -0.1692
12367TIP3    H258593   4.444   4.228  16.788 -0.0215 -0.4074 -0.1315
12368TIP3   OH258594   3.809   3.432  14.567  0.8683 -0.4633  0.0058
12368TIP3    H158595   3.733   3.377  14.586  0.0016  1.4673  2.6071
12368TIP3    H258596   3.818   3.487  14.646  4.1089  0.3114 -0.8469
12369TIP3   OH258597   1.297   1.489  16.190 -0.4705 -0.0827  0.3939
12369TIP3    H158598   1.232   1.419  16.192  0.1400 -0.7949 -2.0564
12369TIP3    H258599   1.377   1.449  16.225 -0.8506  0.2316  1.6272
12370TIP3   OH258600   6.187   6.445  16.265  0.2243 -0.5811 -0.1860
12370TIP3    H158601   6.242   6.413  16.193 -0.4905  0.7436 -1.3352
12370TIP3    H258602   6.100   6.412  16.245 -0.3202  1.2120 -0.8567
12371TIP3   OH258603   6.480   2.740  16.974  0.1782  0.1257  0.2682
12371TIP3    H158604   6.440   2.724  17.059  0.4473 -2.3874 -0.0606
12371TIP3    H258605   6.551   2.802  16.992  0.2342 -0.3882  1.8558
12372TIP3   OH258606   3.463   3.999   3.429  0.0700  0.0702  0.4749
12372TIP3    H158607   3.448   4.022   3.338  0.5154 -2.1314 -0.1736
12372TIP3    H258608   3.482   4.083   3.472 -0.6148  1.1775 -1.3342
12373TIP3   OH258609   3.522   5.092  16.781 -0.3762  0.2624 -0.5008
12373TIP3    H158610   3.469   5.153  16.730 -0.6150 -0.7356 -1.4715
12373TIP3    H258611   3.476   5.009  16.774  1.0314 -0.5004 -0.9257
12374TIP3   OH258612   2.459   6.410   5.228 -0.3386 -0.1233  0.9540
12374TIP3    H158613   2.406   6.448   5.298 -0.7068  1.4177 -0.1322
12374TIP3    H258614   2.550   6.429   5.254 -0.5158  1.4927  0.4466
12375TIP3   OH258615   4.160   5.340  13.939 -0.2400 -0.2757  0.5244
12375TIP3    H158616   4.234   5.280  13.945  0.4587  0.2737 -1.8007
12375TIP3    H258617   4.098   5.296  13.881 -0.3951  0.5553  0.0493
12376TIP3   OH258618   4.702   2.338  13.607  0.5201  0.2412  0.0465
12376TIP3    H158619   4.768   2.367  13.544 -0.0322 -1.2457 -1.2414
12376TIP3    H258620   4.688   2.414  13.664  1.1162  1.5702 -1.5469
12377TIP3   OH258621   5.897   2.843  16.378  0.0542 -0.0799  0.2612
12377TIP3    H158622   5.956   2.892  16.320 -0.7780  0.8823  0.2248
12377TIP3    H258623   5.823   2.819  16.322  0.3414 -1.1709  0.3441
12378TIP3   OH258624   4.738   2.197  11.112 -0.0132 -0.2204  0.2601
12378TIP3    H158625   4.703   2.208  11.024 -2.8947  1.3621  1.5476
12378TIP3    H258626   4.756   2.286  11.142 -0.6959 -0.6127  1.9023
12379TIP3   OH258627   0.089   3.615  12.205  0.3834  0.0900  0.1612
12379TIP3    H158628   0.166   3.607  12.260 -1.3783  2.7403  3.2371
12379TIP3    H258629   0.029   3.547  12.237  0.7682 -0.8148 -1.0292
12380TIP3   OH258630   4.199   1.077   2.379  0.2679  0.1776  0.0493
12380TIP3    H158631   4.268   1.127   2.424 -2.1588  2.2177  1.6685
12380TIP3    H258632   4.169   1.135   2.309 -1.3774  0.2974  0.8360
12381TIP3   OH258633   0.359   3.813  12.823 -0.2581 -0.0993 -0.0539
12381TIP3    H158634   0.360   3.908  12.822 -1.0003 -0.0939 -1.6719
12381TIP3    H258635   0.413   3.789  12.898  0.1492  1.5879  0.2053
12382TIP3   OH258636   2.920   3.690   1.883 -0.3261 -0.4006  0.2474
12382TIP3    H158637   2.828   3.681   1.856 -0.0373 -0.7551 -0.6368
12382TIP3    H258638   2.921   3.659   1.973 -1.1064 -0.2349  0.3225
12383TIP3   OH258639   2.155   5.855  13.306 -0.2046  0.1666  0.8438
12383TIP3    H158640   2.076   5.875  13.257  0.6421  1.4129 -0.0321
12383TIP3    H258641   2.178   5.937  13.349  1.1234  0.0612  0.3511
12384TIP3   OH258642   3.549   1.264   2.729  0.5799 -0.0907  0.0800
12384TIP3    H158643   3.461   1.235   2.755  0.5122 -0.8453 -0.9232
12384TIP3    H258644   3.538   1.356   2.704 -0.1503 -0.4698 -1.0357
12385TIP3   OH258645   5.040   6.233   2.812 -0.3407  0.2079  0.4730
12385TIP3    H158646   5.115   6.223   2.754 -1.5187  1.2606 -1.2807
12385TIP3    H258647   5.066   6.189   2.893  2.0542  0.3434 -0.1857
12386TIP3   OH258648   3.622   4.435  15.198 -0.0053 -0.4287  0.3726
12386TIP3    H158649   3.612   4.487  15.278  1.1635 -0.6888  0.6999
12386TIP3    H258650   3.542   4.382  15.194 -1.6590  2.0579 -0.4878
12387TIP3   OH258651   3.995   1.225   6.060  0.3208  0.0219 -0.1081
12387TIP3    H158652   3.940   1.301   6.078  0.0721 -0.6049  1.8356
12387TIP3    H258653   3.977   1.165   6.132  0.7799 -1.7372 -1.4513
12388TIP3   OH258654   4.365   2.817  15.791 -0.6812  0.7181  0.0732
12388TIP3    H158655   4.438   2.813  15.853 -0.9249  2.4009  0.4837
12388TIP3    H258656   4.287   2.796  15.844 -0.9504  2.6450  0.4579
12389TIP3   OH258657   4.159   3.096  13.003 -0.2175  0.1220  0.2439
12389TIP3    H158658   4.153   3.050  12.919  0.8469 -1.6725  1.1011
12389TIP3    H258659   4.238   3.149  12.996  0.0044 -0.2129  0.1909
12390TIP3   OH258660   6.174   3.405   5.982  0.9546  0.2912  0.1828
12390TIP3    H158661   6.247   3.381   5.924 -0.3884 -2.9078 -0.2802
12390TIP3    H258662   6.179   3.342   6.054 -2.9581 -1.8539 -1.2680
12391TIP3   OH258663   0.292   0.628  15.709  0.3712  0.1369  0.2720
12391TIP3    H158664   0.227   0.601  15.644  1.3531 -0.8491 -0.3158
12391TIP3    H258665   0.278   0.568  15.783  1.7030 -1.2178 -0.5272
12392TIP3   OH258666   4.913   4.610  11.641 -1.1254  0.2955  0.1618
12392TIP3    H158667   4.910   4.697  11.601  0.4950  1.3663  2.2578
12392TIP3    H258668   5.001   4.577  11.619  0.3115  1.4514  3.8290
12393TIP3   OH258669   0.597   5.960  16.977  0.4143 -0.2400 -0.0918
12393TIP3    H158670   0.585   6.054  16.993 -0.4539 -0.4458  0.4522
12393TIP3    H258671   0.687   5.943  17.004  0.1984  0.1938  0.8982
12394TIP3   OH258672   0.864   0.639   6.005 -0.0525  0.0423 -0.5587
12394TIP3    H158673   0.849   0.640   5.910 -1.2469 -0.7898 -0.3871
12394TIP3    H258674   0.951   0.600   6.015 -0.2960 -0.7155 -1.2816
12395TIP3   OH258675   4.372   1.273   0.944  0.0757  0.3174 -0.2542
12395TIP3    H158676   4.353   1.264   1.037  0.9042 -0.2582 -0.1468
12395TIP3    H258677   4.427   1.351   0.938 -0.2912  0.5749 -0.3058
12396TIP3   OH258678   6.579   5.858  15.830 -0.6896  0.6490 -0.4187
12396TIP3    H158679   6.663   5.815  15.849 -0.5193  0.0464 -2.4253
12396TIP3    H258680   6.514   5.789  15.842 -0.7164  0.6236 -0.7195
12397TIP3   OH258681   2.014   3.782  13.408 -0.1991  0.1511 -0.1321
12397TIP3    H158682   1.992   3.803  13.499 -1.4891 -1.2964 -0.0741
12397TIP3    H258683   2.090   3.724  13.415 -0.8343 -0.6644  0.0831
12398TIP3   OH258684   4.804   1.248  11.534 -0.3017 -0.1952  0.7440
12398TIP3    H158685   4.805   1.325  11.478 -0.1235  0.4075  1.5752
12398TIP3    H258686   4.893   1.212  11.526 -0.7225 -0.9755 -0.5424
12399TIP3   OH258687   3.424   6.152  14.135  0.3382 -0.2565 -0.6861
12399TIP3    H158688   3.335   6.180  14.113  0.2873 -1.0341 -1.5109
12399TIP3    H258689   3.481   6.215  14.090  0.1995  0.2778 -0.1071
12400TIP3   OH258690   2.982   5.253  12.255  0.0284 -0.5027 -0.2155
12400TIP3    H158691   3.011   5.228  12.343 -0.5803  0.3906  0.2495
12400TIP3    H258692   2.949   5.342  12.266 -0.8320 -0.7027 -1.1850
12401TIP3   OH258693   1.076   2.276   4.564 -0.1412  0.2223  0.3359
12401TIP3    H158694   1.128   2.207   4.523 -0.1654  0.1842  0.3678
12401TIP3    H258695   0.985   2.255   4.539  0.0165  1.3008 -1.1927
12402TIP3   OH258696   3.597   2.397   4.221  0.1617  0.5440 -0.0062
12402TIP3    H158697   3.591   2.357   4.308 -0.4006  0.7456  0.0527
12402TIP3    H258698   3.557   2.483   4.232 -0.5611  0.2921 -0.6361
12403TIP3   OH258699   5.895   1.852  17.067 -0.3726  0.0630  0.1517
12403TIP3    H158700   5.816   1.874  17.117 -1.3076  0.8675 -1.6611
12403TIP3    H258701   5.936   1.937  17.049  1.1970 -0.3757  1.5089
12404TIP3   OH258702   3.384   3.610   6.293 -0.2114 -0.3221  0.3645
12404TIP3    H158703   3.292   3.607   6.321 -0.3474 -1.6374 -0.2252
12404TIP3    H258704   3.432   3.573   6.367 -0.0995  0.8296  0.8793
12405TIP3   OH258705   2.955   3.836  11.394 -0.0210 -1.0608  0.0580
12405TIP3    H158706   2.958   3.753  11.441  1.8752 -0.5603  0.8913
12405TIP3    H258707   2.863   3.849  11.374 -0.5068 -2.7120  1.0873
12406TIP3   OH258708   0.975   4.911   5.320  0.1112  0.0513  0.0911
12406TIP3    H158709   0.899   4.860   5.291 -1.3556  2.3574 -0.2814
12406TIP3    H258710   1.011   4.948   5.240  0.2378  0.8253  0.5005
12407TIP3   OH258711   4.020   0.207   0.529 -0.5928  0.0119  0.3874
12407TIP3    H158712   4.058   0.128   0.568  1.2769  0.7788  0.1658
12407TIP3    H258713   3.945   0.227   0.585  0.4994 -0.4083  2.0549
12408TIP3   OH258714   1.998   5.261   3.427  0.1912 -0.2332 -0.2015
12408TIP3    H158715   1.923   5.221   3.383  0.7261 -1.5466  0.0618
12408TIP3    H258716   2.045   5.188   3.466  0.6929  0.7458  1.0752
12409TIP3   OH258717   3.696   4.412  12.077 -0.7110 -0.0779 -0.3256
12409TIP3    H158718   3.780   4.403  12.121 -0.9691 -2.5937 -0.2925
12409TIP3    H258719   3.719   4.440  11.988  0.0616  0.4243  0.0235
12410TIP3   OH258720   2.550   6.473   2.335  0.3384  0.3445 -0.2064
12410TIP3    H158721   2.519   6.524   2.260  1.2841  0.1618 -0.7347
12410TIP3    H258722   2.583   6.392   2.296  0.5752  0.1271  0.4385
12411TIP3   OH258723   4.197   5.538   0.842  0.2642  0.0058  0.3070
12411TIP3    H158724   4.162   5.582   0.764  0.9984 -0.8747 -0.5418
12411TIP3    H258725   4.163   5.588   0.916  0.5364  1.5950 -0.6193
12412TIP3   OH258726   0.849   4.274  17.248  0.1070  0.0414  0.0852
12412TIP3    H158727   0.907   4.331  17.199 -0.1958 -1.0071 -1.5146
12412TIP3    H258728   0.876   4.185  17.224 -0.6764 -0.4843  1.0760
12413TIP3   OH258729   1.663   6.526   5.733 -0.0709  0.9330 -0.0094
12413TIP3    H158730   1.719   6.467   5.683  1.1661  1.6196  0.5395
12413TIP3    H258731   1.586   6.540   5.677 -0.1309 -0.7451 -0.3761
12414TIP3   OH258732   5.867   5.460  10.818  0.3327 -0.2149  0.0576
12414TIP3    H158733   5.816   5.399  10.764 -1.2126  2.7330 -1.9657
12414TIP3    H258734   5.958   5.439  10.797 -0.2121 -0.5396 -2.1286
12415TIP3   OH258735   3.695   4.504   2.990 -0.5047 -0.1854  0.1013
12415TIP3    H158736   3.622   4.555   3.024 -0.0388 -0.3172  1.3300
12415TIP3    H258737   3.654   4.436   2.937 -1.3114 -0.7115  1.3886
12416TIP3   OH258738   4.754   6.788  11.730 -1.1660 -0.4383 -0.6074
12416TIP3    H158739   4.841   6.749  11.726  0.4869  2.9300  0.6748
12416TIP3    H258740   4.723   6.768  11.819 -1.3999 -0.9726 -0.8059
12417TIP3   OH258741   4.572   3.973  13.630 -0.3249  0.0088 -0.5540
12417TIP3    H158742   4.510   3.947  13.698  0.5420  3.2239  1.5836
12417TIP3    H258743   4.517   4.001  13.556 -1.3596  0.2071  0.2822
12418TIP3   OH258744   3.711   3.612  12.046  0.0491 -0.1198 -0.4103
12418TIP3    H158745   3.742   3.541  12.102  0.6193  0.1337 -0.3983
12418TIP3    H258746   3.627   3.636  12.083  0.5954  0.3103  0.5804
12419TIP3   OH258747   1.625   5.339   5.118  0.3276  0.5150  0.3224
12419TIP3    H158748   1.530   5.350   5.119  0.3875  1.0761  0.3878
12419TIP3    H258749   1.647   5.310   5.206  0.1289 -0.4093  0.0649
12420TIP3   OH258750   6.390   3.621  13.975  0.0508  0.2566  0.0101
12420TIP3    H158751   6.460   3.634  13.912  0.9307  2.5878  1.3828
12420TIP3    H258752   6.414   3.541  14.022  0.7789 -0.0192 -0.8252
12421TIP3   OH258753   4.582   2.427   3.705 -0.5286 -0.3008 -0.2315
12421TIP3    H158754   4.548   2.341   3.680 -1.4671 -0.1839  0.6233
12421TIP3    H258755   4.507   2.486   3.695 -0.8082 -0.1569  2.3080
12422TIP3   OH258756   0.967   1.788   5.229  0.1727  0.4840  0.5321
12422TIP3    H158757   0.967   1.761   5.321 -2.9613  0.7279  0.6420
12422TIP3    H258758   0.953   1.707   5.180 -2.2964  0.9179  0.4978
12423TIP3   OH258759   6.690   2.621  10.403 -0.1990 -0.0240 -0.1840
12423TIP3    H158760   6.624   2.657  10.344 -0.3131 -0.4228 -0.3077
12423TIP3    H258761   6.640   2.585  10.476 -0.0989 -0.0725 -0.1386
12424TIP3   OH258762   6.462   5.496  11.417  0.2174  0.1364  0.5776
12424TIP3    H158763   6.429   5.409  11.437 -1.1280  0.1294 -1.4471
12424TIP3    H258764   6.553   5.483  11.393 -0.2455 -0.9057 -0.7059
12425TIP3   OH258765   0.174   5.863   3.214 -0.1820 -0.9266 -0.2819
12425TIP3    H158766   0.134   5.818   3.289  1.3412 -0.2845  0.9458
12425TIP3    H258767   0.265   5.833   3.214  0.1979  0.2072 -0.9835
12426TIP3   OH258768   3.470   0.723   0.999  0.1948 -0.0863  0.1457
12426TIP3    H158769   3.560   0.698   0.977  0.3414  1.0044 -0.5422
12426TIP3    H258770   3.468   0.725   1.094  1.3403  1.4209  0.1603
12427TIP3   OH258771   0.849   5.921   6.881  0.1652 -0.3829 -0.2308
12427TIP3    H158772   0.862   6.008   6.844  0.7464 -0.9887 -1.4559
12427TIP3    H258773   0.756   5.903   6.869  0.2447 -0.3450 -0.9029
12428TIP3   OH258774   2.637   2.794   4.735  0.1651 -0.6906  0.4051
12428TIP3    H158775   2.618   2.886   4.754 -0.0642 -0.4712 -0.8000
12428TIP3    H258776   2.654   2.754   4.820 -0.3900  0.3216  0.9964
12429TIP3   OH258777   0.865   2.484  10.457  0.0268 -0.5137  0.1351
12429TIP3    H158778   0.786   2.430  10.461 -0.5444  0.4055  2.1660
12429TIP3    H258779   0.834   2.568  10.425  0.5641 -0.7747 -1.0871
12430TIP3   OH258780   6.595   3.537  11.558 -0.0589 -0.1321 -0.4728
12430TIP3    H158781   6.509   3.576  11.573 -0.3494 -0.8105 -0.3335
12430TIP3    H258782   6.639   3.597  11.498 -0.4272  0.4964 -0.1157
12431TIP3   OH258783   5.906   2.488  11.993  0.0168 -0.3107 -0.1486
12431TIP3    H158784   5.975   2.503  11.928  0.9096 -1.4671  0.4998
12431TIP3    H258785   5.865   2.573  12.005  1.2839  0.3812 -0.6102
12432TIP3   OH258786   5.626   5.357   1.110 -0.1108 -0.4295 -0.0637
12432TIP3    H158787   5.611   5.270   1.147  0.9023 -0.3873  0.4714
12432TIP3    H258788   5.667   5.406   1.181 -0.0547  0.2818 -0.5811
12433TIP3   OH258789   2.910   6.505   1.189  0.7354 -0.2803  0.0639
12433TIP3    H158790   2.879   6.519   1.278 -1.7390 -0.8533 -0.6919
12433TIP3    H258791   2.895   6.589   1.145  1.0313 -0.3065 -0.0924
12434TIP3   OH258792   6.071   0.020   5.335  0.0429 -0.3566  0.1550
12434TIP3    H158793   6.128   0.002   5.260 -0.5914 -0.1707 -0.3792
12434TIP3    H258794   6.084  -0.055   5.393 -0.0133 -0.8721 -0.4852
12435TIP3   OH258795   6.419   0.437   5.735  0.2520  0.7889 -0.3099
12435TIP3    H158796   6.372   0.390   5.666 -0.1897  1.0264 -0.1716
12435TIP3    H258797   6.484   0.490   5.689  0.0049  0.8928 -0.5393
12436TIP3   OH258798   1.791   4.462  14.572  0.3168  0.3946 -0.3340
12436TIP3    H158799   1.838   4.521  14.630 -1.0031  1.6195 -0.4559
12436TIP3    H258800   1.773   4.515  14.494  0.2164 -0.5701 -0.9823
12437TIP3   OH258801   5.779   0.262  10.940 -0.2425  0.2794 -0.0325
12437TIP3    H158802   5.691   0.292  10.963 -0.1368 -0.0659  0.8431
12437TIP3    H258803   5.785   0.274  10.845 -1.6814 -0.9086 -0.2706
12438TIP3   OH258804   5.977   4.942   1.983 -0.5656 -0.0486 -0.5834
12438TIP3    H158805   5.924   5.021   1.978 -2.0238 -1.0107 -0.9798
12438TIP3    H258806   6.033   4.954   2.060 -1.7858  0.7621  0.1876
12439TIP3   OH258807   3.642   2.676   5.492 -0.3467 -0.2245  0.6193
12439TIP3    H158808   3.586   2.657   5.416 -1.3210  1.4707  0.8841
12439TIP3    H258809   3.595   2.638   5.566 -1.3132  1.3915  0.8729
12440TIP3   OH258810   5.254   5.901  12.132 -0.0214  0.0095 -0.6811
12440TIP3    H158811   5.306   5.849  12.070 -0.2126 -0.0557 -0.7896
12440TIP3    H258812   5.181   5.843  12.156 -0.8280  0.6010 -1.6225
12441TIP3   OH258813   5.379   3.149  16.192  0.5796  0.1219  0.1575
12441TIP3    H158814   5.373   3.053  16.199  0.0275 -0.0448 -2.2599
12441TIP3    H258815   5.473   3.167  16.201  0.7187 -0.6539  0.3626
12442TIP3   OH258816   3.529   4.883   3.722  0.1749 -0.0535 -0.0300
12442TIP3    H158817   3.440   4.849   3.730 -0.5381  1.3077 -1.7831
12442TIP3    H258818   3.569   4.831   3.652  0.2315  0.3978 -0.3364
12443TIP3   OH258819   6.118   5.206   3.506 -0.1204 -0.9781  0.4932
12443TIP3    H158820   6.123   5.289   3.555  0.9505 -1.4352  1.1891
12443TIP3    H258821   6.025   5.182   3.510 -0.6763  0.8313 -0.8263
12444TIP3   OH258822   1.196   3.489  14.755 -0.0436  0.1016 -0.2221
12444TIP3    H158823   1.238   3.575  14.751  0.3510 -0.1199 -0.8761
12444TIP3    H258824   1.232   3.441  14.680  0.1588 -0.8235  0.4580
12445TIP3   OH258825   4.070   3.384   3.629 -0.5412  0.3578 -0.0485
12445TIP3    H158826   4.105   3.315   3.685  0.7178 -0.6637 -2.0404
12445TIP3    H258827   4.119   3.462   3.654  1.7818 -0.6242 -1.3861
12446TIP3   OH258828   5.288   4.308   3.526  0.3287  0.2768 -0.3258
12446TIP3    H158829   5.228   4.367   3.572  0.1120  0.2197 -0.5320
12446TIP3    H258830   5.367   4.308   3.580 -0.1339 -0.2531  0.3641
12447TIP3   OH258831   3.362   0.187   3.216  0.2836  0.1552  0.1307
12447TIP3    H158832   3.456   0.169   3.210  0.7381  1.9570  1.3317
12447TIP3    H258833   3.343   0.183   3.310 -0.4927  1.5359  0.0392
12448TIP3   OH258834   0.969   4.191   2.139 -0.3926  0.4874  0.3127
12448TIP3    H158835   0.966   4.163   2.230 -0.4326 -0.4983  0.0156
12448TIP3    H258836   1.017   4.274   2.140  1.3500 -0.5101  0.9811
12449TIP3   OH258837   3.641   6.020   4.031  1.0551 -0.4732  0.3733
12449TIP3    H158838   3.619   5.929   4.052  1.6775 -0.6563  0.2635
12449TIP3    H258839   3.614   6.030   3.940 -0.9773  0.1043  1.0195
12450TIP3   OH258840   0.003   4.965   6.099  0.4354 -0.7495  0.4318
12450TIP3    H158841  -0.050   4.887   6.083  0.5208 -0.4682 -1.3727
12450TIP3    H258842  -0.058   5.038   6.087  0.8558 -0.4753 -0.0650
12451TIP3   OH258843   5.121   1.279  16.450 -0.4024  0.5014 -0.4958
12451TIP3    H158844   5.073   1.328  16.383 -0.7193 -0.0824 -0.7012
12451TIP3    H258845   5.167   1.211  16.401 -2.1556 -1.1422  0.0549
12452TIP3   OH258846   0.538   4.604  13.068 -0.7314  0.3776  0.7015
12452TIP3    H158847   0.503   4.597  12.980 -1.7951  2.9807  0.8888
12452TIP3    H258848   0.504   4.526  13.114  0.2546 -1.2633 -1.2688
12453TIP3   OH258849   0.643   4.536  10.833 -0.0890 -0.0893  0.3157
12453TIP3    H158850   0.729   4.537  10.874 -0.2127  1.1829  0.5744
12453TIP3    H258851   0.662   4.539  10.739  0.1523 -0.2748  0.3567
12454TIP3   OH258852   2.811   4.289   4.713 -0.3851  0.5410 -0.4389
12454TIP3    H158853   2.741   4.328   4.765 -1.6054  0.3172 -1.8721
12454TIP3    H258854   2.864   4.241   4.777 -1.0449  1.4167  0.7900
12455TIP3   OH258855   6.064   1.415  16.309  0.1914 -0.1222  0.1523
12455TIP3    H158856   5.995   1.385  16.251 -0.0052  0.4843  0.0621
12455TIP3    H258857   6.073   1.347  16.375 -0.5922 -0.1348  0.2440
12456TIP3   OH258858   1.303   3.860   1.935  0.3430  0.1147 -0.1178
12456TIP3    H158859   1.330   3.907   1.856  0.8254 -1.1157 -0.6968
12456TIP3    H258860   1.219   3.820   1.911  0.4231 -0.1467  0.0403
12457TIP3   OH258861   1.167   6.019   4.947  0.0689 -0.2848 -0.1593
12457TIP3    H158862   1.135   5.929   4.955  0.6609 -0.6151 -1.3749
12457TIP3    H258863   1.113   6.069   5.008 -0.4943 -1.4064  0.2768
12458TIP3   OH258864   1.171   2.048   1.456  0.3948 -0.3659 -0.0896
12458TIP3    H158865   1.232   2.070   1.526 -0.7518  2.3224  0.0987
12458TIP3    H258866   1.227   2.026   1.382  1.6030 -0.2317  0.7705
12459TIP3   OH258867   6.224   6.170   2.451  0.1639 -0.0056  0.5336
12459TIP3    H158868   6.131   6.154   2.436  0.0449  1.3191 -0.2217
12459TIP3    H258869   6.267   6.089   2.424 -0.6478 -0.1258 -0.4323
12460TIP3   OH258870   4.619   3.839  13.952 -0.0572 -0.0203  0.1813
12460TIP3    H158871   4.537   3.873  13.918 -0.3637  0.9788  1.8727
12460TIP3    H258872   4.684   3.906  13.928  0.2114 -0.6106 -0.7865
12461TIP3   OH258873   4.971   5.232  16.847 -0.4831 -0.4793  0.5649
12461TIP3    H158874   5.017   5.239  16.930 -0.0163 -0.6913  0.3326
12461TIP3    H258875   5.022   5.287  16.787  1.8969 -3.8751 -0.7017
12462TIP3   OH258876   6.299   2.302  15.150  0.1573 -0.7215  0.2529
12462TIP3    H158877   6.355   2.377  15.168  1.5024 -2.0466  1.7794
12462TIP3    H258878   6.316   2.280  15.059  0.2780  0.3791  0.0015
12463TIP3   OH258879   0.988   4.889   3.679  0.0084 -0.1223  0.1497
12463TIP3    H158880   1.067   4.883   3.624  0.0210 -1.0215  0.2612
12463TIP3    H258881   0.947   4.803   3.671 -0.8351  0.2628  0.2934
12464TIP3   OH258882   1.374   4.125   2.713 -0.1404  0.1635  0.4837
12464TIP3    H158883   1.384   4.174   2.795 -0.1181 -0.3291  0.7787
12464TIP3    H258884   1.352   4.036   2.741  0.1925 -0.0864 -0.0414
12465TIP3   OH258885   5.461   4.886   1.052 -0.4972 -0.3619 -0.1381
12465TIP3    H158886   5.372   4.867   1.085 -0.6040 -1.3457 -0.9808
12465TIP3    H258887   5.478   4.817   0.988  1.0428 -0.4068  0.3102
12466TIP3   OH258888   1.449   2.304   1.667  0.0923  0.6703  0.0879
12466TIP3    H158889   1.426   2.378   1.611  0.0991  0.2306 -0.5067
12466TIP3    H258890   1.544   2.294   1.656  0.3362  1.4692  1.2890
12467TIP3   OH258891   1.892   5.891  13.197 -0.6324  0.5618 -0.3317
12467TIP3    H158892   1.864   5.902  13.288  0.1157  0.6807 -0.1167
12467TIP3    H258893   1.813   5.911  13.146 -1.1537  0.1582  0.2957
12468TIP3   OH258894   1.461   3.794   2.696  0.0029  0.1952  0.1878
12468TIP3    H158895   1.498   3.839   2.772  0.7237 -1.3624  0.8016
12468TIP3    H258896   1.414   3.720   2.734 -0.7224  0.1365 -0.8182
12469TIP3   OH258897   2.214   3.906   5.872 -0.0520 -0.0748 -0.0487
12469TIP3    H158898   2.185   3.920   5.963 -0.4937  0.3643 -0.2524
12469TIP3    H258899   2.262   3.823   5.875 -0.3599 -0.2411  0.5242
12470TIP3   OH258900   2.822   1.812   0.801 -0.3070  0.1303  0.1536
12470TIP3    H158901   2.770   1.772   0.871 -0.2417  0.3992  0.3524
12470TIP3    H258902   2.884   1.869   0.846  0.5310 -0.6150 -0.0493
12471TIP3   OH258903   4.119   2.669  16.397  0.1675  0.3295  0.2338
12471TIP3    H158904   4.185   2.651  16.330 -0.2563  1.5057 -0.5327
12471TIP3    H258905   4.152   2.748  16.441  0.3904 -0.3837  1.3434
12472TIP3   OH258906   5.083   3.284  13.928 -0.5044  0.3089 -0.4753
12472TIP3    H158907   5.006   3.321  13.971 -0.1902  1.2148 -0.6625
12472TIP3    H258908   5.092   3.196  13.963  0.1680  1.2797  1.8768
12473TIP3   OH258909   4.920   1.305  13.844 -0.0643 -0.2847  0.0553
12473TIP3    H158910   4.995   1.359  13.865 -1.2017  1.2673  0.1869
12473TIP3    H258911   4.901   1.257  13.925  1.2550 -1.2909 -0.2138
12474TIP3   OH258912   2.450   0.605   5.298  0.0575  0.4134  0.0802
12474TIP3    H158913   2.388   0.533   5.315 -1.5624  1.5755 -0.7660
12474TIP3    H258914   2.435   0.666   5.370 -0.2496  1.0062 -0.4830
12475TIP3   OH258915   5.290   4.930  15.292 -0.3317 -0.0591 -0.3609
12475TIP3    H158916   5.305   5.016  15.253  0.4486  0.8635  1.9078
12475TIP3    H258917   5.360   4.875  15.258 -1.0011  0.1025 -2.0492
12476TIP3   OH258918   6.584   5.327  12.015 -0.2994  0.9274  0.1725
12476TIP3    H158919   6.619   5.336  11.927  1.4032 -1.0051  0.6111
12476TIP3    H258920   6.514   5.262  12.006  0.8205 -0.3400  0.4654
12477TIP3   OH258921   0.713   4.624   3.392 -0.0668  0.0288  0.0891
12477TIP3    H158922   0.799   4.593   3.366 -0.1826 -0.2320  0.0106
12477TIP3    H258923   0.718   4.720   3.385  0.3531  0.0375  0.5284
12478TIP3   OH258924   0.950   0.769   2.652  0.3419 -0.0262 -0.1448
12478TIP3    H158925   0.927   0.771   2.745  2.3075  0.9450  0.3669
12478TIP3    H258926   1.044   0.789   2.651  1.0075 -2.9419 -2.1509
12479TIP3   OH258927   4.922   0.735  12.734 -0.3325 -0.1079 -0.2098
12479TIP3    H158928   4.999   0.786  12.708  0.3360 -0.4738  0.9889
12479TIP3    H258929   4.919   0.662  12.671  1.0047 -0.7493  0.4441
12480TIP3   OH258930   5.888   4.653   1.996 -0.7892  0.7012 -0.4466
12480TIP3    H158931   5.804   4.641   2.040 -1.4556  3.1306 -0.9949
12480TIP3    H258932   5.901   4.747   1.995  0.8641  0.4799 -2.3944
12481TIP3   OH258933   6.449   2.344   3.277  0.0799  0.0565  0.0868
12481TIP3    H158934   6.479   2.261   3.313 -0.2070  0.7910  2.0905
12481TIP3    H258935   6.446   2.330   3.183 -0.0932 -2.2449  0.4102
12482TIP3   OH258936   1.322   5.492   3.953  0.5678  0.4246  0.2998
12482TIP3    H158937   1.397   5.463   3.901  1.7216  1.8384  1.1481
12482TIP3    H258938   1.247   5.451   3.911  1.8285 -1.2348 -0.4149
12483TIP3   OH258939   3.764   3.691  15.590 -0.4899 -0.3192 -0.5780
12483TIP3    H158940   3.740   3.758  15.654 -0.3947  0.3105 -1.1949
12483TIP3    H258941   3.840   3.647  15.629 -1.4932 -1.0967  0.5314
12484TIP3   OH258942   4.594   2.034   4.343  0.5200  0.5713 -0.0715
12484TIP3    H158943   4.674   2.001   4.304 -0.3026 -0.1447 -1.1714
12484TIP3    H258944   4.532   2.040   4.271 -0.7132  0.1818  0.9358
12485TIP3   OH258945   3.339   5.935  15.935 -0.4309 -0.1442 -0.2301
12485TIP3    H158946   3.354   5.943  15.841 -0.5408  0.3700 -0.2031
12485TIP3    H258947   3.412   5.882  15.967  0.3821  0.8565 -0.3857
12486TIP3   OH258948   3.426   2.086  16.488 -0.1730 -0.0568 -0.2591
12486TIP3    H158949   3.495   2.115  16.549 -0.5697  0.9876 -0.3076
12486TIP3    H258950   3.413   2.160  16.430 -3.4679  0.9131  1.6203
12487TIP3   OH258951   2.149   2.945   3.974 -0.3942 -0.1677  0.9287
12487TIP3    H158952   2.227   2.978   3.929 -0.8857 -0.0365  0.1695
12487TIP3    H258953   2.113   3.023   4.017 -0.1996 -0.1985  1.1527
12488TIP3   OH258954   0.746   1.953   3.694  0.9841 -0.0649  0.2844
12488TIP3    H158955   0.755   1.865   3.658 -0.2909  0.3143 -0.9787
12488TIP3    H258956   0.664   1.986   3.657  1.0750  1.3796  1.3345
12489TIP3   OH258957   3.295   4.755  14.761 -0.5318  0.3291  0.2116
12489TIP3    H158958   3.255   4.693  14.700  0.5045 -0.4298  0.2811
12489TIP3    H258959   3.226   4.817  14.782 -0.5683  1.3139 -2.6867
12490TIP3   OH258960   4.098   2.952   2.521 -0.3962 -0.0078  0.7448
12490TIP3    H158961   4.145   3.027   2.558 -0.5587 -0.5093  1.9899
12490TIP3    H258962   4.106   2.884   2.588  2.1459 -2.0407 -1.5460
12491TIP3   OH258963   6.552   3.309   4.684 -0.1422  0.1549 -0.2724
12491TIP3    H158964   6.585   3.294   4.773 -0.8584 -2.6024 -0.4187
12491TIP3    H258965   6.630   3.318   4.630  0.3132 -0.0176  0.3597
12492TIP3   OH258966   5.024   2.913  11.051 -1.0980 -0.2962 -0.1419
12492TIP3    H158967   5.037   2.883  11.141 -1.8489 -1.6838 -0.4825
12492TIP3    H258968   5.109   2.947  11.025 -0.4312 -1.3983  0.5400
12493TIP3   OH258969   3.796   4.978  13.182 -0.4359 -0.1880 -0.7934
12493TIP3    H158970   3.868   4.918  13.164  0.1392  0.6548 -1.3653
12493TIP3    H258971   3.834   5.045  13.239 -1.1545 -0.5399  0.1009
12494TIP3   OH258972   0.402   0.760  11.146  0.2706 -0.0073 -0.1862
12494TIP3    H158973   0.488   0.800  11.132 -0.3003  1.5236  0.5643
12494TIP3    H258974   0.357   0.821  11.205 -1.2611 -0.8838 -0.4311
12495TIP3   OH258975   0.541   3.045  11.416  0.1471 -0.1370 -0.2158
12495TIP3    H158976   0.471   3.050  11.482  0.4798 -1.8784  0.2853
12495TIP3    H258977   0.495   3.026  11.334  0.0040 -0.9642  0.0548
12496TIP3   OH258978   4.395   5.739  16.220 -0.6581  0.3318  0.1025
12496TIP3    H158979   4.411   5.778  16.134 -1.1432 -0.4850 -0.3695
12496TIP3    H258980   4.391   5.813  16.280 -1.2217  0.9817 -0.7270
12497TIP3   OH258981   3.621   0.183   5.016  0.6699  0.0742  0.2650
12497TIP3    H158982   3.571   0.207   5.095  3.5513 -0.2609  2.2730
12497TIP3    H258983   3.632   0.088   5.024 -1.3307 -0.4035 -2.0148
12498TIP3   OH258984   6.590   2.462   5.807 -0.0941  1.0503  0.4191
12498TIP3    H158985   6.553   2.543   5.843  1.6056  1.8209  0.4969
12498TIP3    H258986   6.684   2.468   5.827  0.5031  0.3942 -2.0437
12499TIP3   OH258987   0.308   0.413   0.060  0.1527 -0.3189 -0.6216
12499TIP3    H158988   0.306   0.320   0.035 -0.9666 -0.5937  0.4672
12499TIP3    H258989   0.309   0.412   0.155  0.0010  0.8002 -0.6022
12500TIP3   OH258990   2.987   6.327  15.376  0.0572  0.5795  0.0065
12500TIP3    H158991   3.001   6.346  15.468  0.4750  0.3359 -0.0088
12500TIP3    H258992   3.047   6.385  15.329 -0.5514  1.1047 -0.1377
12501TIP3   OH258993   4.250   5.167  10.770 -0.3450  0.2946  0.6109
12501TIP3    H158994   4.304   5.240  10.742  0.0688 -0.2223  0.0400
12501TIP3    H258995   4.177   5.166  10.708 -0.1256 -0.0331  0.3540
12502TIP3   OH258996   2.632   5.536   5.764 -0.2087 -0.1996  0.3381
12502TIP3    H158997   2.579   5.562   5.689  0.4636  0.9872  0.2639
12502TIP3    H258998   2.694   5.608   5.776  1.5626 -1.6725  0.2587
12503TIP3   OH258999   0.790   4.007   5.100  0.2912  0.0150  0.4036
12503TIP3    H159000   0.708   3.997   5.052 -0.2178 -1.7107  1.5823
12503TIP3    H259001   0.816   4.098   5.084 -0.5109 -0.1507 -2.0585
12504TIP3   OH259002   5.217   0.862  17.189  0.1030  0.3621  0.6100
12504TIP3    H159003   5.248   0.875  17.279  1.4531 -1.0069  0.3816
12504TIP3    H259004   5.286   0.898  17.134 -1.0198  1.7866  0.1149
12505TIP3   OH259005   3.087   2.080  12.861  0.3530 -0.0065  0.0090
12505TIP3    H159006   3.049   2.019  12.798 -0.2571 -0.2288  0.5946
12505TIP3    H259007   3.176   2.046  12.876  0.2453 -0.3710 -0.1670
12506TIP3   OH259008   6.129   3.196   4.903 -0.1536 -0.7617  0.7109
12506TIP3    H159009   6.161   3.230   4.819  0.3945  0.6847  1.4844
12506TIP3    H259010   6.182   3.118   4.919  0.0552 -0.7825 -0.0706
12507TIP3   OH259011   2.044   5.521   1.296 -0.1898 -0.1066 -0.3305
12507TIP3    H159012   1.994   5.602   1.305  2.3476  1.4984 -0.0233
12507TIP3    H259013   2.049   5.486   1.385 -1.0111 -0.4190 -0.4093
12508TIP3   OH259014   1.043   4.105   4.437  0.7813 -0.0167  0.4231
12508TIP3    H159015   1.105   4.171   4.469  1.0127 -0.3581  0.6810
12508TIP3    H259016   0.968   4.156   4.406  1.3602  0.4295 -0.2861
12509TIP3   OH259017   5.422   0.233   5.435  0.3080 -0.3122  0.5023
12509TIP3    H159018   5.396   0.255   5.524  0.9065 -0.9398  0.8343
12509TIP3    H259019   5.446   0.140   5.438 -3.3264 -1.4135 -1.1354
12510TIP3   OH259020   6.368   1.325  15.875 -0.1546  0.1615 -0.2507
12510TIP3    H159021   6.424   1.351  15.949 -0.1022 -0.3048 -0.1229
12510TIP3    H259022   6.373   1.399  15.815 -0.9011  0.9238  0.6084
12511TIP3   OH259023   2.072   0.270   2.666  0.0638  0.3319 -0.3994
12511TIP3    H159024   2.008   0.273   2.595  0.2213 -0.6227 -0.5943
12511TIP3    H259025   2.122   0.351   2.657 -0.5159  0.6426 -0.8147
12512TIP3   OH259026   4.362   1.723  15.496 -1.1217  0.2986  0.1280
12512TIP3    H159027   4.396   1.683  15.576 -0.2143  0.1484 -0.3341
12512TIP3    H259028   4.349   1.815  15.520 -3.1494 -0.2140  1.1647
12513TIP3   OH259029   2.626   1.421   3.087  0.8943  0.1285  0.4708
12513TIP3    H159030   2.717   1.392   3.078  0.6009 -0.8800  0.5975
12513TIP3    H259031   2.632   1.515   3.101  2.0260 -0.2350  2.5919
12514TIP3   OH259032   6.640   0.630  11.346 -0.1141 -0.1181  0.5878
12514TIP3    H159033   6.552   0.607  11.317  0.8796 -1.9770 -1.0441
12514TIP3    H259034   6.661   0.710  11.298 -0.3027 -0.5599 -0.2359
12515TIP3   OH259035   5.358   6.352  16.557  0.0062 -0.3003 -0.0544
12515TIP3    H159036   5.401   6.437  16.564  1.3003 -0.9921  0.4953
12515TIP3    H259037   5.282   6.368  16.501  1.4518  0.7522 -1.7651
12516TIP3   OH259038   3.975   5.605   6.425 -0.3117 -0.0910 -0.0285
12516TIP3    H159039   4.060   5.617   6.383 -0.7351  0.0153 -0.8603
12516TIP3    H259040   3.946   5.694   6.447  0.3911 -0.2171  1.4623
12517TIP3   OH259041   2.156   6.460   0.328 -0.1261 -0.0347  1.6303
12517TIP3    H159042   2.136   6.395   0.261 -0.2470  1.7864 -0.1582
12517TIP3    H259043   2.251   6.466   0.328 -0.1209 -0.1045  1.7198
12518TIP3   OH259044   4.407   6.451   5.918 -0.3830  0.1507 -0.4558
12518TIP3    H159045   4.405   6.405   6.001 -1.7169  1.3686  0.2086
12518TIP3    H259046   4.497   6.443   5.887  0.0279 -0.5899  0.9457
12519TIP3   OH259047   0.273   4.329  12.404 -0.1875 -0.0070 -0.0851
12519TIP3    H159048   0.201   4.332  12.341 -0.1039  0.6323 -0.1457
12519TIP3    H259049   0.260   4.245  12.450 -1.3211  0.3684  0.3096
12520TIP3   OH259050   6.480   0.509   1.320  0.0981 -0.2217 -0.1706
12520TIP3    H159051   6.555   0.466   1.279  0.8215  1.5301 -0.7229
12520TIP3    H259052   6.465   0.587   1.267 -1.1545  0.2514  0.8505
12521TIP3   OH259053   2.127   4.074   6.088 -0.0108  0.6686  0.1427
12521TIP3    H159054   2.121   4.104   6.179  1.8940 -0.8857  0.8146
12521TIP3    H259055   2.036   4.068   6.059 -0.5525  4.8233  0.6774
12522TIP3   OH259056   5.559   2.634   2.628 -0.2532 -0.7013 -0.0858
12522TIP3    H159057   5.602   2.718   2.611 -1.7179 -0.2826 -1.8271
12522TIP3    H259058   5.600   2.574   2.565  0.3141 -1.1553  0.7024
12523TIP3   OH259059   4.496   5.922   2.425  0.3550 -0.0189  0.1515
12523TIP3    H159060   4.591   5.915   2.438  0.2817 -0.8362  0.2589
12523TIP3    H259061   4.477   6.015   2.437  1.0669  0.0640  0.6518
12524TIP3   OH259062   5.105   1.564  13.445  0.1999  0.7509 -0.9245
12524TIP3    H159063   5.083   1.605  13.529  1.1809  0.9430 -0.7596
12524TIP3    H259064   5.044   1.490  13.439 -0.7164  1.4745 -0.6326
12525TIP3   OH259065   0.476   1.991  17.077  0.0417 -0.4534  0.0472
12525TIP3    H159066   0.509   1.904  17.053  0.7794 -0.6679  1.7206
12525TIP3    H259067   0.514   2.050  17.012  0.3354 -1.2663 -0.5288
12526TIP3   OH259068   1.625   2.967  13.353  0.0242 -0.5391 -0.2101
12526TIP3    H159069   1.549   2.914  13.332 -0.1055 -0.4086 -0.0630
12526TIP3    H259070   1.690   2.905  13.385 -0.2655 -0.5617  0.3416
12527TIP3   OH259071   4.054   2.358  16.790 -0.0615  0.1886 -0.3305
12527TIP3    H159072   4.148   2.368  16.806 -0.4382  0.7463  1.6840
12527TIP3    H259073   4.021   2.448  16.790 -0.8911 -0.1046  0.9839
12528TIP3   OH259074   2.357   1.811   0.648 -0.5758  0.8937 -0.2405
12528TIP3    H159075   2.314   1.871   0.587  1.4779  1.8027 -0.8187
12528TIP3    H259076   2.381   1.866   0.722  0.0660  0.4895 -0.1513
12529TIP3   OH259077   1.153   6.466  12.578 -0.1865  0.1464  0.3468
12529TIP3    H159078   1.145   6.553  12.537  1.6193  0.9916  1.7593
12529TIP3    H259079   1.143   6.483  12.671  0.2474 -1.1789  0.6298
12530TIP3   OH259080   5.393   3.148   3.803 -0.7690  0.3014 -0.1906
12530TIP3    H159081   5.394   3.095   3.723  2.5496  1.8269 -1.2382
12530TIP3    H259082   5.329   3.217   3.785  0.8729  1.3857 -2.0743
12531TIP3   OH259083   1.819   4.250  13.118  0.0422  0.4264 -0.3913
12531TIP3    H159084   1.725   4.239  13.103  0.0560 -2.6808  1.3719
12531TIP3    H259085   1.859   4.176  13.071  1.5576  1.3333 -0.5488
12532TIP3   OH259086   4.957   3.530   0.246  0.1493 -0.6820 -0.1931
12532TIP3    H159087   4.950   3.579   0.327 -3.6231 -1.7474  0.1971
12532TIP3    H259088   4.938   3.594   0.177 -0.9781 -0.7224  0.0722
12533TIP3   OH259089   1.833   6.256   1.466  0.9235 -0.3614  0.2978
12533TIP3    H159090   1.903   6.306   1.425  0.9619 -0.3224  0.4106
12533TIP3    H259091   1.763   6.320   1.480  1.1046 -0.2614  0.7589
12534TIP3   OH259092   5.200   2.051   4.805 -0.0156 -0.1509  0.8706
12534TIP3    H159093   5.229   2.075   4.893  2.0693 -2.5252  0.9037
12534TIP3    H259094   5.257   2.100   4.746  0.1548 -0.3324  0.8823
12535TIP3   OH259095   2.375   5.992   0.966 -0.3504 -0.3740  0.3890
12535TIP3    H159096   2.321   5.964   1.040  1.1087 -0.3359  1.4775
12535TIP3    H259097   2.362   6.087   0.962 -1.2944 -0.5142 -0.1129
12536TIP3   OH259098   3.055   2.949   5.115  0.5022  0.4439 -0.0772
12536TIP3    H159099   3.137   2.904   5.094 -0.4867 -2.2487  1.5596
12536TIP3    H259100   3.013   2.962   5.030  0.2764 -2.8707 -0.5353
12537TIP3   OH259101   2.023   6.637  15.395  0.3201 -0.0468  0.1411
12537TIP3    H159102   2.055   6.551  15.422 -0.4077 -0.1676  0.6466
12537TIP3    H259103   2.101   6.691  15.387  0.8114 -0.8303 -0.4416
12538TIP3   OH259104   4.844   1.648  15.704 -1.1842 -0.4508 -0.0868
12538TIP3    H159105   4.874   1.734  15.676  0.4473 -1.1255 -0.4240
12538TIP3    H259106   4.828   1.600  15.622  1.0690 -1.5458  0.0714
12539TIP3   OH259107   2.145   2.023  11.894  0.0799  0.4125  0.2962
12539TIP3    H159108   2.183   2.106  11.923  0.9577  1.0289 -2.4382
12539TIP3    H259109   2.213   1.958  11.913  0.5624  0.7725 -0.1571
12540TIP3   OH259110   0.133   1.661  13.856 -0.1145  0.0582 -0.1577
12540TIP3    H159111   0.046   1.657  13.897  0.4706  0.3805  1.1359
12540TIP3    H259112   0.115   1.658  13.762 -1.4715 -0.8806  0.1199
12541TIP3   OH259113   2.471   1.134  15.144  0.2376 -0.1827  0.0808
12541TIP3    H159114   2.517   1.158  15.063  2.4447  0.5154  1.5132
12541TIP3    H259115   2.405   1.071  15.115  0.9136  0.1176 -2.2802
12542TIP3   OH259116   4.818   5.721   1.186 -0.1278 -0.1303  0.2890
12542TIP3    H159117   4.828   5.646   1.127 -2.9274 -0.6648  0.4120
12542TIP3    H259118   4.797   5.681   1.271 -2.2737  0.8012  0.2045
12543TIP3   OH259119   3.881   2.343  17.039  0.8147 -0.1235 -0.1840
12543TIP3    H159120   3.937   2.414  17.073 -0.1859 -0.0296  1.3094
12543TIP3    H259121   3.875   2.361  16.945  0.6859  1.7088  0.1459
12544TIP3   OH259122   1.814   6.666  13.946 -0.5247 -0.2204 -0.4094
12544TIP3    H159123   1.802   6.736  13.883  3.9555  0.4671 -0.6428
12544TIP3    H259124   1.789   6.704  14.030  0.5631  1.2239 -0.7320
12545TIP3   OH259125   4.337   5.262  12.430 -0.2009 -0.0500 -0.0702
12545TIP3    H159126   4.384   5.226  12.505  0.5021  0.5272 -0.2204
12545TIP3    H259127   4.396   5.248  12.355 -0.9392 -0.7107 -0.5250
12546TIP3   OH259128   0.605   0.328  13.554 -0.3480 -0.7105  0.3431
12546TIP3    H159129   0.654   0.274  13.492 -0.8751 -0.9237  0.1168
12546TIP3    H259130   0.614   0.417  13.520  1.4118 -0.4905  1.2820
12547TIP3   OH259131   4.709   1.742  11.267 -0.2086  0.5838 -0.0241
12547TIP3    H159132   4.737   1.704  11.184 -1.1298 -0.9827  0.3678
12547TIP3    H259133   4.698   1.667  11.325 -1.0807  1.5371  1.0505
12548TIP3   OH259134   3.312   0.473  14.695  0.8853  0.3757 -0.5437
12548TIP3    H159135   3.257   0.395  14.705  0.9247  0.1943 -1.6367
12548TIP3    H259136   3.276   0.537  14.757 -0.2911  0.1132 -0.9598
12549TIP3   OH259137   1.190   5.618  14.318 -0.7970 -0.0863 -0.5182
12549TIP3    H159138   1.285   5.618  14.321 -0.7459 -0.8682 -1.5545
12549TIP3    H259139   1.166   5.525  14.313 -1.5544  0.1481 -1.5198
12550TIP3   OH259140   5.854   2.548  11.656 -0.3107 -0.4992 -0.3099
12550TIP3    H159141   5.934   2.556  11.707  0.8060 -0.9274 -1.9368
12550TIP3    H259142   5.814   2.635  11.660  1.2443  0.2737 -1.0575
12551TIP3   OH259143   3.663   5.762  14.674  0.1286 -0.1841 -0.3566
12551TIP3    H159144   3.744   5.789  14.718 -0.2337  2.0500 -1.0367
12551TIP3    H259145   3.606   5.734  14.746 -0.2354  2.8514  0.5888
12552TIP3   OH259146   4.806   6.503   4.903  0.9260 -0.2046 -0.7654
12552TIP3    H159147   4.713   6.484   4.921  0.5925  0.8129 -1.3713
12552TIP3    H259148   4.813   6.598   4.913  1.8411 -0.2474 -1.0206
12553TIP3   OH259149   2.134   0.290   0.563  0.1471  0.3045 -0.1153
12553TIP3    H159150   2.146   0.202   0.528  0.7183  0.0686  0.6792
12553TIP3    H259151   2.041   0.295   0.584  0.4865 -0.8128  1.7425
12554TIP3   OH259152   1.508   4.764  13.948 -1.0748 -0.2918 -0.0108
12554TIP3    H159153   1.500   4.854  13.980  0.3166 -0.4272  0.7367
12554TIP3    H259154   1.424   4.724  13.970 -1.3665  0.5613  0.4677
12555TIP3   OH259155   3.155   1.111  13.373  0.4625 -0.1907  0.0377
12555TIP3    H159156   3.206   1.164  13.434 -0.4968  1.0499 -0.2076
12555TIP3    H259157   3.177   1.020  13.396  0.8755  0.2680  1.5638
12556TIP3   OH259158   5.814   4.759  15.737 -0.5812  0.3450 -0.1223
12556TIP3    H159159   5.732   4.732  15.695 -0.2901 -0.8400  0.0464
12556TIP3    H259160   5.878   4.756  15.666 -0.7280  1.5141 -0.3088
12557TIP3   OH259161   0.291   6.050  15.167 -0.1971 -0.1636  0.2928
12557TIP3    H159162   0.249   6.083  15.247  0.6341 -1.5476  1.3276
12557TIP3    H259163   0.379   6.088  15.168 -0.5012  0.5752 -0.4694
12558TIP3   OH259164   1.897   6.354  15.274  0.0020  0.2870 -0.0390
12558TIP3    H159165   1.854   6.438  15.262 -0.7713  0.2389  2.0803
12558TIP3    H259166   1.961   6.370  15.344  0.1861 -0.7478  0.0389
12559TIP3   OH259167   6.509   2.046   1.684 -0.2780 -0.1972  0.0444
12559TIP3    H159168   6.416   2.059   1.668 -0.5633 -1.8961  0.2071
12559TIP3    H259169   6.552   2.120   1.641 -1.6797  0.4316 -0.2852
12560TIP3   OH259170   5.903   6.431  16.288  0.2820 -0.3922 -0.3872
12560TIP3    H159171   5.885   6.522  16.267 -1.7192 -1.1965 -2.3538
12560TIP3    H259172   5.828   6.382  16.254  0.9282 -2.7017  1.3362
12561TIP3   OH259173   3.765   3.761   0.676 -0.0002  0.1522  0.6447
12561TIP3    H159174   3.715   3.830   0.631 -0.0238 -0.5927 -0.4882
12561TIP3    H259175   3.851   3.763   0.634  0.3749  0.2585  1.4071
12562TIP3   OH259176   1.863   6.014   6.194  0.7208  0.4075  0.1342
12562TIP3    H159177   1.844   6.014   6.100 -0.2202  0.9817  0.3154
12562TIP3    H259178   1.879   6.106   6.215 -1.5957  0.6426  1.0154
12563TIP3   OH259179   2.897   1.902   5.655 -0.3367  0.3251  0.6894
12563TIP3    H159180   2.881   1.981   5.706 -3.2318 -1.0160  1.9628
12563TIP3    H259181   2.841   1.835   5.695 -0.7028 -1.4573 -2.6138
12564TIP3   OH259182   5.460   3.924  17.263 -0.0217  0.4417  0.0791
12564TIP3    H159183   5.536   3.927  17.205 -1.5019 -1.7754 -2.0166
12564TIP3    H259184   5.468   3.841  17.309 -1.4706 -0.0630 -0.5642
12565TIP3   OH259185   6.371   5.884  15.656  0.4630  0.4716  0.0185
12565TIP3    H159186   6.431   5.931  15.713  0.8182  0.0196  0.0203
12565TIP3    H259187   6.336   5.814  15.711  0.2826  0.4577 -0.1145
12566TIP3   OH259188   2.861   3.625   5.873 -0.0518 -0.3861 -0.5919
12566TIP3    H159189   2.815   3.606   5.956 -1.9222  1.1813 -1.2245
12566TIP3    H259190   2.917   3.699   5.894 -0.1518 -0.3077 -0.5993
12567TIP3   OH259191   4.959   5.591   4.511 -0.4165 -0.3136  0.0556
12567TIP3    H159192   4.928   5.544   4.434 -0.1369 -1.3826  0.5839
12567TIP3    H259193   4.981   5.522   4.574 -0.8989  0.5561  1.1905
12568TIP3   OH259194   3.249   5.258   2.307 -1.3007 -0.1838  0.0334
12568TIP3    H159195   3.235   5.178   2.256 -1.6809  0.2637 -0.5760
12568TIP3    H259196   3.276   5.228   2.393 -0.7102 -0.9623 -0.4142
12569TIP3   OH259197   3.657   2.348   5.385  0.2089  0.5851  0.3884
12569TIP3    H159198   3.629   2.425   5.336  1.7215  1.9321  1.5636
12569TIP3    H259199   3.615   2.357   5.471 -0.2601 -0.3249  0.2573
12570TIP3   OH259200   5.660   3.280  14.749 -0.1682 -0.2605 -0.5181
12570TIP3    H159201   5.663   3.355  14.808  0.9612 -1.6364  1.2149
12570TIP3    H259202   5.573   3.244  14.761 -0.5851  0.5211 -1.0827
12571TIP3   OH259203   6.731   0.527  14.744  0.9301 -0.2547  0.2155
12571TIP3    H159204   6.734   0.433  14.760  0.2614 -0.3602 -0.2702
12571TIP3    H259205   6.640   0.545  14.721  1.1487  0.4404 -0.1192
12572TIP3   OH259206   5.151   6.435  14.531 -0.3325 -0.2178  0.4057
12572TIP3    H159207   5.125   6.400  14.616 -0.2902  2.0406  1.4038
12572TIP3    H259208   5.072   6.430  14.477 -1.3572  1.4529  1.6775
12573TIP3   OH259209   6.018   4.623  15.909 -0.3186  0.3859 -0.0458
12573TIP3    H159210   5.965   4.550  15.877  0.1600  0.0641 -0.1111
12573TIP3    H259211   5.973   4.701  15.877 -1.4935  0.1692  1.0114
12574TIP3   OH259212   4.007   2.210   0.147 -0.0440 -0.3530  0.3871
12574TIP3    H159213   3.939   2.270   0.178  0.3618  0.4373 -0.2220
12574TIP3    H259214   3.968   2.165   0.073  0.7414  1.5195 -1.2046
12575TIP3   OH259215   2.587   6.730  12.981 -0.2516  0.6431  0.2892
12575TIP3    H159216   2.565   6.640  12.958  0.0134  0.6812 -0.1174
12575TIP3    H259217   2.511   6.762  13.028 -0.5372  0.3551  0.0241
12576TIP3   OH259218   6.039   4.056   1.591  0.0371  0.1844 -0.0965
12576TIP3    H159219   6.009   4.132   1.541  0.2727 -0.5088 -1.3190
12576TIP3    H259220   6.043   3.985   1.526 -0.8433 -1.0359  1.1653
12577TIP3   OH259221   5.869   4.325  11.255 -0.2106  0.1827  0.4814
12577TIP3    H159222   5.962   4.319  11.278 -0.3658 -2.6705  0.4221
12577TIP3    H259223   5.868   4.376  11.174  1.0949  2.1234  1.6370
12578TIP3   OH259224   1.563   1.973   0.459 -0.2024 -0.2694 -0.0105
12578TIP3    H159225   1.576   1.880   0.441 -0.9790 -0.2902 -0.4979
12578TIP3    H259226   1.645   2.001   0.500 -0.2733 -1.3534  0.9077
12579TIP3   OH259227   0.556   5.067   1.651  0.5506 -0.2048  0.2718
12579TIP3    H159228   0.487   5.022   1.700 -0.0396 -0.6204 -0.9187
12579TIP3    H259229   0.515   5.148   1.620  1.1730  0.4621  1.1546
12580TIP3   OH259230   6.225   4.436   1.678  0.1895  0.5696  0.3378
12580TIP3    H159231   6.133   4.456   1.661  0.1541  1.6253  1.7147
12580TIP3    H259232   6.265   4.432   1.592 -1.1893 -0.1116 -0.2901
12581TIP3   OH259233   0.050   0.105  15.013 -0.1958 -0.3882 -0.5504
12581TIP3    H159234   0.032   0.011  15.017 -0.3937 -0.2827  1.9530
12581TIP3    H259235   0.117   0.114  14.945 -0.3407 -2.3011 -0.9810
12582TIP3   OH259236   2.400   3.253   4.176 -0.7257 -0.3605  0.3865
12582TIP3    H159237   2.412   3.338   4.133 -0.7106 -0.9509 -0.7901
12582TIP3    H259238   2.374   3.275   4.265  2.5011  0.9112  1.0931
12583TIP3   OH259239   4.290   4.483   5.455  0.3136 -0.0201 -0.6353
12583TIP3    H159240   4.342   4.486   5.535 -0.3547 -0.4483 -0.1802
12583TIP3    H259241   4.245   4.568   5.453 -0.7861 -0.5745  0.2026
12584TIP3   OH259242   5.068   6.652  14.310 -0.2427 -0.6729 -0.4383
12584TIP3    H159243   4.984   6.668  14.267 -0.0185 -0.5006 -0.8082
12584TIP3    H259244   5.126   6.622  14.241 -0.2587 -1.7247 -0.0074
12585TIP3   OH259245   0.536   5.285   3.070  0.4291 -0.1856  0.2096
12585TIP3    H159246   0.612   5.334   3.039 -0.0179  0.6448  0.4088
12585TIP3    H259247   0.463   5.347   3.064 -0.6701 -1.6024 -2.0521
12586TIP3   OH259248   5.910   1.407   1.640 -0.1813 -0.1900 -0.0858
12586TIP3    H159249   5.943   1.327   1.599 -0.1524 -1.8672  3.0125
12586TIP3    H259250   5.827   1.424   1.596 -0.6612 -2.5235 -0.1457
12587TIP3   OH259251   5.866   5.670  12.276 -0.0272 -0.1701  0.3280
12587TIP3    H159252   5.771   5.660  12.267  0.2921 -1.6418 -1.8274
12587TIP3    H259253   5.883   5.760  12.248 -0.8768  0.3941  1.5899
12588TIP3   OH259254   5.420   5.528   5.261  0.0254  0.0634 -0.0951
12588TIP3    H159255   5.477   5.586   5.312 -1.1039  1.2309 -0.1178
12588TIP3    H259256   5.374   5.476   5.327  0.0716  0.1301 -0.0092
12589TIP3   OH259257   3.319   4.828   1.344 -0.6319  0.3528  0.0002
12589TIP3    H159258   3.229   4.832   1.375 -0.7012  2.4913 -0.3388
12589TIP3    H259259   3.340   4.919   1.322  1.2258 -0.2899 -1.0028
12590TIP3   OH259260   5.702   3.494  15.178  0.0610  0.0355  0.2881
12590TIP3    H159261   5.796   3.475  15.178  0.3246  1.2622  0.9405
12590TIP3    H259262   5.672   3.465  15.264 -0.4898 -1.8563 -0.5283
12591TIP3   OH259263   0.716   1.323   4.706 -0.1245 -0.8189  0.5728
12591TIP3    H159264   0.740   1.247   4.654 -1.4083 -1.0162  0.2604
12591TIP3    H259265   0.666   1.378   4.646 -1.8983 -1.1975  1.6727
12592TIP3   OH259266   6.797   4.040   2.607 -0.5609 -0.2461  0.2682
12592TIP3    H159267   6.753   3.968   2.653 -2.4855  1.6064  1.4119
12592TIP3    H259268   6.727   4.083   2.558  0.6819  0.4692 -0.8813
12593TIP3   OH259269   0.804   2.438  16.662  0.1410  0.0793  0.1728
12593TIP3    H159270   0.748   2.463  16.735 -0.4344  1.7107 -0.8068
12593TIP3    H259271   0.876   2.500  16.663 -0.2126  0.5298 -1.0268
12594TIP3   OH259272   3.820   6.731   2.895  0.3632 -0.7344 -0.1599
12594TIP3    H159273   3.846   6.714   2.985 -0.9534  0.3469  0.4509
12594TIP3    H259274   3.733   6.771   2.902  1.0195  1.0827 -1.7922
12595TIP3   OH259275   6.403   3.706   5.212 -0.2777  0.9587 -0.4000
12595TIP3    H159276   6.363   3.739   5.131 -1.8744  0.2468  0.0659
12595TIP3    H259277   6.377   3.614   5.215  0.9421  0.6351  0.2232
12596TIP3   OH259278   2.027   0.761   4.730  0.5730  0.1301 -0.1267
12596TIP3    H159279   1.949   0.722   4.692  1.1143 -1.9735  0.8725
12596TIP3    H259280   2.013   0.856   4.722 -2.0030 -0.2209 -0.0845
12597TIP3   OH259281   6.314   1.759  14.144 -0.3828 -0.3756  0.2491
12597TIP3    H159282   6.292   1.840  14.190  0.3472 -0.3233  0.5091
12597TIP3    H259283   6.385   1.721  14.195  2.3316  1.0430 -2.3400
12598TIP3   OH259284   4.974   0.087  16.939  0.2816 -0.3447  0.6855
12598TIP3    H159285   4.995   0.044  16.856  0.3589  0.6977  0.1643
12598TIP3    H259286   5.059   0.102  16.980  0.3682  0.7335  0.1428
12599TIP3   OH259287   3.377   6.420  15.381 -0.2164 -0.1266  0.7610
12599TIP3    H159288   3.386   6.499  15.433 -0.2735 -0.9522  2.0420
12599TIP3    H259289   3.296   6.432  15.332  1.1871  1.8030 -1.1663
12600TIP3   OH259290   3.720   2.975  16.951 -0.7402  0.1749 -0.2966
12600TIP3    H159291   3.758   2.986  17.038 -0.2877 -2.0105 -0.1661
12600TIP3    H259292   3.791   2.996  16.891 -0.6730  0.4760 -0.1091
12601TIP3   OH259293   1.253   1.342   5.691 -0.7145  0.0594  0.6473
12601TIP3    H159294   1.185   1.409   5.684 -0.6409 -0.0227 -1.0906
12601TIP3    H259295   1.213   1.264   5.652  0.5629  0.1859 -0.9843
12602TIP3   OH259296   6.326   1.812  13.634  0.3848 -0.3599 -0.5758
12602TIP3    H159297   6.337   1.845  13.723 -0.3540  1.5004 -1.1423
12602TIP3    H259298   6.363   1.723  13.636  1.6581  0.1822  1.2108
12603TIP3   OH259299   5.742   4.384   5.351 -0.2910  0.5516 -0.0001
12603TIP3    H159300   5.664   4.340   5.383  1.0528 -0.9521  1.2898
12603TIP3    H259301   5.786   4.320   5.296  0.9115  0.7683  0.6747
12604TIP3   OH259302   0.336   0.927  13.382 -0.6117 -0.5002 -0.1659
12604TIP3    H159303   0.302   1.011  13.351  0.7998 -0.3753 -1.3891
12604TIP3    H259304   0.422   0.949  13.420 -0.4134 -1.3359 -0.1367
12605TIP3   OH259305   3.499   3.256  12.440 -0.1722  0.8037  0.6482
12605TIP3    H159306   3.558   3.195  12.484 -1.0733  0.5301  1.4837
12605TIP3    H259307   3.474   3.211  12.359 -0.3708  0.2999  0.9834
12606TIP3   OH259308   4.856   2.704   6.078  0.1885 -0.5342 -0.2251
12606TIP3    H159309   4.871   2.750   6.161 -1.4619 -0.6077  0.1246
12606TIP3    H259310   4.765   2.677   6.082 -0.5103  1.2395 -2.9406
12607TIP3   OH259311   1.583   0.945  15.587 -0.1311 -0.0128 -0.2132
12607TIP3    H159312   1.513   0.991  15.633  0.0656 -1.1547  1.2769
12607TIP3    H259313   1.636   1.015  15.549 -0.9302  0.9344  0.3694
12608TIP3   OH259314   0.884   6.216   1.027 -0.7373  0.0076  0.0869
12608TIP3    H159315   0.947   6.276   1.067 -1.1690  0.3393  0.2744
12608TIP3    H259316   0.811   6.215   1.089 -1.7295  1.0923 -1.0593
12609TIP3   OH259317   3.472   4.221   3.619 -0.1233 -0.1219  0.2117
12609TIP3    H159318   3.428   4.277   3.555  0.8173  0.9621  0.4979
12609TIP3    H259319   3.516   4.282   3.679 -0.5439 -1.1248  1.5856
12610TIP3   OH259320   0.577   4.343   4.888 -0.2634 -0.0914 -0.2475
12610TIP3    H159321   0.513   4.387   4.832  0.6144  0.3319 -0.9453
12610TIP3    H259322   0.603   4.410   4.952 -1.6866 -0.7434  1.0566
12611TIP3   OH259323   4.383   3.901  17.099  0.0134  0.4115  0.5307
12611TIP3    H159324   4.402   3.889  17.006 -0.3866  0.4478  0.4433
12611TIP3    H259325   4.423   3.824  17.142  0.4701  0.5561  0.3698
12612TIP3   OH259326   1.042   0.209  13.778 -0.0037  0.0629  0.0225
12612TIP3    H159327   1.024   0.299  13.803 -1.8145 -0.2169 -0.2457
12612TIP3    H259328   1.105   0.178  13.843 -0.1811  1.1865  0.7330
12613TIP3   OH259329   4.104   5.020  15.401  0.8053  0.2845  0.2299
12613TIP3    H159330   4.079   5.014  15.308 -2.4833  1.2659  0.9610
12613TIP3    H259331   4.193   4.985  15.404  0.3295 -1.5147 -3.0149
12614TIP3   OH259332   2.490   0.267  14.746 -0.1780  0.6183  0.6398
12614TIP3    H159333   2.510   0.328  14.675 -0.9571  1.8321  1.4353
12614TIP3    H259334   2.514   0.314  14.826 -3.3313  1.0079  1.4450
12615TIP3   OH259335   6.723   1.722  11.227  0.3236  0.0837 -0.1679
12615TIP3    H159336   6.754   1.667  11.299 -0.0022 -0.9069 -0.7667
12615TIP3    H259337   6.802   1.763  11.192  0.5686  0.0231  0.3065
12616TIP3   OH259338   0.646   0.338   4.717 -0.6060  0.0170 -0.1293
12616TIP3    H159339   0.719   0.321   4.777 -1.9480  1.0179  1.8550
12616TIP3    H259340   0.578   0.276   4.743 -1.1688  0.3956 -0.6858
12617TIP3   OH259341   0.975   3.211  12.422  0.2103  0.1363  0.2906
12617TIP3    H159342   0.913   3.260  12.476  0.1201 -0.0363  0.3468
12617TIP3    H259343   0.939   3.215  12.334  0.0228 -0.1169  0.3541
12618TIP3   OH259344   0.726   6.753  12.035 -0.6422 -0.3796  0.6977
12618TIP3    H159345   0.640   6.743  12.077 -0.6704 -2.0859  0.2658
12618TIP3    H259346   0.762   6.834  12.072 -1.7509 -0.5099  2.0768
12619TIP3   OH259347   3.749   3.878  12.269 -0.5952 -0.2971  0.7426
12619TIP3    H159348   3.744   3.918  12.356  0.4829  0.5169  0.4436
12619TIP3    H259349   3.774   3.950  12.211  0.4803 -1.2062  0.0479
12620TIP3   OH259350   6.598   6.768   3.807  0.1641 -0.6199  0.0821
12620TIP3    H159351   6.659   6.708   3.765 -0.1527 -0.7638 -0.1753
12620TIP3    H259352   6.544   6.801   3.735 -1.1153 -1.7181  0.5091
12621TIP3   OH259353   2.229   2.122  14.001 -0.2691  0.1750 -0.5512
12621TIP3    H159354   2.143   2.103  13.963  0.2205  1.5347 -2.3717
12621TIP3    H259355   2.287   2.056  13.962 -0.2802 -0.1353 -0.0553
12622TIP3   OH259356   6.708   0.661   4.758  0.3392 -0.3215 -0.5704
12622TIP3    H159357   6.679   0.590   4.702 -1.8688 -1.4111  1.8762
12622TIP3    H259358   6.634   0.722   4.761  0.6847  0.0522  0.6191
12623TIP3   OH259359   6.190   1.346  11.871 -0.6258 -0.4830 -0.5765
12623TIP3    H159360   6.191   1.336  11.966  0.9959 -1.1531 -0.6517
12623TIP3    H259361   6.141   1.270  11.839 -1.3502 -0.1493 -0.2810
12624TIP3   OH259362   4.367   0.816  13.103 -0.2597 -0.2440 -0.6392
12624TIP3    H159363   4.319   0.739  13.131 -0.3830 -1.0825 -3.0062
12624TIP3    H259364   4.309   0.890  13.122 -1.4815 -1.0320 -1.2188
12625TIP3   OH259365   2.144   2.922  16.055  0.2812 -0.4865 -0.0965
12625TIP3    H159366   2.230   2.895  16.087  0.7289  0.3192 -0.6303
12625TIP3    H259367   2.132   3.010  16.089 -0.1610 -0.4452 -0.3613
12626TIP3   OH259368   6.352   0.050  15.341 -0.0734 -0.0087  0.3274
12626TIP3    H159369   6.278   0.106  15.319  0.1335 -0.0107 -0.3760
12626TIP3    H259370   6.372   0.003  15.260  0.4207 -0.3235  0.6297
12627TIP3   OH259371   4.928   5.321   1.900  0.2085 -0.1129 -0.2790
12627TIP3    H159372   4.889   5.402   1.933 -2.7332  0.2754 -4.2179
12627TIP3    H259373   4.854   5.260   1.896  1.4828 -1.6013 -1.4069
12628TIP3   OH259374   6.301   5.724  13.699  0.3206  0.4975  0.6969
12628TIP3    H159375   6.362   5.697  13.631  0.1906 -0.6465  1.0196
12628TIP3    H259376   6.267   5.809  13.669 -0.7784 -0.6246 -1.3593
12629TIP3   OH259377   1.682   6.136   4.120  0.4842  0.3194 -0.2379
12629TIP3    H159378   1.633   6.095   4.049  1.4327 -0.6875 -0.3170
12629TIP3    H259379   1.615   6.163   4.183 -0.1936 -0.9356 -0.4055
12630TIP3   OH259380   0.352   0.046  12.137  0.3844  0.0353 -0.6179
12630TIP3    H159381   0.272   0.059  12.086 -1.0690  0.5952  1.7492
12630TIP3    H259382   0.393  -0.031  12.097 -2.4034 -1.5520 -0.5376
12631TIP3   OH259383   4.979   4.068  16.291 -0.6867 -0.4749  0.3359
12631TIP3    H159384   4.940   4.116  16.219  2.6553  1.1736 -0.4612
12631TIP3    H259385   5.015   3.989  16.251 -2.3174 -1.5175  0.9014
12632TIP3   OH259386   5.838   6.519   3.045 -0.0338  0.8152 -0.0558
12632TIP3    H159387   5.930   6.512   3.020  0.9962  0.5301  3.5703
12632TIP3    H259388   5.799   6.575   2.978  2.8941  1.4099 -1.3190
12633TIP3   OH259389   0.651   5.658   3.304  0.1719  0.4458 -0.6251
12633TIP3    H159390   0.694   5.700   3.379 -0.0529 -1.2754  0.5061
12633TIP3    H259391   0.695   5.574   3.295 -2.4819 -1.0953  0.1718
12634TIP3   OH259392   6.648   5.994  15.175 -0.3726 -0.4550 -0.1107
12634TIP3    H159393   6.602   5.912  15.156 -1.2651  0.1781 -0.7365
12634TIP3    H259394   6.582   6.050  15.216  0.4233 -0.2970  0.9717
12635TIP3   OH259395   1.242   2.926   3.307 -0.2074  0.0504  0.1630
12635TIP3    H159396   1.295   2.995   3.268 -2.2897  1.9286  0.5642
12635TIP3    H259397   1.283   2.844   3.279  3.1547  1.4480  0.8650
12636TIP3   OH259398   6.599   0.832   2.238  0.4027  0.5757  0.3276
12636TIP3    H159399   6.614   0.924   2.261  1.1171  0.4133  0.5188
12636TIP3    H259400   6.530   0.835   2.172 -0.3493  1.1726  1.1337
12637TIP3   OH259401   6.795   5.189   0.917  0.3685  0.9071  0.0321
12637TIP3    H159402   6.873   5.151   0.957  2.2377  1.3917 -3.0280
12637TIP3    H259403   6.725   5.126   0.936  2.6177 -2.2556 -1.7565
12638TIP3   OH259404   6.205   6.149  15.820 -0.0339  0.4457 -0.2719
12638TIP3    H159405   6.194   6.065  15.775  0.5704 -0.1025  0.5987
12638TIP3    H259406   6.278   6.191  15.774 -0.6709  0.7301 -1.0418
12639TIP3   OH259407   3.132   0.929  13.098  0.2744  0.2035  0.1933
12639TIP3    H159408   3.172   0.857  13.050  0.4108  0.9494 -0.8473
12639TIP3    H259409   3.199   0.998  13.098 -0.0258  0.5034  0.7614
12640TIP3   OH259410   2.991   4.045  13.498  0.3024 -0.0023  0.4833
12640TIP3    H159411   3.082   4.022  13.481  0.5045  1.9994 -1.3297
12640TIP3    H259412   2.941   3.991  13.436  0.3281 -0.2982  0.7191
12641TIP3   OH259413   2.581   5.034   4.800  0.5526  0.0975 -0.2423
12641TIP3    H159414   2.586   4.943   4.772  2.5155  0.3259 -0.6767
12641TIP3    H259415   2.513   5.072   4.744 -0.5641 -1.1772  0.2156
12642TIP3   OH259416   1.034   5.507  13.238 -0.1987  0.1701  0.4240
12642TIP3    H159417   0.999   5.549  13.317  1.1807 -1.5536  1.9945
12642TIP3    H259418   1.046   5.416  13.263  0.1491 -0.4359 -1.8524
12643TIP3   OH259419   4.721   5.136   1.623 -0.1062 -0.0297 -0.2418
12643TIP3    H159420   4.704   5.113   1.532  1.2278 -3.9265  0.4277
12643TIP3    H259421   4.773   5.217   1.618  0.0372 -0.2435 -2.9032
12644TIP3   OH259422   5.106   0.982   0.961 -0.6415  0.7169  0.0832
12644TIP3    H159423   5.062   0.905   0.924 -0.5081  0.6442  0.0748
12644TIP3    H259424   5.189   0.948   0.995 -0.1419  1.0262 -0.7991
12645TIP3   OH259425   2.191   2.274  14.961 -0.1205  0.0738  0.4831
12645TIP3    H159426   2.221   2.336  15.027 -1.1573 -0.1079  1.1368
12645TIP3    H259427   2.270   2.253  14.910  0.0629  2.6669 -0.3908
12646TIP3   OH259428   3.092   1.596  11.311 -0.0168  0.2229  0.0959
12646TIP3    H159429   3.074   1.515  11.263 -1.2960 -0.0108  0.9533
12646TIP3    H259430   3.015   1.651  11.294 -0.8582 -0.1713  2.5234
12647TIP3   OH259431   6.298   6.482   0.056 -0.2185 -0.0346 -0.0406
12647TIP3    H159432   6.373   6.424   0.044 -0.5212 -0.1580 -1.3680
12647TIP3    H259433   6.305   6.547  -0.014 -0.4024  0.9859  0.8702
12648TIP3   OH259434   2.536   2.676   3.971 -0.4508 -0.5256  0.4645
12648TIP3    H159435   2.590   2.750   3.996 -0.8357  0.2446 -0.9786
12648TIP3    H259436   2.465   2.713   3.919 -0.1159 -1.9936 -1.1074
12649TIP3   OH259437   3.548   5.156   5.504  0.3139  0.3380 -0.5208
12649TIP3    H159438   3.580   5.216   5.572  2.5890  1.2114 -2.3152
12649TIP3    H259439   3.596   5.180   5.426  0.9929 -3.5705 -1.4258
12650TIP3   OH259440   2.588   0.232  13.345  0.0991  0.3260  0.0138
12650TIP3    H159441   2.583   0.263  13.435 -0.5034 -3.3796  1.3439
12650TIP3    H259442   2.502   0.193  13.328  0.6733 -0.2540 -1.6791
12651TIP3   OH259443   3.982   6.423   2.667  0.3905 -0.4399 -0.3141
12651TIP3    H159444   4.054   6.468   2.622 -0.1907  1.0269  0.1893
12651TIP3    H259445   4.001   6.434   2.760 -0.2777 -0.3784 -0.1832
12652TIP3   OH259446   4.390   0.270   3.932 -0.1501 -0.1888  0.9946
12652TIP3    H159447   4.411   0.240   3.843 -2.6784  1.8934 -0.3860
12652TIP3    H259448   4.458   0.333   3.952  0.5298 -0.7871  0.6100
12653TIP3   OH259449   2.319   0.835   1.169 -0.7597  0.0709 -0.1644
12653TIP3    H159450   2.409   0.856   1.146 -0.5617  0.5484  1.0119
12653TIP3    H259451   2.318   0.739   1.180 -0.2219  0.1415  0.5266
12654TIP3   OH259452   4.071   2.912  14.969 -0.5637 -0.0857 -0.0851
12654TIP3    H159453   4.148   2.969  14.961  0.5490 -1.7352 -1.5371
12654TIP3    H259454   4.093   2.853  15.041 -0.8548  0.0013  0.0761
12655TIP3   OH259455   1.130   5.771   1.111  0.2374  0.2354 -0.3033
12655TIP3    H159456   1.193   5.836   1.142  0.8670  0.5290 -2.1244
12655TIP3    H259457   1.045   5.805   1.137  0.5382  1.9494 -1.5071
12656TIP3   OH259458   0.100   5.452  15.937  0.2730 -0.0281 -0.1694
12656TIP3    H159459   0.177   5.451  15.994  0.7530  0.0672 -0.8093
12656TIP3    H259460   0.127   5.403  15.860  0.4528  1.9295 -1.3806
12657TIP3   OH259461   4.724   3.280   2.843 -0.6237  0.2202 -0.5765
12657TIP3    H159462   4.712   3.291   2.749  0.5336  3.7150 -0.3486
12657TIP3    H259463   4.754   3.365   2.874 -0.9575 -0.8864  2.9643
12658TIP3   OH259464   0.526   0.012   5.082 -0.2024  0.9112  0.1685
12658TIP3    H159465   0.530   0.078   5.151 -0.3399  1.7296 -0.5953
12658TIP3    H259466   0.537   0.061   5.001  0.4131 -0.0895 -0.3748
12659TIP3   OH259467   1.436   6.394   0.369 -0.4096 -0.7392  0.1711
12659TIP3    H159468   1.408   6.308   0.401 -1.8408 -0.4379 -0.2368
12659TIP3    H259469   1.520   6.410   0.413  0.5065 -2.9000 -0.6953
12660TIP3   OH259470   4.452   1.371  12.249 -0.1832 -0.1265 -0.2336
12660TIP3    H159471   4.529   1.326  12.215 -0.1548 -0.9291  0.8625
12660TIP3    H259472   4.400   1.391  12.171  0.6455 -0.4846 -0.8919
12661TIP3   OH259473   1.486   4.069  12.860  0.4199 -0.5748 -0.2308
12661TIP3    H159474   1.440   4.122  12.925  0.3387  0.3242 -1.0070
12661TIP3    H259475   1.496   3.983  12.901 -2.0996 -0.8518 -0.0837
12662TIP3   OH259476   1.687   2.435   5.119  0.6183  0.3957 -0.3654
12662TIP3    H159477   1.630   2.385   5.059  1.4290 -0.8201 -0.1514
12662TIP3    H259478   1.715   2.370   5.184  2.7012  0.8246 -0.8021
12663TIP3   OH259479   2.332   4.515  14.188 -0.1812 -0.1051 -0.2538
12663TIP3    H159480   2.391   4.444  14.214 -0.4838  0.1491  1.1856
12663TIP3    H259481   2.304   4.492  14.099  1.2103 -0.7969 -0.5310
12664TIP3   OH259482   4.306   0.298  12.648 -0.4169  0.4183  0.2563
12664TIP3    H159483   4.258   0.256  12.577 -2.8445  0.1953  1.9622
12664TIP3    H259484   4.353   0.370  12.606  0.6637 -1.5529 -2.0475
12665TIP3   OH259485   2.845   2.063   6.432  0.2936 -0.1829  0.5473
12665TIP3    H159486   2.839   2.155   6.457  1.6976 -0.3914  1.6588
12665TIP3    H259487   2.904   2.024   6.496 -0.7115 -1.9869  0.4209
12666TIP3   OH259488   4.086   5.979   4.961  0.1964 -0.4699  0.6484
12666TIP3    H159489   4.008   6.029   4.984 -0.4151 -1.0333 -0.1789
12666TIP3    H259490   4.083   5.902   5.018  0.4085 -0.2538  0.9535
12667TIP3   OH259491   6.209   2.179  12.296  0.4855  0.2055 -0.4304
12667TIP3    H159492   6.140   2.224  12.248 -0.4046 -0.8316 -0.1370
12667TIP3    H259493   6.176   2.090  12.307  0.4663  0.5464  2.5300
12668TIP3   OH259494   4.018   1.180  16.030 -0.1577  0.5268 -0.4349
12668TIP3    H159495   3.948   1.180  15.965 -0.3345  0.0561 -0.2476
12668TIP3    H259496   4.033   1.273  16.049  0.3476  0.6972 -1.6207
12669TIP3   OH259497   1.157   3.022  16.757 -0.6530 -0.7038 -0.0232
12669TIP3    H159498   1.243   3.002  16.793  0.3998  0.1198 -2.0157
12669TIP3    H259499   1.109   2.939  16.762  0.3406 -1.2311  0.8283
12670TIP3   OH259500   5.332   2.426  14.656 -0.1350  0.6964  0.0190
12670TIP3    H159501   5.379   2.461  14.732  0.0053  1.0916 -0.2431
12670TIP3    H259502   5.240   2.444  14.674 -0.0509  1.3573 -0.1862
12671TIP3   OH259503   1.924   5.747   0.422 -0.3315 -0.6582 -0.4238
12671TIP3    H159504   1.842   5.699   0.412 -0.6647 -0.0630 -0.5372
12671TIP3    H259505   1.982   5.686   0.469 -0.5247 -1.4331 -1.1758
12672TIP3   OH259506   6.673   4.855   2.684  0.1086 -0.2302  0.1821
12672TIP3    H159507   6.705   4.767   2.665 -0.6796 -0.6487  0.7535
12672TIP3    H259508   6.611   4.874   2.614  0.1382 -0.1980  0.1644
12673TIP3   OH259509   1.787   2.859  13.808  0.2617 -0.5789  0.2642
12673TIP3    H159510   1.864   2.840  13.755 -1.0226  0.7768 -2.1982
12673TIP3    H259511   1.771   2.778  13.857  2.0379 -1.5577 -0.7173
12674TIP3   OH259512   4.942   0.877  12.223 -0.1153  0.0837 -0.0256
12674TIP3    H159513   4.862   0.872  12.276 -0.3320  1.0255 -0.2516
12674TIP3    H259514   4.923   0.945  12.158  0.1946 -0.9924 -1.2397
12675TIP3   OH259515   3.975   6.581  16.166 -0.0206 -0.4928 -0.3540
12675TIP3    H159516   3.925   6.662  16.159  1.7650  0.6751  0.1045
12675TIP3    H259517   3.921   6.516  16.122 -1.7824  0.7968 -0.1709
12676TIP3   OH259518   1.574   1.391   4.502 -0.0241 -0.6462 -0.4332
12676TIP3    H159519   1.613   1.468   4.461  2.2406 -0.6175  1.6390
12676TIP3    H259520   1.603   1.396   4.593  0.7738 -4.3254 -0.4355
12677TIP3   OH259521   3.717   6.567  11.945 -0.4128  0.3246  0.0435
12677TIP3    H159522   3.750   6.631  12.008 -3.2823  0.4615  1.5141
12677TIP3    H259523   3.643   6.612  11.903 -0.2363 -0.7657 -1.4627
12678TIP3   OH259524   3.536   5.477   4.069  0.2511  0.1181  0.1329
12678TIP3    H159525   3.474   5.469   4.142  0.3860  1.1287  0.3635
12678TIP3    H259526   3.483   5.506   3.995 -0.0260 -1.6500 -0.3968
12679TIP3   OH259527   2.200   6.429  12.492 -0.3844  0.3032 -0.1405
12679TIP3    H159528   2.186   6.339  12.523 -2.5869  1.0683  1.2538
12679TIP3    H259529   2.244   6.419  12.408  0.0427 -2.0552  0.3176
12680TIP3   OH259530   3.872   1.937   0.681 -0.7074  0.5894  0.7732
12680TIP3    H159531   3.952   1.902   0.643 -1.9506 -2.3220  0.6765
12680TIP3    H259532   3.893   1.950   0.774 -0.6450 -2.0463  1.1733
12681TIP3   OH259533   1.517   2.206   0.202  0.1657  0.3389  0.6023
12681TIP3    H159534   1.608   2.201   0.174 -0.3298 -2.0303 -0.7258
12681TIP3    H259535   1.510   2.141   0.272 -0.6813 -0.0483  0.1608
12682TIP3   OH259536   6.794   1.920  14.690  0.1381  0.1999 -0.7358
12682TIP3    H159537   6.855   1.866  14.640  0.1641 -2.9457  2.5002
12682TIP3    H259538   6.844   1.947  14.768 -1.4357  0.7372  0.1087
12683TIP3   OH259539   2.056   1.770   4.606  0.2007 -0.0619  1.1959
12683TIP3    H159540   2.142   1.809   4.624  0.2173  1.0016 -0.9669
12683TIP3    H259541   2.073   1.706   4.537 -0.7832  0.4112  0.5000
12684TIP3   OH259542   2.815   5.078   5.278  1.3828  0.0713 -0.1028
12684TIP3    H159543   2.773   5.082   5.192 -2.3452  1.5117  1.6469
12684TIP3    H259544   2.871   5.001   5.275  1.2687  0.0720 -3.7755
12685TIP3   OH259545   2.896   6.108   2.133  0.5927 -0.0913 -0.6601
12685TIP3    H159546   2.988   6.112   2.158  0.4246  2.0754 -0.3369
12685TIP3    H259547   2.862   6.031   2.179  1.6796  0.4275  1.0438
12686TIP3   OH259548   0.271   3.819  15.886  0.3555 -0.0641  0.5404
12686TIP3    H159549   0.367   3.820  15.894  0.3044 -0.5581  1.2363
12686TIP3    H259550   0.241   3.776  15.965 -0.3201 -2.4450 -0.9684
12687TIP3   OH259551   5.618   0.879   1.811  0.2133  0.0731 -0.4991
12687TIP3    H159552   5.577   0.904   1.728  1.7064 -1.5796 -1.7762
12687TIP3    H259553   5.653   0.961   1.846 -3.8609  1.4671  0.4926
12688TIP3   OH259554   3.811   5.251   1.730  0.1104 -0.0822  0.0129
12688TIP3    H159555   3.832   5.260   1.823 -0.7520 -2.4438  0.4787
12688TIP3    H259556   3.715   5.249   1.728  0.0750  1.9596 -1.1616
12689TIP3   OH259557   0.073   1.627   4.525  0.6892 -0.3483  0.7072
12689TIP3    H159558   0.163   1.651   4.548  0.4884 -0.7882  2.0152
12689TIP3    H259559   0.082   1.547   4.475  0.9354 -1.3803  2.3609
12690TIP3   OH259560   2.928   3.331   5.165 -0.0087  0.1439  0.2778
12690TIP3    H159561   2.966   3.381   5.092 -0.0599 -0.5341 -0.2139
12690TIP3    H259562   2.859   3.387   5.199 -0.3346  0.2447 -0.5336
12691TIP3   OH259563   2.212   2.766  15.616  0.1491  0.0350 -0.5729
12691TIP3    H159564   2.305   2.790  15.612 -0.3842  2.0261 -1.6983
12691TIP3    H259565   2.175   2.801  15.535 -1.3571 -1.8513 -0.7358
12692TIP3   OH259566   6.325   3.735  14.651  0.6116 -0.6577 -0.1573
12692TIP3    H159567   6.398   3.747  14.590  0.5616  0.7327  0.0532
12692TIP3    H259568   6.339   3.648  14.688  2.2703 -0.3290  0.0194
12693TIP3   OH259569   5.894   4.829   6.147  0.9462 -0.3688 -0.1097
12693TIP3    H159570   5.959   4.898   6.139  0.2707  0.4117  1.0361
12693TIP3    H259571   5.809   4.874   6.147  0.5964 -0.8263  4.0314
12694TIP3   OH259572   0.447   2.403  15.779 -0.5247 -0.1650  0.2217
12694TIP3    H159573   0.412   2.337  15.839  1.4554 -1.1239  0.3648
12694TIP3    H259574   0.375   2.420  15.718 -1.8533 -0.7056  1.6239
12695TIP3   OH259575   0.832   0.051   6.545 -0.0640  0.1534  0.1483
12695TIP3    H159576   0.830  -0.021   6.482  1.1810 -1.3003  1.7145
12695TIP3    H259577   0.859   0.010   6.627  0.6949  2.4202  1.0654
12696TIP3   OH259578   4.999   5.119  12.374  0.2964 -0.7582 -0.0529
12696TIP3    H159579   4.953   5.096  12.454 -0.3235  0.4739 -0.0497
12696TIP3    H259580   4.930   5.146  12.313  0.7408 -1.9051 -1.0780
12697TIP3   OH259581   2.793   6.644  13.344  0.0088  0.1131  0.9082
12697TIP3    H159582   2.883   6.665  13.372 -0.2384 -0.0294  1.8377
12697TIP3    H259583   2.799   6.555  13.311  0.6261  0.8433 -1.0118
12698TIP3   OH259584   2.830   1.881   1.232 -0.7502  1.0529  0.2635
12698TIP3    H159585   2.916   1.920   1.216 -0.6718  0.2964 -1.2659
12698TIP3    H259586   2.832   1.797   1.186 -1.2675 -0.3432  2.7162
12699TIP3   OH259587   5.723   2.859   1.676 -0.0489  0.5855 -0.0229
12699TIP3    H159588   5.726   2.831   1.768 -0.3388  0.1871 -0.1347
12699TIP3    H259589   5.695   2.781   1.628 -2.2987  1.4691 -0.1785
12700TIP3   OH259590   0.088   0.546   5.417  0.2047  0.0917 -0.1553
12700TIP3    H159591   0.133   0.481   5.470  0.2047  0.3853  0.2029
12700TIP3    H259592   0.080   0.623   5.473 -0.9238 -0.0218 -0.1434
12701TIP3   OH259593   2.378   2.697   3.360  0.4110  0.6097  0.4934
12701TIP3    H159594   2.461   2.681   3.315  1.0095  1.9114  1.0958
12701TIP3    H259595   2.374   2.630   3.428  0.3504 -0.2578 -0.3634
12702TIP3   OH259596   4.855   3.437   2.354 -1.0137  0.5164  0.2016
12702TIP3    H159597   4.846   3.470   2.444  1.0173 -0.9767  1.0190
12702TIP3    H259598   4.791   3.486   2.303 -2.2855  1.3177  2.4994
12703TIP3   OH259599   1.631   2.208   2.052 -0.0270  0.5762 -0.2233
12703TIP3    H159600   1.592   2.272   1.993  1.0022  0.4702 -1.0385
12703TIP3    H259601   1.560   2.149   2.075 -0.5569  0.9346 -0.9372
12704TIP3   OH259602   2.793   3.781  12.298  0.2715 -0.2396  0.6171
12704TIP3    H159603   2.850   3.829  12.238 -2.5207  0.3545 -1.6863
12704TIP3    H259604   2.768   3.703  12.250 -1.6902  0.0322  1.1485
12705TIP3   OH259605   0.019   1.698   2.618 -0.2303 -0.4504 -0.7973
12705TIP3    H159606   0.069   1.654   2.549  0.7000 -0.1772 -0.3041
12705TIP3    H259607  -0.073   1.680   2.596 -0.0882  1.8790 -3.5986
12706TIP3   OH259608   4.960   3.881   1.393  0.7580  0.3521 -0.2098
12706TIP3    H159609   4.996   3.793   1.387  1.4986  0.7070 -1.2444
12706TIP3    H259610   4.871   3.869   1.425  0.4873 -0.8591 -1.3986
12707TIP3   OH259611   4.640   3.913   2.348 -0.3247  0.0632  0.3962
12707TIP3    H159612   4.665   3.829   2.386  0.9185  0.1322 -0.2666
12707TIP3    H259613   4.723   3.957   2.328 -0.9316  0.1177 -2.2128
12708TIP3   OH259614   5.006   1.103   4.802  0.5616  0.4068  0.6663
12708TIP3    H159615   4.943   1.033   4.782  1.0487  0.2452 -0.3631
12708TIP3    H259616   4.969   1.180   4.760  1.6439  0.0449 -0.9995
12709TIP3   OH259617   6.561   0.785   6.633 -0.3936  0.5306 -0.2535
12709TIP3    H159618   6.562   0.814   6.541 -1.8330  0.6829 -0.2360
12709TIP3    H259619   6.508   0.851   6.677  0.6814  0.7114  0.7886
12710TIP3   OH259620   4.404   4.369   4.984  0.3195  0.5489  0.1500
12710TIP3    H159621   4.359   4.363   5.068 -1.2860 -2.1484 -0.8402
12710TIP3    H259622   4.352   4.430   4.933  0.2065  0.7151  0.4660
12711TIP3   OH259623   5.449   3.209   0.209 -0.1721 -0.2463 -0.0379
12711TIP3    H159624   5.437   3.169   0.123  0.6530  0.1025 -0.3152
12711TIP3    H259625   5.436   3.303   0.194 -1.8169 -0.3654  0.5569
12712TIP3   OH259626   4.345   1.733   5.137 -0.0834 -0.4837 -0.5253
12712TIP3    H159627   4.310   1.653   5.099  0.1457  0.6161 -3.1628
12712TIP3    H259628   4.437   1.734   5.111  0.1673  0.1440  0.3591
12713TIP3   OH259629   5.087   0.072  13.066  0.2389  0.4555 -0.1713
12713TIP3    H159630   5.173   0.104  13.041  1.9742 -3.4756  0.3248
12713TIP3    H259631   5.037   0.072  12.985  1.3399  0.9355 -0.8624
12714TIP3   OH259632   5.264   1.314  13.448  0.6629 -0.3273  0.0938
12714TIP3    H159633   5.325   1.360  13.506  1.3186  0.8514 -1.4901
12714TIP3    H259634   5.197   1.379  13.428  0.1011 -0.9238  0.0429
12715TIP3   OH259635   2.693   4.915   6.270  0.4320  0.7344  0.7578
12715TIP3    H159636   2.716   4.973   6.198 -0.1554  0.3896  0.2983
12715TIP3    H259637   2.770   4.918   6.328  2.2314 -1.4269 -1.4043
12716TIP3   OH259638   6.014   5.989  16.312  0.6895 -0.3428  0.3206
12716TIP3    H159639   5.975   5.946  16.236  0.5757 -0.9345  0.7081
12716TIP3    H259640   6.092   6.032  16.279 -0.0551  0.4951 -0.3866
12717TIP3   OH259641   6.111   0.151   0.364 -0.2604  0.4559 -0.0935
12717TIP3    H159642   6.023   0.113   0.378 -0.2031  0.5443  0.5034
12717TIP3    H259643   6.144   0.105   0.286 -1.0723  0.8458 -0.6804
12718TIP3   OH259644   2.309   3.076  12.175  0.0976 -0.1621  0.4652
12718TIP3    H159645   2.313   3.059  12.081 -1.6466 -0.9987  0.5293
12718TIP3    H259646   2.220   3.107  12.190 -0.0451 -1.2857  2.0469
12719TIP3   OH259647   1.544   1.617   6.326 -0.6560 -0.0929 -0.0516
12719TIP3    H159648   1.502   1.583   6.248 -2.2783 -1.6139  1.4317
12719TIP3    H259649   1.518   1.709   6.331 -1.4493 -0.2877 -0.6824
12720TIP3   OH259650   6.747   3.814   0.763 -0.7746 -0.3229  0.5398
12720TIP3    H159651   6.673   3.758   0.787 -1.2698  0.2664  0.4079
12720TIP3    H259652   6.824   3.757   0.772 -1.0289 -0.3859  2.6615
12721TIP3   OH259653   5.231   6.552  15.110  1.2644  0.1026 -0.1532
12721TIP3    H159654   5.215   6.646  15.103  0.7187 -0.0686 -1.2294
12721TIP3    H259655   5.308   6.536  15.056  1.2832 -0.0898 -0.0719
12722TIP3   OH259656   1.354   3.799   0.422  0.0673  0.3124  0.3108
12722TIP3    H159657   1.380   3.884   0.457  3.4157 -0.0247 -1.2528
12722TIP3    H259658   1.426   3.741   0.443  0.3556 -0.8340 -3.5317
12723TIP3   OH259659   1.477   1.346  12.154 -0.0696  0.1297 -0.2193
12723TIP3    H159660   1.497   1.286  12.226  0.8607  1.2426  0.4744
12723TIP3    H259661   1.485   1.294  12.075  2.4490 -0.2347  0.2559
12724TIP3   OH259662   4.427   4.800  14.865  0.0047  0.0086 -0.1108
12724TIP3    H159663   4.496   4.739  14.891  0.0801  0.7264  1.4254
12724TIP3    H259664   4.411   4.853  14.943 -2.1827 -0.0375 -0.4943
12725TIP3   OH259665   3.831   5.782   4.248 -0.2915 -0.1655  0.1380
12725TIP3    H159666   3.922   5.809   4.250 -0.6106  1.1071 -1.3881
12725TIP3    H259667   3.833   5.691   4.219  0.4771 -0.1194  0.0521
12726TIP3   OH259668   5.569   1.909  11.074 -0.0095  0.1579  0.3456
12726TIP3    H159669   5.508   1.983  11.066 -1.2296 -0.6224  2.2490
12726TIP3    H259670   5.516   1.838  11.110  1.3703 -1.4002 -0.6588
12727TIP3   OH259671   6.586   2.271   2.509  0.0058  0.0835  0.0401
12727TIP3    H159672   6.600   2.197   2.449 -1.5301 -0.6865  0.6042
12727TIP3    H259673   6.656   2.263   2.574  0.1917 -0.5292 -0.2300
12728TIP3   OH259674   5.448   2.725  16.756  0.2805 -0.2493  0.4387
12728TIP3    H159675   5.421   2.652  16.813 -0.5941 -3.1281 -3.4487
12728TIP3    H259676   5.540   2.708  16.738  0.6840  0.9333  1.3026
12729TIP3   OH259677   2.971   5.578  14.915 -0.2840 -0.6057 -0.3947
12729TIP3    H159678   2.881   5.601  14.941 -0.6122 -1.0620 -1.0933
12729TIP3    H259679   2.961   5.496  14.867  0.7617 -1.6688  1.1965
12730TIP3   OH259680   4.850   5.773   0.851  0.1427 -0.0870 -0.3239
12730TIP3    H159681   4.763   5.802   0.878 -0.0766 -1.7812  0.8934
12730TIP3    H259682   4.855   5.795   0.758 -1.5544  0.1039 -0.3938
12731TIP3   OH259683   1.947   3.565   4.702 -0.2860  0.0256  0.0604
12731TIP3    H159684   1.998   3.544   4.624  1.2718  0.9461  0.8096
12731TIP3    H259685   2.007   3.549   4.775 -0.9574  1.4002  0.9288
12732TIP3   OH259686   4.705   3.738  13.095  0.0165 -0.0438  0.0561
12732TIP3    H159687   4.664   3.775  13.173  0.1485  0.4930 -0.1282
12732TIP3    H259688   4.637   3.740  13.028 -0.4010 -1.4036  0.4139
12733TIP3   OH259689   1.530   0.009   1.183  0.0199 -0.2331  0.2957
12733TIP3    H159690   1.497  -0.037   1.260 -0.9011 -0.1744 -0.0504
12733TIP3    H259691   1.576  -0.058   1.133  1.4200 -0.0620  1.3457
12734TIP3   OH259692   0.606   3.732  10.995  0.3954  0.4756  0.8322
12734TIP3    H159693   0.636   3.815  10.959  0.3380 -0.7211 -2.1860
12734TIP3    H259694   0.512   3.744  11.010  0.7287  1.5097  2.1230
12735TIP3   OH259695   1.163   1.778   4.070  0.4058 -0.1598  0.8264
12735TIP3    H159696   1.154   1.839   3.996  3.5632  0.5035  0.9199
12735TIP3    H259697   1.081   1.786   4.118 -0.5333  1.5744 -0.9994
12736TIP3   OH259698   1.655   3.332   3.708 -0.2829 -0.4944 -0.3141
12736TIP3    H159699   1.621   3.259   3.760 -0.5726 -0.0199  0.1715
12736TIP3    H259700   1.592   3.403   3.721  0.0912 -0.0969 -0.6306
12737TIP3   OH259701   6.192   2.673  13.030  0.5108 -0.0074 -0.0455
12737TIP3    H159702   6.154   2.759  13.013  2.0586  0.3741 -1.7340
12737TIP3    H259703   6.266   2.691  13.088 -0.1122 -0.3882  0.8653
12738TIP3   OH259704   5.877   0.371   2.819 -0.0495  0.8311 -0.2400
12738TIP3    H159705   5.814   0.301   2.802  2.8703 -2.3409  1.4373
12738TIP3    H259706   5.916   0.389   2.734 -1.1598  0.8081 -0.7673
12739TIP3   OH259707   0.174   2.206  16.673 -0.2338 -0.0855 -0.3445
12739TIP3    H159708   0.166   2.154  16.753  0.9082 -0.6684 -0.5977
12739TIP3    H259709   0.126   2.287  16.692  0.9780  0.2689  1.3589
12740TIP3   OH259710   2.500   4.743   3.006 -0.0158 -0.1746  0.8147
12740TIP3    H159711   2.412   4.773   2.983  0.5114 -0.4715 -1.7903
12740TIP3    H259712   2.493   4.648   3.010  0.2342 -0.2282  0.2065
12741TIP3   OH259713   3.476   5.237  12.765 -0.1748 -0.3318 -0.8390
12741TIP3    H159714   3.448   5.148  12.745 -0.4916 -0.1763 -1.0985
12741TIP3    H259715   3.520   5.231  12.849 -0.0075 -0.7720 -0.9595
12742TIP3   OH259716   0.644   1.759  14.066 -0.1332 -0.0561 -0.0081
12742TIP3    H159717   0.635   1.808  14.148 -0.9884 -0.7195  0.2971
12742TIP3    H259718   0.645   1.827  13.998  1.7698  0.5632  0.6177
12743TIP3   OH259719   0.703   1.996  16.649  0.4315  0.2125 -0.2837
12743TIP3    H159720   0.732   2.061  16.585  0.9275  0.7507  0.4653
12743TIP3    H259721   0.648   2.046  16.709 -0.5519 -0.4218 -0.6599
12744TIP3   OH259722   2.843   5.913   1.007  0.4989  0.2604  0.1120
12744TIP3    H159723   2.843   5.874   0.920 -1.0359 -0.0062  0.2281
12744TIP3    H259724   2.774   5.980   1.003  0.3677  0.1865  1.1459
12745TIP3   OH259725   0.034   6.796  17.094 -0.4067  0.1890 -0.1021
12745TIP3    H159726   0.108   6.777  17.036 -0.5153 -0.1485 -0.1344
12745TIP3    H259727   0.070   6.853  17.162  0.0663 -0.6362  0.3396
12746TIP3   OH259728   6.008   3.678   5.152 -0.6036 -0.0508 -0.6393
12746TIP3    H159729   6.035   3.596   5.110  0.8584  0.6054 -0.9888
12746TIP3    H259730   6.045   3.673   5.240  1.4315  1.2296 -1.3999
12747TIP3   OH259731   1.440   1.007  12.992  0.4440  0.3917  0.3690
12747TIP3    H159732   1.398   0.964  12.917 -0.0734  0.0876  0.8267
12747TIP3    H259733   1.532   1.012  12.967  0.0729  1.5091 -0.8523
12748TIP3   OH259734   2.335   1.695  15.687  0.2190 -0.4202 -0.0942
12748TIP3    H159735   2.294   1.660  15.766 -0.8006  0.7630 -0.0688
12748TIP3    H259736   2.425   1.714  15.713 -0.3706  0.8874  1.0990
12749TIP3   OH259737   2.828   2.027  14.892 -0.1526  0.3577 -0.2793
12749TIP3    H159738   2.847   2.115  14.857  1.1556  0.1759 -0.0387
12749TIP3    H259739   2.878   1.968  14.836 -0.3353 -0.1661  0.1092
12750TIP3   OH259740   4.190   5.319  11.353 -0.4366 -0.0514 -0.1781
12750TIP3    H159741   4.244   5.249  11.315  0.4452 -0.5878  2.0009
12750TIP3    H259742   4.231   5.338  11.437 -2.6485  0.7570  0.7478
12751TIP3   OH259743   6.230   4.117  12.992  0.3093  0.5251 -0.1743
12751TIP3    H159744   6.284   4.187  12.957  2.9892 -1.2614  0.2423
12751TIP3    H259745   6.214   4.058  12.918  1.2643 -0.3766  0.3350
12752TIP3   OH259746   4.965   1.160   3.001  0.3058  0.5043  0.1427
12752TIP3    H159747   4.923   1.139   3.085 -0.3444  0.1448 -0.2715
12752TIP3    H259748   5.054   1.185   3.025  0.1952  0.1712  0.9233
12753TIP3   OH259749   2.593   5.353   4.687  0.5747 -0.3868  0.0150
12753TIP3    H159750   2.556   5.439   4.664  3.4436  0.9138 -0.0044
12753TIP3    H259751   2.566   5.296   4.615 -1.9801  0.2893  0.3776
12754TIP3   OH259752   6.265   4.963   0.483  0.3794  0.1572  0.1452
12754TIP3    H159753   6.272   5.034   0.547 -0.7215  2.2900 -2.0173
12754TIP3    H259754   6.173   4.961   0.459  0.9451  0.0495 -2.0974
12755TIP3   OH259755   5.589   5.193  12.131  0.5939 -0.1169 -0.4288
12755TIP3    H159756   5.570   5.271  12.078  0.9846  1.1167  1.1997
12755TIP3    H259757   5.511   5.138  12.121 -0.5181  1.3498 -0.0848
12756TIP3   OH259758   4.723   4.700  16.135 -0.1796  0.0236 -0.3356
12756TIP3    H159759   4.814   4.710  16.163 -0.5270 -1.8628  1.5479
12756TIP3    H259760   4.675   4.769  16.182  0.1522  0.6410 -0.8825
12757TIP3   OH259761   6.357   4.303   2.380  0.9998 -0.0735 -0.0587
12757TIP3    H159762   6.337   4.390   2.414  1.4599  0.9290 -2.3141
12757TIP3    H259763   6.346   4.310   2.286  3.3474 -1.8137 -0.5308
12758TIP3   OH259764   1.340   1.316   4.762 -0.0579  0.3678 -0.3108
12758TIP3    H159765   1.409   1.256   4.790  0.7739  1.1732 -0.6022
12758TIP3    H259766   1.380   1.403   4.768 -0.6274  0.7393 -1.7231
12759TIP3   OH259767   0.003   2.332   5.400  0.4878 -0.0837  0.1157
12759TIP3    H159768  -0.034   2.311   5.486 -1.8596  0.3162 -0.7741
12759TIP3    H259769  -0.028   2.421   5.381  2.4133  0.5031 -0.3982
12760TIP3   OH259770   5.484   0.936   4.301  0.3003 -0.1872 -0.4701
12760TIP3    H159771   5.515   0.865   4.357 -0.6501  0.4450  0.8859
12760TIP3    H259772   5.394   0.952   4.330  1.0595  2.7015  0.3923
12761TIP3   OH259773   2.790   4.903  17.041  0.1746  0.1055  0.0061
12761TIP3    H159774   2.881   4.887  17.063  0.8777  1.2433 -1.8738
12761TIP3    H259775   2.743   4.896  17.124  2.0838  0.3001  1.1309
12762TIP3   OH259776   5.046   5.365   4.636 -0.5122 -0.1045  0.0245
12762TIP3    H159777   5.079   5.279   4.663  0.1365  0.4290  0.9628
12762TIP3    H259778   5.098   5.388   4.559  1.2527  0.6815  1.4266
12763TIP3   OH259779   0.110   5.735  12.865 -0.8847 -0.1407  0.5800
12763TIP3    H159780   0.094   5.760  12.774 -0.1540 -0.1825  0.4386
12763TIP3    H259781   0.141   5.645  12.860 -0.2523  0.0622  0.8182
12764TIP3   OH259782   3.517   6.050   2.137  0.1664  0.0048 -0.8164
12764TIP3    H159783   3.583   6.002   2.187  0.1264  1.3095  0.5182
12764TIP3    H259784   3.566   6.122   2.097 -0.5274  1.4008  0.7559
12765TIP3   OH259785   6.535   4.756   2.915 -0.4579 -0.2907  0.1321
12765TIP3    H159786   6.488   4.838   2.902 -0.3098  0.0201  1.4793
12765TIP3    H259787   6.618   4.767   2.868  0.5553  1.2355  2.2086
12766TIP3   OH259788   3.235   4.863   4.552 -0.3577  0.3321 -0.2388
12766TIP3    H159789   3.242   4.951   4.590 -0.3190  0.9297 -1.5989
12766TIP3    H259790   3.211   4.807   4.626 -4.9422  2.2135 -0.1199
12767TIP3   OH259791   0.467   2.113   0.963 -0.3410  0.4468 -0.0929
12767TIP3    H159792   0.478   2.180   0.895  1.6369  0.8499  0.5956
12767TIP3    H259793   0.444   2.033   0.914 -0.8700  1.1879 -1.0685
12768TIP3   OH259794   3.145   4.624  16.396 -0.0977  0.5279 -0.2249
12768TIP3    H159795   3.223   4.570  16.384 -0.0866  0.8787 -1.8870
12768TIP3    H259796   3.148   4.650  16.488  1.4550  0.0964 -0.1329
12769TIP3   OH259797   6.732   5.833  16.664 -0.7237 -0.0833  0.5112
12769TIP3    H159798   6.696   5.746  16.646 -0.3435  0.1096 -1.2378
12769TIP3    H259799   6.696   5.889  16.596 -0.3958  0.9975  1.2085
12770TIP3   OH259800   1.094   2.164  14.751  0.3132  0.0719  0.0981
12770TIP3    H159801   1.057   2.087  14.707  0.0636 -0.1337  0.6594
12770TIP3    H259802   1.182   2.173  14.715  0.2352 -0.3002 -0.1884
12771TIP3   OH259803   0.394   0.487   4.364 -0.0074  0.1838  0.0045
12771TIP3    H159804   0.431   0.399   4.357 -0.5993 -0.2108  1.5206
12771TIP3    H259805   0.336   0.482   4.440 -2.1944  1.1352 -1.5381
12772TIP3   OH259806   6.598   1.329  11.889  0.3161  0.5361  0.2613
12772TIP3    H159807   6.689   1.358  11.884  0.6473 -0.6160 -0.4864
12772TIP3    H259808   6.550   1.406  11.919  1.0719  2.1250 -2.4247
12773TIP3   OH259809   1.723   3.355  15.094 -0.1356 -0.6268  0.3379
12773TIP3    H159810   1.694   3.268  15.120 -1.3276 -0.5719 -0.7201
12773TIP3    H259811   1.642   3.405  15.081  0.4539 -0.0380 -1.2786
12774TIP3   OH259812   6.546   6.048  12.409 -0.0319 -0.5492 -0.0092
12774TIP3    H159813   6.487   6.104  12.458  1.8961  1.6913 -0.1531
12774TIP3    H259814   6.489   5.993  12.356 -2.0202 -0.0805  1.6011
12775TIP3   OH259815   1.708   1.029  11.517  0.1988  0.0591  0.0492
12775TIP3    H159816   1.749   0.998  11.598  0.5841 -0.6060 -0.3906
12775TIP3    H259817   1.781   1.062  11.464  0.2333 -1.4109 -0.8618
12776TIP3   OH259818   5.055   4.104  15.787 -0.5846  0.5116 -0.0748
12776TIP3    H159819   5.112   4.177  15.764  0.7907  0.0082  1.6748
12776TIP3    H259820   5.100   4.059  15.859 -0.4482 -3.2015 -2.3440
12777TIP3   OH259821   5.630   1.701   3.973 -0.1723 -0.1336 -0.0096
12777TIP3    H159822   5.623   1.627   4.034  0.4798 -1.1050 -1.0713
12777TIP3    H259823   5.546   1.702   3.927 -0.9334  1.0419  1.3679
12778TIP3   OH259824   0.668   1.621   2.279 -0.2339 -0.3117 -0.0789
12778TIP3    H159825   0.604   1.618   2.208 -0.0598 -0.5412 -0.2289
12778TIP3    H259826   0.625   1.577   2.353  0.5447 -2.4254 -0.8346
12779TIP3   OH259827   3.843   0.926  12.794  0.1415 -0.5463  0.2930
12779TIP3    H159828   3.902   0.997  12.819  1.3134 -1.6566  0.7409
12779TIP3    H259829   3.901   0.857  12.762 -0.9578 -1.4501  0.2186
12780TIP3   OH259830   4.673   5.104  11.402  0.7045  0.1253 -0.4450
12780TIP3    H159831   4.696   5.041  11.333 -2.4528 -1.8119  0.1520
12780TIP3    H259832   4.632   5.177  11.355 -0.5456 -0.7475 -0.7362
12781TIP3   OH259833   3.319   3.169   4.342 -0.2702 -0.5809 -0.5888
12781TIP3    H159834   3.319   3.263   4.328  0.7424 -0.4142  0.4754
12781TIP3    H259835   3.261   3.154   4.416  0.9224 -0.5975  0.3662
12782TIP3   OH259836   1.693   4.068  11.607  0.0985  0.1261 -0.2519
12782TIP3    H159837   1.649   4.054  11.523  0.9961  0.1973 -0.7327
12782TIP3    H259838   1.730   3.983  11.629  0.2767  0.2272 -0.1644
12783TIP3   OH259839   2.324   0.252  14.003  0.1021 -0.3436  0.1203
12783TIP3    H159840   2.303   0.322  14.064  1.9660  0.8940 -0.6203
12783TIP3    H259841   2.370   0.186  14.056 -0.7211 -0.5377  0.5983
12784TIP3   OH259842   1.588   1.666   0.482  0.1756 -0.1325 -0.1266
12784TIP3    H159843   1.601   1.579   0.519  1.7557  0.1064 -0.0587
12784TIP3    H259844   1.621   1.726   0.549 -0.2424  0.4884 -0.4621
12785TIP3   OH259845   0.699   2.358   3.971 -0.2457 -0.2206  0.5939
12785TIP3    H159846   0.713   2.386   3.880  3.6233 -0.6875  0.9471
12785TIP3    H259847   0.660   2.271   3.963  2.6747 -1.4822 -0.7491
12786TIP3   OH259848   4.187   5.292   2.150  0.4894  0.1374  0.1070
12786TIP3    H159849   4.228   5.218   2.196 -0.3327 -1.3973 -1.5766
12786TIP3    H259850   4.260   5.339   2.110  0.8376 -1.0597 -0.6712
12787TIP3   OH259851   3.601   2.535  13.927  0.2369  0.1503 -0.8139
12787TIP3    H159852   3.656   2.460  13.905  0.3973  0.5029 -1.6243
12787TIP3    H259853   3.614   2.597  13.855 -0.0285  0.8818 -0.2381
12788TIP3   OH259854   0.871   1.246  14.559 -0.1311  0.5058 -0.4479
12788TIP3    H159855   0.849   1.328  14.605 -2.6848 -0.0352 -0.6448
12788TIP3    H259856   0.922   1.274  14.483  1.4645  1.6653  1.0060
12789TIP3   OH259857   1.353   4.808  16.619  0.2671  0.2117  0.2266
12789TIP3    H159858   1.272   4.857  16.611 -0.2805 -0.2712  2.5018
12789TIP3    H259859   1.387   4.833  16.705  1.3507 -1.3515  0.2599
12790TIP3   OH259860   1.745   0.182  16.889  0.0436 -0.5431  0.4447
12790TIP3    H159861   1.737   0.199  16.795 -1.5457 -0.2286  0.6220
12790TIP3    H259862   1.780   0.093  16.895  0.5093 -0.4207 -0.4424
12791TIP3   OH259863   3.284   5.410  14.363 -0.0039 -0.2738  0.3673
12791TIP3    H159864   3.336   5.332  14.382  0.8437  0.4064  0.9057
12791TIP3    H259865   3.246   5.393  14.277  0.8747 -0.9119  0.0859
12792TIP3   OH259866   2.477   2.926   1.208  0.0364  0.6684 -0.0127
12792TIP3    H159867   2.510   3.012   1.236  0.2944  0.3440  0.6837
12792TIP3    H259868   2.526   2.907   1.128 -0.3514  1.3751 -0.4258
12793TIP3   OH259869   4.827   1.978  14.163 -0.2798  0.2072 -0.5338
12793TIP3    H159870   4.822   1.950  14.255  1.0609  0.0986 -0.4863
12793TIP3    H259871   4.764   2.051  14.158 -1.0280 -0.3641  0.2404
12794TIP3   OH259872   0.159   0.453  13.495 -0.3854  0.0104 -0.1734
12794TIP3    H159873   0.225   0.505  13.449  1.5282 -3.6690 -1.7309
12794TIP3    H259874   0.187   0.454  13.586 -0.5922  1.9352 -0.0971
12795TIP3   OH259875   3.478   2.629   0.915 -0.0547  0.1216 -0.2575
12795TIP3    H159876   3.418   2.557   0.894  0.0768 -0.2998  0.7834
12795TIP3    H259877   3.431   2.682   0.979  0.2729  0.3753 -0.2284
12796TIP3   OH259878   3.065   6.641  16.682 -0.5874 -0.3144  0.0813
12796TIP3    H159879   3.053   6.736  16.670  1.6417  0.0478  0.5746
12796TIP3    H259880   2.976   6.606  16.680 -1.4295  1.7478 -0.4535
12797TIP3   OH259881   4.438   3.582  11.439 -0.1923 -0.2551  0.8490
12797TIP3    H159882   4.379   3.656  11.455  0.3692  0.2376  0.6866
12797TIP3    H259883   4.453   3.543  11.525  0.0223  0.2154  1.0251
12798TIP3   OH259884   4.090   2.070  14.630 -0.7601  0.4082 -0.3462
12798TIP3    H159885   4.123   2.053  14.542  1.1824  2.6264 -0.1091
12798TIP3    H259886   4.144   2.143  14.662 -0.8051 -0.9542  3.0255
12799TIP3   OH259887   2.990   5.891   3.630 -0.4173  0.7238  0.2664
12799TIP3    H159888   3.039   5.957   3.679  2.9929 -2.0972  0.8445
12799TIP3    H259889   2.957   5.831   3.697 -0.1367 -0.2927 -0.4931
12800TIP3   OH259890   3.758   1.298  17.073 -0.3107 -0.2203  0.0440
12800TIP3    H159891   3.774   1.369  17.136 -1.5750  0.2290 -0.1321
12800TIP3    H259892   3.725   1.342  16.995  1.6163 -0.7415 -1.0901
12801TIP3   OH259893   1.223   2.314   2.964 -0.1569 -0.4667 -0.3053
12801TIP3    H159894   1.187   2.271   2.886  2.5353  0.6931 -2.2851
12801TIP3    H259895   1.303   2.265   2.983  0.6450  0.9635  0.0574
12802TIP3   OH259896   0.277   2.209   3.069 -0.7498  0.0126 -0.0604
12802TIP3    H159897   0.251   2.301   3.062  0.7920  0.3667 -1.3202
12802TIP3    H259898   0.359   2.204   3.020 -0.6469 -1.9656  0.3082
12803TIP3   OH259899   0.538   4.105   1.144  0.2551 -0.2405  0.1744
12803TIP3    H159900   0.531   4.128   1.052 -0.1168 -0.6596  0.0955
12803TIP3    H259901   0.607   4.162   1.178  1.6452 -1.3148 -0.7666
12804TIP3   OH259902   1.165   6.651  12.831  0.3966  0.7338  0.1330
12804TIP3    H159903   1.243   6.707  12.836  0.3448  0.7760  0.4386
12804TIP3    H259904   1.092   6.713  12.827  0.4399  0.7145 -1.2999
12805TIP3   OH259905   2.862   3.774  11.837  0.2176  0.0677  0.4224
12805TIP3    H159906   2.870   3.866  11.812  0.7102  0.4786  1.9896
12805TIP3    H259907   2.775   3.766  11.876  0.6436  0.1573  1.4027
12806TIP3   OH259908   6.222   4.235   2.693  0.0842  0.1412 -0.4518
12806TIP3    H159909   6.157   4.299   2.721 -0.8713 -1.7570  1.7948
12806TIP3    H259910   6.265   4.207   2.774  1.9775 -0.4667 -1.6339
12807TIP3   OH259911   0.334   2.484   5.645  0.0882 -0.2972  0.2429
12807TIP3    H159912   0.319   2.484   5.550  1.9390  0.4820 -0.0686
12807TIP3    H259913   0.383   2.403   5.660 -1.2052 -1.0017  0.7143
12808TIP3   OH259914   2.985   4.023  16.840  0.2687 -0.3919 -0.3429
12808TIP3    H159915   3.045   4.058  16.906 -0.2076 -1.4332  0.6689
12808TIP3    H259916   3.042   3.992  16.770  0.8671 -0.4569  0.1641
12809TIP3   OH259917   3.010   4.203   1.044 -0.1203 -0.1715  0.6220
12809TIP3    H159918   2.942   4.269   1.029 -0.7768 -1.2658 -1.4517
12809TIP3    H259919   3.091   4.253   1.054 -0.3512  0.9045 -2.4638
12810TIP3   OH259920   3.093   0.558  16.278 -0.5192 -0.4269 -0.5685
12810TIP3    H159921   3.037   0.482  16.262 -1.1417 -0.1770  0.4240
12810TIP3    H259922   3.126   0.545  16.367  0.9555 -0.5488 -1.1188
12811TIP3   OH259923   4.302   5.475  14.917 -0.3209  0.3135  0.1730
12811TIP3    H159924   4.325   5.458  15.008 -1.0182 -0.7682  0.1582
12811TIP3    H259925   4.209   5.494  14.919 -0.3374  0.2903 -0.3187
12812TIP3   OH259926   5.391   3.619   5.374  0.5159  0.2591  0.0244
12812TIP3    H159927   5.358   3.642   5.461  1.0502  0.1609  0.2513
12812TIP3    H259928   5.486   3.629   5.381  0.4642  1.4955 -0.9065
12813TIP3   OH259929   1.514   0.267   6.528 -0.6296  0.2541  0.3325
12813TIP3    H159930   1.448   0.281   6.461  0.2722  2.3967 -0.1595
12813TIP3    H259931   1.465   0.265   6.610 -1.6345 -1.4879 -0.2823
12814TIP3   OH259932   4.307   1.199  16.856  0.1596 -1.0222  0.4373
12814TIP3    H159933   4.362   1.130  16.819 -0.9323 -1.1994 -0.8924
12814TIP3    H259934   4.296   1.262  16.785  1.1368  0.5253  1.6367
12815TIP3   OH259935   5.933   6.610  13.865  0.0268  0.0922 -0.3440
12815TIP3    H159936   5.933   6.515  13.848  1.6878  0.1669 -0.8202
12815TIP3    H259937   6.022   6.638  13.846 -0.6137  1.8807 -0.8518
12816TIP3   OH259938   6.057   6.356  12.514  0.3877  0.2842 -0.2185
12816TIP3    H159939   6.085   6.420  12.448 -0.3913 -1.4271 -2.2701
12816TIP3    H259940   5.989   6.305  12.470 -0.7182 -0.3923  2.1975
12817TIP3   OH259941   1.400   3.344   3.995 -0.0819  0.0248 -0.2472
12817TIP3    H159942   1.375   3.422   3.946  1.1881  0.0157 -0.9406
12817TIP3    H259943   1.455   3.378   4.066 -3.5591  0.2557  2.4479
12818TIP3   OH259944   5.216   1.998   1.058  0.4532  0.0704 -0.8230
12818TIP3    H159945   5.177   2.023   1.142 -1.1933 -1.6086 -1.0309
12818TIP3    H259946   5.157   2.035   0.993  0.2322 -0.8818 -1.1779
12819TIP3   OH259947   1.052   4.270   1.575 -0.9472  0.0517 -0.1727
12819TIP3    H159948   0.987   4.254   1.507  0.0001 -2.3537 -0.5558
12819TIP3    H259949   1.024   4.216   1.649  0.3493 -0.6457 -0.1729
12820TIP3   OH259950   2.687   6.703  11.049 -0.2145 -0.0918  0.7705
12820TIP3    H159951   2.608   6.690  10.998 -0.6079  0.4570  1.2351
12820TIP3    H259952   2.688   6.630  11.112 -2.0761  1.7014  2.9427
12821TIP3   OH259953   3.810   1.445  13.495  0.2240  0.1642 -0.7501
12821TIP3    H159954   3.801   1.535  13.466  0.5593  0.4783  0.1062
12821TIP3    H259955   3.872   1.449  13.567 -0.2072 -0.6798 -0.3228
12822TIP3   OH259956   4.018   4.512   2.581  0.9471 -0.3842  0.1589
12822TIP3    H159957   4.070   4.502   2.661 -0.4944  0.5898  1.2280
12822TIP3    H259958   4.051   4.592   2.541 -0.1149  0.5565  1.1427
12823TIP3   OH259959   0.115   5.684   5.582  0.8492  0.4253  0.0281
12823TIP3    H159960   0.175   5.726   5.643 -0.3691  0.7161  1.0554
12823TIP3    H259961   0.073   5.615   5.633 -0.6315  1.0692 -0.2874
12824TIP3   OH259962   4.647   0.156   0.237 -0.1579  0.3245 -0.1804
12824TIP3    H159963   4.612   0.091   0.299 -2.3640  1.0364 -0.6547
12824TIP3    H259964   4.691   0.104   0.170 -0.1498 -0.5874  0.5242
12825TIP3   OH259965   1.526   5.495   0.117 -0.7229 -0.6118 -0.5195
12825TIP3    H159966   1.442   5.457   0.142 -1.5112 -0.9745 -3.5449
12825TIP3    H259967   1.504   5.573   0.067  0.7625 -0.2887 -0.7088
12826TIP3   OH259968   2.566   4.085   2.931 -0.2499  0.0802 -0.0507
12826TIP3    H159969   2.511   4.036   2.869 -1.5100  0.8328  0.4527
12826TIP3    H259970   2.538   4.176   2.921  0.8305  0.4573  0.3136
12827TIP3   OH259971   3.143   0.004   4.007 -0.0408  0.0793 -0.5541
12827TIP3    H159972   3.119   0.040   3.921  0.4982  0.9662 -0.3413
12827TIP3    H259973   3.238   0.018   4.012 -0.2026  0.8209  0.5563
12828TIP3   OH259974   6.510   1.113   0.729 -0.0956  0.2359 -0.0428
12828TIP3    H159975   6.521   1.025   0.763 -2.0240  0.4935  1.3317
12828TIP3    H259976   6.503   1.101   0.634 -2.3779 -1.3400  0.2865
12829TIP3   OH259977   5.776   1.810   4.439  0.3160 -0.4077 -0.3275
12829TIP3    H159978   5.845   1.751   4.470  0.6342  0.1326  0.0023
12829TIP3    H259979   5.743   1.852   4.519  0.9641  0.8072 -0.6849
12830TIP3   OH259980   6.108   4.003  10.464 -0.2560  0.2268 -0.0279
12830TIP3    H159981   6.135   3.966  10.380 -1.3052  0.7895 -0.6276
12830TIP3    H259982   6.077   4.091  10.443 -3.6164 -0.7622  0.3976
12831TIP3   OH259983   5.317   0.298  15.611 -0.3089  0.0209 -0.0590
12831TIP3    H159984   5.275   0.346  15.682 -1.8536  1.0984 -1.6707
12831TIP3    H259985   5.326   0.362  15.540  3.0885 -0.4753 -0.1627
12832TIP3   OH259986   2.378   3.352   4.440  0.3468  0.3548 -0.0889
12832TIP3    H159987   2.471   3.336   4.460 -0.1269 -0.7568  1.3603
12832TIP3    H259988   2.332   3.322   4.518 -1.2095  1.4126 -0.5798
12833TIP3   OH259989   4.252   5.531   3.569 -0.2178  0.4098  1.1883
12833TIP3    H159990   4.227   5.440   3.554  1.0890 -0.0075  1.4413
12833TIP3    H259991   4.339   5.526   3.610 -0.1336  1.7635  1.2156
12834TIP3   OH259992   4.253   3.787  10.780  0.5578  0.0683  0.3309
12834TIP3    H159993   4.267   3.863  10.837 -1.0055 -0.1274  0.9971
12834TIP3    H259994   4.270   3.820  10.692  2.1095  0.6093  0.8091
12835TIP3   OH259995   2.261   4.157   5.474 -0.5209  0.0816 -0.6643
12835TIP3    H159996   2.314   4.116   5.542 -2.5135 -1.0721  0.2359
12835TIP3    H259997   2.272   4.251   5.489  0.8275 -0.1458 -0.1579
12836TIP3   OH259998   5.270   5.728  13.543 -0.0463  0.1689 -0.0284
12836TIP3    H159999   5.262   5.653  13.483 -0.1112  0.2191 -0.0823
12836TIP3    H260000   5.285   5.803  13.485  0.2620  0.1607  0.0378
12837TIP3   OH260001   2.280   2.707   2.332 -0.8536 -0.7480 -0.8517
12837TIP3    H160002   2.321   2.645   2.271  0.2270 -1.2573  0.3749
12837TIP3    H260003   2.249   2.653   2.405  0.1718  0.1444  0.2688
12838TIP3   OH260004   5.888   2.767  12.066 -0.6423 -0.7346 -0.3776
12838TIP3    H160005   5.932   2.783  12.150 -1.4327  0.9859 -0.2650
12838TIP3    H260006   5.867   2.854  12.033 -0.6230 -1.4123 -2.2275
12839TIP3   OH260007   0.814   5.286   0.622  0.2492 -0.3802 -0.7421
12839TIP3    H160008   0.838   5.325   0.706 -0.4674 -0.4248 -0.5089
12839TIP3    H260009   0.734   5.332   0.596  0.2846 -0.5941 -1.2426
12840TIP3   OH260010   5.391   3.954   2.129 -0.1503 -0.1306 -0.7958
12840TIP3    H160011   5.332   4.017   2.170  0.0819 -0.9614  0.8530
12840TIP3    H260012   5.460   3.940   2.194  0.0229 -1.7678 -1.3106
12841TIP3   OH260013   4.954   5.625   3.278 -0.5787  0.2579 -0.3923
12841TIP3    H160014   5.002   5.670   3.347  0.4167 -0.1142 -0.8373
12841TIP3    H260015   4.876   5.680   3.263 -0.4714  0.6724  0.5646
12842TIP3   OH260016   4.446   3.783   0.767  0.3110  0.1873 -0.6580
12842TIP3    H160017   4.486   3.698   0.747  1.1247  0.6299 -0.9314
12842TIP3    H260018   4.519   3.838   0.795  0.3024  1.6923 -3.3876
12843TIP3   OH260019   5.613   2.403  13.083 -0.3559 -0.1337 -0.2057
12843TIP3    H160020   5.677   2.420  13.153 -0.9834  0.0686  0.3246
12843TIP3    H260021   5.630   2.312  13.058  0.6113  0.1363 -0.5638
12844TIP3   OH260022   4.197   0.995  11.785 -0.3324 -0.3238 -0.0831
12844TIP3    H160023   4.287   1.014  11.811 -0.6804  1.1682  0.0806
12844TIP3    H260024   4.205   0.925  11.721  1.1830  1.7596 -2.2511
12845TIP3   OH260025   2.020   3.421   0.098  0.1688 -0.2403 -0.3013
12845TIP3    H160026   1.962   3.480   0.051  0.2207 -1.4090 -1.8886
12845TIP3    H260027   2.106   3.433   0.056  0.2298 -1.2442 -0.4978
12846TIP3   OH260028   5.648   1.094  12.240  0.0193  0.0836  0.2664
12846TIP3    H160029   5.667   1.073  12.148  1.0887 -0.0590  0.5093
12846TIP3    H260030   5.570   1.043  12.261 -1.0116  1.1530 -0.9535
12847TIP3   OH260031   1.920   1.564   1.697  0.1087 -0.1439 -0.1761
12847TIP3    H160032   1.942   1.618   1.621 -1.1218  0.2645 -0.2437
12847TIP3    H260033   1.855   1.502   1.664  0.7620 -1.0093  0.1510
12848TIP3   OH260034   0.189   1.635   6.143 -0.5140 -0.4054 -0.8697
12848TIP3    H160035   0.120   1.653   6.080  0.1480  0.0441 -1.4701
12848TIP3    H260036   0.175   1.697   6.214  0.5911  1.1958 -2.0187
12849TIP3   OH260037   5.888   2.871  15.814  0.4615 -0.7897 -0.5284
12849TIP3    H160038   5.839   2.920  15.747  1.0000 -1.8704 -1.7507
12849TIP3    H260039   5.838   2.790  15.824  2.6113 -2.4646 -2.7224
12850TIP3   OH260040   3.934   2.562  12.263  0.0678 -0.6676 -0.1145
12850TIP3    H160041   4.009   2.543  12.207 -0.9215 -0.2461 -1.6368
12850TIP3    H260042   3.889   2.478  12.273  0.0155 -0.6617 -0.3022
12851TIP3   OH260043   3.794   5.915  14.496 -0.6893  0.9683  0.2753
12851TIP3    H160044   3.743   5.953  14.425 -1.7989 -0.3096  0.3579
12851TIP3    H260045   3.728   5.886  14.560  0.1059 -0.8953  0.2863
12852TIP3   OH260046   0.217   4.390  13.763 -0.3480 -0.3656  0.0774
12852TIP3    H160047   0.277   4.464  13.753  0.2158 -0.3962  2.7903
12852TIP3    H260048   0.130   4.429  13.753 -0.0835  0.8245  2.0823
12853TIP3   OH260049   2.422   2.497   1.830 -0.9560 -0.6245  0.5203
12853TIP3    H160050   2.393   2.542   1.750  0.7449 -1.6882 -0.7361
12853TIP3    H260051   2.358   2.427   1.842 -2.0709  0.4342  0.9695
12854TIP3   OH260052   4.383   6.072  12.583  0.3606 -0.2998  0.6051
12854TIP3    H160053   4.322   6.033  12.646  2.2398 -0.6348  2.2802
12854TIP3    H260054   4.455   6.009  12.578  2.0666  1.5511  1.1210
12855TIP3   OH260055   6.092   0.878  17.049  0.1756 -0.7674  0.3115
12855TIP3    H160056   6.059   0.864  17.137  1.3079  0.0787  0.8858
12855TIP3    H260057   6.185   0.896  17.061  0.2676 -0.3070 -1.0204
12856TIP3   OH260058   0.262   3.786  15.598 -0.1818  0.3696  0.0279
12856TIP3    H160059   0.313   3.863  15.571 -0.1540  0.1360 -0.5825
12856TIP3    H260060   0.260   3.792  15.694  0.1610  0.9144  0.0052
12857TIP3   OH260061   4.458   2.094  15.410 -0.0231 -0.1085  0.0865
12857TIP3    H160062   4.441   2.126  15.498 -0.5497 -0.0398 -0.0371
12857TIP3    H260063   4.431   2.166  15.353  1.0539  0.1525 -0.1001
12858TIP3   OH260064   5.624   3.054   0.374  0.2019 -0.3357  0.2460
12858TIP3    H160065   5.553   3.099   0.327  0.5775 -0.7458 -0.7109
12858TIP3    H260066   5.632   3.103   0.456 -0.7161  0.1485  0.0569
12859TIP3   OH260067   5.119   0.420   0.404  0.1080  0.5890 -0.7066
12859TIP3    H160068   5.026   0.432   0.423  0.1468 -0.1432 -0.0450
12859TIP3    H260069   5.122   0.344   0.346  0.4537 -0.5920  0.8417
12860TIP3   OH260070   0.201   6.815  14.260  0.0887 -0.8532 -0.4686
12860TIP3    H160071   0.196   6.779  14.171  2.8049 -2.1677 -0.1231
12860TIP3    H260072   0.222   6.908  14.247 -3.0648 -0.1733 -1.2478
12861TIP3   OH260073   5.025   1.223  16.689 -0.1887  0.0205 -0.0004
12861TIP3    H160074   4.966   1.297  16.705 -0.1049  0.3867 -1.2753
12861TIP3    H260075   5.074   1.249  16.610  1.8632 -0.1529  1.1795
12862TIP3   OH260076   3.590   1.804  12.866  0.1517 -0.0793 -0.0312
12862TIP3    H160077   3.655   1.780  12.932  0.0426  0.6686  0.3514
12862TIP3    H260078   3.605   1.742  12.794  2.1561  0.8985 -0.5087
12863TIP3   OH260079   2.360   2.064   1.685 -0.5738  0.4461 -0.1444
12863TIP3    H160080   2.411   2.114   1.621 -1.8440  0.6142 -1.0473
12863TIP3    H260081   2.393   1.975   1.677  0.6055  0.8230  0.3420
12864TIP3   OH260082   0.269   6.098  11.709 -0.0052  0.0463 -0.4444
12864TIP3    H160083   0.270   6.002  11.706 -2.5413 -0.0127 -0.4325
12864TIP3    H260084   0.178   6.120  11.730  0.9665  2.4061  1.5173
12865TIP3   OH260085   6.422   0.280  11.420 -0.0390  0.7093  0.3086
12865TIP3    H160086   6.355   0.249  11.359  1.8134 -1.2965 -0.7641
12865TIP3    H260087   6.375   0.340  11.478 -2.6680 -0.3332 -0.6602
12866TIP3   OH260088   5.565   5.285  15.650 -0.5744 -0.1539 -0.4602
12866TIP3    H160089   5.497   5.267  15.715 -1.4196 -1.8132 -1.7562
12866TIP3    H260090   5.605   5.200  15.632  2.6789  0.9489  1.0954
12867TIP3   OH260091   1.522   3.033   0.213 -0.4340  0.0949 -0.5975
12867TIP3    H160092   1.473   2.956   0.184 -0.8274 -0.2558  0.9775
12867TIP3    H260093   1.565   3.006   0.293  0.0364  1.2882 -0.4303
12868TIP3   OH260094   3.736   2.828   2.524 -0.4055 -0.3157  0.0627
12868TIP3    H160095   3.693   2.743   2.508 -0.5153  0.0685 -1.7498
12868TIP3    H260096   3.829   2.807   2.527 -0.4135 -0.4650 -0.6543
12869TIP3   OH260097   4.284   3.915  12.631  0.2202  0.1871 -0.2923
12869TIP3    H160098   4.333   3.843  12.669 -0.4006 -0.6438 -1.0299
12869TIP3    H260099   4.327   3.994  12.663  0.4896 -0.5033  1.0662
12870TIP3   OH260100   2.182   5.527   1.945 -0.3005  0.1201 -0.4566
12870TIP3    H160101   2.131   5.476   1.882 -0.0859  0.7108 -1.1184
12870TIP3    H260102   2.182   5.616   1.909  1.6768  0.0051 -0.7710
12871TIP3   OH260103   2.099   3.354  12.955 -0.3534  0.3504 -0.1654
12871TIP3    H160104   2.082   3.289  13.023  1.7070  1.0461  1.0262
12871TIP3    H260105   2.041   3.427  12.976  0.2044  0.5232  0.8098
12872TIP3   OH260106   1.996   3.528  13.791  0.2867 -0.5540  0.2743
12872TIP3    H160107   1.998   3.450  13.846  2.2796 -0.6435  0.1111
12872TIP3    H260108   1.998   3.495  13.702  0.1515 -0.3457  0.1931
12873TIP3   OH260109   2.611   0.113   3.542 -0.2655 -0.8236  0.1961
12873TIP3    H160110   2.544   0.113   3.611 -0.7473  0.3683 -0.2485
12873TIP3    H260111   2.616   0.022   3.513 -0.8282 -1.1433  1.0646
12874TIP3   OH260112   4.192   2.962  16.854  0.3016  0.3110 -0.1558
12874TIP3    H160113   4.105   2.947  16.816  0.2356  0.8691 -0.2208
12874TIP3    H260114   4.182   2.941  16.947  0.6188 -1.6974 -0.5557
12875TIP3   OH260115   4.112   0.482  15.973 -0.8710 -0.1409 -0.0612
12875TIP3    H160116   4.130   0.496  16.067  1.2137 -1.3706 -0.2348
12875TIP3    H260117   4.133   0.566  15.932  1.3632 -0.5379  0.2015
12876TIP3   OH260118   1.520   1.595   6.056 -0.2142 -0.3379  0.6108
12876TIP3    H160119   1.441   1.569   6.007 -0.2384 -0.1470  0.5480
12876TIP3    H260120   1.573   1.642   5.992  0.0209 -0.6006  0.6128
12877TIP3   OH260121   5.771   6.555  17.026  0.2642  0.8534  0.2181
12877TIP3    H160122   5.770   6.630  16.967  1.1635  1.6238  1.1630
12877TIP3    H260123   5.863   6.543  17.049  0.0910 -0.3525  0.3268
12878TIP3   OH260124   5.179   6.444   5.583  0.1852  0.3637  0.1572
12878TIP3    H160125   5.102   6.461   5.529  0.2426  0.3605  0.0739
12878TIP3    H260126   5.145   6.434   5.672  0.1006  0.4624  0.1351
12879TIP3   OH260127   1.997   4.356  14.251  0.1379  0.3051 -0.1388
12879TIP3    H160128   2.025   4.408  14.326  1.5835  1.5589 -1.5069
12879TIP3    H260129   2.070   4.296  14.234 -0.5204 -0.5274 -0.0453
12880TIP3   OH260130   4.903   2.231   5.383  1.0571  0.4987 -0.2785
12880TIP3    H160131   4.946   2.209   5.300 -0.8826  1.6423 -1.6365
12880TIP3    H260132   4.973   2.266   5.438  2.2578  0.3388 -1.6917
12881TIP3   OH260133   2.179   3.171   3.088 -0.4982 -0.4963 -0.1393
12881TIP3    H160134   2.217   3.179   3.175  0.9609 -0.2768 -0.7869
12881TIP3    H260135   2.128   3.090   3.091 -0.4076 -0.5182  0.8934
12882TIP3   OH260136   6.710   3.807   0.312  0.0238 -0.2508 -0.0371
12882TIP3    H160137   6.639   3.780   0.370 -0.0060 -0.2783 -0.0859
12882TIP3    H260138   6.667   3.833   0.231  0.0080  0.4406  0.1869
12883TIP3   OH260139   1.845   0.732   3.774 -0.5762 -0.3574  0.1169
12883TIP3    H160140   1.803   0.671   3.713  0.4744 -0.8203 -0.1504
12883TIP3    H260141   1.852   0.683   3.855  0.3974 -0.6426 -0.1382
12884TIP3   OH260142   5.861   5.827   3.933 -0.5073 -0.6249 -0.4582
12884TIP3    H160143   5.914   5.748   3.923 -0.3046 -0.5678  0.1492
12884TIP3    H260144   5.831   5.825   4.024 -1.2160 -0.4493 -0.6843
12885TIP3   OH260145   0.329   3.421  13.856 -0.0064  0.0370  0.5395
12885TIP3    H160146   0.305   3.468  13.776  0.5151 -0.4380  0.1023
12885TIP3    H260147   0.257   3.439  13.917  0.7124  2.2976  0.7596
12886TIP3   OH260148   6.273   0.961   0.553  0.0243 -0.8731  0.5745
12886TIP3    H160149   6.252   0.890   0.493 -1.3834  0.0965 -0.1073
12886TIP3    H260150   6.350   1.003   0.513  0.2953 -1.4342  0.4958
12887TIP3   OH260151   5.818   5.352   4.028  0.5464 -0.1597  0.2489
12887TIP3    H160152   5.839   5.294   3.954  1.5982  1.5367 -0.8144
12887TIP3    H260153   5.856   5.309   4.104  0.2822 -1.4645 -0.3519
12888TIP3   OH260154   2.440   3.964   2.220 -0.0451 -0.6529 -0.4321
12888TIP3    H160155   2.437   3.926   2.132  1.6021 -2.2781  0.1639
12888TIP3    H260156   2.522   4.013   2.223 -0.6270  0.3049 -0.1614
12889TIP3   OH260157   5.965   6.355  13.762  0.0715 -0.3942 -0.3052
12889TIP3    H160158   5.975   6.271  13.807 -1.6413 -0.0333  0.8271
12889TIP3    H260159   5.925   6.333  13.678  0.9606 -0.8360 -0.6152
12890TIP3   OH260160   5.859   0.545  13.156  0.2274  0.2572 -0.1718
12890TIP3    H160161   5.938   0.593  13.180  0.0891  0.3831  0.0357
12890TIP3    H260162   5.868   0.530  13.062  0.9022 -0.4906  0.0040
12891TIP3   OH260163   2.195   2.422  16.739  0.0317  0.0922  0.0788
12891TIP3    H160164   2.230   2.483  16.804 -1.3870  0.8651  0.1423
12891TIP3    H260165   2.223   2.457  16.655  1.6111 -0.7375  0.2553
12892TIP3   OH260166   3.530   1.769   2.678 -0.1067  0.1252 -0.3446
12892TIP3    H160167   3.496   1.792   2.591  0.0626 -0.2123 -0.5007
12892TIP3    H260168   3.624   1.785   2.671  0.1095 -1.2308 -0.6544
12893TIP3   OH260169   1.897   5.881   2.738  0.2905  0.4365  0.4425
12893TIP3    H160170   1.972   5.859   2.684  1.2144  2.3481  0.9046
12893TIP3    H260171   1.856   5.956   2.694 -1.1249 -0.3325  0.3987
12894TIP3   OH260172   0.938   0.476  16.903  0.2314 -0.2518 -0.4552
12894TIP3    H160173   0.948   0.507  16.994 -1.5301 -0.5445 -0.1502
12894TIP3    H260174   0.864   0.526  16.869  0.4738 -0.6260 -1.5212
12895TIP3   OH260175   4.193   4.511   2.790 -0.2948 -0.2398  0.1212
12895TIP3    H160176   4.239   4.572   2.848  1.0767 -1.7141  0.5955
12895TIP3    H260177   4.234   4.426   2.806 -1.7717 -1.1872 -0.9925
12896TIP3   OH260178   3.154   0.537  15.624 -0.2656 -0.4966  0.1358
12896TIP3    H160179   3.134   0.448  15.657 -0.0509 -0.1232  1.3110
12896TIP3    H260180   3.134   0.594  15.699 -0.6606  0.4745 -0.7091
12897TIP3   OH260181   4.023   2.391  11.680 -0.0352 -0.3606  0.0608
12897TIP3    H160182   4.090   2.323  11.676  0.7675  0.3593  0.9072
12897TIP3    H260183   3.942   2.345  11.702  0.1937 -1.2272 -0.8714
12898TIP3   OH260184   4.369   5.063   4.562  0.0458  0.1258  0.1772
12898TIP3    H160185   4.291   5.075   4.615  0.0125 -1.3284  0.4744
12898TIP3    H260186   4.339   5.075   4.472 -0.7885 -1.6528  0.2016
12899TIP3   OH260187   3.157   2.902   2.895 -0.1116  0.5040  0.1538
12899TIP3    H160188   3.140   2.990   2.861 -0.7657  0.4125  0.2289
12899TIP3    H260189   3.096   2.845   2.847 -0.1236  0.1863  0.5422
12900TIP3   OH260190   4.098   2.468  14.056 -0.5814 -0.3985 -0.3264
12900TIP3    H160191   4.016   2.424  14.081 -0.9634 -0.2843 -1.3285
12900TIP3    H260192   4.101   2.459  13.961  0.0845  0.4651 -0.3898
12901TIP3   OH260193   0.648   6.573   4.033  0.1121 -0.1458 -0.5634
12901TIP3    H160194   0.610   6.608   4.113 -0.1283  0.8550 -1.1144
12901TIP3    H260195   0.724   6.629   4.015 -0.6504  0.5165 -1.7984
12902TIP3   OH260196   2.868   4.225  11.341  0.1079 -0.0814 -0.0375
12902TIP3    H160197   2.913   4.153  11.299 -1.1181 -1.1111  0.3697
12902TIP3    H260198   2.828   4.274  11.269 -0.6377 -0.9115 -0.2024
12903TIP3   OH260199   4.561   3.768   3.621  0.0205 -0.0002 -0.8368
12903TIP3    H160200   4.581   3.850   3.667  0.3632 -1.0620  0.9429
12903TIP3    H260201   4.625   3.765   3.550  0.1074  1.1967 -0.8276
12904TIP3   OH260202   1.606   2.645   5.930 -0.3400 -0.0477 -0.5198
12904TIP3    H160203   1.675   2.617   5.870 -1.7107  0.3228 -2.3053
12904TIP3    H260204   1.564   2.563   5.958  0.0812 -0.1959 -0.3054
12905TIP3   OH260205   4.887   0.615  14.159  0.0382  0.2060 -0.0720
12905TIP3    H160206   4.907   0.557  14.232 -0.5374  0.2950  0.1582
12905TIP3    H260207   4.801   0.651  14.180 -0.6398 -0.6445 -1.3394
12906TIP3   OH260208   6.069   6.451  15.060 -0.2121 -0.1362 -0.6700
12906TIP3    H160209   6.099   6.508  15.131  2.1156 -0.2494 -1.5174
12906TIP3    H260210   5.974   6.449  15.069 -0.1071  1.6124  1.1005
12907TIP3   OH260211   4.376   1.886   3.321  0.5234  0.1668 -0.2160
12907TIP3    H160212   4.358   1.848   3.407  2.8419 -2.6397 -0.8836
12907TIP3    H260213   4.463   1.925   3.330  0.3936  0.6729 -1.0543
12908TIP3   OH260214   6.286   2.873   5.282 -0.1147  0.3853  0.7889
12908TIP3    H160215   6.223   2.879   5.354  0.7121 -0.5617  1.6072
12908TIP3    H260216   6.252   2.803   5.226 -0.7562  1.1204  0.2548
12909TIP3   OH260217   3.460   0.695   1.281  1.0433  0.2296  0.0410
12909TIP3    H160218   3.396   0.634   1.319 -0.2015  1.4274 -0.1207
12909TIP3    H260219   3.529   0.701   1.347  0.7625 -0.6798  0.4353
12910TIP3   OH260220   0.409   4.369  11.898 -0.0225  0.1956 -0.1359
12910TIP3    H160221   0.402   4.337  11.988  1.2104 -1.0671 -0.4728
12910TIP3    H260222   0.443   4.294  11.849 -0.7181  0.8665 -1.6608
12911TIP3   OH260223   6.565   4.450   1.701 -0.1781  0.2722  0.2745
12911TIP3    H160224   6.471   4.443   1.686 -0.0484 -0.0508 -0.3913
12911TIP3    H260225   6.597   4.506   1.630  0.0293  0.9697  0.9034
12912TIP3   OH260226   0.107   4.620   4.085 -0.4054 -0.3660 -0.3496
12912TIP3    H160227   0.125   4.654   3.997 -0.6066  1.2199  0.2057
12912TIP3    H260228   0.194   4.606   4.123 -0.3175 -1.0409 -0.7876
12913TIP3   OH260229   1.329   4.612  16.135  0.3069  0.4850  0.0475
12913TIP3    H160230   1.240   4.644  16.127  0.6672  1.9894  1.7258
12913TIP3    H260231   1.382   4.675  16.086  0.6025  0.3295  0.1654
12914TIP3   OH260232   6.165   5.955   1.452 -0.7764  0.6174 -0.0626
12914TIP3    H160233   6.245   5.952   1.400  0.1071 -0.6676  1.3293
12914TIP3    H260234   6.138   5.864   1.460 -1.9914  0.9855  0.0671
12915TIP3   OH260235   2.428   2.238  13.744  0.0289  0.1650 -0.1199
12915TIP3    H160236   2.484   2.202  13.813  0.7069  0.4075 -0.5479
12915TIP3    H260237   2.364   2.292  13.791  0.2967  0.0787  0.3460
12916TIP3   OH260238   0.192   4.124  15.864  0.4822  0.0729 -0.2168
12916TIP3    H160239   0.102   4.104  15.839 -0.0267  2.0374 -0.1018
12916TIP3    H260240   0.213   4.061  15.933 -0.9750 -0.1239  0.0571
12917TIP3   OH260241   2.260   3.566  12.370 -0.3020 -0.8748  0.0186
12917TIP3    H160242   2.305   3.612  12.299  1.0590 -0.6327  1.0146
12917TIP3    H260243   2.243   3.478  12.335 -1.8547 -0.0181 -1.4673
12918TIP3   OH260244   0.607   5.152  13.337 -0.0479 -0.7134 -0.0522
12918TIP3    H160245   0.560   5.112  13.410 -1.3208 -0.5486 -0.7602
12918TIP3    H260246   0.697   5.160  13.368 -0.5995 -0.4944  1.5555
12919TIP3   OH260247   2.516   3.342   1.859 -0.2660  0.0827  0.4774
12919TIP3    H160248   2.591   3.336   1.799 -2.1497 -0.0180 -1.9705
12919TIP3    H260249   2.444   3.303   1.810 -1.9946  0.4123  2.6893
12920TIP3   OH260250   3.393   0.151   3.511  0.4102  0.6239  0.1924
12920TIP3    H160251   3.410   0.057   3.507  0.1121  0.5297  0.9381
12920TIP3    H260252   3.298   0.158   3.521  0.4689  0.9892  0.5328
12921TIP3   OH260253   4.380   2.891   0.319 -0.1614  0.4858 -0.6094
12921TIP3    H160254   4.287   2.898   0.340 -0.4290  0.7772 -1.8532
12921TIP3    H260255   4.423   2.948   0.382 -0.5241 -1.9336  1.9336
12922TIP3   OH260256   4.099   4.576  14.959 -0.7590  0.0553 -0.1692
12922TIP3    H160257   4.134   4.487  14.966 -1.1931 -0.3397 -2.4984
12922TIP3    H260258   4.025   4.578  15.019  1.2545 -0.0694  2.4375
12923TIP3   OH260259   1.005   4.633  13.099  0.2354  0.9048  0.1654
12923TIP3    H160260   1.061   4.555  13.097 -0.8357  0.1255 -0.1492
12923TIP3    H260261   1.011   4.669  13.011 -0.0625  0.5978  0.0184
12924TIP3   OH260262   2.459   6.154  17.147 -0.6065 -0.2887 -0.1391
12924TIP3    H160263   2.536   6.111  17.109  0.0080  0.5193  0.1830
12924TIP3    H260264   2.456   6.238  17.103 -0.7974  0.0301  0.4830
12925TIP3   OH260265   3.758   5.651   2.204 -0.0099 -0.1354 -0.1401
12925TIP3    H160266   3.702   5.590   2.253  1.0087 -0.6869  0.3461
12925TIP3    H260267   3.847   5.618   2.218  0.4149  0.5901 -1.1185
12926TIP3   OH260268   1.531   4.069  15.104  0.2283  0.2016  0.0314
12926TIP3    H160269   1.495   4.117  15.179  1.1963  0.2151  0.4958
12926TIP3    H260270   1.544   3.980  15.137  0.3553  0.1276 -0.2175
12927TIP3   OH260271   5.015   1.144  14.923 -0.1705 -0.7948 -0.2310
12927TIP3    H160272   4.965   1.172  14.999 -0.6768 -2.9533  0.2628
12927TIP3    H260273   4.963   1.173  14.848  0.5506  1.7322  0.2052
12928TIP3   OH260274   5.942   5.791   1.515  0.4913  0.0620 -0.2609
12928TIP3    H160275   5.996   5.735   1.460  1.6698  0.3215  0.6242
12928TIP3    H260276   5.858   5.744   1.522  1.1191 -1.1005 -0.3627
12929TIP3   OH260277   4.400   4.091  15.556  0.6218 -0.2654  0.2800
12929TIP3    H160278   4.306   4.080  15.541  0.6910 -2.0197  0.9933
12929TIP3    H260279   4.406   4.154  15.628 -0.0305 -0.8116  0.8129
12930TIP3   OH260280   1.382   0.340  11.187  0.0937  0.5343  0.0080
12930TIP3    H160281   1.390   0.410  11.122  0.3728  1.6214  1.1843
12930TIP3    H260282   1.457   0.354  11.245  0.4179 -1.0479 -0.0228
12931TIP3   OH260283   1.239   0.016   3.283 -0.5370 -0.2873 -1.0526
12931TIP3    H160284   1.206   0.037   3.370  0.1144 -0.4761 -0.7604
12931TIP3    H260285   1.333   0.006   3.294 -0.4275 -0.1235 -1.8176
12932TIP3   OH260286   3.553   6.595   0.417  0.4512  0.0271 -0.3245
12932TIP3    H160287   3.581   6.686   0.424  0.9598  0.0001 -1.6790
12932TIP3    H260288   3.581   6.554   0.499 -0.0223  1.1424  0.4034
12933TIP3   OH260289   6.693   5.767  13.062 -0.3090  0.1554  0.1726
12933TIP3    H160290   6.711   5.775  12.968  1.1178  2.2137  0.6099
12933TIP3    H260291   6.615   5.711  13.066 -1.2024  1.1400 -2.2991
12934TIP3   OH260292   3.202   4.453   0.352  0.1690  0.1161 -0.2904
12934TIP3    H160293   3.180   4.376   0.298  0.8032  0.2544 -0.7445
12934TIP3    H260294   3.294   4.470   0.333  0.5035 -0.0610  1.1242
12935TIP3   OH260295   5.366   5.998  17.102 -0.1700 -0.1702  0.3588
12935TIP3    H160296   5.449   5.950  17.108  0.5056  0.3266 -3.8907
12935TIP3    H260297   5.382   6.077  17.154  1.1468 -1.2056  1.5957
12936TIP3   OH260298   6.130   1.586   3.543  0.0648  0.0654 -0.6148
12936TIP3    H160299   6.201   1.642   3.509  0.9672  0.1798  1.3659
12936TIP3    H260300   6.157   1.566   3.633 -0.6811 -2.8335 -0.9826
12937TIP3   OH260301   5.190   2.685   3.512 -0.0856  0.0904 -0.0074
12937TIP3    H160302   5.105   2.656   3.544 -0.0721 -0.1382 -0.1727
12937TIP3    H260303   5.170   2.741   3.437 -0.0988  0.2535  0.1167
12938TIP3   OH260304   6.288   2.820   1.755 -1.0694 -0.0703 -1.0373
12938TIP3    H160305   6.319   2.757   1.690  0.6193  1.0762 -1.3789
12938TIP3    H260306   6.308   2.780   1.839 -1.3901 -0.6502 -1.2341
12939TIP3   OH260307   5.686   0.361   0.556  0.1441  0.4059 -0.3734
12939TIP3    H160308   5.765   0.374   0.504 -0.2846  0.2440 -1.0676
12939TIP3    H260309   5.704   0.283   0.609  1.0480  1.2645  0.6264
12940TIP3   OH260310   4.181   0.105   3.491  0.0799 -0.3171 -0.0285
12940TIP3    H160311   4.183   0.196   3.520  1.0777 -0.5509  0.6687
12940TIP3    H260312   4.264   0.069   3.521  0.2692 -1.1087 -1.4483
12941TIP3   OH260313   2.257   5.060   0.996 -0.0377  0.8600 -1.0753
12941TIP3    H160314   2.202   5.139   0.989 -1.2089  0.0171 -1.4912
12941TIP3    H260315   2.280   5.039   0.906 -1.0886 -0.2309 -1.0853
12942TIP3   OH260316   4.651   4.886  17.199 -0.2405 -0.3281 -0.7072
12942TIP3    H160317   4.584   4.941  17.240  0.4081 -0.0737  0.0198
12942TIP3    H260318   4.601   4.826  17.144 -1.0526  0.0527 -0.4085
12943TIP3   OH260319   5.041   3.725  16.758  0.1447  0.9792 -0.0342
12943TIP3    H160320   5.030   3.787  16.686 -0.8744  0.1934 -0.5710
12943TIP3    H260321   4.961   3.735  16.810 -1.4005 -1.8889 -1.6989
12944TIP3   OH260322   6.525   4.442   4.953 -0.7310  0.6108  0.1882
12944TIP3    H160323   6.501   4.414   4.865  1.4578 -1.2040  0.1098
12944TIP3    H260324   6.466   4.394   5.011  0.8963 -1.8651 -0.1121
12945TIP3   OH260325   2.981   6.761   1.075  0.0745  0.4633 -0.0500
12945TIP3    H160326   2.901   6.813   1.084  1.1432  2.0039  0.8082
12945TIP3    H260327   3.029   6.804   1.004 -0.6214 -1.4995 -1.7448
12946TIP3   OH260328   2.738   3.504   5.330  0.5163  0.1601 -0.0374
12946TIP3    H160329   2.702   3.589   5.304  0.7050  0.2390 -0.0428
12946TIP3    H260330   2.756   3.512   5.423 -1.0511 -0.4442  0.3282
12947TIP3   OH260331   3.558   3.772   0.027 -0.0793 -0.0140 -0.2302
12947TIP3    H160332   3.495   3.702   0.045 -0.8787  0.4232 -1.3596
12947TIP3    H260333   3.546   3.834   0.099 -0.0132 -0.5817  0.2731
12948TIP3   OH260334   6.301   0.780  14.454 -0.1082  0.6931 -0.6204
12948TIP3    H160335   6.266   0.836  14.523  2.1758 -0.1488  1.3033
12948TIP3    H260336   6.376   0.829  14.418  3.3140 -1.8841  2.5913
12949TIP3   OH260337   2.341   5.128   3.468  0.0635 -0.3042  0.6117
12949TIP3    H160338   2.372   5.104   3.380  0.1202  1.2633  0.1803
12949TIP3    H260339   2.273   5.064   3.488 -0.6689 -0.0574 -1.0186
12950TIP3   OH260340   4.208   6.096  13.300  0.3547 -0.1359  0.0867
12950TIP3    H160341   4.171   6.152  13.368  0.2427  1.7877 -1.5219
12950TIP3    H260342   4.246   6.022  13.348 -0.6332  0.6571  2.1494
12951TIP3   OH260343   1.501   6.332  10.936  0.0011 -0.0865 -1.0669
12951TIP3    H160344   1.540   6.267  10.994 -1.2406  0.1541  0.0721
12951TIP3    H260345   1.524   6.416  10.975 -0.0687  0.1070 -1.4384
12952TIP3   OH260346   2.506   4.719  11.539 -0.2440 -0.0439  0.2219
12952TIP3    H160347   2.485   4.685  11.452  1.0410 -1.2462  0.3585
12952TIP3    H260348   2.599   4.742  11.534  0.2876 -1.7613  1.7604
12953TIP3   OH260349   5.860   2.011  15.223 -0.0132 -0.6993 -0.2971
12953TIP3    H160350   5.814   2.088  15.191 -0.8205 -1.0340  0.0486
12953TIP3    H260351   5.949   2.019  15.187 -0.1385  0.3050 -0.3926
12954TIP3   OH260352   3.043   3.596   2.682 -0.0150 -0.6616 -0.0852
12954TIP3    H160353   3.128   3.595   2.638  1.3177 -0.7478  2.3847
12954TIP3    H260354   3.023   3.689   2.692  0.5195 -0.6215  0.6581
12955TIP3   OH260355   1.431   2.825   5.835  0.2347 -0.0759 -0.1128
12955TIP3    H160356   1.489   2.896   5.809  2.5188 -1.8418 -0.0284
12955TIP3    H260357   1.490   2.757   5.868 -1.4767 -3.5925 -3.8798
12956TIP3   OH260358   3.237   6.558  11.592 -0.4946  0.3072 -0.2753
12956TIP3    H160359   3.147   6.589  11.585 -0.1322  1.1089 -1.3623
12956TIP3    H260360   3.272   6.563  11.503  1.0535  1.2739  0.3711
12957TIP3   OH260361   1.108   2.025  12.054  0.5998 -0.4368  0.6593
12957TIP3    H160362   1.204   2.021  12.055  0.5763 -1.3088  2.8136
12957TIP3    H260363   1.084   2.044  12.145 -1.2415  0.9237 -0.0900
12958TIP3   OH260364   4.147   5.065   1.441  0.1779  0.0303  0.1335
12958TIP3    H160365   4.092   4.995   1.477 -0.2815 -0.4297 -1.3983
12958TIP3    H260366   4.095   5.100   1.368  2.6541 -1.6943 -2.5918
12959TIP3   OH260367   5.847   6.666  15.346 -0.2896  0.3335 -0.1146
12959TIP3    H160368   5.763   6.648  15.387 -0.2403  1.0266  0.3016
12959TIP3    H260369   5.835   6.750  15.300  0.4313  0.9145  0.7260
12960TIP3   OH260370   3.508   4.457   0.351 -0.2408 -0.7150  0.5151
12960TIP3    H160371   3.563   4.516   0.403 -2.2975  0.6062  1.2701
12960TIP3    H260372   3.449   4.417   0.415  0.1133 -2.4346 -0.2193
12961TIP3   OH260373   6.117   4.564  12.902  0.1424  0.1228  0.3822
12961TIP3    H160374   6.030   4.570  12.864  0.4402 -1.1793 -0.5754
12961TIP3    H260375   6.167   4.634  12.860  0.1545 -0.5690 -0.7983
12962TIP3   OH260376   3.470   2.644   1.311 -0.7739 -0.0012  0.2971
12962TIP3    H160377   3.423   2.714   1.267  0.6958  0.7060 -0.1805
12962TIP3    H260378   3.554   2.683   1.336  0.9518 -2.1470 -1.9100
12963TIP3   OH260379   6.088   5.747  13.041 -0.1300 -0.1861 -0.5813
12963TIP3    H160380   6.004   5.778  13.074  0.7746 -0.0926  1.7376
12963TIP3    H260381   6.098   5.659  13.077  1.4522  0.3974  0.4797
12964TIP3   OH260382   5.707   0.935  12.785 -0.5431  0.2836 -0.3730
12964TIP3    H160383   5.627   0.944  12.837 -0.8570 -1.1540 -0.5722
12964TIP3    H260384   5.680   0.950  12.695 -0.4266  0.6327 -0.3486
12965TIP3   OH260385   2.854   2.585   5.768 -0.2007 -0.0228 -0.0167
12965TIP3    H160386   2.758   2.590   5.769 -0.2828 -0.7735 -1.8687
12965TIP3    H260387   2.876   2.520   5.834 -0.9500  0.3636  0.6207
12966TIP3   OH260388   5.443   3.535  12.466  0.6636 -0.0267  0.2117
12966TIP3    H160389   5.397   3.615  12.490  1.9809  0.6530  0.5285
12966TIP3    H260390   5.378   3.465  12.477 -0.8475  1.1158 -1.1894
12967TIP3   OH260391   4.048   5.370  16.480  0.2012  0.3386  0.0076
12967TIP3    H160392   4.097   5.443  16.516  0.3651  1.2648 -2.0553
12967TIP3    H260393   3.960   5.379  16.518  1.4191 -1.0830  3.3612
12968TIP3   OH260394   6.487   3.920   5.879  0.0104 -0.0305  0.0026
12968TIP3    H160395   6.425   3.939   5.809 -1.1897 -1.0155  0.7711
12968TIP3    H260396   6.434   3.922   5.959  1.2241  0.3954  0.8043
12969TIP3   OH260397   4.737   0.752  11.527  0.1428 -0.2427 -0.0996
12969TIP3    H160398   4.660   0.715  11.571 -0.5824  0.6522 -0.5796
12969TIP3    H260399   4.750   0.837  11.568  1.0705 -0.5254  0.1882
12970TIP3   OH260400   0.387   5.763  14.455 -0.0034 -0.7101  0.0847
12970TIP3    H160401   0.449   5.756  14.383  1.0460 -0.3426  0.9366
12970TIP3    H260402   0.438   5.802  14.526 -0.3900 -3.0704  1.7207
12971TIP3   OH260403   5.721   4.054  13.666  0.2698 -0.5450 -0.6198
12971TIP3    H160404   5.776   4.068  13.589  0.7346 -3.6407 -0.9462
12971TIP3    H260405   5.779   4.068  13.740  0.3156  0.5642 -0.8549
12972TIP3   OH260406   4.255   1.017   1.838 -0.1269  0.1683  0.0495
12972TIP3    H160407   4.225   1.103   1.810 -0.4312 -0.6888 -2.3262
12972TIP3    H260408   4.299   1.034   1.922  1.3280  2.8963 -1.1799
12973TIP3   OH260409   4.233   1.584  14.245  0.1029  0.2116  0.4915
12973TIP3    H160410   4.295   1.656  14.256  1.2166 -0.4576 -1.1576
12973TIP3    H260411   4.147   1.626  14.252  0.7389  1.6340  0.0383
12974TIP3   OH260412   4.579   1.947   1.967  0.0096  0.4161 -0.3343
12974TIP3    H160413   4.509   1.885   1.944 -1.7911  1.0341  3.1172
12974TIP3    H260414   4.551   2.030   1.928 -1.5149  0.7888  1.4841
12975TIP3   OH260415   1.612   1.067  14.046 -0.0506  0.4180 -0.5533
12975TIP3    H160416   1.586   1.128  13.977 -2.4147 -1.2571 -1.2095
12975TIP3    H260417   1.637   0.987  13.998  0.6803  0.0573  0.4136
12976TIP3   OH260418   3.963   1.303  11.387  0.0431  0.1106 -0.0111
12976TIP3    H160419   4.003   1.227  11.346 -1.2895 -1.1654  0.9954
12976TIP3    H260420   4.036   1.363  11.403  0.8932 -0.3108 -2.1537
12977TIP3   OH260421   1.662   6.261   5.565 -0.0465 -0.0002 -0.0257
12977TIP3    H160422   1.727   6.209   5.518 -1.2005 -0.8024 -0.7556
12977TIP3    H260423   1.625   6.319   5.498 -2.3421 -1.7657 -0.3745
12978TIP3   OH260424   0.416   1.043   5.692 -0.3186 -0.1841  0.0654
12978TIP3    H160425   0.348   1.109   5.708  1.5950  1.3745  2.1108
12978TIP3    H260426   0.428   1.044   5.597 -1.0907  1.6629 -0.0423
12979TIP3   OH260427   1.867   5.440   2.523  0.0561  0.2539  0.0485
12979TIP3    H160428   1.847   5.456   2.616 -1.4983  0.4874 -0.3248
12979TIP3    H260429   1.900   5.524   2.492 -0.1697  0.3976  0.1927
12980TIP3   OH260430   4.419   6.315  12.142  0.2021 -0.4125  0.0234
12980TIP3    H160431   4.372   6.281  12.218 -1.0581 -1.4880 -1.1897
12980TIP3    H260432   4.369   6.392  12.115 -0.2583 -0.9301 -0.6244
12981TIP3   OH260433   4.120   5.859  15.012 -0.8879  0.4205  0.0058
12981TIP3    H160434   4.177   5.860  14.935 -0.0802 -1.0633  0.5587
12981TIP3    H260435   4.117   5.950  15.041  1.1391  0.5374 -0.0958
12982TIP3   OH260436   6.173   1.442  11.055 -0.2093 -0.5342  0.4691
12982TIP3    H160437   6.113   1.453  10.981 -0.3848 -1.6565  0.4480
12982TIP3    H260438   6.159   1.521  11.108 -0.3948  0.0716 -0.4601
12983TIP3   OH260439   6.454   4.585   4.365  0.0440 -0.7767 -0.4595
12983TIP3    H160440   6.516   4.559   4.297 -0.7090 -0.5075 -1.2610
12983TIP3    H260441   6.501   4.652   4.415 -0.0929  0.4673 -1.9366
12984TIP3   OH260442   0.087   5.474   4.977 -0.1433 -0.3623 -0.1498
12984TIP3    H160443   0.060   5.566   4.984  0.0405 -0.4123  1.5286
12984TIP3    H260444   0.091   5.457   4.883  0.8242  1.6342 -0.4935
12985TIP3   OH260445   2.668   1.734   0.201 -0.0318  0.2752 -0.1455
12985TIP3    H160446   2.747   1.783   0.226 -0.1601  0.0825  0.6615
12985TIP3    H260447   2.681   1.714   0.108  0.8134  0.3537 -0.0523
12986TIP3   OH260448   4.098   5.319   1.038  0.2504  0.1340 -0.2585
12986TIP3    H160449   4.123   5.367   0.959 -0.4143  0.3308 -0.3501
12986TIP3    H260450   4.018   5.273   1.014 -0.9213  1.5560  0.8279
12987TIP3   OH260451   5.236   3.812  14.148  0.5648  0.0362  0.3412
12987TIP3    H160452   5.231   3.825  14.053  0.3502  2.8647  0.6843
12987TIP3    H260453   5.325   3.780  14.162  0.4253 -0.9278 -0.8728
12988TIP3   OH260454   0.815   5.059   2.250 -0.2461  0.2111 -0.2370
12988TIP3    H160455   0.822   4.965   2.237 -0.0755  0.2679 -0.5618
12988TIP3    H260456   0.761   5.069   2.329 -0.2893 -0.1552 -0.2216
12989TIP3   OH260457   2.300   0.489   0.593  0.2320 -0.5092 -0.1014
12989TIP3    H160458   2.246   0.410   0.587 -1.5169  0.7471 -1.3028
12989TIP3    H260459   2.338   0.485   0.681 -1.0943 -1.8716  0.4308
12990TIP3   OH260460   5.470   3.455   4.232  0.1158  0.1119 -0.3633
12990TIP3    H160461   5.423   3.383   4.191 -0.4035  0.5209 -0.4938
12990TIP3    H260462   5.410   3.488   4.300  0.5099  0.1611 -0.0339
12991TIP3   OH260463   5.980   5.070  16.297 -0.3499 -0.1210 -0.1114
12991TIP3    H160464   6.067   5.107  16.289 -0.2309 -0.5896 -1.0796
12991TIP3    H260465   5.957   5.080  16.390  0.8284 -0.2275  0.1945
12992TIP3   OH260466   3.818   3.525   2.945 -0.0037 -0.4860 -0.2196
12992TIP3    H160467   3.818   3.430   2.940  0.2727 -0.4965 -0.0738
12992TIP3    H260468   3.869   3.553   2.869  0.2915 -0.4720 -0.0176
12993TIP3   OH260469   5.938   5.071  11.595  0.3632 -0.4386  0.0052
12993TIP3    H160470   5.977   5.104  11.514  1.7039 -3.5734 -0.6834
12993TIP3    H260471   5.986   4.991  11.615 -2.2141 -1.5825  2.0323
12994TIP3   OH260472   6.409   2.865  12.851  0.3799  0.3065 -0.0810
12994TIP3    H160473   6.409   2.897  12.942 -0.1484 -1.4029  0.5366
12994TIP3    H260474   6.318   2.841  12.834  0.8574 -1.4386 -0.3051
12995TIP3   OH260475   1.952   4.198  13.384  0.1251 -0.7131  0.2768
12995TIP3    H160476   1.901   4.211  13.304 -0.6101 -2.4759  0.4288
12995TIP3    H260477   2.043   4.213  13.356 -0.3603  1.2693 -0.2615
12996TIP3   OH260478   4.849   2.400   6.015 -0.2677 -0.4575  0.1996
12996TIP3    H160479   4.758   2.427   5.998 -0.0659 -0.7662 -1.5052
12996TIP3    H260480   4.891   2.477   6.052 -0.9861 -0.0109  0.0878
12997TIP3   OH260481   4.802   3.445  15.483 -0.1091 -0.0801 -0.9391
12997TIP3    H160482   4.778   3.425  15.574  1.1846 -1.6262 -0.9179
12997TIP3    H260483   4.882   3.496  15.490 -0.4091  0.4323 -1.1960
12998TIP3   OH260484   0.213   1.297   3.360 -0.2034 -0.1238  0.3367
12998TIP3    H160485   0.168   1.370   3.403 -0.1706  0.5531 -0.7782
12998TIP3    H260486   0.281   1.271   3.423 -0.5982  0.4091  0.9922
12999TIP3   OH260487   6.740   5.579   5.267 -0.0319 -0.1680  0.3039
12999TIP3    H160488   6.827   5.550   5.294 -0.3837 -0.8245  0.7434
12999TIP3    H260489   6.742   5.574   5.171  0.5138  0.1354  0.2920
13000TIP3   OH260490   5.660   4.082  16.330 -0.1485 -0.3595  0.1473
13000TIP3    H160491   5.611   4.159  16.357  1.2110  0.7541 -0.5290
13000TIP3    H260492   5.716   4.062  16.405 -1.1050 -1.2018  0.6433
13001TIP3   OH260493   1.547   0.158   3.201 -0.0239  0.0427  0.0983
13001TIP3    H160494   1.543   0.063   3.210 -0.2260  0.0138 -0.2773
13001TIP3    H260495   1.516   0.175   3.112  1.5993  0.3412 -0.4170
13002TIP3   OH260496   0.067   5.892  12.628  0.4934 -0.5308  0.0862
13002TIP3    H160497   0.045   5.961  12.566 -1.6124 -0.7865  0.5169
13002TIP3    H260498   0.051   5.811  12.580 -1.1683 -0.7304  0.9367
13003TIP3   OH260499   6.493   0.336  11.063 -0.1947  0.3113  0.8564
13003TIP3    H160500   6.520   0.277  10.993  0.7525  1.8322 -0.0948
13003TIP3    H260501   6.399   0.323  11.071  0.0240 -1.3767  0.7207
13004TIP3   OH260502   1.306   0.343   1.596 -0.1564  0.0757  0.0664
13004TIP3    H160503   1.217   0.317   1.573 -0.4662 -0.2364  1.5315
13004TIP3    H260504   1.354   0.340   1.513 -1.7503  1.3307 -0.9210
13005TIP3   OH260505   1.951   3.317   2.001 -0.2935 -0.0715 -0.6190
13005TIP3    H160506   1.951   3.270   2.084 -0.1238 -0.8983 -1.0879
13005TIP3    H260507   1.862   3.306   1.967 -0.6527  1.0932 -0.0852
13006TIP3   OH260508   1.143   5.940   6.738  0.4568  0.3918  0.7531
13006TIP3    H160509   1.064   5.962   6.689  0.4233  2.0381  1.4974
13006TIP3    H260510   1.115   5.872   6.799  0.0500 -0.3027 -0.2028
13007TIP3   OH260511   4.041   1.457   5.325 -0.9874 -0.0162  0.6627
13007TIP3    H160512   4.050   1.382   5.266  0.5801  0.8012 -0.1642
13007TIP3    H260513   3.985   1.425   5.396 -0.8306 -1.7807  0.0138
13008TIP3   OH260514   5.402   3.380   2.006 -0.0396 -0.4164 -0.5547
13008TIP3    H160515   5.307   3.373   1.994  0.0914  1.4533 -2.9653
13008TIP3    H260516   5.437   3.384   1.917  2.3726 -1.5135  0.3009
13009TIP3   OH260517   6.172   6.045  13.220  0.0176 -0.6014  0.1848
13009TIP3    H160518   6.095   5.989  13.224 -1.0809  0.9084  0.5632
13009TIP3    H260519   6.207   6.031  13.132 -0.9267 -0.9871 -0.1335
13010TIP3   OH260520   0.371   3.468  11.599  0.3844 -0.4646 -0.1727
13010TIP3    H160521   0.444   3.437  11.545  0.8369 -0.9948  0.7231
13010TIP3    H260522   0.413   3.525  11.664 -0.3361  1.3300 -1.2751
13011TIP3   OH260523   6.320   5.232  16.727  0.2244  0.1856 -0.5547
13011TIP3    H160524   6.344   5.154  16.776 -1.4695  0.4410  0.7285
13011TIP3    H260525   6.255   5.202  16.663 -0.0421  0.4590 -0.4105
13012TIP3   OH260526   3.287   6.231   1.542  0.1366 -0.9160 -0.1859
13012TIP3    H160527   3.346   6.300   1.572 -1.8132 -0.2630  2.2772
13012TIP3    H260528   3.212   6.278   1.506  0.4645 -1.7517 -2.0188
13013TIP3   OH260529   2.802   2.921   2.854 -0.2977  0.1843  0.0974
13013TIP3    H160530   2.738   2.910   2.924 -0.2518  1.6667  0.3780
13013TIP3    H260531   2.804   3.015   2.837 -0.5133 -0.1723 -2.0859
13014TIP3   OH260532   0.276   2.855   0.645  0.2313  0.2472 -0.3407
13014TIP3    H160533   0.198   2.840   0.698  0.7049  0.7219  0.4844
13014TIP3    H260534   0.243   2.892   0.564 -0.2491  2.1180  0.6958
13015TIP3   OH260535   2.365   0.648  15.808  0.1882  0.4063  0.0144
13015TIP3    H160536   2.316   0.605  15.879 -0.5969  2.3908  0.6943
13015TIP3    H260537   2.399   0.728  15.847  0.2106  1.2597 -1.7260
13016TIP3   OH260538   5.910   5.502  13.769 -0.1722 -0.0150  0.2384
13016TIP3    H160539   5.846   5.446  13.812 -0.7036  0.3287 -0.0933
13016TIP3    H260540   5.865   5.585  13.757  0.4738  0.3561  0.3568
13017TIP3   OH260541   1.415   1.105  12.309 -0.0804 -0.2797 -0.0306
13017TIP3    H160542   1.407   1.046  12.384 -1.4166  1.5293  1.3246
13017TIP3    H260543   1.341   1.082  12.253 -0.1730 -0.3960  0.1365
13018TIP3   OH260544   1.035   0.270   4.840  0.2280  0.3213  0.4616
13018TIP3    H160545   1.103   0.203   4.855 -0.6340 -0.5725  0.4049
13018TIP3    H260546   1.016   0.305   4.927  0.5048  0.3218  0.5233
13019TIP3   OH260547   2.788   5.879   0.271 -0.1763 -0.1551 -0.4343
13019TIP3    H160548   2.797   5.801   0.325 -2.5375 -0.0929  0.1357
13019TIP3    H260549   2.795   5.952   0.333  0.2236  0.0233 -0.6890
13020TIP3   OH260550   3.678   6.304  15.798 -0.2111  0.0626 -0.1460
13020TIP3    H160551   3.687   6.253  15.718 -1.1382  1.7682 -1.3832
13020TIP3    H260552   3.630   6.383  15.770 -0.0712  0.9195  1.9772
13021TIP3   OH260553   4.089   4.686   0.632  0.0942 -0.5532  0.5078
13021TIP3    H160554   4.114   4.606   0.587  0.5672 -0.5663  0.7935
13021TIP3    H260555   4.053   4.656   0.716 -1.7312 -0.5925 -0.2651
13022TIP3   OH260556   3.087   1.665   0.060  0.0085 -0.4453 -0.1917
13022TIP3    H160557   3.109   1.640  -0.030  0.3469  0.7795 -0.4529
13022TIP3    H260558   3.040   1.589   0.095  0.3441 -1.1395 -1.2244
13023TIP3   OH260559   3.745   5.367  16.482 -0.1774 -0.3456 -0.3325
13023TIP3    H160560   3.807   5.375  16.555  0.2335  0.2434 -0.7421
13023TIP3    H260561   3.665   5.409  16.514  0.2859  0.7084 -0.5384
13024TIP3   OH260562   3.753   4.655   5.085 -0.4266  0.1380  0.3744
13024TIP3    H160563   3.847   4.638   5.078 -0.1743  1.7616 -0.4393
13024TIP3    H260564   3.745   4.718   5.157 -0.6666  1.6725 -0.9848
13025TIP3   OH260565   0.966   3.729   3.651 -0.1303  0.7156  0.5776
13025TIP3    H160566   0.997   3.640   3.635 -0.8521  0.8091 -1.5536
13025TIP3    H260567   1.032   3.768   3.708  2.1402 -0.0295 -1.4429
13026TIP3   OH260568   1.303   2.667   4.787  0.3066 -0.0716  0.7536
13026TIP3    H160569   1.268   2.606   4.721  3.4306  0.8114 -1.8988
13026TIP3    H260570   1.226   2.711   4.823 -1.5370 -0.5723 -2.3801
13027TIP3   OH260571   0.077   1.046   3.807 -0.0908  0.3634  0.4155
13027TIP3    H160572   0.070   1.089   3.722  1.0625 -1.5500 -0.6568
13027TIP3    H260573  -0.014   1.034   3.835 -0.5717 -1.5219 -1.8373
13028TIP3   OH260574   5.286   5.893   3.245 -0.1493 -0.7101  0.4890
13028TIP3    H160575   5.245   5.892   3.158 -0.8290 -3.6794  0.7878
13028TIP3    H260576   5.221   5.935   3.301 -0.8638 -1.2179  0.0597
13029TIP3   OH260577   5.071   4.293   3.331  0.4189  0.7682 -0.3288
13029TIP3    H160578   5.147   4.283   3.389  0.0314  1.7453  0.3620
13029TIP3    H260579   5.054   4.387   3.330 -1.9938  0.3886  1.0956
13030TIP3   OH260580   5.971   3.705  13.671  0.1194 -0.0339  0.8656
13030TIP3    H160581   5.935   3.737  13.588 -0.8617  0.0289  1.3044
13030TIP3    H260582   5.939   3.615  13.678  0.7821 -0.2733  0.8442
13031TIP3   OH260583   3.031   1.731  12.365  0.3999  0.4340  0.4990
13031TIP3    H160584   2.988   1.731  12.279 -3.2078  1.2128  2.1770
13031TIP3    H260585   3.041   1.639  12.387  3.5700  0.1628 -1.7070
13032TIP3   OH260586   5.990   1.798  13.578  0.7182  0.0315 -0.1345
13032TIP3    H160587   6.019   1.706  13.574  0.8573 -0.0418  1.7999
13032TIP3    H260588   5.950   1.815  13.493  0.4802 -1.9025 -0.4289
13033TIP3   OH260589   0.480   5.842  12.680 -0.1171  0.0206  0.2472
13033TIP3    H160590   0.455   5.883  12.763  2.4884  0.3425  0.8881
13033TIP3    H260591   0.483   5.914  12.618 -0.7604 -0.0201  0.1647
13034TIP3   OH260592   0.719   2.640  14.726 -0.2712 -0.6364 -0.1274
13034TIP3    H160593   0.724   2.710  14.790 -1.0225 -1.4670  0.8700
13034TIP3    H260594   0.691   2.683  14.645  3.7493  0.9164 -0.7659
13035TIP3   OH260595   1.548   3.720  16.938 -0.1178 -0.0378 -0.1437
13035TIP3    H160596   1.568   3.811  16.920 -0.4046  0.2860  1.0884
13035TIP3    H260597   1.566   3.674  16.856 -0.7017  1.2359 -0.9910
13036TIP3   OH260598   5.160   4.279  11.314 -0.1478 -0.1757 -0.6329
13036TIP3    H160599   5.139   4.278  11.221 -1.3390 -2.1711 -0.3792
13036TIP3    H260600   5.076   4.293  11.357  0.0859 -1.2116  0.1835
13037TIP3   OH260601   2.338   4.258   0.784  0.2375 -0.0797 -0.2751
13037TIP3    H160602   2.392   4.237   0.707  0.4902  0.3382 -0.2116
13037TIP3    H260603   2.304   4.173   0.813  0.4595 -0.2857 -0.6131
13038TIP3   OH260604   4.301   1.894   6.136 -0.8202 -0.9170 -0.2764
13038TIP3    H160605   4.230   1.886   6.073 -0.6431 -0.3510 -0.5586
13038TIP3    H260606   4.315   1.805   6.168  0.2017 -1.5121 -2.2787
13039TIP3   OH260607   6.455   4.197   5.143 -0.4002  0.7281 -0.1308
13039TIP3    H160608   6.374   4.205   5.092 -0.5798  2.5473  0.4229
13039TIP3    H260609   6.506   4.131   5.096 -2.2713 -0.5672 -0.3852
13040TIP3   OH260610   5.842   6.537   1.651 -0.8501 -0.4406 -0.0597
13040TIP3    H160611   5.929   6.516   1.619 -0.2486  0.8792  0.6556
13040TIP3    H260612   5.814   6.459   1.698  0.9596 -0.0239  1.7770
13041TIP3   OH260613   6.416   2.146  16.305  0.2480  0.0736 -0.0508
13041TIP3    H160614   6.348   2.121  16.368  0.4856 -0.0136  0.1702
13041TIP3    H260615   6.404   2.085  16.233  1.1456 -1.0131  0.7021
13042TIP3   OH260616   3.697   5.564   5.757 -0.5818 -0.6702  0.7986
13042TIP3    H160617   3.779   5.523   5.786  0.2673  0.0312 -0.5638
13042TIP3    H260618   3.689   5.539   5.665  0.3076  2.7172 -0.2819
13043TIP3   OH260619   4.332   5.456   1.205 -0.0521 -0.1121  0.3949
13043TIP3    H160620   4.348   5.430   1.114  0.2100 -0.7044  0.6042
13043TIP3    H260621   4.341   5.551   1.205  1.9193 -0.2719  0.1794
13044TIP3   OH260622   1.820   5.361  10.760  0.7271  0.3099  0.0339
13044TIP3    H160623   1.882   5.364  10.833  2.1022 -2.0907 -0.9722
13044TIP3    H260624   1.841   5.438  10.707  0.5606  1.3652  1.4926
13045TIP3   OH260625   2.927   3.637   1.128 -0.5983  0.2384 -0.1677
13045TIP3    H160626   2.929   3.684   1.045  2.2797 -0.3515 -0.4848
13045TIP3    H260627   2.960   3.550   1.106  0.6240  0.2263  1.6676
13046TIP3   OH260628   0.756   1.201   2.988 -0.2510 -0.1262  0.5551
13046TIP3    H160629   0.822   1.137   2.960  0.7232  1.6482 -1.3158
13046TIP3    H260630   0.804   1.261   3.045 -0.7535 -0.0410  0.8859
13047TIP3   OH260631   1.367   5.631  13.309 -0.3531  0.2850  0.4482
13047TIP3    H160632   1.337   5.715  13.344  0.6389  0.1026  1.7696
13047TIP3    H260633   1.458   5.625  13.335  0.7129  0.5288 -2.9329
13048TIP3   OH260634   3.240   3.659  12.908 -0.4678  0.1655  0.2797
13048TIP3    H160635   3.292   3.579  12.899 -0.4996  0.1495  0.2415
13048TIP3    H260636   3.246   3.702  12.823 -1.0052 -0.1308  0.0849
13049TIP3   OH260637   3.639   4.321  16.823  0.2868  0.1711  1.0088
13049TIP3    H160638   3.624   4.350  16.912  1.1625  0.7007  0.9938
13049TIP3    H260639   3.552   4.302  16.788 -0.3242  2.7699  1.0162
13050TIP3   OH260640   1.540   1.991   3.829 -0.0674 -0.7250 -0.1079
13050TIP3    H160641   1.504   2.044   3.900  0.1019  1.5778 -1.6839
13050TIP3    H260642   1.625   2.031   3.810 -0.1142 -1.3154 -1.5962
13051TIP3   OH260643   5.263   6.521   0.785 -0.4034 -0.6656 -0.4306
13051TIP3    H160644   5.348   6.552   0.754  0.5863 -1.7036  1.1846
13051TIP3    H260645   5.245   6.573   0.863 -0.5783 -1.4232  0.0380
13052TIP3   OH260646   3.550   1.757  13.467  0.5206 -0.2704 -0.0717
13052TIP3    H160647   3.615   1.745  13.536  0.1831 -0.2320  0.2492
13052TIP3    H260648   3.484   1.816  13.505  1.8543  2.2097 -1.4184
13053TIP3   OH260649   2.077   2.564   3.577 -0.0030 -0.2202  0.1732
13053TIP3    H160650   2.075   2.652   3.616 -1.2773 -1.5598  3.2928
13053TIP3    H260651   1.987   2.547   3.551  0.8015  0.5682 -3.3001
13054TIP3   OH260652   1.508   6.522   6.350  0.2141  0.0521 -0.2158
13054TIP3    H160653   1.466   6.572   6.420 -0.4405  0.3899 -0.8413
13054TIP3    H260654   1.557   6.454   6.395 -1.6484 -0.8462  0.5129
13055TIP3   OH260655   6.627   1.509   3.755 -0.5292  0.6765  0.0963
13055TIP3    H160656   6.686   1.478   3.686  0.1125  2.5804 -0.2418
13055TIP3    H260657   6.666   1.477   3.836 -1.1880 -1.4214 -0.3897
13056TIP3   OH260658   3.854   3.055  11.148  0.1626 -0.6287  0.0396
13056TIP3    H160659   3.907   3.021  11.220  2.0898  1.2974 -0.4371
13056TIP3    H260660   3.918   3.087  11.084 -1.5776  1.6009 -0.6252
13057TIP3   OH260661   0.178   5.803   3.759 -0.6204 -0.1839 -0.0592
13057TIP3    H160662   0.122   5.799   3.681 -1.3291 -0.3620  0.4530
13057TIP3    H260663   0.170   5.893   3.789 -1.2544 -0.4142  0.4650
13058TIP3   OH260664   1.923   6.711   2.794 -0.1715  0.0281  0.4468
13058TIP3    H160665   1.892   6.764   2.720 -0.4708 -0.9798 -0.1565
13058TIP3    H260666   2.009   6.747   2.814  0.3832 -0.3796 -1.1053
13059TIP3   OH260667   3.743   4.438  13.544 -0.3715 -0.4336 -0.3742
13059TIP3    H160668   3.776   4.508  13.487  0.1362  0.1840  0.6786
13059TIP3    H260669   3.729   4.480  13.629 -1.4652 -1.2773 -0.1226
13060TIP3   OH260670   5.317   3.902   4.128  0.6410  0.3123  0.3708
13060TIP3    H160671   5.327   3.810   4.105 -0.0435  0.1373  0.7583
13060TIP3    H260672   5.228   3.924   4.101  1.0746  1.0916 -0.4820
13061TIP3   OH260673   2.283   3.847   4.522  0.6428 -0.3313 -0.0789
13061TIP3    H160674   2.253   3.761   4.493  0.8148 -0.4690  0.1400
13061TIP3    H260675   2.283   3.901   4.443 -0.7682 -0.1506  0.0433
13062TIP3   OH260676   1.183   3.352  12.786  0.0397 -0.0206 -0.2278
13062TIP3    H160677   1.222   3.428  12.741  0.2324 -1.8393 -3.2926
13062TIP3    H260678   1.258   3.299  12.813 -0.1161  0.4933  1.2420
13063TIP3   OH260679   2.068   0.325   4.648 -0.2046  0.1395  0.4541
13063TIP3    H160680   2.116   0.321   4.565 -0.5383  1.8594  0.1572
13063TIP3    H260681   2.133   0.350   4.713 -0.1274 -0.3320  0.5623
13064TIP3   OH260682   1.693   3.282   1.898  0.0526  0.0168  0.0310
13064TIP3    H160683   1.681   3.255   1.807 -0.9634  1.3832 -0.2573
13064TIP3    H260684   1.657   3.370   1.901  1.3003  0.4893  1.4542
13065TIP3   OH260685   1.850   3.109   4.083 -0.4662  0.4342  0.3134
13065TIP3    H160686   1.852   3.057   4.003  0.5001  1.4213 -0.3024
13065TIP3    H260687   1.761   3.097   4.117 -0.4064 -1.2190 -0.0779
13066TIP3   OH260688   3.035   6.290  11.495 -0.2986  0.2422  0.1387
13066TIP3    H160689   3.107   6.236  11.461  0.8252  1.0190  1.2287
13066TIP3    H260690   2.957   6.236  11.485  0.6256 -1.1109  0.1179
13067TIP3   OH260691   0.637   3.300   1.404  0.2265  0.0606 -0.1940
13067TIP3    H160692   0.554   3.333   1.368 -0.4324 -1.0379  0.2948
13067TIP3    H260693   0.621   3.207   1.419  2.6058 -0.8547 -3.0327
13068TIP3   OH260694   3.725   5.084  14.356  0.3327 -0.2754  0.3683
13068TIP3    H160695   3.747   5.122  14.270 -0.3604  0.8813  0.6970
13068TIP3    H260696   3.713   4.991  14.338 -0.0950 -0.0028 -0.8514
13069TIP3   OH260697   0.848   5.361  11.447 -0.0581 -0.3574 -0.2744
13069TIP3    H160698   0.784   5.328  11.384  1.7653  0.2924 -2.5553
13069TIP3    H260699   0.821   5.451  11.464 -1.1959 -0.8868  0.7459
13070TIP3   OH260700   4.791   3.055  12.789 -0.5039 -0.1509  0.3446
13070TIP3    H160701   4.882   3.041  12.762 -0.6502  1.1717 -0.8688
13070TIP3    H260702   4.778   2.993  12.861  1.3363 -0.4031  0.4889
13071TIP3   OH260703   0.761   2.782   0.971  0.5718 -0.4127  0.3096
13071TIP3    H160704   0.703   2.753   0.901  1.7205 -0.4844 -0.6271
13071TIP3    H260705   0.723   2.864   1.002  0.5711  0.1003 -1.0392
13072TIP3   OH260706   6.151   4.912   6.116 -0.0767  0.5649 -0.6167
13072TIP3    H160707   6.153   5.003   6.089 -0.9606  0.5893 -0.6331
13072TIP3    H260708   6.236   4.876   6.089 -0.4986  0.8757 -2.4291
13073TIP3   OH260709   4.798   0.018   4.412 -0.3158 -0.1621  0.5362
13073TIP3    H160710   4.788  -0.018   4.500 -0.5801  0.8587  0.9334
13073TIP3    H260711   4.847  -0.049   4.364  0.6510 -0.3263  1.7303
13074TIP3   OH260712   2.130   2.275   6.360  0.6261  0.1463  0.0155
13074TIP3    H160713   2.201   2.214   6.380 -0.1426 -1.3155 -1.6573
13074TIP3    H260714   2.129   2.335   6.435  1.9424 -1.3681  1.2806
13075TIP3   OH260715   0.674   5.323   0.080 -0.1611  0.2199 -0.2403
13075TIP3    H160716   0.616   5.395   0.105  0.4094  1.5537 -2.6923
13075TIP3    H260717   0.762   5.353   0.103 -0.1074 -0.5219  0.5576
13076TIP3   OH260718   4.439   0.202   2.858  0.3605  0.1094 -0.4869
13076TIP3    H160719   4.390   0.268   2.808  0.2204  1.6144  1.5440
13076TIP3    H260720   4.527   0.239   2.866  0.2812  0.0531  0.6631
13077TIP3   OH260721   4.718   3.334  14.491 -0.6896  0.4253 -0.2470
13077TIP3    H160722   4.669   3.416  14.501 -2.6806 -0.9175  1.2738
13077TIP3    H260723   4.692   3.302  14.404  0.6239  1.7336 -1.1358
13078TIP3   OH260724   2.098   6.415   0.936  0.7799  0.0974  0.0777
13078TIP3    H160725   2.048   6.388   0.858 -0.6822  1.9371  0.3461
13078TIP3    H260726   2.077   6.349   1.002 -0.7248  0.4423 -0.0427
13079TIP3   OH260727   4.178   6.225  14.474 -0.1275  0.4942  0.1945
13079TIP3    H160728   4.207   6.171  14.401  0.4331  0.3768  0.5034
13079TIP3    H260729   4.099   6.182  14.506  0.2442 -0.0663  0.3533
13080TIP3   OH260730   1.347   1.127   1.071 -0.1679  0.4567 -0.4732
13080TIP3    H160731   1.262   1.113   1.029  0.0024  0.4346 -0.8120
13080TIP3    H260732   1.350   1.222   1.087 -0.7169  0.3230  0.5361
13081TIP3   OH260733   3.868   4.378   0.542  0.0606  0.1798 -0.5566
13081TIP3    H160734   3.863   4.364   0.636  0.2674  1.6665 -0.3236
13081TIP3    H260735   3.954   4.342   0.518 -1.2388 -3.0526 -0.7180
13082TIP3   OH260736   2.740   5.143   1.048 -0.2211  0.0159  0.0635
13082TIP3    H160737   2.796   5.100   1.114 -0.3136  1.8168  1.3530
13082TIP3    H260738   2.749   5.236   1.067 -2.4915  0.4035 -0.6878
13083TIP3   OH260739   5.927   0.888   3.170 -0.0905  0.2307 -0.7239
13083TIP3    H160740   5.845   0.865   3.125 -0.5695  0.1814  0.1612
13083TIP3    H260741   5.906   0.968   3.218  0.8914  1.2081 -1.8719
13084TIP3   OH260742   1.450   2.063   0.787 -0.3479 -0.2564 -0.3722
13084TIP3    H160743   1.410   2.103   0.710  0.9433 -0.5728 -1.2137
13084TIP3    H260744   1.395   1.987   0.805 -0.7034 -0.1326 -0.9252
13085TIP3   OH260745   0.426   0.653  16.747  0.6981 -0.7232  0.4480
13085TIP3    H160746   0.377   0.735  16.760  3.3751  1.1579 -0.8574
13085TIP3    H260747   0.377   0.607  16.679  1.1444  1.5107 -1.4522
13086TIP3   OH260748   6.275   6.206  11.055 -0.2650 -0.5004 -0.0252
13086TIP3    H160749   6.340   6.265  11.017 -0.3814  1.0829  2.1338
13086TIP3    H260750   6.272   6.132  10.994  1.1609  0.8947 -1.8763
13087TIP3   OH260751   6.682   6.179  13.629 -0.2612 -0.0596 -0.3877
13087TIP3    H160752   6.622   6.241  13.671  1.4043  1.0945  0.3393
13087TIP3    H260753   6.680   6.102  13.686 -0.4100  0.2999  0.0961
13088TIP3   OH260754   0.957   6.561  14.895 -0.4530  0.1210 -0.6650
13088TIP3    H160755   0.979   6.468  14.885 -0.1638 -0.0407  1.3444
13088TIP3    H260756   1.041   6.607  14.888 -0.1122 -0.0710  1.7577
13089TIP3   OH260757   3.574   1.057   1.575 -0.1858  0.2427 -0.1329
13089TIP3    H160758   3.551   0.983   1.518  0.9036  0.1742 -0.4873
13089TIP3    H260759   3.615   1.017   1.652  0.0925  0.4542 -0.1705
13090TIP3   OH260760   0.086   3.649  15.221 -0.5034  0.6419  0.7546
13090TIP3    H160761   0.126   3.603  15.147  0.5010  0.9719  1.0822
13090TIP3    H260762   0.081   3.582  15.290  0.2907  0.8268  0.9953
13091TIP3   OH260763   0.515   5.574   6.533 -0.3904  0.1545  0.1948
13091TIP3    H160764   0.510   5.478   6.535 -0.2390  0.1696  2.9018
13091TIP3    H260765   0.424   5.602   6.520 -0.3449 -0.3587 -1.2809
13092TIP3   OH260766   4.388   2.589  12.127  0.6306  0.1731 -0.2311
13092TIP3    H160767   4.458   2.543  12.174 -1.8316 -2.8698  0.5947
13092TIP3    H260768   4.342   2.639  12.194  0.8272  0.6935 -0.4735
13093TIP3   OH260769   6.773   0.401  14.510 -0.0034 -0.7811  0.3647
13093TIP3    H160770   6.773   0.323  14.566  1.7592  0.0960  1.6402
13093TIP3    H260771   6.818   0.467  14.562  1.7887  0.0303 -2.1413
13094TIP3   OH260772   1.649   1.835  11.109  0.3923 -0.5723 -0.6102
13094TIP3    H160773   1.702   1.761  11.079  0.8108 -0.2046 -0.7912
13094TIP3    H260774   1.658   1.900  11.039  0.1204 -0.3077 -0.3971
13095TIP3   OH260775   2.969   4.986  12.741 -0.1402 -0.7453  0.6466
13095TIP3    H160776   2.927   4.990  12.656 -0.0449 -1.2811  0.5756
13095TIP3    H260777   3.050   4.937  12.726  0.7771  0.7334  0.6705
13096TIP3   OH260778   5.376   2.104   6.501  0.2498 -0.0156 -0.0171
13096TIP3    H160779   5.289   2.112   6.540 -0.8707  1.2045 -2.6508
13096TIP3    H260780   5.433   2.082   6.575 -2.2125 -0.5039  1.8206
13097TIP3   OH260781   5.969   5.170   3.138 -0.0512 -0.1005  0.1634
13097TIP3    H160782   5.914   5.153   3.214  0.7793 -0.7282  0.6394
13097TIP3    H260783   5.991   5.083   3.105 -0.6467  0.1743 -0.9749
13098TIP3   OH260784   3.316   4.263  11.632 -0.2397  0.0192  0.4365
13098TIP3    H160785   3.277   4.270  11.545  0.6035 -0.5028  0.0146
13098TIP3    H260786   3.391   4.205  11.621 -1.0367 -1.3300  1.8232
13099TIP3   OH260787   4.948   0.602  12.220 -0.5987 -0.5373  0.4612
13099TIP3    H160788   5.022   0.571  12.167 -0.4571 -0.5958  0.6932
13099TIP3    H260789   4.949   0.697  12.207 -0.8428 -0.5979 -0.0011
13100TIP3   OH260790   2.639   3.289  13.410 -0.2984  0.5947  0.1992
13100TIP3    H160791   2.684   3.208  13.432 -0.7521  0.1963 -0.3206
13100TIP3    H260792   2.653   3.299  13.316  1.0756  1.9369  0.5268
13101TIP3   OH260793   1.823   5.465  12.890 -0.2922 -0.1699 -0.1802
13101TIP3    H160794   1.763   5.518  12.943  0.7142  1.1335 -0.3134
13101TIP3    H260795   1.867   5.408  12.953  1.2977  1.7589  0.5062
13102TIP3   OH260796   2.406   5.709  15.170  0.2503  0.1180  0.0462
13102TIP3    H160797   2.353   5.754  15.236 -0.2844 -0.9313  0.3457
13102TIP3    H260798   2.494   5.744  15.182  0.2417 -0.3239  1.5850
13103TIP3   OH260799   1.542   5.296   5.697  0.1264  0.1465 -0.3032
13103TIP3    H160800   1.574   5.233   5.632  0.5987  1.1137 -1.0193
13103TIP3    H260801   1.594   5.278   5.776 -0.2812 -0.8693 -0.2632
13104TIP3   OH260802   2.631   2.330   5.246  0.1581 -0.0173 -0.2934
13104TIP3    H160803   2.698   2.398   5.250  0.6139 -0.5031  0.6027
13104TIP3    H260804   2.681   2.250   5.228 -0.3358 -0.1677 -1.0067
13105TIP3   OH260805   0.886   0.490   0.087 -0.7121 -0.4766  0.0635
13105TIP3    H160806   0.929   0.434   0.022  0.7098  1.0499 -0.3308
13105TIP3    H260807   0.952   0.555   0.111 -2.2640  0.8945  0.6986
13106TIP3   OH260808   1.504   6.694   3.211 -0.3109  0.2844 -0.0454
13106TIP3    H160809   1.587   6.697   3.164 -0.5441  0.3602 -0.4483
13106TIP3    H260810   1.502   6.607   3.250 -0.1143  0.2255 -0.1646
13107TIP3   OH260811   1.009   0.157   2.938 -0.2724  0.3227  0.0560
13107TIP3    H160812   0.935   0.123   2.888 -1.0146 -1.2253  2.1822
13107TIP3    H260813   1.008   0.108   3.020  4.0641 -0.9022 -0.4902
13108TIP3   OH260814   3.495   0.026  16.072 -0.1700 -0.5124  0.0073
13108TIP3    H160815   3.508  -0.020  15.989 -3.4689 -1.2329 -0.1589
13108TIP3    H260816   3.538   0.111  16.059  1.9297 -1.7383 -1.3388
13109TIP3   OH260817   3.639   3.980   0.599 -0.1895 -0.2425  0.3963
13109TIP3    H160818   3.608   4.059   0.643  0.9564  1.3559 -1.5638
13109TIP3    H260819   3.630   4.000   0.506 -0.3396 -2.6267 -0.1082
13110TIP3   OH260820   2.059   3.343   3.354  0.1503 -0.0862 -0.0277
13110TIP3    H160821   2.101   3.362   3.438 -2.0062  0.9652  0.8660
13110TIP3    H260822   2.005   3.266   3.371  1.4605 -1.2738 -1.0988
13111TIP3   OH260823   2.158   2.168   5.693  0.3809 -0.0605  0.8105
13111TIP3    H160824   2.242   2.131   5.664  0.7620  0.6086  1.0566
13111TIP3    H260825   2.140   2.122   5.775  0.8344  0.2593  1.0940
13112TIP3   OH260826   1.894   2.770   2.767 -0.8704  0.5908  0.2210
13112TIP3    H160827   1.953   2.840   2.797 -1.1130  1.7216 -1.8388
13112TIP3    H260828   1.848   2.808   2.693 -0.7165 -1.9076 -1.2118
13113TIP3   OH260829   3.154   5.670  12.810  0.4311  0.0982 -0.4223
13113TIP3    H160830   3.132   5.582  12.840 -0.4629 -0.7036 -3.2758
13113TIP3    H260831   3.069   5.714  12.801  0.7884  0.8119 -0.3438
13114TIP3   OH260832   4.592   4.866  12.143 -0.2058  0.0506 -0.0151
13114TIP3    H160833   4.646   4.935  12.104 -0.6712 -0.3133 -1.3127
13114TIP3    H260834   4.594   4.885  12.237  1.8527  0.2659 -0.0927
13115TIP3   OH260835   0.923   4.413  12.304 -0.2649 -0.6200 -0.8059
13115TIP3    H160836   0.876   4.471  12.245  1.0989  1.1188 -0.2007
13115TIP3    H260837   0.997   4.464  12.335  2.3684 -3.4559 -2.1272
13116TIP3   OH260838   4.866   5.845  12.516  0.3228 -0.5591  0.3696
13116TIP3    H160839   4.816   5.924  12.536 -0.1116 -1.0646  1.3175
13116TIP3    H260840   4.957   5.871  12.526  0.1962 -0.0698  0.2567
13117TIP3   OH260841   4.562   1.415   6.048  0.8396  0.3125  0.4238
13117TIP3    H160842   4.529   1.456   5.968  1.1463  0.9168  0.6022
13117TIP3    H260843   4.488   1.420   6.110  0.1424 -1.3633 -0.2253
13118TIP3   OH260844   1.110   0.264  13.135 -0.8535 -0.2336  0.4760
13118TIP3    H160845   1.040   0.267  13.201 -0.4796 -3.7417  1.1313
13118TIP3    H260846   1.187   0.299  13.181 -1.2487 -0.0365  0.9989
13119TIP3   OH260847   2.023   5.338   4.564  0.1281 -0.1317  0.2704
13119TIP3    H160848   1.973   5.397   4.620 -0.1173 -0.7565  0.7050
13119TIP3    H260849   2.019   5.379   4.477 -1.3588 -0.3161  0.2404
13120TIP3   OH260850   4.029   0.253   4.946  0.4086 -0.1017  0.2410
13120TIP3    H160851   4.085   0.323   4.913  0.0697  1.0833  2.1318
13120TIP3    H260852   3.941   0.278   4.919  0.6396 -1.5156 -1.9587
13121TIP3   OH260853   1.176   1.506  15.355  0.3357 -0.5354  0.0366
13121TIP3    H160854   1.202   1.424  15.397 -0.4075 -0.1007  1.3792
13121TIP3    H260855   1.161   1.566  15.428 -0.3968  0.4102 -0.8813
13122TIP3   OH260856   4.392   4.719  11.969 -0.1701 -0.6784  0.5667
13122TIP3    H160857   4.445   4.757  12.039 -1.3424  2.7299 -0.2806
13122TIP3    H260858   4.457   4.682  11.909  1.1124  0.5602  1.1400
13123TIP3   OH260859   3.540   6.784  10.695  0.5428  0.4053 -0.7112
13123TIP3    H160860   3.575   6.838  10.624  0.4276 -0.0614 -1.1228
13123TIP3    H260861   3.526   6.845  10.767 -0.7177  1.1448 -1.5687
13124TIP3   OH260862   6.082   2.481  14.431 -0.1906 -0.0584 -0.5618
13124TIP3    H160863   6.019   2.501  14.362 -0.4161 -1.1229 -0.6679
13124TIP3    H260864   6.133   2.407  14.397 -2.6491 -3.0074  1.8518
13125TIP3   OH260865   5.734   3.058   5.230 -0.0497  0.5915 -0.3867
13125TIP3    H160866   5.820   3.066   5.188  0.3028  2.9279  0.7127
13125TIP3    H260867   5.710   3.148   5.251 -1.6087 -0.2893  1.6592
13126TIP3   OH260868   1.091   1.811   1.293  0.3336  0.1299  0.1238
13126TIP3    H160869   1.146   1.768   1.358  0.4175  0.9051  0.5849
13126TIP3    H260870   1.102   1.905   1.311  0.6188  0.3703 -1.2264
13127TIP3   OH260871   3.533   6.728   4.854  0.1850 -0.3725  0.0447
13127TIP3    H160872   3.605   6.709   4.914  0.5028 -0.0381 -0.2351
13127TIP3    H260873   3.481   6.647   4.854  0.6643 -0.6840  0.0926
13128TIP3   OH260874   5.431   2.592   2.083  0.4453 -0.2663  0.0538
13128TIP3    H160875   5.494   2.640   2.138 -0.2169 -0.5633  1.0739
13128TIP3    H260876   5.384   2.535   2.144 -1.4255  0.5918 -0.5553
13129TIP3   OH260877   5.342   2.079  10.834 -0.8425 -0.1237  0.1415
13129TIP3    H160878   5.283   2.133  10.887 -0.0994  0.0961  0.7453
13129TIP3    H260879   5.405   2.140  10.798 -1.0941 -0.3363 -0.6690
13130TIP3   OH260880   2.573   6.512  16.506  0.2855  0.1837  0.1350
13130TIP3    H160881   2.567   6.582  16.442 -1.6393 -0.2390 -0.1617
13130TIP3    H260882   2.561   6.556  16.591  1.5063  0.5474  0.1273
13131TIP3   OH260883   1.392   5.991  15.770 -0.1309 -0.0916  0.2224
13131TIP3    H160884   1.372   5.898  15.774 -0.5628 -0.0037  0.1140
13131TIP3    H260885   1.314   6.031  15.731 -2.0565  0.9290  4.7411
13132TIP3   OH260886   5.952   4.426   1.682  0.1374  0.2349 -0.1321
13132TIP3    H160887   5.895   4.350   1.694  0.1186  0.3794  0.7578
13132TIP3    H260888   5.895   4.501   1.700  1.1366  0.2995  3.0031
13133TIP3   OH260889   3.339   3.175   2.372  0.1930 -0.1660  0.2968
13133TIP3    H160890   3.340   3.217   2.287 -0.9124 -0.5539  0.0816
13133TIP3    H260891   3.407   3.219   2.422  1.6224 -0.6888 -1.1421
13134TIP3   OH260892   1.144   4.666   6.556 -0.7764  0.2610 -0.2170
13134TIP3    H160893   1.200   4.743   6.552  1.3641 -1.0954  1.7995
13134TIP3    H260894   1.179   4.607   6.489 -0.6176 -0.0558  0.1386
13135TIP3   OH260895   3.982   5.884  13.780 -0.0820 -0.0983  0.4350
13135TIP3    H160896   3.940   5.969  13.798 -0.6503 -0.0799 -0.9422
13135TIP3    H260897   4.075   5.900  13.794 -0.0271  1.1399 -1.2476
13136TIP3   OH260898   2.678   1.868   2.809 -0.2541 -0.0267  1.0562
13136TIP3    H160899   2.710   1.943   2.759  0.5601 -0.8007  0.4100
13136TIP3    H260900   2.641   1.907   2.889 -0.1010  1.0797  0.5984
13137TIP3   OH260901   6.199   4.515  11.722  0.3917  0.2322 -0.2660
13137TIP3    H160902   6.231   4.584  11.665 -0.5460  0.8185 -0.1054
13137TIP3    H260903   6.141   4.560  11.783 -1.2530 -0.8748 -0.9719
13138TIP3   OH260904   1.866   5.570  13.293 -0.3931 -0.2801  0.2550
13138TIP3    H160905   1.784   5.619  13.295 -0.0014  0.3412  1.1121
13138TIP3    H260906   1.840   5.478  13.304 -1.0971 -0.2575 -1.0543
13139TIP3   OH260907   2.508   4.476   5.924  0.1333 -0.1157  0.9887
13139TIP3    H160908   2.532   4.568   5.937 -0.6277 -0.0246  1.8166
13139TIP3    H260909   2.435   4.462   5.984 -1.2614 -0.6488 -0.8017
13140TIP3   OH260910   3.629   1.737  15.586 -0.4857 -0.2493 -0.5889
13140TIP3    H160911   3.693   1.686  15.637 -2.0687 -1.9658 -0.2807
13140TIP3    H260912   3.681   1.780  15.518  1.3135  0.1510  1.0034
13141TIP3   OH260913   0.432   2.076  12.519 -0.8963  0.3773 -0.4492
13141TIP3    H160914   0.507   2.054  12.463 -1.8245 -1.4106 -1.0359
13141TIP3    H260915   0.461   2.053  12.607 -1.1046 -1.3695 -0.8075
13142TIP3   OH260916   3.822   3.574  17.237 -0.0409 -0.0784 -0.6238
13142TIP3    H160917   3.743   3.545  17.283 -0.0783  0.6526 -0.2137
13142TIP3    H260918   3.794   3.583  17.146 -0.2685 -0.4179 -0.5890
13143TIP3   OH260919   5.585   2.242  14.287  0.2918 -0.0062 -0.2411
13143TIP3    H160920   5.524   2.245  14.360 -0.5333  1.8721 -0.9652
13143TIP3    H260921   5.535   2.203  14.215  1.1959 -2.1415  0.2623
13144TIP3   OH260922   2.476   0.172   3.227 -0.2606 -0.7275 -0.5458
13144TIP3    H160923   2.431   0.163   3.312 -0.2735  1.0857 -0.3387
13144TIP3    H260924   2.462   0.088   3.184 -2.9956 -0.5662 -0.0627
13145TIP3   OH260925   4.141   2.045  14.376  0.4192  0.8218 -0.2641
13145TIP3    H160926   4.120   2.123  14.325 -0.0850 -1.0719 -3.0002
13145TIP3    H260927   4.231   2.025  14.353 -0.1388 -0.6325 -1.1869
13146TIP3   OH260928   2.922   4.759  10.819  0.0471  0.2641 -0.1056
13146TIP3    H160929   2.879   4.801  10.745 -0.1959 -0.9402 -0.6426
13146TIP3    H260930   2.946   4.672  10.788  2.4788  0.7360  0.3047
13147TIP3   OH260931   0.325   1.213   4.665  0.6505 -0.3036 -0.6507
13147TIP3    H160932   0.296   1.236   4.577 -0.5957 -0.2856 -0.2367
13147TIP3    H260933   0.325   1.295   4.714 -0.4493 -0.5984 -0.1322
13148TIP3   OH260934   5.812   4.559  12.430 -0.0395 -0.1486 -0.2661
13148TIP3    H160935   5.824   4.517  12.516 -1.8116 -0.3280 -0.0947
13148TIP3    H260936   5.720   4.545  12.409 -0.3594  2.5328 -0.8147
13149TIP3   OH260937   4.670   0.747  14.311 -0.1622  0.2753  0.4482
13149TIP3    H160938   4.636   0.675  14.364 -1.0863  0.1872 -0.2337
13149TIP3    H260939   4.633   0.826  14.351 -1.6721  0.1423 -0.6202
13150TIP3   OH260940   1.665   1.187   0.897 -0.7449  0.4345 -0.2246
13150TIP3    H160941   1.641   1.232   0.977 -0.7917 -0.2642  0.1603
13150TIP3    H260942   1.591   1.203   0.837 -1.4375 -0.3322  0.3998
13151TIP3   OH260943   6.205   1.291   2.164 -0.2389  0.0143  0.2577
13151TIP3    H160944   6.124   1.339   2.151 -0.7417 -0.8295  0.2212
13151TIP3    H260945   6.253   1.302   2.081 -0.2424  0.6333  0.3350
13152TIP3   OH260946   1.486   2.438   1.925 -0.7490 -0.2564 -0.3171
13152TIP3    H160947   1.460   2.391   1.846 -1.8077  1.3855 -0.9638
13152TIP3    H260948   1.525   2.519   1.892 -0.7438  0.2108  0.8384
13153TIP3   OH260949   1.688   1.103   6.530 -0.2621  0.2415 -0.3126
13153TIP3    H160950   1.701   1.153   6.610  0.3858  1.5016 -1.1925
13153TIP3    H260951   1.688   1.012   6.558  1.8799  0.5886  0.8698
13154TIP3   OH260952   1.151   5.123  11.244 -0.3672 -0.1641 -0.3198
13154TIP3    H160953   1.101   5.055  11.200 -0.1960 -1.1761  1.0339
13154TIP3    H260954   1.101   5.143  11.323 -0.1974  0.9737 -0.4907
13155TIP3   OH260955   2.348   4.975   5.281 -0.3925  0.0189 -0.1562
13155TIP3    H160956   2.267   4.984   5.230 -0.3907  1.0797  0.0148
13155TIP3    H260957   2.418   4.982   5.217 -0.4012  0.8325 -0.0792
13156TIP3   OH260958   1.278   2.977  11.759 -0.2407 -0.3585  0.0050
13156TIP3    H160959   1.322   2.942  11.681 -0.7273  0.9061 -0.8605
13156TIP3    H260960   1.348   2.998  11.820  0.3345  0.9495 -1.0746
13157TIP3   OH260961   4.488   0.992  11.496 -0.1637 -0.7013 -0.3524
13157TIP3    H160962   4.462   0.933  11.567 -0.1916 -1.0743 -0.6724
13157TIP3    H260963   4.486   0.938  11.417 -0.4438 -0.2034 -0.6877
13158TIP3   OH260964   4.237   5.863   4.435  0.1903  0.6161 -0.1271
13158TIP3    H160965   4.158   5.841   4.387 -0.4653  0.9455  0.7760
13158TIP3    H260966   4.295   5.903   4.370  1.5826 -3.9449 -1.9016
13159TIP3   OH260967   6.283   4.310  13.298  0.3738  0.5255  0.2406
13159TIP3    H160968   6.311   4.385  13.349  0.6262  2.4778 -2.6188
13159TIP3    H260969   6.358   4.291  13.241 -0.7450 -0.0458 -1.0764
13160TIP3   OH260970   4.077   2.922  13.687  0.2123  0.2094  0.0016
13160TIP3    H160971   4.012   2.992  13.693  0.0348  0.2765 -2.4594
13160TIP3    H260972   4.152   2.956  13.737  0.3671  2.4483 -1.6918
13161TIP3   OH260973   6.571   3.189  10.992  0.0818  0.7087 -0.0535
13161TIP3    H160974   6.627   3.137  10.935 -0.1186  0.8817 -0.4098
13161TIP3    H260975   6.585   3.152  11.080  0.0073  0.1193 -0.2886
13162TIP3   OH260976   3.790   3.592   4.401 -0.2590 -0.2578 -0.0868
13162TIP3    H160977   3.867   3.559   4.354 -0.2562 -1.7172  0.9239
13162TIP3    H260978   3.815   3.681   4.427  0.7455 -0.4012 -0.5348
13163TIP3   OH260979   2.227   4.059   1.999  0.0166  0.0406 -0.0883
13163TIP3    H160980   2.289   4.125   1.968 -0.4042  0.1854 -0.6165
13163TIP3    H260981   2.177   4.034   1.922 -0.6026 -0.0628  0.3376
13164TIP3   OH260982   2.196   1.882   2.559  0.1542  0.0301  0.4210
13164TIP3    H160983   2.120   1.903   2.505 -0.5340 -0.4665  1.1808
13164TIP3    H260984   2.166   1.811   2.617  1.2383 -0.2811  0.6214
13165TIP3   OH260985   5.441   5.050   1.572 -0.5447  0.4409  0.4431
13165TIP3    H160986   5.509   5.113   1.549 -1.5488  1.6365  0.6816
13165TIP3    H260987   5.438   5.051   1.668  1.0347 -1.7189  0.5406
13166TIP3   OH260988   6.179   4.090  15.151  0.2986 -0.2786  0.1487
13166TIP3    H160989   6.215   4.170  15.190  0.5047  0.2603 -1.0991
13166TIP3    H260990   6.194   4.022  15.216  2.5338  0.1748  0.1552
13167TIP3   OH260991   4.546   0.078   1.684 -0.2466 -0.2527 -0.2095
13167TIP3    H160992   4.603   0.130   1.627 -0.1347  0.4112  0.4948
13167TIP3    H260993   4.496   0.023   1.624 -0.0825  0.3891 -0.9443
13168TIP3   OH260994   2.327   6.697  13.504 -0.0640 -0.6577 -0.2224
13168TIP3    H160995   2.412   6.714  13.462 -0.2001 -1.0180 -0.6426
13168TIP3    H260996   2.349   6.678  13.595  0.1650  1.0289  0.0933
13169TIP3   OH260997   6.234   3.901   4.097 -0.4037  0.3556 -0.4794
13169TIP3    H160998   6.160   3.859   4.141  0.2612 -0.0134  0.3185
13169TIP3    H260999   6.302   3.905   4.164 -0.1825  2.0092 -0.7801
13170TIP3   OH261000   2.619   5.951   3.061 -0.5683 -0.0728  0.4522
13170TIP3    H161001   2.630   5.911   3.147  0.1142  0.1424  0.4663
13170TIP3    H261002   2.562   6.026   3.076 -0.7106 -0.2238  0.6625
13171TIP3   OH261003   5.131   0.901  14.939  0.1147 -0.1805 -0.1615
13171TIP3    H161004   5.037   0.884  14.935  0.1537 -0.0550 -1.7380
13171TIP3    H261005   5.139   0.996  14.933  0.2816 -0.0519  1.5942
13172TIP3   OH261006   0.505   1.099   0.592  0.3427 -0.8471 -0.2171
13172TIP3    H161007   0.582   1.056   0.554  1.2767  0.3117  0.3522
13172TIP3    H261008   0.541   1.167   0.648 -1.1262  0.2233 -0.5606
13173TIP3   OH261009   2.840   1.461   2.799  0.4497  0.6937  0.5013
13173TIP3    H161010   2.860   1.426   2.886 -0.0340  0.0998  0.3764
13173TIP3    H261011   2.852   1.555   2.808 -1.4770  0.8558  1.7393
13174TIP3   OH261012   6.158   3.009  14.075 -0.2397 -0.5181  1.0106
13174TIP3    H161013   6.069   3.038  14.093 -0.4394 -0.8415  0.5626
13174TIP3    H261014   6.211   3.047  14.145 -0.0908  2.8825 -0.8543
13175TIP3   OH261015   1.215   4.581  17.168  0.1261  0.6962 -0.5581
13175TIP3    H161016   1.191   4.617  17.253 -1.9838  1.5007 -1.4626
13175TIP3    H261017   1.274   4.647  17.130 -0.7248  1.4127 -0.6437
13176TIP3   OH261018   6.532   6.245  11.877 -0.1435  0.2087 -0.1259
13176TIP3    H161019   6.555   6.243  11.970  0.3686 -1.8900 -0.2913
13176TIP3    H261020   6.493   6.160  11.860  0.0333  0.4783 -1.9024
13177TIP3   OH261021   2.623   3.576   1.991  0.4081  0.6109 -0.4492
13177TIP3    H161022   2.583   3.496   1.957 -0.9668  0.8663  0.5335
13177TIP3    H261023   2.594   3.644   1.931 -0.7097  0.7990  0.2709
13178TIP3   OH261024   1.343   3.867   5.283 -0.2725 -0.5039 -0.3918
13178TIP3    H161025   1.412   3.921   5.320 -1.2890  0.4250  0.1812
13178TIP3    H261026   1.388   3.789   5.251  1.4218  1.2582 -2.4818
13179TIP3   OH261027   4.557   0.972   2.479  0.0156 -0.4548 -0.0356
13179TIP3    H161028   4.606   0.987   2.398  0.5183 -2.1553 -0.0688
13179TIP3    H261029   4.603   1.023   2.545  1.2991 -1.2906 -0.2586
13180TIP3   OH261030   2.520   0.877  11.785 -0.1084  0.2262 -0.1250
13180TIP3    H161031   2.522   0.852  11.877 -0.3654  0.1216 -0.1488
13180TIP3    H261032   2.458   0.950  11.781 -1.4276 -0.8937 -0.4893
13181TIP3   OH261033   6.810   2.096   2.184  0.0709 -0.0563  0.2564
13181TIP3    H161034   6.740   2.080   2.247  1.4290 -2.2990  1.2520
13181TIP3    H261035   6.818   2.014   2.135  2.1623  0.0511  0.3470
13182TIP3   OH261036   4.148   4.725   5.561 -0.1225 -0.2225  0.2218
13182TIP3    H161037   4.199   4.750   5.638  0.9176  0.5300 -0.7083
13182TIP3    H261038   4.060   4.709   5.596 -0.1323  1.9134  1.2886
13183TIP3   OH261039   1.925   2.901  13.014  0.1305  0.7795 -0.1310
13183TIP3    H161040   2.000   2.845  13.035 -1.4020 -1.4375 -0.3630
13183TIP3    H261041   1.910   2.886  12.921 -2.5290 -1.2970  0.5727
13184TIP3   OH261042   2.763   4.909  14.179 -0.3430 -0.9127 -0.2554
13184TIP3    H161043   2.709   4.917  14.257  0.9088 -1.1901  0.6682
13184TIP3    H261044   2.853   4.912  14.212  0.2192  0.0706 -1.7996
13185TIP3   OH261045   5.928   2.849  11.762 -0.0246 -0.5040  0.2826
13185TIP3    H161046   5.937   2.846  11.857  0.4104  0.2423  0.2750
13185TIP3    H261047   5.910   2.941  11.743 -4.1265 -1.3099 -0.0428
13186TIP3   OH261048   4.741   1.992   0.263  0.0938  0.0174 -0.3359
13186TIP3    H161049   4.702   2.061   0.210  0.3372 -0.8844 -1.7183
13186TIP3    H261050   4.771   1.927   0.199  4.0714  0.7758  0.6197
13187TIP3   OH261051   3.658   1.502  13.899 -0.3513 -0.5393  0.6863
13187TIP3    H161052   3.737   1.487  13.950 -0.0844 -1.7775 -0.0609
13187TIP3    H261053   3.638   1.595  13.912  2.3074  0.2803 -0.6542
13188TIP3   OH261054   6.402   1.556  15.716  0.1146  0.3659 -0.5106
13188TIP3    H161055   6.321   1.594  15.750  0.9864  2.2409 -0.4627
13188TIP3    H261056   6.398   1.569  15.622 -0.4550 -1.1982 -0.7218
13189TIP3   OH261057   5.849   3.070   4.678 -0.7630 -0.0739 -0.4014
13189TIP3    H161058   5.829   3.136   4.612 -2.1269  1.1320  1.1648
13189TIP3    H261059   5.911   3.114   4.737 -2.1450  0.0601  0.9892
13190TIP3   OH261060   2.255   3.711  11.861  0.3881  0.0914 -0.0392
13190TIP3    H161061   2.294   3.700  11.774 -1.3474 -1.0988 -0.6883
13190TIP3    H261062   2.281   3.633  11.909  0.0255 -0.0082 -0.0059
13191TIP3   OH261063   6.149   1.885   4.503  0.6707  0.8329  0.2707
13191TIP3    H161064   6.098   1.963   4.483 -0.3256  0.4431  1.2535
13191TIP3    H261065   6.225   1.891   4.445 -0.1664  1.7392 -0.7621
13192TIP3   OH261066   2.734   5.660   2.708 -0.3199  0.0354 -0.8379
13192TIP3    H161067   2.816   5.702   2.736 -0.3987 -1.4871  1.9154
13192TIP3    H261068   2.668   5.728   2.720  0.2531  0.6390 -1.0653
13193TIP3   OH261069   1.736   1.190  13.160 -0.1763  0.5710  0.6814
13193TIP3    H161070   1.744   1.111  13.106 -1.6680 -0.0562  1.3356
13193TIP3    H261071   1.764   1.262  13.103 -0.2760 -0.2491 -0.4122
13194TIP3   OH261072   2.452   0.832  14.795 -0.2340 -0.0709 -0.6162
13194TIP3    H161073   2.432   0.856  14.885  1.6563 -0.1969 -0.1558
13194TIP3    H261074   2.392   0.885  14.742 -2.3237 -1.0273  0.7396
13195TIP3   OH261075   3.418   1.094  15.060  0.2986  0.2684 -0.4513
13195TIP3    H161076   3.416   1.084  15.156 -1.5259 -0.7793 -0.5732
13195TIP3    H261077   3.350   1.035  15.029  0.7851  0.7147 -2.4093
13196TIP3   OH261078   1.841   0.181  12.208  0.1775  0.1198  0.0884
13196TIP3    H161079   1.852   0.265  12.252  0.8861 -0.4269  0.9494
13196TIP3    H261080   1.928   0.160  12.175 -0.0982 -0.0604 -0.5398
13197TIP3   OH261081   3.089   4.365  11.446 -0.2073  0.1673  0.2028
13197TIP3    H161082   3.114   4.316  11.367  1.4242  0.0790  0.7464
13197TIP3    H261083   2.999   4.339  11.463  0.2215 -1.6827 -0.2391
13198TIP3   OH261084   5.887   2.625   5.576 -0.1611 -0.1438 -0.5445
13198TIP3    H161085   5.918   2.700   5.627  0.4336  0.2083 -1.4093
13198TIP3    H261086   5.967   2.581   5.547 -0.5119 -1.2481  0.1620
13199TIP3   OH261087   4.948   1.824   3.256 -0.3164  0.3056 -0.4342
13199TIP3    H161088   4.853   1.836   3.247 -0.1858  0.9946 -0.8669
13199TIP3    H261089   4.967   1.748   3.201 -0.5264  0.5155 -0.7944
13200TIP3   OH261090   0.922   2.082   0.876 -0.1536  1.1768  0.8545
13200TIP3    H161091   1.014   2.081   0.901  0.1445  1.6325 -0.1673
13200TIP3    H261092   0.897   1.990   0.871 -0.5057  1.0874  3.7487
13201TIP3   OH261093   2.344   4.976   2.801 -0.2275 -0.5154 -0.3622
13201TIP3    H161094   2.387   4.898   2.766 -1.0136 -0.2362 -1.9716
13201TIP3    H261095   2.252   4.952   2.807 -0.1043 -0.5759  1.5933
13202TIP3   OH261096   4.227   6.307  14.104  0.1157  0.0063  0.1358
13202TIP3    H161097   4.245   6.399  14.085  0.9096  0.2760  1.9936
13202TIP3    H261098   4.177   6.275  14.029 -0.1449  1.9448 -0.5323
13203TIP3   OH261099   1.648   3.205   3.444  0.0185 -0.4745  0.5140
13203TIP3    H161100   1.628   3.236   3.533 -1.0572 -3.1476  1.2582
13203TIP3    H261101   1.685   3.281   3.400 -0.5385  1.2383  2.8947
13204TIP3   OH261102   6.326   1.361   3.233 -0.1425  0.4255  0.2313
13204TIP3    H161103   6.363   1.410   3.307  0.1026  1.3232 -0.4768
13204TIP3    H261104   6.298   1.428   3.171 -0.9471 -0.3050 -0.2160
13205TIP3   OH261105   2.542   2.645   4.254  0.5093 -0.0020 -0.2485
13205TIP3    H161106   2.600   2.721   4.245 -2.4008  2.6098  2.0181
13205TIP3    H261107   2.467   2.666   4.199 -1.0021 -0.5125  1.5907
13206TIP3   OH261108   2.517   4.038  11.581 -0.3024  0.3614  0.1140
13206TIP3    H161109   2.483   4.045  11.492 -0.8894 -0.2601  0.2880
13206TIP3    H261110   2.612   4.046  11.570 -0.4698  1.6447 -0.4124
13207TIP3   OH261111   6.671   2.545   2.181 -0.3513 -0.3715  0.5769
13207TIP3    H161112   6.700   2.617   2.124 -0.3159 -0.7463  0.1203
13207TIP3    H261113   6.720   2.469   2.151 -1.5038 -0.9181  0.0567
13208TIP3   OH261114   2.753   4.692   0.451  0.2070  0.0785 -0.0952
13208TIP3    H161115   2.824   4.659   0.396  0.5217 -1.8067  1.4068
13208TIP3    H261116   2.677   4.638   0.428 -0.8224  2.1410 -1.7638
13209TIP3   OH261117   3.144   4.933   0.415  0.9061 -0.4246  0.3402
13209TIP3    H161118   3.210   4.971   0.473 -0.6774  1.4047  1.0096
13209TIP3    H261119   3.075   4.904   0.474 -0.1905  0.3798 -0.5320
13210TIP3   OH261120   2.224   6.182  11.708  0.5656 -0.2066  0.5133
13210TIP3    H161121   2.200   6.138  11.626  1.5790  0.5093 -0.1779
13210TIP3    H261122   2.192   6.124  11.776  1.4009 -1.7677 -0.3925
13211TIP3   OH261123   1.660   0.469   4.658 -0.0307 -0.6189 -0.0490
13211TIP3    H161124   1.737   0.523   4.676  0.7672 -2.6677  3.0586
13211TIP3    H261125   1.594   0.500   4.720 -0.3252 -1.6647  0.1602
13212TIP3   OH261126   5.330   4.866   3.307  0.3778 -0.5357  0.3775
13212TIP3    H161127   5.243   4.850   3.268  0.1414 -1.0492  1.1153
13212TIP3    H261128   5.335   4.961   3.315 -0.0013 -0.4863  0.0757
13213TIP3   OH261129   6.195   0.856  12.954  0.8758  0.2088  0.3188
13213TIP3    H161130   6.181   0.806  12.873  1.3061  0.0741  0.3288
13213TIP3    H261131   6.124   0.921  12.954  0.4963 -0.2042  0.1583
13214TIP3   OH261132   1.106   4.094  13.814 -0.1231  0.6145  0.0136
13214TIP3    H161133   1.051   4.080  13.737 -0.1673 -1.2630  0.3637
13214TIP3    H261134   1.178   4.031  13.803 -0.9434 -0.7910  2.2492
13215TIP3   OH261135   5.552   3.391   5.573  0.0704  0.6397  0.5041
13215TIP3    H161136   5.598   3.391   5.490  1.3800  1.2817  1.2108
13215TIP3    H261137   5.526   3.482   5.586 -1.3570  0.2957  0.1457
13216TIP3   OH261138   6.094   2.822   6.595  0.3389 -0.5337  0.1677
13216TIP3    H161139   6.166   2.859   6.543  0.4135 -0.7186  0.1375
13216TIP3    H261140   6.024   2.887   6.590  0.9784  0.2529  1.2923
13217TIP3   OH261141   4.057   2.876   5.098  0.4626  0.5408  0.0795
13217TIP3    H161142   4.144   2.865   5.058  0.5303 -2.0992  0.8293
13217TIP3    H261143   3.998   2.885   5.023  1.0796 -0.2915 -0.5180
13218TIP3   OH261144   5.964   3.696   6.571 -0.0912  0.1372  0.3953
13218TIP3    H161145   5.900   3.764   6.591  0.2574  0.0123  2.0285
13218TIP3    H261146   5.971   3.646   6.652  4.1075  1.8404  1.2009
13219TIP3   OH261147   5.438   2.601   5.801  0.7401 -0.3448  0.6786
13219TIP3    H161148   5.531   2.587   5.818  0.8419  1.8823  2.1149
13219TIP3    H261149   5.404   2.642   5.881 -1.6517 -1.8085  0.4699
13220TIP3   OH261150   2.965   0.110  10.523 -0.0705  0.6327  0.1826
13220TIP3    H161151   2.972   0.139  10.614  1.2778 -0.5407  0.4756
13220TIP3    H261152   2.902   0.170  10.483 -1.4784  0.4940  2.1539
13221TIP3   OH261153   5.678   3.447   1.876  0.5046 -0.5294 -0.4272
13221TIP3    H161154   5.690   3.540   1.897  1.1002 -0.2900 -1.7628
13221TIP3    H261155   5.698   3.441   1.782  0.3608 -1.9915 -0.3752
13222TIP3   OH261156   4.054   0.585  13.413  0.1193  0.3750 -0.3008
13222TIP3    H161157   4.101   0.535  13.479  0.2211 -0.9601 -1.3779
13222TIP3    H261158   4.103   0.667  13.405  1.9818 -0.7925 -1.0656
13223TIP3   OH261159   1.687   1.319  15.042  0.3614  0.4932 -0.5572
13223TIP3    H161160   1.674   1.307  14.948  1.5214 -1.3478 -0.5035
13223TIP3    H261161   1.776   1.353  15.050  0.0482  1.2425 -0.1430
13224TIP3   OH261162   5.805   2.944   5.701 -0.5785 -0.0145  0.2519
13224TIP3    H161163   5.759   2.875   5.653 -0.1869 -0.4784  0.5389
13224TIP3    H261164   5.782   3.025   5.656 -0.8334 -0.3654 -0.2440
13225TIP3   OH261165   5.553   1.023  16.033 -0.3042  0.1365  0.0710
13225TIP3    H161166   5.475   1.027  15.978  0.3134  0.6187 -0.7782
13225TIP3    H261167   5.605   1.099  16.007  1.3920 -1.2843 -0.7950
13226TIP3   OH261168   5.404   1.083   2.391  0.3105  0.0607  0.8471
13226TIP3    H161169   5.451   1.137   2.455  0.9763  0.9503 -0.3699
13226TIP3    H261170   5.462   1.080   2.315  0.2162 -2.2513  0.8260
13227TIP3   OH261171   1.948   1.431  15.063 -0.0563  0.0656  0.5746
13227TIP3    H161172   2.030   1.480  15.055 -0.5622  0.9162  0.5140
13227TIP3    H261173   1.945   1.403  15.154  0.2089  0.1938  0.6241
13228TIP3   OH261174   0.288   6.502   4.261 -0.3962 -0.1723  0.2783
13228TIP3    H161175   0.325   6.417   4.240  2.3501  1.0607 -0.0762
13228TIP3    H261176   0.272   6.499   4.355  0.6876 -0.7367  0.4524
13229TIP3   OH261177   5.203   1.686   3.190 -0.3069 -0.0827 -0.1459
13229TIP3    H161178   5.172   1.758   3.245  0.6131  0.3222 -0.1463
13229TIP3    H261179   5.258   1.728   3.124  0.8163 -0.8601  0.2835
13230TIP3   OH261180   0.153   1.767  12.399 -0.0701 -0.0681 -0.3539
13230TIP3    H161181   0.111   1.846  12.366  0.3724  0.8291  1.1919
13230TIP3    H261182   0.121   1.759  12.489 -0.0133 -1.5861 -0.4531
13231TIP3   OH261183   3.633   6.588   0.693 -0.5642  0.2092 -0.0927
13231TIP3    H161184   3.592   6.637   0.765 -0.1721  1.0381 -0.4170
13231TIP3    H261185   3.726   6.588   0.714 -0.4502  0.4341 -0.5781
13232TIP3   OH261186   6.770   6.697  15.995  0.0065 -1.1579  0.1573
13232TIP3    H161187   6.675   6.685  16.005 -0.2055  0.6562  0.5337
13232TIP3    H261188   6.786   6.684  15.902 -0.6977 -0.9469 -0.0007
13233TIP3   OH261189   0.194   6.575   3.946 -0.4994 -0.1445 -0.2237
13233TIP3    H161190   0.181   6.582   4.041 -1.5633 -1.2253 -0.2822
13233TIP3    H261191   0.200   6.666   3.917  0.2710  0.1991  0.9227
13234TIP3   OH261192   2.976   3.353  15.537 -0.5025  0.1726  0.2714
13234TIP3    H161193   2.906   3.415  15.558 -2.0941 -1.3382 -0.4359
13234TIP3    H261194   2.948   3.311  15.456  2.0260  0.6744 -0.9015
13235TIP3   OH261195   2.278   2.972   4.392  0.2489  0.6284 -0.6934
13235TIP3    H161196   2.226   3.039   4.348  0.3820  0.9781 -0.3269
13235TIP3    H261197   2.338   3.022   4.448 -0.9174  0.1983  1.0141
13236TIP3   OH261198   3.083   1.061   5.465 -0.5355  0.0124 -0.1213
13236TIP3    H161199   3.102   1.124   5.395 -0.2172 -1.9928 -1.8928
13236TIP3    H261200   3.168   1.039   5.502 -0.4130 -1.1284 -1.0725
13237TIP3   OH261201   2.550   3.155  16.912  0.0606  0.6689  0.4662
13237TIP3    H161202   2.545   3.210  16.834 -0.3630  0.6029  0.4444
13237TIP3    H261203   2.640   3.123  16.913 -0.0864  0.1996 -0.3230
13238TIP3   OH261204   1.058   0.682   1.113 -0.1632 -0.1062  0.2916
13238TIP3    H161205   1.049   0.596   1.073 -2.1871  0.1025  0.2463
13238TIP3    H261206   1.138   0.718   1.074  0.5688 -1.8356  0.1213
13239TIP3   OH261207   5.863   5.427   4.684  0.0562 -0.0570 -0.4558
13239TIP3    H161208   5.882   5.484   4.759 -1.4393  0.3660 -0.3877
13239TIP3    H261209   5.825   5.348   4.723  1.8049 -0.9997 -0.5752
13240TIP3   OH261210   1.994   3.363   0.378 -0.4703 -0.0398  0.2412
13240TIP3    H161211   1.922   3.302   0.397 -0.9486  0.2317 -0.6885
13240TIP3    H261212   1.998   3.365   0.282  1.6465 -1.0849  0.2823
13241TIP3   OH261213   0.672   5.247  16.776  0.3899  0.4210  0.1034
13241TIP3    H161214   0.637   5.159  16.763  0.6569  0.3025  0.1805
13241TIP3    H261215   0.597   5.305  16.765  0.0617  0.1303  0.7818
13242TIP3   OH261216   5.627   2.235  14.798  0.2729  0.1485 -0.1713
13242TIP3    H161217   5.545   2.268  14.835  0.7604 -0.0781  1.1214
13242TIP3    H261218   5.602   2.154  14.753 -0.1590 -0.0785  0.4732
13243TIP3   OH261219   6.423   5.540   3.520 -0.4256  0.0048  0.0365
13243TIP3    H161220   6.435   5.581   3.435  0.6211  1.0481  0.6812
13243TIP3    H261221   6.333   5.507   3.519  0.3337 -2.1255 -2.3871
13244TIP3   OH261222   6.231   4.548  14.629  0.4330 -0.4755  0.1023
13244TIP3    H161223   6.178   4.551  14.708  0.8031  0.8414  0.3056
13244TIP3    H261224   6.192   4.477  14.577 -1.7838  0.7026  0.0748
13245TIP3   OH261225   5.086   5.376   1.545  0.0770  0.3060  0.0263
13245TIP3    H161226   5.060   5.296   1.592 -0.2540 -0.4697 -1.4271
13245TIP3    H261227   5.005   5.427   1.539 -0.2721 -0.3480 -1.1069
13246TIP3   OH261228   4.248   4.330   5.209  0.0513 -0.3569  0.4026
13246TIP3    H161229   4.233   4.398   5.275  0.5060 -1.3137  1.5039
13246TIP3    H261230   4.163   4.323   5.164  0.3960  1.9119 -0.6839
13247TIP3   OH261231   2.341   3.739  11.608 -0.3299 -0.3276  0.3364
13247TIP3    H161232   2.371   3.821  11.569  0.4353 -1.5005 -1.6171
13247TIP3    H261233   2.256   3.723  11.567 -0.6441 -0.3507  0.9842
13248TIP3   OH261234   1.402   1.958  12.073 -0.4308  0.6643 -0.4950
13248TIP3    H161235   1.429   1.980  11.984 -2.4277  0.3023 -1.2178
13248TIP3    H261236   1.459   2.011  12.129 -0.1046  1.9845 -2.0297
13249TIP3   OH261237   3.872   6.312   2.225  0.2988 -0.6009  0.2475
13249TIP3    H161238   3.870   6.283   2.316  0.3227 -2.5361 -0.3505
13249TIP3    H261239   3.878   6.408   2.230 -0.1110 -0.6732  2.2623
13250TIP3   OH261240   0.073   2.804   0.834 -0.2201 -0.2266 -0.0320
13250TIP3    H161241   0.081   2.888   0.881  0.4433  0.1787 -0.8596
13250TIP3    H261242   0.125   2.743   0.887  0.2649  0.1542 -0.0627
13251TIP3   OH261243   2.008   5.467   4.308  0.1890 -0.5765  0.2536
13251TIP3    H161244   2.029   5.397   4.247  1.6374 -0.1261  0.2094
13251TIP3    H261245   2.034   5.547   4.262 -0.2287 -0.1061  0.8242
13252TIP3   OH261246   5.080   2.296   1.651  0.7981  0.3209 -0.0971
13252TIP3    H161247   5.087   2.371   1.710  0.6907 -0.8923  1.4988
13252TIP3    H261248   5.168   2.287   1.613  0.6947  1.5081 -0.6104
13253TIP3   OH261249   4.966   2.226   4.796 -0.3754  0.1547 -0.7238
13253TIP3    H161250   4.922   2.256   4.716  0.2209 -0.8637 -1.4479
13253TIP3    H261251   5.053   2.198   4.766 -0.2593 -0.5323  0.2431
13254TIP3   OH261252   0.194   3.590   2.730 -0.5758  0.1921  0.2267
13254TIP3    H161253   0.173   3.497   2.730 -1.5589  0.4129  0.9141
13254TIP3    H261254   0.182   3.618   2.821  0.7780  0.7539  0.2451
13255TIP3   OH261255   6.785   1.369  16.997 -0.2301  0.3083 -0.5868
13255TIP3    H161256   6.706   1.402  17.040  0.2792 -0.8579  1.3460
13255TIP3    H261257   6.756   1.288  16.955  0.3315 -1.2190  1.8656
13256TIP3   OH261258   6.531   6.005  14.620  0.1846  0.2153 -0.0962
13256TIP3    H161259   6.464   6.059  14.663  1.7982  1.1570  1.3039
13256TIP3    H261260   6.567   6.062  14.552 -0.4182 -0.2927 -0.8532
13257TIP3   OH261261   0.394   2.941   5.283 -0.4579 -0.0811  0.1419
13257TIP3    H161262   0.406   2.850   5.313 -1.0510 -0.2342 -0.0874
13257TIP3    H261263   0.438   2.994   5.350 -1.0484 -0.4696  0.8514
13258TIP3   OH261264   5.369   1.636   4.682 -0.1226  0.4496  0.6626
13258TIP3    H161265   5.331   1.700   4.742 -1.0788  0.0147  0.5302
13258TIP3    H261266   5.345   1.551   4.719 -0.7760  0.1773 -0.3619
13259TIP3   OH261267   4.486   3.555  12.029  0.2926  0.7578 -0.5002
13259TIP3    H161268   4.451   3.635  11.990 -0.1124  0.3598 -0.9610
13259TIP3    H261269   4.432   3.485  11.992  0.2767  0.3237  0.3409
13260TIP3   OH261270   4.540   1.548  11.794 -0.3680 -0.3724  0.0475
13260TIP3    H161271   4.463   1.497  11.819 -1.1946  1.0136  0.3445
13260TIP3    H261272   4.518   1.638  11.817  1.9110 -0.1476  1.5463
13261TIP3   OH261273   6.185   1.638   0.395  0.2704 -0.4773 -0.6617
13261TIP3    H161274   6.152   1.662   0.308  0.5830 -0.8369 -0.8827
13261TIP3    H261275   6.246   1.566   0.378  0.9420 -0.0146 -0.2237
13262TIP3   OH261276   3.028   5.005  13.002 -0.0564  0.2750  0.1212
13262TIP3    H161277   3.093   4.938  13.019 -0.8483 -0.2254  1.2881
13262TIP3    H261278   3.014   5.002  12.908  2.0576  0.8278 -0.2289
13263TIP3   OH261279   5.908   3.451   5.897  0.1472 -0.1979  0.3143
13263TIP3    H161280   5.873   3.365   5.921 -0.0482 -0.3699 -0.5803
13263TIP3    H261281   6.003   3.441   5.905  0.1473 -0.6187 -0.1706
13264TIP3   OH261282   2.611   5.336  12.476  0.6384  0.0488 -0.3170
13264TIP3    H161283   2.630   5.280  12.401 -0.3061 -0.1460 -0.4167
13264TIP3    H261284   2.669   5.305  12.545  1.4542  0.1697 -0.9360
13265TIP3   OH261285   2.444   3.287  14.602  0.3565 -0.2207  0.0761
13265TIP3    H161286   2.416   3.199  14.626  0.2169 -0.5334 -1.1935
13265TIP3    H261287   2.472   3.327  14.684 -0.0430 -1.2798  0.7320
13266TIP3   OH261288   0.845   1.306   1.169  0.8676 -0.7309 -0.1152
13266TIP3    H161289   0.855   1.334   1.079  0.8301  0.4043  0.2309
13266TIP3    H261290   0.784   1.368   1.208  0.7936 -1.2707  0.6684
13267TIP3   OH261291   6.676   5.756  13.353  0.0884 -0.3650  0.2990
13267TIP3    H161292   6.601   5.702  13.378  0.7703 -0.8039  1.4315
13267TIP3    H261293   6.697   5.729  13.264  0.1911 -1.7101  0.7188
13268TIP3   OH261294   4.517   0.019   0.460  0.1571 -0.0541 -0.4539
13268TIP3    H161295   4.566   0.017   0.542 -0.8553 -1.3868  0.1258
13268TIP3    H261296   4.437   0.067   0.481  0.5156  0.8123 -1.0261
13269TIP3   OH261297   4.201   6.294  15.761 -0.1159  0.0959  0.3664
13269TIP3    H161298   4.152   6.370  15.729 -2.0873 -1.4392 -0.3967
13269TIP3    H261299   4.178   6.288  15.854  0.7120  0.8914  0.6393
13270TIP3   OH261300   6.263   2.334  10.543  0.1614  0.6392 -0.6275
13270TIP3    H161301   6.259   2.311  10.636  1.0732 -1.3194 -1.0448
13270TIP3    H261302   6.277   2.251  10.498 -0.2486  1.5623 -2.5335
13271TIP3   OH261303   6.121   2.927   1.368  0.6156 -0.2144 -0.2751
13271TIP3    H161304   6.033   2.957   1.341  0.5137  0.6903  1.0028
13271TIP3    H261305   6.106   2.843   1.411  0.4929 -0.4998 -0.8660
13272TIP3   OH261306   3.061   1.023  11.389 -0.7052  0.2371  0.4528
13272TIP3    H161307   3.037   1.030  11.481  0.4765 -0.2900  0.8063
13272TIP3    H261308   3.140   0.969  11.388  0.5219  1.9990 -0.6906
13273TIP3   OH261309   2.829   4.439  11.965  0.2371 -0.3944 -0.3128
13273TIP3    H161310   2.864   4.502  11.902 -2.1427  0.1726 -1.1280
13273TIP3    H261311   2.808   4.362  11.912 -0.7051 -0.3407 -0.0199
13274TIP3   OH261312   3.724   3.292  11.472  0.5405 -0.0694 -0.0624
13274TIP3    H161313   3.711   3.336  11.387  0.0907 -0.0999 -0.0109
13274TIP3    H261314   3.816   3.266  11.471  1.0093  1.5186  0.2147
13275TIP3   OH261315   3.460   2.659   3.690 -0.5757  0.3021 -0.4683
13275TIP3    H161316   3.485   2.706   3.769  0.7650 -1.2305  0.0614
13275TIP3    H261317   3.430   2.727   3.630 -1.0297  1.5519  1.1319
13276TIP3   OH261318   1.946   0.699  12.467 -0.0248  0.8317 -0.6426
13276TIP3    H161319   1.914   0.655  12.545 -2.1921 -1.5318 -2.7758
13276TIP3    H261320   1.880   0.766  12.448 -0.3010  0.3869 -1.2805
13277TIP3   OH261321   6.590   1.440  11.565 -0.1327  0.0085 -0.0784
13277TIP3    H161322   6.531   1.443  11.641 -0.0738 -0.3142 -0.0172
13277TIP3    H261323   6.610   1.347  11.555  0.4610  0.1334 -0.0312
13278TIP3   OH261324   2.211   5.293   3.649  0.1167 -0.2289  0.3111
13278TIP3    H161325   2.257   5.257   3.573 -0.7880 -0.6795 -0.0335
13278TIP3    H261326   2.239   5.237   3.722 -1.2492 -1.6495 -0.2132
13279TIP3   OH261327   4.593   5.617  15.441  0.3579  0.0101  0.7946
13279TIP3    H161328   4.664   5.585  15.386 -0.9793  0.1808 -1.0983
13279TIP3    H261329   4.623   5.603  15.531  2.4605 -0.5660  0.0218
13280TIP3   OH261330   6.211   0.123  17.057  0.1102 -0.0538 -0.2985
13280TIP3    H161331   6.118   0.103  17.053  0.5271 -2.0396 -0.2604
13280TIP3    H261332   6.227   0.145  17.149 -0.6361  2.0565 -0.6284
13281TIP3   OH261333   5.466   3.797  13.536  0.7523 -0.0970  0.1346
13281TIP3    H161334   5.455   3.881  13.581 -2.7316 -0.1928 -0.4307
13281TIP3    H261335   5.461   3.819  13.443 -2.2096 -1.1291  0.0062
13282TIP3   OH261336   1.641   1.710   3.869  0.2600  0.2776 -0.3435
13282TIP3    H161337   1.608   1.791   3.829  1.1904  0.1846 -1.3337
13282TIP3    H261338   1.736   1.718   3.864  0.3552 -1.1149 -0.9617
13283TIP3   OH261339   6.614   4.066   3.566  0.3225  0.6608 -0.2179
13283TIP3    H161340   6.601   4.137   3.503 -1.6344  1.3887  0.9481
13283TIP3    H261341   6.540   4.075   3.627  2.0046 -0.1946  1.9898
13284TIP3   OH261342   1.624   4.519   2.073  0.2908 -0.2317  0.6600
13284TIP3    H161343   1.680   4.508   2.150 -0.0098  2.8786  1.3685
13284TIP3    H261344   1.681   4.560   2.008 -0.6395  1.2054  0.7451
13285TIP3   OH261345   0.214   5.681  16.654 -0.2952  0.5519  0.2649
13285TIP3    H161346   0.127   5.641  16.649 -0.6050  1.2739 -0.1592
13285TIP3    H261347   0.208   5.744  16.725  0.1512 -0.0514  0.8376
13286TIP3   OH261348   0.058   5.388   0.467 -0.1865  0.1901  0.1306
13286TIP3    H161349   0.030   5.371   0.377  0.4598  1.7372 -0.3723
13286TIP3    H261350   0.121   5.318   0.486 -0.1798 -0.0323 -0.6778
13287TIP3   OH261351   0.947   5.838   4.336  0.5198 -0.1013  0.0692
13287TIP3    H161352   0.889   5.854   4.262  1.5612 -0.9782 -0.9626
13287TIP3    H261353   1.031   5.876   4.310  0.5760  0.6595  1.3052
13288TIP3   OH261354   3.019   4.859   0.662  0.3643  0.6782 -0.3139
13288TIP3    H161355   2.949   4.910   0.702 -0.0143 -0.8000  0.9662
13288TIP3    H261356   3.010   4.772   0.700  3.3338  0.6212  0.4023
13289TIP3   OH261357   5.169   2.657  16.389 -0.1521 -0.4684  0.0379
13289TIP3    H161358   5.074   2.647  16.394 -0.4492  2.3349  0.9226
13289TIP3    H261359   5.188   2.670  16.296 -0.8200  0.4324  0.0234
13290TIP3   OH261360   4.428   4.507  12.684 -0.0812  0.5144  0.4214
13290TIP3    H161361   4.337   4.532  12.668  0.2316  0.3677 -1.7426
13290TIP3    H261362   4.456   4.465  12.602  2.3140  1.7249  0.5729
13291TIP3   OH261363   0.389   3.850   4.929 -0.5169 -0.0082  0.0200
13291TIP3    H161364   0.351   3.855   4.841 -0.9502  1.3190  0.2579
13291TIP3    H261365   0.331   3.904   4.983  0.4227  0.1797  0.8666
13292TIP3   OH261366   1.457   0.375  17.262  0.8564 -0.0448  0.2304
13292TIP3    H161367   1.398   0.330  17.202  3.2188 -3.1985  0.1723
13292TIP3    H261368   1.537   0.388  17.211  1.3248  1.3365  1.2905
13293TIP3   OH261369   5.757   2.575   3.674 -0.0566 -0.3433 -0.1200
13293TIP3    H161370   5.680   2.632   3.675 -0.6108 -1.0616 -0.7427
13293TIP3    H261371   5.732   2.502   3.616  1.3360 -0.2427 -0.8820
13294TIP3   OH261372   4.179   2.944  12.442 -0.2334 -0.1439 -0.3378
13294TIP3    H161373   4.254   2.998  12.469 -0.1583 -0.6867  0.5578
13294TIP3    H261374   4.217   2.874  12.390  0.0303 -1.0870  1.0930
13295TIP3   OH261375   5.426   3.445  16.980  0.1254 -0.4555  0.1577
13295TIP3    H161376   5.520   3.432  16.990 -0.0362 -1.3637  0.5891
13295TIP3    H261377   5.406   3.521  17.035  0.4472 -0.8718  0.8535
13296TIP3   OH261378   4.336   2.409   2.823  0.3715 -0.2280 -0.1217
13296TIP3    H161379   4.286   2.475   2.870 -0.4952 -1.9470  1.4187
13296TIP3    H261380   4.427   2.437   2.833  0.0960  0.1099  1.4863
13297TIP3   OH261381   3.024   5.517   2.936  0.1021 -0.2496  0.1805
13297TIP3    H161382   2.960   5.587   2.921  0.2939 -0.2416 -0.6305
13297TIP3    H261383   2.974   5.445   2.974 -0.3733 -0.2210 -0.3954
13298TIP3   OH261384   4.080   6.615   4.688 -0.3265  0.1594  0.6220
13298TIP3    H161385   4.039   6.667   4.619  0.1702 -0.8982 -0.4974
13298TIP3    H261386   4.101   6.679   4.756  0.5219  1.5005 -0.8359
13299TIP3   OH261387   3.878   0.386  15.418 -0.0276  0.4730 -0.2756
13299TIP3    H161388   3.906   0.439  15.343  2.5811  0.1244  0.4089
13299TIP3    H261389   3.866   0.298  15.382  2.0333  0.1262 -0.1334
13300TIP3   OH261390   6.186   1.447  12.369  0.1398 -0.0964 -0.5525
13300TIP3    H161391   6.091   1.451  12.366  0.0863 -1.6033 -1.3175
13300TIP3    H261392   6.214   1.539  12.372 -1.2994  0.3836 -1.4619
13301TIP3   OH261393   2.719   6.194  13.179  0.2684  0.1800 -0.2337
13301TIP3    H161394   2.629   6.226  13.189  0.0586 -0.6294  0.6543
13301TIP3    H261395   2.774   6.271  13.192 -0.2321  0.2802  1.4920
13302TIP3   OH261396   1.071   5.556   5.641 -0.5087 -0.0659  0.0279
13302TIP3    H161397   1.139   5.496   5.671 -1.9435 -1.7865 -0.0864
13302TIP3    H261398   1.011   5.562   5.715  0.1164  2.0363  0.4046
13303TIP3   OH261399   5.924   4.481  14.895  0.1186 -0.0312  0.4738
13303TIP3    H161400   5.882   4.452  14.815  2.0018  1.2158 -1.0245
13303TIP3    H261401   5.934   4.402  14.948  0.5415 -1.2020 -1.3393
13304TIP3   OH261402   2.649   1.828  14.302  0.3820 -0.3809  0.0722
13304TIP3    H161403   2.677   1.743  14.336 -1.1076 -0.7929  0.3316
13304TIP3    H261404   2.730   1.877  14.287  1.2896 -2.1673 -0.9146
13305TIP3   OH261405   4.510   6.183  11.380  0.2009  0.4896 -0.2698
13305TIP3    H161406   4.483   6.148  11.465 -0.8898  0.0745 -0.7755
13305TIP3    H261407   4.550   6.267  11.401  1.6063 -0.4181  0.8330
13306TIP3   OH261408   0.775   2.867  17.242  0.5427 -0.0318 -0.1510
13306TIP3    H161409   0.820   2.821  17.313  1.1272 -0.9965 -1.1511
13306TIP3    H261410   0.682   2.847  17.256  0.6883 -0.5134  0.1217
13307TIP3   OH261411   1.447   5.942  12.465  0.2464  0.2447 -0.3042
13307TIP3    H161412   1.488   5.875  12.519 -0.7964  0.1588  0.4087
13307TIP3    H261413   1.390   5.893  12.405  0.1913  0.4354 -0.4084
13308TIP3   OH261414   5.227   4.960   1.207  0.4718  0.3530 -1.0609
13308TIP3    H161415   5.157   5.001   1.258  1.2705  1.3532 -0.7703
13308TIP3    H261416   5.223   4.868   1.231  1.6646  1.0158  1.7615
13309TIP3   OH261417   4.712   3.619   2.211  0.3667 -0.3962  0.3790
13309TIP3    H161418   4.618   3.637   2.202  0.4258  0.1398  0.8602
13309TIP3    H261419   4.754   3.686   2.157  0.5193 -0.0538  0.9302
13310TIP3   OH261420   0.796   5.322   4.523 -0.0652  0.0470 -0.5543
13310TIP3    H161421   0.862   5.390   4.539 -0.6925  0.9227 -1.5887
13310TIP3    H261422   0.839   5.241   4.549  0.8642  0.7866  0.2671
13311TIP3   OH261423   5.803   2.485   2.793 -0.0442  0.8200 -0.3099
13311TIP3    H161424   5.746   2.559   2.812  1.2426  1.3723  1.5692
13311TIP3    H261425   5.885   2.524   2.765  0.5326  0.1039  0.3714
13312TIP3   OH261426   0.673   4.765   4.826 -0.2437  0.5092  0.2311
13312TIP3    H161427   0.739   4.762   4.756 -1.7884  1.1459 -1.2866
13312TIP3    H261428   0.590   4.752   4.781 -1.1439 -0.7781  2.1927
13313TIP3   OH261429   1.504   3.282  14.593  0.4537 -0.2125 -0.1947
13313TIP3    H161430   1.582   3.250  14.548  1.6976  0.2788  1.5404
13313TIP3    H261431   1.520   3.262  14.685 -0.4159  2.0412  0.4768
13314TIP3   OH261432   5.539   2.980  16.520  0.1899 -0.0904  0.2913
13314TIP3    H161433   5.627   2.967  16.556  1.7680  0.5167 -3.1184
13314TIP3    H261434   5.501   2.892  16.519  1.7612 -0.7912 -0.5603
13315TIP3   OH261435   0.544   1.000   5.163 -0.0299 -0.5405 -0.2428
13315TIP3    H161436   0.475   1.065   5.148  1.0319  0.0573 -2.8065
13315TIP3    H261437   0.514   0.922   5.118 -0.2458 -1.1372  0.9109
13316TIP3   OH261438   4.862   2.145  13.384 -0.1608 -0.0887 -0.3201
13316TIP3    H161439   4.782   2.164  13.335  0.0953 -0.0646 -0.7310
13316TIP3    H261440   4.927   2.205  13.348 -0.3385  0.9453  1.0558
13317TIP3   OH261441   2.751   5.011  11.920 -0.5405  0.1578  0.0053
13317TIP3    H161442   2.746   5.102  11.950 -0.1627  0.1876 -0.0076
13317TIP3    H261443   2.844   4.989  11.927 -0.8762 -0.7784  1.5839
13318TIP3   OH261444   0.265   2.330   1.007 -0.8089  0.3612  0.0353
13318TIP3    H161445   0.278   2.386   1.083  1.0373  0.9226 -0.6747
13318TIP3    H261446   0.331   2.261   1.016 -1.4237 -0.2964 -0.4005
13319TIP3   OH261447   3.870   2.222   6.659 -0.3780  0.2643  0.1441
13319TIP3    H161448   3.781   2.217   6.624 -1.1152 -0.2824  2.0762
13319TIP3    H261449   3.904   2.305   6.624 -1.8912  0.8310 -0.0245
13320TIP3   OH261450   6.101   0.665   1.309  0.4956 -0.1838 -0.2446
13320TIP3    H161451   6.171   0.667   1.244 -1.8856  2.0265 -2.8902
13320TIP3    H261452   6.082   0.572   1.321 -0.3421 -0.6251 -4.2714
13321TIP3   OH261453   5.568   4.370   3.626 -0.4125 -0.3181  0.0554
13321TIP3    H161454   5.621   4.335   3.555 -0.0697 -1.8775  1.0715
13321TIP3    H261455   5.519   4.442   3.586  1.7441  0.5176 -1.1151
13322TIP3   OH261456   5.027   4.705   4.396  0.4310 -0.1819 -0.4555
13322TIP3    H161457   4.932   4.717   4.399  0.3983  0.0103 -1.9874
13322TIP3    H261458   5.055   4.720   4.486 -0.7690  1.7389 -0.3617
13323TIP3   OH261459   6.740   0.692  14.961  0.1638  0.7234  0.0759
13323TIP3    H161460   6.755   0.613  15.014 -0.2971  1.0313  0.6693
13323TIP3    H261461   6.717   0.659  14.875  0.6005  0.2127  0.1485
13324TIP3   OH261462   0.373   3.184  14.587 -0.3228 -0.1471 -0.3150
13324TIP3    H161463   0.299   3.164  14.529 -0.6844  0.9323 -0.2249
13324TIP3    H261464   0.437   3.228  14.530 -1.5187  2.7750  0.5122
13325TIP3   OH261465   1.686   1.328  14.777 -0.0617 -0.2538  0.3773
13325TIP3    H161466   1.751   1.383  14.734  0.4519  0.3523  1.9150
13325TIP3    H261467   1.602   1.363  14.748  0.2390  2.3594  2.5931
13326TIP3   OH261468   2.204   4.327  15.481 -0.5136  0.5074  0.2239
13326TIP3    H161469   2.181   4.269  15.408  0.2522  1.2529 -0.6198
13326TIP3    H261470   2.251   4.271  15.542  0.4841  0.2865 -0.7267
13327TIP3   OH261471   3.017   6.104  12.641  0.3215 -0.0377  0.1340
13327TIP3    H161472   3.011   6.055  12.558  3.5523 -2.8547  1.4541
13327TIP3    H261473   3.084   6.170  12.625 -1.2044  1.4332 -0.3782
13328TIP3   OH261474   0.552   5.667   1.657 -0.5580  0.2154  0.0516
13328TIP3    H161475   0.646   5.657   1.674 -0.5799  2.1562  1.4287
13328TIP3    H261476   0.547   5.696   1.566 -0.0161 -2.6425 -0.9526
13329TIP3   OH261477   2.087   6.000   5.155  0.2952 -0.0966  0.3333
13329TIP3    H161478   2.126   5.990   5.068  0.4811  1.8840  0.1706
13329TIP3    H261479   2.081   6.095   5.168 -1.3655 -0.3700  1.7510
13330TIP3   OH261480   0.888   5.173   1.300 -0.2794 -0.1625  0.7652
13330TIP3    H161481   0.830   5.171   1.224  0.2386 -0.7190  0.3816
13330TIP3    H261482   0.974   5.195   1.265  0.0457 -0.8261  1.1343
13331TIP3   OH261483   4.120   3.541   2.398 -0.3140 -0.7719  0.7886
13331TIP3    H161484   4.056   3.509   2.335 -0.2174  1.8572 -0.7509
13331TIP3    H261485   4.203   3.538   2.351 -0.2167  1.0543  0.7926
13332TIP3   OH261486   2.041   5.427  16.340  0.4413  0.0388  0.7477
13332TIP3    H161487   1.984   5.360  16.303 -1.5364  3.2638 -2.3082
13332TIP3    H261488   2.120   5.423  16.286 -0.3348  1.1663 -0.5306
13333TIP3   OH261489   3.922   4.301  16.963  0.3914  0.1193 -0.1312
13333TIP3    H161490   3.891   4.351  16.888  0.3713 -0.6243 -0.6295
13333TIP3    H261491   3.982   4.236  16.925  0.0527 -0.5425  0.4443
13334TIP3   OH261492   4.241   0.709   1.206 -0.0555  0.3866  0.3352
13334TIP3    H161493   4.272   0.686   1.294 -0.6635 -0.3935  0.3488
13334TIP3    H261494   4.207   0.798   1.216 -1.2983 -0.1555  1.2144
13335TIP3   OH261495   4.240   3.242   6.124 -0.2677 -0.2004 -0.7293
13335TIP3    H161496   4.239   3.334   6.099  1.0862 -0.1749 -0.6892
13335TIP3    H261497   4.149   3.214   6.112 -1.1233  1.6265  1.1154
13336TIP3   OH261498   2.034   3.002  13.359  0.0903 -0.1774 -0.4436
13336TIP3    H161499   2.109   3.040  13.405  1.8518 -1.9823 -1.7341
13336TIP3    H261500   1.960   3.058  13.383  0.9558 -0.8427  4.3469
13337TIP3   OH261501   4.744   0.736   0.180 -0.5549 -0.1536 -0.6118
13337TIP3    H161502   4.770   0.781   0.100 -0.1160 -0.6905 -0.7699
13337TIP3    H261503   4.699   0.657   0.151 -1.7353  0.4037 -0.3347
13338TIP3   OH261504   1.743   0.238   6.002  0.3103  0.6086 -0.3570
13338TIP3    H161505   1.731   0.330   5.978 -0.8506  1.4691  3.2441
13338TIP3    H261506   1.782   0.241   6.089 -1.5142 -2.3231  0.6198
13339TIP3   OH261507   3.138   2.084  14.176  0.0544  0.2343  0.1172
13339TIP3    H161508   3.185   2.167  14.185 -1.6961  1.1162  1.7175
13339TIP3    H261509   3.182   2.038  14.105  0.7577  2.7505 -1.1347
13340TIP3   OH261510   2.240   5.544   3.751  0.0344 -0.0763  0.1792
13340TIP3    H161511   2.212   5.464   3.707 -2.4140  0.9859 -0.2646
13340TIP3    H261512   2.247   5.519   3.843 -1.5854 -0.5966  0.1774
13341TIP3   OH261513   3.876   6.390  16.017  0.0260 -0.1382 -0.2890
13341TIP3    H161514   3.857   6.317  16.076 -0.4273  0.6581  0.5618
13341TIP3    H261515   3.806   6.388  15.953 -0.0358 -0.3862 -0.2160
13342TIP3   OH261516   2.801   6.719   3.413  0.3156 -0.2150 -0.9618
13342TIP3    H161517   2.810   6.628   3.387  1.1622  0.1597 -1.9895
13342TIP3    H261518   2.823   6.770   3.335 -1.3722  0.8617 -0.7662
13343TIP3   OH261519   3.954   0.037  15.930 -0.2974 -0.3375  0.7845
13343TIP3    H161520   3.867   0.052  15.893  0.0898  0.3810  0.1640
13343TIP3    H261521   3.996   0.122  15.928  1.6437 -1.3031 -2.0983
13344TIP3   OH261522   2.431   2.459   5.895  0.0869 -0.0645 -0.2244
13344TIP3    H161523   2.338   2.465   5.871 -0.3482 -1.8457  0.9055
13344TIP3    H261524   2.430   2.428   5.986  1.7906 -0.3508 -0.2868
13345TIP3   OH261525   3.125   3.751  14.572  0.9161 -0.6495 -0.1867
13345TIP3    H161526   3.210   3.784  14.544  0.4894  0.1733 -0.5151
13345TIP3    H261527   3.070   3.755  14.493  0.4239 -0.6692  0.1526
13346TIP3   OH261528   2.389   2.502   2.940  0.5183 -0.1216  0.0703
13346TIP3    H161529   2.444   2.580   2.948 -1.4192  1.3626 -0.3936
13346TIP3    H261530   2.326   2.510   3.012 -0.1893 -0.8131 -0.4554
13347TIP3   OH261531   3.583   6.498  16.307 -0.0221  0.3439  0.4534
13347TIP3    H161532   3.629   6.581  16.296  0.5040  0.3048  2.1069
13347TIP3    H261533   3.532   6.487  16.227 -1.2311  2.9513  0.8355
13348TIP3   OH261534   5.007   4.943  16.386  0.5406 -0.6470 -0.1960
13348TIP3    H161535   4.963   5.023  16.415 -2.0705 -2.1445  0.1776
13348TIP3    H261536   5.018   4.892  16.466  1.1330 -1.1504 -0.5957
13349TIP3   OH261537   5.096   5.235  16.269  0.0966  0.1371  0.2781
13349TIP3    H161538   5.021   5.216  16.324 -0.5903 -0.6228 -0.8872
13349TIP3    H261539   5.083   5.325  16.241 -0.2074  0.1162  0.3520
13350TIP3   OH261540   5.191   1.857   4.501 -0.3613  0.2439 -0.3111
13350TIP3    H161541   5.163   1.844   4.411 -0.1706 -2.1674 -0.0779
13350TIP3    H261542   5.248   1.782   4.519  0.4037  1.2245  1.5011
13351TIP3   OH261543   5.077   4.914  15.752  0.4393  0.0048  0.4796
13351TIP3    H161544   5.156   4.895  15.802 -1.2627 -1.3006  2.7995
13351TIP3    H261545   5.020   4.838  15.767 -1.3470  1.0001 -0.9570
13352TIP3   OH261546   4.598   3.842  11.398  0.3771 -0.2633 -0.0755
13352TIP3    H161547   4.666   3.898  11.360 -1.2358  1.1118 -1.0098
13352TIP3    H261548   4.590   3.872  11.488 -0.8122  1.3665 -0.7040
13353TIP3   OH261549   1.977   2.111  10.919 -0.1087 -0.3110  0.3746
13353TIP3    H161550   1.937   2.197  10.933  0.5863  0.6671 -3.0725
13353TIP3    H261551   2.046   2.106  10.986  0.1265  2.0287  0.3806
13354TIP3   OH261552   0.441   0.662  12.029  0.0365  0.3013  0.3477
13354TIP3    H161553   0.483   0.632  12.109 -0.4413  1.0609  0.8885
13354TIP3    H261554   0.361   0.610  12.022  0.8158 -0.8129 -0.4342
13355TIP3   OH261555   1.751   3.591  14.484 -0.4835  0.1201 -0.4484
13355TIP3    H161556   1.668   3.638  14.489 -0.7236 -0.2675 -0.7894
13355TIP3    H261557   1.818   3.658  14.498 -0.7920  0.7094 -1.7732
13356TIP3   OH261558   3.467   6.633  12.726  0.2013 -0.2507 -0.4967
13356TIP3    H161559   3.513   6.703  12.680 -1.6407  1.3173 -0.0007
13356TIP3    H261560   3.433   6.577  12.657  1.6035 -0.6127 -0.8995
13357TIP3   OH261561   2.980   2.533   0.769 -0.4191 -0.1820  0.7316
13357TIP3    H161562   2.999   2.446   0.802  0.7412  0.3413  1.5054
13357TIP3    H261563   3.066   2.570   0.748 -1.0917 -0.3802 -2.6517
13358TIP3   OH261564   1.763   0.072  12.481 -0.6764  0.6482 -0.8675
13358TIP3    H161565   1.823   0.118  12.539 -0.4104 -0.8146  0.0621
13358TIP3    H261566   1.773   0.114  12.396 -0.3952  2.2304 -0.0734
13359TIP3   OH261567   3.225   4.351   0.061  0.0097 -0.4699  0.4596
13359TIP3    H161568   3.303   4.302   0.033  0.9090  0.2832  1.5936
13359TIP3    H261569   3.151   4.295   0.037  0.8407 -0.7825 -1.5069
13360TIP3   OH261570   0.260   2.401   5.212 -0.6225  0.2271  0.1525
13360TIP3    H161571   0.185   2.420   5.157  0.1672  1.5336 -0.4949
13360TIP3    H261572   0.316   2.345   5.158 -0.0647  1.1298 -0.2146
13361TIP3   OH261573   2.689   4.649   0.948 -0.7484 -0.1154  0.3722
13361TIP3    H161574   2.660   4.558   0.938 -1.7433  0.3146 -0.7748
13361TIP3    H261575   2.708   4.678   0.859  2.3118 -0.0676  0.9769
13362TIP3   OH261576   6.000   4.059  15.841 -0.3236 -0.2144  0.2948
13362TIP3    H161577   5.907   4.048  15.819 -0.1716  0.3924 -0.6761
13362TIP3    H261578   6.023   4.145  15.805  0.6346 -0.3986  0.4553
13363TIP3   OH261579   4.930   4.674  14.997 -0.0662  0.2746  0.0190
13363TIP3    H161580   4.865   4.619  15.041 -0.5725  0.4460 -0.5118
13363TIP3    H261581   4.891   4.761  14.995 -0.4442  0.0862 -1.5761
13364TIP3   OH261582   6.619   5.058  12.109  0.5745 -0.0019 -0.1238
13364TIP3    H161583   6.529   5.074  12.080  0.3750  0.7631  0.8837
13364TIP3    H261584   6.633   5.122  12.179  2.3463  0.7528 -1.1293
13365TIP3   OH261585   4.175   6.438  15.017  0.0194  0.1848 -0.3305
13365TIP3    H161586   4.148   6.346  15.015 -2.3244  0.7965  1.0642
13365TIP3    H261587   4.258   6.437  15.065 -0.6543 -1.0863  0.8741
13366TIP3   OH261588   4.835   1.597   3.981  0.1025  0.0207  0.0592
13366TIP3    H161589   4.765   1.548   4.024 -0.6222  0.4685 -0.6110
13366TIP3    H261590   4.866   1.658   4.049  2.2257 -2.5329  1.4886
13367TIP3   OH261591   6.209   1.698  12.089 -0.3561 -0.2845 -0.2749
13367TIP3    H161592   6.259   1.674  12.011 -0.3499 -1.5973  0.1168
13367TIP3    H261593   6.120   1.715  12.057  0.3232  2.0348 -0.9682
13368TIP3   OH261594   4.961   2.709  12.618 -0.2155 -0.0912 -0.2894
13368TIP3    H161595   5.015   2.692  12.541 -1.6436  0.9693 -1.5590
13368TIP3    H261596   4.986   2.797  12.646  0.9583 -0.8279  1.0357
13369TIP3   OH261597   3.001   4.716  11.406 -0.1234 -0.4141  0.2054
13369TIP3    H161598   2.978   4.624  11.419 -2.4318  0.1564  0.3469
13369TIP3    H261599   2.947   4.744  11.332  0.8541  0.7374 -0.0995
13370TIP3   OH261600   3.810   2.572  11.388 -0.3771 -0.8030  0.0118
13370TIP3    H161601   3.778   2.662  11.375 -0.3114 -0.8583 -0.5177
13370TIP3    H261602   3.736   2.526  11.426 -0.6133 -0.6833 -0.3001
13371TIP3   OH261603   3.945   2.973   3.444  0.4317 -0.4545  0.4139
13371TIP3    H161604   4.023   3.026   3.428  0.0143 -0.3774 -1.4420
13371TIP3    H261605   3.879   3.037   3.472  0.5117 -0.2847  0.2169
13372TIP3   OH261606   6.110   5.692   0.711  0.9926  0.3369 -0.1365
13372TIP3    H161607   6.096   5.700   0.617  2.0955  1.1705 -0.2337
13372TIP3    H261608   6.100   5.598   0.729 -3.4169  0.6534 -0.3719
13373TIP3   OH261609   6.721   3.449  16.029 -0.3429 -0.1560  0.5564
13373TIP3    H161610   6.680   3.472  15.946 -0.0896  0.3097  0.5550
13373TIP3    H261611   6.756   3.532  16.062  1.4011 -0.6960  0.1117
13374TIP3   OH261612   4.452   6.407  15.030  0.3047 -0.1656 -0.0148
13374TIP3    H161613   4.438   6.313  15.027  1.7379 -0.3728 -0.4989
13374TIP3    H261614   4.442   6.430  15.123 -0.0553 -0.7980  0.0983
13375TIP3   OH261615   6.777   3.807  13.939  0.0078  0.0144  0.1724
13375TIP3    H161616   6.830   3.801  13.859 -0.5182 -2.1230 -0.0446
13375TIP3    H261617   6.767   3.901  13.954 -0.7635  0.4732 -2.8611
13376TIP3   OH261618   6.588   1.994  15.776  0.0292 -0.2385 -0.0226
13376TIP3    H161619   6.625   1.913  15.812  0.2350  0.9954  2.6730
13376TIP3    H261620   6.598   1.986  15.681  2.1421 -2.3514  0.3615
13377TIP3   OH261621   4.465   3.468  11.690 -0.6841  0.4391  0.3636
13377TIP3    H161622   4.558   3.465  11.712 -1.0562 -0.9744  1.7879
13377TIP3    H261623   4.421   3.421  11.762 -2.5504  1.6108  0.0251
13378TIP3   OH261624   5.290   5.973  15.477 -0.0518 -0.6005 -0.4206
13378TIP3    H161625   5.316   6.054  15.521 -0.4516 -0.4176 -0.5218
13378TIP3    H261626   5.253   6.002  15.394 -0.6862 -0.8572 -0.2286
13379TIP3   OH261627   1.173   3.646  12.475  0.0171  0.4040 -0.0305
13379TIP3    H161628   1.108   3.616  12.538  0.3860  1.0009  0.6401
13379TIP3    H261629   1.122   3.695  12.410 -0.0900  1.6931  1.0151
13380TIP3   OH261630   2.327   5.057   0.745 -0.1579 -0.4700  0.1291
13380TIP3    H161631   2.298   5.100   0.664  1.7221 -0.5119 -0.5958
13380TIP3    H261632   2.357   4.971   0.716  0.8145 -0.3663  0.8227
13381TIP3   OH261633   2.364   3.997   5.252 -0.1509  0.0342  0.9075
13381TIP3    H161634   2.358   4.065   5.319  0.5803  0.4611  0.5465
13381TIP3    H261635   2.338   3.917   5.297  2.1836 -0.0249  2.2394
13382TIP3   OH261636   0.642   3.843  15.234  0.5659 -0.4715  0.2313
13382TIP3    H161637   0.586   3.873  15.162  1.4548  0.5842 -0.0363
13382TIP3    H261638   0.720   3.898  15.227  1.3661 -1.5061  0.9841
13383TIP3   OH261639   0.454   0.037  16.407  0.1555  0.2044  0.5021
13383TIP3    H161640   0.544   0.004  16.399  0.1832  0.3122  0.3558
13383TIP3    H261641   0.405  -0.036  16.443  0.7021  0.7798  2.4577
13384TIP3   OH261642   4.821   1.500  16.997  0.0783  0.3298  0.3780
13384TIP3    H161643   4.780   1.458  17.073 -0.7565  0.4798  0.0117
13384TIP3    H261644   4.900   1.448  16.981 -1.0771 -1.2839 -0.2284
13385TIP3   OH261645   3.471   2.586   5.648  0.3949 -0.7500 -0.0985
13385TIP3    H161646   3.441   2.676   5.664  1.5479 -0.0352 -1.7757
13385TIP3    H261647   3.405   2.549   5.591  0.2551 -0.7614  0.0693
13386TIP3   OH261648   3.770   5.146   0.132 -0.7017  0.2556  0.4454
13386TIP3    H161649   3.779   5.201   0.209 -3.4642 -0.2242  1.1655
13386TIP3    H261650   3.790   5.058   0.163 -1.1742  0.1522  0.4572
13387TIP3   OH261651   6.458   0.963  15.966 -0.1105  0.3638  0.2408
13387TIP3    H161652   6.455   0.966  16.062  0.8711 -0.9956  0.3327
13387TIP3    H261653   6.370   0.933  15.941 -0.6528  1.5919  0.6654
13388TIP3   OH261654   3.936   0.961   2.997 -0.4231  0.4141  0.1177
13388TIP3    H161655   4.004   1.028   2.993 -1.1013  1.1470  0.8517
13388TIP3    H261656   3.875   0.985   2.927 -1.8133  1.8246  1.7868
13389TIP3   OH261657   0.815   4.300   4.339  0.1157 -0.4582 -0.3095
13389TIP3    H161658   0.756   4.300   4.264 -0.6887  0.9689  0.3085
13389TIP3    H261659   0.889   4.355   4.312  0.4442 -0.9954 -0.5182
13390TIP3   OH261660   0.326   2.634   1.888  0.0738 -0.2933  0.1828
13390TIP3    H161661   0.418   2.612   1.881  0.2901  0.5303  0.3984
13390TIP3    H261662   0.318   2.720   1.846 -0.8834 -1.0961 -1.2909
13391TIP3   OH261663   2.598   1.003   5.071 -0.8661  0.4388  0.7469
13391TIP3    H161664   2.584   0.939   5.142 -1.8488 -0.2624 -0.0579
13391TIP3    H261665   2.572   1.086   5.109 -1.0591  0.1186  1.3249
13392TIP3   OH261666   4.610   0.530   3.978 -0.0739  0.3342 -0.0012
13392TIP3    H161667   4.668   0.604   3.961 -0.7509  1.2905  1.6741
13392TIP3    H261668   4.542   0.566   4.037 -1.7069 -1.0305 -1.0040
13393TIP3   OH261669   3.004   5.425   0.370  0.1384 -0.1606  0.0969
13393TIP3    H161670   2.994   5.357   0.302  1.3668 -0.2816  0.0239
13393TIP3    H261671   3.090   5.463   0.352  0.5831 -0.3760  1.7576
13394TIP3   OH261672   3.258   4.131   2.348 -0.1110  0.0384  0.4204
13394TIP3    H161673   3.349   4.139   2.321  0.5018  0.5551  2.5386
13394TIP3    H261674   3.219   4.216   2.329  0.3074  0.3877  1.0952
13395TIP3   OH261675   6.805   3.428   5.437  0.6865 -0.4158  0.0411
13395TIP3    H161676   6.716   3.462   5.436  0.1038 -1.8273  2.3728
13395TIP3    H261677   6.860   3.506   5.449 -0.3220  0.2692  0.2752
13396TIP3   OH261678   2.862   3.295   0.077  0.3229  0.0550 -1.0452
13396TIP3    H161679   2.878   3.208   0.112 -0.4208 -0.4277 -1.8937
13396TIP3    H261680   2.910   3.354   0.135  0.5469 -0.8894 -0.2757
13397TIP3   OH261681   5.404   6.091   3.624  0.7583 -0.2100 -0.3199
13397TIP3    H161682   5.472   6.156   3.644  1.5857 -1.0936 -0.2595
13397TIP3    H261683   5.407   6.029   3.697 -0.4807  0.0371 -0.0468
13398TIP3   OH261684   3.996   4.114   0.564 -0.4284 -0.0667  0.3444
13398TIP3    H161685   4.006   4.151   0.652 -1.4413  1.2374 -0.0630
13398TIP3    H261686   4.036   4.179   0.506  0.0731 -0.8295 -0.1727
13399TIP3   OH261687   5.995   1.572  15.947  0.3454 -0.3750 -0.4332
13399TIP3    H161688   6.065   1.637  15.960  0.4322 -0.1083 -2.1014
13399TIP3    H261689   6.006   1.543  15.856 -1.9446 -0.0558 -0.8430
13400TIP3   OH261690   3.678   5.169  16.978  0.0961  0.3945  0.1338
13400TIP3    H161691   3.631   5.122  16.909  0.8428  1.1540 -0.8958
13400TIP3    H261692   3.616   5.234  17.009 -0.1085  0.3072 -0.0902
13401TIP3   OH261693   1.970   0.698   1.169  0.0674 -0.6857 -0.0733
13401TIP3    H161694   1.890   0.710   1.220 -0.3876 -2.7734 -0.2729
13401TIP3    H261695   2.003   0.612   1.195  3.0252  0.6788  1.0446
13402TIP3   OH261696   4.850   4.782  12.593  0.4650 -0.0433  0.2588
13402TIP3    H161697   4.923   4.843  12.604  1.6028 -1.3240  0.0321
13402TIP3    H261698   4.864   4.716  12.661 -0.4167 -0.3556  0.1382
13403TIP3   OH261699   0.232   6.741  15.668  0.1806  0.3417 -0.5557
13403TIP3    H161700   0.136   6.748  15.666  0.2231  1.2668  0.3307
13403TIP3    H261701   0.263   6.817  15.619  0.4688  0.5701 -0.0287
13404TIP3   OH261702   5.921   0.794  13.496 -0.6181  0.1332 -0.3657
13404TIP3    H161703   5.995   0.748  13.457 -1.3438 -2.5780  1.3064
13404TIP3    H261704   5.845   0.765  13.446 -1.2301 -1.4406  1.4342
13405TIP3   OH261705   3.830   4.628  14.739  0.1730 -0.1178 -0.3122
13405TIP3    H161706   3.879   4.558  14.783  0.7528  0.1014 -0.6032
13405TIP3    H261707   3.743   4.623  14.777  1.3450  1.7454  2.7580
13406TIP3   OH261708   3.469   4.125  16.515 -0.8786  0.2368  0.1622
13406TIP3    H161709   3.415   4.092  16.587 -0.8944  1.9166  0.9523
13406TIP3    H261710   3.413   4.189  16.471 -1.2054 -1.4673 -1.9584
13407TIP3   OH261711   2.529   0.460   4.270  0.3636  0.0632  0.4273
13407TIP3    H161712   2.573   0.379   4.294 -0.9591 -0.6849  0.3526
13407TIP3    H261713   2.480   0.486   4.348 -0.5916 -0.1409 -0.0951
13408TIP3   OH261714   0.566   5.461  13.812 -0.2786  0.7215  0.2013
13408TIP3    H161715   0.611   5.424  13.888 -2.5409 -1.8088  0.3627
13408TIP3    H261716   0.475   5.469  13.839 -1.3918 -1.5035 -2.6544
13409TIP3   OH261717   0.354   6.567  12.632 -0.2664 -0.1139  0.5750
13409TIP3    H161718   0.393   6.642  12.677  1.0649 -0.6002  0.2572
13409TIP3    H261719   0.339   6.502  12.700 -2.4375  0.8273  1.0338
13410TIP3   OH261720   0.286   1.322  10.384 -0.5920 -0.1495  0.3740
13410TIP3    H161721   0.299   1.238  10.428 -2.4694 -0.8274 -0.3060
13410TIP3    H261722   0.304   1.304  10.292  0.5587  0.5920  0.4377
13411TIP3   OH261723   0.506   4.172   5.457 -0.6994  0.9960  0.1796
13411TIP3    H161724   0.475   4.194   5.369 -0.3552  1.6131  0.2073
13411TIP3    H261725   0.557   4.091   5.445 -0.4736  1.1988 -0.2234
13412TIP3   OH261726   1.770   4.213   4.804  0.3982  0.9496  0.8784
13412TIP3    H161727   1.806   4.237   4.890  1.0967 -1.1653  1.2223
13412TIP3    H261728   1.847   4.201   4.748 -0.0218  1.4776  0.1764
13413TIP3   OH261729   4.389   4.781   1.838  0.1119 -0.1520  0.3358
13413TIP3    H161730   4.309   4.818   1.877 -0.4290 -0.2062 -0.6952
13413TIP3    H261731   4.419   4.848   1.776 -0.5876 -1.1935 -1.1696
13414TIP3   OH261732   4.759   6.758   1.822  0.2143 -0.0401  0.0140
13414TIP3    H161733   4.798   6.733   1.738 -0.8476 -1.5084 -0.0643
13414TIP3    H261734   4.672   6.791   1.800  1.3386  3.1714  0.1959
13415TIP3   OH261735   3.081   6.578  14.337 -0.0542 -0.7377 -0.0320
13415TIP3    H161736   3.047   6.562  14.426 -1.3042 -2.1637 -0.7469
13415TIP3    H261737   3.144   6.508  14.322  0.3514 -0.3456 -0.1905
13416TIP3   OH261738   6.641   5.349   5.764 -0.0615 -0.3346  0.1304
13416TIP3    H161739   6.633   5.432   5.717 -0.5377 -0.3044  0.2554
13416TIP3    H261740   6.606   5.283   5.704  1.6301 -0.6501 -0.5202
13417TIP3   OH261741   3.294   5.248  15.825 -0.3006  0.2207  0.1138
13417TIP3    H161742   3.312   5.246  15.920  0.4844  1.3295 -0.0055
13417TIP3    H261743   3.346   5.175  15.790 -0.6636 -0.2513  0.5374
13418TIP3   OH261744   3.278   5.888  12.991 -0.6268 -0.2583 -0.2551
13418TIP3    H161745   3.220   5.926  13.057 -0.1344 -0.3452  0.2343
13418TIP3    H261746   3.225   5.822  12.947 -1.2197  0.3789 -0.5142
13419TIP3   OH261747   5.662   2.280   5.802 -0.2757  0.1901  0.6593
13419TIP3    H161748   5.631   2.310   5.716  1.8589 -0.4705 -0.3656
13419TIP3    H261749   5.747   2.323   5.812 -0.0537 -0.5666  1.9867
13420TIP3   OH261750   4.759   1.641  15.407  0.1195  0.0644  0.4777
13420TIP3    H161751   4.849   1.671  15.395 -0.4515  1.0512 -1.4627
13420TIP3    H261752   4.715   1.716  15.447  0.4311 -0.8589  2.6066
13421TIP3   OH261753   4.186   0.056  15.180  0.9694 -0.4219 -0.0997
13421TIP3    H161754   4.264   0.081  15.131  0.8307 -0.2018 -0.2073
13421TIP3    H261755   4.133   0.007  15.118  1.0968 -0.7147  0.0196
13422TIP3   OH261756   4.220   5.381  15.793  0.1046 -0.8155 -0.2050
13422TIP3    H161757   4.153   5.384  15.862  1.1028 -0.2355  0.7550
13422TIP3    H261758   4.173   5.350  15.716 -1.3873  0.0099  0.3439
13423TIP3   OH261759   5.830   3.680   2.042 -0.5698  0.0498  0.1420
13423TIP3    H161760   5.778   3.734   2.101  1.3191  0.8800  1.1011
13423TIP3    H261761   5.844   3.598   2.090 -3.4340 -1.3487 -1.3122
13424TIP3   OH261762   4.955   2.931   6.578  0.4194  0.3562 -0.5110
13424TIP3    H161763   4.901   2.873   6.632  1.3755 -0.1487 -0.0803
13424TIP3    H261764   4.931   3.019   6.607  2.5730  0.0382  2.4073
13425TIP3   OH261765   0.523   6.770   3.408 -0.8329  0.7152 -0.0563
13425TIP3    H161766   0.609   6.791   3.373 -1.2103  1.0851 -0.7800
13425TIP3    H261767   0.499   6.845   3.462 -0.1632  0.0559  1.1840
13426TIP3   OH261768   5.744   5.355  16.823 -0.0345  0.4794 -0.4719
13426TIP3    H161769   5.688   5.428  16.850 -0.0823  0.1206  0.4093
13426TIP3    H261770   5.827   5.397  16.797  0.4440  0.7254  1.4124
13427TIP3   OH261771   2.191   6.503   2.312  0.1863 -0.0556  0.4776
13427TIP3    H161772   2.146   6.463   2.239  0.0558  0.1990  0.4184
13427TIP3    H261773   2.284   6.502   2.287  0.1517 -0.0583  0.3525
13428TIP3   OH261774   2.353   6.665   5.993 -0.5700  0.3032  0.3039
13428TIP3    H161775   2.341   6.690   6.085  1.1064  1.9263  0.1121
13428TIP3    H261776   2.437   6.619   5.991 -0.2083  0.9913 -0.5535
13429TIP3   OH261777   5.255   2.199  15.923 -0.2240 -0.1340  0.6514
13429TIP3    H161778   5.236   2.276  15.976  1.0358  0.7307 -0.1283
13429TIP3    H261779   5.226   2.125  15.977 -0.8723  0.8405  1.6556
13430TIP3   OH261780   1.702   1.485  10.753  0.7306 -0.5546 -0.7335
13430TIP3    H161781   1.739   1.408  10.795 -0.1547 -1.1634 -1.0634
13430TIP3    H261782   1.661   1.452  10.673 -0.0930  0.1713 -0.6268
13431TIP3   OH261783   5.145   3.558   4.914 -0.1453  0.2057  0.3685
13431TIP3    H161784   5.074   3.572   4.851 -0.1171 -0.4250  0.2017
13431TIP3    H261785   5.186   3.644   4.922 -0.9534  0.5892  0.4936
13432TIP3   OH261786   3.819   2.824  12.180  0.0001  0.0050 -0.1109
13432TIP3    H161787   3.889   2.874  12.137 -0.3000 -0.3619 -1.0353
13432TIP3    H261788   3.862   2.743  12.209  0.4678  0.7320  1.3178
13433TIP3   OH261789   4.486   0.873   5.826  0.6003 -0.5261 -0.1737
13433TIP3    H161790   4.398   0.837   5.818  0.4479 -0.1260 -0.3451
13433TIP3    H261791   4.500   0.883   5.920 -0.5393  1.8078 -0.2203
13434TIP3   OH261792   0.416   1.036   2.467 -0.7300  0.0480  0.7386
13434TIP3    H161793   0.368   1.070   2.391 -1.9185  0.3246  1.5991
13434TIP3    H261794   0.495   0.998   2.430 -1.5243 -0.2522 -0.6970
13435TIP3   OH261795   0.799   1.148  12.984 -0.4534 -0.3091  0.2655
13435TIP3    H161796   0.710   1.152  12.949 -0.6417  0.9155  0.8313
13435TIP3    H261797   0.845   1.089  12.925 -0.2431  3.1533 -3.2718
13436TIP3   OH261798   2.052   6.051  16.977 -0.3477 -0.0623  0.0935
13436TIP3    H161799   2.018   6.017  16.895  1.0699 -2.2538  0.3753
13436TIP3    H261800   1.987   6.027  17.043 -1.0318  0.8793 -0.2242
13437TIP3   OH261801   1.457   4.341  14.536 -0.1020 -0.5495  0.4496
13437TIP3    H161802   1.518   4.378  14.599  0.8168 -0.2524 -0.6023
13437TIP3    H261803   1.502   4.265  14.500  0.3552  0.6594 -1.5689
13438TIP3   OH261804   3.110   6.412   2.382 -0.4447 -0.1351  0.3264
13438TIP3    H161805   3.093   6.505   2.365  0.6442 -0.2591 -1.4535
13438TIP3    H261806   3.039   6.386   2.441 -0.9640  1.7253  0.5689
13439TIP3   OH261807   0.677   3.845  12.717  0.5311 -0.1773  0.6363
13439TIP3    H161808   0.725   3.895  12.650  2.2998 -1.5234  0.8430
13439TIP3    H261809   0.639   3.772  12.668 -0.8753  0.5911  0.5705
13440TIP3   OH261810   2.254   3.080   3.603 -0.4080  0.3234 -0.1419
13440TIP3    H161811   2.177   3.110   3.651  1.3325 -1.3763  3.8928
13440TIP3    H261812   2.227   2.997   3.564 -1.2805  0.8607 -0.7141
13441TIP3   OH261813   0.663   1.555   3.221 -0.5454  0.5725  0.0542
13441TIP3    H161814   0.599   1.535   3.151  1.0605 -1.9083 -0.7732
13441TIP3    H261815   0.734   1.599   3.175 -0.0537  0.0752  0.3423
13442TIP3   OH261816   1.283   5.211  13.597 -0.2083 -0.1336 -0.1813
13442TIP3    H161817   1.305   5.119  13.614  0.8040  0.3600  1.1769
13442TIP3    H261818   1.218   5.233  13.663  1.2865  0.8112  0.9955
13443TIP3   OH261819   2.926   6.659   0.174 -0.3911  0.6115 -0.1375
13443TIP3    H161820   2.935   6.749   0.204  0.1487  0.7203 -0.6112
13443TIP3    H261821   2.937   6.664   0.079  1.0985 -0.1399 -0.0224
13444TIP3   OH261822   4.943   5.449   5.936  0.2865 -0.5059 -0.1846
13444TIP3    H161823   5.010   5.476   5.999  1.2216 -1.4605 -0.7708
13444TIP3    H261824   4.979   5.371   5.894 -1.5761 -1.5905  0.1560
13445TIP3   OH261825   4.461   1.492  14.063 -0.2715 -0.9026  0.7387
13445TIP3    H161826   4.548   1.524  14.039 -1.3103  1.6560  0.1699
13445TIP3    H261827   4.443   1.535  14.147 -0.5284 -2.3152  1.4110
13446TIP3   OH261828   4.277   2.602   2.398  0.1287  0.0384  0.3597
13446TIP3    H161829   4.256   2.584   2.307 -0.5300 -1.0356  0.7116
13446TIP3    H261830   4.269   2.517   2.442  0.7530  0.4806  1.3567
13447TIP3   OH261831   1.961   6.077  10.434 -0.1962 -0.4850 -0.6050
13447TIP3    H161832   1.984   5.984  10.444  0.0304 -0.6519 -2.4875
13447TIP3    H261833   1.866   6.079  10.446 -0.6777 -1.4956 -3.9060
13448TIP3   OH261834   3.488   0.122   4.441 -0.3736 -0.0823 -0.2542
13448TIP3    H161835   3.481   0.125   4.536  0.7060 -0.7714 -0.1519
13448TIP3    H261836   3.582   0.127   4.423 -0.6943  3.2480 -1.4077
13449TIP3   OH261837   0.678   1.602  12.191  0.4682 -0.5913 -0.5000
13449TIP3    H161838   0.651   1.568  12.106 -1.3715 -1.5226  0.4362
13449TIP3    H261839   0.598   1.634  12.231  1.6021  1.5879  0.1337
13450TIP3   OH261840   4.070   6.205  14.938 -0.4339  0.4280 -0.2592
13450TIP3    H161841   4.004   6.169  14.879 -0.3428 -0.4662  0.1734
13450TIP3    H261842   4.153   6.194  14.891 -0.5005  0.8294 -0.4725
13451TIP3   OH261843   1.712   6.649  12.550  0.1671 -0.2254 -0.1518
13451TIP3    H161844   1.623   6.617  12.539 -0.0762  0.6798 -0.9235
13451TIP3    H261845   1.709   6.739  12.516  1.1158  0.1810  0.8054
13452TIP3   OH261846   5.694   4.443   1.028  0.7212 -0.6753 -0.0531
13452TIP3    H161847   5.782   4.480   1.023  0.2368  0.4806 -0.1349
13452TIP3    H261848   5.703   4.354   0.992  1.8923 -0.6586  0.1749
13453TIP3   OH261849   3.077   6.533   3.796 -0.1361  0.3966 -0.0749
13453TIP3    H161850   3.044   6.579   3.872  0.9976  0.4545  0.3965
13453TIP3    H261851   3.163   6.499   3.824  0.2249  0.3039 -1.2696
13454TIP3   OH261852   0.075   2.687   5.679 -0.8209  0.5771 -0.0663
13454TIP3    H161853   0.010   2.734   5.627  1.3121  2.5577 -1.0582
13454TIP3    H261854   0.140   2.657   5.615  0.6060  0.9917  1.1541
13455TIP3   OH261855   0.836   4.284   5.091 -0.3371 -0.1487 -0.0693
13455TIP3    H161856   0.775   4.357   5.097 -1.1728 -0.8697  0.3444
13455TIP3    H261857   0.918   4.323   5.059 -0.6308  1.0307  0.6093
13456TIP3   OH261858   2.236   2.277   1.133  0.1491  0.3860  0.0036
13456TIP3    H161859   2.242   2.356   1.079  1.7606 -0.9900 -1.9062
13456TIP3    H261860   2.310   2.282   1.193  0.6027  0.0662 -0.5188
13457TIP3   OH261861   6.558   0.300   3.685  0.0963  0.8137  0.3472
13457TIP3    H161862   6.572   0.306   3.591  1.3217 -0.2657  0.4423
13457TIP3    H261863   6.507   0.220   3.697 -0.9911  1.5267  0.5156
13458TIP3   OH261864   4.294   6.129   1.260 -0.5540  0.2186 -0.2131
13458TIP3    H161865   4.317   6.168   1.175 -0.2183 -1.8365 -1.0838
13458TIP3    H261866   4.216   6.178   1.288 -0.0860  1.5661 -1.2364
13459TIP3   OH261867   0.719   1.138  15.433 -0.8446 -0.1159  0.7361
13459TIP3    H161868   0.646   1.081  15.409  0.6078 -1.4272 -0.6628
13459TIP3    H261869   0.704   1.219  15.384 -1.1035 -0.5411  0.1121
13460TIP3   OH261870   1.195   6.717  16.971 -0.4360 -0.0658  0.2066
13460TIP3    H161871   1.227   6.627  16.977 -1.8398 -0.7286 -1.7269
13460TIP3    H261872   1.160   6.736  17.058 -0.5428 -1.5689  0.5113
13461TIP3   OH261873   3.067   5.633  13.965  0.7143 -0.1894  0.2645
13461TIP3    H161874   3.000   5.593  14.020  1.9516 -2.1396  0.3930
13461TIP3    H261875   3.103   5.704  14.018 -0.4039  0.0910  0.6571
13462TIP3   OH261876   4.143   5.954  16.054  0.4052  0.0061  0.4772
13462TIP3    H161877   4.095   6.035  16.072  0.4659 -0.3329  2.3396
13462TIP3    H261878   4.092   5.911  15.985 -1.5424  0.0507  1.8187
13463TIP3   OH261879   3.243   1.202  11.047 -0.1146  0.0804  0.3703
13463TIP3    H161880   3.310   1.189  10.980  0.2325 -1.0484  0.9374
13463TIP3    H261881   3.262   1.288  11.083 -0.3797  0.7653 -1.0675
13464TIP3   OH261882   1.460   3.171  17.087  0.2871 -0.2899  0.2557
13464TIP3    H161883   1.478   3.255  17.044  2.3418  0.6434  2.7949
13464TIP3    H261884   1.428   3.196  17.174 -0.1868 -2.1456  0.6277
13465TIP3   OH261885   6.735   5.877  12.382 -0.4862  0.6847 -0.3517
13465TIP3    H161886   6.808   5.939  12.393 -0.3401  0.6797 -1.2418
13465TIP3    H261887   6.657   5.930  12.394 -0.3402  0.7422  0.3599
13466TIP3   OH261888   3.410   5.086  15.604  0.2352 -0.3889 -0.2814
13466TIP3    H161889   3.448   5.086  15.516 -0.8194  0.9634 -0.7542
13466TIP3    H261890   3.323   5.123  15.592 -0.0478 -0.5343  1.2827
13467TIP3   OH261891   6.154   2.040   3.687 -0.3083 -0.2959  0.2757
13467TIP3    H161892   6.203   1.960   3.708  1.1393  1.0202  2.0669
13467TIP3    H261893   6.206   2.083   3.620 -0.7722 -0.5359 -0.2444
13468TIP3   OH261894   3.697   0.606  12.223  0.3126 -0.0272  0.2670
13468TIP3    H161895   3.709   0.533  12.162 -0.4440  0.0520  0.0198
13468TIP3    H261896   3.728   0.683  12.174 -0.6912  0.1014 -0.1859
13469TIP3   OH261897   3.409   4.586  12.686 -0.0570  0.3107  0.1125
13469TIP3    H161898   3.451   4.565  12.769  0.3786  1.0924  0.0948
13469TIP3    H261899   3.423   4.680  12.675  0.6978  0.0460 -1.3053
13470TIP3   OH261900   1.644   5.729  16.360 -0.1972  0.6569  0.1630
13470TIP3    H161901   1.738   5.742  16.354 -0.4521  1.4581 -2.6759
13470TIP3    H261902   1.630   5.641  16.323 -0.7141  1.1428 -0.7951
13471TIP3   OH261903   3.541   0.156   0.783 -0.3189  0.1132  0.0546
13471TIP3    H161904   3.470   0.106   0.822 -0.8380 -0.1935 -1.2668
13471TIP3    H261905   3.593   0.185   0.857 -1.4966 -0.1511  1.0000
13472TIP3   OH261906   0.786   2.889  13.891 -0.4099 -0.4395  0.3570
13472TIP3    H161907   0.866   2.874  13.940  0.6864 -1.3597 -1.6525
13472TIP3    H261908   0.717   2.848  13.943  0.9192 -2.5507  0.4801
13473TIP3   OH261909   1.812   3.234   5.442  0.0446  0.0662  0.3982
13473TIP3    H161910   1.857   3.152   5.461  1.6230  0.9375  0.5091
13473TIP3    H261911   1.800   3.275   5.528 -0.3498  0.1408  0.3062
13474TIP3   OH261912   4.399   0.968  12.381 -0.7356 -0.7068 -0.1764
13474TIP3    H161913   4.445   0.933  12.457 -1.3456  0.1297  0.5990
13474TIP3    H261914   4.321   0.914  12.373 -1.4638  0.1893  0.7610
13475TIP3   OH261915   3.350   5.298  16.408 -0.3948 -0.0242  0.0636
13475TIP3    H161916   3.360   5.203  16.403 -2.7957 -0.4314  2.1814
13475TIP3    H261917   3.380   5.321  16.495  2.5022  1.5384 -1.2908
13476TIP3   OH261918   0.495   3.040  17.179  0.4443 -0.5664 -0.0975
13476TIP3    H161919   0.443   3.104  17.227  2.0429 -0.2604  1.2678
13476TIP3    H261920   0.520   3.085  17.099 -0.2066 -0.2294 -0.1142
13477TIP3   OH261921   5.156   0.087  15.553  0.1309  0.2186 -0.0066
13477TIP3    H161922   5.207   0.161  15.587 -2.1844  1.5242  0.6761
13477TIP3    H261923   5.071   0.094  15.596 -1.1310 -1.1098 -2.1872
13478TIP3   OH261924   6.581   6.417  12.529 -0.6123  0.1685 -0.4121
13478TIP3    H161925   6.490   6.400  12.507 -0.1521 -1.0532 -1.4695
13478TIP3    H261926   6.600   6.357  12.601 -0.5912  0.2846 -0.3213
13479TIP3   OH261927   2.519   0.079   5.189  0.3139  0.3835 -0.7170
13479TIP3    H161928   2.528   0.070   5.284 -0.0021  2.2083 -0.4890
13479TIP3    H261929   2.609   0.085   5.157  0.3978  0.7711 -0.4124
13480TIP3   OH261930   2.691   1.059   0.251 -0.1052  0.0024  0.2760
13480TIP3    H161931   2.647   1.052   0.166  0.3299  0.3574  0.0158
13480TIP3    H261932   2.627   1.099   0.309  0.2599  1.6064 -0.4001
13481TIP3   OH261933   6.434   5.666   1.236 -0.0443  0.0208 -0.3374
13481TIP3    H161934   6.477   5.582   1.248 -1.9414 -0.9519 -0.0828
13481TIP3    H261935   6.416   5.670   1.142  2.0602  1.1865 -0.7172
13482TIP3   OH261936   3.343   5.934  13.815  0.8906  0.1554  0.5214
13482TIP3    H161937   3.289   5.958  13.890 -0.9540  2.8692 -1.5852
13482TIP3    H261938   3.287   5.878  13.761  1.2031  0.5790 -0.2530
13483TIP3   OH261939   1.896   2.696   5.144 -0.3582  0.1381 -0.0407
13483TIP3    H161940   1.923   2.605   5.134 -2.6986 -1.0986  3.6261
13483TIP3    H261941   1.977   2.745   5.153  0.9168 -1.6445 -1.5049
13484TIP3   OH261942   3.496   4.737   2.843 -0.4864 -0.3325 -0.0287
13484TIP3    H161943   3.508   4.726   2.937 -0.8856 -2.1095 -0.1730
13484TIP3    H261944   3.420   4.794   2.835  1.3739  2.3914  0.7320
13485TIP3   OH261945   1.503   2.121   4.066  0.3183 -0.8569  0.2537
13485TIP3    H161946   1.453   2.202   4.050  0.9587 -0.9751 -2.4818
13485TIP3    H261947   1.476   2.094   4.154 -1.2719  1.3567  0.4930
13486TIP3   OH261948   1.487   2.072  11.837 -0.1792  0.2940 -0.4182
13486TIP3    H161949   1.475   2.163  11.864 -0.2811  0.2034 -0.1564
13486TIP3    H261950   1.581   2.057  11.847 -0.1439  0.4093 -0.5820
13487TIP3   OH261951   3.010   0.798  15.648  0.5494 -0.1696  0.2383
13487TIP3    H161952   2.926   0.826  15.684  0.6730  0.9414 -0.3172
13487TIP3    H261953   3.062   0.774  15.725  0.6718  1.7933  0.7888
13488TIP3   OH261954   4.062   3.029  11.367  0.1831  0.4482  0.0243
13488TIP3    H161955   4.068   2.969  11.442  0.3709  0.6515  0.1759
13488TIP3    H261956   4.144   3.015  11.319 -0.3266 -0.3195 -0.6347
13489TIP3   OH261957   0.709   5.658   3.623  0.2269  0.5213  0.0296
13489TIP3    H161958   0.721   5.709   3.704  2.4687  1.1637 -0.6783
13489TIP3    H261959   0.615   5.639   3.621 -0.3197  2.8336  1.3990
13490TIP3   OH261960   4.561   1.436   2.747  0.4229 -0.3432  0.2616
13490TIP3    H161961   4.584   1.432   2.840 -2.3533 -0.2514  1.0010
13490TIP3    H261962   4.567   1.528   2.724 -1.0878 -0.0579  0.9666
13491TIP3   OH261963   3.734   0.479   1.303 -0.8009  0.3143  0.4078
13491TIP3    H161964   3.727   0.514   1.214 -2.1240  1.5366  0.9704
13491TIP3    H261965   3.781   0.547   1.352 -1.1065  0.1681  0.9102
13492TIP3   OH261966   0.643   4.006  16.532  0.0932 -0.3521 -0.3092
13492TIP3    H161967   0.709   3.975  16.594  0.1096 -0.9769 -0.6405
13492TIP3    H261968   0.591   3.929  16.511 -1.1692  0.2809  0.4600
13493TIP3   OH261969   2.580   1.764  11.620  0.2693 -0.2860 -0.2218
13493TIP3    H161970   2.675   1.773  11.633  0.2905 -0.0798 -0.5228
13493TIP3    H261971   2.572   1.707  11.543  0.1634  1.2426 -1.3786
13494TIP3   OH261972   3.547   2.719  11.810 -0.3465 -0.1109  0.0542
13494TIP3    H161973   3.466   2.770  11.815  0.4491  1.4902 -2.6903
13494TIP3    H261974   3.520   2.635  11.773 -0.7051  0.4925 -1.0562
13495TIP3   OH261975   6.386   1.175  13.378  0.2679  0.6012 -0.2418
13495TIP3    H161976   6.332   1.138  13.448 -0.2101  2.4687  0.4077
13495TIP3    H261977   6.463   1.118  13.374 -0.6685 -0.7298  0.3855
13496TIP3   OH261978   4.564   6.002   3.148 -0.9016 -0.2918 -0.6793
13496TIP3    H161979   4.522   5.997   3.234  1.7323  0.2350  0.7132
13496TIP3    H261980   4.522   6.077   3.105 -3.2061 -1.3994 -0.4260
13497TIP3   OH261981   1.917   1.135  11.322 -0.2484  0.4983  0.7696
13497TIP3    H161982   1.956   1.222  11.333 -0.4673  0.7379 -0.2824
13497TIP3    H261983   1.881   1.136  11.233  2.0777 -1.5682 -0.2728
13498TIP3   OH261984   0.403   3.338   2.080  0.4345  0.3057 -0.1710
13498TIP3    H161985   0.486   3.363   2.120 -1.0262  3.7245  0.8875
13498TIP3    H261986   0.351   3.305   2.153  0.6702 -1.4843 -0.7740
13499TIP3   OH261987   4.939   1.960   5.147  0.5164  0.2328  0.3191
13499TIP3    H161988   4.971   2.039   5.103 -0.5883  0.1912 -0.5810
13499TIP3    H261989   4.844   1.971   5.149  0.5105  0.0492  2.3534
13500TIP3   OH261990   3.779   1.681  11.888  0.3395 -0.9589  0.9888
13500TIP3    H161991   3.695   1.677  11.842  0.9312 -3.5146  0.0653
13500TIP3    H261992   3.833   1.737  11.832 -0.1580 -0.8426  0.6134
13501TIP3   OH261993   4.709   5.307  14.996  0.6792 -0.0722 -0.0788
13501TIP3    H161994   4.658   5.378  15.036  0.5157  0.8858 -1.9373
13501TIP3    H261995   4.780   5.291  15.058 -1.4992 -1.0166  2.2720
13502TIP3   OH261996   3.130   2.399  15.116 -0.4287 -0.2758 -0.6087
13502TIP3    H161997   3.095   2.353  15.192 -2.4081  1.3358 -0.4976
13502TIP3    H261998   3.099   2.489  15.126  1.3869  0.5480 -2.0342
13503TIP3   OH261999   0.650   1.378  15.330 -0.0377 -0.0181 -0.4496
13503TIP3    H162000   0.603   1.424  15.400 -0.5719  0.1348 -0.9111
13503TIP3    H262001   0.608   1.407  15.249  0.0246 -0.8500 -0.7877
13504TIP3   OH262002   3.696   6.320  10.769 -0.1822  0.6474  0.1240
13504TIP3    H162003   3.714   6.228  10.750 -0.9783  0.1770  1.5541
13504TIP3    H262004   3.620   6.318  10.827  0.0328  2.1929  0.4854
13505TIP3   OH262005   5.005   2.164  17.046  0.6010 -0.0313  0.2542
13505TIP3    H162006   4.952   2.133  17.120  0.0680 -3.4198 -1.4676
13505TIP3    H262007   4.941   2.178  16.976  1.4761  0.1676 -0.5056
13506TIP3   OH262008   3.853   1.475   5.044 -0.5084 -0.3748 -0.1740
13506TIP3    H162009   3.923   1.509   5.100 -1.0674 -1.4676  1.2196
13506TIP3    H262010   3.898   1.440   4.967  0.2107  1.8311 -0.7994
13507TIP3   OH262011   6.551   2.788  14.445  0.0945 -0.4593  0.1196
13507TIP3    H162012   6.599   2.801  14.363 -1.3110  1.1112 -0.4582
13507TIP3    H262013   6.584   2.857  14.503  1.6414 -2.0220  1.1807
13508TIP3   OH262014   0.590   2.700   1.188  0.2835 -0.1977  0.2656
13508TIP3    H162015   0.521   2.751   1.145  0.4186  0.9194  1.3651
13508TIP3    H262016   0.670   2.728   1.144  0.4677  1.2283  1.4837
13509TIP3   OH262017   1.644   4.942  11.542 -0.6902 -0.2225 -0.4889
13509TIP3    H162018   1.680   4.861  11.580 -1.2776 -0.8760 -1.3075
13509TIP3    H262019   1.549   4.933  11.552 -0.6719  1.3393  1.3500
13510TIP3   OH262020   6.683   1.523  15.746 -0.0725 -0.0570 -0.3835
13510TIP3    H162021   6.733   1.514  15.827 -1.7483 -2.3253  0.4319
13510TIP3    H262022   6.596   1.552  15.775 -0.2461  0.5436 -1.4956
13511TIP3   OH262023   4.260   5.428  11.898 -0.2004  0.0711  0.9745
13511TIP3    H162024   4.297   5.343  11.924 -1.1980 -0.8609 -0.5980
13511TIP3    H262025   4.309   5.452  11.820 -1.2211  0.0126  0.3075
13512TIP3   OH262026   1.799   5.190  17.186 -0.0457  0.3438  0.9783
13512TIP3    H162027   1.866   5.138  17.230 -0.3457  1.0773  2.3358
13512TIP3    H262028   1.846   5.232  17.113  0.4412 -0.9239  0.5341
13513TIP3   OH262029   3.434   0.853   4.317  0.1391 -1.0912 -0.5054
13513TIP3    H162030   3.366   0.898   4.267 -0.2089 -1.3465 -0.2608
13513TIP3    H262031   3.504   0.838   4.253  0.1106 -0.5268 -0.6730
13514TIP3   OH262032   6.637   5.838   4.668  0.1979 -0.5490 -0.8306
13514TIP3    H162033   6.729   5.811   4.678  0.0772 -0.7920 -0.3931
13514TIP3    H262034   6.621   5.898   4.740  0.1785 -0.0553 -1.2410
13515TIP3   OH262035   0.456   0.319  12.699 -0.0260 -0.6559 -0.5695
13515TIP3    H162036   0.368   0.337  12.733  0.4582  0.6694 -0.0157
13515TIP3    H262037   0.471   0.227  12.721 -0.7450 -0.5273  0.5161
13516TIP3   OH262038   3.853   1.865  15.109  0.0226 -0.3063  0.4536
13516TIP3    H162039   3.874   1.958  15.109  0.1195 -0.3174 -0.4252
13516TIP3    H262040   3.816   1.848  15.196 -2.1345  1.0565 -0.1425
13517TIP3   OH262041   4.911   4.055   4.986 -1.0745  0.0739 -0.1752
13517TIP3    H162042   4.966   4.110   4.930 -2.5144 -0.0096 -1.7072
13517TIP3    H262043   4.908   4.102   5.069 -1.6821  2.0017 -1.2337
13518TIP3   OH262044   6.760   1.133   0.453 -0.0430 -0.0976  0.0862
13518TIP3    H162045   6.782   1.046   0.419 -1.2188  0.0385 -1.0793
13518TIP3    H262046   6.844   1.171   0.478  0.6111 -1.1037 -0.5370
13519TIP3   OH262047   5.381   4.584  10.637 -0.5996  0.6153  0.7338
13519TIP3    H162048   5.341   4.499  10.659  0.0635  0.2047  0.3903
13519TIP3    H262049   5.470   4.561  10.612 -0.4268  1.4254  0.6233
13520TIP3   OH262050   2.146   3.906  11.454 -0.5477 -0.4131 -0.5137
13520TIP3    H162051   2.183   3.908  11.366  0.6793 -1.3238 -0.0437
13520TIP3    H262052   2.100   3.822  11.459  1.6973 -1.6432  0.5749
13521TIP3   OH262053   0.833   3.036  14.806  0.4366  0.0181 -0.4642
13521TIP3    H162054   0.899   3.098  14.837  0.8735 -0.3788 -0.5899
13521TIP3    H262055   0.751   3.085  14.808  0.9371  0.9119 -1.5512
13522TIP3   OH262056   6.444   4.142  16.565  0.1342 -0.6487  0.3301
13522TIP3    H162057   6.367   4.094  16.596  0.0610 -1.0243 -0.4265
13522TIP3    H262058   6.518   4.100  16.610 -0.0386 -0.7326  0.5350
13523TIP3   OH262059   0.032   6.443  15.652 -0.2617  0.0992 -0.5138
13523TIP3    H162060   0.097   6.405  15.593  0.3351 -0.1100  0.2686
13523TIP3    H262061   0.047   6.399  15.735  0.1752  1.7475  0.3010
13524TIP3   OH262062   5.476   1.238  15.759  0.6005  0.1609 -0.3092
13524TIP3    H162063   5.423   1.279  15.828  1.2710  1.4713 -0.5390
13524TIP3    H262064   5.565   1.239  15.794  0.6918 -0.6605 -0.5238
13525TIP3   OH262065   4.789   6.064   1.382 -0.0044  0.0023 -0.4626
13525TIP3    H162066   4.780   6.054   1.287  2.1839 -0.4068 -0.6558
13525TIP3    H262067   4.738   6.142   1.403 -0.9203 -0.1969 -1.9039
13526TIP3   OH262068   5.128   1.724   5.753 -0.4508  0.2850  0.0921
13526TIP3    H162069   5.037   1.746   5.736 -0.4924  1.1505  1.4147
13526TIP3    H262070   5.153   1.778   5.828  0.5443 -1.4095  1.0257
13527TIP3   OH262071   5.936   1.342   3.923 -0.5226 -0.3057  0.0207
13527TIP3    H162072   5.844   1.327   3.945 -0.4773 -0.2365  0.2593
13527TIP3    H262073   5.983   1.327   4.005 -0.1067 -2.2859 -0.5452
13528TIP3   OH262074   5.865   3.140  17.096  0.1795 -0.6894  0.0344
13528TIP3    H162075   5.884   3.102  17.182 -0.8023  0.1167  0.6206
13528TIP3    H262076   5.775   3.112  17.077  1.4366 -3.4337 -2.1348
13529TIP3   OH262077   1.743   1.297   3.674 -0.0994 -0.3193 -0.1064
13529TIP3    H162078   1.769   1.366   3.613 -0.1425  1.3335  1.7060
13529TIP3    H262079   1.805   1.226   3.658  2.0692  1.4401  0.3532
13530TIP3   OH262080   6.055   2.150   3.034  0.6585  0.4014 -0.8047
13530TIP3    H162081   6.135   2.170   3.082 -0.2722 -1.4010  1.6103
13530TIP3    H262082   5.996   2.223   3.054  0.1160 -0.5625  1.2404
13531TIP3   OH262083   5.794   6.197  11.785  0.1748 -0.2608  0.4365
13531TIP3    H162084   5.775   6.115  11.739  0.3630 -1.2599  2.1046
13531TIP3    H262085   5.728   6.259  11.753 -0.1077 -1.1232 -0.6637
13532TIP3   OH262086   1.309   3.221  15.469 -0.3106  0.1216  0.4427
13532TIP3    H162087   1.385   3.207  15.526  0.7713  0.0168 -0.9946
13532TIP3    H262088   1.342   3.275  15.398 -0.8104 -2.3762 -1.7754
13533TIP3   OH262089   5.084   1.690  16.451  0.1120 -0.5841  0.2117
13533TIP3    H162090   5.164   1.641  16.428 -0.1408 -0.4753 -0.9529
13533TIP3    H262091   5.013   1.627  16.441  0.2985 -1.5613  4.2290
13534TIP3   OH262092   5.927   0.968  12.983  0.1584  0.0794 -0.6380
13534TIP3    H162093   5.897   1.035  13.044 -0.0292 -0.9203  0.3795
13534TIP3    H262094   5.872   0.979  12.906  0.8659  1.8119 -0.9344
13535TIP3   OH262095   5.682   6.255   6.369  0.1674 -0.1028  0.1692
13535TIP3    H162096   5.597   6.280   6.406 -0.0068  1.0617 -0.9631
13535TIP3    H262097   5.711   6.333   6.321  1.2756 -0.9282 -0.5398
13536TIP3   OH262098   1.294   5.367   0.236 -0.0298  0.4409  0.0539
13536TIP3    H162099   1.201   5.351   0.219 -0.1806 -1.3287  2.3429
13536TIP3    H262100   1.337   5.285   0.212  0.6199  0.3846  1.3831
13537TIP3   OH262101   1.583   1.547  14.430  0.2195  0.1303 -0.2435
13537TIP3    H162102   1.672   1.544  14.396  0.0291 -1.8776 -0.6205
13537TIP3    H262103   1.542   1.467  14.397 -1.8316  1.1954 -0.3652
13538TIP3   OH262104   6.818   0.504  12.367  0.4697 -0.3204 -0.6556
13538TIP3    H162105   6.819   0.599  12.355  0.2343 -0.3875 -1.2416
13538TIP3    H262106   6.878   0.488  12.440  0.0140  0.3297 -0.1339
13539TIP3   OH262107   4.341   5.272  16.146 -0.1072 -0.3918  0.2777
13539TIP3    H162108   4.358   5.180  16.164  0.2527  0.0879  2.4286
13539TIP3    H262109   4.247   5.275  16.125  0.2054 -1.4614 -1.3979
13540TIP3   OH262110   6.101   5.715  15.452 -0.1469  0.4316  0.7661
13540TIP3    H162111   6.155   5.792  15.471 -0.4405  0.4174  1.7169
13540TIP3    H262112   6.066   5.730  15.365  1.1365  0.5932  0.2744
13541TIP3   OH262113   3.027   5.788   4.406 -0.6623 -0.0400 -0.1686
13541TIP3    H162114   3.071   5.704   4.393 -2.4304 -0.8711 -0.9096
13541TIP3    H262115   3.052   5.814   4.495 -0.8928 -1.8271  0.4319
13542TIP3   OH262116   6.786   4.629   2.413  0.1470 -0.0614 -0.1877
13542TIP3    H162117   6.872   4.650   2.377  0.1236 -1.4062 -1.0633
13542TIP3    H262118   6.730   4.701   2.386  0.4723 -0.3331 -1.5939
13543TIP3   OH262119   5.840   2.175  11.847  0.3122 -0.1135 -0.0875
13543TIP3    H162120   5.806   2.212  11.929  0.6580  1.7763 -0.7775
13543TIP3    H262121   5.762   2.157  11.795  0.0876 -1.3298  0.6508
13544TIP3   OH262122   2.804   1.419   0.394 -0.1423  0.3385 -0.4726
13544TIP3    H162123   2.718   1.443   0.361 -0.9108 -1.5106  0.0976
13544TIP3    H262124   2.824   1.485   0.460 -3.0240 -1.5291  2.4036
13545TIP3   OH262125   3.470   6.113   3.833  0.2000 -0.3360 -0.0456
13545TIP3    H162126   3.377   6.128   3.816  0.1499 -1.2748 -0.6580
13545TIP3    H262127   3.504   6.081   3.750  1.6813  2.6914 -0.6473
13546TIP3   OH262128   0.354   6.505   5.339  0.1319  0.1583 -0.0344
13546TIP3    H162129   0.356   6.537   5.248  0.8351  1.3983  0.4042
13546TIP3    H262130   0.324   6.580   5.390 -0.5919 -0.6422  0.7316
13547TIP3   OH262131   4.914   2.369  16.261 -0.4369 -0.2015 -0.2618
13547TIP3    H162132   4.922   2.453  16.215 -1.4923  0.1942  0.2761
13547TIP3    H262133   4.891   2.392  16.350  0.7765 -1.0162  0.2802
13548TIP3   OH262134   2.380   2.886  10.826 -0.3933  0.1059 -0.0382
13548TIP3    H162135   2.364   2.824  10.755 -2.0293 -1.0291  1.2694
13548TIP3    H262136   2.293   2.922  10.846 -0.2336 -0.7744  2.4210
13549TIP3   OH262137   4.590   4.591  13.282 -0.2388  0.3255 -0.3331
13549TIP3    H162138   4.624   4.614  13.368 -1.3029  1.9231 -0.3309
13549TIP3    H262139   4.582   4.674  13.236 -0.5602 -0.4259 -1.6562
13550TIP3   OH262140   4.055   4.372   3.264  0.0880 -0.0760 -0.0308
13550TIP3    H162141   4.075   4.383   3.357  0.3017  0.5165 -0.1433
13550TIP3    H262142   4.040   4.461   3.232  1.5666 -0.1262 -0.8978
13551TIP3   OH262143   4.306   1.475   3.634  0.6961 -0.2470 -0.0319
13551TIP3    H162144   4.397   1.469   3.603  0.4825 -0.3724 -0.6429
13551TIP3    H262145   4.287   1.388   3.669 -0.3989 -1.4045 -3.3052
13552TIP3   OH262146   4.416   0.024  16.169 -0.0073 -0.5262  0.0204
13552TIP3    H162147   4.383  -0.006  16.085  0.2280 -1.3028  0.1941
13552TIP3    H262148   4.341   0.065  16.212  0.3795  1.6656 -1.3830
13553TIP3   OH262149   4.532   3.145   3.246  0.2558 -0.7062 -0.1717
13553TIP3    H162150   4.614   3.186   3.274  0.2857 -0.4558 -0.6223
13553TIP3    H262151   4.558   3.084   3.178 -0.0006 -0.1848 -0.7447
13554TIP3   OH262152   3.845   3.771   5.682 -0.0860  0.2229  0.0360
13554TIP3    H162153   3.922   3.786   5.737 -0.1109  0.3719  0.0304
13554TIP3    H262154   3.820   3.858   5.650  0.6459  0.0028 -1.1770
13555TIP3   OH262155   5.741   5.548   5.946  0.3551 -0.3150 -0.0731
13555TIP3    H162156   5.674   5.530   6.011  0.1460 -1.8231 -0.6781
13555TIP3    H262157   5.818   5.574   5.996 -1.0967  2.9528  0.5722
13556TIP3   OH262158   4.088   6.483  11.263  0.0280  0.5879 -0.3776
13556TIP3    H162159   4.066   6.574  11.244 -0.4068  0.6885  0.5651
13556TIP3    H262160   4.025   6.457  11.331 -0.6289 -0.7761 -1.4906
13557TIP3   OH262161   1.196   1.422   3.500  0.1124 -0.3015  0.1596
13557TIP3    H162162   1.137   1.347   3.505 -0.3871 -0.0450 -1.3472
13557TIP3    H262163   1.284   1.385   3.497 -0.1220 -0.8197 -0.3001
13558TIP3   OH262164   0.359   6.190   2.028  0.3712  0.0407 -0.0493
13558TIP3    H162165   0.276   6.233   2.050 -0.2650 -2.3118  2.3798
13558TIP3    H262166   0.355   6.178   1.933 -0.1247  3.8014 -0.6055
13559TIP3   OH262167   3.433   0.385   2.486  0.1310  0.7880 -0.1057
13559TIP3    H162168   3.432   0.295   2.517 -1.6463  1.4071  1.7925
13559TIP3    H262169   3.438   0.438   2.565  0.4930  2.3750 -1.1605
13560TIP3   OH262170   6.620   3.062  13.201 -0.2457  0.5114 -0.1660
13560TIP3    H162171   6.598   3.135  13.143  0.3151  0.8945  0.1048
13560TIP3    H262172   6.554   2.995  13.180  0.9561 -0.0149 -2.4762
13561TIP3   OH262173   2.147   0.949  11.198 -0.8317  0.1070 -0.2567
13561TIP3    H162174   2.143   1.044  11.214 -3.0570 -0.1314  0.9367
13561TIP3    H262175   2.226   0.920  11.244 -0.4619  1.2926 -0.1226
13562TIP3   OH262176   5.190   0.274  11.301 -0.5279  0.3645  0.3122
13562TIP3    H162177   5.173   0.181  11.291 -0.3255  0.5304 -1.6709
13562TIP3    H262178   5.285   0.280  11.312 -0.4918  0.3904 -0.0402
13563TIP3   OH262179   6.109   5.820   0.101  0.5336 -0.1253 -0.5080
13563TIP3    H162180   6.049   5.802   0.028 -0.7694  1.5507  0.1169
13563TIP3    H262181   6.155   5.737   0.115 -1.4128 -1.3656 -1.2117
13564TIP3   OH262182   0.479   6.817   6.269 -0.1963  0.1661 -0.2246
13564TIP3    H162183   0.469   6.900   6.222  0.5856 -0.7339 -2.0150
13564TIP3    H262184   0.389   6.787   6.284 -0.4812  1.2484  0.3068
13565TIP3   OH262185   2.885   0.330   1.860 -0.1433  0.0343 -0.0685
13565TIP3    H162186   2.826   0.306   1.931 -0.4834 -0.3832 -0.4869
13565TIP3    H262187   2.924   0.413   1.887  0.4728 -0.6076  1.0535
13566TIP3   OH262188   1.315   1.326   3.037 -0.0043 -1.2023 -0.2124
13566TIP3    H162189   1.399   1.305   2.997  0.0063 -1.0121 -0.2888
13566TIP3    H262190   1.313   1.274   3.117 -0.0638 -1.6530 -0.5018
13567TIP3   OH262191   6.316   5.950   2.257  0.2516  0.0808 -0.2277
13567TIP3    H162192   6.387   5.889   2.275  0.6815  0.5950 -0.1445
13567TIP3    H262193   6.338   5.989   2.173  0.4681  0.7928  0.1509
13568TIP3   OH262194   1.953   5.119  16.877 -0.2669  0.5817  0.8687
13568TIP3    H162195   2.007   5.189  16.914  0.5184  1.6395 -2.0630
13568TIP3    H262196   1.910   5.160  16.801 -1.4099 -1.5618  0.3166
13569TIP3   OH262197   6.256   6.566   0.453  0.0772  0.0172  0.1452
13569TIP3    H162198   6.202   6.565   0.533  1.0188 -0.1047  0.7887
13569TIP3    H262199   6.219   6.497   0.398 -0.5425  0.0602  0.4991
13570TIP3   OH262200   0.349   0.140   2.490  0.5703 -0.4784  0.0420
13570TIP3    H162201   0.409   0.067   2.475  0.0076 -0.8422 -0.4467
13570TIP3    H262202   0.373   0.205   2.424 -0.3233 -1.0970 -0.9139
13571TIP3   OH262203   0.855   4.328   0.229 -0.3999 -0.4402  0.0109
13571TIP3    H162204   0.857   4.285   0.143 -2.7364  0.4731 -0.5353
13571TIP3    H262205   0.843   4.256   0.291 -1.0201 -0.9046 -0.6323
13572TIP3   OH262206   2.148   5.443   0.428 -0.1137 -0.0742 -0.1223
13572TIP3    H162207   2.056   5.449   0.454 -0.3013 -1.6477 -0.3754
13572TIP3    H262208   2.149   5.467   0.336 -0.5919 -2.0206 -0.6636
13573TIP3   OH262209   1.187   6.458   4.299 -0.1428 -0.5107  0.1189
13573TIP3    H162210   1.245   6.430   4.229 -0.1675 -1.3787  0.4461
13573TIP3    H262211   1.100   6.462   4.258  0.1138  0.6651 -0.3363
13574TIP3   OH262212   0.070   0.720   3.316  0.2341 -0.3104  0.5661
13574TIP3    H162213  -0.008   0.702   3.368 -0.2719 -0.5824 -0.2654
13574TIP3    H262214   0.053   0.806   3.278 -0.2631 -0.9373 -0.6695
13575TIP3   OH262215   2.709   3.065  17.164 -0.3246  0.1950  0.6949
13575TIP3    H162216   2.783   3.124  17.164 -0.4271  0.3442 -0.6173
13575TIP3    H262217   2.741   2.986  17.121 -0.8532  0.1612  0.3592
13576TIP3   OH262218   2.363   6.586  10.695 -0.8333  0.3117  0.4353
13576TIP3    H162219   2.319   6.633  10.624 -0.4742 -0.7104 -0.4810
13576TIP3    H262220   2.292   6.543  10.742 -0.7393 -2.8976 -2.1792
13577TIP3   OH262221   4.793   1.558   1.705 -0.0445 -0.6883  0.1369
13577TIP3    H162222   4.720   1.564   1.643 -0.1400  2.3270  0.4751
13577TIP3    H262223   4.754   1.523   1.785 -0.6533 -1.2557 -0.4082
13578TIP3   OH262224   6.689   1.996   6.097 -0.1183 -0.3498 -0.5029
13578TIP3    H162225   6.698   2.091   6.104 -2.4490 -0.1069 -0.5617
13578TIP3    H262226   6.681   1.979   6.003  1.9373 -0.7833 -0.6198
13579TIP3   OH262227   3.690   2.066  15.500  0.2165 -0.1832 -0.2762
13579TIP3    H162228   3.717   2.088  15.589  1.0858 -2.4661  0.0667
13579TIP3    H262229   3.763   2.096  15.445  0.0622  0.4559 -0.1312
13580TIP3   OH262230   5.464   5.311   2.355 -0.3449  0.6317  1.2118
13580TIP3    H162231   5.385   5.361   2.375 -0.6659  0.2054  1.0150
13580TIP3    H262232   5.512   5.366   2.293  1.2015  2.4844  3.9263
13581TIP3   OH262233   1.302   2.645  14.999 -0.3435  0.0297 -0.2158
13581TIP3    H162234   1.264   2.578  14.942 -1.4616  1.2814 -0.9758
13581TIP3    H262235   1.396   2.643  14.980 -0.3057 -1.6199  0.1074
13582TIP3   OH262236   5.609   3.229  15.421 -0.3688  0.7836  0.5749
13582TIP3    H162237   5.699   3.220  15.393 -0.7730  0.7170 -0.7298
13582TIP3    H262238   5.611   3.300  15.486  1.0433 -1.1573  2.7127
13583TIP3   OH262239   4.328   0.562  13.210  0.6560  0.3996  0.1965
13583TIP3    H162240   4.342   0.547  13.304 -0.5403  1.5690  0.5605
13583TIP3    H262241   4.261   0.498  13.186  1.6317 -0.5362 -0.0745
13584TIP3   OH262242   3.578   2.332  11.731 -0.1679  0.3906 -0.1878
13584TIP3    H162243   3.521   2.408  11.723 -1.0071 -0.0940  0.9972
13584TIP3    H262244   3.596   2.305  11.641 -1.3492  0.8828 -0.5819
13585TIP3   OH262245   0.897   4.119   0.697  0.0718  0.1189 -0.0063
13585TIP3    H162246   0.980   4.162   0.718 -0.6035  2.0395 -1.1017
13585TIP3    H262247   0.880   4.143   0.606 -1.5251 -0.5207  0.1080
13586TIP3   OH262248   6.213   5.998  11.932  0.2041  0.0525  0.2162
13586TIP3    H162249   6.291   6.022  11.882 -0.5458 -0.7858 -1.4085
13586TIP3    H262250   6.156   6.076  11.927  0.6869  0.4561  0.9180
13587TIP3   OH262251   0.810   0.106  14.729  0.5725 -0.2182 -0.2791
13587TIP3    H162252   0.754   0.055  14.787  2.7905 -0.5768  1.6173
13587TIP3    H262253   0.815   0.054  14.648 -0.9143 -0.6961 -0.0750
13588TIP3   OH262254   3.579   5.819  13.025 -0.4330 -0.5958 -0.7413
13588TIP3    H162255   3.517   5.810  13.097 -0.4808  0.7246 -0.6084
13588TIP3    H262256   3.565   5.742  12.971 -1.9893 -0.4513 -0.5588
13589TIP3   OH262257   2.584   1.300   5.081 -0.1089 -0.3576  0.2118
13589TIP3    H162258   2.561   1.384   5.120  0.1103 -0.7706  1.2509
13589TIP3    H262259   2.659   1.320   5.025 -0.7363  0.3293 -0.3881
13590TIP3   OH262260   1.103   2.829  15.018 -0.5938  0.6473  0.2475
13590TIP3    H162261   1.153   2.902  15.055 -0.7539 -0.2705  2.3970
13590TIP3    H262262   1.169   2.761  15.002 -0.8618  0.1339  1.2639
13591TIP3   OH262263   2.689   0.947  16.830 -0.2062  0.1170  0.5862
13591TIP3    H162264   2.622   0.943  16.762  0.4323 -1.2271  0.0190
13591TIP3    H262265   2.693   0.859  16.866 -1.8674  1.2678  3.7188
13592TIP3   OH262266   1.269   2.450   5.879  0.4924  0.5832 -0.3701
13592TIP3    H162267   1.308   2.534   5.853  0.8863  0.8139  0.9248
13592TIP3    H262268   1.251   2.460   5.973 -2.7867  0.5227 -0.9337
13593TIP3   OH262269   4.577   2.863   3.828  0.4077  0.0099 -0.3598
13593TIP3    H162270   4.519   2.933   3.855 -0.6803 -0.6003 -1.0383
13593TIP3    H262271   4.523   2.808   3.770  1.5524 -0.7638 -0.7269
13594TIP3   OH262272   0.829   6.573  11.020  0.1378  0.5617  0.2040
13594TIP3    H162273   0.925   6.568  11.013  0.1871  1.4733  0.0976
13594TIP3    H262274   0.799   6.585  10.931 -0.0865  0.1989  0.2296
13595TIP3   OH262275   3.922   3.443   2.193 -0.5557  0.5668 -0.4634
13595TIP3    H162276   3.878   3.362   2.166 -0.5486  0.3017  0.3080
13595TIP3    H262277   4.015   3.426   2.177 -0.4221 -0.0775  0.9440
13596TIP3   OH262278   1.340   0.176  16.310 -0.4859  0.2967 -0.8024
13596TIP3    H162279   1.378   0.129  16.384 -0.4338  2.2081  0.4146
13596TIP3    H262280   1.410   0.178  16.244 -0.1208 -0.3381 -0.4344
13597TIP3   OH262281   3.949   4.332   4.127 -0.4709 -0.2892 -0.5901
13597TIP3    H162282   3.864   4.298   4.097 -0.1358 -2.0437  0.3628
13597TIP3    H262283   3.926   4.398   4.193 -1.1054 -1.2786  0.1984
13598TIP3   OH262284   6.516   5.723   0.299  0.2983 -0.2187  0.1403
13598TIP3    H162285   6.451   5.680   0.354 -1.1493  1.0018 -0.5864
13598TIP3    H262286   6.524   5.665   0.223 -0.3913 -0.0711 -0.0485
13599TIP3   OH262287   4.044   2.752   0.487 -0.0054  0.3343 -0.2030
13599TIP3    H162288   4.110   2.698   0.530  1.3588  1.6666 -0.6072
13599TIP3    H262289   3.990   2.786   0.558  0.0268 -0.3905  0.1648
13600TIP3   OH262290   1.895   1.353  14.155  0.2218  0.3099 -0.3966
13600TIP3    H162291   1.937   1.324  14.074  1.4517  0.4693  0.1774
13600TIP3    H262292   1.876   1.272  14.202 -0.8145  0.1988 -0.9975
13601TIP3   OH262293   1.736   6.527  13.427 -0.2118 -0.0771 -0.1152
13601TIP3    H162294   1.692   6.498  13.347  1.2882 -2.2381 -0.2086
13601TIP3    H262295   1.828   6.538  13.402  0.3528 -1.1576  1.3782
13602TIP3   OH262296   2.276   0.187  15.931  0.3446 -0.6043 -0.2388
13602TIP3    H162297   2.238   0.121  15.989 -1.4838  1.1569  0.6688
13602TIP3    H262298   2.280   0.145  15.846  1.3958 -2.6449  0.7909
13603TIP3   OH262299   5.144   1.843  14.347 -0.3883  0.1685  0.1573
13603TIP3    H162300   5.226   1.827  14.393  0.0016  0.0693 -0.5552
13603TIP3    H262301   5.131   1.937  14.353  0.8399  0.4810 -1.4414
13604TIP3   OH262302   3.139   5.501   2.108 -0.1838  0.2512 -0.7928
13604TIP3    H162303   3.070   5.453   2.155  1.3636  0.0297  1.3342
13604TIP3    H262304   3.098   5.529   2.027 -2.5870 -0.4577  0.1392
13605TIP3   OH262305   3.799   6.404  14.843  0.3199 -0.2906  0.0390
13605TIP3    H162306   3.723   6.402  14.786  1.0782 -0.8415 -0.9622
13605TIP3    H262307   3.838   6.317  14.836  2.3277  0.6655 -1.2162
13606TIP3   OH262308   2.396   3.640   0.251 -0.6484  0.4354 -0.2203
13606TIP3    H162309   2.338   3.666   0.323 -0.9000 -0.1952 -0.1888
13606TIP3    H262310   2.427   3.553   0.277  1.8068  1.5365  0.6846
13607TIP3   OH262311   2.365   3.281  12.949 -0.8496 -0.3031 -0.0332
13607TIP3    H162312   2.416   3.341  12.895 -0.5487 -0.8289 -0.3421
13607TIP3    H262313   2.277   3.284  12.912 -0.4029 -1.4644 -1.2444
13608TIP3   OH262314   5.929   1.039  14.341 -0.1638 -0.0449 -0.4395
13608TIP3    H162315   5.849   1.067  14.297  0.1839  0.4846 -0.7347
13608TIP3    H262316   5.972   1.120  14.367  0.0199 -0.3402  0.1880
13609TIP3   OH262317   2.838   2.752  14.908 -0.1986  0.4538 -0.1148
13609TIP3    H162318   2.798   2.694  14.843 -0.5699  1.5547 -0.9062
13609TIP3    H262319   2.764   2.797  14.948  0.0453 -0.1174  0.9791
13610TIP3   OH262320   6.259   6.730  14.826  0.0594  0.1497  0.0676
13610TIP3    H162321   6.334   6.790  14.822  0.2912 -0.1886 -0.8181
13610TIP3    H262322   6.298   6.643  14.821 -0.3274 -0.0591  0.6698
13611TIP3   OH262323   3.889   0.905  12.326  0.1322 -0.4058  0.2103
13611TIP3    H162324   3.840   0.957  12.389  0.3757  1.4450 -1.1028
13611TIP3    H262325   3.831   0.899  12.250  2.0600  2.2344 -1.5546
13612TIP3   OH262326   4.433   6.378  12.554  0.0469 -0.2905  0.1806
13612TIP3    H162327   4.518   6.410  12.522 -0.2823 -0.5956 -1.0385
13612TIP3    H262328   4.391   6.342  12.476 -1.3911  0.2600  0.6928
13613TIP3   OH262329   5.687   1.028  11.966 -0.6267  0.0471 -0.1552
13613TIP3    H162330   5.764   0.976  11.944 -0.7699 -0.6316  0.8932
13613TIP3    H262331   5.683   1.096  11.898  1.3146  0.5554  0.2182
13614TIP3   OH262332   2.454   5.121   6.235 -0.1250 -0.8320  0.1107
13614TIP3    H162333   2.463   5.031   6.204  1.3998 -0.5566 -0.3165
13614TIP3    H262334   2.543   5.145   6.262 -0.7784  0.0883  1.4916
13615TIP3   OH262335   3.324   1.941  14.019  0.0227 -0.0515  0.2650
13615TIP3    H162336   3.318   1.980  13.931  0.4177  1.0391  0.7130
13615TIP3    H262337   3.411   1.966  14.050 -0.4454  0.2821  1.3078
13616TIP3   OH262338   6.419   6.812  16.679  0.0405  0.2548  0.4474
13616TIP3    H162339   6.481   6.787  16.610 -1.0108 -0.6298 -0.1918
13616TIP3    H262340   6.461   6.782  16.760  0.2659 -0.7295 -0.0174
13617TIP3   OH262341   4.119   5.021  11.483 -0.1372 -0.6881  0.0141
13617TIP3    H162342   4.138   4.957  11.415 -1.3500  0.1519 -1.1333
13617TIP3    H262343   4.036   4.993  11.521 -1.8418  1.3887 -2.0087
13618TIP3   OH262344   6.122   2.249  11.453  0.0195 -0.7823  0.0532
13618TIP3    H162345   6.127   2.282  11.543 -2.7381 -1.0373  0.3223
13618TIP3    H262346   6.050   2.297  11.413  1.8311  0.0420 -2.3774
13619TIP3   OH262347   6.729   4.202  15.132 -0.2498 -0.4852  0.4413
13619TIP3    H162348   6.702   4.113  15.113  2.0128 -1.3849  1.1991
13619TIP3    H262349   6.671   4.257  15.080 -0.2526 -2.4742 -1.7318
13620TIP3   OH262350   5.685   4.562  12.139  0.4479  0.0373 -0.0702
13620TIP3    H162351   5.771   4.533  12.171  1.6112  0.0914 -3.0418
13620TIP3    H262352   5.623   4.500  12.178  2.1602 -2.0570 -0.5759
13621TIP3   OH262353   4.573   1.338  13.823  0.0573 -0.3738 -0.4146
13621TIP3    H162354   4.593   1.249  13.850 -0.3139 -1.1277 -2.5718
13621TIP3    H262355   4.478   1.346  13.832  0.1568 -0.0024  0.3313
13622TIP3   OH262356   1.898   4.397   1.274  0.7160 -0.2469  0.4800
13622TIP3    H162357   1.825   4.340   1.298  0.3403 -0.1173 -0.3433
13622TIP3    H262358   1.914   4.378   1.182  0.5012  1.0620  0.1630
13623TIP3   OH262359   3.138   2.940  12.836  0.0615  0.1779  0.1114
13623TIP3    H162360   3.226   2.922  12.802 -0.3687 -0.4591 -0.6799
13623TIP3    H262361   3.111   3.020  12.792 -1.4322 -1.8992 -2.8904
13624TIP3   OH262362   3.755   1.744  13.662 -0.0199  0.2656  0.2864
13624TIP3    H162363   3.724   1.800  13.734  0.3803  1.4088 -0.4151
13624TIP3    H262364   3.850   1.749  13.667  0.1400 -3.0399  2.2747
13625TIP3   OH262365   3.320   3.404   0.393 -0.3221  0.0681  0.1524
13625TIP3    H162366   3.354   3.436   0.476 -0.3043  0.9816 -0.2036
13625TIP3    H262367   3.233   3.370   0.414 -0.5574  0.8444  0.4395
13626TIP3   OH262368   2.289   4.152   3.241  0.2085 -0.0404 -0.4224
13626TIP3    H162369   2.381   4.170   3.220  0.2114  0.0945 -0.2909
13626TIP3    H262370   2.283   4.057   3.243  0.6952 -0.0423  1.1495
13627TIP3   OH262371   6.820   6.720  11.124 -0.5522  0.1477 -0.3252
13627TIP3    H162372   6.834   6.774  11.202  1.6248 -1.1179  0.2052
13627TIP3    H262373   6.877   6.758  11.058  1.6121 -1.9556  0.2967
13628TIP3   OH262374   6.802   3.969  16.951 -0.1397 -0.1754 -0.3393
13628TIP3    H162375   6.842   4.050  16.920 -0.2357  0.2701  0.6829
13628TIP3    H262376   6.742   3.943  16.881  0.1543  0.4431 -0.8244
13629TIP3   OH262377   6.464   0.732  15.275  0.2187  0.3053  0.1388
13629TIP3    H162378   6.451   0.742  15.180 -0.2650 -0.3326  0.1325
13629TIP3    H262379   6.455   0.638  15.290 -0.8206  0.5267  0.9774
13630TIP3   OH262380   0.717   2.701  10.418 -0.1139 -0.1634  0.2648
13630TIP3    H162381   0.707   2.769  10.352 -1.5403 -1.3272 -0.7375
13630TIP3    H262382   0.639   2.647  10.410  0.6123 -1.4618  1.5915
13631TIP3   OH262383   1.393   6.117  16.650  0.3733  0.2322 -0.3899
13631TIP3    H162384   1.443   6.155  16.578  2.8048  0.1185  1.1666
13631TIP3    H262385   1.457   6.062  16.697 -1.6281 -1.1802  0.7430
13632TIP3   OH262386   5.281   5.151  12.810  0.4158  0.3234 -0.2998
13632TIP3    H162387   5.200   5.195  12.836  0.7390 -0.2870  1.8565
13632TIP3    H262388   5.261   5.057  12.818  0.8795  0.1445 -1.1874
13633TIP3   OH262389   0.097   1.085   4.365 -0.4071  0.1511 -0.1673
13633TIP3    H162390   0.176   1.035   4.383 -0.2709  0.8605  1.2977
13633TIP3    H262391   0.127   1.176   4.363 -0.9274  0.3058 -1.1412
13634TIP3   OH262392   4.215   0.432   4.828  0.4585  1.0616  0.0096
13634TIP3    H162393   4.247   0.521   4.815  2.4335  0.1546 -1.5840
13634TIP3    H262394   4.216   0.394   4.740  0.5161 -0.8067  0.8090
13635TIP3   OH262395   0.691   2.113  15.462 -0.2298 -0.0352  0.1208
13635TIP3    H162396   0.643   2.144  15.538 -1.7734 -1.3827 -0.2749
13635TIP3    H262397   0.664   2.171  15.391 -2.6415 -1.7845 -0.4790
13636TIP3   OH262398   2.889   2.466  14.136 -0.0846 -0.7046  0.3012
13636TIP3    H162399   2.966   2.487  14.188  0.8430 -0.8504 -1.0081
13636TIP3    H262400   2.920   2.408  14.067 -1.2832 -0.4391 -0.4870
13637TIP3   OH262401   5.876   3.832  13.455  0.1041 -0.2475 -0.0857
13637TIP3    H162402   5.883   3.830  13.359 -0.2118  1.1817 -0.1498
13637TIP3    H262403   5.787   3.801  13.473  0.7660 -2.2457 -0.1471
13638TIP3   OH262404   6.745   4.679   4.730 -0.7126 -0.3898  0.3332
13638TIP3    H162405   6.715   4.728   4.807 -2.2875 -2.2420  0.9423
13638TIP3    H262406   6.710   4.591   4.743  1.4387 -1.4876 -1.1021
13639TIP3   OH262407   4.485   1.787  12.196  0.0132 -0.0816 -0.2383
13639TIP3    H162408   4.509   1.739  12.276 -0.2073  0.4094  0.1213
13639TIP3    H262409   4.390   1.786  12.196  0.0151 -0.5258 -0.7649
13640TIP3   OH262410   6.201   2.317  10.254  0.4495 -0.3745 -0.7276
13640TIP3    H162411   6.245   2.365  10.325  1.0042 -0.9685 -0.6718
13640TIP3    H262412   6.246   2.233  10.250 -1.2370 -1.3306 -0.1088
13641TIP3   OH262413   5.550   6.473   0.221 -0.0320 -0.1190  0.2920
13641TIP3    H162414   5.487   6.427   0.276 -0.1962 -1.5934 -1.0769
13641TIP3    H262415   5.548   6.426   0.137  1.2178  1.2106 -0.5193
13642TIP3   OH262416   5.417   4.048  12.058 -0.1360 -0.5064  0.3420
13642TIP3    H162417   5.360   4.106  12.006  0.4331 -0.6457 -0.4410
13642TIP3    H262418   5.473   4.005  11.994  1.6551  0.4849  1.1823
13643TIP3   OH262419   4.913   5.622  11.613 -0.1418  0.8146 -0.2591
13643TIP3    H162420   4.875   5.561  11.550  0.2453 -0.5904  0.8331
13643TIP3    H262421   4.977   5.569  11.660 -0.0314  2.0021  0.9280
13644TIP3   OH262422   3.436   3.065   6.832  0.5429 -0.0859 -0.3318
13644TIP3    H162423   3.495   3.035   6.901  4.8704  1.2115 -3.2389
13644TIP3    H262424   3.441   2.996   6.765  0.0326  0.8098 -1.3089
13645TIP3   OH262425   3.116   2.407  16.232 -0.3207  0.0657  0.3374
13645TIP3    H162426   3.047   2.448  16.180 -0.4928  0.1069  0.5973
13645TIP3    H262427   3.093   2.314  16.233 -0.1914  0.0289  0.1490
13646TIP3   OH262428   2.848   3.676  16.735 -0.4140 -0.4011  0.6992
13646TIP3    H162429   2.795   3.756  16.738 -0.5568 -0.5382  1.9619
13646TIP3    H262430   2.926   3.696  16.787  0.1040 -0.6900  0.0412
13647TIP3   OH262431   1.649   1.497  14.062 -0.4400 -0.0023  0.3111
13647TIP3    H162432   1.585   1.453  14.118 -0.9770  0.2794 -0.0780
13647TIP3    H262433   1.732   1.452  14.080 -0.7729 -0.4511  0.7242
13648TIP3   OH262434   4.066   6.029  16.635  0.3044 -0.6792  0.1373
13648TIP3    H162435   4.068   6.017  16.540 -1.7448  1.5584 -0.2264
13648TIP3    H262436   4.140   6.088  16.653 -1.0984  1.2996 -0.4700
13649TIP3   OH262437   6.430   5.140   1.159  0.3345 -0.1091 -0.0798
13649TIP3    H162438   6.505   5.085   1.140 -1.7327 -2.3933 -1.9640
13649TIP3    H262439   6.386   5.097   1.232 -1.5327 -1.2803 -1.8395
13650TIP3   OH262440   3.089   4.278   5.517  0.4067 -0.2949 -0.2916
13650TIP3    H162441   3.148   4.209   5.484  2.7238 -0.0777  3.1657
13650TIP3    H262442   3.026   4.231   5.571  0.8043  0.0405  0.4777
13651TIP3   OH262443   5.717   0.256  11.323  0.1191 -0.3994  0.1006
13651TIP3    H162444   5.774   0.206  11.264 -0.6644 -0.3197 -0.7334
13651TIP3    H262445   5.773   0.326  11.357  0.3896 -0.0280 -1.0882
13652TIP3   OH262446   6.390   5.511   2.249  0.1802  0.0349 -0.0672
13652TIP3    H162447   6.396   5.521   2.344  1.7418 -0.5575 -0.0854
13652TIP3    H262448   6.426   5.593   2.214  0.0166  0.0689 -0.1606
13653TIP3   OH262449   4.166   3.124   3.759 -0.0814  0.2229  0.2310
13653TIP3    H162450   4.137   3.033   3.754  1.5843 -0.2729 -1.1272
13653TIP3    H262451   4.259   3.118   3.782  0.2340  1.5420 -0.6651
13654TIP3   OH262452   1.316   1.315   5.216  0.3089 -0.0011  0.7095
13654TIP3    H162453   1.279   1.342   5.132  2.1248  2.1251  0.5411
13654TIP3    H262454   1.261   1.359   5.281  1.0061  1.1887  0.5196
13655TIP3   OH262455   1.281   4.681   2.205 -0.0931  0.7764 -0.5221
13655TIP3    H162456   1.225   4.638   2.269  1.9957 -2.6080 -0.8127
13655TIP3    H262457   1.290   4.616   2.134 -1.0345  3.7733 -3.5093
13656TIP3   OH262458   2.860   1.369  17.134  0.6340  0.0816 -0.1233
13656TIP3    H162459   2.856   1.407  17.047  0.3359  1.0067  0.2891
13656TIP3    H262460   2.820   1.283  17.125  0.8502  0.0679 -0.9552
13657TIP3   OH262461   3.021   5.593  13.315  0.0525  0.0282 -0.6218
13657TIP3    H162462   2.941   5.543  13.299 -0.1258  0.2860 -0.5402
13657TIP3    H262463   2.990   5.677  13.349  0.4050 -0.2641  0.4348
13658TIP3   OH262464   5.228   0.498  16.042  0.4877 -0.3781  0.3603
13658TIP3    H162465   5.220   0.591  16.063 -0.1435  0.1701 -2.1086
13658TIP3    H262466   5.276   0.496  15.959  1.3720 -2.3138  0.8927
13659TIP3   OH262467   3.309   5.454  15.332  0.6653 -0.0077 -0.0618
13659TIP3    H162468   3.285   5.546  15.336  1.3720  0.2484 -1.3611
13659TIP3    H262469   3.279   5.417  15.415 -1.1171  1.0262 -0.2155
13660TIP3   OH262470   4.789   1.192   2.454  0.0783  0.1887  0.2052
13660TIP3    H162471   4.711   1.238   2.486  0.0896  0.5897 -0.3429
13660TIP3    H262472   4.855   1.261   2.443 -0.2608  0.2407 -1.7440
13661TIP3   OH262473   6.536   6.464   0.370 -0.0068  0.3105  0.0650
13661TIP3    H162474   6.578   6.498   0.449 -0.0765 -1.9192  1.1159
13661TIP3    H262475   6.507   6.376   0.395 -2.7622  0.7275 -1.5281
13662TIP3   OH262476   2.971   1.815   2.101  0.0904 -0.1985 -0.5067
13662TIP3    H162477   3.052   1.785   2.059 -0.1958  0.2649 -1.3972
13662TIP3    H262478   2.978   1.910   2.104  0.6007 -0.2649  1.5350
13663TIP3   OH262479   4.596   3.770  14.982  0.1939 -0.1664  0.1305
13663TIP3    H162480   4.606   3.819  15.064  0.7476 -0.1807  0.0709
13663TIP3    H262481   4.550   3.690  15.008  0.9626 -0.4766  0.5394
13664TIP3   OH262482   3.282   0.235  17.033 -0.2042  0.3073 -0.0255
13664TIP3    H162483   3.279   0.143  17.007  0.8139 -0.2353  1.7128
13664TIP3    H262484   3.366   0.267  17.000 -1.1451  1.0020 -1.8128
13665TIP3   OH262485   0.869   0.273   1.720 -0.1756 -0.4787  0.2196
13665TIP3    H162486   0.899   0.303   1.806 -1.7816 -1.0441  0.9852
13665TIP3    H262487   0.836   0.185   1.735  0.3584 -0.9272 -1.1610
13666TIP3   OH262488   6.751   4.360   2.051  0.4046  0.1007  0.1728
13666TIP3    H162489   6.731   4.267   2.042 -1.2343  0.6175 -1.9611
13666TIP3    H262490   6.790   4.384   1.966 -0.4585  1.6549  0.1950
13667TIP3   OH262491   6.489   1.560  16.962  0.5491  0.0610  0.3112
13667TIP3    H162492   6.511   1.482  16.911  0.2186 -1.0331  1.8187
13667TIP3    H262493   6.566   1.617  16.952 -0.5483  1.0018 -3.4764
13668TIP3   OH262494   0.284   6.151   1.772 -0.2648 -0.0617 -0.4010
13668TIP3    H162495   0.352   6.096   1.733  0.2202  0.1702  0.1132
13668TIP3    H262496   0.287   6.232   1.721  0.0869  0.0805 -0.1615
13669TIP3   OH262497   2.123   4.910  12.686  0.3853 -0.0581  0.0626
13669TIP3    H162498   2.172   4.992  12.680 -0.8774  0.7390  0.5123
13669TIP3    H262499   2.065   4.911  12.610  1.2094 -1.0986 -0.5858
13670TIP3   OH262500   3.186   0.188  14.492  0.3417  0.1519 -0.2340
13670TIP3    H162501   3.138   0.265  14.521  0.4272 -0.2707  1.0895
13670TIP3    H262502   3.278   0.215  14.491  0.1343  0.8588 -2.4324
13671TIP3   OH262503   5.339   4.517  12.136  0.5536 -0.1612 -0.0235
13671TIP3    H162504   5.309   4.603  12.107 -1.4465 -0.6811  0.4068
13671TIP3    H262505   5.355   4.468  12.055 -1.5956 -0.4684 -0.2881
13672TIP3   OH262506   2.470   2.012  15.711 -0.8274  0.5789  0.0405
13672TIP3    H162507   2.463   2.078  15.641 -1.1324  1.1125  0.5683
13672TIP3    H262508   2.380   1.998  15.739 -0.8373 -0.5769 -0.5266
13673TIP3   OH262509   3.331   1.720   4.485 -0.2242  0.5108  0.5967
13673TIP3    H162510   3.342   1.648   4.548 -0.9359  0.8874  1.1559
13673TIP3    H262511   3.358   1.798   4.533  0.2073  0.6747  0.0971
13674TIP3   OH262512   1.033   1.560   0.848 -0.5166 -0.0861 -0.0045
13674TIP3    H162513   1.085   1.571   0.928  1.1657 -1.7547 -0.8305
13674TIP3    H262514   0.982   1.481   0.864  0.2709 -0.7664 -0.7939
13675TIP3   OH262515   4.162   1.946  15.233  0.1719  0.0077  0.6495
13675TIP3    H162516   4.257   1.945  15.224  0.0509  0.4145 -0.8659
13675TIP3    H262517   4.142   1.870  15.287  1.1909 -1.5469 -1.0821
13676TIP3   OH262518   6.301   2.561   3.364 -0.1229 -0.3292  0.1874
13676TIP3    H162519   6.353   2.487   3.333  0.1160  0.0883 -0.4060
13676TIP3    H262520   6.318   2.563   3.459  2.5627  1.0371 -0.2601
13677TIP3   OH262521   0.334   5.371  17.130 -0.4160  0.3914  0.0079
13677TIP3    H162522   0.412   5.414  17.094 -0.2138  0.2111  0.2256
13677TIP3    H262523   0.297   5.322  17.057  0.7251 -1.0219  0.3580
13678TIP3   OH262524   5.289   2.719   1.609  0.1565  0.1906 -0.5101
13678TIP3    H162525   5.281   2.742   1.702  0.5721  1.3565 -0.7575
13678TIP3    H262526   5.283   2.624   1.608 -0.5053  0.2065  0.6504
13679TIP3   OH262527   5.118   6.764   2.993 -0.9244  0.4246  0.5178
13679TIP3    H162528   5.115   6.825   2.919  2.0683  2.0256  1.5899
13679TIP3    H262529   5.075   6.810   3.064 -2.3829 -0.4636  0.2278
13680TIP3   OH262530   2.394   0.868   2.454 -0.3836 -0.5207 -0.0552
13680TIP3    H162531   2.393   0.871   2.550 -0.5036 -0.3503 -0.0631
13680TIP3    H262532   2.316   0.819   2.430 -0.3701 -0.5364 -0.0673
13681TIP3   OH262533   0.213   2.436   2.949 -0.1746 -0.5563  0.5790
13681TIP3    H162534   0.260   2.462   2.869 -0.5479  0.5881  0.7255
13681TIP3    H262535   0.145   2.502   2.959  2.0425  1.3952  3.7806
13682TIP3   OH262536   3.719   2.802   1.372 -0.0597  0.1433 -0.2258
13682TIP3    H162537   3.686   2.862   1.305 -1.2078 -2.4605 -2.0705
13682TIP3    H262538   3.654   2.807   1.442 -1.1498 -0.2786 -1.1762
13683TIP3   OH262539   3.268   3.298   2.892  0.4197 -0.7709 -0.0726
13683TIP3    H162540   3.266   3.348   2.973 -0.8614 -0.4264 -0.3109
13683TIP3    H262541   3.359   3.305   2.862  0.7000 -0.2055  0.8880
13684TIP3   OH262542   2.831   4.963  16.211 -0.2907  0.7123  0.0334
13684TIP3    H162543   2.788   4.882  16.185 -1.0349  1.4721 -1.1231
13684TIP3    H262544   2.900   4.976  16.145  0.2012  0.7226  0.5449
13685TIP3   OH262545   0.488   5.962   4.478  0.1488 -0.1476  0.3369
13685TIP3    H162546   0.428   6.037   4.477  1.6462  1.1285  2.6972
13685TIP3    H262547   0.556   5.985   4.414 -0.8339 -0.7367 -0.9350
13686TIP3   OH262548   0.435   6.107  15.421 -0.4407 -0.5359  0.2184
13686TIP3    H162549   0.508   6.046  15.416 -2.9820 -3.5140 -2.2467
13686TIP3    H262550   0.366   6.059  15.467 -0.7432  2.4439  3.1224
13687TIP3   OH262551   6.214   3.523  11.102  0.1645  0.3493 -0.2869
13687TIP3    H162552   6.193   3.603  11.053  1.2151  2.1773  2.1088
13687TIP3    H262553   6.144   3.517  11.168 -0.4342 -1.2648 -1.0504
13688TIP3   OH262554   3.361   2.379   1.494  0.8814  0.5243 -0.1050
13688TIP3    H162555   3.403   2.386   1.579 -0.7482  0.9124  0.6859
13688TIP3    H262556   3.387   2.459   1.448 -0.7920  1.8625  1.2140
13689TIP3   OH262557   4.326   0.799  15.006  0.4372 -0.1138  0.3070
13689TIP3    H162558   4.381   0.876  15.020  0.3751 -0.0600  0.2559
13689TIP3    H262559   4.240   0.824  15.039  0.8465 -0.7626  1.8921
13690TIP3   OH262560   3.427   4.997  11.445 -0.3418 -0.0596  0.0777
13690TIP3    H162561   3.410   5.082  11.486 -1.7130  0.7605 -2.1358
13690TIP3    H262562   3.353   4.943  11.472 -0.1071 -0.1942  0.4633
13691TIP3   OH262563   5.809   6.767   1.001  0.3345  0.6887 -0.0407
13691TIP3    H162564   5.807   6.859   1.029  0.1284  0.9191 -0.8140
13691TIP3    H262565   5.854   6.722   1.073  0.2090  1.3486  0.4643
13692TIP3   OH262566   3.050   3.585  13.433  0.2370 -0.8480 -0.8052
13692TIP3    H162567   3.098   3.589  13.350 -0.1671 -2.0085 -1.1127
13692TIP3    H262568   2.957   3.581  13.407 -0.2303  3.8714 -0.1614
13693TIP3   OH262569   6.263   2.228   3.483 -0.4571 -0.0776  0.3308
13693TIP3    H162570   6.326   2.297   3.461  0.3202 -0.3514  1.6598
13693TIP3    H262571   6.291   2.153   3.429 -0.3100  0.1338  0.1113
13694TIP3   OH262572   0.693   4.807  16.381  0.5971 -0.0229  0.4507
13694TIP3    H162573   0.781   4.781  16.410  1.5174 -0.9321 -2.9759
13694TIP3    H262574   0.682   4.765  16.296 -2.4741  1.5759 -0.0127
13695TIP3   OH262575   1.427   2.050   4.316 -0.4436 -0.1753  0.5476
13695TIP3    H162576   1.487   2.045   4.391 -0.3598 -0.7123  0.4413
13695TIP3    H262577   1.340   2.038   4.354 -0.2238 -3.1152  0.2332
13696TIP3   OH262578   5.085   1.307  16.952  0.2125 -0.1659 -0.5200
13696TIP3    H162579   5.106   1.226  16.999  4.0469  0.9133 -0.1569
13696TIP3    H262580   5.077   1.279  16.860  0.9444 -1.0696 -0.3275
13697TIP3   OH262581   4.284   5.041  13.843  0.4694 -0.0872 -0.2523
13697TIP3    H162582   4.379   5.034  13.850  0.2294 -1.6161  2.2434
13697TIP3    H262583   4.251   4.968  13.895 -2.0874  1.7686  0.8422
13698TIP3   OH262584   6.195   6.782   5.823 -0.1249 -0.3745 -0.1875
13698TIP3    H162585   6.227   6.841   5.891 -0.8117 -0.4632  0.2187
13698TIP3    H262586   6.195   6.696   5.864 -3.0779 -0.0449  0.5990
13699TIP3   OH262587   3.715   4.647   4.132  0.4377  0.3327 -0.1382
13699TIP3    H162588   3.720   4.575   4.195 -0.9859  0.1463 -0.2049
13699TIP3    H262589   3.806   4.668   4.111  0.8766 -2.4607 -1.2767
13700TIP3   OH262590   2.023   0.082   1.001  0.1285  0.6887 -0.5177
13700TIP3    H162591   1.974   0.022   1.056  1.2324  0.1050 -0.1558
13700TIP3    H262592   1.958   0.121   0.943 -0.5645 -1.0951 -0.9761
13701TIP3   OH262593   3.713   0.676   1.977 -0.6994 -0.2136  0.2409
13701TIP3    H162594   3.698   0.697   2.069 -3.1189 -1.8349  0.2769
13701TIP3    H262595   3.787   0.614   1.978 -0.7455 -0.2532  1.0961
13702TIP3   OH262596   3.247   1.841  16.558  0.2701 -0.0310 -0.3348
13702TIP3    H162597   3.169   1.856  16.505 -1.0932  1.0951  1.8925
13702TIP3    H262598   3.301   1.919  16.543  0.6117 -0.4374 -1.2555
13703TIP3   OH262599   1.029   5.907   4.578 -0.2345  0.2313  0.9477
13703TIP3    H162600   1.091   5.976   4.556  1.8340 -1.8845 -0.0138
13703TIP3    H262601   0.973   5.899   4.501 -0.9835  1.3467  1.3647
13704TIP3   OH262602   5.035   3.414  13.088  0.3201  0.7343  0.0527
13704TIP3    H162603   4.985   3.460  13.021  3.0055  2.3408 -0.9071
13704TIP3    H262604   5.041   3.324  13.056  0.2612  1.1360 -1.0938
13705TIP3   OH262605   3.853   0.736   5.215  0.3577  0.0288  0.4334
13705TIP3    H162606   3.948   0.725   5.206  0.1851 -0.9416 -0.3179
13705TIP3    H262607   3.832   0.693   5.297  0.5751  0.2996  0.6321
13706TIP3   OH262608   3.827   6.322   3.794  0.0897  0.0718  0.0666
13706TIP3    H162609   3.777   6.318   3.875  0.1661  1.2807  0.1801
13706TIP3    H262610   3.811   6.237   3.752 -0.9605 -0.0788  0.7437
13707TIP3   OH262611   6.289   3.416  13.494  0.4783 -0.1897  0.2816
13707TIP3    H162612   6.273   3.324  13.474 -0.0861 -0.1142  0.3926
13707TIP3    H262613   6.246   3.464  13.423  0.2214  0.0104  0.5712
13708TIP3   OH262614   5.845   6.030   0.687  0.0467  0.6993  0.2456
13708TIP3    H162615   5.819   6.094   0.620 -0.6054  1.5370  1.2937
13708TIP3    H262616   5.816   6.067   0.770 -2.7873 -2.1834  0.6530
13709TIP3   OH262617   1.472   3.520   0.436  0.1763  0.1977  0.4182
13709TIP3    H162618   1.549   3.483   0.395 -0.1223  0.1347 -0.0897
13709TIP3    H262619   1.411   3.446   0.443 -0.0820  0.3928  0.2222
13710TIP3   OH262620   1.715   6.033  12.132 -0.0705  0.1531  0.2386
13710TIP3    H162621   1.719   6.120  12.092 -1.2357 -0.0930 -0.4126
13710TIP3    H262622   1.782   5.982  12.085  0.1719  0.5160  0.1875
13711TIP3   OH262623   3.761   2.990   4.449  0.1069 -0.3311 -0.5854
13711TIP3    H162624   3.670   2.978   4.474  0.0482  1.0504 -0.0691
13711TIP3    H262625   3.810   2.932   4.507 -0.3029  0.3487  0.4676
13712TIP3   OH262626   4.100   1.372   2.612  0.3107 -0.8601  0.0694
13712TIP3    H162627   4.170   1.315   2.581  0.1784 -1.2142  0.4140
13712TIP3    H262628   4.145   1.441   2.661  0.6741  0.7499 -2.4323
13713TIP3   OH262629   6.616   0.821   4.143  0.9483 -0.3431 -0.2841
13713TIP3    H162630   6.691   0.880   4.154  1.3403 -0.7583 -0.7260
13713TIP3    H262631   6.572   0.823   4.228  0.2227  1.5926 -0.6781
13714TIP3   OH262632   5.940   3.903  16.176 -0.1663  0.7060  0.2298
13714TIP3    H162633   5.910   3.881  16.264 -2.0293 -1.4975 -0.9179
13714TIP3    H262634   6.036   3.900  16.183 -0.2876  0.1818  2.0597
13715TIP3   OH262635   0.507   2.730   1.447 -0.2824  0.3952 -0.1338
13715TIP3    H162636   0.565   2.695   1.515 -1.5067  0.0313  0.7261
13715TIP3    H262637   0.561   2.730   1.368  0.8923  0.0422  0.6516
13716TIP3   OH262638   5.989   4.120  15.420 -0.0141  0.7298  0.2113
13716TIP3    H162639   6.060   4.184  15.410 -1.8379  2.5609 -1.8036
13716TIP3    H262640   5.934   4.157  15.489  0.4988 -0.1989  1.1149
13717TIP3   OH262641   5.295   4.491   4.055  0.0509  0.5030  0.1385
13717TIP3    H162642   5.292   4.530   4.142  0.4491 -1.3226  0.9918
13717TIP3    H262643   5.209   4.450   4.044  0.5614 -0.6443  0.3410
13718TIP3   OH262644   2.771   1.603   5.072 -0.3762 -0.3018 -0.0468
13718TIP3    H162645   2.788   1.518   5.033 -1.8075 -0.9811  0.7325
13718TIP3    H262646   2.857   1.637   5.096  0.5669  0.3489 -4.1295
13719TIP3   OH262647   1.333   1.800  13.603 -0.0163  0.0129  0.2238
13719TIP3    H162648   1.346   1.877  13.549  0.4483  0.3455  0.7997
13719TIP3    H262649   1.322   1.728  13.541  1.2228  0.2797 -0.3248
13720TIP3   OH262650   4.299   2.104  12.599 -0.1928 -0.1934 -0.3897
13720TIP3    H162651   4.315   2.193  12.568 -1.1440  0.2020  0.2326
13720TIP3    H262652   4.351   2.096  12.679 -2.6791  0.9375  1.3805
13721TIP3   OH262653   5.926   3.452  11.936  0.3403 -0.7467  0.0253
13721TIP3    H162654   5.995   3.453  12.002  1.2393 -1.3787 -0.8925
13721TIP3    H262655   5.911   3.544  11.916  1.5070 -0.6307 -0.3630
13722TIP3   OH262656   4.558   0.708  13.281 -0.2363 -0.5270  0.0520
13722TIP3    H162657   4.491   0.714  13.214  1.3012  0.4464 -1.4644
13722TIP3    H262658   4.622   0.645  13.247  1.2609  1.0136 -0.0989
13723TIP3   OH262659   1.918   6.165   3.063 -0.1532  0.4576 -0.6339
13723TIP3    H162660   1.954   6.236   3.010  0.9822 -0.1667 -0.6979
13723TIP3    H262661   1.878   6.106   2.999  1.7121 -0.5859 -0.8714
13724TIP3   OH262662   4.924   6.492   3.829 -0.2758 -0.3781 -0.3360
13724TIP3    H162663   4.987   6.422   3.808 -1.2008 -1.9965  2.0578
13724TIP3    H262664   4.906   6.481   3.922  0.1756  3.6429  0.3195
13725TIP3   OH262665   3.629   1.180  15.441 -0.6502  0.5731  0.2046
13725TIP3    H162666   3.621   1.136  15.525  1.6306 -1.1924 -0.4546
13725TIP3    H262667   3.614   1.273  15.461 -0.8398  0.0905  2.4244
13726TIP3   OH262668   1.929   3.003   1.656  0.8255  0.4981 -0.5153
13726TIP3    H162669   1.965   3.077   1.705  0.6137  1.0570 -1.1999
13726TIP3    H262670   2.003   2.942   1.647  1.3035  1.1409 -0.9413
13727TIP3   OH262671   2.207   2.924  12.786 -0.0730  0.1317  0.5470
13727TIP3    H162672   2.235   2.936  12.695 -1.0213  2.1821  0.5034
13727TIP3    H262673   2.135   2.861  12.780 -0.7316  0.9360 -0.2442
13728TIP3   OH262674   0.282   1.943   4.224  0.0444  0.2559  0.4254
13728TIP3    H162675   0.203   1.983   4.259 -0.1199 -0.0625  0.4166
13728TIP3    H262676   0.261   1.850   4.216  0.0036  0.3567 -0.7469
13729TIP3   OH262677   3.013   3.323  13.571 -0.1451 -0.0551  0.2239
13729TIP3    H162678   3.047   3.253  13.515 -1.4245 -0.7337  0.2687
13729TIP3    H262679   2.979   3.388  13.509 -1.1234 -0.5844  0.1908
13730TIP3   OH262680   2.680   5.958   1.538  0.2921 -0.1863  0.0490
13730TIP3    H162681   2.683   6.010   1.458  1.0009  0.9183  0.7654
13730TIP3    H262682   2.589   5.964   1.568  0.1422 -0.1896 -0.4062
13731TIP3   OH262683   5.105   0.093  13.650 -0.2530  0.3948  0.0124
13731TIP3    H162684   5.026   0.107  13.702 -0.5786  1.0098 -0.6310
13731TIP3    H262685   5.089   0.142  13.569 -0.2967 -1.5894 -1.2136
13732TIP3   OH262686   0.366   4.608  13.690  0.1068 -0.0631 -0.0814
13732TIP3    H162687   0.428   4.574  13.625 -0.8415  0.1526 -1.1140
13732TIP3    H262688   0.419   4.661  13.749  1.1089 -0.8880 -0.2254
13733TIP3   OH262689   6.114   0.438  15.270 -0.4939 -0.3815  0.0244
13733TIP3    H162690   6.096   0.344  15.269 -1.2691 -0.2542  1.2332
13733TIP3    H262691   6.081   0.468  15.354 -2.9402  1.5070 -1.5205
13734TIP3   OH262692   4.160   4.199  13.208 -0.0401  0.1688 -0.3411
13734TIP3    H162693   4.226   4.263  13.236  1.0658 -1.0625 -0.0984
13734TIP3    H262694   4.152   4.140  13.282  0.0811 -0.8705 -1.1488
13735TIP3   OH262695   0.437   3.726   2.663 -0.2846 -0.2332  0.4283
13735TIP3    H162696   0.437   3.807   2.714 -0.7366 -0.1923  0.3701
13735TIP3    H262697   0.374   3.669   2.707 -1.3641  0.1432 -0.5981
13736TIP3   OH262698   5.791   6.044  12.026 -0.0839 -0.1474 -0.5234
13736TIP3    H162699   5.779   6.138  12.015 -1.4813 -0.5349 -2.7783
13736TIP3    H262700   5.799   6.010  11.937  0.3270 -2.1721  0.2430
13737TIP3   OH262701   1.010   3.529  15.329 -0.3305 -0.0634  0.1528
13737TIP3    H162702   0.920   3.561  15.336 -0.6807 -1.1565  0.9118
13737TIP3    H262703   1.023   3.513  15.236 -0.9468  0.0311  0.0529
13738TIP3   OH262704   2.409   4.235  15.891 -0.0133 -0.9768 -0.2875
13738TIP3    H162705   2.494   4.269  15.919 -0.6055  0.1967  0.1102
13738TIP3    H262706   2.380   4.179  15.963 -0.2184 -0.2450  0.2073
13739TIP3   OH262707   1.596   1.382   5.778  0.1192 -0.1773 -0.3421
13739TIP3    H162708   1.533   1.450   5.756  0.1954 -0.4506 -1.4549
13739TIP3    H262709   1.678   1.411   5.739  0.0455 -1.1104 -1.2317
13740TIP3   OH262710   0.534   2.085  13.700  0.2495  0.6089  0.3392
13740TIP3    H162711   0.548   2.154  13.635  0.1796 -0.1570 -0.5038
13740TIP3    H262712   0.588   2.012  13.670 -2.0046 -0.7883 -0.4941
13741TIP3   OH262713   4.837   4.956  15.986 -0.5817 -0.1300 -0.3592
13741TIP3    H162714   4.891   4.907  16.047 -1.5912  0.8209  1.3377
13741TIP3    H262715   4.842   5.046  16.016 -0.5166  0.4801 -2.1320
13742TIP3   OH262716   5.134   0.555  13.764 -0.0798  0.1202  0.2016
13742TIP3    H162717   5.138   0.490  13.694  0.4285 -0.0790  0.4133
13742TIP3    H262718   5.047   0.544  13.803  0.9502 -2.2160  1.9396
13743TIP3   OH262719   0.696   6.057   2.302 -0.0846  0.0674 -0.2379
13743TIP3    H162720   0.678   5.968   2.271 -1.0813 -0.8345  2.8131
13743TIP3    H262721   0.619   6.082   2.352  1.1360  1.7810  0.8661
13744TIP3   OH262722   6.724   3.185  16.363  0.7810  0.3454  0.5809
13744TIP3    H162723   6.784   3.244  16.409  1.3325  0.1280  0.1479
13744TIP3    H262724   6.780   3.113  16.332  0.2634  0.0397  0.3434
13745TIP3   OH262725   6.608   5.445  12.505 -0.2288 -0.1953  0.0613
13745TIP3    H162726   6.612   5.521  12.564  0.4243  0.1855 -0.4647
13745TIP3    H262727   6.692   5.445  12.460 -1.0924  0.1037 -1.5928
13746TIP3   OH262728   5.140   6.250   0.844  0.0522  0.1023  0.7124
13746TIP3    H162729   5.101   6.260   0.930  0.4002  1.6818  0.6979
13746TIP3    H262730   5.176   6.336   0.823  0.2211 -0.3279 -0.8869
13747TIP3   OH262731   0.693   6.683  11.244  0.2007  0.2416 -0.1585
13747TIP3    H162732   0.603   6.705  11.221 -0.0756  0.5092  1.1187
13747TIP3    H262733   0.740   6.679  11.160 -1.5971 -2.7649 -1.0950
13748TIP3   OH262734   1.842   6.075   5.436  0.6704 -0.5619  0.4356
13748TIP3    H162735   1.837   6.065   5.341  0.6952 -1.4722  0.5217
13748TIP3    H262736   1.762   6.033   5.469 -1.2998  3.0861  0.6139
13749TIP3   OH262737   2.872   6.082   4.083 -0.4295 -0.0751 -0.7143
13749TIP3    H162738   2.805   6.122   4.139 -0.5066  0.2988 -1.0685
13749TIP3    H262739   2.858   5.988   4.092  0.6477 -0.0939  1.2342
13750TIP3   OH262740   0.043   3.418   3.868  0.2644  0.7469  0.8384
13750TIP3    H162741   0.071   3.505   3.840 -0.0475  0.7409  0.5098
13750TIP3    H262742  -0.051   3.426   3.882 -0.1298 -0.0531 -1.1666
13751TIP3   OH262743   6.225   2.934   3.500 -0.0628  0.2637  0.0662
13751TIP3    H162744   6.133   2.929   3.526 -0.0186  3.1008  0.9306
13751TIP3    H262745   6.262   2.850   3.527 -2.4360 -1.0074 -0.5057
13752TIP3   OH262746   6.274   3.691   5.986 -0.2472  0.0472  0.1056
13752TIP3    H162747   6.204   3.641   6.029 -0.3099  0.8521  0.9537
13752TIP3    H262748   6.300   3.756   6.051  0.7426  0.2689 -0.5047
13753TIP3   OH262749   0.720   5.806   4.651  0.6070 -0.0013  0.5174
13753TIP3    H162750   0.667   5.829   4.575 -0.4633 -0.9420  0.9649
13753TIP3    H262751   0.778   5.736   4.620  0.5235 -0.0307  0.4294
13754TIP3   OH262752   5.760   2.816   1.939 -0.2487 -0.3929  0.3584
13754TIP3    H162753   5.744   2.910   1.938 -1.3773 -0.5732 -0.0722
13754TIP3    H262754   5.854   2.807   1.955 -0.0749  0.8094  0.0574
13755TIP3   OH262755   1.449   2.044  15.361  0.0786 -0.1625 -0.2520
13755TIP3    H162756   1.385   1.990  15.408 -0.5022  0.8967  0.1863
13755TIP3    H262757   1.474   1.991  15.285 -0.1411 -1.2389  0.4107
13756TIP3   OH262758   3.394   4.121  14.672  0.0223  0.3651  0.7427
13756TIP3    H162759   3.324   4.093  14.731 -0.4023  1.1728  0.6278
13756TIP3    H262760   3.427   4.202  14.711 -0.7342  1.2859 -0.4991
13757TIP3   OH262761   1.618   6.725   0.052  1.3102  0.6597 -0.5472
13757TIP3    H162762   1.535   6.772   0.053 -0.7536 -2.7608  2.9134
13757TIP3    H262763   1.662   6.752   0.132  1.6665 -0.6343 -0.2995
13758TIP3   OH262764   5.278   0.262   3.499  0.9757  0.0366 -0.4851
13758TIP3    H162765   5.314   0.225   3.418 -0.3000  0.0142 -1.0493
13758TIP3    H262766   5.333   0.224   3.568  1.7351 -0.3694 -1.2876
13759TIP3   OH262767   4.000   5.888  11.834 -0.4355  0.1906 -0.2618
13759TIP3    H162768   4.090   5.876  11.806 -0.3172 -0.8312  0.5448
13759TIP3    H262769   3.953   5.913  11.754  0.6864  1.4644 -0.5403
13760TIP3   OH262770   2.319   1.868  14.273 -0.8434  0.4159 -0.2946
13760TIP3    H162771   2.234   1.869  14.227 -2.7122 -0.4102  3.0107
13760TIP3    H262772   2.327   1.779  14.307  0.5610  0.9851  0.9029
13761TIP3   OH262773   1.550   4.879   5.529  0.2940  0.1375  0.3142
13761TIP3    H162774   1.476   4.821   5.513  0.9235 -0.7025  0.4142
13761TIP3    H262775   1.511   4.960   5.563 -0.6813  0.2323 -1.0292
13762TIP3   OH262776   6.128   5.618   1.410 -0.2053  0.5603  0.3555
13762TIP3    H162777   6.150   5.590   1.321  1.2147 -0.8871  1.1288
13762TIP3    H262778   6.209   5.605   1.460 -1.1214  0.8756  1.9742
13763TIP3   OH262779   2.624   2.048   6.232 -0.5513  0.6570  0.5367
13763TIP3    H162780   2.662   2.030   6.317 -2.3877 -0.7251  1.1247
13763TIP3    H262781   2.533   2.070   6.251 -0.5830  1.8676 -0.9489
13764TIP3   OH262782   6.478   4.189   3.900 -0.1837 -0.3582 -0.4266
13764TIP3    H162783   6.430   4.229   3.972 -1.0317 -3.4506  0.8303
13764TIP3    H262784   6.422   4.203   3.823 -0.4578  0.8312 -0.0138
13765TIP3   OH262785   1.458   1.062  13.330 -0.3387 -0.6308  0.5034
13765TIP3    H162786   1.381   1.013  13.300 -1.5434  0.3074  2.0042
13765TIP3    H262787   1.445   1.072  13.424  2.7591 -2.4278  1.1917
13766TIP3   OH262788   2.856   0.993   4.926 -0.2242  0.2547 -0.5092
13766TIP3    H162789   2.765   1.004   4.954  0.0402 -0.5148  0.6849
13766TIP3    H262790   2.858   0.904   4.890  0.0307  0.3200 -0.6530
13767TIP3   OH262791   3.016   5.796  16.261  0.1663 -0.3541 -0.0936
13767TIP3    H162792   3.028   5.824  16.170 -2.3742 -1.8349 -0.9431
13767TIP3    H262793   3.091   5.739  16.278  1.0949  0.5777 -0.9834
13768TIP3   OH262794   5.901   0.859  16.838  0.1501  0.3938  0.2654
13768TIP3    H162795   5.921   0.773  16.802 -1.3391 -0.5481  1.6122
13768TIP3    H262796   5.970   0.875  16.903 -1.1334 -1.0573  2.0264
13769TIP3   OH262797   1.590   6.381  14.703  0.1829  0.3639  0.6718
13769TIP3    H162798   1.599   6.453  14.765 -1.3069  2.1380 -1.0744
13769TIP3    H262799   1.674   6.334  14.706  0.2565  0.6548  3.6731
13770TIP3   OH262800   5.776   0.321  12.296  0.1507 -0.1530  0.0399
13770TIP3    H162801   5.721   0.399  12.305 -0.0055 -0.2798  0.1948
13770TIP3    H262802   5.849   0.349  12.240 -0.4148 -0.1616 -0.7057
13771TIP3   OH262803   0.305   4.402  14.356 -0.9088 -0.1973 -0.0003
13771TIP3    H162804   0.341   4.464  14.292 -1.5651 -0.1501 -0.3250
13771TIP3    H262805   0.246   4.456  14.410  1.3569  0.2745  2.1149
13772TIP3   OH262806   0.006   1.842   6.666  0.0987  0.0694 -0.1795
13772TIP3    H162807   0.001   1.754   6.703  1.5880  0.3417  0.6978
13772TIP3    H262808  -0.065   1.845   6.601 -0.5351 -1.4602  0.4263
13773TIP3   OH262809   5.721   4.296   1.719  0.5399  0.2484 -0.7093
13773TIP3    H162810   5.705   4.211   1.678  0.1873  0.4373 -0.9579
13773TIP3    H262811   5.639   4.344   1.711  0.8835  0.8040 -1.0220
13774TIP3   OH262812   4.910   3.170   1.570 -0.7865  0.2992  0.6772
13774TIP3    H162813   4.857   3.165   1.490 -2.6758 -3.0688  2.0662
13774TIP3    H262814   4.988   3.117   1.551 -0.9997 -0.0970  0.9163
13775TIP3   OH262815   3.880   6.035   4.716 -0.4105  0.1254  0.1488
13775TIP3    H162816   3.952   6.026   4.779 -0.9638 -3.7226  0.3482
13775TIP3    H262817   3.801   6.031   4.769 -0.8154  1.3328 -0.3663
13776TIP3   OH262818   1.869   5.461   3.264 -0.5587  0.1367 -0.1011
13776TIP3    H162819   1.953   5.444   3.306  0.0041  0.4478 -1.0706
13776TIP3    H262820   1.884   5.539   3.211 -1.8185  0.9304  0.6859
13777TIP3   OH262821   4.877   3.060  10.787 -0.0850 -0.2548 -0.5185
13777TIP3    H162822   4.916   3.080  10.702  0.3547 -0.5297 -0.3844
13777TIP3    H262823   4.940   3.091  10.851  1.7205 -4.0836 -0.3045
13778TIP3   OH262824   2.846   0.262  15.604  0.3084 -0.3476  0.5824
13778TIP3    H162825   2.761   0.227  15.630  1.1105 -0.8249  2.6963
13778TIP3    H262826   2.875   0.312  15.681  1.4732  0.6618 -0.4989
13779TIP3   OH262827   5.014   1.699   0.952  0.0263  0.5634 -0.2695
13779TIP3    H162828   4.955   1.637   0.994  0.9653 -0.6801 -0.7557
13779TIP3    H262829   4.957   1.771   0.925 -1.2540 -0.5504 -0.6217
13780TIP3   OH262830   1.298   6.140  12.365  0.3907 -0.1594 -0.0481
13780TIP3    H162831   1.358   6.207  12.334  0.0254  0.4722  0.5983
13780TIP3    H262832   1.352   6.082  12.418  0.8424 -0.7588 -1.1386
13781TIP3   OH262833   4.410   4.360   1.689 -0.3449  0.2043 -0.3885
13781TIP3    H162834   4.357   4.440   1.689 -0.9935 -0.2189 -0.2189
13781TIP3    H262835   4.358   4.298   1.637  0.4200  0.0682 -0.9972
13782TIP3   OH262836   6.087   2.557  16.754  0.5339  0.2746  0.3287
13782TIP3    H162837   6.125   2.630  16.706 -1.0965  1.0427  0.1801
13782TIP3    H262838   6.049   2.596  16.833 -0.7592 -0.3180  0.0171
13783TIP3   OH262839   4.868   1.855   5.650 -0.1123 -0.1022  0.4273
13783TIP3    H162840   4.829   1.936   5.620  1.0623  0.2165 -0.2535
13783TIP3    H262841   4.887   1.805   5.570  0.7358 -0.3070  0.7425
13784TIP3   OH262842   1.366   1.569  12.922 -0.3429  0.2254 -0.0997
13784TIP3    H162843   1.409   1.590  12.840  3.1094  0.6376  1.7001
13784TIP3    H262844   1.338   1.653  12.957  1.9943  0.5833  1.0573
13785TIP3   OH262845   0.829   4.886  14.791  0.2403 -0.0906 -0.2436
13785TIP3    H162846   0.758   4.936  14.831  0.7922  0.6482 -0.1708
13785TIP3    H262847   0.785   4.815  14.744 -0.6126  0.9590 -1.0717
13786TIP3   OH262848   6.346   0.256  15.656  0.9476 -0.3777 -0.3824
13786TIP3    H162849   6.355   0.169  15.695  0.1860 -0.5657 -0.6231
13786TIP3    H262850   6.409   0.310  15.705  0.4777 -0.7635  0.6607
13787TIP3   OH262851   2.737   2.598   2.673  0.4438 -0.0114  0.2507
13787TIP3    H162852   2.665   2.634   2.725  0.1091  0.1008 -0.2879
13787TIP3    H262853   2.710   2.508   2.655 -0.3258  0.5258 -1.3387
13788TIP3   OH262854   4.194   3.648  15.647 -0.9152  0.6113 -0.1561
13788TIP3    H162855   4.183   3.608  15.561 -1.2619  1.3301 -0.4509
13788TIP3    H262856   4.289   3.646  15.663 -0.9861 -0.9901  0.1673
13789TIP3   OH262857   0.827   2.837  15.833 -0.2831  0.2966  0.2619
13789TIP3    H162858   0.914   2.796  15.833 -1.2638 -1.8863 -1.1894
13789TIP3    H262859   0.772   2.775  15.881 -0.9307  1.9855  1.7426
13790TIP3   OH262860   3.040   5.204   1.675  0.0235 -0.1618 -0.0489
13790TIP3    H162861   3.044   5.287   1.628 -0.4173 -0.8421 -1.3126
13790TIP3    H262862   2.993   5.145   1.616 -0.1540 -1.1579  1.0633
13791TIP3   OH262863   5.952   1.792  11.992  0.0007  0.3024  0.5109
13791TIP3    H162864   5.882   1.856  11.996 -0.6965 -0.4086 -0.1453
13791TIP3    H262865   5.907   1.708  11.983  0.9064 -0.2496  1.0784
13792TIP3   OH262866   4.495   5.113   4.096 -0.6644 -0.4252 -0.1390
13792TIP3    H162867   4.424   5.164   4.057  0.4564  1.4211  0.1971
13792TIP3    H262868   4.573   5.166   4.083  0.6507 -2.3732 -0.3624
13793TIP3   OH262869   2.043   0.051   4.464  0.6245  0.3489 -0.3193
13793TIP3    H162870   1.994   0.128   4.433  3.1398  2.2180  0.1160
13793TIP3    H262871   2.097   0.085   4.536  1.1067 -2.0536  0.4873
13794TIP3   OH262872   3.391   3.191  14.996 -0.2825 -0.1967  0.1727
13794TIP3    H162873   3.325   3.217  14.932  0.5763 -2.2369 -1.6263
13794TIP3    H262874   3.471   3.179  14.945  1.0552  0.4789  2.0301
13795TIP3   OH262875   1.194   1.963  11.385  0.5973 -0.2232 -0.2800
13795TIP3    H162876   1.231   1.883  11.423 -0.5404 -0.4966  0.2618
13795TIP3    H262877   1.099   1.951  11.390  0.4119  1.1547 -0.2135
13796TIP3   OH262878   4.963   0.680   3.663 -0.4660  0.0387  0.1654
13796TIP3    H162879   5.008   0.598   3.644 -1.1858 -0.1662 -0.6837
13796TIP3    H262880   5.004   0.744   3.605 -1.9693 -0.3711 -1.3765
13797TIP3   OH262881   3.034   2.786  12.455 -0.0672  0.0924  0.0058
13797TIP3    H162882   2.985   2.739  12.387 -1.0083  1.0783 -0.0074
13797TIP3    H262883   3.042   2.722  12.526 -0.9262 -0.2492 -0.1940
13798TIP3   OH262884   0.451   3.419  16.545 -0.0627  0.5474 -0.0348
13798TIP3    H162885   0.391   3.361  16.497 -0.6957  0.4337  0.8944
13798TIP3    H262886   0.501   3.360  16.601  0.2697  0.7523 -0.1163
13799TIP3   OH262887   6.604   6.803  16.879 -0.1233 -0.3086  0.0571
13799TIP3    H162888   6.684   6.792  16.930 -0.9241 -1.6024  1.0536
13799TIP3    H262889   6.635   6.808  16.788  1.1458  0.0385  0.4963
13800TIP3   OH262890   4.661   4.095   4.467 -0.1708 -0.2563  0.3009
13800TIP3    H162891   4.659   4.117   4.374  0.2182  1.9031  0.7841
13800TIP3    H262892   4.667   3.999   4.469 -1.6494 -0.4286 -1.8665
13801TIP3   OH262893   6.352   3.699  16.159 -0.3367  0.1739 -0.4139
13801TIP3    H162894   6.356   3.748  16.077 -1.4340 -0.6393 -0.9662
13801TIP3    H262895   6.263   3.665  16.163 -0.0293 -0.5344  0.6822
13802TIP3   OH262896   3.288   4.674  17.272 -0.5451  0.0155  0.0157
13802TIP3    H162897   3.221   4.606  17.271 -0.0563 -0.4395 -1.7309
13802TIP3    H262898   3.258   4.739  17.208 -0.3899  0.8572  0.7816
13803TIP3   OH262899   1.824   0.671   4.195 -0.3091  0.9505 -0.1733
13803TIP3    H162900   1.791   0.605   4.134  0.3601  1.4625 -1.1075
13803TIP3    H262901   1.896   0.713   4.148  0.3385  1.2345  1.0496
13804TIP3   OH262902   0.762   0.165   1.034 -0.0414 -0.4843 -0.5762
13804TIP3    H162903   0.825   0.094   1.021 -0.7353 -1.0007 -1.1943
13804TIP3    H262904   0.715   0.171   0.951  1.2590  1.9668 -1.1853
13805TIP3   OH262905   1.679   2.905   6.049  0.3269 -0.4115  0.1912
13805TIP3    H162906   1.625   2.833   6.017 -0.1787  0.2336 -0.4343
13805TIP3    H262907   1.688   2.889   6.143 -1.0132 -0.4960  0.3185
13806TIP3   OH262908   4.527   6.485   1.599  0.0982  0.4116  0.1831
13806TIP3    H162909   4.568   6.423   1.539 -0.4342  0.2113  0.0174
13806TIP3    H262910   4.564   6.464   1.685 -0.1699 -0.2144  0.1454
13807TIP3   OH262911   6.813   2.083  13.644 -0.3882 -0.5178 -1.0472
13807TIP3    H162912   6.886   2.090  13.583 -0.1568  0.6851 -0.6504
13807TIP3    H262913   6.854   2.071  13.729 -0.6802 -1.0879 -0.9878
13808TIP3   OH262914   0.758   0.338  13.807 -0.7974 -0.1407 -0.5537
13808TIP3    H162915   0.716   0.328  13.721  0.1003  0.4776 -1.0706
13808TIP3    H262916   0.852   0.344  13.787 -0.6532  0.8469  0.4112
13809TIP3   OH262917   0.212   0.223   4.359 -0.1924  0.1595  0.5796
13809TIP3    H162918   0.198   0.246   4.450 -0.6454 -2.6346  1.2671
13809TIP3    H262919   0.306   0.235   4.345 -0.3522  1.9923  0.9610
13810TIP3   OH262920   2.071   3.679   4.054 -0.0826 -0.1273 -0.0949
13810TIP3    H162921   2.005   3.693   3.986 -0.7117  0.2614  0.5791
13810TIP3    H262922   2.041   3.733   4.127  0.0553 -1.2873  0.8311
13811TIP3   OH262923   5.567   2.170  13.698 -0.0396 -0.0184 -0.0065
13811TIP3    H162924   5.595   2.245  13.645 -0.4028 -0.1054 -0.3186
13811TIP3    H262925   5.488   2.138  13.655 -0.0566 -0.3946  0.3032
13812TIP3   OH262926   6.818   0.777  15.761 -0.1404  0.0639  0.6496
13812TIP3    H162927   6.868   0.859  15.762 -1.2247  0.7559 -0.3057
13812TIP3    H262928   6.876   0.713  15.719  0.9320  0.1881  1.9234
13813TIP3   OH262929   1.174   3.009   2.738 -0.2324  0.6579  0.1903
13813TIP3    H162930   1.123   2.939   2.779 -0.1188  0.5051  0.0727
13813TIP3    H262931   1.230   3.041   2.808 -0.4964  0.8345  0.3236
13814TIP3   OH262932   3.294   3.636   0.167 -0.0775  0.3168  0.4184
13814TIP3    H162933   3.286   3.727   0.139  3.2988  0.5336 -0.1299
13814TIP3    H262934   3.345   3.641   0.248 -0.1572 -1.0604  0.5606
13815TIP3   OH262935   2.269   1.473   4.894  0.3468 -0.0136  0.5025
13815TIP3    H162936   2.360   1.497   4.877  0.4028  0.3052  1.2633
13815TIP3    H262937   2.257   1.389   4.849  0.7329  0.4230 -0.4302
13816TIP3   OH262938   4.002   0.517  15.013 -0.3804 -0.1022 -0.0325
13816TIP3    H162939   4.053   0.584  14.968  0.1024 -1.6761 -1.8921
13816TIP3    H262940   4.058   0.486  15.083  1.3355 -1.8542 -2.0914
13817TIP3   OH262941   4.126   4.357  10.600 -0.5078  0.1798 -0.0838
13817TIP3    H162942   4.035   4.351  10.573 -0.3012  0.7938 -0.9290
13817TIP3    H262943   4.134   4.295  10.672 -1.1001 -1.3394 -1.3135
13818TIP3   OH262944   0.459   1.970   3.619  0.3050  0.6865 -0.0553
13818TIP3    H162945   0.416   1.939   3.698  0.3450  1.6217  0.3370
13818TIP3    H262946   0.392   2.021   3.573  0.1523 -0.2044 -0.8385
13819TIP3   OH262947   1.526   4.380  16.406  0.1108  0.0664  0.4287
13819TIP3    H162948   1.507   4.356  16.496  1.1921 -1.7271  0.1916
13819TIP3    H262949   1.481   4.464  16.393 -1.4207 -0.4919  2.1032
13820TIP3   OH262950   1.041   3.219   4.613 -0.1344 -0.9530  0.3715
13820TIP3    H162951   1.067   3.263   4.694  2.0615  2.8598 -2.1954
13820TIP3    H262952   0.946   3.231   4.609  0.1376  1.8188  0.8266
13821TIP3   OH262953   6.127   3.419   5.053  0.0904  0.0450  0.0048
13821TIP3    H162954   6.170   3.340   5.021 -0.3518  0.5158 -1.8486
13821TIP3    H262955   6.081   3.454   4.976  1.2012  2.7003  0.4698
13822TIP3   OH262956   4.632   2.737  11.138  0.2709  0.0203  0.9742
13822TIP3    H162957   4.688   2.663  11.116 -2.4074 -1.5665 -0.6212
13822TIP3    H262958   4.663   2.808  11.082 -0.6415 -1.4451 -1.4379
13823TIP3   OH262959   6.012   4.809   0.538 -0.0061  0.6893 -0.3737
13823TIP3    H162960   6.005   4.820   0.633 -2.5320 -4.1647  0.1530
13823TIP3    H262961   6.083   4.746   0.526 -0.4122  0.4490 -1.6344
13824TIP3   OH262962   6.605   1.979   4.825 -0.3390 -0.0656 -0.0492
13824TIP3    H162963   6.573   2.035   4.755  0.1292  1.6123  1.0638
13824TIP3    H262964   6.695   1.958   4.799 -0.6582 -0.6967 -0.6827
13825TIP3   OH262965   4.785   6.041   1.105 -0.1604 -0.1042  0.1660
13825TIP3    H162966   4.765   6.048   1.011 -1.0110  0.9553  0.4104
13825TIP3    H262967   4.795   5.948   1.121  3.5172 -0.1193 -1.7125
13826TIP3   OH262968   1.642   5.347   3.407  0.3116  0.1749 -0.3394
13826TIP3    H162969   1.612   5.430   3.443  0.3045  0.9390 -2.0719
13826TIP3    H262970   1.732   5.363   3.379  0.7483 -0.7699  0.4896
13827TIP3   OH262971   6.444   1.798   2.886  0.1778 -0.3224 -0.4203
13827TIP3    H162972   6.380   1.746   2.837  0.9518 -0.6939 -1.0598
13827TIP3    H262973   6.491   1.734   2.940 -0.6578  0.0835  0.8065
13828TIP3   OH262974   5.558   1.719   2.747  0.6979  0.0057  0.3882
13828TIP3    H162975   5.480   1.673   2.718  2.3165 -1.4888 -1.7417
13828TIP3    H262976   5.556   1.802   2.698 -0.4236  0.7618  1.6609
13829TIP3   OH262977   0.950   4.280  15.380 -0.3229 -0.0364 -0.0067
13829TIP3    H162978   0.882   4.331  15.426  1.0038  1.4057  0.4242
13829TIP3    H262979   1.016   4.346  15.356  1.0627 -1.4544 -0.1409
13830TIP3   OH262980   3.586   4.972  17.156 -0.2779  0.1362  0.0502
13830TIP3    H162981   3.575   4.992  17.249 -0.2285 -0.4479  0.1833
13830TIP3    H262982   3.583   5.058  17.113 -1.4399  0.3129  0.4670
13831TIP3   OH262983   6.662   1.761  15.492 -0.1649  0.0396 -0.7914
13831TIP3    H162984   6.600   1.718  15.550 -0.3337  1.5535  0.1829
13831TIP3    H262985   6.747   1.753  15.536 -0.3644  1.5749 -0.0793
13832TIP3   OH262986   2.949   4.631  10.504 -0.2390  0.5309  0.3731
13832TIP3    H162987   2.890   4.703  10.527  0.6264  0.6555  2.3367
13832TIP3    H262988   2.943   4.570  10.578  0.9806 -0.1541 -0.0643
13833TIP3   OH262989   0.343   2.746  16.300 -0.2589 -0.0387  0.0091
13833TIP3    H162990   0.365   2.755  16.393 -0.0058 -0.5371 -0.0011
13833TIP3    H262991   0.262   2.796  16.290 -0.4681 -0.2537  0.5672
13834TIP3   OH262992   0.752   2.871  13.530  0.0231  0.0140  0.4586
13834TIP3    H162993   0.794   2.801  13.580  2.6081  0.5961 -0.8538
13834TIP3    H262994   0.823   2.931  13.508 -1.6462  1.4818 -1.0590
13835TIP3   OH262995   3.748   5.574  12.129  0.5542 -0.4341  0.4899
13835TIP3    H162996   3.833   5.536  12.151  1.5441  1.1434 -0.4680
13835TIP3    H262997   3.758   5.602  12.038 -1.4526 -1.4330 -0.0720
13836TIP3   OH262998   4.510   0.945  14.111 -0.0534  0.5461  0.0476
13836TIP3    H162999   4.503   0.966  14.204  1.1264  0.6695  0.1130
13836TIP3    H263000   4.489   0.852  14.107 -1.5534  0.8683  0.2434
13837TIP3   OH263001   3.309   2.664   2.146 -0.2145 -0.4515 -0.1148
13837TIP3    H163002   3.322   2.591   2.086 -0.9109 -0.3578 -0.3853
13837TIP3    H263003   3.373   2.650   2.216 -0.8983 -1.7744  0.2586
13838TIP3   OH263004   2.733   4.570  11.283  0.5259 -0.3674  0.2424
13838TIP3    H163005   2.643   4.564  11.312  0.3833  0.5259  0.0050
13838TIP3    H263006   2.745   4.496  11.223  0.9301 -2.4341  2.8204
13839TIP3   OH263007   4.063   1.324   4.254 -0.2516 -0.7980 -0.3963
13839TIP3    H163008   4.009   1.248   4.233  0.9099 -1.7775  0.1088
13839TIP3    H263009   4.051   1.383   4.180 -0.5174 -1.8395 -1.2017
13840TIP3   OH263010   1.368   2.006  16.568  0.0104  0.1112 -0.1399
13840TIP3    H163011   1.324   1.969  16.644  1.1555  0.9852  0.9678
13840TIP3    H263012   1.320   2.088  16.550 -0.2919 -0.1208 -0.3904
13841TIP3   OH263013   2.203   6.702   2.527 -0.1226 -0.1580  0.1946
13841TIP3    H163014   2.192   6.627   2.468 -2.0826 -0.5503  1.0290
13841TIP3    H263015   2.274   6.677   2.585 -0.3762 -1.1488  0.0899
13842TIP3   OH263016   5.401   0.220   4.825 -0.0609  0.4098 -0.1689
13842TIP3    H163017   5.340   0.272   4.772  0.1098  1.1843  0.3842
13842TIP3    H263018   5.443   0.161   4.763 -1.0117  0.2081 -0.6417
13843TIP3   OH263019   3.467   3.655   5.034 -0.2495  0.3025  0.2041
13843TIP3    H163020   3.551   3.624   4.999  0.9604  3.4821  0.0488
13843TIP3    H263021   3.451   3.738   4.988 -2.4185  0.8088  1.7624
13844TIP3   OH263022   4.297   2.734   5.006  0.3393 -0.2777 -0.9493
13844TIP3    H163023   4.332   2.732   4.917  1.9988  2.1230 -0.4125
13844TIP3    H263024   4.335   2.657   5.049  3.3676  1.0984 -0.9961
13845TIP3   OH263025   5.642   0.521   0.062 -0.1233  0.3944  0.1702
13845TIP3    H163026   5.566   0.575   0.088 -1.7034 -0.9529 -1.5276
13845TIP3    H263027   5.673   0.561  -0.019 -0.8291 -0.7619 -0.6866
13846TIP3   OH263028   0.065   3.262   5.702 -0.7339 -0.4928 -0.3404
13846TIP3    H163029   0.080   3.318   5.626 -0.7230  1.0511  0.7670
13846TIP3    H263030   0.050   3.175   5.666  1.5685 -0.2498 -2.0048
13847TIP3   OH263031   0.015   1.795   3.895  0.5275 -0.2824 -0.4939
13847TIP3    H163032   0.003   1.883   3.859 -0.7159  0.4644  1.7220
13847TIP3    H263033   0.013   1.807   3.990  0.0527 -2.7500 -0.1740
13848TIP3   OH263034   0.310   5.807  15.987  0.2719  0.6550 -0.2220
13848TIP3    H163035   0.345   5.785  15.901 -0.0552 -2.2707  0.3218
13848TIP3    H263036   0.259   5.730  16.012 -0.2799  1.7723  2.2430
13849TIP3   OH263037   0.684   2.855   4.870 -0.1329  0.0320  0.2030
13849TIP3    H163038   0.604   2.898   4.898  0.7870  2.4033 -0.6351
13849TIP3    H263039   0.660   2.809   4.790 -0.3145  2.0960 -0.9626
13850TIP3   OH263040   2.558   2.571  14.522  0.0144 -0.3561 -0.3122
13850TIP3    H163041   2.535   2.484  14.489 -1.0664 -0.4257  0.5869
13850TIP3    H263042   2.539   2.630  14.449  0.0583 -0.7898 -0.6774
13851TIP3   OH263043   5.724   3.088   1.903  0.0757  0.0851 -0.3600
13851TIP3    H163044   5.769   3.134   1.832  0.3670 -2.3354 -1.8040
13851TIP3    H263045   5.631   3.094   1.880  0.0048  0.9632  0.1092
13852TIP3   OH263046   3.987   4.357   2.934  0.4722 -0.3275 -0.0306
13852TIP3    H163047   4.007   4.361   2.841 -0.6121  1.9038 -0.2023
13852TIP3    H263048   3.908   4.302   2.940  1.1822 -1.3847 -0.3001
13853TIP3   OH263049   4.146   4.562  12.053 -0.3022  0.2271 -0.1621
13853TIP3    H163050   4.211   4.629  12.031  0.2942  0.1152  1.2318
13853TIP3    H263051   4.185   4.514  12.126 -0.0018 -2.7043 -2.1755
13854TIP3   OH263052   3.708   0.749   6.219 -0.4252 -0.1826 -0.1892
13854TIP3    H163053   3.651   0.761   6.296 -0.6460  1.9954 -0.6546
13854TIP3    H263054   3.666   0.680   6.168 -0.7371 -1.0530  1.2241
13855TIP3   OH263055   4.320   3.308   1.869  0.4646 -0.0591 -0.1762
13855TIP3    H163056   4.387   3.251   1.906  1.5768  0.6057 -1.1276
13855TIP3    H263057   4.316   3.284   1.776 -1.6725 -1.1018  0.1304
13856TIP3   OH263058   0.631   2.767  16.031 -0.3478 -0.2833 -0.2100
13856TIP3    H163059   0.570   2.697  16.052  0.5703 -0.9774  0.1617
13856TIP3    H263060   0.580   2.848  16.044 -0.7268 -0.7931  1.5814
13857TIP3   OH263061   6.131   3.180   6.153  0.2419 -0.1180 -0.3168
13857TIP3    H163062   6.187   3.208   6.225 -0.3920  0.5734 -0.0969
13857TIP3    H263063   6.098   3.094   6.180  0.8545 -0.3480 -0.2692
13858TIP3   OH263064   2.057   1.792   3.540  0.3506  0.6632 -0.3774
13858TIP3    H163065   2.097   1.820   3.458  1.3641  0.6654  0.1067
13858TIP3    H263066   2.114   1.826   3.608 -1.6130  2.4501  0.4328
13859TIP3   OH263067   3.067   3.055   4.498  0.2151 -0.0540  0.0345
13859TIP3    H163068   3.003   2.985   4.510  1.6168 -1.3507  0.1070
13859TIP3    H263069   3.102   3.070   4.586  0.8033 -0.1321 -0.1844
13860TIP3   OH263070   4.214   2.181  11.704  0.1324  0.0699  0.0386
13860TIP3    H163071   4.195   2.087  11.705  0.1937  0.0619  1.1848
13860TIP3    H263072   4.284   2.191  11.639 -0.8795 -0.4697 -1.1617
13861TIP3   OH263073   4.137   5.168   5.001  0.2464 -0.3467 -0.2456
13861TIP3    H163074   4.053   5.123   5.008 -0.5876  1.1411 -0.5318
13861TIP3    H263075   4.185   5.143   5.080 -0.4291 -1.2851 -0.1315
13862TIP3   OH263076   2.214   3.077   0.658 -0.4615 -0.1020  0.4442
13862TIP3    H163077   2.211   2.989   0.620 -0.2517  0.4108 -0.7735
13862TIP3    H263078   2.231   3.135   0.583  0.6808  0.8468  1.4190
13863TIP3   OH263079   5.013   3.217   4.794  0.1764  0.4867  0.1112
13863TIP3    H163080   4.948   3.232   4.724 -1.2505  1.0701  1.5291
13863TIP3    H263081   4.969   3.247   4.874  1.4786 -0.9508  1.3903
13864TIP3   OH263082   6.053   1.389   6.267  0.0993  0.0310  0.0881
13864TIP3    H163083   6.098   1.474   6.265 -1.4111  0.8722  0.6434
13864TIP3    H263084   6.107   1.335   6.326 -0.4488  1.5227  2.0120
13865TIP3   OH263085   3.353   6.742  14.337 -0.7928 -0.0353  0.1844
13865TIP3    H163086   3.359   6.816  14.277  0.8928 -0.0922  0.2589
13865TIP3    H263087   3.321   6.780  14.419  0.7164  0.7250  0.4167
13866TIP3   OH263088   6.252   3.312  16.024 -0.1757  0.1316  0.3009
13866TIP3    H163089   6.324   3.263  16.064 -0.2379  0.0692  0.3354
13866TIP3    H263090   6.240   3.272  15.938 -0.0324  0.2753  0.2118
13867TIP3   OH263091   1.207   3.917   2.465 -0.1945 -0.1701  0.0886
13867TIP3    H163092   1.293   3.919   2.506 -0.4610 -2.1923  0.7836
13867TIP3    H263093   1.225   3.915   2.371  0.4925  0.2189  0.2107
13868TIP3   OH263094   1.860   4.793  14.985 -0.4505 -0.2750  0.0070
13868TIP3    H163095   1.784   4.811  15.040 -0.3201  0.8622 -0.1632
13868TIP3    H263096   1.876   4.876  14.939 -0.3478 -1.1122 -1.4805
13869TIP3   OH263097   4.716   0.862   0.852  0.1885  0.9579 -0.5159
13869TIP3    H163098   4.626   0.879   0.826  0.3382 -0.4816 -2.0105
13869TIP3    H263099   4.769   0.916   0.794  0.4293 -0.8267 -2.0039
13870TIP3   OH263100   1.192   6.418  15.652 -0.2687  0.1314  0.5204
13870TIP3    H163101   1.116   6.449  15.603  0.0917  1.6877  0.9184
13870TIP3    H263102   1.169   6.328  15.678 -0.4489 -0.7688 -2.5092
13871TIP3   OH263103   5.181   0.585  15.479 -0.1919  0.0008  0.0830
13871TIP3    H163104   5.266   0.618  15.450  0.0591 -1.0079 -0.3835
13871TIP3    H263105   5.152   0.529  15.407 -1.4332  0.6391  0.0818
13872TIP3   OH263106   6.361   0.656   4.434 -0.3819 -0.1089  0.3911
13872TIP3    H163107   6.331   0.573   4.472 -0.8688  0.8246  2.1030
13872TIP3    H263108   6.452   0.664   4.463 -0.7026  0.5287  1.2131
13873TIP3   OH263109   4.892   2.585   4.771 -0.4821  0.3890 -0.1417
13873TIP3    H163110   4.947   2.518   4.729  0.4931  0.1976  1.4024
13873TIP3    H263111   4.936   2.668   4.751 -0.2335  0.3323  0.1686
13874TIP3   OH263112   5.641   2.271   0.243  0.4942 -0.3425  0.0060
13874TIP3    H163113   5.718   2.281   0.187  0.8473  0.4077  0.6064
13874TIP3    H263114   5.594   2.197   0.206 -0.0932  1.1120 -2.2345
13875TIP3   OH263115   3.817   2.838   4.675  0.0455  0.4603 -0.5014
13875TIP3    H163116   3.738   2.808   4.719 -0.1390  1.3886 -0.1857
13875TIP3    H263117   3.888   2.785   4.712 -0.3385  0.0985 -0.2931
13876TIP3   OH263118   2.337   1.623  12.442  0.1419  0.0676  0.2821
13876TIP3    H163119   2.249   1.659  12.427  0.2531  1.0766  1.9011
13876TIP3    H263120   2.372   1.607  12.355 -1.1419  0.9410 -0.4046
13877TIP3   OH263121   2.162   4.125  15.286  0.5964 -0.0319 -0.3000
13877TIP3    H163122   2.223   4.096  15.218  0.4405 -0.0762 -0.4215
13877TIP3    H263123   2.097   4.177  15.240  1.5597  1.5654  0.0937
13878TIP3   OH263124   6.150   3.194  16.327  0.1784  0.0589 -0.1037
13878TIP3    H163125   6.217   3.258  16.305 -2.2264  2.1007 -1.7987
13878TIP3    H263126   6.148   3.193  16.423  2.0715  0.5566 -0.0540
13879TIP3   OH263127   6.814   0.168   0.551 -0.9133 -0.0394 -0.0658
13879TIP3    H163128   6.896   0.129   0.581 -0.5180  0.9511  0.1304
13879TIP3    H263129   6.814   0.152   0.456  0.1373  1.1201 -0.2718
13880TIP3   OH263130   5.499   4.937   2.593 -0.2448  0.1499  0.1631
13880TIP3    H163131   5.477   4.939   2.686  0.3159  1.3426  0.2658
13880TIP3    H263132   5.580   4.986   2.586  1.4229 -2.5627 -0.5065
13881TIP3   OH263133   6.605   6.259  16.986  0.5377 -0.2222 -0.4027
13881TIP3    H163134   6.649   6.333  16.944 -1.6305  0.7518 -1.0032
13881TIP3    H263135   6.658   6.183  16.960  1.1143  0.7545 -2.2282
13882TIP3   OH263136   4.472   3.089  11.373  0.0049  0.3248  0.4179
13882TIP3    H163137   4.467   3.168  11.319 -0.7551  0.6595  0.9592
13882TIP3    H263138   4.566   3.071  11.381  0.1580  0.8449 -0.1859
13883TIP3   OH263139   5.665   2.814  13.023 -0.4056 -0.6108 -0.8905
13883TIP3    H163140   5.722   2.836  13.097  1.0786 -2.1891 -1.5372
13883TIP3    H263141   5.657   2.896  12.974  1.4391 -0.4091 -0.8661
13884TIP3   OH263142   0.366   0.914  12.188 -0.4208  0.0799 -0.0384
13884TIP3    H163143   0.431   0.969  12.146 -0.5548 -0.8054 -1.4519
13884TIP3    H263144   0.282   0.956  12.168 -0.5307 -0.6646 -1.2026
13885TIP3   OH263145   4.158   2.004   4.785  0.3871  0.1456 -0.1462
13885TIP3    H163146   4.218   1.929   4.781  1.3019  0.6700  2.4611
13885TIP3    H263147   4.202   2.067   4.843 -1.8471  1.3273  0.3418
13886TIP3   OH263148   0.397   4.415  16.624 -0.2972  0.2622 -0.4389
13886TIP3    H163149   0.422   4.323  16.626  1.8022  0.8050 -1.2129
13886TIP3    H263150   0.471   4.460  16.585 -0.2776  2.6106  2.1021
13887TIP3   OH263151   5.411   4.291  14.124  0.4994  0.6108  0.0616
13887TIP3    H163152   5.407   4.379  14.161  0.1679  1.1069 -1.1515
13887TIP3    H263153   5.395   4.233  14.199  0.7275  1.5726  0.8618
13888TIP3   OH263154   6.223   6.188   3.415 -0.3532 -0.1698 -0.4346
13888TIP3    H163155   6.232   6.155   3.504  0.2448  1.0627 -0.0351
13888TIP3    H263156   6.255   6.278   3.419 -1.5025  0.2972 -1.6331
13889TIP3   OH263157   2.706   1.099  12.731 -0.0711 -0.1210  0.9137
13889TIP3    H163158   2.696   1.014  12.690 -0.4994 -0.5879  1.9626
13889TIP3    H263159   2.772   1.086  12.799  0.9990  0.7618  0.0667
13890TIP3   OH263160   6.554   1.142   6.593 -0.0228  0.3637 -0.2884
13890TIP3    H163161   6.520   1.095   6.669  1.0160  1.9360  1.1720
13890TIP3    H263162   6.546   1.079   6.521 -0.6780 -1.2741  1.1762
13891TIP3   OH263163   4.698   4.527  10.881  0.4469  0.0810 -0.6471
13891TIP3    H163164   4.743   4.447  10.907 -0.3474 -0.4243 -0.8166
13891TIP3    H263165   4.661   4.507  10.795  0.5371  0.7489 -0.8447
13892TIP3   OH263166   1.618   1.321   1.171  0.1898 -0.7012  0.1919
13892TIP3    H163167   1.709   1.339   1.196  0.3244 -2.2104  0.8390
13892TIP3    H263168   1.588   1.256   1.234 -1.1095 -0.7686 -0.4741
13893TIP3   OH263169   4.978   0.581  16.572 -0.4166  0.3143 -0.2747
13893TIP3    H163170   4.896   0.565  16.524 -2.0580  3.0136  1.4439
13893TIP3    H263171   4.977   0.517  16.642 -0.0852 -0.9362 -1.4036
13894TIP3   OH263172   0.323   4.531   0.686 -0.1463  0.2118 -0.3214
13894TIP3    H163173   0.305   4.559   0.596 -0.0247  0.3115 -0.3140
13894TIP3    H263174   0.244   4.483   0.712 -0.0084 -0.1795 -0.6286
13895TIP3   OH263175   0.109   3.090  15.722  0.4045  0.0330  0.6295
13895TIP3    H163176   0.131   3.049  15.806  3.0154  0.3736  0.1404
13895TIP3    H263177   0.176   3.156  15.709 -0.4242  0.5155 -1.3786
13896TIP3   OH263178   3.579   6.156  11.652 -0.4464  0.3389 -0.4055
13896TIP3    H163179   3.576   6.182  11.744  2.4860  1.7515 -0.6882
13896TIP3    H263180   3.512   6.210  11.609 -1.1790  0.3231  0.6990
13897TIP3   OH263181   2.485   0.089   2.277 -0.3524  0.3394 -0.1671
13897TIP3    H163182   2.403   0.139   2.278  0.1218  1.1235  1.0657
13897TIP3    H263183   2.486   0.042   2.360  0.7297  0.8083  0.0950
13898TIP3   OH263184   3.747   0.988  10.659  0.2711  0.3030  0.4473
13898TIP3    H163185   3.698   0.910  10.684 -0.2642  0.3562 -0.4193
13898TIP3    H263186   3.827   0.983  10.711 -0.3598 -0.1100  1.4064
13899TIP3   OH263187   5.257   6.526  13.373  0.5011  0.2084  0.2848
13899TIP3    H163188   5.228   6.605  13.328 -1.3997 -0.5523  0.1094
13899TIP3    H263189   5.266   6.553  13.465  0.8206  0.8543  0.0699
13900TIP3   OH263190   0.505   2.965  13.472 -0.7240 -0.6555 -0.6760
13900TIP3    H163191   0.513   3.056  13.499 -2.3519 -0.8475  0.5247
13900TIP3    H263192   0.586   2.923  13.504  0.1981  0.4114 -1.5578
13901TIP3   OH263193   5.503   4.798   5.956 -0.0944 -0.5748  0.4002
13901TIP3    H163194   5.425   4.753   5.989 -1.8698  2.1600  0.0961
13901TIP3    H263195   5.479   4.826   5.868  0.7136  1.4806  0.8082
13902TIP3   OH263196   3.004   5.058   0.206  0.3002 -0.1200  0.2078
13902TIP3    H163197   3.067   5.016   0.265  0.7452 -0.8853 -0.7945
13902TIP3    H263198   2.919   5.042   0.246  0.3679 -2.7691 -0.5591
13903TIP3   OH263199   5.404   0.031   0.680 -0.1514 -0.5233  0.4767
13903TIP3    H163200   5.483   0.043   0.733 -0.2646 -0.8586  0.7242
13903TIP3    H263201   5.332   0.043   0.742 -0.2743 -2.1920  0.6827
13904TIP3   OH263202   0.675   2.851  13.244 -0.2108 -0.0428 -0.6007
13904TIP3    H163203   0.657   2.879  13.334 -0.9783 -0.6725 -0.5626
13904TIP3    H263204   0.589   2.835  13.206  0.1169  0.1520 -1.4329
13905TIP3   OH263205   5.342   0.678   2.719 -0.0334  0.3836 -0.0477
13905TIP3    H163206   5.358   0.721   2.635 -1.3511 -0.1705 -0.5968
13905TIP3    H263207   5.295   0.598   2.696 -0.2952  0.1732  1.2045
13906TIP3   OH263208   0.676   5.305   4.823 -0.4604 -0.1455  0.3063
13906TIP3    H163209   0.668   5.381   4.766 -0.0109  0.4943  1.0747
13906TIP3    H263210   0.595   5.304   4.874 -0.2476  0.1193  0.6520
13907TIP3   OH263211   4.233   6.128   4.707 -0.1131  0.0525  0.4147
13907TIP3    H163212   4.240   6.103   4.615 -0.7491  0.1717  0.3304
13907TIP3    H263213   4.177   6.205   4.706 -2.7335 -1.7947  1.1990
13908TIP3   OH263214   4.437   6.267   3.053  0.5208  0.1459 -0.0704
13908TIP3    H163215   4.437   6.306   2.965 -2.9874 -1.7586 -0.9811
13908TIP3    H263216   4.430   6.342   3.112 -2.1559  1.1970 -1.6510
13909TIP3   OH263217   4.255   0.092  15.437  0.0916  0.6122 -0.2730
13909TIP3    H163218   4.305   0.172  15.418  4.4763 -2.2126 -1.4352
13909TIP3    H263219   4.204   0.076  15.358  0.2662  1.5233 -0.5793
13910TIP3   OH263220   5.483   1.797   5.092  0.2173  0.0045  0.2079
13910TIP3    H163221   5.486   1.887   5.123 -0.3955 -1.3144  4.2906
13910TIP3    H263222   5.404   1.793   5.038 -1.3854  1.2125  2.3959
13911TIP3   OH263223   0.055   6.361  14.027  0.1947  0.4046 -0.1472
13911TIP3    H163224   0.095   6.400  14.104 -0.4575  1.0669 -0.1457
13911TIP3    H263225   0.118   6.377  13.957 -0.8311  3.0117 -0.5245
13912TIP3   OH263226   6.713   3.614  14.751  0.1188  0.4875 -0.1016
13912TIP3    H163227   6.739   3.530  14.714 -2.7745 -0.7600  0.6035
13912TIP3    H263228   6.793   3.650  14.787  1.1021 -2.7437  1.1053
13913TIP3   OH263229   2.761   1.200   2.860 -0.5035 -0.0862  0.4243
13913TIP3    H163230   2.670   1.196   2.831  0.0598 -1.9283 -1.2237
13913TIP3    H263231   2.805   1.253   2.794  0.1333 -1.5231 -0.3416
13914TIP3   OH263232   2.573   4.707  11.834 -0.1339 -0.7262 -0.0057
13914TIP3    H163233   2.521   4.705  11.753 -0.7656 -0.4935  0.3863
13914TIP3    H263234   2.523   4.764  11.892  1.2155  0.5075 -0.0461
13915TIP3   OH263235   0.995   4.090   3.559 -0.3482 -0.0460  0.0292
13915TIP3    H163236   0.900   4.101   3.557 -0.6245 -2.4306 -1.8191
13915TIP3    H263237   1.024   4.150   3.628 -3.0870  1.3296  0.0738
13916TIP3   OH263238   3.894   0.699   1.455 -0.3615 -0.2984 -0.1371
13916TIP3    H163239   3.931   0.770   1.508  2.5997 -0.5699 -1.7516
13916TIP3    H263240   3.826   0.742   1.402 -0.2315  0.8463  0.5923
13917TIP3   OH263241   5.408   4.325   2.865 -0.0400 -0.0835  0.2547
13917TIP3    H163242   5.475   4.349   2.929 -0.1345  0.1756  0.2587
13917TIP3    H263243   5.458   4.300   2.787  0.0708 -0.2517  0.3790
13918TIP3   OH263244   2.650   0.013  12.016 -0.3199 -0.0763 -0.5345
13918TIP3    H163245   2.676  -0.026  12.100  1.6249  1.1362 -0.5311
13918TIP3    H263246   2.562  -0.020  12.000 -0.7484 -0.3003  2.0282
13919TIP3   OH263247   6.612   5.605  13.576 -0.0369 -0.1622  0.1250
13919TIP3    H163248   6.647   5.576  13.660  0.6229 -2.1373 -0.8132
13919TIP3    H263249   6.686   5.645  13.531 -0.2995  0.5435  0.3044
13920TIP3   OH263250   0.153   3.021   4.366  0.1951 -0.3340 -0.5165
13920TIP3    H163251   0.162   3.047   4.274 -0.9957 -0.3990 -0.6558
13920TIP3    H263252   0.059   3.026   4.383  0.4340 -0.0769  0.7768
13921TIP3   OH263253   4.095   2.557  12.695 -0.0258 -0.6482  0.1447
13921TIP3    H163254   4.181   2.570  12.655 -1.2982 -0.2797 -2.5509
13921TIP3    H263255   4.104   2.474  12.743  1.4002 -1.4042 -1.3684
13922TIP3   OH263256   6.205   5.445  15.412  0.2609 -0.5815  0.4727
13922TIP3    H163257   6.211   5.389  15.489 -4.5355 -1.7501  0.1774
13922TIP3    H263258   6.163   5.525  15.443 -0.1640 -0.3717 -0.5934
13923TIP3   OH263259   2.954   3.851  13.742 -0.3796 -0.4802  0.1882
13923TIP3    H163260   2.865   3.818  13.730  0.3464 -2.3895 -0.0823
13923TIP3    H263261   2.960   3.926  13.683 -1.8592 -0.2291  0.3410
13924TIP3   OH263262   0.083   6.461  16.137  0.0041  0.1872 -0.0590
13924TIP3    H163263   0.063   6.538  16.084  1.2305  1.4956  1.3227
13924TIP3    H263264   0.155   6.418  16.091 -1.6741 -1.0172 -1.6453
13925TIP3   OH263265   1.805   4.125   4.181 -0.2850  0.1205  0.1124
13925TIP3    H163266   1.831   4.071   4.255 -1.2881  2.2654  2.0898
13925TIP3    H263267   1.875   4.189   4.171 -0.4145  0.1808 -0.4157
13926TIP3   OH263268   5.359   6.158  11.153  0.3016 -0.0941 -0.2634
13926TIP3    H163269   5.393   6.145  11.065  0.5608  1.3720 -0.3937
13926TIP3    H263270   5.426   6.122  11.211  0.6611 -0.0047 -0.6237
13927TIP3   OH263271   5.555   1.292   2.500  0.2110 -0.6662  0.0955
13927TIP3    H163272   5.563   1.384   2.475  1.1539 -1.3895 -2.3525
13927TIP3    H263273   5.603   1.286   2.583  1.0902  0.8336 -0.2907
13928TIP3   OH263274   6.524   3.105   1.904 -0.0624 -0.0505  0.1570
13928TIP3    H163275   6.511   3.102   1.998 -0.8261  0.6912  0.0810
13928TIP3    H263276   6.599   3.163   1.892 -0.2521  0.2260  0.2904
13929TIP3   OH263277   2.880   6.382  16.693  0.0526 -0.0042 -0.7258
13929TIP3    H163278   2.827   6.308  16.664 -1.4419  0.4947  0.7080
13929TIP3    H263279   2.967   6.344  16.708 -0.8808 -1.6481  0.7560
13930TIP3   OH263280   1.566   6.754  11.274  0.3511  0.1859 -0.6350
13930TIP3    H163281   1.518   6.829  11.310  3.2567  1.8107  0.0486
13930TIP3    H263282   1.550   6.684  11.337  1.3135  1.5734  1.2067
13931TIP3   OH263283   3.784   3.374  12.182  0.3760  0.1971  0.0311
13931TIP3    H163284   3.752   3.284  12.179  1.0523 -0.0493 -0.0528
13931TIP3    H263285   3.876   3.365  12.207  0.5762  0.8366 -0.4638
13932TIP3   OH263286   4.712   5.889  15.252 -0.0092 -0.0746 -0.1073
13932TIP3    H163287   4.666   5.894  15.336 -0.0735 -0.7798 -0.1007
13932TIP3    H263288   4.656   5.833  15.197  0.3206 -0.0814 -0.4376
13933TIP3   OH263289   0.271   4.247  15.096  0.1407 -0.2366  0.0266
13933TIP3    H163290   0.255   4.216  15.185  1.7803  0.0032  0.4258
13933TIP3    H263291   0.190   4.228  15.049 -1.3240  1.0697  1.9562
13934TIP3   OH263292   5.140   2.392   3.375  0.2112  0.0822  0.4987
13934TIP3    H163293   5.149   2.470   3.322  0.9496 -0.2522  0.1231
13934TIP3    H263294   5.229   2.357   3.382 -0.1437 -0.8467  0.4639
13935TIP3   OH263295   5.851   4.121   4.687  0.3470 -0.0247 -1.1185
13935TIP3    H163296   5.806   4.047   4.646  0.6176 -1.5765  1.3537
13935TIP3    H263297   5.785   4.191   4.688 -1.4245 -1.6594  0.6744
13936TIP3   OH263298   1.478   6.434   6.690  0.1122 -0.5790 -0.1213
13936TIP3    H163299   1.418   6.432   6.765 -0.0432 -0.4196 -0.2414
13936TIP3    H263300   1.538   6.361   6.705  0.4648 -0.1724  0.4766
13937TIP3   OH263301   5.641   1.823   3.425 -0.2252 -0.6385 -0.4575
13937TIP3    H163302   5.602   1.884   3.487 -0.0654 -1.1940  0.2084
13937TIP3    H263303   5.725   1.862   3.402 -0.3311 -0.3768 -0.3956
13938TIP3   OH263304   3.315   0.320   2.948  0.4933  0.6826  0.5703
13938TIP3    H163305   3.291   0.243   2.897  2.1199  1.4613 -1.4167
13938TIP3    H263306   3.339   0.285   3.034 -1.4019 -0.7221  0.5661
13939TIP3   OH263307   3.222   3.145  12.650 -0.7897  0.4063 -0.1652
13939TIP3    H163308   3.227   3.119  12.558  0.1263  0.4111 -0.1173
13939TIP3    H263309   3.313   3.146  12.680 -1.0044  1.3691  0.4786
13940TIP3   OH263310   2.044   4.171   6.324  0.1974 -0.1903 -0.0049
13940TIP3    H163311   1.967   4.149   6.377  1.0405 -1.7371  0.6178
13940TIP3    H263312   2.037   4.265   6.309 -1.1823 -0.1066  1.0600
13941TIP3   OH263313   0.773   1.559  15.641 -0.2320  0.1139 -0.1001
13941TIP3    H163314   0.790   1.468  15.664 -2.5962 -0.6673 -1.2427
13941TIP3    H263315   0.727   1.596  15.716  3.8570  1.4651  1.8774
13942TIP3   OH263316   3.950   5.838   5.614 -0.3007 -1.2328 -0.0590
13942TIP3    H163317   3.933   5.853   5.707 -1.0885 -0.2417 -0.3525
13942TIP3    H263318   4.045   5.837   5.607 -0.2324 -1.9947  0.8617
13943TIP3   OH263319   6.656   3.914  14.891  0.2266 -0.3108 -0.0767
13943TIP3    H163320   6.639   3.865  14.971  0.2240  1.9450  1.3607
13943TIP3    H263321   6.580   3.971  14.880  0.8153  0.3372 -0.9592
13944TIP3   OH263322   6.569   4.014  14.166  0.2560 -0.3163 -0.0154
13944TIP3    H163323   6.477   3.988  14.176 -0.0958  0.4761 -1.1046
13944TIP3    H263324   6.617   3.956  14.225 -0.8284 -1.4452 -0.2257
13945TIP3   OH263325   2.767   3.698  16.184  0.4009 -0.4604 -0.1961
13945TIP3    H163326   2.828   3.632  16.219  1.8198  0.3929 -1.0043
13945TIP3    H263327   2.703   3.647  16.134 -0.5936 -1.5195  2.0681
13946TIP3   OH263328   0.341   5.243   0.283 -0.5182 -0.1138  0.2016
13946TIP3    H163329   0.391   5.202   0.212  1.8290  0.1770  1.6331
13946TIP3    H263330   0.336   5.176   0.351  0.9107  0.9874  1.4327
13947TIP3   OH263331   0.477   4.893  15.225 -0.1597  0.4050 -0.3002
13947TIP3    H163332   0.502   4.978  15.261 -0.5256  0.3684  0.0505
13947TIP3    H263333   0.485   4.833  15.299 -0.6994  0.2851 -0.3332
13948TIP3   OH263334   4.633   2.467  15.021  0.0452  0.2631  0.2130
13948TIP3    H163335   4.648   2.433  15.109  3.0804 -0.1264 -0.4092
13948TIP3    H263336   4.646   2.391  14.964 -0.2620  0.8751 -0.6842
13949TIP3   OH263337   6.139   5.253   2.963 -0.4083  0.0534  0.0441
13949TIP3    H163338   6.226   5.229   2.996 -0.4703 -0.7395 -0.3438
13949TIP3    H263339   6.080   5.239   3.037 -0.4399 -1.0128 -0.1702
13950TIP3   OH263340   2.649   4.815  12.566  0.1339  0.7199 -0.1604
13950TIP3    H163341   2.709   4.888  12.552 -1.4825  2.3022  0.8992
13950TIP3    H263342   2.562   4.853  12.556 -0.7544 -0.9410  0.9273
13951TIP3   OH263343   0.757   5.932   5.225  0.5234  0.3505  0.5061
13951TIP3    H163344   0.713   5.938   5.141  0.1681 -0.3759  0.6431
13951TIP3    H263345   0.725   6.008   5.274  0.8199  0.8371 -0.0477
13952TIP3   OH263346   6.728   2.618   4.448 -0.4377  0.5982 -0.0704
13952TIP3    H163347   6.746   2.609   4.355 -0.9432 -1.2497 -0.0052
13952TIP3    H263348   6.643   2.661   4.452  0.1943  1.9050 -0.4387
13953TIP3   OH263349   1.313   3.505  14.003  0.4541 -0.2784 -0.4785
13953TIP3    H163350   1.296   3.504  13.909  1.1237 -0.8992 -0.6024
13953TIP3    H263351   1.392   3.452  14.013  0.1151 -0.6145  0.4879
13954TIP3   OH263352   5.742   6.258  17.082 -0.2177 -0.3688  0.6271
13954TIP3    H163353   5.701   6.230  17.000 -0.4027 -2.3233  1.3497
13954TIP3    H263354   5.771   6.348  17.066 -0.5725 -0.6142 -1.4573
13955TIP3   OH263355   2.056   6.665   1.394  0.0646 -0.4929 -0.3622
13955TIP3    H163356   2.126   6.724   1.366 -1.1784  1.6921  1.0173
13955TIP3    H263357   2.093   6.619   1.470  0.1338  0.3938  0.1459
13956TIP3   OH263358   3.422   2.084  11.639 -0.0405 -0.0097  0.4306
13956TIP3    H163359   3.332   2.080  11.608  0.9437 -1.4650 -2.4351
13956TIP3    H263360   3.463   2.153  11.585  0.6699  0.3392  1.3949
13957TIP3   OH263361   4.069   5.737  16.656 -0.4674 -0.1796 -0.3830
13957TIP3    H163362   4.034   5.812  16.608 -1.0430 -0.8647 -1.0470
13957TIP3    H263363   4.122   5.690  16.592 -0.4753 -0.5836 -0.0957
13958TIP3   OH263364   0.444   1.786  12.252 -0.1222  0.1398 -0.0742
13958TIP3    H163365   0.403   1.746  12.175  1.2434 -0.7846 -0.3578
13958TIP3    H263366   0.402   1.871  12.261 -0.5750  0.1003 -1.6285
13959TIP3   OH263367   2.325   0.375   1.698 -0.5227  0.2933 -0.4175
13959TIP3    H163368   2.282   0.438   1.755 -2.6716 -0.4253 -1.1844
13959TIP3    H263369   2.259   0.353   1.633  0.4523 -2.1236 -0.6448
13960TIP3   OH263370   2.839   5.941  13.081 -0.2018  0.3214 -0.1983
13960TIP3    H163371   2.778   6.003  13.122 -0.8709  1.0002 -2.1682
13960TIP3    H263372   2.896   5.995  13.027 -0.0750 -0.6745 -1.0774
13961TIP3   OH263373   2.875   2.023  13.059  0.2916  0.2481  0.7766
13961TIP3    H163374   2.941   2.066  13.004 -0.0896  1.0051  0.8940
13961TIP3    H263375   2.845   1.948  13.007  3.1735 -1.7243  1.8352
13962TIP3   OH263376   1.340   0.103   3.812  0.2074 -0.2501  0.0915
13962TIP3    H163377   1.342   0.024   3.867  2.0210 -1.9752 -2.3288
13962TIP3    H263378   1.418   0.152   3.838 -0.1194  0.0249  0.5624
13963TIP3   OH263379   1.049   3.923   5.575  0.3827 -0.0468  0.5964
13963TIP3    H163380   0.955   3.925   5.556  0.6074  0.9657 -0.4941
13963TIP3    H263381   1.090   3.912   5.489  1.2791  0.1812  0.9941
13964TIP3   OH263382   1.518   6.685   0.728 -0.0731  0.3771 -0.2505
13964TIP3    H163383   1.590   6.631   0.695  0.4184  1.1864 -0.5120
13964TIP3    H263384   1.550   6.721   0.810 -1.1617 -1.3351  0.9577
13965TIP3   OH263385   4.909   6.041  15.363 -0.2454 -0.4721  0.1132
13965TIP3    H163386   4.851   5.985  15.311 -1.5775  0.6459  0.3830
13965TIP3    H263387   4.891   6.015  15.454 -0.1605 -0.2638  0.1882
13966TIP3   OH263388   5.950   3.536   5.650 -0.0107  0.3568  0.1671
13966TIP3    H163389   5.917   3.472   5.588  1.2628 -0.4492  0.3230
13966TIP3    H263390   5.924   3.502   5.736  1.5535 -0.4732  0.3145
13967TIP3   OH263391   4.785   0.077  15.270 -0.4938  0.3088 -0.7905
13967TIP3    H163392   4.776   0.096  15.177 -1.8829  1.5627 -0.4182
13967TIP3    H263393   4.798  -0.017  15.274  0.6805  0.3853 -2.3171
13968TIP3   OH263394   0.404   1.977   1.232 -0.8452  0.0212  0.0708
13968TIP3    H163395   0.486   1.959   1.279 -0.5588 -0.8622 -0.7517
13968TIP3    H263396   0.432   1.997   1.143 -1.4534  0.8202  0.0557
13969TIP3   OH263397   3.308   2.064  11.967 -0.1313  0.1432 -0.0376
13969TIP3    H163398   3.248   2.106  11.906  0.7863 -0.0675 -1.1163
13969TIP3    H263399   3.381   2.125  11.975 -1.1195  1.0717  2.4170
13970TIP3   OH263400   2.790   5.968  11.114  0.1291  0.1074 -0.1923
13970TIP3    H163401   2.729   6.031  11.152 -0.8928 -1.3535  0.6000
13970TIP3    H263402   2.806   6.002  11.025  1.5793  2.8581  1.0335
13971TIP3   OH263403   4.937   1.427   3.339 -0.5307 -0.7302  0.2182
13971TIP3    H163404   4.883   1.501   3.314  0.2562  0.2501  1.3848
13971TIP3    H263405   4.881   1.350   3.325 -1.8282  0.1813  0.3466
13972TIP3   OH263406   6.806   0.355  13.154 -0.6461  0.0812  0.4969
13972TIP3    H163407   6.796   0.274  13.203 -2.3466  0.4208  0.7347
13972TIP3    H263408   6.869   0.407  13.205  1.5692 -1.6280 -0.3988
13973TIP3   OH263409   2.796   1.170  12.145 -0.6018  0.3260 -0.7431
13973TIP3    H163410   2.883   1.188  12.180 -0.4342 -0.2342 -0.8773
13973TIP3    H263411   2.738   1.224  12.199 -0.2046  0.4954 -0.4784
13974TIP3   OH263412   1.992   4.314  17.088 -0.6752  0.5648 -0.0166
13974TIP3    H163413   1.932   4.317  17.013  1.0437  1.6647 -1.3819
13974TIP3    H263414   2.072   4.356  17.057  0.1694  0.8173  2.3747
13975TIP3   OH263415   4.378   2.076  14.229 -0.2462  0.2255  0.0900
13975TIP3    H163416   4.391   2.163  14.190 -2.1466  1.3394  1.8599
13975TIP3    H263417   4.404   2.087  14.321 -1.3214 -0.8606  0.5316
13976TIP3   OH263418   4.871   0.131  13.763  0.3733 -0.1087 -0.2747
13976TIP3    H163419   4.826   0.089  13.836 -0.0546  0.7322 -0.0499
13976TIP3    H263420   4.820   0.211  13.746  1.0928  0.2446 -0.7927
13977TIP3   OH263421   5.564   6.539  12.390 -0.2212 -0.8369 -0.8827
13977TIP3    H163422   5.656   6.553  12.409 -0.0333 -2.9058 -0.0736
13977TIP3    H263423   5.549   6.447  12.413 -2.4684 -0.5331 -1.0161
13978TIP3   OH263424   3.853   5.035   5.024  0.3412 -0.9332  0.5380
13978TIP3    H163425   3.785   4.974   4.997 -0.4386  0.2014 -0.0926
13978TIP3    H263426   3.885   4.999   5.107 -2.4925 -0.3531  1.9491
13979TIP3   OH263427   0.753   1.781   5.848  0.2975  0.3064  0.1042
13979TIP3    H163428   0.831   1.751   5.894 -0.5867 -0.5896  1.0684
13979TIP3    H263429   0.748   1.875   5.868 -1.0404 -0.3675  3.4339
13980TIP3   OH263430   2.089   2.691  16.737 -0.5883 -0.4415  0.0746
13980TIP3    H163431   2.087   2.748  16.660  0.2347 -1.0771 -0.4284
13980TIP3    H263432   2.016   2.630  16.724 -1.7307  0.7642  0.8234
13981TIP3   OH263433   6.127   3.593  15.800  0.2686 -0.0998  0.4215
13981TIP3    H163434   6.122   3.518  15.741 -1.2139  1.7791 -1.9027
13981TIP3    H263435   6.219   3.596  15.827  0.8129 -1.4337 -1.2080
13982TIP3   OH263436   2.009   1.085  13.151  0.0131 -0.0344 -0.1644
13982TIP3    H163437   2.086   1.130  13.185 -0.2862  0.8223 -0.6035
13982TIP3    H263438   1.938   1.149  13.158  0.1954  0.6518 -3.5355
13983TIP3   OH263439   3.089   2.379   5.044 -0.3974  0.1108 -0.1649
13983TIP3    H163440   3.136   2.430   4.978  2.4337 -1.3063  0.6946
13983TIP3    H263441   3.062   2.300   4.998 -0.9831  0.4281 -0.3703
13984TIP3   OH263442   4.885   0.495   2.626 -0.2772 -0.1206  0.0734
13984TIP3    H163443   4.940   0.573   2.611  0.9759 -0.6998  1.5137
13984TIP3    H263444   4.800   0.531   2.652  0.3939  0.7834  1.0721
13985TIP3   OH263445   4.962   2.358  10.144  0.3138 -0.3168 -0.1121
13985TIP3    H163446   4.993   2.448  10.158  0.1849 -0.4512  1.1310
13985TIP3    H263447   4.872   2.368  10.113  0.1530 -0.0188  0.4364
13986TIP3   OH263448   0.810   3.564   1.648 -0.0107  0.3726  0.3723
13986TIP3    H163449   0.734   3.579   1.592 -0.6511  1.3053  1.4587
13986TIP3    H263450   0.848   3.482   1.617 -0.0664  1.1230 -1.7318
13987TIP3   OH263451   5.174   4.992  10.701  0.4207  0.0643 -0.3174
13987TIP3    H163452   5.172   4.898  10.686 -0.2747  0.0991 -0.4727
13987TIP3    H263453   5.113   5.028  10.636  1.4109  0.7109 -0.9067
13988TIP3   OH263454   6.152   5.936   5.134 -0.2987 -0.4436 -0.2327
13988TIP3    H163455   6.132   5.891   5.052  0.9892 -0.3679 -0.5920
13988TIP3    H263456   6.151   6.029   5.111 -0.7986 -0.3855  0.0262
13989TIP3   OH263457   4.108   2.882  11.580  0.7460 -0.0645 -0.1772
13989TIP3    H163458   4.194   2.841  11.572  0.5265 -0.0902 -2.6723
13989TIP3    H263459   4.050   2.811  11.605  1.0049 -0.5605 -0.9665
13990TIP3   OH263460   0.052   5.220  16.511  0.1951 -0.1410  0.5511
13990TIP3    H163461   0.087   5.160  16.577 -0.6923 -0.0079  1.1452
13990TIP3    H263462  -0.026   5.175  16.477  0.1210  0.2107  0.2509
13991TIP3   OH263463   3.626   6.175   6.004 -0.1627 -0.1477  0.2335
13991TIP3    H163464   3.582   6.095   6.034  0.7300 -0.5658  0.4380
13991TIP3    H263465   3.562   6.244   6.018 -0.6067 -0.6908  0.9120
13992TIP3   OH263466   4.029   4.033   4.237 -0.2018  0.0621 -0.0617
13992TIP3    H163467   3.960   3.989   4.187 -0.2591 -0.7622  0.7250
13992TIP3    H263468   4.029   4.123   4.204 -0.7036 -0.2964 -1.0461
13993TIP3   OH263469   1.410   6.654   5.644 -0.2231  0.3287 -0.2418
13993TIP3    H163470   1.439   6.682   5.557 -0.2709  0.4729 -0.2117
13993TIP3    H263471   1.440   6.724   5.702 -0.8031  0.5709 -0.2342
13994TIP3   OH263472   3.173   1.248   3.556  0.3287 -0.6948  0.6812
13994TIP3    H163473   3.167   1.326   3.501  3.0488 -0.5909  0.4545
13994TIP3    H263474   3.158   1.175   3.495  0.7887 -0.4771  0.3030
13995TIP3   OH263475   3.273   2.799  16.294 -0.5479  0.5328  0.6256
13995TIP3    H163476   3.295   2.869  16.356 -1.6156  0.8997  0.6005
13995TIP3    H263477   3.256   2.844  16.212  2.8329 -0.1158 -0.5092
13996TIP3   OH263478   3.450   4.116  10.839  0.4162 -0.6042  0.2654
13996TIP3    H163479   3.468   4.039  10.786 -0.7339 -0.5044 -0.2866
13996TIP3    H263480   3.432   4.081  10.927  0.2888 -0.9410  0.1049
13997TIP3   OH263481   2.466   6.716  15.566  0.6186  0.3345  0.2871
13997TIP3    H163482   2.519   6.655  15.515 -0.9033 -0.1047 -0.8073
13997TIP3    H263483   2.529   6.776  15.606  1.9688 -0.5703 -0.4710
13998TIP3   OH263484   6.300   1.940  14.350  0.6935 -0.0587 -0.0951
13998TIP3    H163485   6.266   1.987  14.426 -0.1095 -1.4296  0.4188
13998TIP3    H263486   6.394   1.958  14.351  0.4015  1.4598  0.1229
13999TIP3   OH263487   0.242   4.434   0.267 -0.6720 -0.1616 -0.1974
13999TIP3    H163488   0.276   4.353   0.305  0.5975 -0.1382 -1.2577
13999TIP3    H263489   0.157   4.448   0.311  0.7119 -0.1465  2.5794
14000TIP3   OH263490   4.186   5.711  12.731 -0.1094 -0.3349 -0.1499
14000TIP3    H163491   4.207   5.689  12.640 -0.0451 -2.7204  0.4293
14000TIP3    H263492   4.264   5.684  12.781  0.7536  2.9161  0.3907
14001TIP3   OH263493   2.606   2.196   4.579  0.2367  0.1454 -0.1128
14001TIP3    H163494   2.578   2.269   4.524  1.1553  0.2580 -0.4449
14001TIP3    H263495   2.553   2.204   4.658  1.2599  1.9799  0.4234
14002TIP3   OH263496   2.762   4.887   3.456  0.4702  0.3368  0.4315
14002TIP3    H163497   2.750   4.860   3.365  1.2376  0.1896  0.3765
14002TIP3    H263498   2.680   4.862   3.499 -0.9441  2.7099 -0.7567
14003TIP3   OH263499   3.168   0.250   0.759 -0.6275 -0.0538  0.9160
14003TIP3    H163500   3.257   0.278   0.735 -0.3586 -1.8736 -0.2917
14003TIP3    H263501   3.174   0.231   0.853 -0.1766  1.4629  1.2076
14004TIP3   OH263502   5.309   2.813  13.039 -0.3953 -0.0135  0.3315
14004TIP3    H163503   5.352   2.737  13.000  2.0320  0.8621  1.2204
14004TIP3    H263504   5.220   2.811  13.004  1.2556 -0.0773 -4.1226
14005TIP3   OH263505   4.419   2.396   4.144 -0.1457 -0.6866 -0.0084
14005TIP3    H163506   4.393   2.465   4.083 -1.0174 -1.0146 -0.0093
14005TIP3    H263507   4.487   2.347   4.098  0.5772  0.2463  0.0429
14006TIP3   OH263508   2.793   6.220   3.494  0.7092 -0.1287  0.0729
14006TIP3    H163509   2.812   6.219   3.587  0.1903 -1.7245  0.1829
14006TIP3    H263510   2.756   6.307   3.478  1.3593  0.3690  1.2267
14007TIP3   OH263511   3.898   6.050  13.237 -0.3187 -0.2988 -0.1709
14007TIP3    H163512   3.981   6.098  13.241  0.6089 -1.9054  0.2146
14007TIP3    H263513   3.861   6.058  13.325  1.0328 -2.3386  0.6188
14008TIP3   OH263514   4.981   0.370  14.603 -0.0874  0.2342 -0.0245
14008TIP3    H163515   4.963   0.442  14.663  0.9770  0.7499 -0.3112
14008TIP3    H263516   5.022   0.302  14.657 -0.0825  0.2794  0.0289
14009TIP3   OH263517   4.790   3.809   2.019  0.1156  0.5047  0.6480
14009TIP3    H163518   4.783   3.751   1.942 -0.7790 -0.6442  1.5830
14009TIP3    H263519   4.717   3.870   2.010  0.4524  0.8483  0.2023
14010TIP3   OH263520   4.867   5.069  13.195  0.2452 -0.2918 -0.3682
14010TIP3    H163521   4.909   5.114  13.122  1.1922  0.1905  0.4544
14010TIP3    H263522   4.895   5.117  13.273 -0.9786 -0.6188  0.2990
14011TIP3   OH263523   5.940   6.158  14.969  0.0368 -0.2767 -0.6334
14011TIP3    H163524   5.931   6.213  15.047 -0.1299  1.5811 -1.9227
14011TIP3    H263525   5.898   6.208  14.900 -0.0850 -2.0436 -1.8733
14012TIP3   OH263526   6.023   4.219  10.323 -0.0689 -0.2500  0.3690
14012TIP3    H163527   5.949   4.207  10.264  1.0893 -1.3381 -0.8928
14012TIP3    H263528   6.092   4.257  10.269  1.1250 -1.5876  0.8948
14013TIP3   OH263529   5.836   4.875   2.999 -0.4672  0.5546  0.1981
14013TIP3    H163530   5.785   4.914   3.070 -1.4519  0.0717 -0.2328
14013TIP3    H263531   5.874   4.796   3.037 -0.5265  0.5997  0.3512
14014TIP3   OH263532   6.542   3.087   2.185  0.0381  0.2174  0.0998
14014TIP3    H163533   6.622   3.092   2.236  0.8146  0.3503 -1.0915
14014TIP3    H263534   6.473   3.069   2.248  1.3173 -2.1569  0.8920
14015TIP3   OH263535   0.154   1.589   3.281  0.1874  0.5420  0.2809
14015TIP3    H163536   0.215   1.634   3.222  0.2085 -0.6541 -0.6298
14015TIP3    H263537   0.078   1.568   3.227 -0.3113  0.5021  0.9834
14016TIP3   OH263538   3.861   5.447   4.427  0.3776 -0.6007  0.5195
14016TIP3    H163539   3.868   5.501   4.506  0.6373  1.6831 -1.0168
14016TIP3    H263540   3.949   5.412   4.414  0.7728  0.4417  0.2999
14017TIP3   OH263541   1.955   2.266   3.281 -0.3060  0.0313  0.2066
14017TIP3    H163542   1.894   2.340   3.284 -0.5183 -0.1698  0.8722
14017TIP3    H263543   2.037   2.300   3.315  0.2415  0.5722 -1.6252
14018TIP3   OH263544   4.273   0.057  15.701  0.1860 -0.3204 -0.6273
14018TIP3    H163545   4.189   0.022  15.730  0.3266 -0.8375 -0.8379
14018TIP3    H263546   4.268   0.055  15.605  0.0922  0.4910 -0.6442
14019TIP3   OH263547   5.664   0.286  13.775 -0.0342  0.3060 -0.5415
14019TIP3    H163548   5.582   0.319  13.812 -1.2865  0.8729 -3.6049
14019TIP3    H263549   5.696   0.357  13.720  0.7821 -1.0994 -1.9461
14020TIP3   OH263550   4.551   5.147   3.081 -0.1880 -0.4243  0.3344
14020TIP3    H163551   4.636   5.190   3.072 -1.3558  2.3536  1.8592
14020TIP3    H263552   4.497   5.184   3.011  0.1701 -3.1653 -1.4800
14021TIP3   OH263553   6.098   2.026  12.568  0.0257 -0.4414 -0.4273
14021TIP3    H163554   6.045   2.104  12.549 -0.1227 -0.3108  0.5258
14021TIP3    H263555   6.058   1.957  12.515  0.1524  0.1214 -1.2706
14022TIP3   OH263556   5.057   3.265  10.627 -0.2370  0.4099 -0.0630
14022TIP3    H163557   5.063   3.290  10.535  1.6285 -0.5382 -0.2292
14022TIP3    H263558   5.121   3.195  10.637 -1.6266 -0.6594  1.5912
14023TIP3   OH263559   0.609   2.566  12.590 -0.3263 -0.0708 -0.2869
14023TIP3    H163560   0.652   2.609  12.663  2.8744  0.9978 -2.6701
14023TIP3    H263561   0.574   2.637  12.536 -1.2367 -0.7715 -0.6430
14024TIP3   OH263562   2.397   3.873  15.638  0.3534  0.0554  0.0245
14024TIP3    H163563   2.336   3.896  15.708  0.2861 -2.4256  0.7966
14024TIP3    H263564   2.342   3.836  15.569  0.5654  1.4201 -0.9158
14025TIP3   OH263565   4.465   2.762  14.622  0.1727 -0.2360  0.0216
14025TIP3    H163566   4.552   2.725  14.640  0.3677  0.4545  0.5268
14025TIP3    H263567   4.429   2.780  14.709 -0.0545  0.4627 -0.2182
14026TIP3   OH263568   4.560   6.296   1.827 -0.1353 -0.3674 -0.1101
14026TIP3    H163569   4.556   6.239   1.903  0.3671  0.8364  0.8432
14026TIP3    H263570   4.470   6.326   1.815  0.0162  0.5432  0.8967
14027TIP3   OH263571   6.614   1.870   5.853  0.1559 -0.1259  0.6484
14027TIP3    H163572   6.623   1.908   5.766  1.8037 -0.1415  0.7797
14027TIP3    H263573   6.522   1.844   5.860  0.0733 -0.3483 -1.1706
14028TIP3   OH263574   3.075   6.489  14.993  0.5470 -0.5610 -0.3293
14028TIP3    H163575   3.117   6.436  14.925  2.4186 -1.0839  1.1631
14028TIP3    H263576   2.982   6.468  14.986  1.0151 -2.5251 -1.1185
14029TIP3   OH263577   5.075   5.828   1.176 -0.3125 -0.6378  0.0594
14029TIP3    H163578   5.109   5.812   1.087 -0.1455  1.8856 -0.3590
14029TIP3    H263579   4.989   5.787   1.176  0.2446 -1.8677 -0.8052
14030TIP3   OH263580   0.709   4.839   4.200  0.1267 -0.0711  0.4073
14030TIP3    H163581   0.710   4.896   4.277  0.6166  2.0977 -1.2000
14030TIP3    H263582   0.626   4.791   4.208 -0.2440  0.7688  1.8154
14031TIP3   OH263583   1.142   2.780   1.357 -0.0132  0.5321 -0.0258
14031TIP3    H163584   1.197   2.712   1.318 -1.8434 -0.7957 -0.3484
14031TIP3    H263585   1.132   2.845   1.288  1.4909  1.0012  0.1797
14032TIP3   OH263586   1.026   1.002  12.893 -0.0580  0.1964 -0.3650
14032TIP3    H163587   1.055   0.915  12.917  1.0262  0.6146 -0.1078
14032TIP3    H263588   1.086   1.061  12.939  0.9420  1.0272 -2.6771
14033TIP3   OH263589   1.177   5.784  12.369 -0.3289 -0.2764  0.3298
14033TIP3    H163590   1.105   5.822  12.318 -0.1923  0.8084  0.9403
14033TIP3    H263591   1.165   5.819  12.457  0.8433 -0.2383  0.4775
14034TIP3   OH263592   0.060   1.088  10.637 -0.3976 -0.2603 -0.1676
14034TIP3    H163593  -0.010   1.105  10.575  0.1450  0.3356 -0.6260
14034TIP3    H263594   0.057   1.161  10.699 -0.1565 -0.2097 -0.2142
14035TIP3   OH263595   5.602   3.265  16.794 -0.3797 -0.1923  0.3997
14035TIP3    H163596   5.537   3.273  16.724 -1.5977  1.1116  1.6214
14035TIP3    H263597   5.641   3.352  16.800  1.1434 -0.8405  0.0174
14036TIP3   OH263598   4.551   2.875   2.105 -0.5154 -0.1005  0.0522
14036TIP3    H163599   4.486   2.870   2.175 -1.0222 -2.1989 -0.5354
14036TIP3    H263600   4.603   2.795   2.114 -0.5728 -0.4033 -1.9174
14037TIP3   OH263601   5.468   3.710  10.559  0.0165  0.5384  0.4291
14037TIP3    H163602   5.387   3.714  10.508 -0.4999  0.3160  1.2098
14037TIP3    H263603   5.446   3.753  10.641  0.7022  0.4953  0.6346
14038TIP3   OH263604   4.963   2.516  13.844 -0.0217 -0.6227 -0.3361
14038TIP3    H163605   4.878   2.474  13.859 -0.9495  1.5806  0.7770
14038TIP3    H263606   4.943   2.592  13.789  1.2678 -0.2562 -0.3128
14039TIP3   OH263607   4.027   1.528   1.738  0.7275 -0.2207  0.1490
14039TIP3    H163608   4.110   1.548   1.695  0.5800  0.7196  0.2831
14039TIP3    H263609   3.984   1.466   1.679  2.7279 -2.9348  1.4388
14040TIP3   OH263610   4.071   6.657  16.660 -0.4530  0.1846  0.3330
14040TIP3    H163611   4.039   6.718  16.727  0.2999 -1.0358  1.8465
14040TIP3    H263612   3.992   6.611  16.631 -0.5336 -0.6433  1.8093
14041TIP3   OH263613   3.863   4.839  16.680  0.3845 -0.1650 -0.2908
14041TIP3    H163614   3.888   4.861  16.770 -2.0382  3.6193 -0.4471
14041TIP3    H263615   3.784   4.786  16.690  1.0214 -1.1210 -0.1939
14042TIP3   OH263616   0.876   0.114  15.574  0.7462  0.1198  0.0686
14042TIP3    H163617   0.953   0.096  15.521  0.2519 -0.8554 -0.3214
14042TIP3    H263618   0.881   0.051  15.646  0.0083 -0.3471 -0.2788
14043TIP3   OH263619   3.426   3.723  11.294  0.4645  0.5900 -0.1117
14043TIP3    H163620   3.358   3.788  11.313  1.7009  2.3298 -1.5208
14043TIP3    H263621   3.377   3.644  11.269 -1.0539  2.0529 -1.8869
14044TIP3   OH263622   4.075   4.654   3.270 -0.3027 -0.0915  0.8071
14044TIP3    H163623   4.043   4.693   3.188  2.1533  0.8612  0.2608
14044TIP3    H263624   4.026   4.699   3.339  0.1464  1.6153  0.0230
14045TIP3   OH263625   4.943   5.180  15.697 -0.4405  0.0753 -0.2809
14045TIP3    H163626   4.995   5.102  15.717  1.3097  1.1018 -0.7548
14045TIP3    H263627   4.924   5.219  15.783  0.9562  0.5720 -0.1915
14046TIP3   OH263628   1.606   2.654  14.924  0.1640 -0.4142 -0.2053
14046TIP3    H163629   1.582   2.641  14.833 -0.8725 -1.0507  0.1485
14046TIP3    H263630   1.574   2.742  14.945 -0.0764 -0.4770 -0.3071
14047TIP3   OH263631   5.272   5.003  13.468 -0.4086  0.2005  0.2495
14047TIP3    H163632   5.180   5.017  13.443 -0.6689  0.4540  1.2937
14047TIP3    H263633   5.305   5.091  13.488 -0.5890 -0.1008  1.9921
14048TIP3   OH263634   3.294   2.535   3.389 -0.3542 -0.3246 -0.1542
14048TIP3    H163635   3.299   2.625   3.420 -0.7053  0.0208 -1.0672
14048TIP3    H263636   3.205   2.507   3.408 -0.0767 -0.6808  0.6506
14049TIP3   OH263637   1.877   5.944   0.641  0.4324 -0.5072 -0.5067
14049TIP3    H163638   1.886   5.886   0.566  0.9313 -1.1372  0.0293
14049TIP3    H263639   1.959   5.992   0.645  0.5485 -0.7304 -0.1564
14050TIP3   OH263640   4.832   2.444   2.784  0.1428 -0.3072 -0.0013
14050TIP3    H163641   4.838   2.349   2.784 -0.6518 -0.4029 -2.6927
14050TIP3    H263642   4.861   2.470   2.697  2.1490  2.0762  1.3144
14051TIP3   OH263643   2.175   5.808   4.495 -0.0981  0.3657  0.0263
14051TIP3    H163644   2.165   5.803   4.400  2.9129  1.5464 -0.4181
14051TIP3    H263645   2.143   5.895   4.519  3.3156  1.8894 -0.6072
14052TIP3   OH263646   0.693   4.641  12.824 -0.2292  0.2810 -0.1370
14052TIP3    H163647   0.659   4.729  12.842 -0.2192  0.2455  0.0474
14052TIP3    H263648   0.669   4.625  12.732 -1.0134  0.1111  0.0959
14053TIP3   OH263649   3.945   4.720  11.722 -0.3767 -0.0719  0.6905
14053TIP3    H163650   3.916   4.803  11.759  1.1873  0.3511  1.0006
14053TIP3    H263651   3.926   4.728  11.628 -0.6437  0.4585  0.7878
14054TIP3   OH263652   3.173   3.919   2.916 -0.7325 -0.2402  0.1955
14054TIP3    H163653   3.135   3.902   2.831 -3.6402  3.1534  0.6885
14054TIP3    H263654   3.200   4.011   2.912  0.3035 -0.4099  2.4761
14055TIP3   OH263655   6.817   0.539   5.706 -0.2670 -0.3568  0.3758
14055TIP3    H163656   6.754   0.608   5.684  0.8890  0.0464 -1.7406
14055TIP3    H263657   6.895   0.586   5.735 -0.1597 -0.8221  0.8547
14056TIP3   OH263658   6.130   3.534  12.097 -0.5136  0.3255  0.5496
14056TIP3    H163659   6.182   3.500  12.169  0.3724  2.2941  0.8821
14056TIP3    H263660   6.193   3.551  12.027 -1.1800 -0.3546 -0.2227
14057TIP3   OH263661   6.055   2.211   1.967 -0.0593 -0.3447  0.1426
14057TIP3    H163662   5.964   2.216   1.998 -0.8786 -0.7339 -2.0532
14057TIP3    H263663   6.090   2.131   2.007  0.2582  1.2731  3.2574
14058TIP3   OH263664   3.264   1.086   1.561  0.0887  0.1473 -0.0004
14058TIP3    H163665   3.225   1.057   1.478  0.8091 -0.1772 -0.2307
14058TIP3    H263666   3.282   1.004   1.608  0.5140  0.2970  0.0950
14059TIP3   OH263667   0.579   5.693   1.053  0.6511 -0.6789  0.7169
14059TIP3    H163668   0.621   5.758   0.997  0.2735  1.0555  2.4286
14059TIP3    H263669   0.499   5.669   1.004  1.7528 -1.3095 -0.8159
14060TIP3   OH263670   4.798   5.612   1.469 -0.4199  0.2063 -0.0468
14060TIP3    H163671   4.879   5.641   1.512 -0.2260  1.2134 -1.0809
14060TIP3    H263672   4.745   5.692   1.463  0.0242  0.3247 -2.7053
14061TIP3   OH263673   6.134   3.319   3.850 -0.4742 -0.1131 -0.5933
14061TIP3    H163674   6.176   3.396   3.812 -0.2878  0.4510  0.7253
14061TIP3    H263675   6.188   3.246   3.820  0.0940  0.3877 -0.8135
14062TIP3   OH263676   1.670   4.891   2.820  0.1253  0.3380 -0.2496
14062TIP3    H163677   1.602   4.827   2.799 -1.0995  0.9566  1.6999
14062TIP3    H263678   1.623   4.967   2.852  1.6909  1.1191  0.2667
14063TIP3   OH263679   3.661   3.471   3.279 -0.2336 -0.0427 -0.3093
14063TIP3    H163680   3.707   3.408   3.223  0.3921  0.4426 -0.3439
14063TIP3    H263681   3.705   3.464   3.364 -0.8441 -0.4016 -0.0166
14064TIP3   OH263682   1.078   6.760   2.590 -0.1868 -0.6980  0.3956
14064TIP3    H163683   1.134   6.757   2.667 -0.5797 -2.5767  0.6534
14064TIP3    H263684   1.134   6.732   2.518 -0.1554 -0.1946  0.2239
14065TIP3   OH263685   0.866   6.810   4.715  0.6354 -0.4378 -0.2050
14065TIP3    H163686   0.844   6.717   4.727 -1.4094  0.2194  1.5188
14065TIP3    H263687   0.899   6.837   4.800  0.3461  0.6439 -0.4359
14066TIP3   OH263688   2.518   1.294   4.625  0.3746 -0.0608 -0.1763
14066TIP3    H163689   2.594   1.262   4.674  0.0792  0.6867  0.7950
14066TIP3    H263690   2.548   1.377   4.588  0.8205 -0.9427 -1.8703
14067TIP3   OH263691   5.731   0.680   4.331  0.0501  0.4600  0.1876
14067TIP3    H163692   5.793   0.723   4.390 -0.1953  1.3991 -0.2175
14067TIP3    H263693   5.650   0.674   4.381  0.4079 -0.5616  0.6381
14068TIP3   OH263694   3.665   5.885   2.350 -0.1183  0.1078 -0.0183
14068TIP3    H163695   3.644   5.942   2.424 -0.9904 -0.4732  0.1904
14068TIP3    H263696   3.645   5.797   2.381  2.7265 -0.4982  0.2139
14069TIP3   OH263697   1.265   0.686  11.250 -0.4228  0.2514 -0.1686
14069TIP3    H163698   1.360   0.683  11.247 -0.4082 -0.7420  0.8165
14069TIP3    H263699   1.238   0.676  11.159  0.3894 -1.2533 -0.2606
14070TIP3   OH263700   3.572   0.055   2.901  0.4561 -0.4592 -0.2405
14070TIP3    H163701   3.488   0.029   2.862  0.2113 -0.4714  0.2966
14070TIP3    H263702   3.548   0.104   2.979  0.9532 -0.3779 -0.1379
14071TIP3   OH263703   5.512   2.208  12.656 -0.3745  0.6068 -0.6530
14071TIP3    H163704   5.427   2.241  12.627 -1.1574 -0.3915  0.4583
14071TIP3    H263705   5.505   2.113  12.646  0.5588  0.5059 -0.3912
14072TIP3   OH263706   1.052   5.547  16.501  0.0725 -0.1855  0.2968
14072TIP3    H163707   1.022   5.538  16.592 -2.6622  0.1135 -0.5188
14072TIP3    H263708   0.975   5.581  16.454  1.9130  1.1718 -1.8380
14073TIP3   OH263709   1.526   0.303   2.609 -0.7574  0.0120 -0.1785
14073TIP3    H163710   1.559   0.256   2.532  2.2458  1.0340  0.4187
14073TIP3    H263711   1.547   0.395   2.591  0.5553  0.1882  2.0859
14074TIP3   OH263712   5.934   3.446   0.685 -0.1176  0.2057  0.2623
14074TIP3    H163713   5.959   3.472   0.773  1.6765 -2.3912  0.5672
14074TIP3    H263714   5.839   3.452   0.684 -0.1334  0.6156  2.2662
14075TIP3   OH263715   6.030   2.688   0.816  0.0097 -0.1618  0.4372
14075TIP3    H163716   5.948   2.638   0.821  0.3810 -0.9455 -1.1369
14075TIP3    H263717   6.051   2.706   0.908 -0.9305 -1.5976  0.9725
14076TIP3   OH263718   1.546   1.533  16.938  0.3778 -0.0220 -0.4711
14076TIP3    H163719   1.546   1.606  17.000  0.1973 -1.0455  0.7500
14076TIP3    H263720   1.466   1.547  16.886  0.2761  0.5724 -0.1642
14077TIP3   OH263721   5.926   4.189   3.576  0.4819 -0.2318 -0.4094
14077TIP3    H163722   5.971   4.107   3.596 -0.4452  0.0845  3.1644
14077TIP3    H263723   5.997   4.252   3.561  1.2045 -0.7280  0.8986
14078TIP3   OH263724   3.000   5.759   2.763 -0.2914 -0.1415 -0.1322
14078TIP3    H163725   3.030   5.850   2.762  0.3506 -0.3426  0.7512
14078TIP3    H263726   3.033   5.722   2.681 -0.7705  0.4834 -0.6136
14079TIP3   OH263727   6.355   6.571   2.852 -0.2639  0.0361 -1.1317
14079TIP3    H163728   6.406   6.545   2.929 -0.7498 -1.9072 -1.4566
14079TIP3    H263729   6.276   6.612   2.888  1.1615  2.4797 -0.6265
14080TIP3   OH263730   3.708   5.307   3.225  0.1111  0.1939  0.1647
14080TIP3    H163731   3.723   5.216   3.251 -1.9679 -0.8249 -2.0743
14080TIP3    H263732   3.634   5.336   3.278  0.0273  0.1970  0.0470
14081TIP3   OH263733   1.235   3.403   0.221 -0.0874  0.2967 -0.3447
14081TIP3    H163734   1.261   3.340   0.288  3.4396  0.2180 -1.6710
14081TIP3    H263735   1.211   3.481   0.270  1.1611 -0.1815  1.0874
14082TIP3   OH263736   3.577   3.530  11.627 -0.2703  0.2863  0.3191
14082TIP3    H163737   3.558   3.523  11.721  2.6718 -0.1677  0.9388
14082TIP3    H263738   3.575   3.440  11.595 -0.5229  0.3651  0.1142
14083TIP3   OH263739   0.231   2.740   0.356 -0.2777 -0.5241 -0.7118
14083TIP3    H163740   0.287   2.680   0.306 -1.4380 -1.5485 -0.7922
14083TIP3    H263741   0.162   2.685   0.391  0.2762  0.2601  1.6806
14084TIP3   OH263742   0.825   5.444  17.156  0.2441 -0.3337  0.2661
14084TIP3    H163743   0.802   5.508  17.224 -1.4195 -0.6807  0.0603
14084TIP3    H263744   0.867   5.497  17.087  0.2382  0.3069  0.7456
14085TIP3   OH263745   2.335   1.635  14.426 -0.5055  0.3796  0.0869
14085TIP3    H163746   2.242   1.612  14.429 -0.4701  0.0031 -1.3743
14085TIP3    H263747   2.376   1.577  14.491 -0.9716 -1.0189 -0.8498
14086TIP3   OH263748   1.007   1.663   2.098 -0.5470 -0.0479  0.6808
14086TIP3    H163749   0.994   1.708   2.181 -1.5982 -1.2467  1.1854
14086TIP3    H263750   1.086   1.611   2.110 -0.2697  0.3653  0.6608
14087TIP3   OH263751   6.268   0.184   2.047  0.7408 -0.0540 -0.0310
14087TIP3    H163752   6.227   0.119   1.989  1.7809 -1.5465  0.8993
14087TIP3    H263753   6.352   0.204   2.005  0.5943  0.4095 -0.1089
14088TIP3   OH263754   5.348   6.267  17.150 -0.3565 -0.1165 -0.6779
14088TIP3    H163755   5.394   6.256  17.233 -0.3832 -1.3653 -0.8200
14088TIP3    H263756   5.266   6.312  17.174 -0.5137 -0.7675  0.0133
14089TIP3   OH263757   2.596   2.382   2.572  0.0329 -0.1704  0.6813
14089TIP3    H163758   2.529   2.333   2.619 -0.7739  0.0782 -0.1854
14089TIP3    H263759   2.588   2.353   2.481  0.2614  0.7799  0.3483
14090TIP3   OH263760   6.385   0.680   3.725  0.3134 -0.8983 -0.1708
14090TIP3    H163761   6.464   0.734   3.716  0.6316 -1.4385 -0.6383
14090TIP3    H263762   6.357   0.694   3.815 -0.8641  1.7660 -0.9184
14091TIP3   OH263763   2.231   4.018   4.770 -0.5589 -0.5309  0.1679
14091TIP3    H163764   2.241   3.945   4.709 -0.4773 -0.6780  0.3583
14091TIP3    H263765   2.175   3.984   4.840 -2.1868  0.2052 -0.7558
14092TIP3   OH263766   2.662   3.881  16.716  0.1384  0.3234 -0.0044
14092TIP3    H163767   2.705   3.963  16.691 -0.8853  0.8460 -0.0870
14092TIP3    H263768   2.572   3.907  16.739 -0.5602 -0.9419 -1.2341
14093TIP3   OH263769   1.646   6.444   1.482  0.5944 -0.4197  0.4736
14093TIP3    H163770   1.582   6.406   1.541 -1.1627  2.1182  0.3021
14093TIP3    H263771   1.702   6.498   1.538 -0.0367  0.6475  0.1145
14094TIP3   OH263772   0.274   0.491   2.508  0.3628  0.2766 -0.3168
14094TIP3    H163773   0.352   0.454   2.466  0.7596 -1.2308  1.6934
14094TIP3    H263774   0.294   0.585   2.516  3.1556 -0.4426  2.5306
14095TIP3   OH263775   2.012   1.324  15.300 -0.1708 -0.1499  0.9929
14095TIP3    H163776   1.969   1.249  15.259 -1.0702 -0.3759  2.3597
14095TIP3    H263777   2.097   1.290  15.327  0.0689 -0.2407  0.1650
14096TIP3   OH263778   0.910   1.197  12.435 -0.3223 -0.7496 -0.8131
14096TIP3    H163779   0.845   1.232  12.495  0.8262 -1.2711  0.7651
14096TIP3    H263780   0.968   1.271  12.416  2.3598 -1.7599  2.8615
14097TIP3   OH263781   3.842   3.965  16.386  0.3189  0.2122 -0.4328
14097TIP3    H163782   3.808   4.014  16.462  0.0280  0.8661 -0.9788
14097TIP3    H263783   3.925   4.007  16.366  1.2020 -1.0131  0.5426
14098TIP3   OH263784   4.392   1.562  16.351 -0.2984 -0.2319 -0.3834
14098TIP3    H163785   4.381   1.639  16.407  0.8359  0.0425 -0.5174
14098TIP3    H263786   4.308   1.516  16.356 -1.2617  1.4266 -0.9341
14099TIP3   OH263787   4.594   2.251   4.969 -0.0505  0.2797 -0.8723
14099TIP3    H163788   4.603   2.233   4.875 -2.0885  2.5261 -1.5467
14099TIP3    H263789   4.664   2.312   4.989  1.8427 -1.9823 -0.3631
14100TIP3   OH263790   6.227   6.357  14.130 -0.2319  0.1810  0.0598
14100TIP3    H163791   6.149   6.406  14.159 -0.7331 -0.6694  0.1692
14100TIP3    H263792   6.279   6.421  14.082 -1.3348  0.5946 -0.6029
14101TIP3   OH263793   6.512   5.935   3.003  0.2534  0.4751  0.4817
14101TIP3    H163794   6.422   5.964   3.018 -0.6502 -1.2093 -1.3816
14101TIP3    H263795   6.566   6.007   3.035 -1.7811  1.8695  0.8842
14102TIP3   OH263796   3.168   0.415   4.296  0.4187  0.3691 -0.5931
14102TIP3    H163797   3.114   0.336   4.304  1.2073 -0.1476 -0.3047
14102TIP3    H263798   3.126   0.479   4.354  1.8153 -0.9669  1.9693
14103TIP3   OH263799   3.270   0.017   1.451 -0.7763 -0.6166 -0.0129
14103TIP3    H163800   3.254  -0.033   1.531 -2.0259 -1.0935 -0.5473
14103TIP3    H263801   3.246  -0.042   1.380  1.5649 -0.6618 -0.8049
14104TIP3   OH263802   0.071   3.272   1.138 -0.0305  0.2325 -0.0098
14104TIP3    H163803   0.049   3.350   1.086  1.3023  0.8846  0.3739
14104TIP3    H263804   0.020   3.280   1.218 -0.0523  0.6064 -0.0627
14105TIP3   OH263805   1.781   2.478  14.687 -0.5156 -0.5780 -0.4328
14105TIP3    H163806   1.792   2.521  14.602 -0.7959  0.7228  0.1944
14105TIP3    H263807   1.862   2.427  14.698  0.0048  0.1246 -0.9666
14106TIP3   OH263808   3.428   0.817  14.512  0.1093 -0.1741  0.4960
14106TIP3    H163809   3.364   0.876  14.474  1.5906  0.8486 -0.4772
14106TIP3    H263810   3.391   0.729  14.500 -0.7413  0.3524 -0.7492
14107TIP3   OH263811   3.414   6.756  16.778 -0.5194  0.9901 -0.5587
14107TIP3    H163812   3.410   6.718  16.866 -0.2148  1.3921 -0.3696
14107TIP3    H263813   3.392   6.683  16.719  2.1519 -0.0232 -0.3489
14108TIP3   OH263814   0.667   4.501   5.111 -0.4681  0.3656 -0.5429
14108TIP3    H163815   0.708   4.586   5.095  0.1662  0.1777  0.0621
14108TIP3    H263816   0.601   4.520   5.178  1.2450 -0.0314  1.3008
14109TIP3   OH263817   0.530   6.662   4.297  0.2652 -0.1923  0.2158
14109TIP3    H163818   0.446   6.620   4.278 -0.3239  1.3845 -0.7435
14109TIP3    H263819   0.511   6.726   4.365  0.7066  0.0531  0.1134
14110TIP3   OH263820   4.054   5.301   3.206 -0.0978 -0.0353  0.3775
14110TIP3    H163821   4.084   5.214   3.234  2.1735 -0.4715 -3.0390
14110TIP3    H263822   4.118   5.361   3.243 -0.3008 -0.0645  0.7729
14111TIP3   OH263823   5.542   5.345   5.052 -0.0691  0.1607  0.2539
14111TIP3    H163824   5.480   5.407   5.089  0.2208  1.2930 -1.0998
14111TIP3    H263825   5.621   5.356   5.105 -0.5185 -0.1525  0.9879
14112TIP3   OH263826   5.456   6.456  13.056 -0.0193 -0.1878  0.0392
14112TIP3    H163827   5.426   6.366  13.060 -1.4370  0.0980 -2.7105
14112TIP3    H263828   5.531   6.453  12.997 -1.5304  0.7196 -2.0105
14113TIP3   OH263829   5.649   2.359   1.505 -0.0819  0.2342  0.9327
14113TIP3    H163830   5.656   2.447   1.467  0.6166 -1.1828 -2.4627
14113TIP3    H263831   5.602   2.308   1.438  1.6611 -2.5474  1.7364
14114TIP3   OH263832   3.997   4.892   3.458 -0.7605  0.1804  0.2188
14114TIP3    H163833   3.989   4.986   3.476 -0.1787  0.2441  0.1357
14114TIP3    H263834   4.090   4.874   3.467 -0.9105 -0.4473  0.5181
14115TIP3   OH263835   0.201   4.117   5.518 -0.1740  0.0182 -0.4833
14115TIP3    H163836   0.204   4.072   5.603  0.6886  0.1385 -0.4458
14115TIP3    H263837   0.140   4.189   5.532  1.1868  1.0126  0.5295
14116TIP3   OH263838   0.015   2.813  11.061  0.2643  0.1422  0.0703
14116TIP3    H163839   0.097   2.771  11.033 -0.1756 -0.4857 -0.2903
14116TIP3    H263840  -0.001   2.880  10.994  1.7080  1.8850  1.3947
14117TIP3   OH263841   6.418   5.149  13.552 -0.5782  0.2317 -0.6113
14117TIP3    H163842   6.409   5.244  13.557  1.9856  0.5211 -1.0647
14117TIP3    H263843   6.415   5.120  13.643 -0.1673  0.8716 -0.3882
14118TIP3   OH263844   5.093   4.190   0.799 -0.0691 -0.2387 -0.4866
14118TIP3    H163845   5.108   4.102   0.833  1.3900  0.1652 -0.0451
14118TIP3    H263846   5.022   4.224   0.853 -0.8208 -1.2189 -0.8271
14119TIP3   OH263847   6.189   6.460  11.871 -0.4088  0.6333  0.1072
14119TIP3    H163848   6.263   6.488  11.817 -0.1167 -0.0335  0.1634
14119TIP3    H263849   6.129   6.418  11.810 -0.4572  0.6109  0.1698
14120TIP3   OH263850   1.168   1.312  17.216  0.2800  0.1064 -0.2605
14120TIP3    H163851   1.120   1.390  17.187 -1.8269 -0.0580  2.6409
14120TIP3    H263852   1.116   1.239  17.184 -0.1450 -0.0892  0.8755
14121TIP3   OH263853   5.743   1.025   1.507 -0.2617  0.5193  0.0322
14121TIP3    H163854   5.749   0.931   1.489 -1.0720 -0.0972  2.7773
14121TIP3    H263855   5.830   1.049   1.540 -0.5642  0.3657  0.9430
14122TIP3   OH263856   1.443   1.041   1.964  0.0874  0.1097 -0.0469
14122TIP3    H163857   1.472   1.099   1.893  0.0260 -1.2931 -1.2642
14122TIP3    H263858   1.478   0.955   1.939 -0.9310 -0.6293  1.0441
14123TIP3   OH263859   1.564   3.166  11.682  0.3938 -0.1535 -0.1388
14123TIP3    H163860   1.660   3.174  11.679  0.3674  0.2516  0.1040
14123TIP3    H263861   1.545   3.141  11.772  0.2416  0.1561 -0.0840
14124TIP3   OH263862   6.220   1.104  15.970  0.3038  0.3232 -0.0292
14124TIP3    H163863   6.296   1.154  15.940  0.5134  0.4833  0.7471
14124TIP3    H263864   6.160   1.104  15.896  1.0201  0.2866 -0.6110
14125TIP3   OH263865   5.802   4.607  11.323  0.0299  1.0344 -0.0465
14125TIP3    H163866   5.861   4.569  11.388  0.0450  0.5902 -0.3193
14125TIP3    H263867   5.860   4.650  11.260  0.2020 -1.2677 -1.5170
14126TIP3   OH263868   2.128   3.717  10.978 -0.0566 -0.1274  0.3650
14126TIP3    H163869   2.091   3.651  10.919  0.8524  0.3613 -0.7648
14126TIP3    H263870   2.219   3.689  10.990 -0.2761 -0.3014  1.6531
14127TIP3   OH263871   5.248   6.428   3.321 -0.0711  0.4042  0.0016
14127TIP3    H163872   5.181   6.482   3.363 -0.6346  0.6152 -1.1444
14127TIP3    H263873   5.325   6.484   3.316 -0.1726  0.5641  0.2713
14128TIP3   OH263874   6.225   4.116   6.023  0.1205 -0.0348  0.1069
14128TIP3    H163875   6.269   4.143   5.943  1.0946  1.1501  1.0161
14128TIP3    H263876   6.137   4.155   6.016  0.3315  0.3926 -0.2059
14129TIP3   OH263877   4.213   4.547   1.787 -0.2215 -0.1582  0.3074
14129TIP3    H163878   4.247   4.631   1.818 -2.0864  0.6185  0.3094
14129TIP3    H263879   4.196   4.497   1.868  0.5986 -0.4582  0.3120
14130TIP3   OH263880   0.247   1.736  11.572  0.1305  0.2173 -0.3627
14130TIP3    H163881   0.184   1.685  11.522 -0.2090  1.3679 -1.1418
14130TIP3    H263882   0.218   1.827  11.561 -0.2688  0.4720  2.3554
14131TIP3   OH263883   5.448   1.028   1.309  0.1949 -0.1656  0.4622
14131TIP3    H163884   5.441   0.976   1.228  0.7212 -0.7257  0.7772
14131TIP3    H263885   5.447   1.119   1.279  3.0503 -0.3808 -0.3899
14132TIP3   OH263886   2.921   0.288  15.089 -0.0153  0.2701  0.2362
14132TIP3    H163887   2.962   0.374  15.094 -1.6546  1.0581  0.4379
14132TIP3    H263888   2.892   0.269  15.178  0.6915 -0.6692  0.2721
14133TIP3   OH263889   5.858   6.049   1.509 -0.6650 -0.6341  0.8183
14133TIP3    H163890   5.917   5.974   1.502  0.3587  0.2018  0.3419
14133TIP3    H263891   5.890   6.096   1.586 -1.0652 -0.4791  0.8887
14134TIP3   OH263892   1.934   1.078  15.723 -0.1778  0.5277 -0.4160
14134TIP3    H163893   2.016   1.046  15.684 -0.1272 -2.8657  2.1491
14134TIP3    H263894   1.881   1.106  15.649  1.3000 -2.2248 -2.6289
14135TIP3   OH263895   5.940   6.130   3.413 -0.3807 -0.5420 -0.2765
14135TIP3    H163896   5.902   6.192   3.350 -2.7661 -0.4466  1.1906
14135TIP3    H263897   6.028   6.163   3.429 -0.9641  1.4194 -0.9432
14136TIP3   OH263898   6.020   4.282   1.123  0.1918  0.6709 -0.0102
14136TIP3    H163899   6.009   4.376   1.111  0.9022  0.4708 -2.4064
14136TIP3    H263900   6.114   4.267   1.110  0.0076 -0.4347 -0.1096
14137TIP3   OH263901   1.068   2.315   1.114 -0.1473  0.2437  0.2570
14137TIP3    H163902   1.142   2.259   1.093 -0.5217 -0.4072  0.6757
14137TIP3    H263903   1.024   2.330   1.030  0.5119  0.7228 -0.0122
14138TIP3   OH263904   1.025   1.114   1.223  0.3515  0.0389 -0.2278
14138TIP3    H163905   1.069   1.198   1.236  0.1440 -0.0784  1.2874
14138TIP3    H263906   0.940   1.136   1.187  0.2789  0.4899  0.2157
14139TIP3   OH263907   5.939   4.541  13.170 -0.0168  0.2219 -0.2230
14139TIP3    H163908   5.951   4.612  13.233 -3.3760  1.2700 -0.6664
14139TIP3    H263909   6.000   4.562  13.099 -1.1937  2.9238 -0.5048
14140TIP3   OH263910   2.624   6.522   5.561  0.3893  0.3776  0.0379
14140TIP3    H163911   2.687   6.502   5.630  0.7420  3.5727  0.7209
14140TIP3    H263912   2.676   6.522   5.480  1.0880  2.0952  0.4805
14141TIP3   OH263913   5.926   4.818  12.400 -0.4073  0.8557 -0.0469
14141TIP3    H163914   6.019   4.838  12.402 -0.3148  0.5846 -1.5925
14141TIP3    H263915   5.921   4.722  12.403 -0.6581  0.8744  0.2866
14142TIP3   OH263916   2.334   3.444   5.218 -0.3452 -0.6926  0.7796
14142TIP3    H163917   2.405   3.381   5.230 -0.3112 -0.6595  0.7523
14142TIP3    H263918   2.295   3.454   5.305 -0.7321 -1.2059  0.6682
14143TIP3   OH263919   3.841   4.044  13.297  0.1064  0.4423 -0.1164
14143TIP3    H163920   3.877   3.955  13.295 -0.0255  0.3296  1.7853
14143TIP3    H263921   3.900   4.095  13.242  1.4292 -0.3738  0.5177
14144TIP3   OH263922   5.917   1.434   3.589  0.3325 -0.0399 -0.2082
14144TIP3    H163923   5.837   1.462   3.545  1.6178 -0.4709 -2.9345
14144TIP3    H263924   5.981   1.503   3.570  0.6199  0.3381  2.0033
14145TIP3   OH263925   5.594   0.787  13.665 -0.5216 -0.4568 -0.4422
14145TIP3    H163926   5.507   0.748  13.671 -0.0576 -1.5879 -1.0071
14145TIP3    H263927   5.604   0.837  13.747 -0.6048 -2.6209  0.9292
14146TIP3   OH263928   1.978   1.325  16.731  0.0560  0.1126 -0.4274
14146TIP3    H163929   2.011   1.244  16.769 -0.5349 -1.3744 -2.9601
14146TIP3    H263930   2.048   1.354  16.672  0.5434  1.8372  0.9560
14147TIP3   OH263931   2.649   3.721  12.033 -0.0181  0.2353  0.3181
14147TIP3    H163932   2.641   3.657  12.103 -0.4753  0.6827  0.6763
14147TIP3    H263933   2.559   3.744  12.011  0.0635 -0.9249 -1.3705
14148TIP3   OH263934   0.925   3.770  11.001 -0.3794  0.3499 -0.0715
14148TIP3    H163935   0.922   3.851  10.950 -1.2512  0.4511  0.1286
14148TIP3    H263936   0.910   3.701  10.937  0.2144  0.3601 -0.2191
14149TIP3   OH263937   4.387   0.621   2.837 -0.6073  0.2053 -0.0055
14149TIP3    H163938   4.373   0.689   2.903  1.7262  0.0902  0.6648
14149TIP3    H263939   4.363   0.663   2.754 -0.7181  1.3322  0.5861
14150TIP3   OH263940   3.391   5.670  12.680 -0.3445 -0.7087 -0.4222
14150TIP3    H163941   3.313   5.675  12.735  0.7057  1.3121  0.9436
14150TIP3    H263942   3.357   5.668  12.591 -1.9968 -1.4289  0.2092
14151TIP3   OH263943   5.467   5.702  14.536  0.7003  0.2708  0.0760
14151TIP3    H163944   5.399   5.742  14.481  0.7069  1.1373  0.6896
14151TIP3    H263945   5.454   5.741  14.623  2.2073  0.7365  0.1139
14152TIP3   OH263946   0.160   3.827   3.983 -0.2828  0.1732 -0.4860
14152TIP3    H163947   0.241   3.779   3.968 -1.0427 -1.4275  0.4673
14152TIP3    H263948   0.140   3.867   3.898  0.2228 -1.3999 -1.3711
14153TIP3   OH263949   2.215   0.129   2.370  0.2073  0.1559 -0.1864
14153TIP3    H163950   2.203   0.056   2.432  0.2240  0.9094  0.7133
14153TIP3    H263951   2.282   0.184   2.411 -0.9864  1.5422 -0.0625
14154TIP3   OH263952   0.004   1.320   2.238  0.7213  0.3710  0.1401
14154TIP3    H163953  -0.026   1.411   2.245  0.0036  0.1872 -0.4819
14154TIP3    H263954  -0.058   1.271   2.292  1.3028  0.2906  0.7378
14155TIP3   OH263955   1.938   1.820   3.228  0.7405  0.0747 -0.5190
14155TIP3    H163956   2.003   1.751   3.243  1.6988  1.2817  0.9840
14155TIP3    H263957   1.985   1.901   3.245 -1.4512  0.9364  1.6019
14156TIP3   OH263958   6.160   4.428   5.774  0.2650 -0.1475  0.1059
14156TIP3    H163959   6.093   4.466   5.831 -0.6555  0.6719 -1.4561
14156TIP3    H263960   6.123   4.345   5.746 -0.2331  0.4029 -0.9296
14157TIP3   OH263961   5.046   4.195  16.803 -0.5138  0.1084 -0.4081
14157TIP3    H163962   5.019   4.187  16.711 -2.3392 -1.7800  0.2606
14157TIP3    H263963   5.064   4.288  16.814 -1.4725  0.5559 -2.3647
14158TIP3   OH263964   5.094   3.975  14.672  0.5034  0.0126 -0.2158
14158TIP3    H163965   5.111   3.922  14.750  0.6524 -0.0798 -0.3110
14158TIP3    H263966   5.004   4.007  14.683  0.6634  0.3304  0.1837
14159TIP3   OH263967   6.544   0.046   5.139  0.2712  0.1323 -0.2996
14159TIP3    H163968   6.500  -0.037   5.156 -1.5264  0.8976 -1.0543
14159TIP3    H263969   6.637   0.028   5.154 -0.0948 -2.0070 -0.4729
14160TIP3   OH263970   6.346   1.765   5.332  0.0678 -0.4456 -0.5352
14160TIP3    H163971   6.406   1.721   5.272  1.1919 -0.2510  0.3987
14160TIP3    H263972   6.322   1.698   5.396  0.3347 -0.1987 -0.1651
14161TIP3   OH263973   0.078   1.783  12.667 -0.3215 -0.1734  0.1752
14161TIP3    H163974   0.072   1.787  12.762  0.6664 -1.3909  0.2897
14161TIP3    H263975   0.025   1.707  12.642 -0.0424 -0.2550 -0.1877
14162TIP3   OH263976   2.109   6.621   4.818  0.4784 -0.0201 -0.2195
14162TIP3    H163977   2.073   6.702   4.855  1.4830  0.9432 -1.3241
14162TIP3    H263978   2.200   6.620   4.847  0.2261 -1.2852  0.6180
14163TIP3   OH263979   1.772   2.788   3.140 -0.0991 -0.0853  0.2890
14163TIP3    H163980   1.706   2.852   3.166 -0.6895 -0.3303 -0.5681
14163TIP3    H263981   1.722   2.712   3.110  0.5782 -0.4813  0.1379
14164TIP3   OH263982   5.355   0.388   6.690 -0.1234  0.7438  0.0781
14164TIP3    H163983   5.400   0.463   6.729  0.0461  0.8808 -0.3676
14164TIP3    H263984   5.310   0.424   6.614 -1.1867  0.6430  0.6605
14165TIP3   OH263985   3.478   1.137   0.899  0.0226  0.3437 -1.0204
14165TIP3    H163986   3.550   1.076   0.916 -0.4851  0.0628  0.1385
14165TIP3    H263987   3.443   1.109   0.814  0.8173  0.0428 -1.2623
14166TIP3   OH263988   1.653   0.199   0.140 -0.1695  0.0005 -0.0847
14166TIP3    H163989   1.725   0.183   0.201 -0.3865  0.4490  0.2863
14166TIP3    H263990   1.593   0.255   0.188 -0.3910  0.2688 -0.6767
14167TIP3   OH263991   5.468   3.898  16.396  0.6634  0.1647  0.1642
14167TIP3    H163992   5.529   3.971  16.405 -1.2483  1.7510  0.8085
14167TIP3    H263993   5.438   3.881  16.486 -0.4481 -0.0208 -0.2351
14168TIP3   OH263994   5.436   3.499   1.058  0.6178 -0.0994 -0.1440
14168TIP3    H163995   5.409   3.515   0.968 -1.4346  1.5790  0.7243
14168TIP3    H263996   5.522   3.541   1.066  0.3129  0.7065 -1.0161
14169TIP3   OH263997   1.896   1.637   1.950  0.2463 -0.0087 -0.3357
14169TIP3    H163998   1.865   1.727   1.962 -0.8699 -0.3968 -0.1755
14169TIP3    H263999   1.902   1.626   1.855 -0.6573 -0.0975 -0.3879
14170TIP3   OH264000   6.447   0.848   2.967 -0.5634 -0.3250 -0.2579
14170TIP3    H164001   6.370   0.898   2.993  1.3073  2.0113  1.0338
14170TIP3    H264002   6.452   0.777   3.030 -1.0686  0.1185  0.2851
14171TIP3   OH264003   5.226   4.070   1.024  0.0997 -0.7035 -0.0904
14171TIP3    H164004   5.150   4.059   1.081  0.4925 -2.8655  0.0454
14171TIP3    H264005   5.292   4.112   1.079 -0.9354  1.0995 -0.1847
14172TIP3   OH264006   6.327   3.319  15.686 -0.0061 -0.2490 -0.0963
14172TIP3    H164007   6.249   3.282  15.645  0.8752 -1.3024 -0.8630
14172TIP3    H264008   6.360   3.249  15.743  1.1058 -0.2948 -0.7825
14173TIP3   OH264009   6.333   1.605   2.727 -0.4159 -0.4421  0.0807
14173TIP3    H164010   6.242   1.591   2.752 -0.7025 -2.3760 -1.9262
14173TIP3    H264011   6.382   1.541   2.779 -0.3864 -0.5850 -0.1246
14174TIP3   OH264012   2.123   1.793   6.423 -0.5847  0.0532  0.2826
14174TIP3    H164013   2.031   1.807   6.401 -0.5003 -0.1165 -0.1890
14174TIP3    H264014   2.130   1.818   6.515 -0.7846  1.4741 -0.0853
14175TIP3   OH264015   5.925   3.307   5.281  0.1025  0.0854 -0.6104
14175TIP3    H164016   5.840   3.347   5.261 -0.9717 -1.8282 -0.0010
14175TIP3    H264017   5.966   3.294   5.195 -0.4962  0.4485 -0.9551
14176TIP3   OH264018   3.608   5.157  14.933 -0.8086  0.2296  0.0043
14176TIP3    H164019   3.685   5.165  14.877 -0.3632  1.8668  0.8326
14176TIP3    H264020   3.535   5.188  14.879 -0.3610  1.9422  0.3654
14177TIP3   OH264021   2.333   6.147  11.279 -0.8732 -0.3711  0.1596
14177TIP3    H164022   2.319   6.075  11.218  1.3385 -0.9239  0.2705
14177TIP3    H264023   2.377   6.106  11.354 -0.7530  0.8719  0.7710
14178TIP3   OH264024   3.441   5.836   6.662  0.6093 -0.6144  0.3260
14178TIP3    H164025   3.377   5.764   6.669  1.3654 -1.0672  2.9724
14178TIP3    H264026   3.520   5.794   6.628 -0.3389 -0.0850 -2.7796
14179TIP3   OH264027   2.810   3.094  16.828 -0.0900 -0.2793  0.3131
14179TIP3    H164028   2.891   3.142  16.848 -0.1911  0.1737 -0.3410
14179TIP3    H264029   2.816   3.073  16.735 -0.1660 -1.3279  0.5445
14180TIP3   OH264030   3.722   6.122  16.667  0.1079  0.4017 -0.1271
14180TIP3    H164031   3.727   6.037  16.710 -0.1078  0.7024  0.5028
14180TIP3    H264032   3.732   6.103  16.574  2.6161 -0.0669  0.1923
14181TIP3   OH264033   5.614   3.987  17.043 -0.1266 -0.2187 -0.6054
14181TIP3    H164034   5.568   3.917  16.996 -1.1828 -0.3832  0.6762
14181TIP3    H264035   5.664   4.032  16.975  0.0053 -1.7656 -1.5679
14182TIP3   OH264036   1.873   0.470  12.671 -0.5812  0.0556 -0.3379
14182TIP3    H164037   1.926   0.391  12.663 -0.9922 -0.2551 -0.0016
14182TIP3    H264038   1.877   0.492  12.764 -2.5615 -1.0235  0.0295
14183TIP3   OH264039   3.225   4.749  12.094 -0.2214 -0.0768  0.0495
14183TIP3    H164040   3.241   4.828  12.146  1.1140  0.4276 -1.0824
14183TIP3    H264041   3.206   4.681  12.158 -1.3353  1.1506  1.0516
14184TIP3   OH264042   5.340   3.204  12.955  0.1425  0.2060  0.4464
14184TIP3    H164043   5.431   3.234  12.960 -0.7530  3.0639  1.0760
14184TIP3    H264044   5.329   3.146  13.030  1.5116 -0.3828  0.2010
14185TIP3   OH264045   1.810   1.640  11.979  0.3780  0.7303  0.1125
14185TIP3    H164046   1.888   1.654  12.033  1.1612 -1.1481 -0.4744
14185TIP3    H264047   1.756   1.717  11.995  1.2892  0.9619  2.3791
14186TIP3   OH264048   6.637   3.848  14.635  0.1827 -0.0822  0.8221
14186TIP3    H164049   6.659   3.899  14.713 -1.7876 -0.7806  1.8666
14186TIP3    H264050   6.642   3.757  14.664 -1.9609 -0.3093  0.5377
14187TIP3   OH264051   6.705   3.073  11.352 -0.8920 -0.1144  0.0568
14187TIP3    H164052   6.634   3.010  11.336 -0.4312 -0.2822 -1.3600
14187TIP3    H264053   6.785   3.021  11.345 -0.5218  0.5603 -0.7389
14188TIP3   OH264054   1.228   3.969  13.449  0.1379  0.2280 -0.4806
14188TIP3    H164055   1.320   3.975  13.424  0.1679 -1.2135 -0.7848
14188TIP3    H264056   1.211   3.875  13.454 -1.2522  0.4842 -0.1865
14189TIP3   OH264057   1.409   2.692  16.352 -0.1711  0.2603 -0.0804
14189TIP3    H164058   1.351   2.618  16.339 -2.2182  1.9015 -0.6073
14189TIP3    H264059   1.488   2.670  16.302 -0.8467 -1.4424 -0.4075
14190TIP3   OH264060   4.022   2.714  12.934 -0.1538  0.4178 -0.2283
14190TIP3    H164061   4.052   2.805  12.941  1.3848 -0.0744 -0.0959
14190TIP3    H264062   4.012   2.699  12.840  0.9855  0.2971 -0.3354
14191TIP3   OH264063   0.855   1.626   4.533  0.5355  0.4018  0.2170
14191TIP3    H164064   0.812   1.575   4.464 -0.1330 -0.1078  0.9994
14191TIP3    H264065   0.786   1.641   4.598  1.6849 -1.0062  1.8137
14192TIP3   OH264066   5.826   4.947   4.459  0.6607 -0.5597 -0.4085
14192TIP3    H164067   5.901   4.908   4.503 -0.2721 -1.3501  0.5210
14192TIP3    H264068   5.835   4.921   4.367  1.7746 -0.2249 -0.4007
14193TIP3   OH264069   3.036   2.095   2.878  0.3109  0.1893  0.4465
14193TIP3    H164070   2.967   2.053   2.930 -0.7636  0.7745 -0.4934
14193TIP3    H264071   3.017   2.189   2.883  1.9439  0.4764  1.4530
14194TIP3   OH264072   5.167   0.490   5.818  0.0338 -0.2923 -0.1571
14194TIP3    H164073   5.095   0.466   5.761 -0.4837  0.0662  0.3435
14194TIP3    H264074   5.173   0.585   5.812  0.8519 -0.3680 -0.6552
14195TIP3   OH264075   0.186   3.844   3.230  0.5416  0.0543  0.6848
14195TIP3    H164076   0.126   3.863   3.158 -0.9579 -0.4855  1.7482
14195TIP3    H264077   0.206   3.929   3.268  0.5647  0.2532  0.2311
14196TIP3   OH264078   2.595   1.758  14.043 -0.5837  0.4997 -0.0898
14196TIP3    H164079   2.549   1.823  13.990 -0.3719  0.9645  0.2984
14196TIP3    H264080   2.552   1.759  14.128  0.0295  0.8163  0.2225
14197TIP3   OH264081   5.087   5.930  16.885 -0.4208 -0.4754 -0.1166
14197TIP3    H164082   5.012   5.903  16.833  0.2864 -0.8023 -0.9831
14197TIP3    H264083   5.113   5.852  16.934 -0.1741 -0.5746 -0.4034
14198TIP3   OH264084   5.621   2.975  12.791  0.2025 -0.4556 -0.0132
14198TIP3    H164085   5.651   3.063  12.814  0.9503 -0.4627 -0.9337
14198TIP3    H264086   5.547   2.990  12.733  2.2661 -0.3735 -2.7443
14199TIP3   OH264087   4.290   6.629   3.902  0.0797 -0.3608  0.4434
14199TIP3    H164088   4.358   6.667   3.958  1.6515 -1.4988 -0.6367
14199TIP3    H264089   4.320   6.646   3.813 -1.0177 -0.9533 -0.0484
14200TIP3   OH264090   4.622   4.151  15.330  0.1049  0.0677 -0.0124
14200TIP3    H164091   4.590   4.107  15.408 -0.3048  0.6026  0.1290
14200TIP3    H264092   4.544   4.166  15.277  0.2230  0.6993 -0.0151
14201TIP3   OH264093   4.495   5.850  11.918 -0.7829  0.0184  0.0670
14201TIP3    H164094   4.494   5.760  11.950 -1.4215  0.0495  0.1333
14201TIP3    H264095   4.418   5.891  11.958 -1.1337  0.2778 -0.8619
14202TIP3   OH264096   1.472   4.665  12.489  0.8278  0.0334  0.2701
14202TIP3    H164097   1.438   4.733  12.547  0.0704 -0.3606  0.2958
14202TIP3    H264098   1.505   4.713  12.413 -1.9685  0.3010 -0.8419
14203TIP3   OH264099   0.962   6.786   1.599 -0.0314  0.4190 -0.0700
14203TIP3    H164100   1.000   6.856   1.652  1.9100 -1.1456  0.6794
14203TIP3    H264101   0.918   6.729   1.663  0.5891 -0.3949 -0.3587
14204TIP3   OH264102   1.099   3.464  14.459  0.0355  0.9447 -0.4637
14204TIP3    H164103   1.074   3.556  14.453 -1.0545  0.6735 -0.2023
14204TIP3    H264104   1.195   3.465  14.459  0.1000  2.3017  2.6755
14205TIP3   OH264105   1.175   1.186   4.590  0.0075  0.2693 -1.3163
14205TIP3    H164106   1.186   1.242   4.513 -0.8084  2.1678 -0.1137
14205TIP3    H264107   1.243   1.215   4.650 -0.5894  0.1566 -0.5766
14206TIP3   OH264108   6.492   2.738   4.380 -0.4389 -0.3951 -0.5184
14206TIP3    H164109   6.480   2.807   4.315 -0.1639  1.2585  1.1317
14206TIP3    H264110   6.422   2.675   4.361 -2.0373  1.3920 -0.7740
14207TIP3   OH264111   5.279   3.175   5.439 -0.5350  0.0954 -0.6195
14207TIP3    H164112   5.295   3.170   5.533 -1.6816  1.1386 -0.3619
14207TIP3    H264113   5.292   3.085   5.408 -0.1892 -0.2602  0.5339
14208TIP3   OH264114   2.797   6.183  12.755 -0.9410 -0.3487 -0.1927
14208TIP3    H164115   2.738   6.108  12.743  0.8409 -1.5507 -1.5538
14208TIP3    H264116   2.879   6.156  12.714  0.1975  1.7774  0.6406
14209TIP3   OH264117   6.500   4.898   0.689 -0.0100  0.4463 -0.5575
14209TIP3    H164118   6.582   4.894   0.640  0.8458 -2.1008  0.9919
14209TIP3    H264119   6.468   4.987   0.674  1.7678  0.7088 -3.1750
14210TIP3   OH264120   3.219   1.701   6.219 -0.3614  0.2656 -0.1071
14210TIP3    H164121   3.162   1.629   6.190  0.5949  0.1023 -1.6408
14210TIP3    H264122   3.190   1.720   6.308 -2.1722 -0.4572 -0.5264
14211TIP3   OH264123   6.049   2.473  13.433 -0.3386 -0.2864 -0.1825
14211TIP3    H164124   5.984   2.437  13.373  0.6059  0.0717 -1.4351
14211TIP3    H264125   6.020   2.445  13.520 -2.0467 -0.2975 -0.7475
14212TIP3   OH264126   3.022   3.080  13.426 -0.1024 -0.2707 -0.2102
14212TIP3    H164127   3.063   2.996  13.409  1.7224  0.3361  0.9517
14212TIP3    H264128   2.933   3.059  13.452  0.4454 -1.8768  0.4130
14213TIP3   OH264129   0.844   4.063  15.171 -0.2721 -0.0320 -0.1692
14213TIP3    H164130   0.876   4.110  15.248 -1.4970  0.6403 -0.0536
14213TIP3    H264131   0.921   4.017  15.137  0.5871  0.7731  0.6493
14214TIP3   OH264132   6.173   0.726   3.406  0.5267 -0.4189 -0.0807
14214TIP3    H164133   6.217   0.660   3.459 -1.2506  1.1035  3.4812
14214TIP3    H264134   6.089   0.687   3.382 -0.3873  0.3645  1.7508
14215TIP3   OH264135   4.590   2.252   3.971  0.1128  0.0265  0.0824
14215TIP3    H164136   4.647   2.282   3.900  0.2538 -0.1378  0.1235
14215TIP3    H264137   4.589   2.157   3.963  1.7008 -0.1436  1.4629
14216TIP3   OH264138   6.695   0.722   0.152 -0.0056  0.2602  0.4252
14216TIP3    H164139   6.682   0.813   0.125  0.7306  0.3845  0.4906
14216TIP3    H264140   6.788   0.716   0.173 -0.0351 -0.5345  0.3299
14217TIP3   OH264141   4.360   2.775  11.341  0.5858 -0.1741 -0.0617
14217TIP3    H164142   4.431   2.837  11.355  1.6859 -1.4976  0.2916
14217TIP3    H264143   4.346   2.734  11.426 -0.4834 -0.0511 -0.1700
14218TIP3   OH264144   1.408   3.370  11.866  0.0206  0.0980  0.0412
14218TIP3    H164145   1.489   3.419  11.876 -0.2599  0.6318 -0.3069
14218TIP3    H264146   1.370   3.369  11.954  0.2114  0.1750  0.1248
14219TIP3   OH264147   0.173   5.506   0.173  0.2477 -0.6745 -0.3053
14219TIP3    H164148   0.193   5.421   0.133 -0.8988 -0.2920 -1.7461
14219TIP3    H264149   0.078   5.508   0.177  0.2167  1.0107 -1.3662
14220TIP3   OH264150   4.600   5.587  12.075  0.2020 -0.3663  1.0919
14220TIP3    H164151   4.573   5.540  11.995  0.8721  2.3768 -0.8031
14220TIP3    H264152   4.616   5.517  12.138  0.9900 -2.7342 -1.5780
14221TIP3   OH264153   5.453   0.626  15.153  0.3687  0.2599 -0.1442
14221TIP3    H164154   5.508   0.699  15.124 -0.2537  0.3107 -1.2361
14221TIP3    H264155   5.363   0.658  15.143  0.1094 -0.3017  0.3349
14222TIP3   OH264156   6.605   6.742   3.139 -0.3301 -0.5334 -0.0888
14222TIP3    H164157   6.644   6.723   3.053  0.1957  0.5727 -0.0999
14222TIP3    H264158   6.652   6.686   3.200 -0.0672 -0.6341 -0.3836
14223TIP3   OH264159   3.855   1.645   4.143 -0.6248 -0.1920 -0.0884
14223TIP3    H164160   3.804   1.724   4.124  0.7031  0.0964 -2.6025
14223TIP3    H264161   3.920   1.673   4.208 -2.1713 -0.0261  1.4314
14224TIP3   OH264162   1.869   3.992  15.669  0.1004 -0.1975 -0.1029
14224TIP3    H164163   1.950   3.956  15.633  0.9159  1.2272  0.2710
14224TIP3    H264164   1.827   4.035  15.594  0.7136  0.8540  0.1494
14225TIP3   OH264165   4.983   0.639  13.431  0.0701 -0.3738  0.0813
14225TIP3    H164166   5.024   0.725  13.444  0.1729 -0.5858  1.2485
14225TIP3    H264167   4.912   0.636  13.495 -0.3121 -0.9319 -0.3566
14226TIP3   OH264168   0.281   2.472  13.668 -0.1340  0.7597 -0.6769
14226TIP3    H164169   0.362   2.516  13.645  0.6385 -1.5693 -2.6085
14226TIP3    H264170   0.308   2.395  13.718 -1.2556  0.7937  0.0073
14227TIP3   OH264171   2.671   3.975  11.081 -0.5531  0.7611 -0.4864
14227TIP3    H164172   2.690   3.882  11.095 -2.9409  0.5654  1.9007
14227TIP3    H264173   2.756   4.015  11.065  1.1070 -1.0776  3.1562
14228TIP3   OH264174   4.882   1.333  12.007 -0.0212  0.0430 -0.7705
14228TIP3    H164175   4.956   1.275  12.027 -0.6637 -0.9253 -1.1865
14228TIP3    H264176   4.898   1.360  11.916 -0.7863 -1.0917 -1.2503
14229TIP3   OH264177   3.146   0.055   0.520 -0.0461  0.1784 -0.4153
14229TIP3    H164178   3.140   0.122   0.589  0.3372 -1.4702  1.2684
14229TIP3    H264179   3.215   0.086   0.462 -0.4456  1.6535 -0.1168
14230TIP3   OH264180   5.785   0.383  13.378 -0.5376  0.1083  0.0620
14230TIP3    H164181   5.814   0.427  13.298  1.9525 -2.5906 -0.6044
14230TIP3    H264182   5.801   0.447  13.447  1.8924  0.7270 -1.0123
14231TIP3   OH264183   0.716   3.995   0.165  0.2884 -0.4978 -0.1064
14231TIP3    H164184   0.775   3.954   0.103  1.9103  0.4390  0.7942
14231TIP3    H264185   0.757   3.982   0.251 -0.1242  1.3246  0.3883
14232TIP3   OH264186   1.075   0.238   1.502  0.1406 -0.1860  0.2699
14232TIP3    H164187   1.063   0.261   1.410  1.4971  1.1192  0.4034
14232TIP3    H264188   0.998   0.276   1.546  0.6628  1.2180 -0.0005
14233TIP3   OH264189   1.529   3.706  13.191  0.3660  0.1346 -0.4353
14233TIP3    H164190   1.513   3.613  13.176 -0.4729  0.2415 -0.2505
14233TIP3    H264191   1.565   3.711  13.279 -0.2746  0.0447 -0.1623
14234TIP3   OH264192   2.843   2.334   3.828  0.2870 -0.0018  0.3874
14234TIP3    H164193   2.873   2.254   3.871 -0.9930 -1.5606 -1.5711
14234TIP3    H264194   2.813   2.389   3.901  4.1890  0.0981  2.0566
14235TIP3   OH264195   1.629   5.484  16.696  0.0182 -0.0949  0.4623
14235TIP3    H164196   1.663   5.465  16.783 -0.9776 -1.2040  0.6176
14235TIP3    H264197   1.548   5.532  16.713 -1.2099 -2.0303  0.2032
14236TIP3   OH264198   0.468   1.110  14.760 -0.3451 -0.2645 -0.2465
14236TIP3    H164199   0.413   1.092  14.684 -0.3594 -0.1492 -0.2622
14236TIP3    H264200   0.532   1.039  14.761  1.7138  1.5029 -2.2578
14237TIP3   OH264201   2.106   3.484   1.623 -0.1433  0.2916 -0.2148
14237TIP3    H164202   2.054   3.421   1.572 -1.2752  1.2046 -0.2251
14237TIP3    H264203   2.127   3.554   1.561 -0.2781  0.6973  0.1874
14238TIP3   OH264204   2.292   6.373  14.608 -0.1593  0.1847 -0.1929
14238TIP3    H164205   2.360   6.393  14.673 -0.5376 -0.0313  0.2701
14238TIP3    H264206   2.337   6.318  14.543  1.2504  3.5087 -2.1731
14239TIP3   OH264207   2.355   3.459   2.909  0.3021 -0.1022 -0.7293
14239TIP3    H164208   2.431   3.436   2.856  0.3349  0.6834 -1.0339
14239TIP3    H264209   2.367   3.412   2.991  0.9079 -0.3059 -0.9337
14240TIP3   OH264210   5.751   0.299   1.301  0.1616 -0.3261  0.1782
14240TIP3    H164211   5.734   0.392   1.315 -1.6547 -0.6504  0.1952
14240TIP3    H264212   5.760   0.262   1.390  0.0252 -0.3214  0.1939
14241TIP3   OH264213   0.908   5.435   0.833  1.0323 -0.1581  0.4110
14241TIP3    H164214   0.863   5.512   0.798  2.2680 -0.3598 -1.7154
14241TIP3    H264215   0.889   5.436   0.927  0.0430  2.0569  0.2045
14242TIP3   OH264216   1.452   3.579  15.477 -0.3611 -0.3264  0.0740
14242TIP3    H164217   1.452   3.533  15.393 -2.6329  1.0205 -0.7372
14242TIP3    H264218   1.381   3.539  15.526 -1.4318  1.3016 -0.0954
14243TIP3   OH264219   1.303   1.358   4.403  0.1550 -0.1439 -0.3882
14243TIP3    H164220   1.391   1.363   4.438 -0.0587  0.1106  0.1126
14243TIP3    H264221   1.278   1.448   4.385 -0.3056 -0.1460  0.2240
14244TIP3   OH264222   3.200   3.891  11.320  0.3226  0.1757  0.3039
14244TIP3    H164223   3.109   3.883  11.351  0.2698 -0.8255 -0.1015
14244TIP3    H264224   3.212   3.985  11.307 -1.5083  0.1615 -2.0705
14245TIP3   OH264225   2.584   0.391  14.310  0.8193  0.1165  0.4006
14245TIP3    H164226   2.520   0.339  14.261  0.2957 -0.4770  1.6716
14245TIP3    H264227   2.664   0.338  14.309  0.7479  0.0096  0.3469
14246TIP3   OH264228   0.271   2.809   6.632 -0.1431 -0.4493  0.4096
14246TIP3    H164229   0.326   2.750   6.579  0.5163  0.0681  0.5010
14246TIP3    H264230   0.187   2.764   6.639  0.1166 -1.0353 -0.1488
14247TIP3   OH264231   3.878   5.922   5.271 -0.3888  0.2870  0.2006
14247TIP3    H164232   3.815   5.918   5.343  0.2104  1.2932  0.7916
14247TIP3    H264233   3.898   5.830   5.252 -3.5891 -0.1425 -1.3965
14248TIP3   OH264234   1.911   0.532   4.534  0.3147  0.0968 -0.0513
14248TIP3    H164235   1.934   0.495   4.449 -0.2034 -0.4880  0.0662
14248TIP3    H264236   1.939   0.466   4.597 -1.5950 -0.5950  0.1057
14249TIP3   OH264237   0.679   1.741  13.139 -0.5632  0.9247 -0.1700
14249TIP3    H164238   0.672   1.837  13.138 -3.0839  0.7659 -1.4858
14249TIP3    H264239   0.652   1.714  13.051 -0.7003 -1.0499  0.4540
14250TIP3   OH264240   0.647   6.595  16.972  0.6245  0.0685 -0.5811
14250TIP3    H164241   0.731   6.552  16.989  0.8012  1.5527  2.5646
14250TIP3    H264242   0.671   6.678  16.931  0.7748  0.8606  1.0744
14251TIP3   OH264243   0.316   3.219   3.660  0.1345  0.7271  0.1011
14251TIP3    H164244   0.310   3.253   3.749 -1.4173  2.4052 -0.6248
14251TIP3    H264245   0.369   3.283   3.613 -1.3103  1.2574 -0.8363
14252TIP3   OH264246   4.264   6.677  13.800 -0.2268  0.7537  0.3852
14252TIP3    H164247   4.332   6.634  13.748  0.7118  2.1746  0.4465
14252TIP3    H264248   4.185   6.668  13.747 -0.6599 -3.3617  1.5370
14253TIP3   OH264249   2.059   1.738  16.633  0.0008 -0.5368  0.2430
14253TIP3    H164250   2.124   1.686  16.681  0.7187  0.9576  0.9249
14253TIP3    H264251   2.051   1.819  16.684 -1.0862  0.0311 -0.8116
14254TIP3   OH264252   5.516   4.344   0.632  0.3668  0.6810  0.4745
14254TIP3    H164253   5.481   4.396   0.705  2.7192  2.5332  0.3347
14254TIP3    H264254   5.478   4.384   0.554 -1.2723 -0.6116  0.5693
14255TIP3   OH264255   4.721   0.996   4.390 -0.3289  0.0079 -0.5577
14255TIP3    H164256   4.752   0.916   4.432  0.6169 -1.1486 -3.3390
14255TIP3    H264257   4.786   1.015   4.323 -2.6088  0.8461 -2.6115
14256TIP3   OH264258   4.590   4.803   5.827 -0.1943 -0.8507 -0.6827
14256TIP3    H164259   4.612   4.712   5.849 -1.5501 -0.9280  0.4146
14256TIP3    H264260   4.674   4.843   5.806  0.5090 -2.1744 -0.4890
14257TIP3   OH264261   3.143   5.829  15.596 -0.3657  0.2298 -0.6168
14257TIP3    H164262   3.131   5.920  15.622  0.9385 -0.2341  1.7414
14257TIP3    H264263   3.092   5.778  15.659  0.7085 -0.7831 -0.5430
14258TIP3   OH264264   1.909   6.434   4.951  0.1558  0.5699  0.5499
14258TIP3    H164265   1.941   6.469   5.034  0.9259 -0.2509  0.6041
14258TIP3    H264266   1.965   6.474   4.885 -0.5392  1.3220  0.4068
14259TIP3   OH264267   4.765   0.982   1.708  1.0661  0.1337 -0.1171
14259TIP3    H164268   4.835   0.922   1.684  1.3163  0.8672 -1.2417
14259TIP3    H264269   4.794   1.067   1.675 -1.2688  0.0951 -2.4321
14260TIP3   OH264270   4.262   0.353   1.402 -0.3179 -0.1079  0.0583
14260TIP3    H164271   4.262   0.446   1.424  1.0361  0.0099 -0.3606
14260TIP3    H264272   4.248   0.307   1.485 -1.2076  0.4635  0.2317
14261TIP3   OH264273   5.040   4.694   5.295  0.0917 -0.2476  0.1109
14261TIP3    H164274   5.033   4.771   5.239  0.5812 -1.7292 -2.0862
14261TIP3    H264275   5.126   4.657   5.274 -0.7613 -2.2231 -0.0584
14262TIP3   OH264276   4.576   3.047   5.120  0.4947 -0.3859  0.8107
14262TIP3    H164277   4.488   3.035   5.083  0.4119 -0.0308  0.8865
14262TIP3    H264278   4.565   3.034   5.214  0.5262 -0.3698  0.8171
14263TIP3   OH264279   1.503   3.756   3.364 -0.6139 -0.6379  0.5546
14263TIP3    H164280   1.505   3.699   3.287 -0.4557  1.0903 -0.7544
14263TIP3    H264281   1.591   3.752   3.400 -0.4330 -0.7389  0.1003
14264TIP3   OH264282   5.745   2.223  16.010  0.0147 -0.2331 -0.6956
14264TIP3    H164283   5.733   2.130  15.994  1.6163 -0.4792 -0.5324
14264TIP3    H264284   5.683   2.266  15.951 -2.0725 -1.4370  0.6109
14265TIP3   OH264285   2.461   3.351  10.688  0.2176 -0.4101 -0.3092
14265TIP3    H164286   2.501   3.351  10.600 -0.2057 -1.1781 -0.5027
14265TIP3    H264287   2.455   3.444  10.711  2.5911 -0.2884 -0.0637
14266TIP3   OH264288   3.824   6.130  11.874  0.4386 -0.0112 -0.2006
14266TIP3    H164289   3.841   6.042  11.909  0.2583 -0.7985 -2.0269
14266TIP3    H264290   3.911   6.163  11.851  0.5453  0.4596  0.8443
14267TIP3   OH264291   4.196   1.649   1.375  0.4048  0.4090  0.2223
14267TIP3    H164292   4.191   1.709   1.450  0.1292  1.2774 -0.4741
14267TIP3    H264293   4.129   1.682   1.314  1.1242  0.1535 -0.7134
14268TIP3   OH264294   2.572   3.793   2.761 -0.3987 -0.0637  0.9020
14268TIP3    H164295   2.500   3.850   2.734 -0.2797  0.1633  1.0601
14268TIP3    H264296   2.581   3.730   2.690  0.9773  1.5126 -0.3664
14269TIP3   OH264297   4.852   2.134  16.570  0.0653  0.4814 -0.2387
14269TIP3    H164298   4.862   2.159  16.662 -0.3256 -2.2161  0.5546
14269TIP3    H264299   4.932   2.085  16.550 -1.1869 -1.4786 -0.4850
14270TIP3   OH264300   6.515   3.409  15.519  0.4882 -0.8799  0.0213
14270TIP3    H164301   6.550   3.333  15.472  0.0889 -1.6279  0.9162
14270TIP3    H264302   6.442   3.374  15.570  0.4690  0.0601  0.6510
14271TIP3   OH264303   1.461   4.524   2.554  0.4162  0.5837 -0.1993
14271TIP3    H164304   1.544   4.552   2.517  0.1078 -0.1405 -1.4714
14271TIP3    H264305   1.443   4.440   2.511 -1.4509  1.2023 -0.6634
14272TIP3   OH264306   4.440   3.575  16.760  0.1469  0.1499 -0.1507
14272TIP3    H164307   4.437   3.642  16.691 -0.0674  1.4929  1.1439
14272TIP3    H264308   4.454   3.493  16.713 -1.5624  0.8429 -1.9377
14273TIP3   OH264309   5.238   6.514   5.192 -0.5187 -0.4181  0.1740
14273TIP3    H164310   5.316   6.521   5.248 -0.2681 -1.2826 -0.0582
14273TIP3    H264311   5.168   6.554   5.244 -0.1817 -0.7517  0.8955
14274TIP3   OH264312   2.747   6.626  16.084 -0.5025 -1.0600  0.2009
14274TIP3    H164313   2.729   6.540  16.123 -2.2693 -1.2459 -0.9488
14274TIP3    H264314   2.661   6.667  16.076 -0.1405 -0.8252 -3.0104
14275TIP3   OH264315   4.479   5.614  16.672  0.6725 -0.3339 -0.1689
14275TIP3    H164316   4.511   5.686  16.727  0.0466 -0.0648 -0.1533
14275TIP3    H264317   4.438   5.553  16.734  0.3026 -0.2150 -0.2997
14276TIP3   OH264318   1.558   3.053  10.474  0.3247  0.6785 -0.5936
14276TIP3    H164319   1.522   2.976  10.518  3.4826 -1.3482 -1.4162
14276TIP3    H264320   1.481   3.101  10.444 -1.7362 -2.1367 -0.0130
14277TIP3   OH264321   6.304   5.501  16.328 -0.3463 -0.3361  0.3600
14277TIP3    H164322   6.229   5.512  16.269 -0.7157 -1.9419  0.5262
14277TIP3    H264323   6.281   5.553  16.405 -1.5422 -1.2587  0.6400
14278TIP3   OH264324   1.512   4.740   4.654 -0.4229 -0.0184 -0.1119
14278TIP3    H164325   1.438   4.785   4.693 -0.8367 -1.2483  0.5762
14278TIP3    H264326   1.522   4.660   4.707  1.2769  0.0440 -0.2939
14279TIP3   OH264327   0.648   4.784   0.301 -0.2596 -0.0434 -0.1506
14279TIP3    H164328   0.680   4.713   0.356  1.7157  1.0129  0.0914
14279TIP3    H264329   0.670   4.757   0.212 -0.2257 -0.0812 -0.1308
14280TIP3   OH264330   5.507   4.632  16.609  0.0676  0.1503  0.0895
14280TIP3    H164331   5.437   4.577  16.642  1.4137 -0.9191  1.2602
14280TIP3    H264332   5.476   4.722  16.623 -0.9928 -0.3118  0.7160
14281TIP3   OH264333   4.025   6.014  14.591 -0.2005 -0.6522  0.5591
14281TIP3    H164334   3.967   6.078  14.632  0.4016 -0.4731  1.1399
14281TIP3    H264335   3.967   5.960  14.538 -0.9635 -0.7174  1.4424
14282TIP3   OH264336   6.391   1.656  17.205 -0.2454  0.1926  0.0435
14282TIP3    H164337   6.481   1.658  17.239 -0.6335  2.1221  0.9924
14282TIP3    H264338   6.402   1.652  17.110  0.8368 -1.9435  0.2349
14283TIP3   OH264339   4.498   4.620   5.142 -0.3075 -0.8625 -0.5452
14283TIP3    H164340   4.438   4.558   5.185  0.3908 -1.9283 -1.0931
14283TIP3    H264341   4.581   4.608   5.187  0.0298 -0.8636 -1.1713
14284TIP3   OH264342   3.156   6.664   1.257  0.2820  0.8400 -0.4036
14284TIP3    H164343   3.200   6.585   1.225  1.0599  0.9161  0.4616
14284TIP3    H264344   3.094   6.687   1.187  0.1983 -0.4139 -0.7483
14285TIP3   OH264345   1.927   5.162  14.051  0.1323  0.2365  0.2006
14285TIP3    H164346   1.848   5.162  14.104  0.4316  2.4251  0.6743
14285TIP3    H264347   1.900   5.199  13.967 -0.1356 -2.3877 -0.9363
14286TIP3   OH264348   5.263   2.381   1.137 -0.0831  0.3003  0.2977
14286TIP3    H164349   5.296   2.463   1.102  0.9383 -0.0499  0.4210
14286TIP3    H264350   5.231   2.333   1.060 -1.5283  1.1817  0.3351
14287TIP3   OH264351   5.749   0.248   1.046 -0.4101  0.4814 -0.3411
14287TIP3    H164352   5.816   0.304   1.006 -0.3985  1.1879  0.6348
14287TIP3    H264353   5.743   0.279   1.137 -0.8473 -0.7066  0.0434
14288TIP3   OH264354   0.857   6.434  16.959  0.2581 -0.2393  0.2345
14288TIP3    H164355   0.932   6.399  17.006  0.5111  1.6397  1.2948
14288TIP3    H264356   0.816   6.358  16.919  4.1412 -1.0719 -2.4625
14289TIP3   OH264357   0.664   1.105  13.438 -0.4666 -0.1835  0.2315
14289TIP3    H164358   0.693   1.016  13.418 -1.4980 -0.3911 -0.3706
14289TIP3    H264359   0.697   1.158  13.365 -0.1320 -0.1230  0.4240
14290TIP3   OH264360   0.193   3.285   5.011  0.0755 -0.5325  0.1524
14290TIP3    H164361   0.196   3.317   5.102  0.2447 -2.3155  0.7877
14290TIP3    H264362   0.282   3.300   4.978 -0.1178  0.5771  0.1023
14291TIP3   OH264363   6.818   0.512   1.966 -0.3505  0.2252  1.0696
14291TIP3    H164364   6.751   0.490   1.901  0.6272  0.7868 -0.1463
14291TIP3    H264365   6.769   0.538   2.044 -1.5326  0.0767  0.3842
14292TIP3   OH264366   1.447   0.695  14.462 -0.5427  0.6223  0.7483
14292TIP3    H164367   1.492   0.725  14.383 -0.8754  2.0875  1.0922
14292TIP3    H264368   1.355   0.717  14.447 -1.0193 -1.5365  0.4288
14293TIP3   OH264369   4.303   5.604   4.900 -0.8251  0.0411 -0.3146
14293TIP3    H164370   4.271   5.601   4.810 -0.3779 -1.8483 -0.4174
14293TIP3    H264371   4.399   5.602   4.892 -0.7561  0.8203  0.1846
14294TIP3   OH264372   2.868   0.678   1.164  0.2874  0.3090 -0.2533
14294TIP3    H164373   2.957   0.663   1.196 -0.4906  0.7698  2.2720
14294TIP3    H264374   2.828   0.592   1.160  0.4571  0.2280 -0.1914
14295TIP3   OH264375   1.332   2.646  12.645  1.0633 -0.0365  0.3804
14295TIP3    H164376   1.345   2.578  12.712  1.8977  0.3128  0.5864
14295TIP3    H264377   1.388   2.718  12.673  0.2877  0.6882  0.0867
14296TIP3   OH264378   6.271   5.737   0.941 -0.2307  0.4771  0.5655
14296TIP3    H164379   6.223   5.715   0.860 -1.5741  2.1507  0.8692
14296TIP3    H264380   6.356   5.696   0.930 -0.7336 -0.1443 -1.2896
14297TIP3   OH264381   5.871   6.057  14.155 -0.0320  0.0318 -0.2753
14297TIP3    H164382   5.844   6.110  14.230  1.0556 -1.0899  0.9420
14297TIP3    H264383   5.963   6.037  14.172 -0.4160 -2.2085 -0.7353
14298TIP3   OH264384   2.579   3.261  16.638 -0.5224 -0.2173 -0.2778
14298TIP3    H164385   2.658   3.309  16.664 -0.7911  0.8859 -1.4780
14298TIP3    H264386   2.590   3.247  16.544 -1.9287  0.2493 -0.5162
14299TIP3   OH264387   5.665   4.534  13.812  0.0680  0.1012 -0.3387
14299TIP3    H164388   5.601   4.576  13.868  2.0401  1.9127  0.6143
14299TIP3    H264389   5.723   4.487  13.872  1.2310  0.7264 -0.9494
14300TIP3   OH264390   6.525   3.400  17.074 -0.0676  0.2887  0.2453
14300TIP3    H164391   6.521   3.390  17.170 -0.2673  0.9466  0.3046
14300TIP3    H264392   6.436   3.384  17.045 -0.0505  0.3030  0.1891
14301TIP3   OH264393   3.463   6.557   1.261  0.1060  0.0828  0.5329
14301TIP3    H164394   3.441   6.631   1.317 -0.0006  0.8810 -0.5416
14301TIP3    H264395   3.551   6.576   1.229  0.2149 -0.4254  0.5228
14302TIP3   OH264396   5.907   5.055   4.884 -0.1877 -0.3793 -0.4486
14302TIP3    H164397   5.850   5.116   4.839  0.0394 -0.3087 -0.6410
14302TIP3    H264398   5.872   5.051   4.973 -1.1603 -1.1853 -0.8565
14303TIP3   OH264399   2.071   0.907  16.950 -0.1661  0.7254 -0.2957
14303TIP3    H164400   2.021   0.961  17.012 -0.4945  1.0556 -0.8382
14303TIP3    H264401   2.102   0.833  17.002 -2.4754 -0.2742 -0.2651
14304TIP3   OH264402   3.633   2.270   2.451 -0.1175 -0.2573 -0.1318
14304TIP3    H164403   3.592   2.331   2.512  2.1327  0.8216  0.3449
14304TIP3    H264404   3.637   2.317   2.368 -0.3125 -0.5671 -0.3207
14305TIP3   OH264405   1.285   2.742  11.140  0.1664  0.3669  0.0475
14305TIP3    H164406   1.226   2.693  11.197 -0.5740  0.3306 -0.7316
14305TIP3    H264407   1.239   2.746  11.056  0.1881  2.4768  0.1184
14306TIP3   OH264408   4.731   4.712  11.396 -0.1177  0.2627 -0.6259
14306TIP3    H164409   4.751   4.770  11.323  0.8950 -0.3179 -0.8168
14306TIP3    H264410   4.644   4.739  11.425  0.7087  2.5138 -0.1107
14307TIP3   OH264411   2.612   3.175  13.137 -0.2752  0.4791  0.0481
14307TIP3    H164412   2.587   3.205  13.050 -0.6517  0.1110  0.0267
14307TIP3    H264413   2.686   3.116  13.121  1.0503  2.0839  0.1685
14308TIP3   OH264414   5.939   6.084  15.957  0.3285 -0.2975  0.0816
14308TIP3    H164415   5.844   6.070  15.951  0.2844 -0.8591  1.8385
14308TIP3    H264416   5.976   6.022  15.894 -0.5060  0.6629 -1.3948
14309TIP3   OH264417   2.749   0.942  14.020  0.1389  0.2494  0.1163
14309TIP3    H164418   2.720   0.939  13.929 -1.3834  0.8310  0.5729
14309TIP3    H264419   2.694   1.009  14.060  1.3206  0.5361  1.2934
14310TIP3   OH264420   1.300   5.141  16.126  0.5664  0.3130 -0.3250
14310TIP3    H164421   1.324   5.119  16.035 -1.1285  0.1972 -0.7629
14310TIP3    H264422   1.287   5.056  16.168  0.2168  0.3797 -0.2975
14311TIP3   OH264423   1.759   5.053   1.988  0.4230  0.4256 -0.3731
14311TIP3    H164424   1.710   4.980   2.024  0.6927  0.5390  0.2213
14311TIP3    H264425   1.747   5.045   1.893  0.6035 -0.4972 -0.3222
14312TIP3   OH264426   2.377   0.048  13.102  0.6528  1.1162 -0.5490
14312TIP3    H164427   2.388   0.140  13.127  0.7103  1.2691 -1.1206
14312TIP3    H264428   2.344   0.005  13.181  0.1482  1.7272 -0.4270
14313TIP3   OH264429   3.178   1.546   5.449  0.1649 -0.6206 -0.0620
14313TIP3    H164430   3.239   1.486   5.492 -0.1795 -0.3232  0.8456
14313TIP3    H264431   3.106   1.557   5.512  0.8323  1.7457  0.3473
14314TIP3   OH264432   0.060   3.027   5.574  0.5536 -0.1108  0.2786
14314TIP3    H164433   0.065   3.053   5.482  1.9023  0.8351  0.6023
14314TIP3    H264434   0.141   2.978   5.589  0.1858 -0.5344  0.8803
14315TIP3   OH264435   0.340   5.647  13.218 -0.1415  0.7463 -0.1476
14315TIP3    H164436   0.287   5.711  13.267  0.8381 -0.7055  2.9694
14315TIP3    H264437   0.321   5.564  13.260  0.2751 -0.7035 -2.7391
14316TIP3   OH264438   2.138   2.982   2.710 -0.0078  0.4587 -0.4166
14316TIP3    H164439   2.103   2.927   2.640  0.4569  0.9318 -1.0272
14316TIP3    H264440   2.061   3.027   2.746 -0.1343  0.9335 -1.2614
14317TIP3   OH264441   4.749   1.790   4.644 -0.0967 -0.0829  0.2519
14317TIP3    H164442   4.808   1.855   4.681 -1.2562  1.0574  0.1167
14317TIP3    H264443   4.807   1.726   4.602  1.0043  1.5462 -0.7494
14318TIP3   OH264444   0.395   1.335   1.222 -0.1244 -0.5901 -0.8493
14318TIP3    H164445   0.389   1.368   1.312  2.4543  0.2560 -0.9465
14318TIP3    H264446   0.382   1.241   1.230  2.4271 -0.8605  0.7706
14319TIP3   OH264447   2.875   2.207  10.964 -0.4029  0.3301  0.2062
14319TIP3    H164448   2.941   2.193  11.032  0.4887 -0.6675 -0.8368
14319TIP3    H264449   2.917   2.176  10.883 -1.4169  1.5423 -0.8112
14320TIP3   OH264450   4.678   6.730  10.772 -0.1203 -0.1085  0.3282
14320TIP3    H164451   4.740   6.702  10.839  0.0735 -0.4285  0.0161
14320TIP3    H264452   4.704   6.819  10.751  0.3763 -0.3187  0.0352
14321TIP3   OH264453   6.311   2.677  14.400  0.0700 -0.4303  0.2216
14321TIP3    H164454   6.340   2.592  14.367 -0.4705 -0.0847 -1.1744
14321TIP3    H264455   6.391   2.729  14.406  0.0145 -0.0517 -1.9183
14322TIP3   OH264456   0.284   2.450   3.701 -0.3325 -0.3265  0.5236
14322TIP3    H164457   0.331   2.532   3.689 -1.1140  0.0681  0.1257
14322TIP3    H264458   0.270   2.443   3.795 -3.3360  1.7408  0.2734
14323TIP3   OH264459   3.787   3.898   1.787 -0.1412  0.5378  0.0795
14323TIP3    H164460   3.718   3.845   1.826  0.8549 -0.4511  0.5273
14323TIP3    H264461   3.748   3.934   1.708 -1.5401  0.9393  0.9331
14324TIP3   OH264462   4.344   2.441  14.460 -0.5681  0.9615 -0.2993
14324TIP3    H164463   4.290   2.424  14.537 -0.4565  1.7758 -0.0402
14324TIP3    H264464   4.357   2.536  14.460  0.0408  0.8827 -0.9107
14325TIP3   OH264465   4.680   5.581  13.407 -0.2508  0.0423 -0.4993
14325TIP3    H164466   4.679   5.558  13.500 -1.0144  0.4003 -0.4155
14325TIP3    H264467   4.622   5.517  13.367 -1.1014  0.8076 -0.5052
14326TIP3   OH264468   2.123   6.799  12.247 -0.4071 -0.1393 -0.2087
14326TIP3    H164469   2.094   6.798  12.155 -0.1346 -0.2549 -0.2931
14326TIP3    H264470   2.208   6.842  12.244 -0.6118  0.2876  0.0573
14327TIP3   OH264471   6.624   5.232  12.328 -0.1329  0.3169 -0.1943
14327TIP3    H164472   6.633   5.311  12.381 -1.6770 -0.3976  1.1595
14327TIP3    H264473   6.577   5.170  12.383  2.2728 -2.0827 -0.6797
14328TIP3   OH264474   1.497   1.735   5.080 -0.3174 -0.0618  0.3820
14328TIP3    H164475   1.549   1.655   5.095 -1.5033 -1.1895 -1.3290
14328TIP3    H264476   1.471   1.763   5.168  1.3188 -0.7380  1.1066
14329TIP3   OH264477   4.650   0.705  16.440  0.2537  0.8111  0.0896
14329TIP3    H164478   4.708   0.667  16.374  1.0321 -1.0344  1.8097
14329TIP3    H264479   4.704   0.766  16.489  0.1905  0.6863  0.3153
14330TIP3   OH264480   3.405   4.275  13.662  0.7158 -0.2620  0.5169
14330TIP3    H164481   3.369   4.193  13.697  0.3907 -0.6017 -0.5905
14330TIP3    H264482   3.348   4.343  13.699 -0.2560 -0.6970 -0.1428
14331TIP3   OH264483   4.206   2.544  17.045 -0.6029 -0.3471  0.1968
14331TIP3    H164484   4.286   2.593  17.063 -0.4545 -0.1111 -1.0429
14331TIP3    H264485   4.146   2.570  17.115  0.1135  0.1374  0.6416
14332TIP3   OH264486   2.664   6.717  13.671  0.2672 -0.3788 -0.2119
14332TIP3    H164487   2.688   6.624  13.673 -0.1481 -0.4908 -0.3990
14332TIP3    H264488   2.707   6.751  13.593  1.1381 -0.2127  0.3272
14333TIP3   OH264489   2.665   0.566  12.766  0.1063 -0.1678  0.3750
14333TIP3    H164490   2.598   0.583  12.833  0.2760 -1.2538  0.8301
14333TIP3    H264491   2.676   0.471  12.768  2.5956  0.1158  1.1847
14334TIP3   OH264492   3.303   4.566   6.019 -0.5260 -0.0306  0.0165
14334TIP3    H164493   3.229   4.508   6.000 -0.1911 -0.2219 -0.7372
14334TIP3    H264494   3.380   4.514   5.999 -0.2159  0.5784 -0.3975
14335TIP3   OH264495   5.005   3.913  16.566  0.3313  0.2082  0.0367
14335TIP3    H164496   4.918   3.879  16.546  0.1576 -0.5356  1.9445
14335TIP3    H264497   4.999   4.007  16.547 -0.3585 -0.1355 -1.4883
14336TIP3   OH264498   3.282   6.277  12.860 -0.5604  0.3386 -0.6793
14336TIP3    H164499   3.301   6.184  12.871 -0.8935  0.5678  2.1780
14336TIP3    H264500   3.360   6.312  12.817 -0.0542 -1.0744 -0.9505
14337TIP3   OH264501   5.283   4.150  13.328 -0.5457  0.1159  0.0189
14337TIP3    H164502   5.293   4.187  13.416 -1.8356 -0.3229  0.3670
14337TIP3    H264503   5.300   4.223  13.269 -1.0253  0.7558  0.6636
14338TIP3   OH264504   6.689   2.035   2.441 -0.7541 -0.2201  0.1634
14338TIP3    H164505   6.782   2.028   2.464 -1.1270  0.6975  2.0596
14338TIP3    H264506   6.651   1.953   2.473 -1.0251  0.4738  1.6799
14339TIP3   OH264507   4.915   6.324  11.778  0.1674  0.3383  0.4229
14339TIP3    H164508   4.898   6.246  11.725 -0.0871 -0.1699  1.2389
14339TIP3    H264509   4.994   6.301  11.828  2.3734  2.0480 -2.1320
14340TIP3   OH264510   1.324   1.065   2.740 -0.2549 -0.3428 -0.2562
14340TIP3    H164511   1.242   1.097   2.702  1.7063  1.2505 -3.3310
14340TIP3    H264512   1.389   1.132   2.718  1.6515 -0.8046  3.4421
14341TIP3   OH264513   3.848   0.677  14.270  0.0476  0.0599  0.0530
14341TIP3    H164514   3.889   0.602  14.313  1.4589  1.0843  0.4962
14341TIP3    H264515   3.917   0.714  14.215 -0.5578  1.2008  0.0470
14342TIP3   OH264516   6.608   4.881   3.567 -0.2027  0.1732  0.1621
14342TIP3    H164517   6.689   4.907   3.523  0.2796 -0.2255  0.8177
14342TIP3    H264518   6.602   4.940   3.642 -0.1268 -0.3004  0.5397
14343TIP3   OH264519   1.901   1.244   4.860  0.0786  0.2812 -0.7491
14343TIP3    H164520   1.920   1.331   4.825 -0.4051  0.8451  0.3690
14343TIP3    H264521   1.812   1.251   4.894 -0.0727 -0.7392 -0.9335
14344TIP3   OH264522   1.239   6.022  17.133  0.0118 -0.0820  0.5866
14344TIP3    H164523   1.265   5.933  17.109 -0.8836 -0.1112 -0.2926
14344TIP3    H264524   1.286   6.078  17.070  0.2343  0.0422  0.8620
14345TIP3   OH264525   6.814   3.233   2.154 -0.2873  0.0551 -0.2420
14345TIP3    H164526   6.844   3.310   2.203  0.4637 -0.3370 -0.0861
14345TIP3    H264527   6.752   3.268   2.090  0.4966  0.8703 -0.5631
14346TIP3   OH264528   1.873   4.594   1.448 -0.0707  1.1236 -0.3241
14346TIP3    H164529   1.783   4.618   1.426 -0.6987 -1.1138 -0.3612
14346TIP3    H264530   1.893   4.521   1.390  1.7072  1.4704 -0.1768
14347TIP3   OH264531   4.740   5.766  14.847 -0.0264  0.0757  0.2747
14347TIP3    H164532   4.741   5.673  14.824 -0.8771  0.4048 -1.0913
14347TIP3    H264533   4.648   5.786  14.866  0.2106  0.5528  0.9757
14348TIP3   OH264534   3.129   5.521   5.661  0.4119 -0.0382  0.2685
14348TIP3    H164535   3.108   5.518   5.754 -0.9055  0.7656  0.0091
14348TIP3    H264536   3.224   5.528   5.659  0.6590 -2.6140  1.4823
14349TIP3   OH264537   6.029   3.882   0.041 -0.0677  0.3258  0.3922
14349TIP3    H164538   6.034   3.805   0.097 -0.7662  0.6559  0.9129
14349TIP3    H264539   5.935   3.900   0.032 -0.0196 -0.2437 -1.6105
14350TIP3   OH264540   2.771   6.073   6.490  0.0812 -0.2494 -0.2388
14350TIP3    H164541   2.835   6.022   6.539  0.4570  0.3485 -0.1047
14350TIP3    H264542   2.688   6.059   6.537  0.2428 -0.4763 -0.0192
14351TIP3   OH264543   0.811   2.633   1.895 -0.1785 -0.1608 -0.2420
14351TIP3    H164544   0.837   2.588   1.814  0.3851  0.9020 -0.6670
14351TIP3    H264545   0.889   2.682   1.920 -0.8347  0.7044  0.1179
14352TIP3   OH264546   2.463   6.206  16.567 -0.2775  0.2535  0.2678
14352TIP3    H164547   2.411   6.137  16.525  0.3476 -0.8560  1.2770
14352TIP3    H264548   2.451   6.283  16.511 -0.0393 -0.9904 -1.5328
14353TIP3   OH264549   6.216   2.373   5.200 -0.2932  0.0945 -0.2226
14353TIP3    H164550   6.246   2.308   5.263  0.2006  0.2337 -0.3097
14353TIP3    H264551   6.278   2.445   5.208  0.4458 -0.3480 -1.6342
14354TIP3   OH264552   2.759   5.733   3.736  0.0604 -0.0915 -0.0608
14354TIP3    H164553   2.768   5.638   3.746 -1.2662 -0.2208  0.0311
14354TIP3    H264554   2.780   5.769   3.822 -1.7197 -0.4886  0.5748
14355TIP3   OH264555   4.791   6.640   0.555 -0.2595  0.6769  0.4263
14355TIP3    H164556   4.868   6.590   0.583 -1.3020 -0.0053  2.0871
14355TIP3    H264557   4.726   6.625   0.623 -1.6822  1.7231 -0.6792
14356TIP3   OH264558   1.428   0.502   3.670 -0.1159 -0.2357  0.2726
14356TIP3    H164559   1.347   0.542   3.700 -0.2519 -1.5212  1.6844
14356TIP3    H264560   1.409   0.408   3.666  1.8087 -0.7650  2.3968
14357TIP3   OH264561   1.929   3.963  14.336 -0.3068  0.0328 -0.8300
14357TIP3    H164562   1.940   4.049  14.377 -2.0584 -0.2198  0.2057
14357TIP3    H264563   2.015   3.943  14.299  0.4068  1.7434 -0.1357
14358TIP3   OH264564   6.208   3.801   1.672 -0.2680 -0.7760  0.1903
14358TIP3    H164565   6.233   3.719   1.631  0.6881 -0.9969  1.1878
14358TIP3    H264566   6.253   3.868   1.620 -0.2279 -0.9500  0.0007
14359TIP3   OH264567   2.351   1.505   0.798  0.2971  0.1859  0.2857
14359TIP3    H164568   2.349   1.584   0.852 -0.3882  1.2988 -1.3186
14359TIP3    H264569   2.285   1.521   0.730 -0.1772 -1.9712  0.2034
14360TIP3   OH264570   2.676   3.044   6.628 -0.1523  0.1878 -0.1570
14360TIP3    H164571   2.657   3.088   6.545 -0.2770  0.6188  0.1014
14360TIP3    H264572   2.606   3.072   6.687  0.6268  0.8559  0.4553
14361TIP3   OH264573   6.646   6.705   1.128  0.0136  0.0238  0.2389
14361TIP3    H164574   6.654   6.634   1.065  0.0348  0.4065 -0.1871
14361TIP3    H264575   6.552   6.725   1.130 -0.1374 -0.7134  1.1283
14362TIP3   OH264576   2.665   4.176  12.382  0.0560 -0.2859  0.0528
14362TIP3    H164577   2.702   4.158  12.468 -0.4905 -0.3146  0.2864
14362TIP3    H264578   2.740   4.179  12.323  0.4613  0.0711  0.5883
14363TIP3   OH264579   4.589   5.994   0.611  0.2040  0.6130 -0.1753
14363TIP3    H164580   4.633   5.950   0.538 -0.4047 -0.3420  0.0299
14363TIP3    H264581   4.539   6.064   0.570  0.2009  0.3442 -0.6355
14364TIP3   OH264582   2.053   4.815   0.716 -0.3303  0.7928  0.8184
14364TIP3    H164583   2.051   4.733   0.666  1.6692  1.4707 -0.3883
14364TIP3    H264584   2.074   4.787   0.806  0.3094 -0.0212  0.4245
14365TIP3   OH264585   3.197   3.032   0.808  0.1301 -0.3444 -0.0228
14365TIP3    H164586   3.188   3.103   0.871  0.8292 -0.0472 -0.2490
14365TIP3    H264587   3.127   3.046   0.745  1.9472  1.8032 -1.6575
14366TIP3   OH264588   5.910   2.145   0.352  0.6121  0.7969  0.3002
14366TIP3    H164589   5.982   2.083   0.364  0.4557  0.2302 -1.5507
14366TIP3    H264590   5.831   2.094   0.368  0.5450  0.9115  0.3339
14367TIP3   OH264591   6.599   6.765   0.695 -0.0739  0.0791  0.4503
14367TIP3    H164592   6.576   6.858   0.698 -0.5755 -0.0434  0.4397
14367TIP3    H264593   6.665   6.754   0.764 -0.5916  0.2812  0.9795
14368TIP3   OH264594   4.948   3.838  13.816  0.4937 -0.0552 -0.5558
14368TIP3    H164595   5.023   3.897  13.805  0.6136 -0.3279 -1.1886
14368TIP3    H264596   4.898   3.847  13.734  1.1213 -1.7062 -1.1212
14369TIP3   OH264597   4.413   3.049   0.880 -0.3749 -0.3815 -0.2614
14369TIP3    H164598   4.352   2.990   0.924  0.6563 -0.6679  0.8044
14369TIP3    H264599   4.439   3.112   0.947 -2.5238  2.1702 -1.7420
14370TIP3   OH264600   2.956   4.733   0.105  0.0049 -0.0018  0.1570
14370TIP3    H164601   2.876   4.777   0.075 -0.2820  0.5195  1.6183
14370TIP3    H264602   3.020   4.804   0.115  0.3410 -0.2789 -0.0446
14371TIP3   OH264603   4.721   4.642   5.294 -0.1260 -0.3783  0.3874
14371TIP3    H164604   4.813   4.618   5.305 -0.1648 -0.8771 -0.3590
14371TIP3    H264605   4.716   4.680   5.207 -0.6425 -0.4228  0.3940
14372TIP3   OH264606   0.371   4.535   4.183 -0.2009 -0.1186 -0.1267
14372TIP3    H164607   0.396   4.619   4.145  1.3970 -0.4634  0.1326
14372TIP3    H264608   0.454   4.490   4.198 -1.0178 -1.5455  0.1925
14373TIP3   OH264609   6.243   3.526  15.467 -0.0557 -0.1130 -0.1902
14373TIP3    H164610   6.304   3.466  15.423  1.8708  1.0886  0.7784
14373TIP3    H264611   6.285   3.611  15.460 -2.6026  1.0886 -1.2384
14374TIP3   OH264612   5.358   4.279  15.289 -0.2757 -0.2427  0.3256
14374TIP3    H164613   5.357   4.189  15.322 -0.7308  0.8006  3.3258
14374TIP3    H264614   5.266   4.304  15.285 -0.1657 -0.0282 -0.8645
14375TIP3   OH264615   6.421   1.670   4.882  0.4504  0.2091  0.1853
14375TIP3    H164616   6.393   1.760   4.863 -0.3345 -0.1637 -0.4611
14375TIP3    H264617   6.344   1.617   4.865  0.8349 -0.5627  0.8416
14376TIP3   OH264618   4.429   4.126   0.162  1.3027 -0.3598  0.4434
14376TIP3    H164619   4.370   4.051   0.171 -0.2926  0.9163  0.6291
14376TIP3    H264620   4.489   4.100   0.091 -2.3372  0.1732 -3.0060
14377TIP3   OH264621   3.664   5.730  16.511 -0.9029 -0.3274 -0.2691
14377TIP3    H164622   3.681   5.682  16.430  0.8194 -0.1296 -0.0511
14377TIP3    H264623   3.679   5.822  16.488 -0.0025 -0.3097  0.3631
14378TIP3   OH264624   3.363   0.396  12.116 -0.1218 -0.0214  0.0571
14378TIP3    H164625   3.334   0.425  12.202 -0.0496 -0.4761  0.2337
14378TIP3    H264626   3.426   0.327  12.134  1.3144  1.1649 -0.3141
14379TIP3   OH264627   3.245   5.553  13.493  0.1344  0.4376  0.4476
14379TIP3    H164628   3.179   5.574  13.426  0.9398 -0.8580 -0.7750
14379TIP3    H264629   3.297   5.633  13.500  0.4551  0.3689 -0.9686
14380TIP3   OH264630   5.850   3.381   4.582  0.8492 -0.8288 -0.1803
14380TIP3    H164631   5.788   3.344   4.520 -1.4258  0.7640  1.0503
14380TIP3    H264632   5.917   3.423   4.528 -0.3700 -0.6137 -1.5462
14381TIP3   OH264633   3.773   0.073  14.728  0.4976  0.0774  0.1775
14381TIP3    H164634   3.778   0.044  14.636  0.6210  0.0834  0.1831
14381TIP3    H264635   3.840   0.141  14.736  0.2918  0.2784  0.2001
14382TIP3   OH264636   2.351   2.008   0.415  0.1412  0.2600 -0.8321
14382TIP3    H164637   2.441   1.983   0.434  0.2010  1.5718  0.7126
14382TIP3    H264638   2.322   1.946   0.348  2.0711 -0.3799 -1.0897
14383TIP3   OH264639   4.220   6.530  12.119 -0.2551 -0.3347 -0.1585
14383TIP3    H164640   4.138   6.561  12.158 -0.6385 -0.6972 -0.6578
14383TIP3    H264641   4.204   6.533  12.025  1.0785  1.6594 -0.3447
14384TIP3   OH264642   1.440   5.856   2.628  0.3319  0.5480  0.3348
14384TIP3    H164643   1.378   5.898   2.570  0.2047 -1.3085 -0.9266
14384TIP3    H264644   1.400   5.771   2.648  1.9906 -0.2632  0.2874
14385TIP3   OH264645   0.016   1.977   0.164 -0.2301  0.2623  0.9958
14385TIP3    H164646   0.104   1.949   0.139  0.3579 -0.3303  3.5902
14385TIP3    H264647   0.006   2.064   0.125  1.0156 -0.2043 -0.3794
14386TIP3   OH264648   6.618   0.143   5.834  0.4062  0.5932 -0.5252
14386TIP3    H164649   6.554   0.171   5.900  0.4251 -1.0240  0.2008
14386TIP3    H264650   6.632   0.051   5.853  1.5772  0.4968 -1.8509
14387TIP3   OH264651   1.446   6.513  16.792 -0.1701  0.2011 -0.5616
14387TIP3    H164652   1.380   6.471  16.737 -1.0612  1.1860 -0.2547
14387TIP3    H264653   1.405   6.520  16.878 -0.0960  1.8011 -0.6330
14388TIP3   OH264654   5.495   3.168   1.736  0.7925  0.4665 -0.2254
14388TIP3    H164655   5.480   3.262   1.747  2.4984  0.8437 -0.9207
14388TIP3    H264656   5.423   3.127   1.783 -1.0384  2.1370 -1.5001
14389TIP3   OH264657   0.842   0.626  13.931  0.6640 -0.4366  0.3587
14389TIP3    H164658   0.890   0.692  13.981  2.0990  1.0934 -2.8520
14389TIP3    H264659   0.894   0.546  13.942  1.5540  0.1445  0.4602
14390TIP3   OH264660   1.888   0.774   0.738 -0.2279  0.2274  0.5197
14390TIP3    H164661   1.971   0.749   0.776 -1.0158 -1.4518  1.1751
14390TIP3    H264662   1.846   0.828   0.805  1.0170  2.5190 -0.4779
14391TIP3   OH264663   2.023   2.345  14.742  0.1333  0.1303 -0.3625
14391TIP3    H164664   2.070   2.364  14.823 -1.6448  0.9480  0.5072
14391TIP3    H264665   2.035   2.252  14.728 -0.9318 -0.3524  1.7485
14392TIP3   OH264666   3.046   6.466  14.014 -0.6289  0.3448 -0.4113
14392TIP3    H164667   3.052   6.445  14.107 -0.8110  0.5507 -0.3519
14392TIP3    H264668   3.135   6.490  13.989 -0.7119  0.9655 -0.1235
14393TIP3   OH264669   1.758   6.221   0.413  0.1341 -0.7442  1.0221
14393TIP3    H164670   1.751   6.150   0.349  1.2303 -2.2456  2.5076
14393TIP3    H264671   1.749   6.178   0.498 -1.9553  1.3087  1.9016
14394TIP3   OH264672   5.727   2.189  17.065  0.3705  0.4109  0.2510
14394TIP3    H164673   5.765   2.211  16.980  0.6213 -0.2344  0.1964
14394TIP3    H264674   5.661   2.123  17.046  1.3016 -0.6628  0.7057
14395TIP3   OH264675   5.344   4.572   5.164  0.0744 -0.2258 -0.3319
14395TIP3    H164676   5.360   4.573   5.258 -0.0021 -2.1222 -0.2802
14395TIP3    H264677   5.391   4.649   5.131  0.0713  0.4707  1.2434
14396TIP3   OH264678   3.119   2.164   2.011 -0.0379  0.2934 -0.4009
14396TIP3    H164679   3.117   2.212   2.094 -1.1034 -1.2487  0.4935
14396TIP3    H264680   3.028   2.162   1.982  0.4456  1.5796 -2.0801
14397TIP3   OH264681   5.784   0.039   3.562  0.0792 -0.0508 -0.1665
14397TIP3    H164682   5.789  -0.054   3.584  0.7817 -0.0629 -0.3486
14397TIP3    H264683   5.815   0.084   3.641 -3.7857  0.2133  1.2998
14398TIP3   OH264684   2.416   2.213  11.658  0.4232  0.1936 -0.6129
14398TIP3    H164685   2.452   2.137  11.704 -2.0772 -1.3267 -1.1254
14398TIP3    H264686   2.444   2.201  11.567  1.0006  0.5081 -0.4813
14399TIP3   OH264687   4.164   2.854  10.425  0.1121 -0.1987  0.2591
14399TIP3    H164688   4.112   2.914  10.373  0.2068 -0.5776 -0.2833
14399TIP3    H264689   4.201   2.793  10.361 -2.0542 -2.4117  1.0485
14400TIP3   OH264690   4.781   4.804   5.050  0.4544  0.2487  0.0655
14400TIP3    H164691   4.821   4.868   5.109 -0.4246  1.4600 -0.6457
14400TIP3    H264692   4.748   4.855   4.977 -0.2173 -1.0303 -0.5511
14401TIP3   OH264693   0.087   2.454   0.799  0.2671 -0.3766  0.4033
14401TIP3    H164694   0.154   2.484   0.737 -0.2516  1.0788  0.5353
14401TIP3    H264695   0.136   2.407   0.866  0.8889 -1.5313 -0.8186
14402TIP3   OH264696   6.257   5.681  12.844 -0.0168 -0.3359  0.1762
14402TIP3    H164697   6.192   5.700  12.911 -0.0289  1.1009 -0.2308
14402TIP3    H264698   6.208   5.674  12.763  0.4310  2.0505 -0.3564
14403TIP3   OH264699   3.895   1.141   6.311 -0.3985 -0.3209  0.0282
14403TIP3    H164700   3.853   1.204   6.369  0.6254  1.0723 -0.7261
14403TIP3    H264701   3.942   1.082   6.371 -0.9250 -0.0635  0.7028
14404TIP3   OH264702   5.182   6.172  12.495 -0.5692 -0.2381  0.2980
14404TIP3    H164703   5.135   6.177  12.412 -0.1692 -1.4978 -0.0119
14404TIP3    H264704   5.264   6.220  12.479  0.5477 -2.4320 -0.7752
14405TIP3   OH264705   5.182   5.585  15.981 -0.0915  0.1940  0.2524
14405TIP3    H164706   5.274   5.572  16.004 -0.3058  0.1572  1.1088
14405TIP3    H264707   5.157   5.666  16.025 -0.5252  0.0919  0.1998
14406TIP3   OH264708   0.551   6.730  12.900  0.7501  0.6708  0.3573
14406TIP3    H164709   0.535   6.794  12.831  1.8740  1.5785  0.9146
14406TIP3    H264710   0.495   6.758  12.972 -0.6350 -0.4414 -0.2855
14407TIP3   OH264711   2.207   4.623  13.642  0.1022 -0.0726 -0.1852
14407TIP3    H164712   2.168   4.665  13.565  1.4130  0.4292 -0.5896
14407TIP3    H264713   2.191   4.685  13.714 -1.6517 -0.8094  0.1040
14408TIP3   OH264714   4.864   0.282  15.444 -0.4589  0.3922  0.0691
14408TIP3    H164715   4.826   0.222  15.380  0.6077  0.0754 -0.2694
14408TIP3    H264716   4.808   0.273  15.521  1.5179 -3.4868  1.1906
14409TIP3   OH264717   0.537   1.850  16.133  0.0705  0.0799 -0.0290
14409TIP3    H164718   0.455   1.873  16.090  0.6165  1.0072 -0.6094
14409TIP3    H264719   0.547   1.757  16.117 -0.8980 -0.0537  0.0992
14410TIP3   OH264720   3.655   4.948  12.158 -0.0943  0.4058  0.0026
14410TIP3    H164721   3.579   4.961  12.101 -0.4044  0.1267  0.3468
14410TIP3    H264722   3.660   4.853  12.170  0.9035  0.3498 -0.8190
14411TIP3   OH264723   2.160   6.068  15.264  0.2432 -0.0209  0.1980
14411TIP3    H164724   2.175   5.977  15.289  0.2254  0.1614  0.8866
14411TIP3    H264725   2.215   6.119  15.324 -0.8055  0.4902  0.7398
14412TIP3   OH264726   2.213   2.091  12.440  0.2118  0.1280  0.4620
14412TIP3    H164727   2.131   2.047  12.417  0.4832 -1.0047  1.6001
14412TIP3    H264728   2.185   2.176  12.474 -0.4454  0.0788  0.0566
14413TIP3   OH264729   6.141   0.621  12.766 -0.6283  0.3632 -0.2990
14413TIP3    H164730   6.154   0.532  12.734  0.2833  0.6253 -0.6780
14413TIP3    H264731   6.097   0.667  12.694 -1.0601  0.2433 -0.1178
14414TIP3   OH264732   2.880   4.758  15.094  0.3440 -0.2755 -0.2573
14414TIP3    H164733   2.836   4.779  15.011 -0.0096 -1.2819 -0.3307
14414TIP3    H264734   2.813   4.773  15.161 -0.1892 -1.9678 -0.3828
14415TIP3   OH264735   2.558   6.813  15.165  0.3639  0.4026  0.2107
14415TIP3    H164736   2.534   6.902  15.191  0.7294 -0.1387  2.5133
14415TIP3    H264737   2.638   6.823  15.115  0.4754  1.3628  0.5752
14416TIP3   OH264738   1.320   3.580   3.884 -0.4446  0.1237 -0.1872
14416TIP3    H164739   1.244   3.575   3.826  0.5223  2.0506 -1.6716
14416TIP3    H264740   1.303   3.656   3.939 -0.0098  0.0303  0.0807
14417TIP3   OH264741   6.360   0.726   4.001  0.4405 -0.0437  0.0373
14417TIP3    H164742   6.268   0.741   4.024 -0.7506 -2.6523 -2.6037
14417TIP3    H264743   6.394   0.672   4.072 -0.6197 -0.5160  0.2032
14418TIP3   OH264744   6.767   5.657  16.337 -0.7325  0.3363 -0.6473
14418TIP3    H164745   6.741   5.606  16.414 -1.1142 -0.2946 -1.1984
14418TIP3    H264746   6.861   5.671  16.349 -0.6833 -0.2332 -0.3426
14419TIP3   OH264747   4.925   2.000   0.474  0.4805  0.5304  0.1269
14419TIP3    H164748   4.900   1.908   0.482 -1.5834  1.2812  3.4641
14419TIP3    H264749   4.847   2.043   0.439  0.2145  1.5092  1.8743
14420TIP3   OH264750   0.599   3.457  12.004  0.5194 -0.4745  0.1976
14420TIP3    H164751   0.634   3.542  12.031  1.1934 -0.9041  0.6932
14420TIP3    H264752   0.504   3.466  12.016  0.3435  0.9848 -1.9613
14421TIP3   OH264753   0.925   1.342  15.305  0.1314  0.3348 -0.4093
14421TIP3    H164754   0.963   1.401  15.370 -1.6177 -0.5920  1.5192
14421TIP3    H264755   0.831   1.359  15.310  0.0940  1.5159 -4.0194
14422TIP3   OH264756   4.915   2.528   4.386  0.7182 -0.1307  0.3029
14422TIP3    H164757   4.862   2.449   4.386 -0.4602  0.6361  0.2813
14422TIP3    H264758   4.872   2.586   4.322  2.1439  0.1436 -0.4338
14423TIP3   OH264759   1.014   0.968  12.598 -0.6884 -0.4533 -0.1122
14423TIP3    H164760   1.027   0.983  12.692  1.3708  0.1017 -0.4586
14423TIP3    H264761   0.993   1.054  12.562  1.2152 -0.1611 -0.5637
14424TIP3   OH264762   3.745   4.833   2.496 -0.0406  0.4989 -0.3853
14424TIP3    H164763   3.759   4.834   2.591  0.4541 -0.0491 -0.4491
14424TIP3    H264764   3.651   4.842   2.485 -0.1979 -0.4030  0.1922
14425TIP3   OH264765   4.086   6.060   3.844 -0.3418 -0.0583 -0.0983
14425TIP3    H164766   3.992   6.066   3.856 -0.3854 -1.0050  0.0519
14425TIP3    H264767   4.111   6.144   3.805 -1.4606 -0.4289 -1.6336
14426TIP3   OH264768   1.180   6.245   1.881 -0.5165  0.2714 -0.3828
14426TIP3    H164769   1.233   6.287   1.949 -0.2497 -1.2192  0.3447
14426TIP3    H264770   1.129   6.179   1.927  0.2355 -1.2791 -1.7234
14427TIP3   OH264771   2.114   1.443  12.953 -0.0420  0.7032  0.0377
14427TIP3    H164772   2.167   1.369  12.924 -2.3629 -1.4799  1.1994
14427TIP3    H264773   2.169   1.489  13.016  0.7417 -1.0715  0.6737
14428TIP3   OH264774   4.739   6.160  15.135  0.3812  0.3118 -0.3354
14428TIP3    H164775   4.819   6.189  15.091  0.7545 -0.0113  0.1153
14428TIP3    H264776   4.764   6.076  15.175  0.1957  0.8324  0.8908
14429TIP3   OH264777   4.351   0.834  11.038 -0.5127 -1.0612  0.4272
14429TIP3    H164778   4.350   0.748  10.995 -1.0173 -1.0693  0.4454
14429TIP3    H264779   4.261   0.866  11.029 -0.0526 -0.0076 -0.6220
14430TIP3   OH264780   6.262   1.049   4.957  0.3198 -0.3864 -0.1490
14430TIP3    H164781   6.322   1.108   4.912  0.7544 -0.3826  0.4258
14430TIP3    H264782   6.219   1.000   4.887  2.3549 -1.7237 -0.5257
14431TIP3   OH264783   6.156   4.611  14.910 -0.5512 -0.0250 -0.0523
14431TIP3    H164784   6.065   4.589  14.893 -0.7117  1.5597 -1.3643
14431TIP3    H264785   6.188   4.541  14.968 -2.7687 -0.2472  0.9433
14432TIP3   OH264786   1.779   4.864  13.211  0.3266 -0.5841  0.4869
14432TIP3    H164787   1.854   4.910  13.249  1.8900 -0.4614 -2.6112
14432TIP3    H264788   1.714   4.933  13.196  0.8244 -0.1591  0.2560
14433TIP3   OH264789   0.698   1.661  12.531  0.0398  0.1171 -0.2858
14433TIP3    H164790   0.750   1.646  12.610 -0.0093 -2.1560 -0.6359
14433TIP3    H264791   0.616   1.699  12.563  0.3754  0.0369  0.6838
14434TIP3   OH264792   2.336   5.140   5.996  0.2706 -0.1727 -0.4326
14434TIP3    H164793   2.404   5.147   6.063  2.8215 -1.6597 -2.7565
14434TIP3    H264794   2.281   5.068   6.026 -0.0624  0.7797  1.2848
14435TIP3   OH264795   3.887   4.338   1.958 -0.0509  0.2939  0.2689
14435TIP3    H164796   3.949   4.277   1.918 -0.5975  0.3648 -0.7283
14435TIP3    H264797   3.802   4.296   1.946 -0.7713  2.3944 -2.8322
14436TIP3   OH264798   3.197   2.966  16.751 -1.0577 -0.3628 -0.3200
14436TIP3    H164799   3.134   2.895  16.742 -0.4382 -0.9403 -0.0830
14436TIP3    H264800   3.204   2.980  16.845 -1.0032 -0.1418 -0.3566
14437TIP3   OH264801   4.905   3.909   2.704  0.6041 -0.1351 -0.1687
14437TIP3    H164802   4.988   3.939   2.667 -0.2012  0.5487 -1.4364
14437TIP3    H264803   4.845   3.983   2.693 -0.3819 -0.8865  0.0833
14438TIP3   OH264804   3.008   2.731   0.220 -0.4859 -0.0053 -0.4854
14438TIP3    H164805   3.034   2.687   0.138 -0.1651  0.6373 -0.7336
14438TIP3    H264806   3.091   2.749   0.264 -0.7286 -1.6844  0.6936
14439TIP3   OH264807   1.978   5.393  17.071  0.1702  0.5180  0.0551
14439TIP3    H164808   1.929   5.452  17.128  0.7409  0.1865  0.9049
14439TIP3    H264809   2.042   5.351  17.129  0.3066 -0.3344 -0.6942
14440TIP3   OH264810   3.404   6.351   5.760  0.0467  0.1007  0.2719
14440TIP3    H164811   3.399   6.415   5.689 -1.4118  1.0872  1.2458
14440TIP3    H264812   3.315   6.319   5.770  0.1780  0.2010  1.8685
14441TIP3   OH264813   1.136   5.025   1.092  0.4685 -0.1679 -0.8351
14441TIP3    H164814   1.169   5.044   1.180 -0.8112 -1.4188 -0.0592
14441TIP3    H264815   1.135   5.110   1.048  1.6681  0.3780  0.1650
14442TIP3   OH264816   6.686   3.788   1.789  0.0602 -0.0603  0.0586
14442TIP3    H164817   6.605   3.804   1.741  0.4644  0.0096 -0.6161
14442TIP3    H264818   6.716   3.874   1.815 -0.6651 -0.1777  1.2861
14443TIP3   OH264819   3.467   2.816  13.231  0.4530 -0.3892  0.7423
14443TIP3    H164820   3.552   2.779  13.257  0.1427 -1.2177  0.5978
14443TIP3    H264821   3.467   2.811  13.136 -0.2740 -1.5771  0.7907
14444TIP3   OH264822   4.253   3.593   0.939 -0.2830 -0.1478  0.2701
14444TIP3    H164823   4.309   3.626   0.868 -1.6051 -3.2320 -2.3123
14444TIP3    H264824   4.315   3.560   1.005  0.9512  2.5489  0.5431
14445TIP3   OH264825   5.128   0.686   1.971 -0.1220 -0.1025  0.0277
14445TIP3    H164826   5.136   0.766   2.024 -1.7487  1.4970 -2.0489
14445TIP3    H264827   5.214   0.674   1.932  0.8151 -0.7412  2.1822
14446TIP3   OH264828   6.448   1.394   0.688  0.5655  0.2085 -0.0614
14446TIP3    H164829   6.373   1.416   0.744 -2.2355 -2.2612 -2.6730
14446TIP3    H264830   6.471   1.304   0.713 -0.3432 -0.7082 -2.3625
14447TIP3   OH264831   5.351   3.143   4.515 -0.3414 -0.2306  0.0771
14447TIP3    H164832   5.277   3.150   4.576 -0.1140  1.9148  0.1708
14447TIP3    H264833   5.428   3.165   4.568 -0.0888  1.1878 -0.8400
14448TIP3   OH264834   6.687   4.963  14.536 -0.1469  0.4504 -0.1582
14448TIP3    H164835   6.631   4.942  14.611 -1.8214 -0.4408 -1.6042
14448TIP3    H264836   6.679   5.058  14.527 -1.1773  0.3818 -0.1219
14449TIP3   OH264837   5.429   1.258   0.379 -0.4718 -0.0324 -0.3753
14449TIP3    H164838   5.451   1.200   0.451 -2.6176  0.5306  0.7714
14449TIP3    H264839   5.481   1.337   0.394  1.6131 -1.1950 -1.3281
14450TIP3   OH264840   6.533   4.030  11.607 -0.1929  0.2609  0.2282
14450TIP3    H164841   6.515   4.123  11.617 -0.2902  0.1820  0.7968
14450TIP3    H264842   6.625   4.025  11.583  0.2838  0.4055  1.9980
14451TIP3   OH264843   3.116   5.834  15.044  0.0828 -0.2046  0.1292
14451TIP3    H164844   3.161   5.781  15.109  1.5050  1.4741  0.5344
14451TIP3    H264845   3.025   5.805  15.049  0.6322 -1.8089  1.1265
14452TIP3   OH264846   5.367   6.272   0.362 -0.1164  0.4967  0.1427
14452TIP3    H164847   5.322   6.223   0.430 -1.2266  0.2047 -0.7883
14452TIP3    H264848   5.331   6.361   0.368  1.1119  0.9319  1.1267
14453TIP3   OH264849   6.312   4.416   1.434  0.0143  0.1169 -0.0851
14453TIP3    H164850   6.312   4.330   1.391 -2.9053 -0.0380  0.0819
14453TIP3    H264851   6.362   4.472   1.376  0.2020 -1.2246 -1.2478
14454TIP3   OH264852   5.660   2.653  11.336  0.0211  0.1079 -0.4069
14454TIP3    H164853   5.615   2.720  11.284  0.0306 -0.1549 -0.7558
14454TIP3    H264854   5.645   2.680  11.427 -1.3813 -0.3240 -0.4976
14455TIP3   OH264855   3.973   5.909   0.607 -0.0122 -0.1914  0.3204
14455TIP3    H164856   3.939   5.880   0.523  0.6826 -0.9286  0.2817
14455TIP3    H264857   3.979   5.829   0.659  1.4254 -0.0440  0.4004
14456TIP3   OH264858   5.901   6.398   2.201 -0.3041 -0.3692 -0.4556
14456TIP3    H164859   5.956   6.349   2.139 -0.3140  0.1682 -0.8955
14456TIP3    H264860   5.962   6.426   2.270 -0.3175 -1.0784 -0.1516
14457TIP3   OH264861   4.486   5.800  14.945  0.3137 -0.2679 -0.3575
14457TIP3    H164862   4.431   5.843  14.879  0.1432  3.1458  1.8919
14457TIP3    H264863   4.424   5.761  15.006  0.4366 -0.4627 -0.3574
14458TIP3   OH264864   5.100   6.201   0.111 -0.0776 -0.2400  0.4703
14458TIP3    H164865   5.011   6.186   0.142 -0.4970 -1.3137 -1.1696
14458TIP3    H264866   5.090   6.255   0.033  0.5860 -1.5547 -0.5471
14459TIP3   OH264867   5.659   2.225   2.400 -0.3030 -0.1932 -1.1361
14459TIP3    H164868   5.690   2.144   2.359  1.3976 -0.1114 -0.0495
14459TIP3    H264869   5.707   2.294   2.355  0.7491 -0.0292  0.2270
14460TIP3   OH264870   0.395   1.031  16.781  0.1345  0.0314 -0.0801
14460TIP3    H164871   0.322   1.025  16.720 -0.0836 -2.5664  0.4000
14460TIP3    H264872   0.361   0.995  16.863  1.9735 -1.3057  0.1177
14461TIP3   OH264873   4.131   3.146   3.399  0.4520  0.0337 -0.2688
14461TIP3    H164874   4.203   3.208   3.390 -0.2149  0.4188 -3.6638
14461TIP3    H264875   4.056   3.200   3.426  0.7505  0.0993  0.4330
14462TIP3   OH264876   3.199   6.621  10.626  0.5892 -0.2942  0.1643
14462TIP3    H164877   3.122   6.596  10.677 -0.0432  0.8587 -0.2247
14462TIP3    H264878   3.172   6.698  10.576  1.7667 -0.3162 -0.5340
14463TIP3   OH264879   2.776   4.367   4.435 -0.3643 -0.9435 -0.8263
14463TIP3    H164880   2.724   4.447   4.424 -0.5010 -0.9364 -0.1308
14463TIP3    H264881   2.770   4.347   4.528 -0.0908 -1.6063 -0.9501
14464TIP3   OH264882   6.748   3.034  17.023 -0.4959 -0.0813  0.0299
14464TIP3    H164883   6.787   3.053  17.108 -0.5673  2.8159 -0.5460
14464TIP3    H264884   6.788   3.098  16.963 -2.3642 -0.3722 -1.5940
14465TIP3   OH264885   1.698   6.193  13.163 -0.3600 -0.5253  0.2032
14465TIP3    H164886   1.630   6.139  13.123  0.1088 -1.3075  0.4479
14465TIP3    H264887   1.653   6.241  13.232 -0.7094 -0.8652  0.2091
14466TIP3   OH264888   3.064   4.559  13.901  0.1359  0.5251  0.2314
14466TIP3    H164889   3.053   4.628  13.835  0.6331  1.8620  1.5179
14466TIP3    H264890   3.083   4.606  13.982  0.7749 -1.1499  1.0803
14467TIP3   OH264891   0.543   0.863   3.873  0.6281  0.1514 -0.0070
14467TIP3    H164892   0.459   0.827   3.846  0.4763  0.6724 -0.2407
14467TIP3    H264893   0.546   0.950   3.832  1.3971  0.0228 -0.2241
14468TIP3   OH264894   4.720   2.855   4.849  0.2882 -0.0282 -0.3090
14468TIP3    H164895   4.795   2.818   4.801  0.4174  1.3950 -1.2652
14468TIP3    H264896   4.758   2.929   4.897 -0.6110  1.1779 -1.4030
14469TIP3   OH264897   0.933   4.247  12.064 -0.9663  0.1478  0.1551
14469TIP3    H164898   0.981   4.326  12.041  0.0365  0.2148  2.3861
14469TIP3    H264899   0.916   4.204  11.980  4.5049 -0.7944 -0.6645
14470TIP3   OH264900   3.698   1.306  13.250  0.5289  0.4312  0.0326
14470TIP3    H164901   3.744   1.240  13.198  1.6457 -0.8757  2.5776
14470TIP3    H264902   3.765   1.340  13.310 -0.1064  3.6869 -0.9899
14471TIP3   OH264903   3.274   5.634  16.911 -0.1361 -0.4402 -0.3664
14471TIP3    H164904   3.350   5.670  16.956 -0.3301  0.1243 -0.4829
14471TIP3    H264905   3.204   5.637  16.976 -0.9564  2.3017 -1.2799
14472TIP3   OH264906   1.769   3.148   5.916 -0.5416 -0.5436 -0.2859
14472TIP3    H164907   1.746   3.104   5.998 -1.2265 -2.1980 -1.3409
14472TIP3    H264908   1.856   3.112   5.894 -0.9159 -1.0589 -0.9329
14473TIP3   OH264909   3.562   5.625  16.987  0.7874  0.4251  0.2033
14473TIP3    H164910   3.576   5.689  17.056 -0.6319 -0.6776  1.5526
14473TIP3    H264911   3.649   5.590  16.968  1.0267 -0.2182  2.3897
14474TIP3   OH264912   2.359   2.697  11.218  0.0718  0.3996 -0.1236
14474TIP3    H164913   2.288   2.762  11.228  0.6403  1.1017 -0.5815
14474TIP3    H264914   2.314   2.617  11.193 -0.5019  1.0383 -1.1952
14475TIP3   OH264915   6.533   6.535  12.148  0.4751  0.0539  0.7664
14475TIP3    H164916   6.543   6.533  12.053  1.9546  3.1831  0.8081
14475TIP3    H264917   6.621   6.520  12.182  0.3390  1.0530  1.5898
14476TIP3   OH264918   4.916   4.600  13.171 -0.4475 -0.3061 -0.6359
14476TIP3    H164919   4.866   4.675  13.203 -1.1863  0.0142 -2.4501
14476TIP3    H264920   4.945   4.627  13.083  1.4468 -1.1611 -0.2984
14477TIP3   OH264921   5.519   0.278  11.038 -0.2680  0.1411 -0.0409
14477TIP3    H164922   5.548   0.260  11.127 -0.0652  0.4157 -0.0536
14477TIP3    H264923   5.478   0.196  11.010  0.0327 -0.0787  0.1582
14478TIP3   OH264924   4.505   5.705   0.438 -0.0850 -0.0693 -0.5886
14478TIP3    H164925   4.480   5.628   0.489  0.0950  1.2462  1.5430
14478TIP3    H264926   4.427   5.761   0.439  1.0350  1.5518  1.3548
14479TIP3   OH264927   1.532   0.736  14.209 -0.1474  0.5359  0.5907
14479TIP3    H164928   1.523   0.793  14.133 -0.8342  2.1054  1.8204
14479TIP3    H264929   1.623   0.744  14.235  0.0970 -0.0300 -0.0837
14480TIP3   OH264930   1.554   0.180  13.437 -0.6211 -0.3271 -0.9449
14480TIP3    H164931   1.522   0.179  13.527  0.4194 -1.7482 -0.5695
14480TIP3    H264932   1.494   0.239  13.390 -1.4507  0.0400  0.5598
14481TIP3   OH264933   1.067   6.367   1.188 -0.5011  0.3982 -0.2599
14481TIP3    H164934   0.997   6.363   1.254  0.0592 -3.6302  0.2363
14481TIP3    H264935   1.138   6.315   1.226  0.9099  0.3342 -2.8663
14482TIP3   OH264936   5.819   2.349   0.526  0.0048 -0.2180 -0.0330
14482TIP3    H164937   5.755   2.338   0.455 -0.3952 -0.8066  0.4134
14482TIP3    H264938   5.889   2.287   0.505 -0.6857 -1.2760  0.7199
14483TIP3   OH264939   0.391   2.605   6.471  0.3267  0.0192  0.3436
14483TIP3    H164940   0.424   2.571   6.388  0.6504  0.7569  0.1611
14483TIP3    H264941   0.375   2.528   6.525  0.5554 -0.4383 -0.2441
14484TIP3   OH264942   6.454   3.908   3.059  0.4173 -0.3162  0.5710
14484TIP3    H164943   6.549   3.895   3.062  0.5181 -0.1706 -1.2996
14484TIP3    H264944   6.417   3.821   3.074  0.8621 -0.4487  0.8914
14485TIP3   OH264945   2.197   6.000   2.999  0.3976  0.2821 -0.1986
14485TIP3    H164946   2.154   6.018   3.082  0.4887  0.1839 -0.1284
14485TIP3    H264947   2.285   6.037   3.010  0.5514 -0.1044 -0.0910
14486TIP3   OH264948   0.717   5.212  17.051 -0.6698 -0.0117  0.1336
14486TIP3    H164949   0.760   5.292  17.082 -1.4452  0.4422  0.0488
14486TIP3    H264950   0.729   5.214  16.956  1.1137 -1.0587  0.3076
14487TIP3   OH264951   2.141   3.420  13.268  0.3585 -0.2124  0.2328
14487TIP3    H164952   2.215   3.362  13.252 -0.2577 -0.9567  0.0270
14487TIP3    H264953   2.098   3.430  13.183 -1.4522 -2.1321  0.8735
14488TIP3   OH264954   5.040   2.404   5.779 -0.2853 -0.3926 -0.2140
14488TIP3    H164955   5.131   2.417   5.753 -0.6364  2.0595 -0.2744
14488TIP3    H264956   5.027   2.463   5.853 -1.1698 -2.4789  1.3398
14489TIP3   OH264957   4.681   2.015   5.082 -0.1779  0.2757  0.3561
14489TIP3    H164958   4.652   2.089   5.028 -1.2290 -2.0048 -2.3380
14489TIP3    H264959   4.612   2.005   5.148 -0.7999  0.7337 -0.2105
14490TIP3   OH264960   2.377   6.660   0.205  0.8257 -0.1011 -0.4384
14490TIP3    H164961   2.399   6.616   0.287 -0.0212 -1.0255 -0.6984
14490TIP3    H264962   2.362   6.751   0.230 -1.9950 -0.8691  0.8859
14491TIP3   OH264963   3.516   5.974  11.293 -0.3833  0.3634  0.3828
14491TIP3    H164964   3.572   6.044  11.329  1.1703  0.2543 -1.7771
14491TIP3    H264965   3.529   5.901  11.354 -2.5624  2.1113  3.0786
14492TIP3   OH264966   5.940   2.262  12.508  0.4352 -0.9038  0.5910
14492TIP3    H164967   5.886   2.323  12.558  2.3308 -0.3940  2.1038
14492TIP3    H264968   5.955   2.306  12.425  0.5289  0.0263  1.0912
14493TIP3   OH264969   3.920   3.006   4.877  0.3364 -0.1424  0.1357
14493TIP3    H164970   3.967   3.061   4.814 -0.2107 -0.0985 -0.2368
14493TIP3    H264971   3.876   2.939   4.823  0.2977 -0.4220  0.5122
14494TIP3   OH264972   1.699   1.593  11.717 -0.2340  0.1812  0.2583
14494TIP3    H164973   1.744   1.671  11.687 -0.1918 -0.4800 -1.4148
14494TIP3    H264974   1.739   1.574  11.803  1.5966  0.4920 -0.4962
14495TIP3   OH264975   4.502   3.488   3.377  0.0154  0.1008  0.0599
14495TIP3    H164976   4.505   3.492   3.472  0.5926  1.2417  0.0011
14495TIP3    H264977   4.471   3.574   3.350  1.4075  0.3327 -0.8481
14496TIP3   OH264978   4.446   0.787   0.730  0.2594 -0.8854 -0.1182
14496TIP3    H164979   4.392   0.748   0.662  1.6000 -1.5584 -0.8168
14496TIP3    H264980   4.384   0.826   0.791 -0.9827 -1.0732 -1.2500
14497TIP3   OH264981   6.472   3.529   5.853  0.0623  0.0725 -0.7400
14497TIP3    H164982   6.415   3.587   5.904  0.1302  0.4395 -1.0841
14497TIP3    H264983   6.415   3.456   5.829 -0.6420  1.1101 -2.2566
14498TIP3   OH264984   0.915   5.846  13.312 -0.7024 -0.1039  0.3378
14498TIP3    H164985   0.829   5.888  13.313 -0.8800 -0.4677  0.3770
14498TIP3    H264986   0.914   5.791  13.234 -0.3675  0.1777  0.1359
14499TIP3   OH264987   5.116   6.166  14.943  0.4197 -0.6592 -0.2629
14499TIP3    H164988   5.027   6.131  14.949  0.1824  0.0556  0.4719
14499TIP3    H264989   5.167   6.096  14.902 -0.2867 -1.4197  0.1550
14500TIP3   OH264990   2.949   3.394  14.657  0.7615  0.1837  0.3192
14500TIP3    H164991   3.032   3.439  14.644 -0.1893  1.9543  0.1018
14500TIP3    H264992   2.924   3.414  14.748  1.4493 -1.8922  0.9965
14501TIP3   OH264993   0.099   1.433   3.582  0.6272 -0.4967  0.4080
14501TIP3    H164994   0.147   1.451   3.664  0.6739 -0.1804  0.3151
14501TIP3    H264995   0.053   1.515   3.564  0.5808 -0.5823  0.1416
14502TIP3   OH264996   3.864   6.135  14.795 -0.2199  0.2323 -0.6260
14502TIP3    H164997   3.782   6.130  14.745 -0.1761  0.7987 -0.7608
14502TIP3    H264998   3.881   6.045  14.823 -1.0095  0.1493 -0.4028
14503TIP3   OH264999   0.515   3.407   6.446 -0.1237 -0.7318 -0.0714
14503TIP3    H165000   0.582   3.386   6.511  0.6295 -1.0559 -0.9361
14503TIP3    H265001   0.441   3.350   6.467  0.0506 -0.7188  0.5926
14504TIP3   OH265002   4.258   3.418  11.867  0.5303  0.3762 -0.0971
14504TIP3    H165003   4.257   3.324  11.885  0.8130  0.4807  0.5122
14504TIP3    H265004   4.196   3.430  11.796  1.3684 -0.4242 -0.9693
14505TIP3   OH265005   3.760   5.624  14.184 -0.3578 -0.2187  0.5647
14505TIP3    H165006   3.765   5.720  14.174 -2.1982 -0.1684 -0.1634
14505TIP3    H265007   3.736   5.610  14.275  0.8215 -0.0329  0.9128
14506TIP3   OH265008   6.031   3.670   0.197 -0.3779  0.2427 -0.4571
14506TIP3    H165009   6.114   3.621   0.195  0.4959  1.7721 -2.1944
14506TIP3    H265010   5.997   3.653   0.285  0.2620 -2.8902 -0.7395
14507TIP3   OH265011   6.236   3.026   2.092 -0.4346 -0.0278  0.5097
14507TIP3    H165012   6.283   3.007   2.011 -0.1870  2.1021  0.1051
14507TIP3    H265013   6.281   2.976   2.159 -0.7479 -1.9484 -0.6854
14508TIP3   OH265014   5.188   0.483   3.641  0.9521 -0.0915 -0.6155
14508TIP3    H165015   5.271   0.531   3.637  0.6903  0.4762  0.6112
14508TIP3    H265016   5.206   0.400   3.597  2.3596 -0.2369  0.1976
14509TIP3   OH265017   3.332   4.244   2.583  0.0949  0.0857  0.3445
14509TIP3    H165018   3.288   4.186   2.520 -0.3874  0.6073  0.2046
14509TIP3    H265019   3.282   4.325   2.582  0.3912  0.2884  1.0198
14510TIP3   OH265020   4.878   5.011   2.576 -0.8584 -0.4454  0.2976
14510TIP3    H165021   4.957   5.045   2.618 -1.6168 -0.1501  1.5050
14510TIP3    H265022   4.814   5.082   2.583 -1.8984 -1.4641  1.2601
14511TIP3   OH265023   2.329   3.243  15.062 -0.4143  0.5163 -0.3331
14511TIP3    H165024   2.271   3.223  15.137 -0.7679  1.6327 -0.3004
14511TIP3    H265025   2.346   3.158  15.022 -2.4282  0.2083 -0.5877
14512TIP3   OH265026   1.736   3.225   0.453 -0.7020 -0.4654 -0.1513
14512TIP3    H165027   1.705   3.233   0.543 -0.7933  0.3571 -0.2583
14512TIP3    H265028   1.719   3.133   0.430 -1.4168 -0.4696  0.3900
14513TIP3   OH265029   0.251   0.955  11.891  0.1378 -0.0686 -0.1976
14513TIP3    H165030   0.334   0.946  11.938 -0.4942  2.1101  1.3891
14513TIP3    H265031   0.190   0.899  11.940  0.7792 -2.2663 -1.8005
14514TIP3   OH265032   6.009   3.268   1.749 -0.2197 -0.0126  0.2925
14514TIP3    H165033   6.080   3.263   1.813  1.0992  0.6532 -1.0840
14514TIP3    H265034   6.002   3.179   1.715  0.0596 -0.0483  0.3255
14515TIP3   OH265035   6.652   0.239  17.265 -0.2637 -0.3184 -0.4273
14515TIP3    H165036   6.707   0.294  17.320 -2.1066  1.0752  0.0442
14515TIP3    H265037   6.673   0.267  17.176 -0.4984  0.4767 -0.2342
14516TIP3   OH265038   0.072   3.034   1.643  0.1574  0.0989  0.1654
14516TIP3    H165039   0.151   3.040   1.590 -0.5849 -1.7201 -1.2295
14516TIP3    H265040   0.024   3.115   1.624  1.0204  0.5484 -0.1092
14517TIP3   OH265041   6.606   5.144  16.423  0.2504 -0.0253  0.5511
14517TIP3    H165042   6.555   5.096  16.358  0.5417 -0.1552  0.4196
14517TIP3    H265043   6.548   5.216  16.449  1.0299  1.4237 -1.5807
14518TIP3   OH265044   0.647   6.082  12.019 -0.0218 -1.2180  0.7429
14518TIP3    H165045   0.563   6.113  11.986  1.7398  1.3178 -1.5454
14518TIP3    H265046   0.656   5.994  11.982 -1.2043 -1.1000  0.1441
14519TIP3   OH265047   5.521   4.340   1.548  0.2434  0.1488 -0.2482
14519TIP3    H165048   5.519   4.413   1.610 -2.6013  0.2023 -0.3138
14519TIP3    H265049   5.429   4.314   1.539  0.8687 -1.4220 -2.6085
14520TIP3   OH265050   1.808   0.228   4.686  0.1475 -0.1432  0.1375
14520TIP3    H165051   1.899   0.257   4.690  0.1024 -0.2680  3.5723
14520TIP3    H265052   1.759   0.308   4.667  0.9955 -0.2042 -2.4674
14521TIP3   OH265053   2.017   4.672  12.493 -0.3317 -0.1981 -0.0187
14521TIP3    H165054   2.067   4.590  12.504  0.1055  0.3831  2.7187
14521TIP3    H265055   2.084   4.739  12.480 -0.6408 -0.0916 -1.0944
14522TIP3   OH265056   6.408   0.243  16.441 -0.5430  0.6573  0.1111
14522TIP3    H165057   6.466   0.169  16.424 -1.8785 -0.5412  0.7208
14522TIP3    H265058   6.458   0.320  16.411  1.8807 -0.1999  1.8261
14523TIP3   OH265059   1.864   6.761   1.177  0.5194 -0.0197 -0.3373
14523TIP3    H165060   1.815   6.798   1.250  1.2668  0.1077  0.1040
14523TIP3    H265061   1.921   6.695   1.217  0.7326 -0.1445 -0.8415
14524TIP3   OH265062   0.031   6.125  12.468 -0.2196 -0.4084 -0.4399
14524TIP3    H165063   0.096   6.186  12.433 -1.3521  0.6597 -0.7165
14524TIP3    H265064  -0.053   6.171  12.458 -1.0725 -1.9416 -0.4859
14525TIP3   OH265065   3.116   1.612  12.762 -0.5734 -0.6032 -0.3877
14525TIP3    H165066   3.072   1.609  12.847 -2.2112 -0.5346 -1.2043
14525TIP3    H265067   3.102   1.702  12.731 -0.6892 -0.8585 -1.0865
14526TIP3   OH265068   2.231   1.959  12.902  0.0195  0.3952  0.0336
14526TIP3    H165069   2.262   1.918  12.983 -0.4066  0.2074  0.1045
14526TIP3    H265070   2.212   1.885  12.844  0.0317  0.5185 -0.1293
14527TIP3   OH265071   6.070   4.910   1.092  0.6222  0.0990 -0.3340
14527TIP3    H165072   6.123   4.951   1.161  1.3180 -0.3847 -0.5747
14527TIP3    H265073   5.992   4.880   1.138  0.8296  0.2667  0.1447
14528TIP3   OH265074   5.921   2.640  13.120 -0.0434 -0.3652 -0.5004
14528TIP3    H165075   6.010   2.614  13.097 -0.2168 -1.7822  0.3695
14528TIP3    H265076   5.867   2.610  13.047  0.1023 -0.1242 -0.7053
14529TIP3   OH265077   2.723   1.587  14.451  0.0626 -0.3289 -0.2762
14529TIP3    H165078   2.750   1.497  14.438  0.3010 -0.2195 -0.5439
14529TIP3    H265079   2.674   1.586  14.533  0.2856 -0.6510 -0.1487
14530TIP3   OH265080   1.625   2.976  12.399 -0.4341 -0.2702 -0.1178
14530TIP3    H165081   1.712   2.991  12.362 -0.1903 -0.0690  0.5343
14530TIP3    H265082   1.581   3.061  12.392  0.1486  0.1759  1.4637
14531TIP3   OH265083   4.011   0.352   6.109 -0.0776 -0.0035 -0.1319
14531TIP3    H165084   4.086   0.399   6.144 -0.1317  0.2435 -0.3433
14531TIP3    H265085   3.975   0.304   6.184 -0.9789  1.5474  0.4540
14532TIP3   OH265086   5.774   5.723  11.924 -0.7912  0.0142  0.1171
14532TIP3    H165087   5.868   5.739  11.918 -0.5908 -1.1367 -0.0274
14532TIP3    H265088   5.752   5.680  11.841 -1.6099  1.0478 -0.2093
14533TIP3   OH265089   5.032   6.749  13.372 -0.1666 -0.3923  0.0422
14533TIP3    H165090   4.949   6.749  13.324  0.5184 -0.1857 -1.1680
14533TIP3    H265091   5.015   6.696  13.450 -1.2025 -1.0317 -0.6061
14534TIP3   OH265092   6.034   5.646   2.621 -0.2656 -0.3081  0.1815
14534TIP3    H165093   5.965   5.685   2.674  0.3289  0.4687  0.3957
14534TIP3    H265094   6.078   5.721   2.580 -1.7736 -0.9223 -2.7610
14535TIP3   OH265095   5.521   0.779  16.414 -0.4631 -0.3261 -0.1978
14535TIP3    H165096   5.466   0.853  16.390 -0.1117  0.4369  1.3397
14535TIP3    H265097   5.460   0.706  16.424 -1.0691  0.2678  0.4474
14536TIP3   OH265098   0.220   4.159  11.391 -0.1660 -1.2160  0.1100
14536TIP3    H165099   0.190   4.146  11.301  0.1024 -0.2256 -0.1295
14536TIP3    H265100   0.311   4.188  11.382 -0.6322  0.4637  0.6212
14537TIP3   OH265101   4.606   1.401  14.521  0.0330  0.7516 -0.3510
14537TIP3    H165102   4.522   1.379  14.481  0.2487 -0.6861 -0.0441
14537TIP3    H265103   4.583   1.430  14.609 -0.1526  0.4539 -0.2992
14538TIP3   OH265104   2.915   6.155  13.686  0.1226 -0.0678  0.1747
14538TIP3    H165105   2.920   6.096  13.761  1.8056 -1.0241 -0.6746
14538TIP3    H265106   2.970   6.229  13.710  0.9505 -0.5413 -0.2687
14539TIP3   OH265107   3.400   0.764  14.084  0.1737 -0.4831 -0.6026
14539TIP3    H165108   3.333   0.830  14.066  0.0349 -0.5775 -0.4332
14539TIP3    H265109   3.456   0.803  14.151 -0.0559 -0.6392 -0.3221
14540TIP3   OH265110   1.127   0.601   1.481 -0.1719  0.1735  0.3201
14540TIP3    H165111   1.057   0.558   1.432  0.2576  0.3644 -0.4633
14540TIP3    H265112   1.100   0.594   1.573 -0.7930 -0.5129  0.0849
14541TIP3   OH265113   2.299   3.233   1.321 -0.1825  0.3314  0.4279
14541TIP3    H165114   2.227   3.294   1.332  0.1068  0.8289 -0.3972
14541TIP3    H265115   2.261   3.147   1.339 -0.7608  0.6782  0.8730
14542TIP3   OH265116   2.313   2.510  11.495  0.1240  0.3134 -0.0912
14542TIP3    H165117   2.243   2.522  11.431  0.2017 -0.2967 -0.2986
14542TIP3    H265118   2.298   2.422  11.530  0.2701  0.5262  0.4990
14543TIP3   OH265119   0.428   1.242   3.528 -0.4719  0.0967  0.0747
14543TIP3    H165120   0.460   1.209   3.444 -0.7685  0.7722 -0.3004
14543TIP3    H265121   0.482   1.318   3.547 -2.1859  1.5586 -0.8147
14544TIP3   OH265122   3.436   0.023   0.016  0.2793  0.5203  0.0910
14544TIP3    H165123   3.489   0.079   0.073 -0.2471 -1.0209  2.1770
14544TIP3    H265124   3.351   0.067   0.011  0.5170  0.9710 -0.0146
14545TIP3   OH265125   4.620   6.312  13.258  0.3356 -1.0905  0.1860
14545TIP3    H165126   4.670   6.284  13.334  3.4145 -0.3059 -1.4990
14545TIP3    H265127   4.639   6.405  13.249 -1.3182 -0.8035 -0.6100
14546TIP3   OH265128   5.288   6.675   2.206 -0.3457  0.2204  0.1289
14546TIP3    H165129   5.383   6.682   2.202 -0.3520  0.4467  0.3851
14546TIP3    H265130   5.265   6.696   2.297 -0.6762  0.6508 -0.0495
14547TIP3   OH265131   3.197   2.878  13.316 -0.6360 -0.0298 -0.3508
14547TIP3    H165132   3.150   2.931  13.251 -0.9451  1.9683  1.4649
14547TIP3    H265133   3.289   2.883  13.289 -0.7103  1.1385 -0.3978
14548TIP3   OH265134   0.952   2.324   4.073  0.1317  0.2876 -0.0359
14548TIP3    H165135   0.862   2.310   4.043  0.9404 -1.7445 -1.6394
14548TIP3    H265136   0.978   2.240   4.111  1.2822  0.9314  0.6192
14549TIP3   OH265137   1.795   4.679   4.777 -0.2555  0.6622 -0.2078
14549TIP3    H165138   1.864   4.616   4.756 -1.0081  0.0594 -0.8962
14549TIP3    H265139   1.731   4.629   4.827 -0.3437  1.1476  0.1655
14550TIP3   OH265140   1.382   2.066   3.058 -0.3143 -0.4109 -0.1155
14550TIP3    H165141   1.359   2.022   2.976 -1.1173 -0.6012  0.2076
14550TIP3    H265142   1.323   2.027   3.123 -0.2701  0.3548  0.3815
14551TIP3   OH265143   3.762   3.232   2.143  0.4757 -0.0051  0.5309
14551TIP3    H165144   3.681   3.232   2.093  1.0912 -0.7062 -0.4767
14551TIP3    H265145   3.738   3.190   2.226 -0.7766  2.0665  1.2534
14552TIP3   OH265146   1.638   3.345  12.656  0.7986  0.1735  0.2272
14552TIP3    H165147   1.651   3.254  12.683 -0.7511  0.4071  1.8376
14552TIP3    H265148   1.569   3.340  12.590  1.1380  0.1394 -0.1326
14553TIP3   OH265149   2.024   4.182   3.261  0.5133  0.5210 -0.1710
14553TIP3    H165150   2.004   4.274   3.242  1.2025  1.0215  1.4589
14553TIP3    H265151   2.119   4.177   3.261  0.4802 -0.2424 -0.4625
14554TIP3   OH265152   4.210   6.747   5.861 -0.0788  0.2404 -0.7351
14554TIP3    H165153   4.173   6.759   5.773 -2.5619 -2.7713 -0.1981
14554TIP3    H265154   4.185   6.826   5.909 -1.5794  0.4338 -1.8000
14555TIP3   OH265155   0.456   6.777  13.156  0.0090 -0.0367  0.3943
14555TIP3    H165156   0.378   6.762  13.209 -1.1459 -0.7813 -1.4598
14555TIP3    H265157   0.453   6.871  13.136 -0.3999 -0.0562  0.3498
14556TIP3   OH265158   4.658   0.145  10.620 -0.4301 -0.0092 -0.2145
14556TIP3    H165159   4.638   0.234  10.593  0.6632 -0.1770 -1.6035
14556TIP3    H265160   4.640   0.091  10.543  2.0648 -0.5639 -0.4747
14557TIP3   OH265161   2.487   5.259   1.304  0.5416 -0.2784  0.4864
14557TIP3    H165162   2.509   5.256   1.211 -0.2856 -1.7594  0.3063
14557TIP3    H265163   2.561   5.217   1.348 -0.9849 -3.6875  0.0377
14558TIP3   OH265164   5.420   5.412  16.792  0.4939  0.5465 -0.4320
14558TIP3    H165165   5.362   5.486  16.810 -1.7986 -1.4025  0.4546
14558TIP3    H265166   5.452   5.428  16.703 -2.3037  1.1351 -1.3837
14559TIP3   OH265167   3.979   6.283   5.965 -0.2956  0.1297 -0.2751
14559TIP3    H165168   4.003   6.242   6.049  0.9915  0.8501 -0.2748
14559TIP3    H265169   3.997   6.376   5.979  0.6744  0.1488 -1.6033
14560TIP3   OH265170   6.536   1.705  12.435  0.1259  0.0921  0.0681
14560TIP3    H165171   6.441   1.699  12.420 -0.0595  0.2950  1.0918
14560TIP3    H265172   6.548   1.793  12.470  0.8071  0.3638 -0.8607
14561TIP3   OH265173   1.520   2.303   2.449  0.6285 -0.6787 -0.2445
14561TIP3    H165174   1.552   2.215   2.468 -0.2434 -1.1126 -0.7659
14561TIP3    H265175   1.455   2.321   2.517  1.0466 -0.3064  0.0585
14562TIP3   OH265176   1.144   3.917   4.999 -1.1014 -0.5592  0.0851
14562TIP3    H165177   1.225   3.967   4.988  0.0173 -1.7682  2.6236
14562TIP3    H265178   1.092   3.940   4.921  0.6846  2.0469 -0.4196
14563TIP3   OH265179   2.638   6.176  15.086 -0.7078 -0.1267  0.0640
14563TIP3    H165180   2.646   6.264  15.051  0.4314 -0.3686 -0.2997
14563TIP3    H265181   2.603   6.124  15.014  0.5387 -0.3884 -0.3465
14564TIP3   OH265182   1.249   6.149  12.651  0.2568  0.0422 -0.0458
14564TIP3    H165183   1.262   6.187  12.564 -0.1120 -0.8510 -0.5080
14564TIP3    H265184   1.182   6.204  12.692  2.1821  1.9351  0.6237
14565TIP3   OH265185   5.296   6.477  12.201 -0.2708 -0.3414  0.2921
14565TIP3    H165186   5.219   6.480  12.258  1.0849  1.5315  2.1055
14565TIP3    H265187   5.336   6.563  12.211  2.7842 -1.7331  0.3955
14566TIP3   OH265188   2.940   1.655   1.558  0.3688  0.4286 -0.6928
14566TIP3    H165189   2.873   1.587   1.567  0.3914  0.4478 -0.3701
14566TIP3    H265190   3.006   1.616   1.501  0.7192 -0.0843  0.0573
14567TIP3   OH265191   0.987   0.338   1.950 -0.3813 -0.3777  0.1361
14567TIP3    H165192   1.063   0.381   1.989 -0.8951  1.4364 -0.7763
14567TIP3    H265193   0.916   0.401   1.960 -0.9651 -0.6411 -1.9834
14568TIP3   OH265194   3.554   6.452   4.579  0.4149 -0.5389  0.4900
14568TIP3    H165195   3.567   6.358   4.565 -0.0195 -0.5507  0.1390
14568TIP3    H265196   3.608   6.494   4.512 -1.1504 -0.5843 -0.8426
14569TIP3   OH265197   2.606   0.829   1.707  0.4794  0.4679  0.6251
14569TIP3    H165198   2.558   0.839   1.625  0.8778 -0.7346  0.2453
14569TIP3    H265199   2.629   0.919   1.732  1.7954  0.7486 -1.4364
14570TIP3   OH265200   2.685   2.401   0.718  0.5014 -0.4289  0.5980
14570TIP3    H165201   2.604   2.356   0.697 -0.4359  1.1142  0.7953
14570TIP3    H265202   2.710   2.365   0.803  0.2854 -1.2517  0.3215
14571TIP3   OH265203   0.924   2.207   1.534  0.6277 -0.2578 -0.5821
14571TIP3    H165204   1.013   2.184   1.507  1.1303  1.2626 -0.2787
14571TIP3    H265205   0.901   2.281   1.478 -0.1240 -0.1082 -0.0757
14572TIP3   OH265206   6.259   1.119  15.269  0.5094 -0.6645 -0.0376
14572TIP3    H165207   6.206   1.087  15.196  1.0806 -0.5801 -0.4884
14572TIP3    H265208   6.299   1.040  15.306  1.1130 -0.5900 -0.5206
14573TIP3   OH265209   6.096   6.414   3.011  0.2924 -0.5500  0.0628
14573TIP3    H165210   6.175   6.425   2.959 -0.2226  0.4657 -0.5143
14573TIP3    H265211   6.119   6.449   3.097  0.8777 -1.4671  0.2862
14574TIP3   OH265212   1.588   5.270  15.006  0.3855  0.1594 -0.1844
14574TIP3    H165213   1.531   5.254  14.931  1.9001 -0.4567 -1.2271
14574TIP3    H265214   1.530   5.261  15.082 -1.1471  0.7325 -1.2682
14575TIP3   OH265215   5.148   2.030   2.359 -0.1910  0.7676  0.0459
14575TIP3    H165216   5.151   2.111   2.409 -1.2922  1.2579 -0.6744
14575TIP3    H265217   5.095   2.050   2.282  0.4292 -0.3314 -0.6923
14576TIP3   OH265218   1.398   6.042  15.340 -0.0634  0.8459  0.1937
14576TIP3    H165219   1.357   6.128  15.346 -0.0164  0.8455  0.5520
14576TIP3    H265220   1.337   5.982  15.383  1.4185  1.2427  2.9696
14577TIP3   OH265221   0.185   2.589   5.420 -0.2041  0.4564 -0.0072
14577TIP3    H165222   0.090   2.584   5.411 -0.1370 -0.5838 -0.2206
14577TIP3    H265223   0.219   2.552   5.338  0.3896  1.7733 -0.3804
14578TIP3   OH265224   4.120   3.114  11.724 -0.1781  0.2181 -0.1813
14578TIP3    H165225   4.200   3.141  11.679 -1.3052  1.4180 -1.5419
14578TIP3    H265226   4.093   3.034  11.679 -0.4860  0.5774 -0.6385
14579TIP3   OH265227   0.116   5.749   2.971 -0.3876 -0.3585  0.4670
14579TIP3    H165228   0.091   5.656   2.975 -1.6576 -0.0125  0.6909
14579TIP3    H265229   0.171   5.762   3.048  2.2002 -1.6162 -1.1018
14580TIP3   OH265230   3.515   6.192   1.112 -0.0164 -0.8745  0.4908
14580TIP3    H165231   3.589   6.156   1.161  0.0753 -2.1365 -0.5562
14580TIP3    H265232   3.438   6.146   1.147 -0.0355 -1.2357 -0.0222
14581TIP3   OH265233   3.775   4.909  13.711 -0.2937 -0.3719  0.2870
14581TIP3    H165234   3.746   4.897  13.620  1.2320 -0.8154 -0.1505
14581TIP3    H265235   3.867   4.933  13.704 -0.2881  0.0733  1.7121
14582TIP3   OH265236   0.669   1.211   2.684 -0.2595  0.0534  0.0606
14582TIP3    H165237   0.665   1.205   2.780 -1.4459 -0.4870 -0.0157
14582TIP3    H265238   0.722   1.136   2.658 -1.0780 -0.6000  0.2208
14583TIP3   OH265239   2.582   4.038  14.124  0.3044 -0.6174  0.4023
14583TIP3    H165240   2.574   3.981  14.048  0.1017  0.1311 -0.1458
14583TIP3    H265241   2.565   4.126  14.090 -0.6255 -0.3682  1.4700
14584TIP3   OH265242   6.819   0.006  16.369  0.1870  0.1539  0.0857
14584TIP3    H165243   6.880  -0.037  16.310 -0.5855 -0.7717 -0.0486
14584TIP3    H265244   6.833   0.100  16.354  0.3114 -0.0722 -1.2155
14585TIP3   OH265245   1.959   0.776  13.257 -0.3700 -0.2093  0.0048
14585TIP3    H165246   2.045   0.764  13.216  0.6015 -0.4197  2.0169
14585TIP3    H265247   1.896   0.768  13.185  1.3101  0.2423 -1.5477
14586TIP3   OH265248   2.743   3.091  14.437  0.4276  0.3325 -0.0094
14586TIP3    H165249   2.657   3.052  14.423 -0.5397  2.5178 -0.3226
14586TIP3    H265250   2.802   3.040  14.381 -0.6482 -1.1726  0.2161
14587TIP3   OH265251   2.741   4.343  12.673 -0.2399 -0.2374  0.3345
14587TIP3    H165252   2.815   4.376  12.622 -1.4765  1.5919 -0.3059
14587TIP3    H265253   2.757   4.248  12.679 -0.2347 -0.5869 -3.7426
14588TIP3   OH265254   3.337   1.335  15.950  0.1199 -0.0026  0.0515
14588TIP3    H165255   3.351   1.263  15.888  0.0641 -0.2875  0.3652
14588TIP3    H265256   3.267   1.303  16.007  0.6513 -0.0229  0.6916
14589TIP3   OH265257   4.233   6.401   2.103  0.1107 -0.0574 -0.1614
14589TIP3    H165258   4.327   6.391   2.112  0.5390  2.5291 -1.2196
14589TIP3    H265259   4.209   6.468   2.167 -0.8624 -0.0962 -0.4710
14590TIP3   OH265260   2.617   2.648   3.176  0.3275  0.0220 -0.1567
14590TIP3    H165261   2.675   2.722   3.192  0.5572 -0.4976  1.4671
14590TIP3    H265262   2.560   2.677   3.105 -0.6299  2.3627  1.5176
14591TIP3   OH265263   6.513   2.751   0.288 -0.3235  0.1759 -0.1567
14591TIP3    H165264   6.607   2.768   0.287 -0.2893  0.1548  1.3362
14591TIP3    H265265   6.486   2.772   0.377 -1.3402 -1.8873  0.0643
14592TIP3   OH265266   2.468   2.256  15.254  0.1836 -0.0396  0.1096
14592TIP3    H165267   2.518   2.203  15.192  0.3185 -0.2236  0.3746
14592TIP3    H265268   2.451   2.338  15.207  1.6578  0.4440  0.3983
14593TIP3   OH265269   4.933   1.986   3.514  0.2583 -0.2037 -0.6119
14593TIP3    H165270   4.921   1.919   3.446  0.4892 -1.4572  0.5652
14593TIP3    H265271   4.997   1.948   3.574  0.2943  1.0269  0.1552
14594TIP3   OH265272   1.917   1.464   2.793 -0.0451  0.3471  0.4271
14594TIP3    H165273   1.932   1.491   2.884 -2.3230  0.2014  0.8631
14594TIP3    H265274   1.931   1.370   2.794  0.5883  0.4337  0.4621
14595TIP3   OH265275   5.259   6.151   3.385 -0.2338 -0.5743  0.1935
14595TIP3    H165276   5.253   6.242   3.356 -0.9609 -0.7480 -0.2206
14595TIP3    H265277   5.347   6.143   3.422 -0.5170  0.5555  1.1308
14596TIP3   OH265278   0.610   5.790  11.952 -0.2853  0.2025  0.5770
14596TIP3    H165279   0.559   5.785  11.871 -0.3070  2.6082  0.3967
14596TIP3    H265280   0.682   5.728  11.939  1.4118  2.6463 -2.5980
14597TIP3   OH265281   3.486   2.919  14.854 -0.0041 -0.1891 -0.5724
14597TIP3    H165282   3.494   2.824  14.848 -1.3285 -0.4591  1.3944
14597TIP3    H265283   3.530   2.942  14.936 -0.1347  0.8369 -0.7815
14598TIP3   OH265284   6.644   4.513   5.221 -0.0312 -0.2432 -0.3192
14598TIP3    H165285   6.628   4.446   5.287 -1.0710 -1.0063 -1.3134
14598TIP3    H265286   6.565   4.512   5.167  0.6822  0.5655 -1.3959
14599TIP3   OH265287   0.286   4.260  10.609 -0.2830 -0.2686 -0.6025
14599TIP3    H165288   0.334   4.211  10.542 -0.7438 -1.7976  0.1579
14599TIP3    H265289   0.352   4.315  10.651  0.8594 -2.3188  0.4088
14600TIP3   OH265290   1.681   2.345  17.067 -0.3791  0.4206  0.3615
14600TIP3    H165291   1.692   2.250  17.056  0.3331  0.4184  1.0807
14600TIP3    H265292   1.586   2.359  17.057 -0.2336 -0.0501 -2.0697
14601TIP3   OH265293   1.415   1.758   1.241 -0.0339  0.6486 -0.8984
14601TIP3    H165294   1.458   1.704   1.308 -0.3640  0.9052 -0.4799
14601TIP3    H265295   1.473   1.752   1.165  0.5441  0.6714 -0.4651
14602TIP3   OH265296   3.347   2.983  15.218  0.1023  0.4474 -0.4411
14602TIP3    H165297   3.357   3.062  15.165 -0.5914 -1.0550 -2.8931
14602TIP3    H265298   3.253   2.977  15.234  0.1027 -0.0892 -0.6187
14603TIP3   OH265299   4.217   1.521   2.262 -0.1445  0.5853 -0.1272
14603TIP3    H165300   4.138   1.470   2.241 -0.2482  0.5175  0.4298
14603TIP3    H265301   4.290   1.464   2.239 -0.2583 -0.0129  0.9517
14604TIP3   OH265302   5.345   6.384   1.066 -0.0839 -0.4139 -0.3015
14604TIP3    H165303   5.428   6.422   1.040 -0.9921  1.6179 -0.3237
14604TIP3    H265304   5.336   6.305   1.013  2.3823 -1.3367  0.6098
14605TIP3   OH265305   2.436   0.016   6.210 -0.6284  0.0874 -0.1927
14605TIP3    H165306   2.389  -0.049   6.263 -0.9451 -0.8261 -1.5498
14605TIP3    H265307   2.527   0.006   6.235 -0.8267  0.0012  0.5211
14606TIP3   OH265308   6.476   4.779  16.413  0.4197 -0.8141  0.2225
14606TIP3    H165309   6.550   4.779  16.352 -0.1192  0.7139 -0.4439
14606TIP3    H265310   6.407   4.827  16.367  0.5218  1.7561  2.6743
14607TIP3   OH265311   1.953   0.968  14.118 -0.2244  0.2492  0.1863
14607TIP3    H165312   1.868   0.953  14.077 -0.6584  1.4741  0.6272
14607TIP3    H265313   1.994   1.037  14.066  0.7997 -0.7852 -0.4245
14608TIP3   OH265314   4.678   0.296   2.700  0.1208  0.1921  0.0198
14608TIP3    H165315   4.729   0.377   2.702 -0.9158  0.8632 -0.0288
14608TIP3    H265316   4.610   0.312   2.634  0.4518 -1.0599 -0.6512
14609TIP3   OH265317   4.843   4.225   0.613 -0.4243 -0.7569  0.3949
14609TIP3    H165318   4.840   4.317   0.641  0.8464 -0.7687  0.6345
14609TIP3    H265319   4.917   4.188   0.662 -0.7474 -1.8356  0.0816
14610TIP3   OH265320   5.081   2.453   2.277 -0.4236  0.2401  0.2949
14610TIP3    H165321   5.067   2.381   2.339 -0.0730  0.8439  1.0924
14610TIP3    H265322   5.176   2.458   2.268 -0.4292  0.8691  0.5720
14611TIP3   OH265323   4.554   1.102  14.944  0.3840 -0.1169  0.2931
14611TIP3    H165324   4.621   1.096  15.012 -0.0243 -3.0011  0.4751
14611TIP3    H265325   4.472   1.083  14.988 -0.1152 -0.1565 -0.6465
14612TIP3   OH265326   3.754   5.390  12.775  0.1838  0.1968 -0.5255
14612TIP3    H165327   3.777   5.297  12.779 -0.1716  0.1836  1.5491
14612TIP3    H265328   3.748   5.408  12.681 -0.2946 -2.0127 -0.9684
14613TIP3   OH265329   2.821   1.350   2.553  0.1053  0.6360 -0.4529
14613TIP3    H165330   2.909   1.365   2.520  0.0951  3.0424  0.5492
14613TIP3    H265331   2.820   1.389   2.641 -1.3670 -1.1410  0.3750
14614TIP3   OH265332   3.366   6.737  13.163 -0.0007  0.0070  0.5884
14614TIP3    H165333   3.352   6.686  13.083  1.4786  0.0752  0.2568
14614TIP3    H265334   3.447   6.786  13.145  0.8387 -0.6578  2.4577
14615TIP3   OH265335   6.360   3.540  10.704  0.1195  0.6696 -0.2334
14615TIP3    H165336   6.341   3.614  10.646 -1.3933  1.0711  0.7632
14615TIP3    H265337   6.415   3.577  10.773 -1.1282  1.0094  0.5909
14616TIP3   OH265338   1.862   5.812   3.975  0.2647  0.1154 -0.4006
14616TIP3    H165339   1.777   5.851   3.956 -0.1290 -0.4953  0.0633
14616TIP3    H265340   1.913   5.883   4.014 -0.5288  0.1107  0.6830
14617TIP3   OH265341   3.079   1.521  15.301  0.0487 -0.1072  0.0858
14617TIP3    H165342   3.132   1.594  15.333 -2.8862  1.8770  0.5927
14617TIP3    H265343   3.085   1.527  15.205  0.6488  0.1175  0.1324
14618TIP3   OH265344   6.332   6.672  17.145  0.0819  0.1742 -0.0804
14618TIP3    H165345   6.294   6.755  17.116  0.9312  0.8656  0.7245
14618TIP3    H265346   6.425   6.692  17.156  0.0622 -0.5130  1.4200
14619TIP3   OH265347   5.283   6.423  12.638  0.1215 -0.4516  0.1786
14619TIP3    H165348   5.338   6.371  12.579  0.7237  3.1109 -2.5392
14619TIP3    H265349   5.343   6.483  12.682 -1.1979  1.8090 -1.0023
14620TIP3   OH265350   3.133   4.382  15.589  0.7258  0.6710 -0.1025
14620TIP3    H165351   3.186   4.397  15.511 -1.4018  1.6183 -1.4302
14620TIP3    H265352   3.086   4.465  15.602 -0.8598 -0.3130  0.6468
14621TIP3   OH265353   1.224   5.090   0.678 -0.0431  0.1017  0.0325
14621TIP3    H165354   1.309   5.132   0.695 -0.4365  1.2732 -0.8586
14621TIP3    H265355   1.246   4.997   0.667  0.9831  0.2233  0.9038
14622TIP3   OH265356   2.148   2.224   4.108 -0.3120  0.1091  0.2174
14622TIP3    H165357   2.172   2.261   4.193  0.4239 -0.4144  0.2386
14622TIP3    H265358   2.100   2.294   4.064  0.8637  0.9993  0.3449
14623TIP3   OH265359   0.724   5.775  16.268  0.2906  0.0205  0.6992
14623TIP3    H165360   0.698   5.842  16.331 -0.9443  0.2305 -0.0122
14623TIP3    H265361   0.666   5.701  16.287 -1.1331  0.6105 -1.1223
14624TIP3   OH265362   3.623   3.911  11.326 -0.0607 -0.0559 -0.8654
14624TIP3    H165363   3.716   3.888  11.326  0.0396  0.3032  0.3863
14624TIP3    H265364   3.578   3.830  11.351  0.0135  0.0952 -0.2315
14625TIP3   OH265365   5.251   4.645   0.918 -0.3595 -1.2351  0.7709
14625TIP3    H165366   5.315   4.689   0.862 -1.6716 -0.1493  0.1186
14625TIP3    H265367   5.271   4.551   0.908 -0.9302 -1.0905 -1.9313
14626TIP3   OH265368   3.410   5.539   5.668 -0.1694  0.3890  0.4925
14626TIP3    H165369   3.496   5.561   5.703  0.5487 -1.5314  0.0138
14626TIP3    H265370   3.391   5.609   5.605  0.0801  1.9520  2.1041
14627TIP3   OH265371   6.554   4.836  13.610  0.1896 -0.2480 -0.3920
14627TIP3    H165372   6.462   4.858  13.601  0.1178 -0.2883  0.2234
14627TIP3    H265373   6.601   4.914  13.579 -0.0555  0.1586  0.2470
14628TIP3   OH265374   3.334   3.046   3.862  0.6633  0.3532  0.6298
14628TIP3    H165375   3.297   3.046   3.950  2.7356 -0.7145  1.5375
14628TIP3    H265376   3.360   3.136   3.846 -2.1535  1.0948  0.0265
14629TIP3   OH265377   1.691   4.599  14.335 -0.6825  0.2355 -0.5995
14629TIP3    H165378   1.610   4.627  14.293 -1.6916  0.0525  1.2053
14629TIP3    H265379   1.713   4.670  14.394 -0.1776 -0.2651 -0.1864
14630TIP3   OH265380   1.774   5.404  15.163  0.4498 -0.2514 -0.2443
14630TIP3    H165381   1.711   5.455  15.214  0.3165  1.5268 -2.1161
14630TIP3    H265382   1.720   5.357  15.099  0.8698 -0.0588 -0.7425
14631TIP3   OH265383   5.007   3.873  14.259 -0.3332 -0.0700  0.1653
14631TIP3    H165384   5.091   3.853  14.219  0.4025 -0.8827  2.0413
14631TIP3    H265385   4.974   3.949  14.211  1.0985 -0.2244 -1.0855
14632TIP3   OH265386   2.357   4.835   3.779  0.4326 -0.6343  0.8564
14632TIP3    H165387   2.400   4.787   3.849 -0.4212  1.6549  3.0386
14632TIP3    H265388   2.263   4.821   3.794  0.0812  3.3404  2.8276
14633TIP3   OH265389   3.629   1.446  15.478  0.6384  0.5777  0.1180
14633TIP3    H165390   3.585   1.530  15.490  0.1912  0.2844  0.5542
14633TIP3    H265391   3.715   1.457  15.518  0.9842  1.1733 -0.7873
14634TIP3   OH265392   1.547   6.109   5.788 -0.5442  0.3283  0.2522
14634TIP3    H165393   1.465   6.088   5.743  0.2623 -0.7622 -0.7343
14634TIP3    H265394   1.584   6.181   5.737 -1.2606  1.3352  1.1516
14635TIP3   OH265395   5.974   2.266   5.734 -0.3730  0.4695 -0.2918
14635TIP3    H165396   6.066   2.241   5.747 -0.1972  0.5658 -1.3053
14635TIP3    H265397   5.964   2.346   5.787  0.9248  2.1072 -2.4107
14636TIP3   OH265398   2.281   5.340   4.489  0.3405 -0.6723 -0.5253
14636TIP3    H165399   2.205   5.304   4.535  1.3799 -1.2250  0.7844
14636TIP3    H265400   2.256   5.430   4.469 -1.1073 -1.1895 -1.1483
14637TIP3   OH265401   3.085   1.048  15.860  0.8622  0.3312 -0.2824
14637TIP3    H165402   3.053   0.989  15.928 -1.1833  0.0604 -1.4397
14637TIP3    H265403   3.077   1.135  15.899 -2.6858  0.4086 -0.9948
14638TIP3   OH265404   3.453   0.210   1.087  0.4963  0.5376  0.0671
14638TIP3    H165405   3.441   0.214   1.181 -2.2634 -0.4227 -0.1833
14638TIP3    H265406   3.411   0.289   1.053 -1.0656 -0.5261 -0.5342
14639TIP3   OH265407   3.549   1.224   2.328 -0.0078  0.6027 -0.3796
14639TIP3    H165408   3.560   1.142   2.279 -0.3073  1.3751 -1.7883
14639TIP3    H265409   3.469   1.210   2.379  0.9562 -0.6509  0.8096
14640TIP3   OH265410   1.345   2.854  14.198  0.4580 -0.0325  0.0097
14640TIP3    H165411   1.299   2.827  14.277 -2.5429 -1.2771 -2.0730
14640TIP3    H265412   1.314   2.943  14.181  1.2495  0.3082  0.2975
14641TIP3   OH265413   5.976   4.802   0.827 -0.2116  0.0053  0.0465
14641TIP3    H165414   5.949   4.832   0.914  1.5591  0.8479  0.3043
14641TIP3    H265415   6.070   4.785   0.835 -0.3426 -1.5013 -1.2638
14642TIP3   OH265416   1.539   6.336  13.619 -0.1949 -0.4733 -0.4109
14642TIP3    H165417   1.450   6.300  13.612 -0.3325 -0.7634  2.2193
14642TIP3    H265418   1.530   6.427  13.590 -1.1052 -0.8580 -1.3372
14643TIP3   OH265419   4.171   2.076   3.249  0.0073 -0.2385  0.2122
14643TIP3    H165420   4.232   2.004   3.263 -0.7111 -0.5405  2.0026
14643TIP3    H265421   4.200   2.118   3.169  1.8082 -1.1402  0.3806
14644TIP3   OH265422   2.010   6.377  11.657 -0.1917 -0.6839  0.2696
14644TIP3    H165423   2.056   6.294  11.642  1.4793  0.1408  0.8137
14644TIP3    H265424   2.017   6.392  11.751 -2.7686 -1.2128  0.5919
14645TIP3   OH265425   2.011   0.602   4.952  0.0952  0.2005  0.0146
14645TIP3    H165426   2.043   0.657   4.881  0.4068  0.5021  0.3841
14645TIP3    H265427   1.943   0.654   4.994  0.4273  0.3256  0.3968
14646TIP3   OH265428   6.253   3.435   3.624 -0.1554 -0.0462  0.1703
14646TIP3    H165429   6.159   3.440   3.605 -0.5045  1.0072  2.0266
14646TIP3    H265430   6.279   3.349   3.592 -1.8510 -0.5218 -0.0143
14647TIP3   OH265431   0.903   6.220  15.735  0.2164  0.8141  0.0842
14647TIP3    H165432   0.860   6.193  15.654  1.7023 -1.0372 -0.1227
14647TIP3    H265433   0.864   6.164  15.802  2.4870 -1.1746 -0.1665
14648TIP3   OH265434   0.489   1.389  15.715 -0.0076  0.3394  0.4706
14648TIP3    H165435   0.471   1.449  15.787  2.6954  1.3191  0.4049
14648TIP3    H265436   0.555   1.329  15.751  0.9751  0.5112 -1.0015
14649TIP3   OH265437   0.587   5.479   2.042  0.4405 -0.8527  0.1226
14649TIP3    H165438   0.494   5.497   2.027  0.4232 -1.4502 -0.4948
14649TIP3    H265439   0.597   5.483   2.137 -0.5050 -2.2294  0.2900
14650TIP3   OH265440   5.125   5.902  13.945 -0.0852 -0.1873 -0.3023
14650TIP3    H165441   5.044   5.954  13.939 -1.2623 -1.8328  0.7959
14650TIP3    H265442   5.109   5.826  13.889  1.4464  0.3669 -1.5303
14651TIP3   OH265443   4.872   6.021   2.731  0.8360 -0.9485  0.0032
14651TIP3    H165444   4.927   6.094   2.760 -0.9794  0.3671  0.2437
14651TIP3    H265445   4.905   6.000   2.644  0.9026  0.6898 -0.3910
14652TIP3   OH265446   2.269   0.325   5.655  0.6187  0.0489 -0.0806
14652TIP3    H165447   2.358   0.352   5.679  1.4498 -1.7298 -1.0512
14652TIP3    H265448   2.250   0.251   5.712 -0.5050  0.7958  0.5416
14653TIP3   OH265449   3.182   6.094  15.134  0.1799  0.5979 -0.5761
14653TIP3    H165450   3.099   6.139  15.118 -0.1545  0.0664 -0.3487
14653TIP3    H265451   3.169   6.006  15.099 -1.1347 -1.1614  3.9828
14654TIP3   OH265452   2.611   1.824   5.053 -0.0063  0.4620 -0.1501
14654TIP3    H165453   2.677   1.755   5.055  0.3540  0.8051 -0.2632
14654TIP3    H265454   2.656   1.900   5.016 -0.4249  0.7339 -0.1044
14655TIP3   OH265455   0.952   6.145  12.087  0.4266 -0.2370  0.1504
14655TIP3    H165456   0.954   6.198  12.008 -1.0934 -1.7102 -0.8973
14655TIP3    H265457   0.882   6.183  12.140  0.2086 -0.3956 -0.0250
14656TIP3   OH265458   2.984   4.135   2.178 -0.3982  0.2203 -0.6297
14656TIP3    H165459   3.010   4.043   2.179 -2.9313 -0.5324 -1.4071
14656TIP3    H265460   2.924   4.143   2.104 -0.4151  2.4593 -0.4248
14657TIP3   OH265461   3.211   0.673   4.431  0.3338  0.2602  1.0278
14657TIP3    H165462   3.157   0.706   4.503  0.2551 -1.0627  1.5998
14657TIP3    H265463   3.290   0.727   4.433 -1.3717  2.8668 -0.4397
14658TIP3   OH265464   5.612   1.947   3.764 -0.2594 -0.0218  0.0966
14658TIP3    H165465   5.679   1.973   3.700  1.4118 -1.0338  1.3833
14658TIP3    H265466   5.652   1.967   3.849 -0.7914 -2.4068  0.9511
14659TIP3   OH265467   1.802   6.319  15.028 -0.5771 -0.2747 -0.4954
14659TIP3    H165468   1.761   6.391  14.979 -0.4238  0.4179  0.3859
14659TIP3    H265469   1.814   6.354  15.116  2.8241 -0.0761 -0.9630
14660TIP3   OH265470   2.475   3.980  12.826  0.4853  0.7470 -0.7575
14660TIP3    H165471   2.451   3.933  12.746 -1.1489  0.5694 -0.2030
14660TIP3    H265472   2.570   3.985  12.824  0.4677  0.6951 -2.6781
14661TIP3   OH265473   6.139   3.103   2.814 -0.2311 -0.0143  0.1274
14661TIP3    H165474   6.171   3.053   2.890 -1.4810  0.0804  0.7375
14661TIP3    H265475   6.050   3.071   2.801  0.3205 -0.7452 -1.9466
14662TIP3   OH265476   6.761   0.336   4.453  0.7305 -0.1382  0.4229
14662TIP3    H165477   6.816   0.314   4.378 -0.2585  0.1993 -0.4120
14662TIP3    H265478   6.710   0.412   4.424 -2.9823 -2.7248 -0.2415
14663TIP3   OH265479   5.068   2.483  14.679  0.2156 -0.7150  0.3437
14663TIP3    H165480   5.013   2.409  14.652 -1.5934  0.0947  1.6733
14663TIP3    H265481   5.017   2.526  14.748  1.3694  1.6013 -0.2070
14664TIP3   OH265482   2.033   0.935   5.903 -0.4737  0.1839  0.2889
14664TIP3    H165483   1.941   0.911   5.892 -0.6266  0.7085  0.4290
14664TIP3    H265484   2.035   0.986   5.983  0.5500 -3.1202  2.4871
14665TIP3   OH265485   1.163   4.043  14.860 -0.1427 -0.6660  0.1470
14665TIP3    H165486   1.254   4.063  14.840 -0.8932  0.6630 -2.2283
14665TIP3    H265487   1.127   4.126  14.893 -0.6505 -0.9844  0.3981
14666TIP3   OH265488   3.727   6.494   2.797 -0.2666  0.0943 -0.3859
14666TIP3    H165489   3.800   6.446   2.758 -1.0131  0.1327 -1.8567
14666TIP3    H265490   3.759   6.584   2.806  0.4346 -0.2377  0.5228
14667TIP3   OH265491   3.380   2.160  12.572  0.1229 -0.2322  0.0544
14667TIP3    H165492   3.390   2.157  12.667 -2.5699  1.9025  0.4686
14667TIP3    H265493   3.445   2.224  12.543 -0.1385  0.3080  0.6499
14668TIP3   OH265494   4.214   0.634  14.812 -0.1099  0.6134  0.4111
14668TIP3    H165495   4.253   0.690  14.878  0.8271 -0.7353  1.0311
14668TIP3    H265496   4.267   0.648  14.734  0.5958  0.0276  0.7807
14669TIP3   OH265497   1.554   2.778  11.963 -0.0987  0.2996 -0.1491
14669TIP3    H165498   1.547   2.693  11.919 -1.7225  0.2231  0.2141
14669TIP3    H265499   1.494   2.771  12.037 -0.6988  1.9849 -0.4594
14670TIP3   OH265500   6.686   3.233   5.190  0.0365 -0.1273  0.1787
14670TIP3    H165501   6.762   3.228   5.247  0.1622  2.6976  0.3163
14670TIP3    H265502   6.620   3.178   5.233  1.2445 -0.7627  1.2337
14671TIP3   OH265503   0.088   1.578   0.634  0.2554  0.1063  0.4959
14671TIP3    H165504   0.127   1.490   0.632 -0.0583 -0.0070 -1.6470
14671TIP3    H265505   0.070   1.598   0.543 -0.8514  1.9025  1.0901
14672TIP3   OH265506   1.114   4.545   0.994  0.0273 -0.2417 -0.0467
14672TIP3    H165507   1.099   4.631   1.034 -0.6028 -0.4305  0.1357
14672TIP3    H265508   1.168   4.498   1.057  0.5053  0.0700 -0.2171
14673TIP3   OH265509   1.722   3.126  14.497 -0.0067  0.1950  0.1276
14673TIP3    H165510   1.763   3.040  14.509  0.5469  0.4745  0.2421
14673TIP3    H265511   1.771   3.167  14.426 -0.8804  0.0392 -0.5720
14674TIP3   OH265512   0.648   2.244   2.199  0.2660  0.6019  0.4266
14674TIP3    H165513   0.683   2.157   2.220 -0.9001  0.0483  0.1344
14674TIP3    H265514   0.672   2.257   2.107 -2.3408 -0.8260 -0.5080
14675TIP3   OH265515   3.662   6.617   4.362  0.1215 -0.0490  0.1921
14675TIP3    H165516   3.747   6.573   4.364 -0.5997 -1.5180 -1.1530
14675TIP3    H265517   3.678   6.700   4.409  2.0638 -0.6741  0.7112
14676TIP3   OH265518   3.306   4.162   5.384  0.4634 -0.2902 -0.7672
14676TIP3    H165519   3.371   4.129   5.323  0.2415 -1.3567 -0.4315
14676TIP3    H265520   3.269   4.239   5.340  0.2138 -1.1187 -2.0391
14677TIP3   OH265521   1.056   5.678  15.693 -0.0466  0.0275 -0.3422
14677TIP3    H165522   1.140   5.717  15.717 -0.2862  0.7118 -0.5965
14677TIP3    H265523   1.026   5.634  15.772 -1.1929  2.9113  0.9023
14678TIP3   OH265524   2.361   4.202   1.172  0.1154  0.0956  0.2867
14678TIP3    H165525   2.440   4.257   1.178 -0.7142  1.1135  2.2568
14678TIP3    H265526   2.394   4.116   1.147  1.6389  1.0035 -0.9509
14679TIP3   OH265527   1.680   5.383  15.834  0.1134 -0.0483 -0.1370
14679TIP3    H165528   1.726   5.465  15.815  1.1362 -0.5155  0.3321
14679TIP3    H265529   1.746   5.315  15.825 -1.1118 -1.0305 -2.2511
14680TIP3   OH265530   1.530   1.018   3.490 -0.4124  0.7967 -0.3257
14680TIP3    H165531   1.539   0.931   3.529 -0.1585  0.9233 -0.1075
14680TIP3    H265532   1.517   1.000   3.397  1.0409  0.5787 -0.4963
14681TIP3   OH265533   3.933   2.680  12.512  0.0040  0.1250  0.6763
14681TIP3    H165534   3.944   2.629  12.432 -1.5299 -0.9425  1.1098
14681TIP3    H265535   3.993   2.639  12.575  1.1984  0.9556  0.1001
14682TIP3   OH265536   1.914   2.125   6.009  0.7052 -0.4936  0.1633
14682TIP3    H165537   1.962   2.054   6.054  1.8629 -0.4708 -1.0131
14682TIP3    H265538   1.902   2.092   5.920  0.9149  0.6467 -0.2825
14683TIP3   OH265539   0.700   6.725  13.677 -0.8828  0.0023  0.2037
14683TIP3    H165540   0.616   6.770  13.676 -1.2986 -0.7740 -0.9210
14683TIP3    H265541   0.765   6.794  13.667 -1.3428  0.6752  1.7294
14684TIP3   OH265542   5.511   5.985   3.104  0.3948 -0.0146 -0.0794
14684TIP3    H165543   5.460   5.926   3.160 -0.2928 -0.4471 -1.1484
14684TIP3    H265544   5.538   6.056   3.163  1.2599 -1.3992  1.2232
14685TIP3   OH265545   3.540   0.608  12.960 -0.4706  0.6044  0.7177
14685TIP3    H165546   3.587   0.653  12.890 -0.2141 -0.8141 -0.0414
14685TIP3    H265547   3.563   0.516  12.950 -2.4986  0.0261  1.0504
14686TIP3   OH265548   4.423   4.645   0.468  0.5946 -0.3602  0.5350
14686TIP3    H165549   4.476   4.706   0.519 -0.5540  0.2293  1.0367
14686TIP3    H265550   4.432   4.562   0.515  1.2539 -0.3217  0.4852
14687TIP3   OH265551   3.998   3.061  15.334  0.5432 -0.4346 -0.1387
14687TIP3    H165552   4.058   3.110  15.277  1.2427 -0.6009  0.4511
14687TIP3    H265553   3.934   3.023  15.273  1.1185 -0.3767 -0.7923
14688TIP3   OH265554   1.420   2.193  16.800  0.5206 -0.0683 -0.1930
14688TIP3    H165555   1.446   2.106  16.831 -2.2987 -0.4162  1.3195
14688TIP3    H265556   1.430   2.250  16.876 -0.4720  0.3259 -0.3506
14689TIP3   OH265557   1.393   2.739   2.658 -0.0044  0.2961  0.3083
14689TIP3    H165558   1.315   2.685   2.659  0.2686 -0.0982  0.3452
14689TIP3    H265559   1.368   2.817   2.609 -1.1098  1.2084  2.2834
14690TIP3   OH265560   4.671   2.106  12.411  0.1085 -0.1940  0.7287
14690TIP3    H165561   4.708   2.079  12.327 -1.5777  0.2466 -0.1757
14690TIP3    H265562   4.739   2.158  12.452 -0.0890  1.9822 -1.6219
14691TIP3   OH265563   1.426   2.680  15.511 -0.3542 -0.3811 -0.3176
14691TIP3    H165564   1.394   2.662  15.600 -2.9980 -0.6161 -1.2671
14691TIP3    H265565   1.439   2.775  15.510 -0.8027 -0.3093  0.1622
14692TIP3   OH265566   0.269   4.528   5.982  0.0337 -0.4094 -0.1902
14692TIP3    H165567   0.353   4.552   6.022 -0.0577 -2.1306  1.0715
14692TIP3    H265568   0.207   4.526   6.054 -1.2257  1.3382 -1.2049
14693TIP3   OH265569   1.133   4.869  13.816  0.2979 -0.4207 -0.1581
14693TIP3    H165570   1.167   4.780  13.806  0.3336 -0.3599 -0.6011
14693TIP3    H265571   1.047   4.867  13.772  0.3216 -0.2254 -0.2139
14694TIP3   OH265572   1.985   4.636  12.224 -0.1875 -0.1128  0.5058
14694TIP3    H165573   1.994   4.545  12.195  0.9080  0.2810 -0.3761
14694TIP3    H265574   1.980   4.629  12.320 -2.2300 -1.2647  0.3662
14695TIP3   OH265575   3.494   6.002  10.615  0.1711 -0.3991  0.2094
14695TIP3    H165576   3.567   5.973  10.560  0.0250  1.2311 -0.9013
14695TIP3    H265577   3.418   6.000  10.557  0.2569  2.6781 -0.1340
14696TIP3   OH265578   5.776   2.103   6.630 -1.3152 -0.0581  0.4189
14696TIP3    H165579   5.866   2.091   6.599 -1.7640 -1.6044 -0.3366
14696TIP3    H265580   5.749   2.187   6.594 -0.0871  0.5289  0.8493
14697TIP3   OH265581   0.636   5.861   4.226  0.1579 -0.0329  0.1574
14697TIP3    H165582   0.560   5.834   4.175  0.5261 -1.9316  0.5936
14697TIP3    H265583   0.679   5.927   4.171 -0.8911 -0.1240 -0.8057
14698TIP3   OH265584   3.941   2.052   2.323 -0.6061 -0.2608  0.1542
14698TIP3    H165585   3.919   2.143   2.303  1.4821  0.0812 -0.7516
14698TIP3    H265586   3.876   2.025   2.387 -0.5325  2.2782  1.3660
14699TIP3   OH265587   6.161   4.297  12.606  0.5004 -0.3384 -0.6300
14699TIP3    H165588   6.101   4.370  12.595 -0.8281 -1.2504  0.4945
14699TIP3    H265589   6.110   4.228  12.649  1.8843 -1.7227 -1.1113
14700TIP3   OH265590   0.178   2.357   0.399  0.4531 -0.0690 -0.1431
14700TIP3    H165591   0.136   2.439   0.374 -1.3635 -1.4571 -1.8150
14700TIP3    H265592   0.203   2.370   0.491  0.3755  2.4040 -0.4432
14701TIP3   OH265593   5.672   5.924  16.473 -0.1896 -0.0043  0.5412
14701TIP3    H165594   5.726   5.847  16.494 -1.6731 -0.4947  2.7700
14701TIP3    H265595   5.585   5.888  16.460 -0.8359  1.2685  1.2889
14702TIP3   OH265596   4.088   6.694  13.155 -0.6985  0.4344  0.1052
14702TIP3    H165597   4.058   6.739  13.076 -0.6114 -0.2368 -0.3084
14702TIP3    H265598   4.087   6.602  13.133 -1.0935  0.2045  1.0348
14703TIP3   OH265599   2.966   2.508  16.726  0.7539  1.1768  0.1517
14703TIP3    H165600   2.915   2.431  16.750  0.0368  2.0228  1.3705
14703TIP3    H265601   3.047   2.472  16.688  0.6763 -0.1746  1.2339
14704TIP3   OH265602   5.734   5.969  13.449  0.0069 -0.0480  0.6676
14704TIP3    H165603   5.738   6.038  13.382  3.0228  0.0222  0.8434
14704TIP3    H265604   5.694   6.012  13.525  0.2022  1.0032  0.1915
14705TIP3   OH265605   6.199   5.301  15.944  0.5717 -0.2928 -0.3824
14705TIP3    H165606   6.122   5.320  15.997 -1.0923 -1.1257 -2.4265
14705TIP3    H265607   6.273   5.329  15.998 -1.1802  1.1209  1.3509
14706TIP3   OH265608   1.054   3.483   3.754  0.6073  0.1554 -0.4602
14706TIP3    H165609   0.977   3.444   3.711 -0.3794  2.2222 -0.6145
14706TIP3    H265610   1.039   3.467   3.847 -0.8108  1.9248 -0.3662
14707TIP3   OH265611   2.758   4.172   5.978  0.1354 -0.3101  0.0743
14707TIP3    H165612   2.743   4.148   6.069  0.2379 -0.1154  0.1426
14707TIP3    H265613   2.853   4.166   5.966  0.4092  2.1405  0.6855
14708TIP3   OH265614   3.014   5.613  15.879  0.3996  0.0262  0.2025
14708TIP3    H165615   3.105   5.586  15.884  0.1358 -0.9532 -0.1722
14708TIP3    H265616   3.011   5.697  15.924  1.0990 -0.9125  2.0620
14709TIP3   OH265617   1.770   6.797   4.588 -0.1780 -0.0069  0.0155
14709TIP3    H165618   1.841   6.792   4.524  0.3990  1.5588  0.5030
14709TIP3    H265619   1.785   6.880   4.634 -1.4372 -0.3985  1.1705
14710TIP3   OH265620   5.129   1.538   1.702  0.7051  0.0642  0.2129
14710TIP3    H165621   5.203   1.490   1.664  0.6543 -1.5423  2.0900
14710TIP3    H265622   5.164   1.625   1.721  1.7278 -0.2619 -0.1467
14711TIP3   OH265623   3.005   0.083   0.277  0.1200 -0.1076 -0.7014
14711TIP3    H165624   3.079   0.114   0.224  2.3832 -4.0758 -0.0397
14711TIP3    H265625   3.042   0.070   0.364 -1.9056 -0.1049  0.1771
14712TIP3   OH265626   3.346   5.763  16.349 -0.1618 -0.3632 -0.2993
14712TIP3    H165627   3.314   5.815  16.422  1.6774 -1.7543  1.5493
14712TIP3    H265628   3.437   5.790  16.338 -0.2923 -0.4840 -1.7971
14713TIP3   OH265629   3.698   0.219   2.708  0.2933  0.6923 -0.8786
14713TIP3    H165630   3.663   0.162   2.776  0.2482  0.1367 -1.3623
14713TIP3    H265631   3.727   0.298   2.755  1.8888 -0.4026  0.0320
14714TIP3   OH265632   6.696   1.684   4.943 -0.6133  0.2867  0.0365
14714TIP3    H165633   6.708   1.779   4.932 -1.3684  0.4831  0.8536
14714TIP3    H265634   6.616   1.665   4.895  0.7839 -0.3513 -2.1045
14715TIP3   OH265635   3.007   1.305   4.703 -0.0813  0.0739 -0.5942
14715TIP3    H165636   2.956   1.386   4.704  0.1793  0.2350  0.4854
14715TIP3    H265637   2.943   1.235   4.714 -0.0589  0.2922  1.0512
14716TIP3   OH265638   0.752   1.918   4.100  0.2049 -0.5710 -0.0887
14716TIP3    H165639   0.829   1.935   4.154  1.3338 -1.1717 -1.4716
14716TIP3    H265640   0.679   1.913   4.162  0.9397  1.9837  1.0789
14717TIP3   OH265641   2.750   4.166  16.663  0.2155  0.4864 -0.7335
14717TIP3    H165642   2.804   4.188  16.738  0.4680 -2.1392 -0.0846
14717TIP3    H265643   2.775   4.229  16.595  0.5816  2.3334  1.0881
14718TIP3   OH265644   1.088   0.593  16.502 -0.1990 -0.0671 -0.5307
14718TIP3    H165645   1.177   0.611  16.473  0.1380 -0.2877  0.3510
14718TIP3    H265646   1.067   0.509  16.462  0.1515 -0.2225 -0.3956
14719TIP3   OH265647   0.206   4.145   4.090 -0.1496  0.2096  0.0603
14719TIP3    H165648   0.267   4.136   4.163 -0.1596 -0.5010 -0.0082
14719TIP3    H265649   0.144   4.073   4.102 -1.2996  1.2493  0.4325
14720TIP3   OH265650   2.621   3.508  13.589 -0.8390 -0.0009 -0.2189
14720TIP3    H165651   2.670   3.564  13.528 -1.5034 -0.6267 -1.3351
14720TIP3    H265652   2.600   3.430  13.538 -1.6350 -0.4168  0.7396
14721TIP3   OH265653   0.635   5.653  13.164  0.2200  0.6272 -0.0968
14721TIP3    H165654   0.545   5.625  13.149  0.1987  0.8528 -0.3985
14721TIP3    H265655   0.688   5.587  13.122  0.1264  2.1163 -2.6267
14722TIP3   OH265656   5.124   1.144  13.638  0.0198  0.2063  0.0466
14722TIP3    H165657   5.131   1.199  13.716  0.1307  0.7814 -0.3672
14722TIP3    H265658   5.159   1.198  13.567 -1.3566  0.2018 -0.6493
14723TIP3   OH265659   3.133   6.471  12.377  0.2477 -0.3282  0.4164
14723TIP3    H165660   3.195   6.528  12.422 -0.5815  1.3900 -0.5628
14723TIP3    H265661   3.048   6.511  12.392 -0.3415 -1.2754 -0.3524
14724TIP3   OH265662   0.357   3.169   0.631  0.1112  0.2957  0.3551
14724TIP3    H165663   0.431   3.229   0.631  0.2647  0.1292  2.0695
14724TIP3    H265664   0.280   3.225   0.619  0.5925  0.2928 -3.3886
14725TIP3   OH265665   1.982   4.943   3.987  0.1332 -0.4701  0.4998
14725TIP3    H165666   1.888   4.927   3.977  0.5236 -2.4199 -0.2293
14725TIP3    H265667   2.024   4.884   3.924  1.7892  1.6963 -0.5168
14726TIP3   OH265668   5.822   3.070  10.146 -0.4588 -0.1428  0.2894
14726TIP3    H165669   5.836   3.001  10.210 -1.1186  0.1913  0.7945
14726TIP3    H265670   5.859   3.149  10.186  0.1256 -0.1593 -0.2080
14727TIP3   OH265671   6.250   2.429   1.347  0.4433  0.3062  0.2096
14727TIP3    H165672   6.310   2.501   1.368 -0.2178  0.7370  0.6504
14727TIP3    H265673   6.307   2.358   1.318  1.1198  0.9298 -0.0047
14728TIP3   OH265674   5.247   5.948  15.973  0.2976  0.1582  0.2309
14728TIP3    H165675   5.320   5.934  16.034  0.0878  1.2479  0.7287
14728TIP3    H265676   5.276   5.905  15.892 -0.1629 -2.8924  1.6029
14729TIP3   OH265677   6.627   4.106   1.463 -0.4510 -0.1322  0.2399
14729TIP3    H165678   6.689   4.178   1.455  0.7788 -1.0790  1.0263
14729TIP3    H265679   6.593   4.113   1.552 -0.2338 -0.5757  0.3630
14730TIP3   OH265680   4.984   1.901  16.230 -0.2424 -0.3588  0.1795
14730TIP3    H165681   5.009   1.872  16.318  1.5791 -3.0359 -1.1533
14730TIP3    H265682   4.913   1.842  16.205 -1.7430  1.3289  0.3819
14731TIP3   OH265683   3.484   6.419  11.121 -0.2809  0.2646 -0.5695
14731TIP3    H165684   3.445   6.469  11.049 -1.7895  1.5204  1.0862
14731TIP3    H265685   3.441   6.334  11.116 -1.6707  0.9307 -0.0794
14732TIP3   OH265686   6.220   1.196  15.638  0.0524  0.1798  0.4351
14732TIP3    H165687   6.279   1.239  15.700  0.2283  1.5206 -0.6260
14732TIP3    H265688   6.275   1.134  15.591 -0.1860 -1.1997  1.9304
14733TIP3   OH265689   4.870   4.098  13.422 -0.2218  0.0426  0.0351
14733TIP3    H165690   4.846   4.186  13.395 -1.4414  0.8001  3.3414
14733TIP3    H265691   4.928   4.110  13.497 -0.1127 -1.9654  0.3200
14734TIP3   OH265692   0.427   3.344   1.666  0.4808  0.0617 -0.4363
14734TIP3    H165693   0.430   3.417   1.728  1.0847  0.0360 -0.4324
14734TIP3    H265694   0.406   3.385   1.582 -2.7844 -0.1765  0.1988
14735TIP3   OH265695   3.969   1.884  14.781  0.3896 -0.0436 -0.0377
14735TIP3    H165696   4.002   1.961  14.733  2.4043 -0.4234  0.6823
14735TIP3    H265697   3.908   1.921  14.845  1.3938  0.9856  0.3524
14736TIP3   OH265698   2.627   1.937   3.315  0.2418 -0.0764  0.0717
14736TIP3    H165699   2.699   1.951   3.376  0.9767  1.4857 -1.1115
14736TIP3    H265700   2.548   1.956   3.366  0.9123  2.3465  0.2429
14737TIP3   OH265701   2.669   1.439   0.882 -0.0293  0.1819  0.2337
14737TIP3    H165702   2.764   1.439   0.894  0.0660  1.9257 -0.4504
14737TIP3    H265703   2.640   1.524   0.914 -1.3743 -0.3275  0.4251
14738TIP3   OH265704   6.708   0.157   2.221 -0.3119 -0.5416  0.2095
14738TIP3    H165705   6.776   0.167   2.287  0.2869 -2.3557 -0.1076
14738TIP3    H265706   6.671   0.070   2.237  0.0862 -1.1550 -2.0528
14739TIP3   OH265707   1.182   1.161   1.786 -0.0526  0.6289  0.3714
14739TIP3    H165708   1.106   1.217   1.802  1.2340  1.9255  2.1181
14739TIP3    H265709   1.155   1.074   1.815 -0.7380  1.1647  1.3644
14740TIP3   OH265710   4.189   4.708  15.314  0.0507 -0.1391 -0.1138
14740TIP3    H165711   4.279   4.740  15.322 -0.9063  2.2084  1.9440
14740TIP3    H265712   4.161   4.692  15.404 -0.7917 -3.2572 -0.8842
14741TIP3   OH265713   2.642   2.010   4.117  0.5582 -0.9067 -0.4815
14741TIP3    H165714   2.699   2.087   4.116  0.6944 -1.0075 -0.5075
14741TIP3    H265715   2.557   2.043   4.086 -0.1590 -0.1792  2.1623
14742TIP3   OH265716   1.112   3.653   2.964  0.7058  0.4918  0.5599
14742TIP3    H165717   1.103   3.626   3.056  1.1387 -0.1878  0.4083
14742TIP3    H265718   1.030   3.626   2.923  1.6624 -1.8976  0.1054
14743TIP3   OH265719   0.945   3.533   5.856  0.2005  0.0859 -0.3209
14743TIP3    H165720   0.925   3.504   5.767 -3.0253 -0.2825  0.4681
14743TIP3    H265721   0.932   3.455   5.909  1.1098  0.5665  0.6139
14744TIP3   OH265722   5.148   0.688   5.565 -0.0320 -0.1013  0.2670
14744TIP3    H165723   5.084   0.741   5.519 -1.0348 -0.5146  1.1462
14744TIP3    H265724   5.151   0.724   5.654  0.6845 -0.3154  0.3411
14745TIP3   OH265725   1.400   3.259  16.658 -0.4158 -0.5726 -0.1528
14745TIP3    H165726   1.339   3.195  16.622 -1.5783 -0.2520  1.2498
14745TIP3    H265727   1.450   3.210  16.723 -0.8289 -0.2284  0.4235
14746TIP3   OH265728   0.324   4.422   5.467  0.2357  0.2367  0.4021
14746TIP3    H165729   0.271   4.477   5.525 -0.1716  0.7603 -0.4627
14746TIP3    H265730   0.271   4.413   5.388  1.1267  0.1498 -0.1866
14747TIP3   OH265731   4.831   3.675   4.444  0.0048  0.3576 -0.0782
14747TIP3    H165732   4.851   3.733   4.370 -0.8152 -0.2577 -0.7835
14747TIP3    H265733   4.792   3.733   4.509 -1.6296  0.4781 -1.1180
14748TIP3   OH265734   3.918   5.703  12.586  0.2185  0.7568  0.0872
14748TIP3    H165735   3.946   5.701  12.495  0.0818 -0.7216  0.0697
14748TIP3    H265736   3.998   5.685  12.636 -0.1862 -0.9337  0.1444
14749TIP3   OH265737   0.978   4.792   4.333 -0.0122 -0.2887 -0.1780
14749TIP3    H165738   1.002   4.861   4.272 -0.6975  0.9434  0.9305
14749TIP3    H265739   0.886   4.809   4.355  0.2251 -0.6955  1.2013
14750TIP3   OH265740   0.920   1.886   4.574  0.4519 -0.0577 -0.7082
14750TIP3    H165741   0.988   1.873   4.640  0.1265  1.4518 -0.0677
14750TIP3    H265742   0.910   1.800   4.533  3.2118 -0.1745 -1.2568
14751TIP3   OH265743   4.474   0.331  10.316 -0.7065  0.0930  0.5772
14751TIP3    H165744   4.500   0.239  10.303 -0.3319  0.2617  0.1445
14751TIP3    H265745   4.441   0.333  10.406  2.9814  0.3788  2.0057
14752TIP3   OH265746   5.734   2.094   4.913 -0.3001 -0.3533  0.5333
14752TIP3    H165747   5.699   2.179   4.888 -0.7402 -0.7931 -0.3436
14752TIP3    H265748   5.802   2.114   4.978  0.4566  0.7493 -0.5802
14753TIP3   OH265749   1.186   6.017   4.299  0.0670  0.3974  0.1991
14753TIP3    H165750   1.148   6.066   4.372 -0.3087 -0.9330  0.9256
14753TIP3    H265751   1.144   6.052   4.221 -1.1664  0.3304  0.8265
14754TIP3   OH265752   4.889   0.327  12.378 -0.2282  0.1837  0.1905
14754TIP3    H165753   4.876   0.316  12.284  0.1888 -1.0155  0.2719
14754TIP3    H265754   4.913   0.419  12.388  1.6105 -0.1355 -1.0843
14755TIP3   OH265755   5.745   3.996   1.683 -0.5250 -0.5282  0.4503
14755TIP3    H165756   5.733   4.002   1.777  0.1213 -1.1314  0.5692
14755TIP3    H265757   5.840   3.986   1.671 -0.7592 -2.1335 -0.1778
14756TIP3   OH265758   2.942   1.776  12.117  0.0391  0.4319 -0.5426
14756TIP3    H165759   2.904   1.801  12.033 -1.1003  1.7073  0.3414
14756TIP3    H265760   3.002   1.847  12.139 -2.3957  1.9686  1.4477
14757TIP3   OH265761   3.430   5.906  13.276 -0.5785  0.5122 -0.1133
14757TIP3    H165762   3.362   5.958  13.232 -0.1290  3.6536  2.6786
14757TIP3    H265763   3.511   5.953  13.257 -0.0314  0.3276  1.7342
14758TIP3   OH265764   2.433   4.691   2.670  0.2232  0.1981 -0.6388
14758TIP3    H165765   2.399   4.754   2.607 -0.1368  1.6530  0.9799
14758TIP3    H265766   2.391   4.608   2.646 -1.5458  1.1713 -1.0132
14759TIP3   OH265767   2.071   0.386  16.663  0.7796 -0.3377 -0.0134
14759TIP3    H165768   2.157   0.412  16.628 -0.1509  0.5320 -1.7140
14759TIP3    H265769   2.027   0.468  16.682  0.4414 -0.7913  1.2016
14760TIP3   OH265770   3.807   6.595   2.144  0.2071  0.4392  0.0035
14760TIP3    H165771   3.825   6.615   2.052 -0.8208 -0.6435 -0.4460
14760TIP3    H265772   3.821   6.678   2.190  1.9583  0.6843 -0.9444
14761TIP3   OH265773   3.078   1.005   5.062  0.2648 -0.4510  0.3832
14761TIP3    H165774   3.101   0.912   5.067  0.2902 -0.6351 -2.3133
14761TIP3    H265775   2.994   1.007   5.016 -1.6650  0.6723  3.7749
14762TIP3   OH265776   2.797   2.909   3.676  0.7631  0.0383 -0.0741
14762TIP3    H165777   2.796   2.817   3.651  1.0756 -0.1934  0.7826
14762TIP3    H265778   2.865   2.916   3.742 -0.2200  0.6164  0.8904
14763TIP3   OH265779   1.116   4.364   4.389  0.6894  0.2424 -0.9342
14763TIP3    H165780   1.167   4.430   4.437 -0.5415  0.5484 -0.0425
14763TIP3    H265781   1.071   4.414   4.321 -0.8184  0.4415  0.2005
14764TIP3   OH265782   1.709   3.003   2.675  0.2937 -0.2144  0.0542
14764TIP3    H165783   1.626   2.966   2.642  0.0013 -0.2808  0.8544
14764TIP3    H265784   1.755   3.032   2.596 -0.5327 -0.0963 -0.3931
14765TIP3   OH265785   4.986   1.879  16.879  0.0325 -0.1408 -0.1376
14765TIP3    H165786   4.903   1.831  16.883  0.1423 -0.3427 -0.2786
14765TIP3    H265787   4.962   1.968  16.855 -0.1831 -0.0973  0.2337
14766TIP3   OH265788   1.589   6.652  17.073 -0.7026  0.5116  0.0715
14766TIP3    H165789   1.666   6.642  17.128 -1.1713 -2.5624  0.3026
14766TIP3    H265790   1.567   6.745  17.077  4.1894  1.8861 -1.7231
14767TIP3   OH265791   0.146   0.449   3.313 -0.2628  0.0290  0.1869
14767TIP3    H165792   0.080   0.518   3.314 -1.5355 -1.1674  0.0206
14767TIP3    H265793   0.099   0.371   3.282  1.2321 -0.8291  0.0236
14768TIP3   OH265794   4.352   6.200   0.783 -0.5418  0.3861  0.3613
14768TIP3    H165795   4.415   6.152   0.730  0.5013  1.5939  0.4986
14768TIP3    H265796   4.270   6.196   0.733  0.0503  0.2453 -0.6089
14769TIP3   OH265797   2.257   2.814  16.280 -0.5367 -0.2367 -0.0383
14769TIP3    H165798   2.283   2.724  16.263 -1.3820 -0.6810  0.9539
14769TIP3    H265799   2.339   2.861  16.296 -0.2267 -1.2148  1.2634
14770TIP3   OH265800   6.440   2.120   5.949  0.2986  0.1648 -0.1159
14770TIP3    H165801   6.459   2.154   6.036 -0.0300 -1.0568  0.4372
14770TIP3    H265802   6.453   2.026   5.956  0.7789  0.1137 -1.5263
14771TIP3   OH265803   4.328   0.932   4.349 -0.1477  0.1364  0.0593
14771TIP3    H165804   4.272   0.856   4.366 -0.4369 -0.1245 -1.9471
14771TIP3    H265805   4.279   0.985   4.286 -0.0441  2.1233  1.5966
14772TIP3   OH265806   5.586   0.399  15.583 -0.2502  0.0348  0.2675
14772TIP3    H165807   5.633   0.453  15.519 -0.7427 -1.4463 -1.3746
14772TIP3    H265808   5.508   0.369  15.537 -2.2670  1.5108  2.5945
14773TIP3   OH265809   2.237   6.100  10.453 -0.0531 -0.1064 -0.3265
14773TIP3    H165810   2.142   6.097  10.462  0.0409 -0.1589  0.7323
14773TIP3    H265811   2.257   6.034  10.387 -0.4837 -2.5332  1.8675
14774TIP3   OH265812   1.322   3.473   4.689  0.1750  0.1326  0.3962
14774TIP3    H165813   1.312   3.514   4.775  0.9139  0.8288  0.1597
14774TIP3    H265814   1.316   3.379   4.706  0.2779  0.2660  1.2054
14775TIP3   OH265815   5.070   3.512  11.343  0.4384 -0.3528  0.0605
14775TIP3    H165816   5.095   3.553  11.425  2.4375  1.3216 -1.3376
14775TIP3    H265817   5.043   3.584  11.286  0.7891 -1.2933 -1.3352
14776TIP3   OH265818   1.185   6.520   1.744 -0.5615  0.1296  0.0834
14776TIP3    H165819   1.169   6.589   1.808  1.2539 -0.4104  1.1332
14776TIP3    H265820   1.160   6.439   1.790  2.0848 -0.4040  0.6339
14777TIP3   OH265821   2.883   5.092   1.274  0.0925  0.1040  0.7024
14777TIP3    H165822   2.861   5.184   1.291  1.6009  0.4791  0.6663
14777TIP3    H265823   2.901   5.055   1.360  0.0775 -0.0095  0.6576
14778TIP3   OH265824   0.333   0.407  11.350  0.7547 -0.1799 -0.5260
14778TIP3    H165825   0.379   0.391  11.432 -1.4742 -0.7212  0.6544
14778TIP3    H265826   0.277   0.482  11.367  0.5054 -0.0900 -1.6545
14779TIP3   OH265827   5.233   5.111  15.575  0.0262 -0.1354  0.6857
14779TIP3    H165828   5.177   5.041  15.607 -1.8319  0.5633 -0.9745
14779TIP3    H265829   5.189   5.144  15.497  2.1572  1.2115  0.0052
14780TIP3   OH265830   1.005   0.910  15.436  0.4579 -0.0162 -0.4172
14780TIP3    H165831   0.922   0.865  15.421  0.4289 -0.3516  0.6876
14780TIP3    H265832   1.042   0.922  15.349  0.1061 -1.4976 -0.7910
14781TIP3   OH265833   1.730   0.129   5.223 -0.3920  0.5297  0.1624
14781TIP3    H165834   1.822   0.101   5.230 -0.4330  0.2607 -0.3134
14781TIP3    H265835   1.695   0.076   5.151 -1.0982  0.1578  0.7755
14782TIP3   OH265836   4.562   5.691   2.873  0.1887  0.2482  0.5389
14782TIP3    H165837   4.513   5.616   2.838  0.8696 -0.1904  0.5250
14782TIP3    H265838   4.494   5.747   2.911 -0.5174  0.4562 -0.9546
14783TIP3   OH265839   1.710   1.067   1.298 -0.1860  0.0341 -0.4693
14783TIP3    H165840   1.638   1.068   1.361  0.3968  0.1363  0.2068
14783TIP3    H265841   1.687   0.998   1.236 -0.3872 -0.6113  0.3105
14784TIP3   OH265842   0.295   5.892   6.554 -0.1714 -0.1357 -0.6264
14784TIP3    H165843   0.266   5.803   6.571  0.4146 -0.2399 -0.1784
14784TIP3    H265844   0.227   5.947   6.592  0.3978 -0.3751  0.7449
14785TIP3   OH265845   3.495   5.364  17.036  0.2896 -0.1451  0.5310
14785TIP3    H165846   3.402   5.365  17.061  0.4818  2.3915  1.2630
14785TIP3    H265847   3.515   5.455  17.016  2.2707 -0.9024 -1.0700
14786TIP3   OH265848   0.706   1.924  13.549 -0.0015 -0.4279 -0.6330
14786TIP3    H165849   0.707   1.829  13.539  0.2596 -0.4963  0.0059
14786TIP3    H265850   0.787   1.953  13.506  1.3780 -0.7680  1.6297
14787TIP3   OH265851   4.307   1.819  12.672  0.1088 -0.2056 -0.9048
14787TIP3    H165852   4.288   1.754  12.604  0.5868  1.1191 -2.3233
14787TIP3    H265853   4.319   1.901  12.624  0.7156  0.6927  0.7598
14788TIP3   OH265854   1.274   0.922   3.812 -0.4693  0.7956  0.4741
14788TIP3    H165855   1.193   0.892   3.853 -0.0408 -0.4304  0.4399
14788TIP3    H265856   1.308   0.989   3.872 -1.6232  1.4896  0.3688
14789TIP3   OH265857   0.631   1.222   1.820  0.5919  0.5904  0.1512
14789TIP3    H165858   0.656   1.193   1.908  0.3729 -0.8075 -0.2203
14789TIP3    H265859   0.548   1.268   1.833  2.0894  3.1395  1.0699
14790TIP3   OH265860   4.176   6.727  16.024 -0.3529 -0.0916 -0.0831
14790TIP3    H165861   4.124   6.797  15.984  0.4824  1.5342  1.5910
14790TIP3    H265862   4.116   6.683  16.084 -0.4928  0.0944 -0.0865
14791TIP3   OH265863   4.160   2.894  14.163  0.2956  0.4393 -0.7347
14791TIP3    H165864   4.230   2.959  14.161 -1.3912  2.3226 -0.0999
14791TIP3    H265865   4.080   2.944  14.152 -1.2856 -1.1628  2.6604
14792TIP3   OH265866   5.395   0.609  16.852 -0.5547  0.4813 -0.9020
14792TIP3    H165867   5.397   0.553  16.774 -2.2622  1.1998 -1.4868
14792TIP3    H265868   5.484   0.643  16.859  0.0852 -1.0254 -1.4720
14793TIP3   OH265869   6.082   1.205  17.214  0.6327  0.2917  0.1216
14793TIP3    H165870   6.087   1.158  17.298 -0.7728  1.8731  1.1249
14793TIP3    H265871   6.122   1.290  17.233  0.2844  0.6704 -0.8294
14794TIP3   OH265872   3.883   2.066  12.174  0.1983 -0.0547 -0.6447
14794TIP3    H165873   3.788   2.076  12.161 -0.0511  0.4070  1.3526
14794TIP3    H265874   3.922   2.129  12.113 -0.9649  3.0959  1.7128
14795TIP3   OH265875   4.916   2.306  15.654 -0.4695 -0.5237 -0.8894
14795TIP3    H165876   4.908   2.400  15.639 -1.2379 -0.8085 -2.3285
14795TIP3    H265877   5.008   2.293  15.676 -0.8448  0.8673  1.6353
14796TIP3   OH265878   2.572   4.664  11.030  0.3623  0.4532 -0.1548
14796TIP3    H165879   2.489   4.651  10.983  0.5972  0.5329 -0.5916
14796TIP3    H265880   2.549   4.651  11.122 -0.5508  2.4269 -0.0834
14797TIP3   OH265881   0.341   4.937   1.774 -0.2075 -0.2967 -0.3619
14797TIP3    H165882   0.348   4.982   1.859 -0.9422 -2.2133  0.7277
14797TIP3    H265883   0.249   4.914   1.767 -0.0354 -0.6534 -1.4282
14798TIP3   OH265884   5.314   3.810  16.186  0.5827  0.3157  0.2144
14798TIP3    H165885   5.366   3.729  16.185  0.8698  0.5001 -1.4927
14798TIP3    H265886   5.349   3.860  16.259  0.5586 -0.9976  1.1443
14799TIP3   OH265887   6.042   4.173   5.688  0.3977  0.0431  0.1077
14799TIP3    H165888   5.947   4.172   5.678  0.5955  1.1610 -2.0435
14799TIP3    H265889   6.059   4.108   5.757 -1.8451 -0.6805  0.0280
14800TIP3   OH265890   2.978   0.733  12.030  0.0489 -0.3389  0.4375
14800TIP3    H165891   3.063   0.765  12.060 -0.5018  0.5067  1.1165
14800TIP3    H265892   2.915   0.792  12.070 -0.7822 -0.0321 -1.2686
14801TIP3   OH265893   3.559   2.845  14.359  0.4599 -0.1452  0.2394
14801TIP3    H165894   3.648   2.879  14.367 -0.1526  1.4645  0.2839
14801TIP3    H265895   3.532   2.870  14.270 -0.0311 -0.4300  0.3074
14802TIP3   OH265896   5.432   5.386  13.196 -0.2864 -0.4733 -0.6526
14802TIP3    H165897   5.441   5.314  13.134 -0.3679 -1.2893  0.2896
14802TIP3    H265898   5.507   5.378  13.254 -1.6572 -1.3498  1.0453
14803TIP3   OH265899   0.986   6.381  16.132 -0.3829 -0.4719 -0.0982
14803TIP3    H165900   0.916   6.332  16.176  1.7834 -3.6972 -0.0633
14803TIP3    H265901   1.011   6.325  16.059  0.7740  1.6133 -1.3233
14804TIP3   OH265902   1.655   5.017   2.460 -0.4998  0.2523  0.8105
14804TIP3    H165903   1.572   4.981   2.426 -0.6227 -0.5411  1.9325
14804TIP3    H265904   1.636   5.110   2.474 -0.8122  0.3422 -0.1462
14805TIP3   OH265905   3.575   4.922   4.122  0.3917 -0.6021  0.7596
14805TIP3    H165906   3.639   4.855   4.148 -1.0174 -2.6526 -0.9049
14805TIP3    H265907   3.491   4.889   4.156 -0.4805 -0.2496 -1.0144
14806TIP3   OH265908   0.365   6.281   6.152  0.0435  0.3355  0.5393
14806TIP3    H165909   0.434   6.297   6.216 -0.4927 -1.7832  1.7149
14806TIP3    H265910   0.399   6.211   6.097 -0.0648  1.1900 -0.6247
14807TIP3   OH265911   5.115   0.812   3.406  0.3417 -0.8616 -0.4259
14807TIP3    H165912   5.122   0.863   3.325  0.6830 -1.2308 -0.6335
14807TIP3    H265913   5.109   0.721   3.376  1.9753 -1.1372  0.0034
14808TIP3   OH265914   5.646   4.586   2.104 -0.3632  0.5575  0.1095
14808TIP3    H165915   5.557   4.565   2.076 -0.8325  0.7706  1.4454
14808TIP3    H265916   5.640   4.599   2.198  0.9639  1.2312  0.1129
14809TIP3   OH265917   2.650   4.328  16.070  0.0819 -0.0032  0.4381
14809TIP3    H165918   2.698   4.250  16.042  0.4721 -0.1135  1.3873
14809TIP3    H265919   2.702   4.401  16.036 -0.2066 -0.1505 -0.3271
14810TIP3   OH265920   6.820   5.507  16.560 -0.2612  0.0539 -0.6598
14810TIP3    H165921   6.761   5.486  16.632 -0.4786 -0.0109 -0.8590
14810TIP3    H265922   6.854   5.422  16.530 -1.7096 -0.0985 -1.9496
14811TIP3   OH265923   0.565   1.490  14.102 -0.7240 -1.1366  0.0433
14811TIP3    H165924   0.494   1.493  14.038 -0.6833 -0.3484  0.0321
14811TIP3    H265925   0.589   1.582  14.115  1.2739 -1.4678 -1.0459
14812TIP3   OH265926   2.498   2.360  15.928 -0.0070  0.0035 -0.3805
14812TIP3    H165927   2.528   2.310  16.004 -0.4804  1.8641  1.0777
14812TIP3    H265928   2.556   2.436  15.924 -3.4908  2.9243  1.6421
14813TIP3   OH265929   3.955   3.151  13.622 -0.5753 -0.3231 -0.0250
14813TIP3    H165930   3.884   3.199  13.665  0.7072  0.0475  1.7347
14813TIP3    H265931   4.006   3.219  13.578 -0.7240 -0.4769 -0.4407
14814TIP3   OH265932   3.879   5.119   5.963 -0.4258  0.1563  0.0141
14814TIP3    H165933   3.871   5.035   6.008 -0.4324  1.1892  1.9710
14814TIP3    H265934   3.947   5.166   6.011 -1.7791  2.0315  0.1526
14815TIP3   OH265935   6.722   4.261   4.226  0.1573  0.0885  0.3833
14815TIP3    H165936   6.741   4.184   4.172  0.0866 -1.0978  2.0256
14815TIP3    H265937   6.628   4.255   4.245 -0.0996  1.2330 -0.4635
14816TIP3   OH265938   0.913   6.467   0.625 -0.4900 -0.4819 -0.0772
14816TIP3    H165939   0.857   6.443   0.698 -0.1482 -2.1252 -0.3433
14816TIP3    H265940   0.869   6.430   0.548 -1.2421  1.8740 -0.8144
14817TIP3   OH265941   1.903   1.692   5.310  0.2359  0.2311  0.7140
14817TIP3    H165942   1.891   1.618   5.369 -1.0344  0.4199  0.7084
14817TIP3    H265943   1.892   1.769   5.366  0.7198  0.4099  0.5617
14818TIP3   OH265944   2.048   1.951  13.858 -0.2125 -0.0069  0.2896
14818TIP3    H165945   1.988   2.024  13.840 -1.4167 -1.3631 -1.3703
14818TIP3    H265946   2.106   1.949  13.782 -0.0661 -0.6633  0.4144
14819TIP3   OH265947   2.021   3.614   5.410 -0.1798  0.8795 -0.1317
14819TIP3    H165948   1.991   3.589   5.498 -0.6441  1.3050 -0.1671
14819TIP3    H265949   1.950   3.587   5.352  0.3672  0.0968 -0.4427
14820TIP3   OH265950   0.586   4.241   0.905 -0.6178 -0.1530 -0.0114
14820TIP3    H165951   0.550   4.245   0.816  0.0500  0.9956 -0.2366
14820TIP3    H265952   0.656   4.306   0.906 -1.0446  0.3208  1.5546
14821TIP3   OH265953   1.864   5.661   6.147 -0.3906 -0.2174 -0.5521
14821TIP3    H165954   1.863   5.648   6.052  0.9429 -2.1240 -0.3455
14821TIP3    H265955   1.817   5.584   6.182  0.6025 -0.4069  0.3967
14822TIP3   OH265956   6.340   1.391   4.649 -0.2679  0.4860  0.1158
14822TIP3    H165957   6.276   1.418   4.715  0.1163  1.3172  0.1575
14822TIP3    H265958   6.327   1.451   4.576  1.3121  1.5036  0.6338
14823TIP3   OH265959   1.461   2.998  15.266  0.1892  0.0906  0.5650
14823TIP3    H165960   1.547   3.040  15.267 -0.1627  0.8694 -0.9093
14823TIP3    H265961   1.442   2.980  15.359  2.1860 -0.6291  0.8542
14824TIP3   OH265962   5.319   5.726  15.339  0.3290  0.1513 -0.0552
14824TIP3    H165963   5.348   5.802  15.390  0.2024 -0.9524  1.7241
14824TIP3    H265964   5.225   5.719  15.358  0.2042 -0.0766 -0.7311
14825TIP3   OH265965   1.450   4.347  11.928 -0.4520 -0.1326 -0.1111
14825TIP3    H165966   1.475   4.332  11.836 -1.1871 -2.3811  0.0386
14825TIP3    H265967   1.428   4.440  11.931  0.5757  0.2051 -1.9778
14826TIP3   OH265968   4.364   1.495   1.820  0.7581  0.6273 -0.1907
14826TIP3    H165969   4.404   1.506   1.734  3.2734  1.9102  1.0852
14826TIP3    H265970   4.419   1.431   1.865 -1.3196 -1.0687  0.0197
14827TIP3   OH265971   4.214   0.145  17.012 -0.5708  0.0489  0.5034
14827TIP3    H165972   4.254   0.155  17.098 -0.4501  2.2312  0.2231
14827TIP3    H265973   4.247   0.219  16.961 -1.2245 -0.8020 -1.1902
14828TIP3   OH265974   6.284   1.748  12.337  0.8551 -0.4033 -0.3929
14828TIP3    H165975   6.253   1.737  12.247  0.0485 -3.2668  0.1738
14828TIP3    H265976   6.206   1.776  12.386  0.6126 -1.5314 -0.1106
14829TIP3   OH265977   4.542   0.453   0.917  0.2364 -0.0078 -0.1406
14829TIP3    H165978   4.584   0.410   0.843 -2.0105  0.7949 -1.9456
14829TIP3    H265979   4.502   0.382   0.968 -1.0036 -0.3180 -1.5246
14830TIP3   OH265980   6.184   1.472  17.251  0.2097 -0.0984  0.4786
14830TIP3    H165981   6.252   1.454  17.317  2.0818 -0.2281 -1.4202
14830TIP3    H265982   6.230   1.521  17.183 -1.9230  0.8574 -0.2814
14831TIP3   OH265983   0.918   1.759  14.310  0.0731  0.2486  0.4972
14831TIP3    H165984   0.866   1.689  14.269 -1.6280  1.9115 -0.2650
14831TIP3    H265985   0.988   1.776  14.248  1.6763 -2.0960  1.5797
14832TIP3   OH265986   6.535   3.932   0.100  0.3849 -0.8214 -0.2804
14832TIP3    H165987   6.551   4.025   0.084  0.1188 -0.8468 -0.6960
14832TIP3    H265988   6.488   3.902   0.022  2.3854 -1.7925 -1.1489
14833TIP3   OH265989   3.880   0.151  13.561  0.0176 -0.1526  0.1504
14833TIP3    H165990   3.954   0.112  13.514  0.0862 -2.2777  1.9483
14833TIP3    H265991   3.845   0.079  13.615 -1.1414  1.7458  1.9999
14834TIP3   OH265992   3.645   1.163  11.959  0.6222 -0.3687 -0.6043
14834TIP3    H165993   3.637   1.085  11.904 -1.7518  0.4462 -1.4790
14834TIP3    H265994   3.630   1.132  12.048  1.0615 -1.1318 -0.7935
14835TIP3   OH265995   2.706   0.666  11.932  0.4280 -0.7694  0.1046
14835TIP3    H165996   2.751   0.623  11.860 -1.0343  1.2967 -2.1269
14835TIP3    H265997   2.760   0.744  11.950  0.9745 -1.4613  1.4833
14836TIP3   OH265998   6.753   4.853  12.507  0.1593 -0.0590 -0.2256
14836TIP3    H165999   6.663   4.830  12.485 -0.3302  1.3827  0.1964
14836TIP3    H266000   6.774   4.798  12.582  0.1200 -1.4076 -1.1921
14837TIP3   OH266001   2.184   0.824   5.529  0.0583  0.2948 -0.3149
14837TIP3    H166002   2.241   0.773   5.586 -0.5583 -0.0121  0.0280
14837TIP3    H266003   2.243   0.858   5.461  0.2587 -1.9535 -1.3085
14838TIP3   OH266004   0.224   4.846  13.575  0.0104  0.2497  0.2327
14838TIP3    H166005   0.150   4.811  13.525 -0.1749 -0.6350  1.1355
14838TIP3    H266006   0.265   4.770  13.615  1.1301  0.7875  0.1287
14839TIP3   OH266007   0.167   5.722  14.289 -0.0728  0.0738  0.1000
14839TIP3    H166008   0.085   5.731  14.336 -0.0639 -0.9458  0.3298
14839TIP3    H266009   0.235   5.736  14.355 -0.0629 -0.4990  0.2150
14840TIP3   OH266010   3.562   0.037   3.912 -0.4923  0.0048 -0.1654
14840TIP3    H166011   3.632   0.093   3.879 -0.7154  0.1871 -0.3307
14840TIP3    H266012   3.591   0.012   4.000 -1.3640  2.1170  0.7732
14841TIP3   OH266013   0.906   0.498   2.617 -0.3325  0.0303  0.6052
14841TIP3    H166014   0.900   0.591   2.637 -0.9960  0.0043  0.5174
14841TIP3    H266015   1.001   0.480   2.617 -0.1786  0.8206  0.0826
14842TIP3   OH266016   6.037   2.861   4.795 -0.4201 -0.0734 -0.5904
14842TIP3    H166017   5.991   2.894   4.719  0.4118  1.6033 -0.3860
14842TIP3    H266018   5.968   2.827   4.852 -1.1359 -0.2896 -1.5712
14843TIP3   OH266019   4.472   1.711   0.116 -0.2587 -0.1734  0.4036
14843TIP3    H166020   4.522   1.703   0.197  0.8459 -0.9034 -0.3291
14843TIP3    H266021   4.470   1.622   0.081 -0.9456  0.0923 -0.2434
14844TIP3   OH266022   5.728   5.743  16.213 -0.3105 -0.3295  0.4009
14844TIP3    H166023   5.804   5.722  16.159  0.5733 -0.6082  1.7165
14844TIP3    H266024   5.753   5.715  16.301 -2.1503 -0.9349  0.7628
14845TIP3   OH266025   1.670   0.563   3.962 -0.2327 -0.9108 -0.2182
14845TIP3    H166026   1.669   0.519   3.877  0.0657  0.8360 -1.1651
14845TIP3    H266027   1.577   0.572   3.985 -0.4299  1.0006 -1.6728
14846TIP3   OH266028   6.607   3.947   3.867 -0.2820 -0.1999 -0.2271
14846TIP3    H166029   6.542   3.877   3.872 -0.9564  0.3453 -1.2138
14846TIP3    H266030   6.556   4.028   3.868  0.5839  0.3544  2.4766
14847TIP3   OH266031   6.510   4.706   6.761  0.3488  0.6910  0.4742
14847TIP3    H166032   6.531   4.671   6.675  1.6058  0.4527  0.8604
14847TIP3    H266033   6.522   4.801   6.752  1.4600  0.5709  0.6471
14848TIP3   OH266034   2.244   0.701   4.543 -0.5270  0.6106  0.0793
14848TIP3    H166035   2.223   0.721   4.634  1.1222  1.6047  0.2551
14848TIP3    H266036   2.160   0.710   4.497 -1.1848  1.0169  1.3323
14849TIP3   OH266037   5.251   3.523   3.142 -0.1127 -0.7137 -0.5651
14849TIP3    H166038   5.172   3.510   3.090  0.1804  1.0822 -1.4913
14849TIP3    H266039   5.323   3.513   3.080  0.3540 -1.2820  0.0589
14850TIP3   OH266040   5.776   3.674  11.797  0.4247  0.3650  0.0939
14850TIP3    H166041   5.747   3.665  11.706  1.4190  0.9410 -0.2810
14850TIP3    H266042   5.728   3.606  11.844 -0.8995  0.7369 -0.6732
14851TIP3   OH266043   6.161   5.817  16.490  0.6948  0.0813  0.1401
14851TIP3    H166044   6.223   5.837  16.419  0.3792 -0.1481 -0.2046
14851TIP3    H266045   6.084   5.870  16.468  0.0172 -1.1583 -0.5311
14852TIP3   OH266046   1.293   4.264   2.464  0.0355 -0.0376  0.4478
14852TIP3    H166047   1.320   4.227   2.548 -1.3427  0.7027  1.2349
14852TIP3    H266048   1.208   4.223   2.446  1.4521 -2.1055 -1.8465
14853TIP3   OH266049   2.154   5.954  14.025  0.2403  0.0701  0.1202
14853TIP3    H166050   2.084   6.005  13.984  0.0323 -0.2565  0.0697
14853TIP3    H266051   2.122   5.938  14.114  0.0910 -0.3924 -0.0158
14854TIP3   OH266052   1.304   2.994  12.936 -0.5377  0.3722 -0.1965
14854TIP3    H166053   1.365   3.063  12.912 -0.3212 -0.6816 -2.8653
14854TIP3    H266054   1.237   2.996  12.868 -2.8593  0.7096  2.0174
14855TIP3   OH266055   0.351   6.101   0.473  0.1492  0.1516 -0.1281
14855TIP3    H166056   0.335   6.188   0.509  1.9114 -0.0213  1.1405
14855TIP3    H266057   0.417   6.114   0.405  0.7358 -0.2176  0.3530
14856TIP3   OH266058   2.915   0.351  13.510  0.1917  0.6211 -0.7100
14856TIP3    H166059   3.002   0.385  13.531  0.7799 -0.5814 -1.1782
14856TIP3    H266060   2.903   0.373  13.417  1.4836 -2.2981 -1.6356
14857TIP3   OH266061   0.211   2.482  12.145 -0.0182  0.2194 -0.1498
14857TIP3    H166062   0.137   2.536  12.173  1.0802  1.3165  0.6979
14857TIP3    H266063   0.183   2.392  12.162 -1.6660  0.5397 -1.0889
14858TIP3   OH266064   2.643   3.058   4.519  0.0332 -0.3874 -0.8365
14858TIP3    H166065   2.676   2.977   4.481 -0.6073 -0.7924 -0.5200
14858TIP3    H266066   2.616   3.035   4.608 -0.3745  0.1169 -0.8259
14859TIP3   OH266067   2.510   5.442  15.119  0.4247 -0.0379 -0.3132
14859TIP3    H166068   2.451   5.393  15.061  0.1182 -0.0814  0.0366
14859TIP3    H266069   2.468   5.528  15.128 -0.4087 -0.5941  1.2210
14860TIP3   OH266070   4.061   5.998   2.157 -0.0137 -0.0995  0.4120
14860TIP3    H166071   3.976   5.971   2.122  0.5342 -1.0581 -0.2047
14860TIP3    H266072   4.125   5.941   2.113  0.9095  0.3301  1.1649
14861TIP3   OH266073   6.616   6.780  13.363  1.0589 -0.0438  0.5564
14861TIP3    H166074   6.535   6.735  13.338  0.5800  0.3022  1.4715
14861TIP3    H266075   6.654   6.725  13.431  0.3608  1.0367  1.8352
14862TIP3   OH266076   2.439   2.593   5.075  0.2861  0.6771  0.1793
14862TIP3    H166077   2.482   2.565   5.155 -0.4374  0.2403  0.4164
14862TIP3    H266078   2.394   2.515   5.043 -0.9156  1.3000  0.3115
14863TIP3   OH266079   1.769   5.449  13.601 -0.3038  0.1047  0.5115
14863TIP3    H166080   1.829   5.384  13.565 -1.5833 -0.4014 -0.7617
14863TIP3    H266081   1.682   5.413  13.584 -1.0286  2.2089 -0.3058
14864TIP3   OH266082   5.844   2.113  13.776  0.3561  0.0417  0.5266
14864TIP3    H166083   5.887   2.028  13.789 -0.3648 -0.2361  1.1230
14864TIP3    H266084   5.754   2.091  13.755  0.2724  0.6559  0.2436
14865TIP3   OH266085   3.094   1.036   3.975 -0.3210 -0.0783  0.3067
14865TIP3    H166086   3.023   0.975   3.992  1.3822 -2.0274  0.6502
14865TIP3    H266087   3.082   1.105   4.040 -2.2259 -0.0506 -0.0398
14866TIP3   OH266088   0.446   2.588   2.277  0.3589 -0.5900 -0.2045
14866TIP3    H166089   0.492   2.598   2.194 -0.6931 -0.6717 -0.8073
14866TIP3    H266090   0.367   2.642   2.267 -0.2826 -1.4199  0.3414
14867TIP3   OH266091   0.419   4.190  13.855 -0.4703  0.3787  0.2702
14867TIP3    H166092   0.353   4.125  13.880 -0.9989  0.6601 -0.3739
14867TIP3    H266093   0.372   4.273  13.853 -0.2877  0.4678 -0.9540
14868TIP3   OH266094   0.679   4.469  14.003  0.5387 -0.7204 -0.1852
14868TIP3    H166095   0.667   4.564  14.002  1.2661 -0.6222  0.1353
14868TIP3    H266096   0.772   4.457  14.024  1.0360 -1.4694 -2.7252
14869TIP3   OH266097   6.203   6.679  13.837 -0.1904 -0.7322  0.3452
14869TIP3    H166098   6.272   6.649  13.897 -1.5141 -3.0766  0.7641
14869TIP3    H266099   6.233   6.652  13.751  0.7238  0.7838  0.1625
14870TIP3   OH266100   6.150   2.188   4.989 -0.5123 -0.0871  0.7474
14870TIP3    H166101   6.080   2.153   5.044 -1.5788 -0.4601 -0.8161
14870TIP3    H266102   6.177   2.269   5.032  0.3350 -1.5854  3.0978
14871TIP3   OH266103   4.127   1.121   1.439 -0.3696  0.7459  0.4371
14871TIP3    H166104   4.151   1.154   1.525  1.5897  0.6558 -0.0480
14871TIP3    H266105   4.053   1.063   1.454  1.7271 -1.4863  2.4329
14872TIP3   OH266106   2.906   1.230   0.224  0.4838 -0.3143 -0.4833
14872TIP3    H166107   2.884   1.285   0.299  0.5746 -0.7926 -0.1005
14872TIP3    H266108   2.843   1.158   0.227 -0.2021  0.2237 -1.4942
14873TIP3   OH266109   0.792   5.038   4.872  0.5258 -0.1800 -0.7828
14873TIP3    H166110   0.708   4.992   4.871  0.3097  0.2288 -1.3837
14873TIP3    H266111   0.772   5.125   4.840  0.6460  0.8625  1.8114
14874TIP3   OH266112   5.457   3.488  14.503  0.0486 -0.2148 -0.2573
14874TIP3    H166113   5.401   3.415  14.529 -0.9413 -0.0727 -1.8971
14874TIP3    H266114   5.528   3.448  14.452  0.9628 -0.3029  1.0760
14875TIP3   OH266115   2.400   2.206  16.972  0.3695 -0.3709  0.2999
14875TIP3    H166116   2.348   2.286  16.981  1.6132  0.4750  0.0311
14875TIP3    H266117   2.490   2.235  16.984  0.9606 -1.4483 -1.4958
14876TIP3   OH266118   2.587   1.619   2.689  0.1115  0.0521  0.8084
14876TIP3    H166119   2.633   1.602   2.607 -1.2729  4.0718 -0.9356
14876TIP3    H266120   2.630   1.697   2.725 -0.6454 -0.4288  2.8670
14877TIP3   OH266121   2.679   0.269   3.882  0.0812 -0.0720  0.6010
14877TIP3    H166122   2.626   0.269   3.962 -0.8016 -0.3497  0.0227
14877TIP3    H266123   2.689   0.177   3.860 -0.9637  0.0540 -0.4450
14878TIP3   OH266124   4.663   5.283  11.702  0.1634  0.1292 -0.5132
14878TIP3    H166125   4.684   5.189  11.701 -0.1555  0.0515  0.2602
14878TIP3    H266126   4.602   5.293  11.775  1.2595  1.1740  0.2728
14879TIP3   OH266127   2.239   3.397  17.012  0.8888  0.2434 -0.0238
14879TIP3    H166128   2.145   3.378  17.020  0.8116  0.3440 -0.6701
14879TIP3    H266129   2.262   3.370  16.924  1.6884 -0.6661  0.4519
14880TIP3   OH266130   6.594   5.878   3.605  0.1000  0.4763 -0.1786
14880TIP3    H166131   6.526   5.847   3.665 -0.8127  2.8190  0.0523
14880TIP3    H266132   6.557   5.864   3.518 -0.7701  1.9521 -0.0457
14881TIP3   OH266133   5.549   3.234  11.062 -0.6291  0.5439 -0.9427
14881TIP3    H166134   5.522   3.270  11.146 -0.4012 -0.9012 -0.2474
14881TIP3    H266135   5.505   3.289  10.997  0.5619  2.7757  0.0735
14882TIP3   OH266136   4.318   2.508   1.935  0.0295 -0.3179 -0.3507
14882TIP3    H166137   4.317   2.449   1.860 -1.1758 -0.8589  0.0799
14882TIP3    H266138   4.314   2.450   2.011 -2.0386  0.3280  0.0605
14883TIP3   OH266139   1.769   2.801   0.083 -0.6061 -0.1379 -0.2393
14883TIP3    H166140   1.700   2.855   0.044  1.1173  1.8626 -0.6661
14883TIP3    H266141   1.834   2.793   0.013  0.2357 -0.7751  0.6108
14884TIP3   OH266142   4.052   3.933   1.805 -0.3819 -0.3630 -0.1665
14884TIP3    H166143   3.963   3.942   1.773 -0.3289 -1.6661 -0.7210
14884TIP3    H266144   4.043   3.920   1.899 -0.8979 -2.1540 -0.4383
14885TIP3   OH266145   4.096   4.025  16.628 -0.4625 -0.0915 -0.2319
14885TIP3    H166146   4.072   3.934  16.642  0.3933  0.0277  2.1218
14885TIP3    H266147   4.090   4.037  16.533 -1.3268 -2.3687 -0.4882
14886TIP3   OH266148   5.505   4.696  13.997  0.4878 -0.2901  0.1428
14886TIP3    H166149   5.410   4.707  13.993  0.7534  1.7312 -1.5331
14886TIP3    H266150   5.538   4.752  13.926  3.0064 -0.0604  1.4646
14887TIP3   OH266151   1.481   0.992   4.667 -0.0069 -0.1861  0.1126
14887TIP3    H166152   1.479   1.041   4.749 -1.1321  0.0812 -0.0549
14887TIP3    H266153   1.451   0.904   4.690  1.3872 -0.6203  0.2978
14888TIP3   OH266154   6.622   2.553   1.185  0.1011 -0.1893 -1.1368
14888TIP3    H166155   6.702   2.512   1.151  1.2560  1.2434 -0.1904
14888TIP3    H266156   6.620   2.526   1.277  0.3384  1.0411 -0.7631
14889TIP3   OH266157   6.437   3.798  15.913  0.4969 -0.3791 -0.3843
14889TIP3    H166158   6.517   3.794  15.966  1.4470 -0.0667 -1.7822
14889TIP3    H266159   6.419   3.706  15.892  0.7445 -0.4095 -0.4649
14890TIP3   OH266160   3.284   6.534   2.917  0.8001 -0.6105 -0.4994
14890TIP3    H166161   3.224   6.469   2.881  0.3240  0.0197 -0.8367
14890TIP3    H266162   3.298   6.506   3.008  0.3743 -1.0209 -0.5595
14891TIP3   OH266163   6.636   0.586  12.679 -0.3169  0.5510  0.2102
14891TIP3    H166164   6.686   0.563  12.758 -0.8738 -0.5705  0.2488
14891TIP3    H266165   6.555   0.624  12.713 -1.2453 -1.3693  0.2346
14892TIP3   OH266166   1.968   5.190   2.878  0.0366  0.6375  0.3994
14892TIP3    H166167   1.919   5.225   2.953  0.1647 -0.3190  0.9490
14892TIP3    H266168   1.904   5.183   2.808 -0.7136 -0.8922  1.2071
14893TIP3   OH266169   1.843   5.522   0.006 -0.0225 -0.5469  0.6341
14893TIP3    H166170   1.812   5.609   0.031 -0.8037 -0.3357 -0.9639
14893TIP3    H266171   1.923   5.509   0.057 -0.7709  0.4415  2.0671
14894TIP3   OH266172   4.757   3.745  12.417 -0.5626 -0.2948  0.2984
14894TIP3    H166173   4.826   3.680  12.409  2.7165  3.0344  0.3608
14894TIP3    H266174   4.737   3.771  12.327  1.4836  1.8978  0.4272
14895TIP3   OH266175   1.625   1.515   1.912  0.1361 -0.1646  0.6871
14895TIP3    H166176   1.583   1.572   1.848 -1.5588 -1.0394  0.9901
14895TIP3    H266177   1.719   1.527   1.898 -0.2148  1.6500 -0.1582
14896TIP3   OH266178   1.416   2.854  13.262  0.1350  0.2893 -0.1225
14896TIP3    H166179   1.328   2.892  13.253  0.2840  0.4287 -1.0598
14896TIP3    H266180   1.428   2.802  13.182  0.4766 -0.6119  0.5183
14897TIP3   OH266181   6.010   2.564  13.714  0.2146  0.1856  0.5774
14897TIP3    H166182   6.066   2.626  13.667  0.8928 -0.6349  0.2938
14897TIP3    H266183   6.051   2.554  13.799  1.1524 -1.2871 -0.0293
14898TIP3   OH266184   1.163   2.478  12.507 -0.2251 -0.5023 -0.2584
14898TIP3    H166185   1.083   2.518  12.540  0.3279  1.2027 -0.9089
14898TIP3    H266186   1.234   2.521  12.555  0.3660 -0.8510 -0.8013
14899TIP3   OH266187   2.970   4.239  16.226 -0.2942 -0.8215 -0.0924
14899TIP3    H166188   2.880   4.210  16.213 -0.1677 -0.3415 -2.1948
14899TIP3    H266189   3.021   4.190  16.162  0.8277 -0.4896  0.5319
14900TIP3   OH266190   4.696   1.227   4.104  0.3767 -0.4198  0.1026
14900TIP3    H166191   4.752   1.239   4.028 -0.2987 -1.5761 -0.5971
14900TIP3    H266192   4.756   1.201   4.174  0.9855  0.5433 -0.0490
14901TIP3   OH266193   4.953   4.385   0.943 -0.4436 -0.1519  0.7898
14901TIP3    H166194   4.952   4.382   1.039  2.8454 -0.7778  0.8496
14901TIP3    H266195   4.959   4.478   0.922 -0.4949 -0.0533  1.2166
14902TIP3   OH266196   0.801   2.487   0.712 -1.3304 -0.5204  0.3203
14902TIP3    H166197   0.720   2.439   0.731 -1.5591 -0.6526 -0.9385
14902TIP3    H266198   0.773   2.562   0.660 -0.7968  0.1675  1.0296
14903TIP3   OH266199   0.847   1.832  15.826 -0.2668 -0.0201  0.3197
14903TIP3    H166200   0.799   1.752  15.849 -0.2221 -0.4934 -1.1268
14903TIP3    H266201   0.846   1.832  15.730  0.3483  1.3543  0.3133
14904TIP3   OH266202   6.477   4.270  15.492  0.4644 -0.5617  0.0318
14904TIP3    H166203   6.504   4.186  15.455  1.8947  0.7354 -1.9619
14904TIP3    H266204   6.532   4.281  15.569  1.0698 -0.9443 -0.3453
14905TIP3   OH266205   2.037   2.021  14.979 -0.0930 -0.1343 -0.6495
14905TIP3    H166206   2.093   2.097  14.994  0.5879 -0.5685 -0.9322
14905TIP3    H266207   1.963   2.055  14.930 -0.0750  0.4492 -0.2817
14906TIP3   OH266208   3.824   3.932  11.599 -1.0729  0.1527 -0.2579
14906TIP3    H166209   3.853   3.889  11.518 -1.1663  1.1523 -0.8369
14906TIP3    H266210   3.731   3.911  11.605 -0.8641 -0.7085  0.0993
14907TIP3   OH266211   4.925   1.663   2.950 -0.4487  0.0590  0.3407
14907TIP3    H166212   4.948   1.752   2.924  0.6969  0.1527  1.6425
14907TIP3    H266213   5.005   1.612   2.941 -1.2737 -1.0485 -1.1339
14908TIP3   OH266214   2.670   2.885   1.016 -0.0967 -0.3300 -0.0793
14908TIP3    H166215   2.704   2.974   1.011 -0.8453  0.0282  1.1367
14908TIP3    H266216   2.737   2.832   0.972  0.8829  0.6805  0.1580
14909TIP3   OH266217   1.493   3.122   3.815  0.3442 -0.2853 -0.1493
14909TIP3    H166218   1.439   3.089   3.743  1.0515  0.5782 -1.0831
14909TIP3    H266219   1.430   3.140   3.886 -0.2015 -2.4233 -0.0504
14910TIP3   OH266220   0.804   0.765   2.124  0.1468  0.1155  0.1460
14910TIP3    H166221   0.718   0.774   2.084 -0.2106  0.8079  1.0524
14910TIP3    H266222   0.857   0.834   2.083 -0.5406  1.5803  1.7030
14911TIP3   OH266223   6.611   5.338  11.750  0.2575  0.4182 -0.5661
14911TIP3    H166224   6.592   5.431  11.743 -0.9556  0.2222  0.0092
14911TIP3    H266225   6.576   5.300  11.669 -0.8293  0.2166 -0.0105
14912TIP3   OH266226   0.909   3.720  16.936 -0.5214  0.8247 -0.1232
14912TIP3    H166227   0.815   3.703  16.935 -0.2221 -1.0035  0.9431
14912TIP3    H266228   0.945   3.654  16.995  1.6495  0.4317 -1.8357
14913TIP3   OH266229   3.058   4.413   0.825  0.4157  0.6155 -0.0965
14913TIP3    H166230   3.153   4.408   0.832  0.5111 -0.8396 -1.9972
14913TIP3    H266231   3.042   4.432   0.732 -1.0717  4.2369  0.7928
14914TIP3   OH266232   3.258   2.093   0.662 -0.1263  0.0940  0.3319
14914TIP3    H166233   3.247   2.127   0.573  1.2254  1.5053  0.6767
14914TIP3    H266234   3.189   2.135   0.712  0.7616  1.4004  0.4909
14915TIP3   OH266235   5.715   0.553  10.875  0.2891  0.2717  0.1497
14915TIP3    H166236   5.639   0.549  10.933  0.7738  1.9403  0.9333
14915TIP3    H266237   5.790   0.538  10.933  0.6723  0.4094 -0.3098
14916TIP3   OH266238   2.159   2.964  14.545 -0.1620  0.4144 -0.1484
14916TIP3    H166239   2.230   2.937  14.604 -2.0614 -1.2214  1.4529
14916TIP3    H266240   2.147   3.057  14.564  1.8945  0.8510 -0.8323
14917TIP3   OH266241   1.417   2.976  15.774 -0.1652  0.8219 -0.3114
14917TIP3    H166242   1.466   2.894  15.787 -1.0085  0.3962  0.1835
14917TIP3    H266243   1.355   2.956  15.705 -0.8861  0.8191  0.3341
14918TIP3   OH266244   4.591   3.639  14.249  0.1907 -0.0319 -0.5803
14918TIP3    H166245   4.518   3.586  14.283  0.2453  0.0454 -0.3428
14918TIP3    H266246   4.550   3.723  14.226  0.3579  0.3100  0.3488
14919TIP3   OH266247   2.741   1.218  16.784  0.6258 -0.0422  0.7671
14919TIP3    H166248   2.729   1.227  16.689 -1.5446  0.8860  1.0909
14919TIP3    H266249   2.774   1.129  16.796 -1.1176 -0.9157 -0.7113
14920TIP3   OH266250   4.692   4.865  15.449 -0.1184  0.4090  0.5214
14920TIP3    H166251   4.629   4.848  15.379  0.7700  2.8186 -0.9216
14920TIP3    H266252   4.675   4.955  15.476  1.0109  0.2294  1.9053
14921TIP3   OH266253   5.951   4.634  13.995  0.1942  0.9206 -0.0780
14921TIP3    H166254   6.031   4.653  14.044  0.8534  0.9408 -1.1560
14921TIP3    H266255   5.946   4.703  13.929 -0.0498  0.2080 -0.8143
14922TIP3   OH266256   2.110   5.192   4.763 -0.1936  0.2550  0.3483
14922TIP3    H166257   2.121   5.098   4.752  1.2312  0.5968 -1.3190
14922TIP3    H266258   2.079   5.222   4.678  0.4791  1.4650  0.5260
14923TIP3   OH266259   5.511   2.344   3.540  0.7561 -0.4085  0.3834
14923TIP3    H166260   5.479   2.405   3.473 -1.7651 -0.9081  1.0770
14923TIP3    H266261   5.448   2.352   3.611  3.5017  0.2506  2.8244
14924TIP3   OH266262   4.309   4.547  15.845 -0.3214  0.9295  0.0103
14924TIP3    H166263   4.268   4.631  15.827 -1.7234  0.5064  1.1498
14924TIP3    H266264   4.378   4.567  15.908 -0.7598  1.1922  0.4022
14925TIP3   OH266265   0.118   3.727   1.159  0.0681  0.8812 -0.4807
14925TIP3    H166266   0.080   3.793   1.100 -2.3563 -0.1777 -0.1823
14925TIP3    H266267   0.126   3.773   1.243  0.6247  1.4841 -0.8558
14926TIP3   OH266268   4.724   2.493   3.361  0.6179 -0.7058 -0.1087
14926TIP3    H166269   4.632   2.467   3.364  0.3056  0.4341  0.5065
14926TIP3    H266270   4.766   2.427   3.306 -0.7130 -0.7898 -1.0546
14927TIP3   OH266271   4.847   4.537  12.057  0.3785  0.5515 -0.5627
14927TIP3    H166272   4.935   4.551  12.023  0.7424  0.1532  0.2181
14927TIP3    H266273   4.823   4.449  12.026  0.7992  0.0955  0.3963
14928TIP3   OH266274   1.613   6.178   6.046  0.1391  0.1849 -0.5706
14928TIP3    H166275   1.600   6.103   6.104  1.1865  0.1401 -0.3829
14928TIP3    H266276   1.572   6.151   5.963  0.2198 -0.4656 -0.4043
14929TIP3   OH266277   4.076   3.790   5.834  0.3083  0.0973  0.1719
14929TIP3    H166278   4.147   3.794   5.898 -0.4549  0.5201  1.0070
14929TIP3    H266279   4.076   3.876   5.793  1.5163 -0.5403 -1.1987
14930TIP3   OH266280   0.738   0.303   4.226  0.2856  0.5733  0.0343
14930TIP3    H166281   0.730   0.358   4.305 -0.0020 -0.6361  0.8575
14930TIP3    H266282   0.816   0.336   4.182 -0.4683  2.3351 -0.0345
14931TIP3   OH266283   0.567   5.841   2.182 -0.2371  0.1653  0.2308
14931TIP3    H166284   0.507   5.882   2.245 -1.3898 -1.5513  0.2825
14931TIP3    H266285   0.558   5.747   2.199  0.2978 -0.2529 -1.7263
14932TIP3   OH266286   2.522   6.676   1.764  0.2511  0.5190 -0.0690
14932TIP3    H166287   2.489   6.728   1.690  0.8746  1.8428  0.5628
14932TIP3    H266288   2.579   6.611   1.723  0.4233  1.1100 -0.7897
14933TIP3   OH266289   1.477   0.090  13.744 -0.7034  0.6212  0.1420
14933TIP3    H166290   1.516   0.011  13.707  1.7250  0.2184  3.3282
14933TIP3    H266291   1.383   0.075  13.739 -0.3268 -1.4548 -1.3624
14934TIP3   OH266292   5.411   4.093  14.363 -0.2133  0.2776 -0.2102
14934TIP3    H166293   5.456   4.012  14.338 -0.1285  0.6047 -1.1253
14934TIP3    H266294   5.396   4.084  14.457  0.1831 -0.6127 -0.2308
14935TIP3   OH266295   4.771   2.543   0.101  0.4247  0.4535 -0.6210
14935TIP3    H166296   4.823   2.623   0.108  0.1908  0.5768 -0.2654
14935TIP3    H266297   4.835   2.472   0.106  0.7423  0.6269 -1.9853
14936TIP3   OH266298   2.656   1.977   1.817  0.2816 -0.2462 -0.0904
14936TIP3    H166299   2.564   1.956   1.832  0.2778  0.8727  1.6939
14936TIP3    H266300   2.704   1.915   1.871  0.5012  0.0532  0.0639
14937TIP3   OH266301   1.109   5.187  13.364  0.5916  0.1559 -0.6298
14937TIP3    H166302   1.040   5.182  13.430  0.4111  3.4079 -0.5114
14937TIP3    H266303   1.188   5.208  13.414  0.5883  1.9129 -1.3271
14938TIP3   OH266304   6.174   0.743  14.861  0.4583 -0.1944  0.6758
14938TIP3    H166305   6.139   0.821  14.819 -1.5448 -0.2859  2.1266
14938TIP3    H266306   6.151   0.672  14.801 -3.0282 -0.4186  2.2134
14939TIP3   OH266307   6.353   1.658  12.885  0.2982  0.4854 -0.3587
14939TIP3    H166308   6.279   1.717  12.870 -0.4920 -1.1697 -3.5838
14939TIP3    H266309   6.318   1.589  12.941  0.8431  2.2933  2.2741
14940TIP3   OH266310   1.416   2.660  13.071  0.4356  0.5488  0.3831
14940TIP3    H166311   1.369   2.608  13.007  0.4722  2.8242 -1.5591
14940TIP3    H266312   1.506   2.663  13.039  0.2449  2.5216 -0.0216
14941TIP3   OH266313   3.217   2.359  14.438  0.0055 -0.3847  0.1263
14941TIP3    H166314   3.288   2.338  14.499 -0.7027 -1.4577  0.5803
14941TIP3    H266315   3.241   2.315  14.357 -1.0256 -2.2313  0.8089
14942TIP3   OH266316   2.110   5.292  16.018  0.4364 -0.1813  0.5139
14942TIP3    H166317   2.064   5.212  16.042 -0.3455 -0.4352 -1.7357
14942TIP3    H266318   2.100   5.298  15.923  2.9335  1.0566  0.2719
14943TIP3   OH266319   5.671   4.381  15.748  0.7103 -0.1213 -0.8118
14943TIP3    H166320   5.620   4.369  15.829 -0.0525  1.3594 -1.0550
14943TIP3    H266321   5.628   4.454  15.703  0.7255 -1.3478 -2.8880
14944TIP3   OH266322   2.612   1.538   1.417  0.1758 -0.1343  0.2988
14944TIP3    H166323   2.635   1.630   1.406 -1.0755  0.2571  0.9477
14944TIP3    H266324   2.640   1.516   1.506  2.2325 -0.9151 -0.5158
14945TIP3   OH266325   4.383   0.634  12.379 -0.2610  0.1567 -0.1074
14945TIP3    H166326   4.369   0.648  12.286  1.0424  0.6748 -0.2381
14945TIP3    H266327   4.478   0.633  12.389 -0.3921  0.3485  1.2468
14946TIP3   OH266328   2.077   3.201   1.795  0.0231  0.5952  0.2224
14946TIP3    H166329   2.024   3.244   1.863 -0.9421  1.5643 -1.1158
14946TIP3    H266330   2.116   3.274   1.746 -0.9904 -0.0570 -1.5810
14947TIP3   OH266331   6.329   0.780  11.837  0.1777 -0.1125 -0.5270
14947TIP3    H166332   6.326   0.779  11.933  1.3743  0.5184 -0.4812
14947TIP3    H266333   6.272   0.708  11.811  1.2498 -1.4328  0.7003
14948TIP3   OH266334   0.707   4.950   1.417  0.0169  0.5419 -0.3968
14948TIP3    H166335   0.668   4.986   1.496 -1.8965 -0.5709 -0.7764
14948TIP3    H266336   0.669   5.002   1.346  0.4487  0.4751 -0.6773
14949TIP3   OH266337   4.144   4.481   4.440  0.0983 -0.4305  0.1919
14949TIP3    H166338   4.135   4.575   4.458 -0.1495 -0.2611 -0.7707
14949TIP3    H266339   4.057   4.445   4.456  0.5902 -0.7939  2.1834
14950TIP3   OH266340   5.607   0.027  11.641  0.0822 -0.0428 -0.3583
14950TIP3    H166341   5.606   0.014  11.546 -0.6067 -1.6886 -0.1455
14950TIP3    H266342   5.515   0.038  11.665  0.3081  1.0251  0.0389
14951TIP3   OH266343   6.355   3.372   1.308 -0.7235 -0.1252 -0.2565
14951TIP3    H166344   6.299   3.302   1.342 -1.3112  0.5324  0.1482
14951TIP3    H266345   6.304   3.410   1.236  0.0720 -0.8393 -1.2044
14952TIP3   OH266346   6.269   5.631  14.738 -0.0935 -0.1986 -0.0142
14952TIP3    H166347   6.272   5.585  14.654  0.8228 -2.8592  1.4222
14952TIP3    H266348   6.361   5.643  14.763 -0.3599 -0.1113  0.9612
14953TIP3   OH266349   4.915   2.227  11.428  0.3321  0.4452  0.2500
14953TIP3    H166350   4.998   2.184  11.446  1.0990  2.9561  3.0202
14953TIP3    H266351   4.849   2.169  11.467  0.6761 -1.6245 -2.0742
14954TIP3   OH266352   3.018   1.084  11.113  0.0529 -0.1694  0.9065
14954TIP3    H166353   3.098   1.133  11.095 -0.4548  0.3506  0.0788
14954TIP3    H266354   3.031   1.049  11.201  1.0482  0.1963  0.9082
14955TIP3   OH266355   0.868   2.740   3.982 -0.0612  0.3444 -0.0617
14955TIP3    H166356   0.899   2.747   3.892 -0.7181  0.0094 -0.3123
14955TIP3    H266357   0.939   2.777   4.035  1.4209 -1.7649 -0.5282
14956TIP3   OH266358   0.732   3.157   5.878  0.2770  0.1661 -0.3425
14956TIP3    H166359   0.756   3.100   5.951 -0.9911 -1.6951 -1.3130
14956TIP3    H266360   0.646   3.192   5.902  0.8150  1.2427  0.0117
14957TIP3   OH266361   4.361   1.960  15.666  0.1801 -0.6300 -0.0101
14957TIP3    H166362   4.422   1.937  15.736 -0.6321  0.5867  1.1039
14957TIP3    H266363   4.279   1.979  15.710 -0.6536 -0.9214 -1.3965
14958TIP3   OH266364   2.863   0.174  12.914  0.3052  0.2599 -0.2646
14958TIP3    H166365   2.826   0.110  12.975  1.3366  0.3581  0.4852
14958TIP3    H266366   2.954   0.147  12.904  0.7285  1.5652 -0.0013
14959TIP3   OH266367   1.682   3.839  12.003  0.9435 -0.4595  0.1210
14959TIP3    H166368   1.620   3.912  12.009  0.1759 -1.1520  0.8667
14959TIP3    H266369   1.742   3.863  11.933  1.5772  1.5579  1.3239
14960TIP3   OH266370   2.866   1.506  15.850 -0.0606  0.0957  0.3522
14960TIP3    H166371   2.913   1.452  15.786 -1.5310 -0.7321 -0.0725
14960TIP3    H266372   2.776   1.507  15.817 -1.0352 -1.0858  2.8878
14961TIP3   OH266373   5.589   0.140  15.405 -0.1233  0.1742 -0.2724
14961TIP3    H166374   5.557   0.220  15.364  1.3285 -0.8360 -3.5419
14961TIP3    H266375   5.684   0.146  15.399  0.0999 -0.6132  1.8786
14962TIP3   OH266376   0.220   1.752   0.131 -0.0205 -0.2593 -0.2085
14962TIP3    H166377   0.294   1.722   0.079 -0.7558  0.3704 -1.6515
14962TIP3    H266378   0.170   1.673   0.151 -0.6221 -0.3321 -1.8898
14963TIP3   OH266379   3.132   2.516  11.537  0.0090 -0.3761  0.3617
14963TIP3    H166380   3.124   2.432  11.582 -0.3186  0.2651  1.5346
14963TIP3    H266381   3.053   2.564  11.562  0.4243  0.4667  0.0862
14964TIP3   OH266382   5.635   0.340   1.591  0.1095  0.2659 -0.3091
14964TIP3    H166383   5.583   0.403   1.641  0.1316  0.2576 -0.2759
14964TIP3    H266384   5.570   0.281   1.553  0.0729  0.4479 -0.5312
14965TIP3   OH266385   5.839   4.765   4.795 -0.4996 -0.1889  0.2583
14965TIP3    H166386   5.898   4.827   4.838  1.3179 -2.4037  1.0352
14965TIP3    H266387   5.887   4.734   4.719 -1.1540 -1.0895  0.2023
14966TIP3   OH266388   6.721   4.709  12.185 -0.7334  0.4642 -0.4228
14966TIP3    H166389   6.685   4.759  12.258  0.5176  1.0782 -0.2105
14966TIP3    H266390   6.652   4.709  12.119 -2.6965 -1.8410  1.5186
14967TIP3   OH266391   0.670   0.710   4.783  0.0306 -0.3776 -0.5619
14967TIP3    H166392   0.663   0.804   4.797 -1.8374 -0.6278  0.3204
14967TIP3    H266393   0.755   0.687   4.821 -0.2832  0.6832  0.8494
14968TIP3   OH266394   4.599   2.669  16.602  0.1872 -1.1546  0.5005
14968TIP3    H166395   4.616   2.647  16.511 -1.4068  0.5136 -0.2204
14968TIP3    H266396   4.513   2.632  16.620  0.9348 -2.3729  1.6539
14969TIP3   OH266397   1.293   0.588  14.110  0.3949  0.0571  0.1594
14969TIP3    H166398   1.339   0.639  14.176  0.7049 -0.4383  0.3295
14969TIP3    H266399   1.347   0.510  14.097 -0.2581 -0.4071  0.1726
14970TIP3   OH266400   3.342   0.523   5.697  0.2990 -0.1301 -0.4328
14970TIP3    H166401   3.374   0.572   5.621  1.4578  0.3998  0.3845
14970TIP3    H266402   3.260   0.567   5.721 -0.1656 -0.4063 -1.4635
14971TIP3   OH266403   6.068   2.967   0.961 -0.4174 -0.1684 -0.0391
14971TIP3    H166404   6.123   3.032   1.005 -1.1663  0.0707  0.5617
14971TIP3    H266405   6.002   3.019   0.915 -0.0304 -0.4431 -0.9192
14972TIP3   OH266406   4.150   2.928  12.762 -0.2115 -0.0034  0.0575
14972TIP3    H166407   4.127   2.962  12.675 -2.0395 -0.1479  0.4555
14972TIP3    H266408   4.244   2.910  12.757 -0.1923  0.4829 -1.7217
14973TIP3   OH266409   3.671   1.430   2.459 -0.1203 -0.2356 -0.1849
14973TIP3    H166410   3.599   1.464   2.512 -1.0552 -1.7584 -0.4351
14973TIP3    H266411   3.633   1.356   2.412  1.0974  0.1707 -1.8526
14974TIP3   OH266412   2.165   1.620  12.019 -0.2058  0.4660  0.6016
14974TIP3    H166413   2.248   1.571  12.024 -1.2223 -1.2942  0.6589
14974TIP3    H266414   2.140   1.616  11.927 -1.1346 -0.5825  0.8860
14975TIP3   OH266415   4.281   1.799   2.886 -0.2798  0.3418  0.3849
14975TIP3    H166416   4.258   1.802   2.794  0.9916  0.7794  0.0608
14975TIP3    H266417   4.350   1.865   2.895  0.3808 -0.4717  1.4233
14976TIP3   OH266418   1.056   6.038  12.355 -0.5681 -0.0010  0.3421
14976TIP3    H166419   1.147   6.067  12.367 -0.1743 -1.9252  2.4851
14976TIP3    H266420   1.039   6.049  12.262  2.0732 -0.1229 -0.2051
14977TIP3   OH266421   4.206   3.492   5.985 -0.3478  0.2301  0.3326
14977TIP3    H166422   4.265   3.566   6.000  0.0748  0.2162 -1.1630
14977TIP3    H266423   4.125   3.532   5.954 -0.4497  0.1246  0.4615
14978TIP3   OH266424   1.526   5.251  13.912  0.3234  0.1343  0.5205
14978TIP3    H166425   1.527   5.230  13.819  0.8862  0.3530  0.4801
14978TIP3    H266426   1.595   5.316  13.924 -1.6501  2.3169  0.5625
14979TIP3   OH266427   2.454   1.191   5.520  0.2814 -0.3483  0.2554
14979TIP3    H166428   2.537   1.204   5.474 -1.1144  0.4806 -2.1317
14979TIP3    H266429   2.453   1.258   5.588  0.4461  1.2835 -1.3437
14980TIP3   OH266430   6.759   3.403   0.858 -0.3133 -0.4387  0.5725
14980TIP3    H166431   6.707   3.447   0.792  1.4409  0.1112 -0.4875
14980TIP3    H266432   6.758   3.462   0.933  0.0203  0.2806  0.0150
14981TIP3   OH266433   6.032   0.517   4.757  0.2404 -0.5389  0.2676
14981TIP3    H166434   6.002   0.501   4.846  0.0478  0.0280  0.3097
14981TIP3    H266435   5.953   0.511   4.703  0.6270 -2.5739 -0.0987
14982TIP3   OH266436   3.281   5.580  16.170 -0.2810 -0.0082 -0.1810
14982TIP3    H166437   3.320   5.642  16.232  0.1016  0.0407 -0.4723
14982TIP3    H266438   3.262   5.632  16.092 -0.3992 -0.1546 -0.2500
14983TIP3   OH266439   6.040   1.915   1.756 -0.0334 -0.1735 -0.2813
14983TIP3    H166440   6.132   1.905   1.783  0.1638 -3.2419 -1.9316
14983TIP3    H266441   5.992   1.857   1.814 -0.6784 -0.1616 -0.8018
14984TIP3   OH266442   6.683   6.526   0.062  0.0140  0.2901  0.2950
14984TIP3    H166443   6.621   6.598   0.058  0.7317  0.9536  0.9270
14984TIP3    H266444   6.647   6.460   0.003 -1.7521  0.2896  1.3577
14985TIP3   OH266445   6.029   0.076  10.757  0.1612 -0.1656 -0.0762
14985TIP3    H166446   5.952   0.085  10.701  0.1100 -0.1706 -0.0080
14985TIP3    H266447   6.056  -0.015  10.745 -0.5730 -0.5159  0.8277
14986TIP3   OH266448   4.090   2.406   4.828 -0.3724 -0.0466 -0.3137
14986TIP3    H166449   4.177   2.440   4.806  0.3981 -2.4641 -1.1798
14986TIP3    H266450   4.103   2.357   4.909 -1.0067 -0.2015 -0.3008
14987TIP3   OH266451   5.233   4.690   5.630 -0.0810 -0.1475  0.2796
14987TIP3    H166452   5.293   4.749   5.676  1.6731 -0.5149 -1.4576
14987TIP3    H266453   5.162   4.747   5.600  1.0756  0.9087 -0.4889
14988TIP3   OH266454   0.759   1.388  12.569  0.6195 -0.0455 -0.4821
14988TIP3    H166455   0.768   1.483  12.555 -2.2025  0.1514 -1.3445
14988TIP3    H266456   0.664   1.373  12.568  0.9696 -2.6361  1.4456
14989TIP3   OH266457   3.179   1.536   5.992  0.2484 -0.4297 -0.1994
14989TIP3    H166458   3.246   1.504   5.932  0.3914 -0.3317 -0.0924
14989TIP3    H266459   3.096   1.511   5.952  0.1951  2.7814 -2.2608
14990TIP3   OH266460   2.577   5.366  12.177  0.0130  0.0269 -0.0117
14990TIP3    H166461   2.606   5.362  12.086  0.7551 -0.4317  0.2452
14990TIP3    H266462   2.567   5.459  12.195  0.6425  0.1534 -0.3155
14991TIP3   OH266463   5.652   6.628  13.854 -0.0918 -0.0696 -0.3980
14991TIP3    H166464   5.744   6.626  13.881 -0.1966 -3.2770 -0.0792
14991TIP3    H266465   5.649   6.694  13.785  2.4278  0.1809 -0.3304
14992TIP3   OH266466   5.366   6.211  15.602  0.0527  0.4478  0.7952
14992TIP3    H166467   5.353   6.264  15.681  0.5338  0.5548  0.8065
14992TIP3    H266468   5.455   6.178  15.611 -0.7345 -1.5772  1.5157
14993TIP3   OH266469   0.087   4.370   3.265 -0.1444  0.4964  0.3289
14993TIP3    H166470   0.066   4.419   3.186 -0.9065  0.7156  0.6590
14993TIP3    H266471   0.067   4.431   3.337  1.0205  0.4870  0.6854
14994TIP3   OH266472   3.498   3.827  13.859  0.4013 -0.3251  0.6156
14994TIP3    H166473   3.591   3.816  13.842  0.0365 -0.9452 -1.1295
14994TIP3    H266474   3.459   3.742  13.837 -0.7686  0.4152 -0.2533
14995TIP3   OH266475   0.197   2.654   4.382 -0.1967 -0.3348 -0.2842
14995TIP3    H166476   0.110   2.673   4.417 -0.4661  2.6227 -2.4001
14995TIP3    H266477   0.250   2.728   4.409  0.9338 -0.6824 -1.5299
14996TIP3   OH266478   2.938   5.283   1.928 -0.0835 -0.2455  0.3075
14996TIP3    H166479   2.997   5.256   1.999  1.6594  1.1711 -0.5591
14996TIP3    H266480   2.976   5.245   1.849 -0.3202  0.6760 -0.2635
14997TIP3   OH266481   2.816   5.698  11.635 -0.0950 -0.0955 -0.0867
14997TIP3    H166482   2.775   5.620  11.673  0.5410  1.0060  3.0216
14997TIP3    H266483   2.906   5.671  11.617 -0.5313 -0.7685 -1.3463
14998TIP3   OH266484   4.754   5.562  11.314 -0.2875 -0.0296 -0.0098
14998TIP3    H166485   4.843   5.551  11.281 -0.6670 -0.0410 -1.0246
14998TIP3    H266486   4.715   5.475  11.308 -0.5129  0.0701  0.0143
14999TIP3   OH266487   1.089   3.593   1.170  0.3804 -0.4060 -0.5284
14999TIP3    H166488   1.139   3.535   1.228  0.5609  1.0342  0.7913
14999TIP3    H266489   0.998   3.570   1.186  0.4532 -0.3358  0.0088
15000TIP3   OH266490   5.510   6.208  16.078 -0.5929 -0.4268 -0.2024
15000TIP3    H166491   5.532   6.296  16.106 -1.1996  0.0748 -1.2394
15000TIP3    H266492   5.533   6.206  15.985  0.7947 -1.8380  0.1496
15001TIP3   OH266493   2.844   4.876  14.807  0.1951  0.8838 -0.0894
15001TIP3    H166494   2.868   4.783  14.801 -0.0680  0.8345 -0.4282
15001TIP3    H266495   2.757   4.881  14.768  0.0940  1.2308  0.1769
15002TIP3   OH266496   3.178   0.228   1.333 -0.2889 -0.2231  0.0495
15002TIP3    H166497   3.098   0.178   1.348 -1.1141  1.4752  1.3597
15002TIP3    H266498   3.247   0.177   1.376 -0.9927 -0.6109  0.7132
15003TIP3   OH266499   6.775   5.671  15.830 -0.5778 -0.8822  0.2115
15003TIP3    H166500   6.755   5.653  15.739 -1.1116 -1.4256  0.4387
15003TIP3    H266501   6.829   5.597  15.858 -0.7205 -0.9008  0.4403
15004TIP3   OH266502   6.105   0.231  12.417 -0.4838 -0.3674 -0.0734
15004TIP3    H166503   6.118   0.269  12.504 -0.2468  0.6529 -0.5405
15004TIP3    H266504   6.140   0.297  12.357  0.2619 -1.4868 -0.8990
15005TIP3   OH266505   3.922   4.378   1.061 -0.1759 -0.0528 -0.1084
15005TIP3    H166506   3.890   4.445   1.121 -1.4605 -0.9597  0.2244
15005TIP3    H266507   3.971   4.317   1.117  0.4852  0.2753 -0.3219
15006TIP3   OH266508   5.949   0.489  11.039 -0.2681  0.0802 -0.1930
15006TIP3    H166509   5.936   0.394  11.033 -0.3956  0.1061 -0.3100
15006TIP3    H266510   6.042   0.501  11.017 -0.1504 -0.0570  0.2177
15007TIP3   OH266511   6.682   4.522  11.935  0.4869 -0.1821  0.1643
15007TIP3    H166512   6.666   4.437  11.893 -0.6927  0.0795  0.0535
15007TIP3    H266513   6.672   4.504  12.028  0.1633 -0.1556  0.1358
15008TIP3   OH266514   1.934   0.679   5.466 -0.5121  0.5037  0.3889
15008TIP3    H166515   2.003   0.729   5.510 -0.9181  0.6854  0.8277
15008TIP3    H266516   1.976   0.644   5.387  0.2896  0.0075  1.0193
15009TIP3   OH266517   6.673   1.102   3.981  0.1571  0.2272  0.0659
15009TIP3    H166518   6.724   1.030   4.019  0.9504 -0.7216 -2.6644
15009TIP3    H266519   6.583   1.085   4.007  0.9556  1.1299  3.7584
15010TIP3   OH266520   1.984   5.030  13.327  0.1296  0.0071 -0.2041
15010TIP3    H166521   2.043   5.083  13.273 -1.6019  2.8318  0.6003
15010TIP3    H266522   2.025   5.031  13.414 -0.0460  0.2552 -0.1242
15011TIP3   OH266523   5.581   5.481   3.436 -0.0089 -0.7130  0.2550
15011TIP3    H166524   5.510   5.546   3.446  0.0356 -0.5117 -0.6895
15011TIP3    H266525   5.617   5.499   3.349  1.5482 -0.4790  0.9363
15012TIP3   OH266526   1.071   0.866  15.154  0.1558  0.0510  0.7568
15012TIP3    H166527   1.059   0.773  15.171 -0.6098 -0.0096 -0.1555
15012TIP3    H266528   1.011   0.887  15.083  1.3803  0.9246 -0.0438
15013TIP3   OH266529   2.936   3.853   0.351  0.1104 -0.1287  0.4487
15013TIP3    H166530   2.877   3.895   0.413 -0.3400  0.1952 -0.1921
15013TIP3    H266531   2.885   3.780   0.315 -0.7684  1.5616 -1.8542
15014TIP3   OH266532   2.792   2.243  11.246  0.0046 -0.3958  0.0663
15014TIP3    H166533   2.732   2.169  11.237  0.0170 -0.3388 -0.4943
15014TIP3    H266534   2.872   2.214  11.203 -0.1431  0.1138 -0.5568
15015TIP3   OH266535   2.338   3.162   5.740 -0.5220 -0.0838 -0.0354
15015TIP3    H166536   2.314   3.144   5.648  0.2448  0.1141 -0.2759
15015TIP3    H266537   2.255   3.157   5.787 -0.9742  0.1288 -0.7924
15016TIP3   OH266538   5.663   2.581   0.153 -0.5429 -0.2036  0.4782
15016TIP3    H166539   5.700   2.496   0.127 -1.8733  0.2569 -3.2043
15016TIP3    H266540   5.732   2.644   0.132  0.1233 -0.2540  2.4315
15017TIP3   OH266541   0.956   5.871   0.767 -0.4425 -0.0851 -0.2367
15017TIP3    H166542   0.976   5.892   0.676 -0.4249  0.3486 -0.1325
15017TIP3    H266543   1.011   5.794   0.787 -0.5031 -0.2237 -0.6112
15018TIP3   OH266544   2.408   1.514  11.944 -0.3350 -0.0175 -0.0083
15018TIP3    H166545   2.438   1.434  11.988  1.2398  0.2482 -0.5487
15018TIP3    H266546   2.486   1.547  11.899 -1.0441  1.6467 -0.0641
15019TIP3   OH266547   6.560   1.431  13.340  1.0348  0.2817 -1.0639
15019TIP3    H166548   6.576   1.500  13.276  0.2555  0.2592 -1.2939
15019TIP3    H266549   6.489   1.379  13.301 -1.5203  1.9941  1.1313
15020TIP3   OH266550   0.442   6.348  13.332 -0.1878 -0.0680 -0.6955
15020TIP3    H166551   0.397   6.298  13.264 -0.7983 -2.1363  1.1350
15020TIP3    H266552   0.517   6.293  13.356 -0.3941  0.2546  0.7593
15021TIP3   OH266553   5.471   1.624   3.395  0.2790  0.8467  0.0024
15021TIP3    H166554   5.395   1.681   3.395 -0.2705  0.1692  2.3405
15021TIP3    H266555   5.546   1.683   3.385 -0.4997  1.5629 -1.6998
15022TIP3   OH266556   5.254   0.927   5.164  0.0472 -0.1107 -0.2658
15022TIP3    H166557   5.218   1.012   5.193  0.2441  0.1829 -0.8874
15022TIP3    H266558   5.279   0.941   5.073  2.1077 -0.2101  0.2719
15023TIP3   OH266559   2.322   0.560   0.864  0.0521  0.0927  0.6451
15023TIP3    H166560   2.283   0.614   0.933 -1.1507 -2.0995  1.7415
15023TIP3    H266561   2.390   0.511   0.909  1.6471  1.2060 -0.5047
15024TIP3   OH266562   4.124   1.315   4.895  0.2188 -0.2395  0.6618
15024TIP3    H166563   4.084   1.392   4.854  1.0959 -0.1357 -0.0239
15024TIP3    H266564   4.069   1.242   4.869 -0.0403  0.0252  0.4653
15025TIP3   OH266565   4.518   4.825   0.684 -0.3039 -0.3800 -0.5071
15025TIP3    H166566   4.568   4.903   0.659 -0.7976  0.1679  0.1886
15025TIP3    H266567   4.575   4.778   0.744  0.1982 -0.8203 -1.3185
15026TIP3   OH266568   0.075   1.117  16.016  0.0818 -0.3690  0.0350
15026TIP3    H166569  -0.015   1.133  15.985 -0.3482 -1.9246  0.4519
15026TIP3    H266570   0.127   1.184  15.972 -1.3374  0.8152  0.0838
15027TIP3   OH266571   6.303   1.546   4.139  0.0941  0.3284  0.1577
15027TIP3    H166572   6.214   1.570   4.114  0.2416  0.6737 -0.0451
15027TIP3    H266573   6.353   1.627   4.131  0.0690  0.5355  1.9627
15028TIP3   OH266574   5.913   6.799   0.737  0.0714  0.0310  0.2090
15028TIP3    H166575   5.849   6.799   0.809 -1.5173  0.7047 -1.1624
15028TIP3    H266576   5.872   6.744   0.670  1.6699 -0.8316 -0.0817
15029TIP3   OH266577   2.274   0.666   3.520  0.1644  0.2828  0.7271
15029TIP3    H166578   2.356   0.672   3.570  1.3794  1.5015 -1.3352
15029TIP3    H266579   2.254   0.756   3.496 -2.1915  0.0620  1.8041
15030TIP3   OH266580   0.493   2.179  15.993 -0.2060  0.1817 -0.5865
15030TIP3    H166581   0.522   2.168  16.083 -0.1290  1.2196 -0.4721
15030TIP3    H266582   0.432   2.107  15.978 -0.6803  0.3480  0.4869
15031TIP3   OH266583   3.518   3.258   5.058  0.2728  0.1339  0.0095
15031TIP3    H166584   3.443   3.204   5.033 -0.4027  1.0409  0.0757
15031TIP3    H266585   3.576   3.257   4.982  0.8889 -1.7568  0.4715
15032TIP3   OH266586   1.289   2.969   2.499 -0.5489 -0.1987  0.7876
15032TIP3    H166587   1.233   2.989   2.574 -1.6000 -4.7667  1.3981
15032TIP3    H266588   1.232   2.980   2.423 -1.0280 -0.5898  1.0857
15033TIP3   OH266589   6.771   3.234  16.833 -0.1092 -0.0095  0.0455
15033TIP3    H166590   6.855   3.246  16.789  0.0544 -1.0706  0.0310
15033TIP3    H266591   6.737   3.322  16.846 -0.0742  0.3237 -2.0171
15034TIP3   OH266592   0.158   3.026   2.088  1.0059  0.2828  0.2623
15034TIP3    H166593   0.094   3.087   2.123  0.3374 -0.3338  0.1266
15034TIP3    H266594   0.208   3.077   2.025  0.5605  0.7324  0.2692
15035TIP3   OH266595   1.893   4.692  14.712 -0.0837  0.2592  0.1790
15035TIP3    H166596   1.985   4.668  14.711 -0.1635 -0.1053  1.1610
15035TIP3    H266597   1.878   4.725  14.801 -1.1186 -0.5492  0.3063
15036TIP3   OH266598   4.367   4.761   2.135 -0.6872  0.3661  0.5017
15036TIP3    H166599   4.303   4.742   2.066 -0.9606 -1.2619  1.1644
15036TIP3    H266600   4.452   4.747   2.094 -0.6928  2.8629 -0.4817
15037TIP3   OH266601   0.539   2.068  16.339 -0.4315  0.2718 -0.1907
15037TIP3    H166602   0.528   1.977  16.312  2.0331 -0.6509  1.7121
15037TIP3    H266603   0.454   2.092  16.378 -0.7559 -1.5845  0.2656
15038TIP3   OH266604   4.224   3.838  10.345 -0.7173 -0.2216  0.3061
15038TIP3    H166605   4.146   3.891  10.361 -0.5947  0.3521 -0.9400
15038TIP3    H266606   4.286   3.865  10.412 -0.6238  1.3060 -0.3780
15039TIP3   OH266607   0.609   3.386   0.109 -0.1896 -0.5279 -0.0507
15039TIP3    H166608   0.646   3.300   0.090  1.4655  0.1097  0.2168
15039TIP3    H266609   0.683   3.438   0.140 -1.2043  0.9438 -0.0320
15040TIP3   OH266610   0.400   6.657   2.948 -0.3572 -0.7038  0.1371
15040TIP3    H166611   0.375   6.686   3.036  0.8956  0.1083  0.2326
15040TIP3    H266612   0.378   6.730   2.891 -1.2534 -1.2671 -0.2415
15041TIP3   OH266613   4.065   6.523  14.539  0.1223 -0.0265 -0.4310
15041TIP3    H166614   4.094   6.459  14.475 -0.9122 -0.5006 -0.4297
15041TIP3    H266615   4.050   6.472  14.619 -0.6355  0.2161 -0.4108
15042TIP3   OH266616   2.058   1.646  11.652  0.5610 -0.6094  0.0149
15042TIP3    H166617   1.971   1.685  11.657  0.4600 -0.8358 -0.0105
15042TIP3    H266618   2.117   1.722  11.651  0.2954 -0.3896 -1.6533
15043TIP3   OH266619   0.774   2.809   5.519  0.2607 -0.1772 -0.5429
15043TIP3    H166620   0.822   2.843   5.594 -1.0550 -0.4752  0.4492
15043TIP3    H266621   0.690   2.782   5.554 -0.2759 -0.5792 -2.0788
15044TIP3   OH266622   6.317   0.094  14.500  0.7012 -0.5123 -0.2014
15044TIP3    H166623   6.258   0.031  14.458  0.5952 -1.6019  1.5274
15044TIP3    H266624   6.259   0.160  14.538  0.7259 -0.2476 -0.6222
15045TIP3   OH266625   0.897   4.132   1.404 -0.3126  0.0687  0.0638
15045TIP3    H166626   0.885   4.189   1.328 -1.1102  1.9342  1.5693
15045TIP3    H266627   0.810   4.094   1.420 -0.1655 -0.2559  0.1075
15046TIP3   OH266628   4.888   0.377   3.166 -0.4467  0.0701 -0.4562
15046TIP3    H166629   4.821   0.341   3.107 -1.4580  0.6572  0.3197
15046TIP3    H266630   4.905   0.308   3.229 -1.0154  0.2682 -0.0868
15047TIP3   OH266631   4.257   5.916  13.841 -0.0951 -0.7239 -0.0096
15047TIP3    H166632   4.340   5.920  13.793 -0.1373 -0.1675 -0.0292
15047TIP3    H266633   4.282   5.888  13.930  0.2100  0.2827  0.2273
15048TIP3   OH266634   2.629   0.938   4.672 -0.5204  0.3015  0.2446
15048TIP3    H166635   2.533   0.944   4.677 -0.6522 -1.6321  0.5091
15048TIP3    H266636   2.648   0.846   4.691  1.3530  0.5064 -0.5572
15049TIP3   OH266637   4.775   1.527   0.626 -0.3210  0.3387  0.4360
15049TIP3    H166638   4.700   1.473   0.601  0.5570 -0.1864 -1.1759
15049TIP3    H266639   4.849   1.466   0.624  0.2490  0.9883  1.3940
15050TIP3   OH266640   0.557   4.742   1.704 -0.9496 -0.1060 -0.0045
15050TIP3    H166641   0.631   4.799   1.723 -1.6831  0.5377  0.9496
15050TIP3    H266642   0.486   4.802   1.680 -1.0732 -0.7337 -1.2279
15051TIP3   OH266643   5.697   2.651  14.521 -0.8930 -0.1317 -0.8115
15051TIP3    H166644   5.707   2.598  14.600  1.7277 -0.5932 -1.3949
15051TIP3    H266645   5.694   2.587  14.450 -1.7866  0.3429 -1.2031
15052TIP3   OH266646   2.837   3.421   2.581 -0.2365 -0.0169  0.0202
15052TIP3    H166647   2.887   3.467   2.648  1.2987 -1.3152 -0.1929
15052TIP3    H266648   2.864   3.462   2.499 -0.3216  0.0035  0.0032
15053TIP3   OH266649   6.803   1.640   5.940  0.3996  0.3183 -0.2384
15053TIP3    H166650   6.754   1.712   5.901  1.1384 -0.1616 -2.1393
15053TIP3    H266651   6.757   1.620   6.021 -0.7898  1.8168 -0.5276
15054TIP3   OH266652   1.536   3.813  12.528 -0.4332 -0.8541  0.0706
15054TIP3    H166653   1.442   3.827  12.523 -0.2813  0.0202 -0.5224
15054TIP3    H266654   1.548   3.750  12.599 -1.5508 -1.8535 -0.6168
15055TIP3   OH266655   2.289   5.844  12.882  0.2931  0.2735 -0.4654
15055TIP3    H166656   2.232   5.915  12.912  0.3234  0.1004  0.0100
15055TIP3    H266657   2.289   5.782  12.955 -0.1435 -0.4512 -1.0822
15056TIP3   OH266658   2.460   0.058   2.546  0.3016 -0.1769  0.4395
15056TIP3    H166659   2.451  -0.020   2.601 -0.9382  0.1614  0.7458
15056TIP3    H266660   2.458   0.131   2.609 -0.6833  0.1933 -0.0136
15057TIP3   OH266661   4.178   3.954   0.096 -0.4805 -0.0375 -0.2010
15057TIP3    H166662   4.102   3.992   0.052  0.5278  0.2011 -1.7887
15057TIP3    H266663   4.192   3.870   0.051 -0.0182 -0.2449  0.3229
15058TIP3   OH266664   3.645   6.031  16.417 -0.7768  0.4335  0.4962
15058TIP3    H166665   3.660   6.004  16.327  2.6204  1.4700  0.6728
15058TIP3    H266666   3.652   6.127  16.415 -3.5248  0.7099  1.4237
15059TIP3   OH266667   5.379   6.160  14.568  0.4958  0.0685  0.8092
15059TIP3    H166668   5.426   6.223  14.623  0.4202  1.3794 -0.6151
15059TIP3    H266669   5.447   6.123  14.512  0.1623  0.5010  0.1204
15060TIP3   OH266670   4.059   0.826  14.071 -0.4355 -0.3121 -0.5479
15060TIP3    H166671   4.153   0.845  14.068 -0.2672 -1.3178 -1.9142
15060TIP3    H266672   4.018   0.900  14.026 -0.5249  1.3844  2.1984
15061TIP3   OH266673   2.559   3.320  12.700 -0.1530 -0.7171  0.2322
15061TIP3    H166674   2.542   3.397  12.647  1.1600  0.2840  1.2407
15061TIP3    H266675   2.614   3.264  12.644  2.3305  0.9161  0.9713
15062TIP3   OH266676   4.572   4.441  12.454  0.1522  0.1260 -0.5630
15062TIP3    H166677   4.586   4.500  12.380 -0.8463  0.1702 -0.7192
15062TIP3    H266678   4.621   4.362  12.431 -0.4697 -0.0064 -1.4488
15063TIP3   OH266679   1.737   1.560   5.103  0.6944 -0.0791  0.3312
15063TIP3    H166680   1.816   1.555   5.157  1.3889 -0.6954 -0.7058
15063TIP3    H266681   1.686   1.483   5.129  1.0305 -0.3799  0.1121
15064TIP3   OH266682   6.816   1.463  16.419  0.1688  0.2787  0.1419
15064TIP3    H166683   6.745   1.400  16.434  0.8306 -0.5562 -0.1481
15064TIP3    H266684   6.798   1.535  16.479 -1.5221  0.5818 -0.6982
15065TIP3   OH266685   2.857   0.467   5.498  0.2710 -0.2721 -0.0453
15065TIP3    H166686   2.855   0.384   5.545 -0.9382 -0.3008 -0.1364
15065TIP3    H266687   2.791   0.457   5.429 -1.4098  1.5215  1.2528
15066TIP3   OH266688   1.649   5.242  11.010  0.5931  0.4281 -0.4438
15066TIP3    H166689   1.681   5.267  10.923  1.5824 -0.7229 -0.4288
15066TIP3    H266690   1.605   5.158  10.997  0.1849  0.5609  0.0553
15067TIP3   OH266691   3.272   5.331  11.219  0.1561  0.0790  0.6854
15067TIP3    H166692   3.329   5.386  11.165 -2.2025  1.4968 -0.3989
15067TIP3    H266693   3.263   5.379  11.301  2.1836 -1.1605  1.6745
15068TIP3   OH266694   0.429   3.596  12.605 -0.0781  0.0006 -0.1375
15068TIP3    H166695   0.404   3.662  12.669 -1.2712  0.4828 -1.0925
15068TIP3    H266696   0.508   3.556  12.642  0.7358  2.0356  0.3762
15069TIP3   OH266697   5.122   3.357   0.644 -0.6511  0.5031 -0.2833
15069TIP3    H166698   5.176   3.378   0.567  0.9427  1.5517  1.0839
15069TIP3    H266699   5.037   3.398   0.625  0.2048  2.0814 -0.8225
15070TIP3   OH266700   2.359   3.923  16.733 -0.1364  0.1379 -0.5877
15070TIP3    H166701   2.350   3.872  16.814  0.8375  0.9286  0.0189
15070TIP3    H266702   2.314   3.870  16.667  0.4187 -1.2695  0.1455
15071TIP3   OH266703   2.249   5.849   4.956 -0.6312 -0.3775 -0.0250
15071TIP3    H166704   2.343   5.860   4.939 -0.7597 -0.5519 -0.8652
15071TIP3    H266705   2.245   5.784   5.025 -0.0807  0.5856  0.9279
15072TIP3   OH266706   5.266   5.257   1.237  0.1957 -0.0267 -0.0851
15072TIP3    H166707   5.321   5.334   1.222 -1.2185  0.6908 -1.8236
15072TIP3    H266708   5.327   5.183   1.238  1.4101  0.9595  0.1254
15073TIP3   OH266709   6.796   0.022  12.943  0.3100 -0.1577 -1.0305
15073TIP3    H166710   6.813  -0.039  13.014 -2.7431  0.6649  0.4836
15073TIP3    H266711   6.757  -0.031  12.874 -0.6258 -0.2781 -0.4262
15074TIP3   OH266712   2.875   2.372   5.988 -0.4938  0.4893 -0.3697
15074TIP3    H166713   2.899   2.295   6.040  1.1528  0.3897 -1.2450
15074TIP3    H266714   2.784   2.389   6.011 -0.3212 -0.6119  1.2217
15075TIP3   OH266715   2.399   6.808   4.934 -0.1336  0.0551 -0.1899
15075TIP3    H166716   2.489   6.778   4.917 -0.3663  0.1377 -1.6603
15075TIP3    H266717   2.403   6.847   5.021  1.7478  2.0070 -1.1131
15076TIP3   OH266718   2.506   2.197  12.577  0.5102  0.7520 -0.3035
15076TIP3    H166719   2.590   2.152  12.578  0.7189  1.1325 -0.4650
15076TIP3    H266720   2.441   2.127  12.578  0.8156  0.4953  1.2474
15077TIP3   OH266721   2.347   4.811  11.946  0.2589 -0.4725 -0.0896
15077TIP3    H166722   2.323   4.900  11.918  1.8875  0.0479  0.1482
15077TIP3    H266723   2.273   4.757  11.917 -0.4196  0.8387 -0.8806
15078TIP3   OH266724   1.473   1.606   3.404  0.2345  0.1959 -0.4245
15078TIP3    H166725   1.520   1.523   3.397 -0.9106 -0.4129 -1.0702
15078TIP3    H266726   1.410   1.592   3.475  1.7512  1.3928  1.2356
15079TIP3   OH266727   4.229   3.842   4.186 -0.1029  0.6192  0.1999
15079TIP3    H166728   4.290   3.859   4.258 -0.5930  0.6759  0.6118
15079TIP3    H266729   4.167   3.914   4.190  0.5174  1.2336 -1.0043
15080TIP3   OH266730   1.198   0.180   2.715 -0.2098 -0.2884 -0.2294
15080TIP3    H166731   1.145   0.186   2.635 -1.3925 -0.3557  0.5354
15080TIP3    H266732   1.135   0.158   2.784  0.4097  1.9944  1.1244
15081TIP3   OH266733   5.352   1.749  14.552  0.1703 -0.1476  0.5045
15081TIP3    H166734   5.381   1.680  14.492 -0.6881 -0.4725  0.4618
15081TIP3    H266735   5.356   1.708  14.639 -0.2015 -0.2083  0.4944
15082TIP3   OH266736   2.486   6.614   1.140  0.3767 -0.2137  0.5105
15082TIP3    H166737   2.424   6.620   1.068  0.9992  0.1316  0.0004
15082TIP3    H266738   2.568   6.588   1.099  1.8043  4.0104  0.4896
15083TIP3   OH266739   1.707   3.181   1.655 -0.2406  0.2765  0.3871
15083TIP3    H166740   1.775   3.115   1.646 -0.4273 -0.0346  1.2091
15083TIP3    H266741   1.659   3.177   1.572 -1.6864 -2.2486  1.2691
15084TIP3   OH266742   6.716   6.570  14.971 -0.3748 -0.5801 -0.2311
15084TIP3    H166743   6.725   6.614  14.886  1.0630  0.3678  0.3918
15084TIP3    H266744   6.799   6.523  14.983 -0.2234 -0.0094  1.0385
15085TIP3   OH266745   6.174   5.328  15.652 -0.1446  1.3180  0.2667
15085TIP3    H166746   6.132   5.326  15.738 -0.2888  0.8021  0.1854
15085TIP3    H266747   6.255   5.278  15.663 -0.0741  1.4041  0.1486
15086TIP3   OH266748   3.987   5.219  17.249 -0.3734  0.6922  0.2296
15086TIP3    H166749   3.974   5.283  17.319 -2.1977 -0.5454  1.0819
15086TIP3    H266750   3.909   5.163  17.254 -0.0977  0.0468 -2.2292
15087TIP3   OH266751   0.624   0.506   3.021  0.2103 -0.3404 -0.3844
15087TIP3    H166752   0.635   0.536   3.111  3.1588 -0.2323 -0.7389
15087TIP3    H266753   0.636   0.411   3.026 -0.2215 -0.4090 -0.5898
15088TIP3   OH266754   3.119   5.355  14.142 -0.2676  0.0621  0.0483
15088TIP3    H166755   3.066   5.430  14.169  0.4895  0.1023  1.4806
15088TIP3    H266756   3.145   5.374  14.052 -0.9080  1.0365  0.0666
15089TIP3   OH266757   3.751   2.554   2.472 -0.7603 -0.1830 -0.4302
15089TIP3    H166758   3.828   2.507   2.441 -0.2081  0.6767 -0.3804
15089TIP3    H266759   3.760   2.555   2.567 -1.2208 -0.7304 -0.3774
15090TIP3   OH266760   6.065   0.337   3.634 -0.3182 -0.5432  0.4832
15090TIP3    H166761   6.010   0.413   3.615 -2.2289 -1.4941  1.9834
15090TIP3    H266762   6.147   0.355   3.589 -1.6586  1.1930 -1.3676
15091TIP3   OH266763   0.469   5.483   0.159  0.0706  0.4283 -0.3863
15091TIP3    H166764   0.456   5.552   0.224 -0.6353  0.6425 -0.7505
15091TIP3    H266765   0.418   5.409   0.192  0.6489  0.1482 -0.1094
15092TIP3   OH266766   4.018   2.641  13.651  0.1837  0.1137  0.7904
15092TIP3    H166767   4.070   2.604  13.723  1.3685  0.9495  0.3851
15092TIP3    H266768   4.020   2.735  13.666  1.0106  0.3486 -0.6915
15093TIP3   OH266769   4.229   4.511   0.188  0.3128  0.5387 -0.5906
15093TIP3    H166770   4.260   4.448   0.254 -0.3767  0.9095  0.0998
15093TIP3    H266771   4.135   4.518   0.205  0.3389  1.5353 -0.8604
15094TIP3   OH266772   5.541   4.929   0.013 -0.1975  0.2161 -0.5349
15094TIP3    H166773   5.456   4.938  -0.029 -0.9946 -1.2050  0.7388
15094TIP3    H266774   5.574   5.019   0.020 -0.6963  0.6128 -2.7939
15095TIP3   OH266775   6.168   5.201  13.710  0.2642 -0.0114  0.2204
15095TIP3    H166776   6.201   5.291  13.718 -0.5240  0.3766 -0.9328
15095TIP3    H266777   6.238   5.148  13.748  1.7263  0.9087 -1.0937
15096TIP3   OH266778   0.973   6.410   4.120 -0.5071 -0.3568  0.5309
15096TIP3    H166779   0.913   6.392   4.193 -0.8124  1.3429  0.7371
15096TIP3    H266780   0.923   6.467   4.062  0.1578 -0.7214 -0.4085
15097TIP3   OH266781   3.979   1.243   0.702  0.3764 -0.2643 -0.3426
15097TIP3    H166782   3.967   1.250   0.608  0.6963  1.8329 -0.2465
15097TIP3    H266783   4.073   1.258   0.716 -0.1477  2.3559  0.5395
15098TIP3   OH266784   0.210   3.279   5.936 -0.2948  0.7328  0.1206
15098TIP3    H166785   0.162   3.262   6.018  3.4356 -0.0199  2.2746
15098TIP3    H266786   0.145   3.265   5.867 -2.6623 -2.2263  2.7806
15099TIP3   OH266787   3.960   5.324   1.967 -0.2482 -0.4651 -0.2199
15099TIP3    H166788   3.993   5.260   2.030  0.3963 -0.1093 -0.1907
15099TIP3    H266789   4.039   5.359   1.926 -0.5173  1.2531  0.6915
15100TIP3   OH266790   0.744   0.291   5.792  0.4917 -0.6982 -0.0283
15100TIP3    H166791   0.809   0.255   5.853  0.7000 -0.8127 -0.3169
15100TIP3    H266792   0.663   0.243   5.813  0.8696 -1.6328 -0.6873
15101TIP3   OH266793   4.342   5.435  11.648 -0.3431  0.3689  0.0753
15101TIP3    H166794   4.355   5.459  11.556  0.4779  0.5765  0.2408
15101TIP3    H266795   4.317   5.343  11.646  0.8810  0.0397 -0.2781
15102TIP3   OH266796   4.555   1.116  12.832 -0.4215 -0.2910 -0.1430
15102TIP3    H166797   4.591   1.046  12.887 -2.3017 -0.5072  0.8621
15102TIP3    H266798   4.583   1.197  12.875 -0.9701 -0.4565  0.5375
15103TIP3   OH266799   5.525   3.175   4.317  0.5529  0.1884 -0.3150
15103TIP3    H166800   5.468   3.148   4.389  1.2035  2.1320  0.9964
15103TIP3    H266801   5.467   3.184   4.242 -0.2939 -1.0388  0.1813
15104TIP3   OH266802   5.688   2.213   5.375  0.1580  0.8711 -0.3600
15104TIP3    H166803   5.720   2.302   5.364 -1.3524  1.4827  0.0093
15104TIP3    H266804   5.737   2.179   5.450 -0.7755  2.1526  0.8598
15105TIP3   OH266805   3.081   6.439  11.925  0.2117  0.0201  0.3003
15105TIP3    H166806   3.039   6.477  12.003  1.0147 -2.9532  2.2375
15105TIP3    H266807   3.167   6.481  11.921 -0.5124  1.4936 -0.0321
15106TIP3   OH266808   0.796   0.871  13.366  0.3696  0.6038  0.5767
15106TIP3    H166809   0.864   0.864  13.299 -1.2658 -2.3488 -0.8576
15106TIP3    H266810   0.844   0.876  13.449  2.3677  1.9081 -0.6247
15107TIP3   OH266811   2.817   6.386   4.786  0.1192  0.2436  0.6287
15107TIP3    H166812   2.818   6.347   4.873 -1.0085 -0.1545  0.4748
15107TIP3    H266813   2.812   6.480   4.802 -0.4905  0.1492  0.9861
15108TIP3   OH266814   5.733   5.866  14.392 -0.3944 -1.1731 -0.1734
15108TIP3    H166815   5.715   5.955  14.421  0.6619 -0.7520 -0.7865
15108TIP3    H266816   5.700   5.863  14.302 -0.0392 -1.2583 -0.3026
15109TIP3   OH266817   6.279   5.413  13.069  0.1195 -0.6677 -0.8984
15109TIP3    H166818   6.256   5.471  13.141  0.4630 -2.1405  0.4367
15109TIP3    H266819   6.202   5.413  13.013 -0.3018  0.2140 -0.3292
15110TIP3   OH266820   0.709   0.592  14.761 -0.5416  0.3102  0.0027
15110TIP3    H166821   0.744   0.541  14.687 -0.7791 -1.1575  0.8898
15110TIP3    H266822   0.787   0.625  14.806 -0.3585 -0.2228  0.0807
15111TIP3   OH266823   4.395   5.304   5.046  0.5865 -0.4481  0.4115
15111TIP3    H166824   4.395   5.348   4.961  2.2094 -2.2608 -0.5656
15111TIP3    H266825   4.323   5.241   5.041  1.3270 -1.2756 -0.0359
15112TIP3   OH266826   1.130   6.546  16.750  0.5236 -0.1805  0.0941
15112TIP3    H166827   1.101   6.611  16.815  1.8060  0.7017 -0.1966
15112TIP3    H266828   1.088   6.573  16.669  0.7775  0.0866  0.0522
15113TIP3   OH266829   3.434   3.788   5.399 -0.0321  0.1889 -0.3162
15113TIP3    H166830   3.441   3.874   5.358 -0.3170  0.1590 -0.4260
15113TIP3    H266831   3.517   3.745   5.378  0.3347  0.6380  0.1975
15114TIP3   OH266832   6.733   5.892   6.416 -0.7938  0.7131  0.4787
15114TIP3    H166833   6.814   5.844   6.406 -1.8924 -0.7082 -2.3077
15114TIP3    H266834   6.742   5.939   6.499  3.7606  2.3761 -0.8175
15115TIP3   OH266835   4.806   3.347  15.869  0.1858  0.1384  0.2201
15115TIP3    H166836   4.870   3.413  15.896  0.3957  0.0354 -0.0171
15115TIP3    H266837   4.741   3.345  15.939 -0.2691  1.1897 -0.1627
15116TIP3   OH266838   3.999   6.166   2.863 -0.1083 -0.6843 -0.2020
15116TIP3    H166839   3.935   6.145   2.796 -0.2192  1.9106 -0.9782
15116TIP3    H266840   3.963   6.130   2.944 -1.5127 -1.0861 -0.9983
15117TIP3   OH266841   6.161   6.795   3.756 -0.3744 -0.5585 -0.5155
15117TIP3    H166842   6.123   6.707   3.753 -0.4235 -0.5729  0.3385
15117TIP3    H266843   6.102   6.845   3.812 -1.4926  0.5970 -2.6865
15118TIP3   OH266844   0.804   3.848  11.249  0.3465  0.5750 -0.6876
15118TIP3    H166845   0.828   3.812  11.163  2.5646  1.2253 -0.3657
15118TIP3    H266846   0.766   3.774  11.296  1.5127 -0.4325 -1.3147
15119TIP3   OH266847   6.751   0.433  15.706  0.3819 -0.1861 -0.0296
15119TIP3    H166848   6.664   0.470  15.719  0.4689 -0.3197  0.9398
15119TIP3    H266849   6.750   0.350  15.754  0.9020 -0.3986 -0.3798
15120TIP3   OH266850   1.856   3.899  16.436  0.3198 -0.0668 -0.0825
15120TIP3    H166851   1.896   3.985  16.420 -1.4323  1.0608  1.4567
15120TIP3    H266852   1.788   3.891  16.370  0.0858 -0.0088  0.1510
15121TIP3   OH266853   3.287   1.892   3.277 -0.3051  0.4308  0.0745
15121TIP3    H166854   3.282   1.841   3.196  1.9515  1.4952 -0.7752
15121TIP3    H266855   3.363   1.857   3.323 -1.3985  0.0351  1.6248
15122TIP3   OH266856   6.594   2.531   5.061 -0.1289  0.8599  0.1033
15122TIP3    H166857   6.639   2.616   5.060 -0.8395  1.2259 -3.1470
15122TIP3    H266858   6.553   2.528   5.148  0.9392  3.2843  0.7544
15123TIP3   OH266859   3.946   0.611  16.350 -0.2235 -0.2207  0.3889
15123TIP3    H166860   4.038   0.584  16.345 -0.1833 -0.1991  0.9576
15123TIP3    H266861   3.948   0.691  16.402 -0.7874 -1.3465  2.1990
15124TIP3   OH266862   1.363   0.854  14.015 -1.7032  0.8189 -0.4223
15124TIP3    H166863   1.387   0.879  13.925 -0.0220  1.2888  0.1411
15124TIP3    H266864   1.314   0.772  14.005  2.3151 -1.6062 -1.4935
15125TIP3   OH266865   2.016   3.667  16.308 -0.4137  0.0609  0.6241
15125TIP3    H166866   1.979   3.727  16.372 -0.5896 -1.8051  2.3199
15125TIP3    H266867   2.062   3.601  16.360 -0.5510 -1.4921 -1.1572
15126TIP3   OH266868   1.342   2.262  15.195  0.6810  0.4560  0.4545
15126TIP3    H166869   1.366   2.347  15.233 -0.4284  1.1758 -0.3870
15126TIP3    H266870   1.376   2.197  15.256  3.5476  1.4352 -0.0207
15127TIP3   OH266871   0.308   2.914   1.783 -0.2224  0.3166  0.2041
15127TIP3    H166872   0.292   3.005   1.809  0.9368  0.3623  0.7839
15127TIP3    H266873   0.324   2.919   1.688  0.4528  0.8044  0.3379
15128TIP3   OH266874   2.216   1.640  15.208 -0.0969  0.1241 -0.4096
15128TIP3    H166875   2.145   1.703  15.203 -1.5606 -1.4371  0.2277
15128TIP3    H266876   2.294   1.693  15.227 -0.9988  1.8867 -1.5752
15129TIP3   OH266877   1.700   5.844  15.024  0.5429 -0.4800 -0.1133
15129TIP3    H166878   1.760   5.918  15.009  1.2413 -1.2213 -1.0191
15129TIP3    H266879   1.758   5.769  15.037 -0.1156 -0.5277  2.8026
15130TIP3   OH266880   2.309   1.089   1.833  0.1205 -0.4008 -0.5197
15130TIP3    H166881   2.296   1.169   1.782 -0.2766 -0.8769 -1.1747
15130TIP3    H266882   2.385   1.107   1.889  0.9006 -0.0771 -1.6829
15131TIP3   OH266883   6.100   6.612   5.487 -0.0767 -0.5548 -0.6946
15131TIP3    H166884   6.182   6.567   5.468 -0.5604 -1.0270 -1.7191
15131TIP3    H266885   6.041   6.542   5.516  0.1635 -0.0775  1.0016
15132TIP3   OH266886   5.865   3.490  15.857 -0.2499  0.4209  0.4465
15132TIP3    H166887   5.822   3.497  15.942  2.2427 -0.1805  1.8068
15132TIP3    H266888   5.953   3.525  15.872 -0.0142  1.0157 -2.0817
15133TIP3   OH266889   2.042   1.426  15.639  0.0416 -0.2745 -0.0779
15133TIP3    H166890   2.082   1.509  15.615 -0.8996  0.2684  0.2180
15133TIP3    H266891   2.016   1.387  15.555 -2.3860  1.1891 -0.0611
15134TIP3   OH266892   5.083   5.285   2.968  0.2298  0.1447 -0.3132
15134TIP3    H166893   5.064   5.365   3.018  0.1815 -0.5190  0.7426
15134TIP3    H266894   5.092   5.217   3.034 -0.8864 -0.9714 -1.2963
15135TIP3   OH266895   5.491   1.851  16.090 -0.3186  0.0055 -0.1118
15135TIP3    H166896   5.553   1.892  16.151 -0.9207 -2.6695  2.4064
15135TIP3    H266897   5.424   1.918  16.076  0.6450  1.2253  0.9227
15136TIP3   OH266898   4.001   4.063   5.808  0.3715  0.4266 -0.6202
15136TIP3    H166899   4.011   4.151   5.772 -0.5076  1.2879  1.1841
15136TIP3    H266900   4.065   4.058   5.879  0.2794 -0.3198 -0.5819
15137TIP3   OH266901   5.297   2.685   4.738  0.0989  0.3071 -0.1224
15137TIP3    H166902   5.246   2.612   4.772  1.5341 -0.5727  0.2013
15137TIP3    H266903   5.232   2.748   4.707 -1.1664 -0.6864  0.4732
15138TIP3   OH266904   0.781   4.014   3.322 -0.5633  0.5342  0.5168
15138TIP3    H166905   0.694   3.975   3.317  0.3749 -1.6811  0.5895
15138TIP3    H266906   0.769   4.094   3.373 -2.4574 -0.0650  1.0530
15139TIP3   OH266907   1.943   3.690  12.821  0.3728  0.6508  0.6635
15139TIP3    H166908   1.868   3.739  12.853  0.0615  0.7902 -0.2771
15139TIP3    H266909   1.919   3.664  12.732  0.9308 -0.3733  0.8062
15140TIP3   OH266910   2.052   3.006  17.265 -0.1520  0.2376 -0.1882
15140TIP3    H166911   1.966   3.042  17.288 -0.9304 -0.9954 -1.1347
15140TIP3    H266912   2.055   3.010  17.169  0.9259  0.4485 -0.1511
15141TIP3   OH266913   3.813   0.758  11.796 -0.5114  0.3696  0.8806
15141TIP3    H166914   3.758   0.691  11.756  0.2183  0.4670 -0.3025
15141TIP3    H266915   3.903   0.728  11.780 -0.1289  2.3721 -1.0134
15142TIP3   OH266916   4.150   4.218  14.515 -0.4457 -0.3603 -0.2413
15142TIP3    H166917   4.093   4.280  14.471  0.5300  0.0736 -0.9234
15142TIP3    H266918   4.224   4.271  14.547 -1.3840 -0.5580  2.4357
15143TIP3   OH266919   1.504   6.215   3.820  0.0656 -0.4278 -0.0134
15143TIP3    H166920   1.433   6.275   3.798 -0.2193 -1.0191 -0.7347
15143TIP3    H266921   1.460   6.136   3.852  0.3328 -1.3652 -1.8901
15144TIP3   OH266922   2.874   0.090  11.909 -0.1322  0.6843  0.0407
15144TIP3    H166923   2.916   0.135  11.983 -1.2677  0.8037  0.6221
15144TIP3    H266924   2.785   0.071  11.939  0.2689 -1.8368 -0.2477
15145TIP3   OH266925   5.516   0.886   0.863 -0.3681  0.2338 -0.2646
15145TIP3    H166926   5.530   0.882   0.768 -0.8259  0.1705 -0.3338
15145TIP3    H266927   5.591   0.934   0.897  0.4824 -0.8905 -0.5080
15146TIP3   OH266928   1.848   2.067   2.843 -0.1252  0.8694  0.0681
15146TIP3    H166929   1.798   2.026   2.913 -0.0430  0.4765 -0.1033
15146TIP3    H266930   1.887   2.144   2.884 -0.9654  1.2439  0.1709
15147TIP3   OH266931   0.238   2.973   3.119 -0.2328 -0.2731 -0.5048
15147TIP3    H166932   0.147   2.948   3.103 -0.2019 -0.8282  0.1949
15147TIP3    H266933   0.272   2.994   3.032 -0.5927 -1.5203 -0.9543
15148TIP3   OH266934   4.255   2.818  13.477  0.1667  0.1198  0.5329
15148TIP3    H166935   4.199   2.849  13.549 -0.9879  1.6033 -0.9523
15148TIP3    H266936   4.224   2.866  13.401  3.0404  0.4664 -0.4828
15149TIP3   OH266937   3.416   1.347   3.018  0.1757  0.6357 -0.0538
15149TIP3    H166938   3.486   1.315   2.962  0.0102 -1.5161  0.9376
15149TIP3    H266939   3.339   1.294   2.996 -1.2338  3.0598 -1.2331
15150TIP3   OH266940   3.909   2.794   0.167 -0.6871  0.1869  0.2577
15150TIP3    H166941   3.980   2.732   0.186 -0.9622 -0.8149 -1.7364
15150TIP3    H266942   3.831   2.739   0.159 -1.0233  0.8256 -1.0675
15151TIP3   OH266943   0.870   1.533  14.183 -0.2902  0.2339 -0.0222
15151TIP3    H166944   0.808   1.568  14.119  0.8243 -1.1968 -1.9050
15151TIP3    H266945   0.916   1.463  14.137  1.2833 -0.1084  2.0082
15152TIP3   OH266946   5.178   3.603  13.235  0.9462 -0.1077 -0.3622
15152TIP3    H166947   5.129   3.527  13.205  0.1535 -0.3506  1.4614
15152TIP3    H266948   5.195   3.585  13.328 -2.1549  3.4283  0.9999
15153TIP3   OH266949   2.544   4.406  15.231 -0.0328  0.0576 -0.1259
15153TIP3    H166950   2.538   4.321  15.274 -1.8515  0.3429  0.2566
15153TIP3    H266951   2.452   4.432  15.218  0.5000  1.7444 -0.6294
15154TIP3   OH266952   5.556   1.091  16.289  0.2219 -0.3645  0.0279
15154TIP3    H166953   5.651   1.095  16.299  0.3330  1.0749 -1.3878
15154TIP3    H266954   5.542   1.066  16.197 -0.7316  2.7551 -0.7462
15155TIP3   OH266955   3.656   3.929  15.715 -0.3001  0.0255  0.4305
15155TIP3    H166956   3.645   3.931  15.620  0.1564  1.8823  0.4031
15155TIP3    H266957   3.750   3.941  15.729  0.0421 -3.0047  1.0614
15156TIP3   OH266958   6.817   0.413  11.525  0.0159  0.1127  0.0131
15156TIP3    H166959   6.775   0.444  11.444  1.2725 -2.0825 -1.5393
15156TIP3    H266960   6.793   0.321  11.531  1.3998 -0.1969  1.1680
15157TIP3   OH266961   2.629   2.153  13.908 -0.9016 -0.2629 -0.1229
15157TIP3    H166962   2.605   2.099  13.983 -2.4694  0.1698 -0.2879
15157TIP3    H266963   2.625   2.243  13.941 -1.3785 -0.0857 -0.6573
15158TIP3   OH266964   1.264   5.452  15.680 -0.2144 -0.2608 -0.5856
15158TIP3    H166965   1.258   5.523  15.744 -1.4656 -0.7819 -0.1104
15158TIP3    H266966   1.305   5.492  15.604  0.3671  0.6216  0.1753
15159TIP3   OH266967   6.482   6.133  15.973 -0.3613 -0.2959  0.0952
15159TIP3    H166968   6.541   6.098  16.041 -1.6148 -0.0379  1.3381
15159TIP3    H266969   6.531   6.122  15.892  2.1771  1.6025  1.3026
15160TIP3   OH266970   6.259   5.592  16.594 -0.1449  0.2165 -0.5888
15160TIP3    H166971   6.343   5.609  16.637 -0.5419  0.0881  0.2582
15160TIP3    H266972   6.219   5.678  16.583 -1.5419  0.0219  2.4307
15161TIP3   OH266973   4.686   6.402  16.485 -0.0184 -0.2492 -0.4409
15161TIP3    H166974   4.740   6.350  16.427  1.9738  1.4078 -0.1550
15161TIP3    H266975   4.638   6.461  16.427  2.1679  1.5884 -0.4572
15162TIP3   OH266976   1.322   2.147  10.808  0.1463 -0.3569  0.3631
15162TIP3    H166977   1.402   2.106  10.841  0.4161  0.3924  0.6459
15162TIP3    H266978   1.306   2.103  10.724  0.7188 -0.6877  0.4230
15163TIP3   OH266979   4.560   5.568  11.805 -0.2271 -0.1342  0.0223
15163TIP3    H166980   4.508   5.503  11.758 -0.1026  0.1723 -0.5522
15163TIP3    H266981   4.648   5.559  11.769 -0.1569  0.1775  0.1142
15164TIP3   OH266982   6.080   0.561  15.541 -0.0634 -0.1098 -0.3657
15164TIP3    H166983   6.170   0.577  15.567 -0.5728  0.1250  1.3335
15164TIP3    H266984   6.030   0.566  15.623 -1.1176 -3.9455 -0.6623
15165TIP3   OH266985   5.509   4.019   3.956  0.1383  0.5288 -0.0459
15165TIP3    H166986   5.441   3.994   4.018  1.4224 -2.9998  0.0158
15165TIP3    H266987   5.471   4.004   3.870 -0.2223  1.5767 -0.0819
15166TIP3   OH266988   0.112   2.752  16.552 -0.5303  0.2848 -0.5277
15166TIP3    H166989   0.038   2.768  16.611 -0.1329  0.0039  0.0462
15166TIP3    H266990   0.107   2.823  16.488 -2.4139 -0.7750 -1.6146
15167TIP3   OH266991   3.255   3.950   1.962  0.2695  0.1720  0.8404
15167TIP3    H166992   3.208   3.961   2.044  1.2448  1.6133  1.2136
15167TIP3    H266993   3.206   3.882   1.915 -1.6387  1.0064  1.6066
15168TIP3   OH266994   4.760   5.567   2.213 -0.1134 -0.4633  0.2217
15168TIP3    H166995   4.725   5.584   2.301 -1.6129 -0.5774 -0.3352
15168TIP3    H266996   4.764   5.653   2.172 -0.3969 -0.5304  0.0515
15169TIP3   OH266997   6.650   3.325  12.863  0.0642 -0.3713 -0.1089
15169TIP3    H166998   6.646   3.313  12.768 -2.4547 -0.7892  0.0255
15169TIP3    H266999   6.658   3.420  12.875 -0.0148 -0.2862 -0.7217
15170TIP3   OH267000   3.750   3.109  15.477 -0.5277  0.2823  0.9152
15170TIP3    H167001   3.799   3.083  15.399 -2.0028  0.7340 -0.1861
15170TIP3    H267002   3.702   3.030  15.503 -1.5392  0.6484  0.2031
15171TIP3   OH267003   1.073   6.249  16.996 -0.9180  0.4722 -0.2587
15171TIP3    H167004   1.157   6.205  17.005  0.5258  3.3323  0.8852
15171TIP3    H267005   1.070   6.276  16.904 -1.0305 -0.4413 -0.5272
15172TIP3   OH267006   3.227   6.226  12.498  1.2139 -0.0656  0.3611
15172TIP3    H167007   3.321   6.223  12.519  1.1384  1.9133  1.1212
15172TIP3    H267008   3.215   6.313  12.460 -0.0548 -0.8664 -1.1531
15173TIP3   OH267009   5.553   5.068   2.149 -0.6518  0.0625 -0.3696
15173TIP3    H167010   5.517   5.155   2.135  0.4049  1.0162  2.5191
15173TIP3    H267011   5.588   5.070   2.238 -2.4553 -3.9415  0.5596
15174TIP3   OH267012   2.878   6.417  17.283 -0.0453  0.6082  1.1846
15174TIP3    H167013   2.875   6.462  17.199  1.0457  0.5670  1.1165
15174TIP3    H267014   2.954   6.453  17.328  1.3675 -1.7075  0.7821
15175TIP3   OH267015   5.741   5.819   0.159 -0.3467 -0.2191 -0.0840
15175TIP3    H167016   5.810   5.813   0.093 -1.5777  0.8594 -1.5064
15175TIP3    H267017   5.784   5.857   0.236  0.6819  0.2735 -0.8955
15176TIP3   OH267018   5.152   0.450  11.510 -0.5323 -0.2295 -0.6416
15176TIP3    H167019   5.182   0.387  11.446  0.0104 -0.0738 -0.5447
15176TIP3    H267020   5.074   0.489  11.471 -0.6818 -0.7259 -0.8402
15177TIP3   OH267021   6.798   1.331   3.925 -0.0381 -0.3177  0.4613
15177TIP3    H167022   6.748   1.251   3.942  0.4971 -0.6755  0.3867
15177TIP3    H267023   6.855   1.340   4.002  2.2624 -1.8390 -0.9769
15178TIP3   OH267024   4.035   5.219  11.799  0.1601 -0.1261 -0.9060
15178TIP3    H167025   4.099   5.235  11.868 -1.5262 -0.2162  0.7026
15178TIP3    H267026   3.965   5.282  11.817 -2.2898 -3.0314  0.0350
15179TIP3   OH267027   3.440   3.446  16.026 -0.2802 -0.1945 -0.4069
15179TIP3    H167028   3.473   3.389  16.096  0.7272 -0.6911 -1.2881
15179TIP3    H267029   3.348   3.420  16.016 -1.0267  1.2589  2.1105
15180TIP3   OH267030   3.176   5.030   1.849  0.3025  0.3879 -0.3059
15180TIP3    H167031   3.136   5.069   1.772  0.8756 -2.4671 -2.1191
15180TIP3    H267032   3.270   5.025   1.828  0.3566 -1.1281  0.2205
15181TIP3   OH267033   5.198   2.354   5.243 -0.0836 -0.0145  0.1434
15181TIP3    H167034   5.203   2.428   5.182  0.2148 -0.1487  0.0018
15181TIP3    H267035   5.215   2.393   5.328  0.5304  0.0152  0.0155
15182TIP3   OH267036   2.068   3.340   2.784  0.5435 -0.4568  0.2472
15182TIP3    H167037   2.009   3.360   2.711 -0.3154 -1.2426  0.7222
15182TIP3    H267038   2.043   3.252   2.812  1.2338 -0.3748  1.1358
15183TIP3   OH267039   2.460   0.149  14.274  0.4479 -0.0368 -0.2733
15183TIP3    H167040   2.461   0.125  14.366 -1.1968 -0.1833 -0.2863
15183TIP3    H267041   2.526   0.092  14.234 -0.0438 -1.1751  0.5158
15184TIP3   OH267042   3.486   6.161  13.652 -0.4533 -0.2437  0.0154
15184TIP3    H167043   3.432   6.232  13.688 -0.7301 -0.7262  0.5524
15184TIP3    H267044   3.451   6.081  13.692  1.4397 -0.4538  1.3203
15185TIP3   OH267045   1.710   5.615  13.863 -0.5809 -0.0948 -0.1048
15185TIP3    H167046   1.624   5.616  13.905 -0.6296 -0.3843 -0.1922
15185TIP3    H267047   1.692   5.587  13.773 -0.3950 -0.1509 -0.1245
15186TIP3   OH267048   2.046   0.575   5.243 -0.1551 -0.2956  0.0667
15186TIP3    H167049   2.030   0.562   5.149 -1.2297  1.1293  0.0341
15186TIP3    H267050   2.125   0.630   5.246  0.1630 -0.7458  0.0167
15187TIP3   OH267051   6.498   5.857   3.344 -0.2052  0.1447 -0.1944
15187TIP3    H167052   6.437   5.927   3.321 -1.8210 -1.5442 -1.2799
15187TIP3    H267053   6.502   5.802   3.266  0.3686 -1.4128  0.9054
15188TIP3   OH267054   6.694   1.779  12.070  0.1630  0.2217 -0.2911
15188TIP3    H167055   6.735   1.794  11.985  1.0602  0.5455  0.1931
15188TIP3    H267056   6.755   1.721  12.116  0.7749  1.8194  0.9561
15189TIP3   OH267057   5.510   1.646   1.724 -0.0441 -0.0812 -0.2328
15189TIP3    H167058   5.512   1.727   1.774  0.8567  0.2506 -0.7883
15189TIP3    H267059   5.438   1.659   1.661 -0.9444 -0.3613  0.7338
15190TIP3   OH267060   0.632   4.286   5.759  0.2017  0.0728  0.3177
15190TIP3    H167061   0.689   4.331   5.697 -1.3036 -0.8805 -1.7934
15190TIP3    H267062   0.691   4.230   5.809  1.5110  1.3060  0.1836
15191TIP3   OH267063   3.434   3.728  12.666 -0.1802  0.5294 -0.2831
15191TIP3    H167064   3.494   3.654  12.658 -1.0071 -0.1605 -0.1543
15191TIP3    H267065   3.359   3.703  12.612 -1.6716  0.0424  1.9321
15192TIP3   OH267066   0.053   4.900  11.407 -0.5576  0.4524  0.0870
15192TIP3    H167067   0.006   4.907  11.323 -0.3838  0.8959  0.0284
15192TIP3    H267068   0.058   4.805  11.422 -0.8172  0.3756 -0.2755
15193TIP3   OH267069   1.975   1.482   4.771  0.4205  0.7108 -0.2861
15193TIP3    H167070   2.042   1.526   4.823  1.9607 -0.3002 -1.3833
15193TIP3    H267071   1.992   1.511   4.681  0.1860 -0.5302 -0.7376
15194TIP3   OH267072   4.984   5.757  16.485 -0.3819  0.1738 -0.2403
15194TIP3    H167073   5.068   5.769  16.528 -0.2052  0.9815 -0.8109
15194TIP3    H267074   5.005   5.744  16.393 -0.9071  0.8066 -0.4502
15195TIP3   OH267075   4.408   2.662  12.899  0.3078 -0.0200  0.2986
15195TIP3    H167076   4.426   2.573  12.871  1.2974  0.8005 -1.7396
15195TIP3    H267077   4.447   2.669  12.986 -0.9237 -1.9491  1.0341
15196TIP3   OH267078   2.233   1.849   3.771  0.0726  0.2528 -0.4450
15196TIP3    H167079   2.231   1.945   3.771 -0.7223  0.2489  0.8290
15196TIP3    H267080   2.235   1.825   3.864  0.9043 -0.9633 -0.7591
15197TIP3   OH267081   5.289   4.062  12.903 -0.4373  0.2078  0.3208
15197TIP3    H167082   5.275   3.977  12.945 -3.2747 -0.8169 -2.4706
15197TIP3    H267083   5.219   4.118  12.937  1.0351  1.2830  1.6554
15198TIP3   OH267084   4.630   1.916  16.133  0.5037 -0.4180  0.0821
15198TIP3    H167085   4.652   1.982  16.199 -0.0427  0.5886 -0.7221
15198TIP3    H267086   4.655   1.833  16.173 -0.2406  0.1293  1.7562
15199TIP3   OH267087   4.828   3.060   5.015  0.0473  0.2667  0.2408
15199TIP3    H167088   4.734   3.070   5.031 -0.1100  0.6675 -0.9008
15199TIP3    H267089   4.860   3.149   5.004  0.6882  0.1719  1.2926
15200TIP3   OH267090   5.777   4.629  16.406  0.3193 -0.4120 -0.4592
15200TIP3    H167091   5.808   4.558  16.462  0.8921  0.0966 -0.1221
15200TIP3    H267092   5.707   4.671  16.457  0.3808 -0.3704 -0.4104
15201TIP3   OH267093   3.613   5.351   0.113  0.5989 -0.3577 -0.1693
15201TIP3    H167094   3.657   5.269   0.135 -0.7823 -1.1447 -0.2751
15201TIP3    H267095   3.552   5.364   0.186  2.1645  1.6011  0.8460
15202TIP3   OH267096   6.199   3.731   5.727 -0.2878  0.0074  0.1495
15202TIP3    H167097   6.185   3.641   5.697  1.4312  0.0301 -0.7952
15202TIP3    H267098   6.220   3.722   5.820  2.6847 -0.8737 -0.5454
15203TIP3   OH267099   4.430   0.444   1.819 -0.1006  0.3644 -0.1227
15203TIP3    H167100   4.405   0.523   1.867 -0.3958 -0.2500  0.7458
15203TIP3    H267101   4.526   0.449   1.816  0.1389 -0.9069  2.8962
15204TIP3   OH267102   0.537   3.688  15.867 -0.0327  0.0981 -0.2553
15204TIP3    H167103   0.563   3.605  15.827 -2.0089 -0.7093  0.0472
15204TIP3    H267104   0.571   3.755  15.808  1.9605 -0.9016 -0.2681
15205TIP3   OH267105   4.357   3.606   2.241  0.2464  0.5359  0.2022
15205TIP3    H167106   4.335   3.654   2.161  0.6040  0.7228  0.2192
15205TIP3    H267107   4.401   3.527   2.210  0.2168  0.5163  0.2080
15206TIP3   OH267108   5.603   6.679   4.377 -0.1479  0.2090 -0.4216
15206TIP3    H167109   5.660   6.603   4.362  0.3961  0.5328 -0.0170
15206TIP3    H267110   5.648   6.730   4.444 -0.0794  1.3390 -1.3174
15207TIP3   OH267111   5.469   3.712   1.463 -0.6920  0.5920 -0.8817
15207TIP3    H167112   5.513   3.765   1.396  0.8035  0.0124 -0.3739
15207TIP3    H267113   5.463   3.771   1.539  2.0254 -0.2793  0.0753
15208TIP3   OH267114   3.067   4.605   1.037  0.3132  0.0358  0.6975
15208TIP3    H167115   3.015   4.670   0.991  0.2625  1.8490  3.2005
15208TIP3    H267116   3.055   4.524   0.987 -2.8555  1.0060 -0.2006
15209TIP3   OH267117   2.501   4.874  16.603 -0.0072  0.3453 -0.2604
15209TIP3    H167118   2.506   4.968  16.618  1.1854  0.1131  0.8766
15209TIP3    H267119   2.592   4.846  16.591 -0.3666 -0.6256 -0.7761
15210TIP3   OH267120   5.144   6.627   4.112  0.6238  0.0429 -0.6114
15210TIP3    H167121   5.225   6.633   4.163  0.3731 -0.2171 -0.1856
15210TIP3    H267122   5.151   6.544   4.066  0.2623 -0.3229 -0.0047
15211TIP3   OH267123   4.022   0.862   2.383 -0.0961  0.1292 -0.2538
15211TIP3    H167124   3.949   0.906   2.426 -0.8336  0.8042 -2.1156
15211TIP3    H267125   4.100   0.908   2.415 -0.6042  0.4432  0.5407
15212TIP3   OH267126   6.811   2.296   1.053  0.1538  0.1692 -0.2806
15212TIP3    H167127   6.855   2.250   1.124  1.5451  0.5219 -0.9114
15212TIP3    H267128   6.873   2.295   0.981 -0.3547  1.8111 -0.7599
15213TIP3   OH267129   1.367   1.741  16.102  0.1850  0.4682  0.4001
15213TIP3    H167130   1.373   1.780  16.190 -0.3036  1.8230 -0.1512
15213TIP3    H267131   1.350   1.648  16.118  3.3067  0.0740  1.7813
15214TIP3   OH267132   0.087   2.781   1.557 -0.4655  0.2144  0.5540
15214TIP3    H167133   0.083   2.857   1.615 -0.4077  1.8849 -1.5155
15214TIP3    H267134   0.165   2.733   1.586 -1.1056  0.3565  2.5669
15215TIP3   OH267135   3.735   4.518   1.670 -0.0160 -0.3103  0.1080
15215TIP3    H167136   3.676   4.498   1.597  0.4536 -1.1458 -0.0528
15215TIP3    H267137   3.686   4.492   1.748  1.2617 -3.8866 -0.1956
15216TIP3   OH267138   5.249   5.378  15.340  0.5166  0.9808  0.0592
15216TIP3    H167139   5.243   5.427  15.422  0.0823  1.6846 -0.3931
15216TIP3    H267140   5.333   5.332  15.346  1.5804  2.8458 -0.1071
15217TIP3   OH267141   3.653   0.548   0.716  0.1587  0.3259 -0.0144
15217TIP3    H167142   3.685   0.614   0.655  0.2026 -0.3770 -0.7726
15217TIP3    H267143   3.686   0.576   0.802  2.0608  0.1068 -0.6439
15218TIP3   OH267144   2.300   1.493   4.473  0.8779 -0.3221 -0.2506
15218TIP3    H167145   2.379   1.545   4.457  1.9770 -1.6852  0.5789
15218TIP3    H267146   2.333   1.407   4.498 -0.8925 -1.2191 -0.8817
15219TIP3   OH267147   4.112   6.040   0.326 -0.0353 -0.2041 -0.4129
15219TIP3    H167148   4.115   6.016   0.233 -0.8486  1.1639 -0.8019
15219TIP3    H267149   4.024   6.076   0.339  0.4102  0.5190  0.6676
15220TIP3   OH267150   6.138   2.710   5.080  0.2973 -0.2134 -0.0667
15220TIP3    H167151   6.097   2.768   5.016 -0.6471 -1.7631 -0.8855
15220TIP3    H267152   6.209   2.667   5.032  0.5087 -0.3095  0.3277
15221TIP3   OH267153   4.938   2.701   4.119  0.3808  0.3018 -0.7325
15221TIP3    H167154   5.030   2.685   4.098  0.5107  2.3811 -1.8720
15221TIP3    H267155   4.895   2.617   4.102  2.1115 -0.8245  0.2667
15222TIP3   OH267156   1.714   0.758  16.498  0.0344  0.2893 -0.3399
15222TIP3    H167157   1.677   0.693  16.557  0.5488  0.7678  0.5082
15222TIP3    H267158   1.714   0.840  16.548 -1.3533  1.1424 -1.6618
15223TIP3   OH267159   0.592   0.755  14.113 -0.2434  0.2423 -0.8325
15223TIP3    H167160   0.550   0.835  14.083  0.7340  1.3351  0.6513
15223TIP3    H267161   0.683   0.781  14.130  0.0323 -1.1387 -0.1439
15224TIP3   OH267162   2.365   1.926   3.489 -0.6678 -0.2227 -0.4408
15224TIP3    H167163   2.398   2.005   3.532 -0.8153 -0.2054 -0.3579
15224TIP3    H267164   2.404   1.854   3.538 -3.4240 -0.2685  1.8597
15225TIP3   OH267165   3.889   6.797   2.325  0.0663 -0.0824  0.1183
15225TIP3    H167166   3.831   6.764   2.394 -0.8326  1.7989  0.3065
15225TIP3    H267167   3.970   6.819   2.371 -0.2047  0.2878  0.4315
15226TIP3   OH267168   4.524   2.174  15.668 -0.5631 -0.1391  0.1803
15226TIP3    H167169   4.507   2.080  15.667  0.4076 -0.3352  1.3003
15226TIP3    H267170   4.443   2.212  15.703 -0.6862 -0.6238  0.4348
15227TIP3   OH267171   2.898   6.096  14.500 -0.0431 -0.0935 -0.5200
15227TIP3    H167172   2.877   6.138  14.583  0.8794 -0.9880  0.1742
15227TIP3    H267173   2.813   6.063  14.469 -0.6499  1.6077 -0.7181
15228TIP3   OH267174   2.233   6.683   1.816  0.4761  0.1163 -0.0230
15228TIP3    H167175   2.249   6.668   1.722  1.4686 -0.8812  0.2826
15228TIP3    H267176   2.314   6.722   1.848 -0.5370  2.1826  0.0656
15229TIP3   OH267177   2.960   6.802   3.167  0.3138 -0.0758 -0.3563
15229TIP3    H167178   2.938   6.772   3.078 -1.0117 -3.5102  1.0335
15229TIP3    H267179   3.054   6.788   3.174  0.5179  0.7156 -1.3816
15230TIP3   OH267180   3.239   5.283  15.089  0.0562  0.2020 -0.3347
15230TIP3    H167181   3.245   5.307  15.181 -0.3225 -1.6867  0.2030
15230TIP3    H267182   3.147   5.260  15.076  0.1042  0.4831 -1.1957
15231TIP3   OH267183   2.163   5.430  13.694 -0.2317  0.3558 -0.0177
15231TIP3    H167184   2.228   5.382  13.643  0.4539 -0.4839  1.6066
15231TIP3    H267185   2.079   5.400  13.659  0.2222 -0.4792 -0.4135
15232TIP3   OH267186   2.627   2.697  12.786  0.6504  0.6148  0.2130
15232TIP3    H167187   2.595   2.628  12.727 -0.5285  2.4344 -1.3539
15232TIP3    H267188   2.656   2.650  12.864  1.2251 -1.7890 -1.3648
15233TIP3   OH267189   3.001   4.501  15.043  0.2899  0.0217  0.2074
15233TIP3    H167190   2.988   4.576  14.985  2.1418 -0.7992 -1.3603
15233TIP3    H267191   2.949   4.520  15.121  2.6224  4.0601  0.8992
15234TIP3   OH267192   4.528   6.386  14.762  0.7927  0.0240  0.0963
15234TIP3    H167193   4.494   6.465  14.720 -0.6133 -1.0245 -0.7632
15234TIP3    H267194   4.528   6.407  14.855 -0.4514  0.7232 -0.0483
15235TIP3   OH267195   4.542   6.313  14.052  0.2153  0.4322  0.3931
15235TIP3    H167196   4.523   6.270  13.969 -0.8960  0.5785  0.5613
15235TIP3    H267197   4.522   6.406  14.036  2.5405  0.9030  0.0467
15236TIP3   OH267198   5.790   2.329   4.501 -0.6379 -0.3001  0.6156
15236TIP3    H167199   5.813   2.405   4.554  1.9664 -0.9584  0.4951
15236TIP3    H267200   5.775   2.364   4.414  2.6754 -0.1323  0.0544
15237TIP3   OH267201   0.487   1.492  15.133  0.3937  0.0372 -0.6955
15237TIP3    H167202   0.417   1.557  15.126  0.2570 -0.1177 -0.7659
15237TIP3    H267203   0.447   1.410  15.103  0.7083  0.0241 -1.0858
15238TIP3   OH267204   2.457   6.506  12.241 -0.0225  0.2331 -0.0002
15238TIP3    H167205   2.498   6.459  12.168 -0.3406 -0.0299 -0.0059
15238TIP3    H267206   2.374   6.539  12.206 -0.8373 -1.1052  0.6521
15239TIP3   OH267207   0.146   0.605   4.417  0.2564 -0.3486 -0.0558
15239TIP3    H167208   0.162   0.535   4.480 -0.0982  0.3740  0.8387
15239TIP3    H267209   0.163   0.564   4.332 -0.4446 -1.6722  0.4209
15240TIP3   OH267210   4.426   5.137  16.440 -0.5467  0.3166 -0.2771
15240TIP3    H167211   4.450   5.158  16.530  1.5968  1.5232 -1.0930
15240TIP3    H267212   4.336   5.168  16.431 -0.3070  1.4240  1.0534
15241TIP3   OH267213   6.426   3.137   3.186 -0.4513  0.4932  0.1951
15241TIP3    H167214   6.459   3.200   3.251  0.2004 -0.6639  1.0038
15241TIP3    H267215   6.332   3.134   3.201 -0.7432  2.5182 -0.9679
15242TIP3   OH267216   2.396   3.711  12.172  0.2875  0.6630 -0.0629
15242TIP3    H167217   2.440   3.754  12.245  0.0265 -0.5945  0.8667
15242TIP3    H267218   2.330   3.773  12.143  0.2650  1.1016  0.9092
15243TIP3   OH267219   2.268   0.456  13.054 -0.2756 -0.5936 -0.1070
15243TIP3    H167220   2.290   0.417  13.138  3.1392 -2.0503 -1.5899
15243TIP3    H267221   2.225   0.386  13.005  0.3251 -0.6392 -0.5770
15244TIP3   OH267222   2.630   0.639  13.824 -0.0671 -0.4277 -0.2409
15244TIP3    H167223   2.702   0.610  13.880  0.8000  1.2672 -0.4281
15244TIP3    H267224   2.672   0.691  13.756 -1.2407 -1.4208 -1.7479
15245TIP3   OH267225   2.902   5.184   4.331  0.4301 -0.0349 -0.4033
15245TIP3    H167226   2.887   5.277   4.311  3.0599  0.9781  1.9606
15245TIP3    H267227   2.982   5.162   4.285 -0.5116 -1.3437 -1.4376
15246TIP3   OH267228   3.744   1.900   3.656 -0.4102  0.3313 -0.2957
15246TIP3    H167229   3.730   1.806   3.664 -0.0511  0.5310  3.5836
15246TIP3    H267230   3.660   1.936   3.630 -0.9381 -0.9216 -0.3089
15247TIP3   OH267231   5.598   3.056  13.441  0.2222  0.2099 -0.7046
15247TIP3    H167232   5.554   3.007  13.510 -2.1395  1.1101 -1.5263
15247TIP3    H267233   5.683   3.012  13.431  0.0764 -0.7315  1.8382
15248TIP3   OH267234   1.018   5.475   5.901  1.0276  0.2438 -0.3689
15248TIP3    H167235   1.106   5.451   5.930  0.7655 -0.1560  0.0986
15248TIP3    H267236   0.997   5.555   5.949 -0.0430 -1.2827  1.8019
15249TIP3   OH267237   3.218   6.004  11.978 -0.6110 -0.3432 -0.2220
15249TIP3    H167238   3.263   6.088  11.972 -2.5662  0.6519 -1.3579
15249TIP3    H267239   3.139   6.022  12.028 -1.6618 -1.2205 -1.5297
15250TIP3   OH267240   5.658   3.399  12.622  0.5177  0.1516 -0.4399
15250TIP3    H167241   5.732   3.376  12.565 -0.6867 -1.4554 -1.3910
15250TIP3    H267242   5.590   3.430  12.562  0.0221  0.5894  0.3376
15251TIP3   OH267243   0.340   5.589   0.916  0.0605 -0.2420  0.1527
15251TIP3    H167244   0.256   5.626   0.944 -0.6080 -1.3803 -0.2873
15251TIP3    H267245   0.316   5.504   0.878  1.4089 -0.5308 -0.0522
15252TIP3   OH267246   6.597   0.563   6.167 -0.1998  0.6510  0.0237
15252TIP3    H167247   6.549   0.644   6.183 -0.3112  0.2099  2.0406
15252TIP3    H267248   6.681   0.591   6.131  0.8750  1.8792  3.2651
15253TIP3   OH267249   5.520   2.076   3.464 -0.5413  0.6392 -0.2529
15253TIP3    H167250   5.493   2.163   3.492  0.0684  1.4075 -1.9763
15253TIP3    H267251   5.447   2.043   3.411 -0.0350  0.8602 -1.1083
15254TIP3   OH267252   5.449   5.993  12.316 -0.1688 -0.1927  0.4396
15254TIP3    H167253   5.388   5.957  12.251  1.0350  1.0607 -1.4406
15254TIP3    H267254   5.536   5.973  12.281  0.5057  1.1728  1.2742
15255TIP3   OH267255   4.074   6.075   2.492  0.5428 -0.3344  0.5940
15255TIP3    H167256   4.039   6.016   2.425  1.5639  0.8483 -1.0035
15255TIP3    H267257   4.132   6.134   2.445  0.2421  1.4013  2.3184
15256TIP3   OH267258   0.290   4.035  16.145 -0.2938 -0.1156 -0.5395
15256TIP3    H167259   0.326   3.946  16.150  0.4172  0.1895 -0.1959
15256TIP3    H267260   0.344   4.079  16.080  0.2082  0.4582  0.2528
15257TIP3   OH267261   5.497   6.237  13.352 -0.0820 -0.1903 -0.5296
15257TIP3    H167262   5.451   6.229  13.269  0.4304 -0.4486 -0.7927
15257TIP3    H267263   5.589   6.246  13.328 -0.1118  1.5320 -0.0430
15258TIP3   OH267264   5.353   3.811   3.178 -0.6395 -0.7087  0.2017
15258TIP3    H167265   5.343   3.716   3.191 -0.0401 -0.8977 -0.7319
15258TIP3    H267266   5.442   3.822   3.146 -1.0472  0.0802 -0.6778
15259TIP3   OH267267   6.324   5.127  15.770 -0.1546 -0.3898  0.5720
15259TIP3    H167268   6.297   5.174  15.849  0.9758  0.8646  0.2288
15259TIP3    H267269   6.252   5.066  15.753 -1.1817  0.5002  1.6092
15260TIP3   OH267270   2.816   5.519  16.736 -0.0252  0.7267 -0.3535
15260TIP3    H167271   2.834   5.612  16.725  0.2742  0.6470 -0.5552
15260TIP3    H267272   2.889   5.475  16.692  0.4678  0.4028  0.7557
15261TIP3   OH267273   2.624   1.338  12.318  0.1167 -0.5371 -0.0779
15261TIP3    H167274   2.657   1.409  12.372 -0.9996  1.2361 -1.6966
15261TIP3    H267275   2.573   1.283  12.379  3.3020 -1.5605  1.7575
15262TIP3   OH267276   6.024   3.361  12.968 -0.1097 -0.7496  0.0806
15262TIP3    H167277   6.019   3.377  12.874 -0.2313  1.2703  0.4285
15262TIP3    H267278   5.977   3.278  12.980 -0.8284 -0.5932 -1.5231
15263TIP3   OH267279   3.886   5.506  16.676  0.0571  0.1239  0.0989
15263TIP3    H167280   3.952   5.574  16.689  0.4148 -0.3850  1.0291
15263TIP3    H267281   3.842   5.500  16.761  0.1857 -0.9640  0.0986
15264TIP3   OH267282   4.181   1.798   5.360 -0.1136  0.1979  0.0968
15264TIP3    H167283   4.093   1.788   5.321 -0.2042  0.0809  0.3315
15264TIP3    H267284   4.240   1.795   5.285 -0.2952  0.0364 -0.0421
15265TIP3   OH267285   2.428   3.384  15.895 -0.1306 -0.5119  0.0476
15265TIP3    H167286   2.374   3.445  15.946  0.3328  0.7939 -0.9809
15265TIP3    H267287   2.381   3.372  15.813 -0.2092 -1.5413  0.2405
15266TIP3   OH267288   1.005   1.082  17.140 -0.4638 -0.2806  0.4010
15266TIP3    H167289   1.040   1.020  17.077 -0.2225 -0.6264  0.8722
15266TIP3    H267290   0.982   1.029  17.216  1.0213  0.3917  1.3230
15267TIP3   OH267291   0.160   3.686   3.460  0.2508 -0.0427  0.0664
15267TIP3    H167292   0.194   3.747   3.395  2.5318 -2.8544 -1.4813
15267TIP3    H267293   0.068   3.673   3.435  0.0889  1.7201 -0.3312
15268TIP3   OH267294   3.913   4.504  11.932  0.0304 -0.3785  0.3827
15268TIP3    H167295   3.988   4.550  11.969 -0.2446 -0.0969  0.5974
15268TIP3    H267296   3.868   4.570  11.879  1.6162 -1.3346 -2.2491
15269TIP3   OH267297   5.942   6.476  13.458  0.2191 -0.1681  0.7624
15269TIP3    H167298   6.005   6.427  13.405  0.6760 -0.5980  1.6975
15269TIP3    H267299   5.904   6.539  13.397  1.9848  0.5031  0.3073
15270TIP3   OH267300   3.520   0.817  16.516  0.0146 -0.7883  0.5056
15270TIP3    H167301   3.543   0.908  16.496  0.3940 -0.7543  1.0773
15270TIP3    H267302   3.427   0.819  16.536 -0.1934 -0.6881 -0.4426
15271TIP3   OH267303   3.152   5.304   4.814  0.0536  0.2567 -0.0712
15271TIP3    H167304   3.065   5.317   4.776 -0.0635 -0.3975 -0.0389
15271TIP3    H267305   3.146   5.343   4.901 -0.9670 -1.9001  0.8773
15272TIP3   OH267306   4.351   1.188   6.267 -0.1515 -0.2709 -0.4798
15272TIP3    H167307   4.301   1.122   6.218 -0.8528 -0.1996  0.1422
15272TIP3    H267308   4.331   1.271   6.223  0.5518 -0.4297 -1.1204
15273TIP3   OH267309   4.356   3.075   4.927  0.7167 -0.4869  0.2158
15273TIP3    H167310   4.278   3.130   4.936  0.8287 -0.4103  0.7049
15273TIP3    H267311   4.322   2.985   4.926  0.7387 -0.5253  1.8565
15274TIP3   OH267312   1.099   4.118   0.001 -0.1152 -0.5035  0.5933
15274TIP3    H167313   1.124   4.133  -0.090  1.0153  0.2174  1.0122
15274TIP3    H267314   1.062   4.030   0.002  0.5591 -0.7999 -0.4221
15275TIP3   OH267315   2.856   1.851  11.574  0.2398 -0.0718 -0.3431
15275TIP3    H167316   2.891   1.936  11.546 -0.1605 -0.1909 -1.2440
15275TIP3    H267317   2.849   1.801  11.493  3.1130 -1.9574  0.5101
15276TIP3   OH267318   1.357   4.737   1.066 -0.3124  0.5660 -0.3569
15276TIP3    H167319   1.362   4.652   1.111  1.0921  0.9310  0.1763
15276TIP3    H267320   1.351   4.801   1.136 -0.2717  0.9890 -0.7385
15277TIP3   OH267321   4.183   2.142  12.283 -0.3788 -0.6541 -0.1886
15277TIP3    H167322   4.151   2.093  12.359 -0.1656 -0.4215  0.0508
15277TIP3    H267323   4.132   2.107  12.209  0.9643 -2.4325 -0.2985
15278TIP3   OH267324   6.507   2.322   4.871  0.7316 -0.4115  0.3936
15278TIP3    H167325   6.551   2.372   4.802 -1.9955  0.2458 -0.9293
15278TIP3    H267326   6.578   2.299   4.932  2.7120  1.5809 -1.0362
15279TIP3   OH267327   2.162   5.037  10.950 -0.3925 -0.1096 -0.4369
15279TIP3    H167328   2.121   4.950  10.949 -0.6603 -0.0096  0.8285
15279TIP3    H267329   2.116   5.084  11.020  1.1169  0.3870  0.2235
15280TIP3   OH267330   6.073   3.146  12.272 -0.6791  0.1873 -0.3773
15280TIP3    H167331   6.155   3.196  12.268 -1.5141  1.6760  0.7333
15280TIP3    H267332   6.035   3.168  12.357 -1.0747 -2.3769  0.1624
15281TIP3   OH267333   5.178   5.751   0.936  0.8263 -0.3798 -0.5553
15281TIP3    H167334   5.178   5.753   0.840 -1.0770 -0.0478 -0.5698
15281TIP3    H267335   5.158   5.659   0.957  1.1493 -0.4320 -0.4788
15282TIP3   OH267336   2.309   3.874   4.012  0.7613  0.3315 -0.2447
15282TIP3    H167337   2.311   3.792   3.963 -2.7339  1.0911 -1.8566
15282TIP3    H267338   2.359   3.936   3.958 -1.4910  0.6784 -2.0026
15283TIP3   OH267339   2.977   2.709  13.140  1.0295  0.4307 -0.1501
15283TIP3    H167340   2.961   2.704  13.234  0.2505  0.2896 -0.2853
15283TIP3    H267341   3.036   2.637  13.122  0.4196 -0.1275  0.0780
15284TIP3   OH267342   6.128   2.734   3.213  0.0661 -0.3527  0.2936
15284TIP3    H167343   6.054   2.711   3.269  0.4978 -0.6641  0.7509
15284TIP3    H267344   6.202   2.686   3.252  0.3330 -0.7218 -0.6560
15285TIP3   OH267345   5.134   1.242   5.144  0.2758  0.4904  0.2757
15285TIP3    H167346   5.164   1.225   5.054  0.7397 -0.0226  0.5262
15285TIP3    H267347   5.068   1.311   5.134 -1.1295 -0.9428 -0.6787
15286TIP3   OH267348   3.088   5.217  16.407 -0.0335  0.4412  0.4649
15286TIP3    H167349   3.178   5.247  16.396 -0.2829  0.9744 -0.1409
15286TIP3    H267350   3.053   5.215  16.318  0.3143 -2.6905  0.3479
15287TIP3   OH267351   1.911   6.098  16.219 -0.5244 -0.2884  0.1424
15287TIP3    H167352   1.831   6.102  16.166  0.1994 -0.4956 -0.9686
15287TIP3    H267353   1.982   6.107  16.156  0.3523 -0.8437  1.0500
15288TIP3   OH267354   5.580   3.719  10.288  0.1274 -0.0489 -0.6031
15288TIP3    H167355   5.532   3.643  10.256  0.8040 -0.8540  0.2374
15288TIP3    H267356   5.553   3.728  10.379  2.9348 -1.6977  0.4709
15289TIP3   OH267357   2.609   0.291   4.812 -0.1491 -0.8331  0.6415
15289TIP3    H167358   2.666   0.217   4.792 -0.0166 -0.5004 -0.2212
15289TIP3    H267359   2.670   0.364   4.826 -0.4304  0.0188 -2.3566
15290TIP3   OH267360   1.223   4.023  16.291 -0.0725  0.3606 -0.1825
15290TIP3    H167361   1.302   4.038  16.239 -1.3071 -1.2515 -2.6242
15290TIP3    H267362   1.222   3.929  16.306 -0.0536  0.7230  2.3417
15291TIP3   OH267363   5.319   5.958  13.391  0.0175 -0.5268 -0.2500
15291TIP3    H167364   5.288   5.987  13.306 -0.1775  1.6859  0.5535
15291TIP3    H267365   5.264   6.005  13.454  0.5351 -1.7093  1.1186
15292TIP3   OH267366   6.773   4.581   5.973  1.0045  0.4514  0.1024
15292TIP3    H167367   6.820   4.539   6.046 -1.6969  0.1934  1.7668
15292TIP3    H267368   6.714   4.643   6.016 -1.3634 -0.4201 -1.7703
15293TIP3   OH267369   0.667   4.391  11.670 -0.7446  0.2263  0.2916
15293TIP3    H167370   0.646   4.425  11.584 -1.3857 -1.0732 -0.0901
15293TIP3    H267371   0.729   4.453  11.707 -2.5344  2.2267 -0.0135
15294TIP3   OH267372   3.098   4.554   0.601 -0.1212 -0.4967  0.4591
15294TIP3    H167373   3.083   4.518   0.514 -0.6286  0.7373  0.0273
15294TIP3    H267374   3.189   4.584   0.600 -0.1842 -0.3137  0.2998
15295TIP3   OH267375   0.822   0.542  16.612 -0.6222  0.0586  0.1581
15295TIP3    H167376   0.794   0.480  16.544 -1.4133  1.3019 -0.6787
15295TIP3    H267377   0.880   0.602  16.566 -0.3479  0.2981  0.8215
15296TIP3   OH267378   4.440   6.612  14.427 -0.5304 -0.7005  0.4774
15296TIP3    H167379   4.467   6.525  14.398  1.4816  0.1433 -0.3212
15296TIP3    H267380   4.429   6.662  14.346 -1.3558 -0.1260  0.9413
15297TIP3   OH267381   2.729   0.359  16.552 -0.2708  0.4809  0.4524
15297TIP3    H167382   2.796   0.417  16.516  1.2001 -1.3152  0.2157
15297TIP3    H267383   2.663   0.351  16.482 -0.9858  2.5859  0.8450
15298TIP3   OH267384   1.653   2.539   3.077 -0.0707 -0.5556  0.0049
15298TIP3    H167385   1.659   2.443   3.081 -0.2379 -0.4938  2.6899
15298TIP3    H267386   1.561   2.558   3.093  0.1106  0.0849  0.2872
15299TIP3   OH267387   4.098   2.850   5.537  0.0981  0.0456  0.2734
15299TIP3    H167388   4.071   2.765   5.572 -1.4050  0.4108  0.0320
15299TIP3    H267389   4.172   2.876   5.592  0.2135 -1.1555  0.7036
15300TIP3   OH267390   3.330   0.467   1.009  0.1729  0.5175  0.4376
15300TIP3    H167391   3.333   0.441   0.917 -1.3661  0.0664  0.5070
15300TIP3    H267392   3.364   0.557   1.009 -0.1186  0.6393 -0.6210
15301TIP3   OH267393   3.670   5.893  16.194  0.1681 -0.3506 -0.1018
15301TIP3    H167394   3.694   5.813  16.240 -0.7861 -0.6055 -0.0261
15301TIP3    H267395   3.650   5.865  16.105 -3.5846 -0.7970  0.7840
15302TIP3   OH267396   4.107   3.937  12.372 -0.4173  0.2936  0.1550
15302TIP3    H167397   4.178   3.956  12.432 -0.1610  0.5669 -0.2289
15302TIP3    H267398   4.092   3.843  12.380  0.5061  0.1000 -0.3302
15303TIP3   OH267399   1.919   1.138   2.926 -0.1362 -0.0075  0.0962
15303TIP3    H167400   1.971   1.089   2.862 -1.7158 -1.5110 -0.0616
15303TIP3    H267401   1.835   1.153   2.884 -0.9157 -0.2900  1.4998
15304TIP3   OH267402   3.361   3.468  13.461 -0.3928 -0.1912 -0.4293
15304TIP3    H167403   3.289   3.413  13.492  2.4443 -2.1350  3.1107
15304TIP3    H267404   3.360   3.458  13.366 -1.9158 -3.9338 -0.1150
15305TIP3   OH267405   0.815   0.367   0.716 -0.6936 -0.2058 -0.0331
15305TIP3    H167406   0.793   0.278   0.688  0.4570 -0.3983 -0.3621
15305TIP3    H267407   0.744   0.392   0.774 -0.8854 -1.4537  0.2892
15306TIP3   OH267408   6.483   3.077   1.494 -0.0724  0.2541  0.0732
15306TIP3    H167409   6.412   3.090   1.557  0.2941  1.1428  0.3076
15306TIP3    H267410   6.441   3.084   1.409 -0.4128 -0.0708  0.2125
15307TIP3   OH267411   2.574   0.888   3.951 -0.1769 -0.0962  0.2311
15307TIP3    H167412   2.516   0.925   3.885  0.8125  0.9800 -0.0620
15307TIP3    H267413   2.528   0.811   3.984 -1.3191  0.1863 -0.6850
15308TIP3   OH267414   0.622   1.570  11.935 -0.4851 -0.4457 -0.1057
15308TIP3    H167415   0.681   1.543  11.864 -0.3933 -0.8801  0.1339
15308TIP3    H267416   0.550   1.614  11.890 -0.6999 -1.2085 -0.5105
15309TIP3   OH267417   6.695   4.722  15.921  0.4391  0.7453 -0.5426
15309TIP3    H167418   6.639   4.727  15.844 -0.4171  2.4733  0.1521
15309TIP3    H267419   6.729   4.811  15.932 -0.9184  1.0101  2.0988
15310TIP3   OH267420   4.917   6.126  14.428 -0.0183 -0.3527  0.1897
15310TIP3    H167421   4.989   6.154  14.485 -1.3426 -0.0229  1.7248
15310TIP3    H267422   4.901   6.035  14.454 -0.8613 -0.0881  0.5973
15311TIP3   OH267423   0.736   2.964   1.184  0.2898  0.0185 -0.2136
15311TIP3    H167424   0.777   2.892   1.233 -0.4658 -0.9080 -0.9235
15311TIP3    H267425   0.656   2.984   1.233  1.0055  1.0779  0.5503
15312TIP3   OH267426   4.547   3.029   0.481 -0.1623  0.0802  0.3141
15312TIP3    H167427   4.598   3.072   0.412 -0.1315  0.9109  0.8523
15312TIP3    H267428   4.611   2.976   0.529  0.0148  0.3423  0.3684
15313TIP3   OH267429   1.307   4.278   3.623 -0.1301 -0.2923  0.2776
15313TIP3    H167430   1.392   4.282   3.578 -0.4253 -0.0459 -0.2603
15313TIP3    H267431   1.319   4.211   3.691  0.5700 -0.0860  0.3582
15314TIP3   OH267432   2.261   0.461   2.628 -0.2030 -0.1355 -0.1670
15314TIP3    H167433   2.261   0.427   2.717  0.2484  1.0791  0.2991
15314TIP3    H267434   2.219   0.547   2.634  1.1450  0.5914 -0.8722
15315TIP3   OH267435   5.804   6.579   0.595 -0.2905  0.3853 -0.8794
15315TIP3    H167436   5.783   6.556   0.504  1.2507 -1.3989 -0.8190
15315TIP3    H267437   5.893   6.547   0.607 -1.4883 -1.9557  2.1289
15316TIP3   OH267438   1.892   2.214  12.599  0.5364  0.5514 -0.0726
15316TIP3    H167439   1.924   2.166  12.523 -0.3047  1.4388 -0.9936
15316TIP3    H267440   1.952   2.189  12.670  1.5435 -0.0009 -1.1002
15317TIP3   OH267441   5.947   0.027   4.873 -0.1997  0.1330 -0.3931
15317TIP3    H167442   5.871   0.068   4.913  0.1052  1.3012 -0.9660
15317TIP3    H267443   5.938  -0.066   4.892 -1.8295  0.2463 -0.5523
15318TIP3   OH267444   5.638   0.352  16.485  0.4113  0.0097 -0.4766
15318TIP3    H167445   5.687   0.435  16.491  0.5164 -0.0628 -0.3057
15318TIP3    H267446   5.683   0.303  16.416  0.5435 -0.0303 -0.3625
15319TIP3   OH267447   1.806   6.591   1.632 -0.6981 -0.1630  0.4403
15319TIP3    H167448   1.848   6.623   1.553 -0.6703 -0.9018  0.1548
15319TIP3    H267449   1.805   6.666   1.691  1.1667 -0.1800  0.5173
15320TIP3   OH267450   5.829   1.136   3.264  0.0502 -0.4468 -0.1506
15320TIP3    H167451   5.755   1.155   3.321  0.6969  1.5337  0.0760
15320TIP3    H267452   5.864   1.222   3.240  1.1452 -1.3051 -1.7396
15321TIP3   OH267453   2.885   6.540  12.430 -0.1188  0.5584  0.0354
15321TIP3    H167454   2.815   6.578  12.377  0.9694 -0.5401 -2.2680
15321TIP3    H267455   2.844   6.467  12.475 -1.1377  1.6996  1.0014
15322TIP3   OH267456   0.802   1.451  14.737 -0.4935  0.3967  0.2641
15322TIP3    H167457   0.801   1.405  14.821  0.4181  0.6211  0.3969
15322TIP3    H267458   0.711   1.449  14.708 -0.4462 -1.7049  0.1657
15323TIP3   OH267459   5.572   2.859  15.124 -0.1549  0.0825 -0.0919
15323TIP3    H167460   5.627   2.817  15.190 -0.5963 -0.5532 -0.1178
15323TIP3    H267461   5.571   2.796  15.051 -0.7525  0.1828 -0.1694
15324TIP3   OH267462   5.128   0.875   3.103 -0.8275 -0.3806  0.2899
15324TIP3    H167463   5.105   0.848   3.014  0.5455 -1.1341  0.1473
15324TIP3    H267464   5.180   0.954   3.091 -0.4114 -0.6352  0.4015
15325TIP3   OH267465   4.931   3.143   3.902 -0.2392 -0.2456 -0.0375
15325TIP3    H167466   5.004   3.205   3.904  0.9303 -1.6286  1.8223
15325TIP3    H267467   4.911   3.133   3.809  2.6657 -0.6556 -0.6762
15326TIP3   OH267468   4.147   2.817   3.554 -0.7133 -0.3161 -0.1536
15326TIP3    H167469   4.185   2.867   3.482  1.2636 -0.1912  0.9218
15326TIP3    H267470   4.058   2.850   3.562 -0.4784  0.7169 -1.5721
15327TIP3   OH267471   0.116   5.418   6.038  0.3303 -0.1781  0.2911
15327TIP3    H167472   0.092   5.355   6.105  2.0922 -1.6662 -0.4485
15327TIP3    H267473   0.208   5.439   6.056 -0.0022  1.6194  0.0664
15328TIP3   OH267474   3.910   4.432  16.693 -0.2239 -0.7848 -0.3068
15328TIP3    H167475   3.919   4.469  16.605 -1.5994 -1.7260 -0.8573
15328TIP3    H267476   3.817   4.413  16.702 -0.0084 -1.2128  1.1581
15329TIP3   OH267477   5.269   4.121  15.559 -0.1174 -0.1805  0.3684
15329TIP3    H167478   5.308   4.065  15.492  2.3028  1.6948  0.1707
15329TIP3    H267479   5.300   4.085  15.642  0.7396  0.3468  0.2783
15330TIP3   OH267480   0.167   0.083  11.547  0.4210  0.2253 -0.1329
15330TIP3    H167481   0.247   0.075  11.495  0.6157  2.3348 -0.2058
15330TIP3    H267482   0.192   0.054  11.634  1.9929  3.2662  0.4869
15331TIP3   OH267483   2.349   0.972   4.703  0.0681  0.1642  0.0699
15331TIP3    H167484   2.273   0.987   4.647  0.7314  1.2702 -0.5526
15331TIP3    H267485   2.365   0.878   4.696 -0.3646  0.1555 -0.9439
15332TIP3   OH267486   4.947   1.778   5.406 -0.2770  0.8173 -0.2197
15332TIP3    H167487   5.024   1.721   5.402  0.0380  1.2895 -1.4526
15332TIP3    H267488   4.973   1.855   5.355 -1.4960  1.0614 -0.4850
15333TIP3   OH267489   0.455   5.625   3.539  0.2051  0.3878  0.4233
15333TIP3    H167490   0.486   5.709   3.507  0.2029  0.4159  0.4968
15333TIP3    H267491   0.359   5.631   3.534  0.2265 -0.1330 -0.9483
15334TIP3   OH267492   3.610   4.633   4.783 -0.2536  0.1536 -0.5454
15334TIP3    H167493   3.524   4.672   4.795 -0.6420 -0.2299 -1.9987
15334TIP3    H267494   3.608   4.596   4.695  1.9510  1.5702 -1.2379
15335TIP3   OH267495   6.625   5.056   4.797  0.4830  0.3785  0.1905
15335TIP3    H167496   6.704   5.039   4.746  0.0488 -0.0172 -0.3537
15335TIP3    H267497   6.557   5.074   4.732  0.0917  0.6096  0.6514
15336TIP3   OH267498   5.653   4.203  11.507  0.4680  0.0391  0.1054
15336TIP3    H167499   5.725   4.166  11.456 -2.0744 -0.4740 -3.2861
15336TIP3    H267500   5.635   4.287  11.466 -1.3590 -0.1882  0.3900
15337TIP3   OH267501   3.156   0.627   0.067  0.2347  1.0012 -0.1933
15337TIP3    H167502   3.148   0.638   0.162 -0.9325 -2.1705  0.1304
15337TIP3    H267503   3.213   0.551   0.056  0.6399  1.5404 -2.0655
15338TIP3   OH267504   1.249   2.149  11.214 -0.5263 -0.9855  0.1251
15338TIP3    H167505   1.247   2.066  11.264  0.8293 -1.0147  0.1682
15338TIP3    H267506   1.219   2.125  11.127 -1.4178 -1.2515  0.4939
15339TIP3   OH267507   2.160   4.590  13.246  0.2030 -0.3196 -0.0068
15339TIP3    H167508   2.107   4.666  13.223 -1.9967 -1.6165  0.6034
15339TIP3    H267509   2.235   4.594  13.187 -0.4828  1.6653 -0.7756
15340TIP3   OH267510   0.333   4.764   4.722  0.4094  0.1585  0.1409
15340TIP3    H167511   0.336   4.858   4.702  1.8517 -0.1356 -1.0984
15340TIP3    H267512   0.282   4.726   4.651  0.3836 -0.0844  0.2884
15341TIP3   OH267513   1.815   6.768   0.567 -0.6252  0.0107 -0.4240
15341TIP3    H167514   1.879   6.700   0.588  1.8390  2.6237  0.9737
15341TIP3    H267515   1.797   6.810   0.651 -0.8460  2.1196 -1.4874
15342TIP3   OH267516   2.867   6.309   5.953 -0.1549 -0.1317  0.3319
15342TIP3    H167517   2.819   6.243   5.903 -1.1787  1.8075 -1.2838
15342TIP3    H267518   2.959   6.293   5.932 -0.4563 -0.4935 -0.7271
15343TIP3   OH267519   6.292   5.177  12.824 -0.1286  0.7178 -0.0512
15343TIP3    H167520   6.218   5.145  12.876 -1.5464  2.5001 -0.9208
15343TIP3    H267521   6.285   5.130  12.741  0.1466  0.3624  0.1244
15344TIP3   OH267522   3.812   0.356   5.643  0.5159 -0.3329  0.4721
15344TIP3    H167523   3.868   0.282   5.621  0.6360  0.3073 -1.4450
15344TIP3    H267524   3.850   0.392   5.723  2.8517  0.0971 -0.7991
15345TIP3   OH267525   6.742   1.366   6.579  0.4616  0.3125 -0.3796
15345TIP3    H167526   6.685   1.291   6.596 -0.3019  1.1360  0.7155
15345TIP3    H267527   6.798   1.337   6.507  0.3549 -1.4056  0.2113
15346TIP3   OH267528   5.744   1.956  17.258 -0.6802 -0.2670  0.4682
15346TIP3    H167529   5.743   1.957  17.354 -2.9582  0.3044  0.4616
15346TIP3    H267530   5.700   2.037  17.233  2.1698  0.8907 -1.1115
15347TIP3   OH267531   2.669   1.098   0.716  0.4031  0.7637 -0.2333
15347TIP3    H167532   2.611   1.170   0.743 -0.9149  0.1928 -1.4472
15347TIP3    H267533   2.679   1.045   0.795 -0.2797  1.1873  0.1490
15348TIP3   OH267534   5.113   4.096  11.988  0.5209 -0.6859 -0.0265
15348TIP3    H167535   5.170   4.108  11.912  0.1268  0.1034 -0.2120
15348TIP3    H267536   5.119   4.179  12.036  0.4811 -1.0453  0.6014
15349TIP3   OH267537   6.645   0.958  17.182 -0.3198  0.3445 -0.0605
15349TIP3    H167538   6.705   0.883  17.185 -1.0020 -0.1759  2.9746
15349TIP3    H267539   6.589   0.942  17.106  1.0243 -1.0498 -0.7807
15350TIP3   OH267540   6.100   3.363   4.137 -0.1646  0.2291 -0.2233
15350TIP3    H167541   6.097   3.428   4.066 -0.8352  0.0882 -0.3310
15350TIP3    H267542   6.186   3.375   4.177 -0.5633  1.6875  0.2324
15351TIP3   OH267543   0.472   3.671   4.447 -0.6457  0.0084  0.3471
15351TIP3    H167544   0.481   3.639   4.537 -1.2735  1.0317  0.7846
15351TIP3    H267545   0.538   3.622   4.397 -0.3791 -0.6546  1.3346
15352TIP3   OH267546   1.825   0.910   0.998 -0.5848  0.4181  0.4446
15352TIP3    H167547   1.734   0.930   1.019 -0.2401  2.6294 -0.0114
15352TIP3    H267548   1.867   0.899   1.083 -1.1739 -0.1068  0.6712
15353TIP3   OH267549   1.506   1.167   3.728  0.4011 -0.6279 -0.2244
15353TIP3    H167550   1.496   1.113   3.650  0.0697 -0.6143 -0.1920
15353TIP3    H267551   1.591   1.210   3.717 -0.1121  0.1816 -1.0760
15354TIP3   OH267552   1.637   2.835   4.173 -0.0564  0.2123 -0.7288
15354TIP3    H167553   1.633   2.864   4.264 -3.0460 -0.2740 -0.6370
15354TIP3    H267554   1.654   2.741   4.178  1.9694  0.5594 -0.7709
15355TIP3   OH267555   6.117   2.242  14.285 -0.2538  0.0959  0.0804
15355TIP3    H167556   6.035   2.249  14.238  0.4698  1.7188 -0.9774
15355TIP3    H267557   6.179   2.206  14.221 -0.3606 -2.0977  1.1628
15356TIP3   OH267558   5.206   6.632   1.436  0.2126 -0.2926 -0.3983
15356TIP3    H167559   5.273   6.692   1.466  0.0556 -0.6157  0.6093
15356TIP3    H267560   5.221   6.551   1.485 -2.2547  0.3465  1.4922
15357TIP3   OH267561   0.387   0.268   3.256 -0.0723  0.0839  0.0157
15357TIP3    H167562   0.453   0.335   3.274 -0.7653  0.7606  0.0467
15357TIP3    H267563   0.303   0.313   3.266 -0.5183 -0.3826 -1.5991
15358TIP3   OH267564   0.004   1.855  13.306 -0.4268  0.2987  0.1189
15358TIP3    H167565  -0.080   1.821  13.273 -0.4441  0.1326  0.3314
15358TIP3    H267566   0.069   1.795  13.270 -0.4158  0.3264  0.0931
15359TIP3   OH267567   3.463   6.083  15.084 -0.3599 -0.1322 -0.4460
15359TIP3    H167568   3.506   6.145  15.144 -1.1013 -0.7794  0.7791
15359TIP3    H267569   3.369   6.100  15.095 -0.5388 -0.9510 -0.6744
15360TIP3   OH267570   4.861   6.082  11.668 -0.5128 -0.3403  0.1013
15360TIP3    H167571   4.770   6.056  11.681 -0.2809 -1.6791 -0.8190
15360TIP3    H267572   4.911   6.000  11.678  0.4594  0.1528 -0.6079
15361TIP3   OH267573   3.980   3.534  11.979  0.3447  0.2820 -0.4368
15361TIP3    H167574   4.011   3.503  12.064  0.7803 -0.1184 -0.7459
15361TIP3    H267575   3.915   3.469  11.951  2.1160 -0.9968 -1.6309
15362TIP3   OH267576   1.572   4.217   3.684 -0.3145 -0.1981  0.2513
15362TIP3    H167577   1.624   4.246   3.759  2.0230  2.8246 -2.4383
15362TIP3    H267578   1.615   4.136   3.656  0.8381  0.4203  0.1881
15363TIP3   OH267579   5.351   2.444   6.185 -0.2332 -0.3774  0.0102
15363TIP3    H167580   5.425   2.383   6.188  0.5464  0.4536 -1.2449
15363TIP3    H267581   5.379   2.518   6.239  0.4247  0.5163 -1.5218
15364TIP3   OH267582   3.371   1.289  14.228 -0.3897  0.2123  0.0760
15364TIP3    H167583   3.362   1.364  14.287 -1.8257  0.8624 -0.9316
15364TIP3    H267584   3.393   1.216  14.285  0.3698  1.2671  1.1508
15365TIP3   OH267585   3.106   0.646   4.714  0.7753 -0.0118  0.1401
15365TIP3    H167586   3.138   0.636   4.804 -1.3630 -0.0911  0.9121
15365TIP3    H267587   3.106   0.741   4.699  1.6895 -0.0309  0.0125
15366TIP3   OH267588   0.347   3.679   0.278 -0.2226 -0.0000 -0.7354
15366TIP3    H167589   0.302   3.613   0.226 -2.2608  0.3459  0.5330
15366TIP3    H267590   0.284   3.702   0.347  0.7166  2.7489 -0.7598
15367TIP3   OH267591   5.743   3.943  10.916  0.4042 -0.0052  0.0781
15367TIP3    H167592   5.684   3.994  10.861 -1.1962 -0.6459  1.1909
15367TIP3    H267593   5.704   3.856  10.920  2.3626 -0.9715 -0.6268
15368TIP3   OH267594   2.956   0.667  13.673  0.6455  0.5401 -0.1080
15368TIP3    H167595   3.000   0.597  13.627 -1.1068 -0.0494 -0.9151
15368TIP3    H267596   2.995   0.667  13.761  1.4296 -0.6911 -0.4603
15369TIP3   OH267597   5.327   2.007  16.564 -0.2016 -0.1357  0.1149
15369TIP3    H167598   5.377   1.928  16.542 -0.5538 -0.7663  1.5370
15369TIP3    H267599   5.373   2.044  16.639 -0.6974  0.4077  0.1499
15370TIP3   OH267600   0.383   0.998   4.861 -0.8644 -0.6085  0.3191
15370TIP3    H167601   0.333   1.042   4.793  0.6405 -1.0304 -1.0801
15370TIP3    H267602   0.474   1.009   4.836 -0.2591 -0.2866  2.5781
15371TIP3   OH267603   4.127   1.683   2.477 -0.1775  0.3832 -0.0768
15371TIP3    H167604   4.141   1.618   2.408  1.8270 -0.7903  1.3538
15371TIP3    H267605   4.040   1.663   2.512 -0.9691  0.6412 -1.8923
15372TIP3   OH267606   5.599   2.860  17.181 -0.1576  0.5592  0.4716
15372TIP3    H167607   5.660   2.869  17.254 -1.4904  1.8714  1.4500
15372TIP3    H267608   5.577   2.950  17.157  1.0142  0.1883 -2.2135
15373TIP3   OH267609   0.564   1.396  13.260 -0.4179  0.0216  0.5300
15373TIP3    H167610   0.602   1.396  13.172 -1.2029  1.7485  0.1633
15373TIP3    H267611   0.491   1.458  13.254 -1.1486 -0.6654  2.1217
15374TIP3   OH267612   6.046   5.418   0.787 -0.0142 -0.0764  0.1534
15374TIP3    H167613   6.019   5.343   0.733 -1.5090  0.3066  0.3264
15374TIP3    H267614   6.002   5.404   0.871  0.3808  0.5489  0.4650
15375TIP3   OH267615   3.316   6.175   0.863  0.7890  0.0240  0.1830
15375TIP3    H167616   3.372   6.139   0.795  0.6898 -0.2333  0.2354
15375TIP3    H267617   3.377   6.212   0.927  0.9339 -1.0128  0.6608
15376TIP3   OH267618   3.984   0.127   1.865  0.3209 -0.4317 -0.2267
15376TIP3    H167619   4.032   0.050   1.834 -1.5569 -1.2416 -1.2176
15376TIP3    H267620   3.901   0.092   1.898  0.6305  0.8630  2.0440
15377TIP3   OH267621   2.356   6.176   3.819 -0.2015 -0.1784 -0.3981
15377TIP3    H167622   2.319   6.218   3.741  0.2069  0.5177 -0.2252
15377TIP3    H267623   2.330   6.232   3.891 -0.7914 -0.9618  0.0021
15378TIP3   OH267624   6.598   4.207   2.500  0.6671  0.1917 -0.5904
15378TIP3    H167625   6.504   4.214   2.481  0.7450  2.0192 -0.3276
15378TIP3    H267626   6.640   4.260   2.433  1.6256 -1.6152 -1.4592
15379TIP3   OH267627   1.172   1.279   4.987 -0.1654 -0.6204  0.2664
15379TIP3    H167628   1.092   1.282   4.935  0.1457  0.4252 -0.1511
15379TIP3    H267629   1.243   1.281   4.923  0.2219  1.1676  0.7428
15380TIP3   OH267630   4.715   6.433   5.317 -0.2443 -0.7052  0.0955
15380TIP3    H167631   4.675   6.519   5.320  0.0534 -0.5890  0.8591
15380TIP3    H267632   4.653   6.379   5.267  1.2302  0.7973 -3.5366
15381TIP3   OH267633   3.977   2.102   4.279  0.2172  0.4582 -0.4062
15381TIP3    H167634   4.045   2.109   4.345  0.2752  1.1200 -0.5319
15381TIP3    H267635   3.898   2.077   4.328  0.6001 -0.5300 -0.2962
15382TIP3   OH267636   5.585   3.698  12.306  0.3973  0.0054 -1.0154
15382TIP3    H167637   5.539   3.640  12.366  0.2336  0.2345 -0.9193
15382TIP3    H267638   5.562   3.786  12.334  1.5149  0.1382 -0.4878
15383TIP3   OH267639   0.404   4.723   2.865  0.3502  1.1145 -0.5528
15383TIP3    H167640   0.325   4.777   2.856  1.1034  2.2582 -0.3409
15383TIP3    H267641   0.386   4.667   2.940 -0.1139  1.6262 -0.2763
15384TIP3   OH267642   3.374   4.607   2.432  0.0975 -0.2090 -0.7207
15384TIP3    H167643   3.391   4.598   2.526 -0.9633  1.5455 -0.3394
15384TIP3    H267644   3.423   4.685   2.407 -0.6993  0.0945 -1.3495
15385TIP3   OH267645   2.437   6.628   4.275 -0.1567  0.3734 -0.2655
15385TIP3    H167646   2.422   6.722   4.276 -2.7171  0.0249  1.7276
15385TIP3    H267647   2.451   6.605   4.367  0.3576 -1.1948 -0.7078
15386TIP3   OH267648   0.331   3.478  10.643 -0.1217 -0.5396  0.5049
15386TIP3    H167649   0.252   3.434  10.612  1.4749 -1.9586 -1.6853
15386TIP3    H267650   0.346   3.442  10.731 -2.1901  0.1905  1.1877
15387TIP3   OH267651   5.512   2.342   1.239 -0.1738  0.0553 -0.0342
15387TIP3    H167652   5.421   2.350   1.210 -0.1188 -0.3561 -0.3402
15387TIP3    H267653   5.560   2.403   1.183 -0.4506  1.2874  1.0597
15388TIP3   OH267654   3.579   3.993   1.293  0.1773  0.4390  0.1439
15388TIP3    H167655   3.669   3.960   1.291  0.2010  0.5372 -0.4368
15388TIP3    H267656   3.545   3.976   1.205 -0.2594  0.7200  0.2552
15389TIP3   OH267657   4.729   6.354   0.805  0.7645  0.7918  1.3973
15389TIP3    H167658   4.787   6.417   0.848  1.7293  1.2853 -0.5214
15389TIP3    H267659   4.774   6.334   0.722 -1.8916  1.3375 -0.2261
15390TIP3   OH267660   5.368   3.761  14.590  0.3865 -0.0788 -0.1869
15390TIP3    H167661   5.401   3.678  14.556  1.5278 -0.3437  1.5046
15390TIP3    H267662   5.273   3.750  14.593  0.5268 -1.2765 -0.0774
15391TIP3   OH267663   2.839   3.811   3.612  0.7710 -0.1493 -0.1528
15391TIP3    H167664   2.815   3.902   3.627  0.2375 -0.2060 -0.6351
15391TIP3    H267665   2.769   3.777   3.556  0.7373 -0.9691  0.3693
15392TIP3   OH267666   6.565   4.213  16.095 -0.2607 -0.1129 -0.0219
15392TIP3    H167667   6.479   4.224  16.137 -0.1392  2.0324 -0.2690
15392TIP3    H267668   6.605   4.300  16.100  0.4756 -0.2348 -2.9813
15393TIP3   OH267669   5.339   4.595  11.676 -0.3867 -0.4441  0.2119
15393TIP3    H167670   5.299   4.570  11.593  0.1710  1.4944 -0.6734
15393TIP3    H267671   5.297   4.678  11.699  1.4053  0.4180  0.4613
15394TIP3   OH267672   1.861   3.684  12.508 -0.7676  0.1035 -0.1084
15394TIP3    H167673   1.829   3.673  12.418  0.3590 -0.5348 -0.4380
15394TIP3    H267674   1.829   3.771  12.534 -2.5708 -0.4185 -0.4998
15395TIP3   OH267675   2.325   4.871   2.463 -0.3892  0.0905  0.2493
15395TIP3    H167676   2.287   4.863   2.375 -0.7080 -0.6720  0.4525
15395TIP3    H267677   2.251   4.894   2.519  0.4676  4.7360 -0.2997
15396TIP3   OH267678   4.517   6.280   5.181 -0.3823 -0.3868 -0.0014
15396TIP3    H167679   4.424   6.291   5.202 -0.2882  0.2493  0.1060
15396TIP3    H267680   4.548   6.211   5.240 -1.1220 -1.6237 -1.0406
15397TIP3   OH267681   0.128   4.299  11.704 -0.4454  0.5572  0.1258
15397TIP3    H167682   0.125   4.369  11.769  0.9110  1.2993 -0.5863
15397TIP3    H267683   0.181   4.335  11.633 -1.1880 -0.5633 -1.0139
15398TIP3   OH267684   6.193   4.272  15.410  0.2368 -0.0691 -0.1598
15398TIP3    H167685   6.168   4.358  15.446  0.9770  0.6893 -1.4386
15398TIP3    H267686   6.287   4.266  15.425  0.0222 -1.1333  0.8718
15399TIP3   OH267687   2.019   2.095   0.135  0.4986  0.0875  0.1477
15399TIP3    H167688   1.999   2.013   0.181  2.8188 -0.5422  0.1022
15399TIP3    H267689   2.011   2.072   0.042  1.2654 -0.1316  0.1323
15400TIP3   OH267690   1.093   3.050   5.250 -0.3802 -0.9531  0.2656
15400TIP3    H167691   1.030   3.062   5.320 -1.3580 -3.1325 -0.1863
15400TIP3    H267692   1.041   3.026   5.174  0.9217 -2.3529 -0.2228
15401TIP3   OH267693   2.206   3.998   2.916  0.1788 -0.0757  0.1519
15401TIP3    H167694   2.216   4.093   2.928 -0.9804  0.1260 -0.3463
15401TIP3    H267695   2.232   3.983   2.825 -1.2480  0.0322 -0.2866
15402TIP3   OH267696   1.938   0.495   0.881 -0.3268 -0.1802 -0.1303
15402TIP3    H167697   2.020   0.528   0.847 -0.9539  1.0000 -0.5246
15402TIP3    H267698   1.913   0.424   0.821 -0.0969  0.1169 -0.5748
15403TIP3   OH267699   6.594   5.876  16.268  0.3645 -0.1627  0.0780
15403TIP3    H167700   6.644   5.796  16.285  2.2430  0.9174 -0.2250
15403TIP3    H267701   6.629   5.908  16.185  0.5688  1.6807  0.8655
15404TIP3   OH267702   3.442   2.488  16.968 -0.5146  0.3928  0.2124
15404TIP3    H167703   3.467   2.528  16.884 -1.2970 -2.1760 -1.2843
15404TIP3    H267704   3.490   2.405  16.971 -0.6240  0.3709  2.2658
15405TIP3   OH267705   5.424   2.946  12.614 -0.2352  0.0373 -0.4924
15405TIP3    H167706   5.421   2.859  12.653 -1.9491  0.2015 -0.2146
15405TIP3    H267707   5.348   2.949  12.557 -0.0361  1.2644 -0.7012
15406TIP3   OH267708   5.018   6.717  16.732  0.5008 -0.1269 -0.1391
15406TIP3    H167709   4.950   6.705  16.665  0.9546 -0.4040 -0.5471
15406TIP3    H267710   5.100   6.705  16.686  0.9122  2.0763 -0.0421
15407TIP3   OH267711   6.113   4.440  17.201 -0.4679 -0.0041 -0.1335
15407TIP3    H167712   6.048   4.385  17.158 -0.1683 -1.2584  0.9847
15407TIP3    H267713   6.073   4.464  17.284 -0.0815  0.3952 -0.0640
15408TIP3   OH267714   5.232   2.408   0.171  0.3491 -0.2002 -1.0545
15408TIP3    H167715   5.271   2.420   0.258  2.0600  0.3311 -1.8802
15408TIP3    H267716   5.302   2.371   0.118 -0.3999  0.3756 -2.4761
15409TIP3   OH267717   2.631   0.310  12.850 -0.3513 -0.1219  0.1831
15409TIP3    H167718   2.627   0.358  12.932  0.5572  0.8135 -0.3211
15409TIP3    H267719   2.704   0.250  12.860 -1.4220 -1.3551  0.7742
15410TIP3   OH267720   4.575   3.856  13.315  0.2378 -0.5126 -0.6804
15410TIP3    H167721   4.662   3.841  13.351 -0.4059  0.3813  1.3304
15410TIP3    H267722   4.549   3.942  13.349 -1.6690 -1.0410 -0.7284
15411TIP3   OH267723   0.956   1.245   2.425  0.6718  0.4181  0.0031
15411TIP3    H167724   0.951   1.291   2.341 -1.2261  0.1973 -0.0396
15411TIP3    H267725   1.013   1.170   2.408  2.7316  1.9914 -0.2755
15412TIP3   OH267726   6.315   0.001  15.744  0.0674 -0.4540  0.7502
15412TIP3    H167727   6.292  -0.074  15.799  0.2115 -0.5536  0.6732
15412TIP3    H267728   6.350  -0.038  15.664 -0.0865 -0.3087  0.6107
15413TIP3   OH267729   3.841   4.167   4.907  0.2203 -0.1400  0.0993
15413TIP3    H167730   3.815   4.255   4.933  1.9629  0.2024  0.7314
15413TIP3    H267731   3.849   4.119   4.989 -0.1432 -0.7239 -0.2062
15414TIP3   OH267732   0.560   3.347  13.984  0.8645  0.5740 -0.2089
15414TIP3    H167733   0.601   3.274  13.937 -0.1856 -1.1777  1.5235
15414TIP3    H267734   0.481   3.366  13.933  1.0285  0.3675 -0.5453
15415TIP3   OH267735   2.987   2.606  12.671 -0.5024  0.1713 -0.1235
15415TIP3    H167736   2.974   2.667  12.744 -1.1833  0.9858 -0.9138
15415TIP3    H267737   3.071   2.565  12.689 -1.5199 -1.0202  2.1089
15416TIP3   OH267738   3.792   1.218  15.801 -0.6066 -0.4830  0.3400
15416TIP3    H167739   3.718   1.276  15.787  0.5504  0.7955 -0.6028
15416TIP3    H267740   3.754   1.141  15.843 -2.7415 -0.5932 -1.6703
15417TIP3   OH267741   4.147   1.843   1.599 -0.0134 -0.1840  0.0684
15417TIP3    H167742   4.129   1.917   1.542 -0.3094 -0.1956  0.1452
15417TIP3    H267743   4.064   1.827   1.645 -0.4943 -1.7143 -1.2744
15418TIP3   OH267744   1.155   1.571  11.260 -0.5832  0.0032 -0.0570
15418TIP3    H167745   1.067   1.558  11.296 -0.7589  0.8434 -0.1668
15418TIP3    H267746   1.140   1.606  11.172 -0.1410 -0.7268 -0.4288
15419TIP3   OH267747   6.266   4.766  15.867  0.4702 -0.1475  0.4384
15419TIP3    H167748   6.347   4.722  15.890 -0.1867 -1.4181  0.3985
15419TIP3    H267749   6.197   4.713  15.908 -0.2466  1.9964  2.1574
15420TIP3   OH267750   2.983   4.126   3.494  0.2692  0.6711 -0.4716
15420TIP3    H167751   3.044   4.064   3.534  1.3828  0.3156 -2.6802
15420TIP3    H267752   2.945   4.078   3.420 -1.0775  1.6263 -0.4085
15421TIP3   OH267753   0.181   5.029  16.669 -0.2491 -0.1886 -0.0912
15421TIP3    H167754   0.212   5.016  16.758 -0.8143 -0.3357  0.0894
15421TIP3    H267755   0.146   4.944  16.643  1.0202 -0.4731 -0.8911
15422TIP3   OH267756   1.820   4.076   0.355 -0.0030  0.1332 -0.4194
15422TIP3    H167757   1.836   4.136   0.283 -4.0154 -0.0283 -1.5908
15422TIP3    H267758   1.833   3.989   0.318  2.3515  0.1206  0.3374
15423TIP3   OH267759   4.083   6.464   2.919 -0.0467  0.0274  0.3014
15423TIP3    H167760   4.058   6.372   2.932 -0.5689  0.1252 -0.0185
15423TIP3    H267761   4.086   6.500   3.008 -0.0613 -0.2417  0.4127
15424TIP3   OH267762   0.615   0.481   0.095  0.3250 -0.1376 -0.5894
15424TIP3    H167763   0.590   0.421   0.025  2.1495 -0.9160 -0.6009
15424TIP3    H267764   0.711   0.488   0.088  0.4672  0.2344  1.4299
15425TIP3   OH267765   0.141   5.064  17.125  0.6495 -0.4215 -0.2712
15425TIP3    H167766   0.193   5.117  17.065 -1.4860 -0.4134 -2.2086
15425TIP3    H267767   0.162   4.974  17.102  2.7073 -0.4387  1.6027
15426TIP3   OH267768   6.202   2.389  16.980  0.2227  0.5549  0.2502
15426TIP3    H167769   6.207   2.299  16.946 -2.6780  0.5496 -0.2806
15426TIP3    H267770   6.179   2.442  16.904  0.7854  1.6117  0.8056
15427TIP3   OH267771   6.346   3.245  11.545 -0.0577 -0.2608  0.1493
15427TIP3    H167772   6.273   3.301  11.517 -1.3952 -1.6953  0.7338
15427TIP3    H267773   6.391   3.222  11.464 -0.1552  0.7479 -0.2003
15428TIP3   OH267774   5.005   3.886  13.268  0.5704 -0.1167  0.4054
15428TIP3    H167775   4.974   3.796  13.254  1.9869 -0.3166 -1.7653
15428TIP3    H267776   4.925   3.937  13.280 -0.2902 -1.5282  0.8398
15429TIP3   OH267777   5.670   1.532   1.550  0.3998 -0.0024  0.3841
15429TIP3    H167778   5.719   1.614   1.545  0.2840  0.0103 -0.8298
15429TIP3    H267779   5.610   1.544   1.624 -2.8833  2.8658 -2.5203
15430TIP3   OH267780   4.169   4.555  11.757  0.2848 -0.0102  0.1651
15430TIP3    H167781   4.102   4.624  11.761  0.9519  0.6288  0.3883
15430TIP3    H267782   4.170   4.528  11.666  0.8259  1.0835 -0.1611
15431TIP3   OH267783   2.199   2.372   2.768  0.1561  0.1163  0.2134
15431TIP3    H167784   2.262   2.416   2.825 -0.3591 -0.3258  1.1347
15431TIP3    H267785   2.114   2.397   2.803 -0.1475 -1.2813  0.5091
15432TIP3   OH267786   2.427   0.017   5.459 -0.4360 -0.6586 -0.7945
15432TIP3    H167787   2.467  -0.040   5.525  0.4657 -0.1822 -0.9309
15432TIP3    H267788   2.336   0.024   5.487  0.0277 -0.1410  0.6386
15433TIP3   OH267789   3.492   6.536  15.034  0.5359  0.2993  0.1537
15433TIP3    H167790   3.460   6.611  15.084  1.0512  1.2924 -0.9928
15433TIP3    H267791   3.577   6.564  15.001  0.9888 -1.0086  0.1954
15434TIP3   OH267792   5.865   4.309  16.361  0.5292  0.1930  0.0366
15434TIP3    H167793   5.937   4.338  16.304 -0.7693  2.2440 -0.6333
15434TIP3    H267794   5.823   4.238  16.312  0.7306  0.5019 -0.6014
15435TIP3   OH267795   3.394   2.210   4.130  0.4664 -0.3993  0.5299
15435TIP3    H167796   3.437   2.282   4.084  0.7595 -0.3992  0.7977
15435TIP3    H267797   3.400   2.136   4.071  0.7280 -0.3658  0.5129
15436TIP3   OH267798   3.370   2.455   0.339 -0.1055 -0.1724 -0.0318
15436TIP3    H167799   3.381   2.550   0.328 -1.2464  0.1077  1.1917
15436TIP3    H267800   3.446   2.428   0.390  1.3890 -0.2949 -2.2646
15437TIP3   OH267801   1.657   2.414  16.594  0.2028 -0.1801 -0.0266
15437TIP3    H167802   1.654   2.324  16.563  1.7007  0.2405 -1.4457
15437TIP3    H267803   1.699   2.463  16.523 -0.6175  1.6469  0.7037
15438TIP3   OH267804   1.895   4.396  11.196 -0.0999 -0.4937  0.0599
15438TIP3    H167805   1.911   4.302  11.204 -1.9239 -0.7098  1.3612
15438TIP3    H267806   1.824   4.414  11.257  0.2072  1.7399 -0.1870
15439TIP3   OH267807   6.199   2.440  12.890  0.0078  0.1918  0.2215
15439TIP3    H167808   6.260   2.394  12.947 -1.5294 -0.6079  1.2290
15439TIP3    H267809   6.169   2.515  12.941 -1.0881 -0.3211  0.3465
15440TIP3   OH267810   0.516   2.457  14.776  0.1046 -0.4201 -0.1151
15440TIP3    H167811   0.458   2.473  14.702 -3.3173 -0.0563  2.5317
15440TIP3    H267812   0.584   2.524  14.769 -1.1294  0.6596 -1.9740
15441TIP3   OH267813   3.198   0.803   5.894  0.1737 -0.0431  0.0468
15441TIP3    H167814   3.280   0.779   5.853  0.8146 -0.3745  1.4867
15441TIP3    H267815   3.145   0.724   5.892 -0.6551  0.5211 -2.0893
15442TIP3   OH267816   2.996   4.691   1.400  0.6002 -0.4011 -0.4310
15442TIP3    H167817   2.951   4.702   1.316 -1.0423 -0.9505  0.3683
15442TIP3    H267818   3.007   4.597   1.409  2.2957 -0.2703 -0.7850
15443TIP3   OH267819   5.880   3.505   1.657  1.0524  0.0092 -0.3216
15443TIP3    H167820   5.927   3.422   1.666  0.7584  0.0828  2.1152
15443TIP3    H267821   5.934   3.568   1.704  0.7371  1.0120 -1.2780
15444TIP3   OH267822   3.609   3.927  15.457 -0.0405 -0.7247 -0.4395
15444TIP3    H167823   3.554   3.859  15.417  1.0990 -2.4661  0.8460
15444TIP3    H267824   3.694   3.916  15.413  0.0637  0.0898 -0.4406
15445TIP3   OH267825   1.319   5.943  12.087  0.9052  0.9251 -0.6375
15445TIP3    H167826   1.301   5.909  11.999  1.2822  1.0185 -0.7531
15445TIP3    H267827   1.256   5.899  12.143  1.4714 -0.0777 -0.7662
15446TIP3   OH267828   5.618   5.086  16.404 -0.0114 -0.1660  0.1346
15446TIP3    H167829   5.641   5.175  16.430 -0.7117 -0.1792  0.8258
15446TIP3    H267830   5.610   5.038  16.487 -0.0547 -0.7612 -0.2133
15447TIP3   OH267831   4.943   3.737  11.740 -0.0037 -0.1514 -0.0278
15447TIP3    H167832   4.949   3.737  11.836 -1.7387 -0.9179  0.1017
15447TIP3    H267833   4.932   3.829  11.717  1.4183  0.1463  0.4245
15448TIP3   OH267834   0.735   3.831  12.032  0.0072 -0.3903 -0.6196
15448TIP3    H167835   0.701   3.845  11.944  2.1971 -1.1200 -1.6013
15448TIP3    H267836   0.736   3.918  12.072  0.7907  0.2430 -1.9807
15449TIP3   OH267837   2.838   0.232   3.337 -0.0648 -0.4020  0.2281
15449TIP3    H167838   2.751   0.196   3.355  0.2359 -1.0250  0.4489
15449TIP3    H267839   2.838   0.246   3.242 -0.5155 -0.1079  0.2682
15450TIP3   OH267840   2.933   5.936  12.409 -0.6215  0.0920  0.1353
15450TIP3    H167841   2.853   5.896  12.375 -0.9058  2.1104 -1.6631
15450TIP3    H267842   2.972   5.980  12.333  2.1199 -0.6996  1.0050
15451TIP3   OH267843   2.003   3.308   0.686 -0.6350 -0.1167  0.1219
15451TIP3    H167844   2.079   3.307   0.744  0.2209 -1.9801 -1.0001
15451TIP3    H267845   2.039   3.290   0.599 -2.1469  0.7009 -0.6808
15452TIP3   OH267846   6.122   5.397   1.673 -0.3958  0.1713  0.6532
15452TIP3    H167847   6.148   5.326   1.731  0.1166 -0.6827 -0.5917
15452TIP3    H267848   6.102   5.470   1.731  2.0801 -0.0239  1.7789
15453TIP3   OH267849   1.723   5.593  12.660  0.0597  0.1593 -0.2503
15453TIP3    H167850   1.769   5.568  12.740 -0.3922  0.6646  0.1679
15453TIP3    H267851   1.668   5.517  12.639 -0.7232  0.4869  0.5845
15454TIP3   OH267852   6.748   0.751   5.058 -0.6851  0.0217 -0.2076
15454TIP3    H167853   6.764   0.659   5.037 -0.5622 -0.4275  1.8268
15454TIP3    H267854   6.825   0.796   5.022 -0.2107 -0.7931 -0.2465
15455TIP3   OH267855   1.111   2.377   3.346 -0.5511  0.1819  0.2034
15455TIP3    H167856   1.122   2.285   3.368 -1.5361  0.4932  2.0738
15455TIP3    H267857   1.063   2.415   3.420  0.7915  2.4402 -0.0117
15456TIP3   OH267858   5.175   1.489  11.824  0.2237  0.5906  0.3602
15456TIP3    H167859   5.224   1.514  11.746  0.3756 -0.3169  0.1638
15456TIP3    H267860   5.089   1.464  11.791 -0.1620  1.5339  0.6346
15457TIP3   OH267861   1.653   3.951  13.121  0.2328 -0.0176 -0.3730
15457TIP3    H167862   1.608   4.023  13.166  0.4959 -0.4884  0.6633
15457TIP3    H267863   1.623   3.872  13.166 -1.2003 -0.6932 -2.4772
15458TIP3   OH267864   6.809   2.968  15.509  0.1610  0.0123 -0.2112
15458TIP3    H167865   6.785   2.876  15.524  0.7320 -0.2024 -0.6099
15458TIP3    H267866   6.854   2.994  15.590  0.4852 -0.2198 -0.3171
15459TIP3   OH267867   3.370   6.313   2.117 -0.1720 -0.0033 -0.1618
15459TIP3    H167868   3.368   6.239   2.177  1.0310  0.5659  0.5893
15459TIP3    H267869   3.416   6.382   2.165  0.3739  0.6141 -1.5463
15460TIP3   OH267870   3.684   6.119   0.286 -0.5437 -0.6892 -0.2009
15460TIP3    H167871   3.694   6.145   0.195  0.7796 -0.7121 -0.0759
15460TIP3    H267872   3.589   6.114   0.300 -0.8294  2.5236 -0.6662
15461TIP3   OH267873   5.975   4.002  13.212 -0.0344 -0.0533 -0.4079
15461TIP3    H167874   5.929   4.053  13.145 -1.9364 -1.5239 -0.2325
15461TIP3    H267875   5.946   3.912  13.199 -0.7913 -0.3170  2.6878
15462TIP3   OH267876   3.460   0.166  11.763  0.0377  0.1323 -0.0995
15462TIP3    H167877   3.415   0.192  11.682  0.2924  1.7741  0.2536
15462TIP3    H267878   3.389   0.150  11.825 -0.1344  0.0024 -0.3294
15463TIP3   OH267879   1.508   4.258  11.052 -0.4978 -0.9331 -0.2274
15463TIP3    H167880   1.435   4.316  11.028 -1.7432 -2.4761 -0.2366
15463TIP3    H267881   1.472   4.202  11.120  0.6808 -1.7406 -0.2667
15464TIP3   OH267882   1.098   2.284  11.883  0.5767 -0.1060 -0.0567
15464TIP3    H167883   1.089   2.192  11.908 -0.2651  0.0336  0.1682
15464TIP3    H267884   1.104   2.282  11.788 -0.0478 -0.3470 -0.0923
15465TIP3   OH267885   1.409   6.739  10.608  0.0844  0.5423 -0.1725
15465TIP3    H167886   1.338   6.682  10.637  0.9061 -0.4049  0.0280
15465TIP3    H267887   1.372   6.827  10.611 -0.1645  0.3888  2.9095
15466TIP3   OH267888   0.768   0.251  10.693 -0.5257 -0.2397 -0.3139
15466TIP3    H167889   0.767   0.344  10.670 -0.2432 -0.6418 -2.0622
15466TIP3    H267890   0.680   0.220  10.671 -0.0919 -0.7453 -1.3898
15467TIP3   OH267891   3.418   1.375   0.798 -1.0507 -0.1389 -0.1890
15467TIP3    H167892   3.435   1.291   0.842 -1.6288 -0.6988 -1.0209
15467TIP3    H267893   3.447   1.361   0.708  1.9673  1.6427  0.4467
15468TIP3   OH267894   2.219   3.248  14.309 -0.0325  0.1559 -0.5711
15468TIP3    H167895   2.209   3.339  14.335  0.2781  0.3197 -1.0101
15468TIP3    H267896   2.166   3.199  14.372  1.3930  0.4647  0.8927
15469TIP3   OH267897   1.447   5.900  15.102  0.3685 -0.5638  0.1916
15469TIP3    H167898   1.456   5.960  15.176  0.7144  2.7653 -2.4326
15469TIP3    H267899   1.536   5.866  15.089  1.1126  1.6774 -0.9125
15470TIP3   OH267900   2.897   1.778   3.115  0.1043 -0.5301  0.4901
15470TIP3    H167901   2.865   1.867   3.100  1.5954  0.3140  2.1319
15470TIP3    H267902   2.817   1.728   3.134 -0.8233  0.2726 -1.1830
15471TIP3   OH267903   5.736   3.488  14.912  0.5310  0.2349 -0.3349
15471TIP3    H167904   5.828   3.462  14.921  0.5513  0.9424  1.8682
15471TIP3    H267905   5.706   3.500  15.002 -3.1152 -4.7444 -0.6370
15472TIP3   OH267906   5.666   6.486  12.882  0.4745 -0.0359  0.1051
15472TIP3    H167907   5.712   6.433  12.817 -0.4531  1.2113 -1.6346
15472TIP3    H267908   5.583   6.509  12.839  0.1478  1.4181  1.4590
15473TIP3   OH267909   0.101   5.368   1.465  0.0603  1.2971 -0.2304
15473TIP3    H167910   0.053   5.418   1.531 -1.9987  1.0103 -1.4522
15473TIP3    H267911   0.048   5.376   1.385 -0.2623 -2.6073 -0.5345
15474TIP3   OH267912   6.405   2.217   1.308 -0.0130  0.3632  0.4687
15474TIP3    H167913   6.386   2.147   1.246 -1.5650 -0.0477  1.3809
15474TIP3    H267914   6.499   2.233   1.299 -0.1605  0.0599 -1.7077
15475TIP3   OH267915   0.716   4.844  12.316 -0.3582  0.2210 -0.9858
15475TIP3    H167916   0.706   4.751  12.297 -0.6585 -0.3729  1.8434
15475TIP3    H267917   0.810   4.855  12.334 -0.2672  0.5360 -1.6488
15476TIP3   OH267918   5.809   6.815   0.100 -0.3816  0.4091 -0.3794
15476TIP3    H167919   5.723   6.774   0.094 -0.4125  0.7402 -2.4733
15476TIP3    H267920   5.870   6.741   0.100 -0.6036  0.2245 -0.3265
15477TIP3   OH267921   0.310   6.357  17.048 -0.0465 -0.0395 -0.3018
15477TIP3    H167922   0.245   6.417  17.083 -1.4810 -2.0065  0.4990
15477TIP3    H267923   0.264   6.309  16.978  0.7266 -0.9632 -0.1947
15478TIP3   OH267924   6.093   2.793  10.496  0.4065 -0.1813  0.3087
15478TIP3    H167925   6.160   2.731  10.523  2.3845  1.8322  0.2274
15478TIP3    H267926   6.141   2.858  10.444 -1.9126  0.4138 -1.1663
15479TIP3   OH267927   3.091   3.145   2.769 -0.6663  0.1430 -0.0702
15479TIP3    H167928   3.149   3.206   2.815 -1.0873  0.5830 -0.1163
15479TIP3    H267929   3.095   3.173   2.678  1.2495 -1.5915 -0.5604
15480TIP3   OH267930   5.105   3.543  10.599  0.6474  0.6438 -0.1320
15480TIP3    H167931   5.107   3.453  10.630 -0.7352  0.4200 -0.6947
15480TIP3    H267932   5.029   3.548  10.541  1.2353  1.9347 -0.8229
15481TIP3   OH267933   3.422   5.608   1.465 -0.3978  0.5298 -0.1679
15481TIP3    H167934   3.515   5.627   1.475 -0.2612 -0.7471  1.1672
15481TIP3    H267935   3.379   5.658   1.535 -0.8292  1.8506 -1.3531
15482TIP3   OH267936   0.849   5.235   1.545 -0.3366  0.3284 -0.0567
15482TIP3    H167937   0.869   5.207   1.456 -0.3324  0.1794 -0.0086
15482TIP3    H267938   0.759   5.267   1.540 -0.6399 -0.4985  0.0763
15483TIP3   OH267939   3.613   2.711  13.724  0.4647  0.2210 -0.0232
15483TIP3    H167940   3.661   2.782  13.682  1.0446 -1.1929 -1.8316
15483TIP3    H267941   3.525   2.716  13.687  0.6365 -0.2769 -0.5095
15484TIP3   OH267942   5.520   6.354   2.316  0.5395 -0.5551 -0.6159
15484TIP3    H167943   5.576   6.425   2.347 -1.0418 -0.2242  1.6449
15484TIP3    H267944   5.505   6.373   2.223  1.8403  0.9018 -0.5443
15485TIP3   OH267945   1.658   6.495  16.566 -0.0861 -0.1470 -0.6391
15485TIP3    H167946   1.633   6.548  16.643 -1.1873 -0.4309 -0.7908
15485TIP3    H267947   1.578   6.489  16.514  0.7672  0.4143 -2.0459
15486TIP3   OH267948   6.386   3.198   2.933  0.0885  0.1314  0.0292
15486TIP3    H167949   6.389   3.151   3.016 -0.0304 -2.1778 -1.2418
15486TIP3    H267950   6.294   3.222   2.922  0.1942  0.9307  0.7993
15487TIP3   OH267951   0.088   6.511   1.828 -0.1637  0.6992 -0.0047
15487TIP3    H167952   0.003   6.477   1.800 -0.1187  0.9743 -0.4685
15487TIP3    H267953   0.069   6.598   1.863  0.0189  1.0293 -0.7156
15488TIP3   OH267954   4.725   3.796  15.495 -0.4004 -0.6811  0.1694
15488TIP3    H167955   4.676   3.842  15.562  1.3819 -0.2558  1.2008
15488TIP3    H267956   4.772   3.727  15.543 -0.6045 -1.5770 -0.9053
15489TIP3   OH267957   0.466   1.306  16.125  0.3237 -0.2598  0.1657
15489TIP3    H167958   0.457   1.273  16.215  0.3332  2.1624  1.0842
15489TIP3    H267959   0.551   1.272  16.096  0.4675 -0.7913  1.1699
15490TIP3   OH267960   5.449   2.586   0.994  0.0574  0.6167  0.1006
15490TIP3    H167961   5.450   2.668   1.043  0.6528  1.1227 -0.7660
15490TIP3    H267962   5.366   2.589   0.945 -0.6415  0.0142  1.2149
15491TIP3   OH267963   4.624   1.428  16.415 -0.4722 -0.2052  0.1331
15491TIP3    H167964   4.609   1.454  16.506 -0.2729  0.9827 -0.1593
15491TIP3    H267965   4.545   1.455  16.368  0.2275  1.0048 -0.3920
15492TIP3   OH267966   0.297   3.216   2.325 -0.1477  0.1226 -0.2689
15492TIP3    H167967   0.376   3.190   2.372  0.1071  0.0800 -0.7133
15492TIP3    H267968   0.266   3.294   2.371  0.7810  0.7883 -0.7554
15493TIP3   OH267969   6.755   4.899  11.144  0.3931 -0.4947  0.2539
15493TIP3    H167970   6.806   4.859  11.075 -0.0465 -2.5166  1.0667
15493TIP3    H267971   6.666   4.866  11.131 -0.3253  1.4737  0.0010
15494TIP3   OH267972   3.692   4.312  16.305  0.1501  0.0679  0.8526
15494TIP3    H167973   3.721   4.240  16.360  0.2180 -0.2040  0.4607
15494TIP3    H267974   3.769   4.369  16.297  0.1265  0.1320  1.0730
15495TIP3   OH267975   0.917   2.280   5.957 -0.3683  0.1074  0.0563
15495TIP3    H167976   0.901   2.335   6.033 -0.9601 -0.2097  0.1623
15495TIP3    H267977   0.909   2.339   5.882 -0.1327  0.3463  0.2187
15496TIP3   OH267978   4.702   3.786  16.813 -0.3578  0.3293 -0.1965
15496TIP3    H167979   4.625   3.732  16.831 -0.5214  0.7161  0.2706
15496TIP3    H267980   4.724   3.766  16.722 -0.0341 -1.0046  0.1533
15497TIP3   OH267981   4.849   3.008  16.915 -0.2039  0.4718 -0.2312
15497TIP3    H167982   4.942   3.004  16.935  0.3782  1.0985 -2.5786
15497TIP3    H267983   4.818   2.919  16.927  0.7953  0.1764  0.2095
15498TIP3   OH267984   1.315   5.365   4.597  0.3898 -0.0266  0.1403
15498TIP3    H167985   1.389   5.310   4.568 -0.7690 -1.1224 -0.7750
15498TIP3    H267986   1.346   5.455   4.584  2.1431 -0.4440  1.2080
15499TIP3   OH267987   0.534   6.423  13.033  0.1408  0.0527 -0.2017
15499TIP3    H167988   0.490   6.383  13.107 -0.1732  0.7939  0.0201
15499TIP3    H267989   0.496   6.380  12.956 -0.1129 -0.1522  0.0395
15500TIP3   OH267990   1.134   5.945   2.050 -0.4424 -0.2541 -0.0004
15500TIP3    H167991   1.052   5.917   2.092 -1.1423  0.7681 -0.6744
15500TIP3    H267992   1.180   5.863   2.031 -2.1006 -0.9398 -1.2168
15501TIP3   OH267993   0.538   2.779   4.232  0.2623  0.7005  0.2576
15501TIP3    H167994   0.475   2.819   4.292 -0.4863  0.3948 -0.2974
15501TIP3    H267995   0.493   2.780   4.147  0.3294 -1.0173  0.1766
15502TIP3   OH267996   1.763   2.862  15.240 -0.3963 -0.4959 -0.3908
15502TIP3    H167997   1.790   2.792  15.181 -0.2177  0.1276 -1.0451
15502TIP3    H267998   1.686   2.827  15.285 -0.4509 -1.0160 -0.8825
15503TIP3   OH267999   5.359   0.016  13.604  0.5623  0.4302  0.5419
15503TIP3    H168000   5.335  -0.075  13.619  0.7094  0.1910 -0.6828
15503TIP3    H268001   5.280   0.065  13.627 -0.8808 -0.2891 -2.5821
15504TIP3   OH268002   6.723   5.009   6.403 -0.2898 -0.8195  0.1294
15504TIP3    H168003   6.754   4.920   6.386 -1.9267 -1.5203  0.6595
15504TIP3    H268004   6.644   5.017   6.349  0.0899  0.4560 -0.2300
15505TIP3   OH268005   6.181   4.974  14.461 -0.6431 -0.1850 -0.7398
15505TIP3    H168006   6.232   5.055  14.458  0.2010 -0.5882  1.4004
15505TIP3    H268007   6.090   5.003  14.467 -0.4586  0.5828 -1.6079
15506TIP3   OH268008   2.698   3.127   3.449  0.5016  0.3136 -0.4131
15506TIP3    H168009   2.656   3.134   3.535  1.1429 -0.0818 -0.0701
15506TIP3    H268010   2.646   3.185   3.393  0.2565  0.7987  0.3024
15507TIP3   OH268011   3.365   2.175  12.245 -0.3093  0.3415 -0.4668
15507TIP3    H168012   3.447   2.222  12.233 -0.2862  0.3316 -0.3459
15507TIP3    H268013   3.391   2.085  12.265 -0.3716 -0.0602 -2.1381
15508TIP3   OH268014   6.509   3.119  10.307  0.4031 -0.6748  0.0495
15508TIP3    H168015   6.604   3.120  10.294  0.4352 -1.3696  0.2019
15508TIP3    H268016   6.485   3.211  10.317  0.9571 -0.4446 -0.7206
15509TIP3   OH268017   5.241   4.067   3.194  0.0910 -0.0725  0.4906
15509TIP3    H168018   5.286   3.983   3.183  0.7145  0.0588  1.9321
15509TIP3    H268019   5.153   4.052   3.159  0.5846 -0.9656 -0.3783
15510TIP3   OH268020   3.805   0.703  13.674  0.1852  0.1871  0.2439
15510TIP3    H168021   3.814   0.617  13.715  2.5520 -0.1982 -1.0415
15510TIP3    H268022   3.767   0.758  13.743  2.9062 -0.7593  2.5917
15511TIP3   OH268023   5.690   3.246   0.081 -0.1470  0.4353  0.7013
15511TIP3    H168024   5.625   3.226   0.149  1.0430  0.1630  1.7856
15511TIP3    H268025   5.762   3.286   0.129  1.2392 -0.9205 -0.2248
15512TIP3   OH268026   6.647   2.456   2.836  0.2143  0.4805 -0.8372
15512TIP3    H168027   6.643   2.372   2.882  0.1198  1.5096  1.0911
15512TIP3    H268028   6.719   2.446   2.773  1.3134 -0.4829  0.5425
15513TIP3   OH268029   2.249   1.365   1.822  0.1736  0.6288  0.2973
15513TIP3    H168030   2.222   1.395   1.909  1.0280  1.3262  0.3430
15513TIP3    H268031   2.170   1.368   1.769 -0.0713  1.5325  0.7074
15514TIP3   OH268032   4.951   3.401   3.668 -0.1887 -0.5224  0.0875
15514TIP3    H168033   4.937   3.407   3.762 -0.0822  2.5735 -0.0477
15514TIP3    H268034   4.863   3.407   3.630  0.0527  2.4608 -0.1231
15515TIP3   OH268035   4.611   4.047   5.285 -0.0245  0.3372  0.6834
15515TIP3    H168036   4.613   3.979   5.353 -0.4186 -1.2999 -0.8841
15515TIP3    H268037   4.562   4.119   5.324 -0.5176 -0.6903  2.0224
15516TIP3   OH268038   4.683   4.269  12.970 -0.1052  0.0701 -0.1631
15516TIP3    H168039   4.698   4.356  12.933  0.6701 -0.5515 -1.3446
15516TIP3    H268040   4.770   4.241  12.999 -0.1440 -0.7746 -0.8388
15517TIP3   OH268041   0.309   4.147   4.996 -0.0365 -0.2109 -0.1636
15517TIP3    H168042   0.226   4.100   5.005 -2.0662  3.4184  1.0934
15517TIP3    H268043   0.293   4.211   4.926  1.1942  1.4881  1.0664
15518TIP3   OH268044   6.720   0.379   1.245 -0.3954  0.0626  0.2281
15518TIP3    H168045   6.680   0.359   1.161  1.1206 -2.6329  0.1088
15518TIP3    H268046   6.807   0.412   1.223  0.5599 -2.0406  0.7515
15519TIP3   OH268047   3.059   2.007  15.686 -0.4273 -0.5719 -0.5249
15519TIP3    H168048   3.076   1.923  15.729  1.1894 -0.1184 -0.2355
15519TIP3    H268049   3.073   2.073  15.755 -3.5825 -0.1412 -0.2264
15520TIP3   OH268050   1.107   5.826   2.866  0.3185 -0.3931  0.1824
15520TIP3    H168051   1.135   5.914   2.841  1.2414 -0.0614  2.3219
15520TIP3    H268052   1.023   5.839   2.910  0.4813 -0.5771  0.5481
15521TIP3   OH268053   4.874   1.932   1.582 -0.1592 -0.4745  0.2507
15521TIP3    H168054   4.881   1.853   1.529 -0.7955 -0.6252  0.3940
15521TIP3    H268055   4.864   2.003   1.518 -2.7471 -0.8444  0.1958
15522TIP3   OH268056   6.661   4.356  13.921  0.0823  0.0611 -0.0167
15522TIP3    H168057   6.683   4.280  13.866 -1.4844 -0.3490 -0.1074
15522TIP3    H268058   6.677   4.431  13.864 -0.0626 -0.2901 -0.5335
15523TIP3   OH268059   1.427   0.337   1.355 -0.7202  0.3306  0.2082
15523TIP3    H168060   1.470   0.277   1.293  0.2029 -1.1059  2.1912
15523TIP3    H268061   1.345   0.362   1.311 -0.1536 -0.7533 -1.5295
15524TIP3   OH268062   0.445   2.389   1.663 -0.2622  0.5980  0.2507
15524TIP3    H168063   0.507   2.349   1.602  0.2488 -0.7268  1.6068
15524TIP3    H268064   0.393   2.316   1.695 -1.1131  1.4078  0.7211
15525TIP3   OH268065   2.422   6.510   0.418 -0.6933 -0.0579 -0.0780
15525TIP3    H168066   2.449   6.419   0.426 -0.6031 -0.0738 -0.5710
15525TIP3    H268067   2.495   6.560   0.455 -0.3989 -0.1489 -0.5301
15526TIP3   OH268068   4.573   6.659  16.315  0.0927 -0.1428 -0.2358
15526TIP3    H168069   4.542   6.680  16.403  1.0013  3.4361 -0.7002
15526TIP3    H268070   4.518   6.710  16.257  0.7723 -0.9727 -1.6302
15527TIP3   OH268071   3.773   0.189  13.122  0.2674 -0.3169 -0.4013
15527TIP3    H168072   3.732   0.127  13.181 -1.7381 -0.4517 -1.9054
15527TIP3    H268073   3.829   0.136  13.065 -0.2007 -0.5600 -0.6363
15528TIP3   OH268074   5.852   5.218  16.109 -0.5763 -0.1283  0.2014
15528TIP3    H168075   5.899   5.300  16.128  0.5322 -0.5075 -0.8227
15528TIP3    H268076   5.899   5.152  16.160  0.6823 -0.6832 -1.6212
15529TIP3   OH268077   0.848   6.543   4.719 -0.1408 -0.5205 -0.0932
15529TIP3    H168078   0.921   6.481   4.726 -0.1267 -0.4674  0.2340
15529TIP3    H268079   0.814   6.530   4.630 -0.8567 -1.7942  0.3573
15530TIP3   OH268080   3.434   1.806   2.149  0.0885  0.5488 -0.1705
15530TIP3    H168081   3.356   1.836   2.102  0.3138 -0.1995 -1.0298
15530TIP3    H268082   3.448   1.716   2.118  0.8689  0.4263  0.5166
15531TIP3   OH268083   2.874   2.971  14.037 -0.5836 -0.1467  0.2559
15531TIP3    H168084   2.860   3.051  14.087 -2.5449 -0.0316 -0.4086
15531TIP3    H268085   2.859   2.900  14.100 -0.1816  0.0098  0.5255
15532TIP3   OH268086   5.612   2.601  11.013  0.4735 -0.6136  0.1327
15532TIP3    H168087   5.608   2.526  10.953 -0.8005 -0.5343  0.0966
15532TIP3    H268088   5.703   2.629  11.010  0.7106 -1.4244 -0.7647
15533TIP3   OH268089   5.497   2.803   1.158 -0.2622 -0.1876  0.2777
15533TIP3    H168090   5.465   2.875   1.102 -2.7632 -0.4543  1.2721
15533TIP3    H268091   5.484   2.835   1.247  2.1001 -0.4486  0.7386
15534TIP3   OH268092   4.959   4.441   0.384 -0.5163 -0.0782 -0.0514
15534TIP3    H168093   4.978   4.526   0.343  0.7716 -0.4346 -0.2131
15534TIP3    H268094   5.017   4.438   0.460  0.1144 -1.1900 -0.5655
15535TIP3   OH268095   6.628   1.692  12.832 -1.2533  1.2823  0.7584
15535TIP3    H168096   6.679   1.615  12.859 -1.6148  0.9017  0.3692
15535TIP3    H268097   6.538   1.670  12.854 -1.8759  0.0154 -2.7368
15536TIP3   OH268098   1.991   2.690  16.123 -0.1426  0.1136 -0.0419
15536TIP3    H168099   2.054   2.759  16.102  0.3834 -0.5695 -0.7544
15536TIP3    H268100   1.986   2.638  16.043 -1.5312  0.0989  0.0501
15537TIP3   OH268101   0.329   5.709   1.805  0.4315 -0.2073  0.0980
15537TIP3    H168102   0.356   5.795   1.837  0.5403  0.2044 -1.0795
15537TIP3    H268103   0.381   5.696   1.726 -2.5353  0.4582 -2.0348
15538TIP3   OH268104   1.039   3.900   1.470 -0.3224 -0.0589 -0.0451
15538TIP3    H168105   1.004   3.867   1.553 -2.0635  0.8863 -0.3776
15538TIP3    H268106   0.980   3.971   1.445 -0.5942 -1.1470 -2.7326
15539TIP3   OH268107   4.919   6.363  13.532  0.3370  0.5705  0.0811
15539TIP3    H168108   4.910   6.268  13.542  0.2702  0.3184 -2.2211
15539TIP3    H268109   4.966   6.375  13.450  0.2864  2.5439  0.3077
15540TIP3   OH268110   0.977   0.437  16.151 -0.4212  0.1494 -1.2713
15540TIP3    H168111   1.040   0.389  16.097  1.7536  1.5344 -0.0407
15540TIP3    H268112   0.972   0.523  16.110 -1.6076  0.0340 -1.3954
15541TIP3   OH268113   5.991   0.928   1.029 -0.1168 -0.1018 -0.0176
15541TIP3    H168114   5.963   0.837   1.041  1.1969 -0.5435 -0.1773
15541TIP3    H268115   6.037   0.929   0.945 -0.7708  0.8769 -0.3756
15542TIP3   OH268116   2.776   1.126  16.531  0.1376 -0.0525  0.4715
15542TIP3    H168117   2.728   1.048  16.504 -0.0174  0.3025 -0.2838
15542TIP3    H268118   2.860   1.093  16.565 -0.2668 -0.6025  0.9383
15543TIP3   OH268119   5.026   6.807   0.527  0.0623  0.7066 -0.3102
15543TIP3    H168120   4.944   6.783   0.569  2.0769 -0.4764  3.1896
15543TIP3    H268121   5.083   6.731   0.540  2.5792  2.5536 -0.1154
15544TIP3   OH268122   0.974   6.378  14.631 -0.5089  0.2260  0.0067
15544TIP3    H168123   0.999   6.392  14.539 -1.7422 -0.7234 -0.4862
15544TIP3    H268124   0.928   6.459  14.655  1.9997  1.5148  0.5767
15545TIP3   OH268125   4.949   0.247   0.578 -0.1559  0.7140 -0.2329
15545TIP3    H168126   4.891   0.261   0.502  1.1199 -0.4882 -1.4731
15545TIP3    H268127   5.001   0.171   0.553 -0.2850 -0.2172  2.2299
15546TIP3   OH268128   6.324   4.502  15.547  0.3240 -0.0485  0.1417
15546TIP3    H168129   6.399   4.444  15.537  0.2734 -0.4162  1.7181
15546TIP3    H268130   6.353   4.585  15.509  1.7295 -0.0300  1.2056
15547TIP3   OH268131   2.773   1.106  15.560 -0.1626 -0.5603  0.2407
15547TIP3    H168132   2.753   1.148  15.476  0.4975  0.6516  0.6710
15547TIP3    H268133   2.837   1.038  15.538  0.1040 -0.1615 -0.2389
15548TIP3   OH268134   4.395   0.804   2.627  0.7794  0.5574  0.4866
15548TIP3    H168135   4.470   0.839   2.578  3.0535 -0.6283  2.9678
15548TIP3    H268136   4.361   0.879   2.676 -0.1586  1.2693 -1.2417
15549TIP3   OH268137   6.770   3.883   3.054 -0.5747  0.3588 -0.3760
15549TIP3    H168138   6.744   3.951   2.993  0.0244  1.5157  0.6343
15549TIP3    H268139   6.702   3.816   3.047 -2.3918  2.0784  0.2618
15550TIP3   OH268140   4.632   3.168  15.997  0.3274  1.2127 -0.0856
15550TIP3    H168141   4.628   3.099  15.931  1.0527  0.9138  0.1802
15550TIP3    H268142   4.590   3.130  16.074  1.2823  0.8449  0.2550
15551TIP3   OH268143   1.323   0.859  15.759  0.2759 -0.0040 -0.3271
15551TIP3    H168144   1.274   0.941  15.757  0.6011  0.3206  2.7406
15551TIP3    H268145   1.306   0.823  15.846  1.5304 -2.3333 -1.0054
15552TIP3   OH268146   2.676   1.507  11.014 -0.1265 -0.1540 -0.3307
15552TIP3    H168147   2.623   1.576  10.974 -0.5437 -0.2602  0.0274
15552TIP3    H268148   2.629   1.426  10.994  0.0796 -0.2822 -0.2976
15553TIP3   OH268149   3.047   1.523  16.680  0.6081 -0.4988 -0.7492
15553TIP3    H168150   3.043   1.512  16.585 -0.2974  0.8555 -0.8857
15553TIP3    H268151   3.140   1.515  16.701  0.5646 -3.0890 -1.4499
15554TIP3   OH268152   3.391   5.293  14.794 -0.0904  0.5641 -0.5815
15554TIP3    H168153   3.477   5.333  14.784  0.3618 -0.2381  0.1252
15554TIP3    H268154   3.340   5.358  14.843  1.1795 -0.4618  2.1522
15555TIP3   OH268155   4.376   5.935  11.200  0.9188 -0.0789  0.5322
15555TIP3    H168156   4.444   5.966  11.260  2.1123 -0.7791 -0.4420
15555TIP3    H268157   4.424   5.898  11.126 -0.5333  0.2364 -0.5868
15556TIP3   OH268158   2.392   1.941  15.018  0.1026  0.0976 -0.2925
15556TIP3    H168159   2.364   1.936  15.110  1.9398 -1.7473  0.2170
15556TIP3    H268160   2.434   2.026  15.010 -1.7583  1.0580  0.0814
15557TIP3   OH268161   3.187   6.501   1.566 -0.1383 -0.4854  0.2821
15557TIP3    H168162   3.278   6.531   1.568 -0.9162  1.9884  0.7980
15557TIP3    H268163   3.171   6.467   1.654  0.8602 -2.8701 -0.4112
15558TIP3   OH268164   4.748   4.552  15.166 -0.2609 -0.7762 -0.2703
15558TIP3    H168165   4.695   4.521  15.093 -0.6112 -0.1386 -0.2946
15558TIP3    H268166   4.759   4.475  15.222  0.5888 -1.4280 -1.3277
15559TIP3   OH268167   5.911   1.943   4.001  0.0799 -0.0624  0.6036
15559TIP3    H168168   5.927   1.866   4.056  0.6939 -0.6140 -0.3196
15559TIP3    H268169   5.902   1.907   3.912 -0.5180  0.8453  0.2920
15560TIP3   OH268170   0.027   0.644  16.544 -0.3304  0.3033  0.0528
15560TIP3    H168171   0.079   0.614  16.470 -0.2795  2.1219 -0.6716
15560TIP3    H268172  -0.015   0.564  16.578 -1.5533 -0.3715 -2.8654
15561TIP3   OH268173   3.018   0.127   1.671  0.0538 -0.4420 -0.1483
15561TIP3    H168174   2.981   0.181   1.741  1.5493 -0.2640  0.5216
15561TIP3    H268175   2.974   0.158   1.592  0.8042  1.7350  0.2312
15562TIP3   OH268176   5.444   2.021  14.557  0.6963 -0.1335  0.7402
15562TIP3    H168177   5.416   1.936  14.522 -0.1451 -0.0623  1.2255
15562TIP3    H268178   5.405   2.085  14.497  0.5005 -0.0614  0.9439
15563TIP3   OH268179   3.296   1.997   3.009 -0.2994  0.0978 -0.1691
15563TIP3    H168180   3.313   2.002   3.103 -0.7642  1.2046 -0.1402
15563TIP3    H268181   3.236   2.070   2.991 -0.0690  0.0046 -1.3575
15564TIP3   OH268182   4.955   5.860  15.638  0.1164 -0.1993  0.1586
15564TIP3    H168183   4.915   5.776  15.660 -0.2024  0.3175  1.5893
15564TIP3    H268184   5.049   5.845  15.649 -0.0410  0.0823  2.0518
15565TIP3   OH268185   5.795   5.099  16.775 -0.6867 -0.0158  0.0208
15565TIP3    H168186   5.803   5.051  16.857  0.6737  1.0190  0.5150
15565TIP3    H268187   5.761   5.185  16.801  1.9008  1.1024 -0.2085
15566TIP3   OH268188   5.615   3.062   1.525 -0.3584  0.2355  0.4573
15566TIP3    H168189   5.563   3.114   1.587  2.4238  0.6454  2.5309
15566TIP3    H268190   5.666   3.002   1.580  0.0384 -1.4198 -1.6336
15567TIP3   OH268191   6.415   5.308  16.483 -0.4390  0.4869 -0.2687
15567TIP3    H168192   6.375   5.298  16.569 -2.6635 -1.5240 -1.4766
15567TIP3    H268193   6.388   5.396  16.455  0.4409  1.2154  1.1438
15568TIP3   OH268194   0.108   5.074  12.515  0.1238 -0.3047 -0.6754
15568TIP3    H168195   0.101   5.100  12.607  1.3202 -0.4039 -0.5449
15568TIP3    H268196   0.020   5.044  12.491 -0.4810  0.8558  0.0821
15569TIP3   OH268197   3.738   1.916  17.209 -0.1728 -0.2575  0.4187
15569TIP3    H168198   3.718   1.852  17.141  1.8719 -1.0706  0.5560
15569TIP3    H268199   3.790   1.867  17.273  1.8582  1.6339  0.2734
15570TIP3   OH268200   4.110   1.084   5.853  0.2281 -0.3955 -0.4172
15570TIP3    H168201   4.072   1.129   5.929  0.4683 -1.4883  0.3759
15570TIP3    H268202   4.194   1.127   5.840  0.3484 -0.4374  0.1748
15571TIP3   OH268203   4.304   4.659  13.486  0.0607 -0.6180  0.1959
15571TIP3    H168204   4.338   4.726  13.546 -0.4483 -1.1518  1.0932
15571TIP3    H268205   4.213   4.646  13.513 -0.3829 -0.3587 -1.1601
15572TIP3   OH268206   6.542   3.742   1.165  0.2944 -0.0143  0.4757
15572TIP3    H168207   6.558   3.836   1.176 -0.5777  0.1208  0.6178
15572TIP3    H268208   6.461   3.726   1.214 -0.5381 -0.4984 -1.0503
15573TIP3   OH268209   4.697   2.947   0.001  0.1281 -0.0419 -0.3433
15573TIP3    H168210   4.688   2.943  -0.094  0.3390  0.1885 -0.3735
15573TIP3    H268211   4.723   2.859   0.027  1.4098  0.2275 -0.6569
15574TIP3   OH268212   6.610   2.024  12.212 -0.0251 -0.3309 -0.6894
15574TIP3    H168213   6.661   2.015  12.293 -0.5430  1.4379 -0.1443
15574TIP3    H268214   6.612   1.937  12.173  2.1433 -0.6665  0.0846
15575TIP3   OH268215   5.020   2.959   4.171 -0.3645  0.5857 -0.5521
15575TIP3    H168216   5.009   2.923   4.083  0.9810  0.7842 -0.8115
15575TIP3    H268217   5.027   2.881   4.227 -1.1305  0.4579 -0.6338
15576TIP3   OH268218   0.473   3.027  16.224 -0.3873  0.7914  0.1960
15576TIP3    H168219   0.385   2.990  16.232 -1.2431  2.5769 -0.8091
15576TIP3    H268220   0.464   3.118  16.250  1.1170  1.0649 -0.1566
15577TIP3   OH268221   1.698   2.233  14.436  0.2555 -0.1644 -0.8574
15577TIP3    H168222   1.742   2.190  14.509  1.3856  1.3026 -0.6361
15577TIP3    H268223   1.682   2.163  14.372 -0.6520 -1.4395  0.7321
15578TIP3   OH268224   5.788   1.752   0.474 -0.1188 -0.1109  0.4313
15578TIP3    H168225   5.714   1.708   0.517 -0.1603  0.0924  0.5674
15578TIP3    H268226   5.775   1.845   0.493 -0.6324  0.0682 -0.7848
15579TIP3   OH268227   0.402   4.341   4.488  0.4173 -0.0502 -0.6968
15579TIP3    H168228   0.344   4.276   4.449 -0.5791  0.4697 -0.1018
15579TIP3    H268229   0.414   4.407   4.420 -0.1416  0.1234 -0.6264
15580TIP3   OH268230   2.962   3.199  12.456 -0.5369  0.2233  0.7500
15580TIP3    H168231   2.875   3.234  12.436 -1.4811 -0.7864  2.9773
15580TIP3    H268232   3.017   3.277  12.470 -1.2721  0.8462  0.2177
15581TIP3   OH268233   5.548   6.692  14.574 -0.1254  0.5111  0.0850
15581TIP3    H168234   5.526   6.738  14.492 -1.1061 -1.7956 -0.9727
15581TIP3    H268235   5.618   6.632  14.550 -0.4470 -0.2114  0.9416
15582TIP3   OH268236   3.514   4.774   1.150  0.0181 -0.2126 -0.4205
15582TIP3    H168237   3.471   4.771   1.235 -0.4570 -1.1793 -0.6906
15582TIP3    H268238   3.558   4.859   1.148 -0.6143  0.1382  0.4720
15583TIP3   OH268239   4.870   4.499  16.522  0.1214  0.1131  0.3449
15583TIP3    H168240   4.779   4.529  16.521  0.0023 -0.2507 -0.0803
15583TIP3    H268241   4.909   4.544  16.596 -0.5460 -0.1567  0.8651
15584TIP3   OH268242   2.807   0.920  11.358 -0.3097 -1.0682  0.0600
15584TIP3    H168243   2.898   0.941  11.377 -0.4590 -0.2552 -0.0970
15584TIP3    H268244   2.803   0.825  11.358  0.6279 -1.1058 -0.3655
15585TIP3   OH268245   1.524   1.533  14.696 -0.1777 -0.0498  0.1780
15585TIP3    H168246   1.434   1.563  14.685 -0.2300 -0.7899 -1.7246
15585TIP3    H268247   1.558   1.528  14.606  1.9250  0.7275  0.9090
15586TIP3   OH268248   6.604   0.662  11.922 -0.1090 -0.0177 -0.8636
15586TIP3    H168249   6.521   0.702  11.897  1.2591  2.5898 -1.4195
15586TIP3    H268250   6.671   0.715  11.878  1.9491 -0.8433  1.1486
15587TIP3   OH268251   5.635   2.310   2.673 -0.0983  0.4189  0.2792
15587TIP3    H168252   5.711   2.358   2.703 -1.1140  1.8358  0.6028
15587TIP3    H268253   5.661   2.276   2.587  1.0449  0.5131  0.5807
15588TIP3   OH268254   4.345   3.180  11.597  0.4128  0.1623  0.4278
15588TIP3    H168255   4.353   3.128  11.517 -0.1514  0.9941 -0.1664
15588TIP3    H268256   4.420   3.239  11.595 -0.0176  0.7042  0.1271
15589TIP3   OH268257   4.120   5.352   2.679  0.2450 -0.1861  0.4244
15589TIP3    H168258   4.031   5.368   2.710  0.2243  0.9674 -0.2431
15589TIP3    H268259   4.113   5.352   2.584  0.7785 -1.1722  0.3737
15590TIP3   OH268260   2.878   2.666   3.588 -0.3120 -0.0191  0.5322
15590TIP3    H168261   2.835   2.639   3.507 -2.9784  0.3553  1.7626
15590TIP3    H268262   2.966   2.630   3.582 -0.7681 -0.7798 -2.1121
15591TIP3   OH268263   3.308   0.921  11.106 -0.1070  0.0317 -0.1887
15591TIP3    H168264   3.345   0.885  11.026  0.1561 -0.9883  0.3758
15591TIP3    H268265   3.251   0.992  11.077  1.4726  0.9170 -1.1272
15592TIP3   OH268266   3.297   4.772  15.785 -0.4511 -0.1549 -0.3372
15592TIP3    H168267   3.387   4.784  15.754 -0.8961 -0.8802 -1.9311
15592TIP3    H268268   3.242   4.811  15.717 -1.3240  1.6223  1.3182
15593TIP3   OH268269   1.772   3.413  11.564 -0.1684  0.3839 -0.3281
15593TIP3    H168270   1.764   3.460  11.647 -1.1831 -0.4123  0.0366
15593TIP3    H268271   1.796   3.324  11.589  0.9865  0.5138 -0.9737
15594TIP3   OH268272   2.293   1.842  13.475  0.4183  0.4455  0.4770
15594TIP3    H168273   2.367   1.872  13.423  1.2410 -1.0479  0.7437
15594TIP3    H268274   2.282   1.908  13.543  0.3553  1.5902 -0.6416
15595TIP3   OH268275   3.580   1.092  16.490 -0.1605 -0.8459 -0.2643
15595TIP3    H168276   3.638   1.060  16.422 -0.7176  3.0567 -2.7224
15595TIP3    H268277   3.634   1.092  16.569  2.0464 -0.7462 -1.7259
15596TIP3   OH268278   0.078   3.639  16.031 -0.2439 -0.8308 -0.1838
15596TIP3    H168279   0.086   3.663  15.939  2.8449  1.5224  0.6401
15596TIP3    H268280   0.141   3.568  16.043 -1.4041 -1.8618 -0.0970
15597TIP3   OH268281   0.897   5.876  11.528  0.6755  0.0607 -0.0536
15597TIP3    H168282   0.883   5.908  11.617  1.4916  1.1558 -0.2991
15597TIP3    H268283   0.991   5.886  11.513  0.4672  0.4487 -1.2258
15598TIP3   OH268284   0.693   0.236  16.941  0.0112 -0.0375 -0.0302
15598TIP3    H168285   0.652   0.322  16.938  0.6906  0.2848 -0.1258
15598TIP3    H268286   0.696   0.208  16.849  2.2881  1.0344 -0.3196
15599TIP3   OH268287   4.747   2.979  14.126 -0.0767 -0.4526 -0.0431
15599TIP3    H168288   4.814   2.915  14.104 -0.0149 -0.2007 -0.6003
15599TIP3    H268289   4.667   2.927  14.137 -0.2166 -0.5384 -1.3511
15600TIP3   OH268290   0.751   2.263  11.686 -0.2968  0.0578 -0.5493
15600TIP3    H168291   0.769   2.245  11.779  0.4832  0.7807 -0.5542
15600TIP3    H268292   0.833   2.242  11.641  0.1267  2.1118 -0.7504
15601TIP3   OH268293   1.459   4.124  16.153  0.4023 -0.4457 -0.4291
15601TIP3    H168294   1.524   4.081  16.210  0.9275  1.6474  0.5990
15601TIP3    H268295   1.511   4.157  16.079  0.2871 -0.0626 -0.3417
15602TIP3   OH268296   4.902   1.055  15.804  0.1978  0.3201  0.2795
15602TIP3    H168297   4.913   1.110  15.727  1.8340  1.1108  1.0505
15602TIP3    H268298   4.960   0.980  15.789 -1.5652 -0.9053 -0.4931
15603TIP3   OH268299   0.431   6.538  15.731  0.3086 -0.4710 -0.0157
15603TIP3    H168300   0.375   6.597  15.679  0.8140  0.6406  0.6761
15603TIP3    H268301   0.428   6.455  15.684 -0.8921 -0.0630 -0.6965
15604TIP3   OH268302   2.791   3.849   5.723  0.4544  0.3452 -0.2211
15604TIP3    H168303   2.797   3.760   5.757 -1.5697  1.4815  3.4124
15604TIP3    H268304   2.712   3.849   5.668  0.7873 -0.2246 -0.7049
15605TIP3   OH268305   4.100   2.316  14.288  0.1915 -0.3045 -0.3502
15605TIP3    H168306   4.013   2.340  14.256  0.8063 -0.4191 -2.1779
15605TIP3    H268307   4.160   2.366  14.233  1.3119 -1.1255  0.1122
15606TIP3   OH268308   4.094   3.078  10.242 -0.1058  0.2983 -0.0667
15606TIP3    H168309   4.087   3.162  10.195 -0.9540 -0.2667 -0.9692
15606TIP3    H268310   4.031   3.086  10.313 -0.1305  0.4620 -0.1065
15607TIP3   OH268311   4.695   6.652  11.238 -0.0236 -0.0421 -0.1723
15607TIP3    H168312   4.708   6.743  11.267  1.0574  0.2046 -1.4032
15607TIP3    H268313   4.743   6.646  11.156 -1.3241 -1.3261 -0.8571
15608TIP3   OH268314   4.867   4.002   5.389  0.4156 -0.5879  0.7233
15608TIP3    H168315   4.863   4.077   5.448  1.2892 -0.3947  0.5445
15608TIP3    H268316   4.803   4.021   5.321 -0.0770 -0.4752  1.2202
15609TIP3   OH268317   0.025   2.880   1.887  0.3860  0.4840 -0.0885
15609TIP3    H168318   0.058   2.925   1.964  1.2459 -0.6869  0.2481
15609TIP3    H268319   0.037   2.942   1.815  1.4532  0.8263  0.3854
15610TIP3   OH268320   3.178   0.426  11.667 -0.4133  0.9278 -0.5579
15610TIP3    H168321   3.238   0.496  11.692  0.5700  0.2338 -0.9339
15610TIP3    H268322   3.117   0.468  11.606 -1.0928  1.9386  0.7966
15611TIP3   OH268323   0.631   2.011   6.747 -0.4117  0.7338 -0.2707
15611TIP3    H168324   0.632   1.915   6.747 -0.0779  0.6819 -3.2200
15611TIP3    H268325   0.635   2.035   6.840 -0.4555 -2.0933  0.5196
15612TIP3   OH268326   2.188   5.089  15.567 -0.0918  0.0680  0.2865
15612TIP3    H168327   2.138   5.015  15.602  0.1723 -0.4249 -0.3606
15612TIP3    H268328   2.244   5.116  15.640 -0.4116 -0.1662  0.6259
15613TIP3   OH268329   5.852   0.413  17.005  0.1444  0.0134  0.0101
15613TIP3    H168330   5.778   0.353  16.999 -0.6803  1.1021 -0.9032
15613TIP3    H268331   5.928   0.355  17.013 -0.8677 -1.0970  2.0577
15614TIP3   OH268332   2.468   3.685  12.984 -0.0438  0.3627 -0.5251
15614TIP3    H168333   2.554   3.681  12.943  0.0565  2.6958 -0.6191
15614TIP3    H268334   2.406   3.678  12.912  0.0647 -0.0886 -0.5805
15615TIP3   OH268335   1.585   6.024   2.412  0.1168  0.1108 -0.2578
15615TIP3    H168336   1.671   5.997   2.379 -0.1390  2.6940 -3.2911
15615TIP3    H268337   1.530   5.946   2.402  1.4225 -0.7240 -0.9887
15616TIP3   OH268338   3.856   4.817   0.627 -0.5226  0.1256 -0.5403
15616TIP3    H168339   3.875   4.850   0.715 -1.4650 -1.3767  0.2340
15616TIP3    H268340   3.930   4.760   0.606 -0.7805 -0.2978 -0.3109
15617TIP3   OH268341   2.879   1.430   5.288 -0.0331 -0.5822 -0.5793
15617TIP3    H168342   2.961   1.476   5.306  0.2949 -0.6672 -1.7912
15617TIP3    H268343   2.830   1.489   5.230 -1.0188 -0.3459  0.4657
15618TIP3   OH268344   1.594   1.782  16.521 -0.1947 -0.4372  0.3920
15618TIP3    H168345   1.553   1.863  16.551  2.9794  1.7172 -0.8236
15618TIP3    H268346   1.655   1.759  16.591  0.6465 -0.4328 -0.3290
15619TIP3   OH268347   0.275   5.617   1.449  0.1196 -0.0555 -0.2554
15619TIP3    H168348   0.223   5.537   1.454 -0.0699  0.0430 -0.6324
15619TIP3    H268349   0.361   5.589   1.416  1.2705 -0.6630  3.0694
15620TIP3   OH268350   0.018   6.031   2.391  0.3302 -0.0177 -0.0974
15620TIP3    H168351  -0.064   6.039   2.344  0.1194  1.2855  0.4683
15620TIP3    H268352   0.069   5.968   2.341  0.0970  1.3092 -2.0589
15621TIP3   OH268353   4.028   2.481   4.092  0.1368 -0.3908 -0.1926
15621TIP3    H168354   3.974   2.440   4.159  1.1676  0.7934  1.4144
15621TIP3    H268355   4.109   2.504   4.138  0.0292  2.3795 -1.2868
15622TIP3   OH268356   4.210   4.472   4.843  0.3755 -0.0386 -0.2745
15622TIP3    H168357   4.227   4.452   4.751  1.3752  0.1424 -0.1449
15622TIP3    H268358   4.135   4.531   4.841  0.8047  0.5053 -1.0286
15623TIP3   OH268359   0.684   4.028   2.175  0.4592 -0.5358 -0.5250
15623TIP3    H168360   0.720   3.969   2.241 -3.6427 -1.8470  0.7008
15623TIP3    H268361   0.703   4.115   2.207  0.5876 -1.1810  1.1822
15624TIP3   OH268362   2.148   2.918  12.510  0.1232 -0.3580  0.0934
15624TIP3    H168363   2.074   2.963  12.551 -0.7918 -0.7583 -1.1114
15624TIP3    H268364   2.109   2.843  12.465  1.0620  0.2571 -1.7863
15625TIP3   OH268365   3.009   1.690   2.573  0.0769 -0.2152  0.0203
15625TIP3    H168366   3.003   1.695   2.669  0.5744  1.4654 -0.0288
15625TIP3    H268367   3.100   1.712   2.554 -0.0518 -0.4422 -0.8518
15626TIP3   OH268368   6.091   5.881  13.980  0.8971 -0.4098 -0.2628
15626TIP3    H168369   6.067   5.797  14.020  2.3948  0.2960  2.2249
15626TIP3    H268370   6.138   5.928  14.049 -0.1446  2.6087 -1.5319
15627TIP3   OH268371   0.697   0.991  11.383 -0.2527 -0.5142  1.0790
15627TIP3    H168372   0.792   1.004  11.377 -0.4858  0.5624 -0.8392
15627TIP3    H268373   0.677   1.002  11.476  1.2671  1.0024  1.2460
15628TIP3   OH268374   6.752   2.153  10.793 -0.2368 -0.3730  0.3920
15628TIP3    H168375   6.708   2.126  10.712  0.8549  3.0179 -1.4450
15628TIP3    H268376   6.838   2.111  10.789 -0.1743 -0.1976 -0.2255
15629TIP3   OH268377   1.873   5.474   3.624  0.8733  0.0115  0.0712
15629TIP3    H168378   1.843   5.390   3.659  1.4780 -0.1951  0.1027
15629TIP3    H268379   1.948   5.451   3.569 -0.1566  0.3204 -1.4678
15630TIP3   OH268380   5.200   6.271   1.861  0.2966  0.1808  0.0543
15630TIP3    H168381   5.202   6.268   1.957  3.8498  0.0792  0.0446
15630TIP3    H268382   5.273   6.215   1.834 -1.3990 -0.7584 -2.7747
15631TIP3   OH268383   1.501   6.260  15.895 -0.6011 -0.2498 -0.6916
15631TIP3    H168384   1.448   6.195  15.848 -0.1290 -0.3572 -1.0887
15631TIP3    H268385   1.548   6.210  15.961  1.3706 -0.6734 -2.3711
15632TIP3   OH268386   0.005   2.721  15.634  0.3008  0.2119  0.7156
15632TIP3    H168387   0.087   2.673  15.645  0.7308  0.8551  0.3429
15632TIP3    H268388  -0.023   2.743  15.723  0.6379  0.1769  0.8266
15633TIP3   OH268389   5.734   4.538   4.950  0.6228 -0.8679 -0.2940
15633TIP3    H168390   5.808   4.580   4.994 -0.4950 -0.1683  0.9282
15633TIP3    H268391   5.726   4.585   4.867 -1.4740  2.3419  1.6152
15634TIP3   OH268392   1.216   5.174  12.771 -0.1679 -0.2750 -0.1499
15634TIP3    H168393   1.267   5.254  12.784  2.0671 -1.4245 -1.4301
15634TIP3    H268394   1.216   5.131  12.857 -1.8411  1.3077  0.6799
15635TIP3   OH268395   2.720   1.891  13.562  0.3046  0.3107  0.2663
15635TIP3    H168396   2.752   1.889  13.652  1.0275  0.6322  0.0203
15635TIP3    H268397   2.654   1.822  13.559 -1.4020  1.8470  1.6593
15636TIP3   OH268398   3.307   0.382   1.980  0.0508  0.0950  0.0523
15636TIP3    H168399   3.266   0.322   2.043 -0.7448 -0.8320 -1.3257
15636TIP3    H268400   3.325   0.461   2.031 -0.8273 -0.5414  1.3879
15637TIP3   OH268401   5.282   3.269   2.760 -0.0777 -0.2954 -0.3548
15637TIP3    H168402   5.266   3.228   2.845 -0.0544 -2.1887 -1.2238
15637TIP3    H268403   5.374   3.249   2.740 -0.3589 -0.7635 -1.2614
15638TIP3   OH268404   3.197   3.094   4.736  0.0354  0.3587  0.3079
15638TIP3    H168405   3.181   3.165   4.799 -0.2314 -0.0883  0.7501
15638TIP3    H268406   3.276   3.051   4.768 -0.7551 -0.5930  0.9997
15639TIP3   OH268407   4.069   5.292  13.582 -0.1070  0.1946  0.1675
15639TIP3    H168408   4.081   5.297  13.488  0.3067  1.0333  0.2573
15639TIP3    H268409   3.994   5.348  13.600  1.3261  2.0272  0.6011
15640TIP3   OH268410   6.695   2.264  12.539  0.0647  0.0362 -0.4547
15640TIP3    H168411   6.717   2.172  12.557  0.0504 -0.0177 -0.7053
15640TIP3    H268412   6.719   2.311  12.618  2.8225  0.2798 -1.4008
15641TIP3   OH268413   5.942   1.713  16.276 -0.3913 -0.0823  0.8123
15641TIP3    H168414   5.984   1.662  16.345  1.0109  0.7797  0.6335
15641TIP3    H268415   5.933   1.801  16.313  0.2419  0.3537 -0.0197
15642TIP3   OH268416   4.493   1.265  15.334  0.0308  1.2714 -0.2189
15642TIP3    H168417   4.408   1.281  15.376  0.6979  0.5163  1.4673
15642TIP3    H268418   4.557   1.284  15.402  1.3697  4.3408 -2.2521
15643TIP3   OH268419   0.963   3.746  13.051  0.0191  0.1337  0.1036
15643TIP3    H168420   1.050   3.706  13.054 -0.4131 -1.0329 -1.8334
15643TIP3    H268421   0.964   3.812  13.120  1.8093 -1.1452  1.3355
15644TIP3   OH268422   5.476   1.600   5.948  0.3181  0.5085  0.5337
15644TIP3    H168423   5.548   1.542   5.925 -1.5123 -1.2892 -0.8728
15644TIP3    H268424   5.408   1.542   5.982 -1.3996  1.8376 -0.5117
15645TIP3   OH268425   6.482   3.651  12.150  0.0237  0.4114 -0.1903
15645TIP3    H168426   6.517   3.727  12.197 -2.2654  0.8918  0.7867
15645TIP3    H268427   6.446   3.688  12.069 -0.0486  0.1970 -0.2540
15646TIP3   OH268428   6.370   1.250   2.403  0.2963  0.1198  0.1262
15646TIP3    H168429   6.363   1.346   2.398 -1.7508  0.0779  1.5871
15646TIP3    H268430   6.349   1.220   2.314  3.1636  1.0779 -0.9567
15647TIP3   OH268431   3.459   3.718  10.928  0.5318 -0.0500 -0.2062
15647TIP3    H168432   3.443   3.760  10.843  0.2505  1.6984  0.6761
15647TIP3    H268433   3.411   3.635  10.924  0.1657  0.2207 -1.5900
15648TIP3   OH268434   5.326   4.730  11.955  0.0920  0.3275  0.0264
15648TIP3    H168435   5.282   4.793  11.898 -0.8718  0.1360  0.5487
15648TIP3    H268436   5.419   4.743  11.937 -0.1388  1.2243 -0.5836
15649TIP3   OH268437   3.425   0.137  15.709 -0.2905  0.8935 -0.1946
15649TIP3    H168438   3.449   0.052  15.746 -0.4182  1.0222  0.1827
15649TIP3    H268439   3.334   0.127  15.683 -0.8627  1.4987  1.5500
15650TIP3   OH268440   4.231   0.181  14.415  0.3541 -0.1686 -1.0544
15650TIP3    H168441   4.211   0.106  14.359 -1.0987  0.3529 -1.2489
15650TIP3    H268442   4.200   0.154  14.502  2.0116 -0.7193 -0.6086
15651TIP3   OH268443   3.144   0.864   2.894 -0.7056  0.2249 -0.2125
15651TIP3    H168444   3.106   0.799   2.835  1.2264 -0.8563 -0.3181
15651TIP3    H268445   3.079   0.934   2.898 -2.0398 -0.9021 -1.5062
15652TIP3   OH268446   4.232   3.085   2.814  0.2720  0.2754  0.3625
15652TIP3    H168447   4.286   3.164   2.825  0.3759  0.2322  0.1792
15652TIP3    H268448   4.206   3.060   2.903  0.5397  0.3085  0.4505
15653TIP3   OH268449   0.992   0.651   5.654 -0.3050 -0.3714 -0.3848
15653TIP3    H168450   0.906   0.624   5.685 -0.3842 -0.0294 -0.3068
15653TIP3    H268451   1.006   0.736   5.695  0.0177 -0.3706 -0.4975
15654TIP3   OH268452   2.007   1.281   3.174 -0.0378 -0.1711 -0.6482
15654TIP3    H168453   1.911   1.279   3.175  0.0077 -2.5403  1.1838
15654TIP3    H268454   2.031   1.245   3.089 -0.7707  0.4607 -1.1269
15655TIP3   OH268455   6.766   1.857   4.453 -0.1845 -0.3238 -0.0181
15655TIP3    H168456   6.796   1.924   4.514  0.5148  0.0103 -0.7138
15655TIP3    H268457   6.818   1.780   4.474 -1.0011 -0.6629  0.7957
15656TIP3   OH268458   1.809   4.476   2.286  0.2393 -0.5437  0.3647
15656TIP3    H168459   1.773   4.522   2.362 -2.2408 -0.6925 -0.6667
15656TIP3    H268460   1.903   4.494   2.289 -0.1015  1.1061  2.3184
15657TIP3   OH268461   4.444   2.000   3.006 -0.2953 -0.2695 -0.1818
15657TIP3    H168462   4.513   2.067   3.005 -0.9011  0.3780  0.6146
15657TIP3    H268463   4.367   2.046   3.039 -0.6109 -1.4771  0.7900
15658TIP3   OH268464   1.387   0.027  16.564  0.3927  0.7064 -0.8081
15658TIP3    H168465   1.340   0.036  16.646  2.8894 -2.3103  1.0697
15658TIP3    H268466   1.380  -0.065  16.541  0.4398  1.3299 -3.5843
15659TIP3   OH268467   0.436   5.242   3.808 -0.2089  0.2021 -0.2552
15659TIP3    H168468   0.429   5.150   3.835 -0.8406 -0.0532 -1.2825
15659TIP3    H268469   0.451   5.238   3.714  0.2959  1.1464 -0.2150
15660TIP3   OH268470   0.287   2.934  14.299 -0.1291  0.2819 -0.2276
15660TIP3    H168471   0.223   2.994  14.261  1.3410  0.6897 -2.1408
15660TIP3    H268472   0.366   2.946  14.245  0.8939 -1.7108  0.7846
15661TIP3   OH268473   3.271   2.813  11.722 -0.0835 -0.5899  0.2507
15661TIP3    H168474   3.191   2.816  11.773  0.5248  1.5490  1.1300
15661TIP3    H268475   3.295   2.720  11.720 -1.9610 -1.1097  0.9151
15662TIP3   OH268476   3.857   6.756   5.812 -0.2443 -0.3792 -0.5731
15662TIP3    H168477   3.922   6.782   5.877 -1.0703  2.8978 -0.9699
15662TIP3    H268478   3.871   6.662   5.800  0.6892 -0.8070  3.4430
15663TIP3   OH268479   5.284   6.516   0.385  0.6231 -0.3672 -0.0516
15663TIP3    H168480   5.328   6.599   0.401 -2.1574  0.8982  1.4827
15663TIP3    H268481   5.215   6.513   0.452  0.6352 -3.8934 -0.1005
15664TIP3   OH268482   1.992   2.625   4.840  0.0927 -0.5162  0.0926
15664TIP3    H168483   1.977   2.532   4.856  1.3767 -0.4939  1.4955
15664TIP3    H268484   2.075   2.644   4.884 -1.5095  1.8949  2.1875
15665TIP3   OH268485   1.703   0.118   4.913 -0.0849  0.0262  0.5905
15665TIP3    H168486   1.751   0.177   4.854 -0.0751  0.1489  0.7214
15665TIP3    H268487   1.612   0.150   4.908 -0.2916 -0.6494 -0.2156
15666TIP3   OH268488   2.880   0.794   3.169  0.5344  0.3685  0.4385
15666TIP3    H168489   2.933   0.849   3.227  0.2078 -0.1247  1.2102
15666TIP3    H268490   2.853   0.853   3.099 -0.1167  1.3029  1.4526
15667TIP3   OH268491   4.360   4.934   2.626 -0.0877 -0.1244  0.2039
15667TIP3    H168492   4.435   4.972   2.580 -0.5346 -1.6679 -1.9114
15667TIP3    H268493   4.398   4.888   2.701  0.9212  0.3759  0.0091
15668TIP3   OH268494   1.665   2.878  14.271 -0.2839 -0.7039 -0.6068
15668TIP3    H168495   1.719   2.833  14.336 -0.2134  0.9559  0.5042
15668TIP3    H268496   1.587   2.822  14.263  0.8812 -2.3022 -1.0946
15669TIP3   OH268497   1.212   5.644   0.275 -0.4388 -0.1798 -0.2017
15669TIP3    H168498   1.198   5.686   0.190  0.3350 -0.3965 -0.4323
15669TIP3    H268499   1.236   5.554   0.253  0.4578 -0.0415  0.2372
15670TIP3   OH268500   5.548   6.729   0.086  0.2134  0.2475  0.3448
15670TIP3    H168501   5.548   6.655   0.146 -0.1657  1.2323  1.5938
15670TIP3    H268502   5.529   6.692   0.001  0.1916 -1.1068  0.9327
15671TIP3   OH268503   0.734   5.860  15.315  0.2681  0.4155 -0.3992
15671TIP3    H168504   0.778   5.840  15.397 -1.3644  1.5912  0.7952
15671TIP3    H268505   0.797   5.835  15.247  1.8106 -0.1468  1.1973
15672TIP3   OH268506   2.713   3.787   1.314  0.4636 -0.0741  0.1766
15672TIP3    H168507   2.720   3.792   1.218 -0.4187  0.6387  0.1521
15672TIP3    H268508   2.786   3.840   1.346  0.3563  0.2377 -0.0942
15673TIP3   OH268509   2.042   5.289   1.886 -0.5579 -0.0250  0.1094
15673TIP3    H168510   1.991   5.253   1.959  1.3912 -0.7090  1.1813
15673TIP3    H268511   2.080   5.212   1.843  1.5740  0.5723  0.8596
15674TIP3   OH268512   1.027   2.965  11.050  0.3682  0.1036  0.2795
15674TIP3    H168513   0.956   3.018  11.014  0.6996  0.9404  0.8412
15674TIP3    H268514   1.025   2.884  10.999 -0.3164  0.5458 -0.4024
15675TIP3   OH268515   0.462   1.862   6.435  0.5157  0.0885 -1.2329
15675TIP3    H168516   0.543   1.910   6.454  0.1901  0.2261 -0.1568
15675TIP3    H268517   0.460   1.792   6.500  0.2519 -0.5037 -1.8749
15676TIP3   OH268518   5.580   4.425  12.361  0.0390  0.0054 -0.1173
15676TIP3    H168519   5.495   4.434  12.319  1.2421 -1.9047 -3.1031
15676TIP3    H268520   5.584   4.332  12.386  0.7750  0.3458  1.0616
15677TIP3   OH268521   2.333   3.168   3.328  0.0370 -0.0283  0.2971
15677TIP3    H168522   2.298   3.124   3.405  0.6958 -0.3706  0.4031
15677TIP3    H268523   2.381   3.243   3.363  0.6814 -0.4174  0.2444
15678TIP3   OH268524   3.206   4.150  11.258 -0.0756  0.7232 -0.0949
15678TIP3    H168525   3.296   4.175  11.276 -0.8192  3.5118  0.0432
15678TIP3    H268526   3.200   4.146  11.163  0.7162 -1.7012 -0.0816
15679TIP3   OH268527   4.756   0.350   2.098  0.2360 -0.0230  0.6003
15679TIP3    H168528   4.774   0.413   2.028 -0.6279  0.6704  0.9841
15679TIP3    H268529   4.734   0.269   2.053  0.2103  0.2749  0.0794
15680TIP3   OH268530   1.835   3.892  17.144  0.7433 -0.0807  0.0147
15680TIP3    H168531   1.840   3.965  17.205  1.0345  0.4736 -0.6732
15680TIP3    H268532   1.889   3.918  17.070  0.2021 -0.6526 -0.5914
15681TIP3   OH268533   0.473   5.550   4.056 -0.6404 -0.5384  0.2178
15681TIP3    H168534   0.428   5.542   3.972 -0.8820 -2.9860  0.5610
15681TIP3    H268535   0.557   5.508   4.043 -0.4244 -0.3607  1.0223
15682TIP3   OH268536   3.782   2.597   2.730 -0.3740  0.8957  0.1692
15682TIP3    H168537   3.851   2.531   2.729 -0.7932  0.3957  1.8780
15682TIP3    H268538   3.800   2.649   2.808 -0.4103  2.4094 -0.8284
15683TIP3   OH268539   2.624   2.048  11.485  0.1079  0.2263 -0.7376
15683TIP3    H168540   2.541   2.093  11.470 -0.2836 -0.1496  0.3362
15683TIP3    H268541   2.644   2.006  11.401  0.6198  2.6073 -1.8562
15684TIP3   OH268542   4.841   4.873  13.834 -0.0486 -0.0891  0.5055
15684TIP3    H168543   4.928   4.894  13.801  0.1609 -1.4382  0.1631
15684TIP3    H268544   4.834   4.921  13.916  0.8367  0.3999  0.2962
15685TIP3   OH268545   4.633   2.552  12.242 -0.5086  0.1343  0.2632
15685TIP3    H168546   4.678   2.574  12.160 -2.6837  0.6323 -0.8452
15685TIP3    H268547   4.679   2.475  12.275  2.8947  2.2459  0.6524
15686TIP3   OH268548   6.246   3.001   6.395  0.1069 -0.3225 -0.2014
15686TIP3    H168549   6.327   2.963   6.361 -0.1988 -0.0151 -1.3151
15686TIP3    H268550   6.247   3.092   6.363 -0.7102 -0.3413 -0.3066
15687TIP3   OH268551   0.439   3.960   5.192 -0.2634 -0.6185  0.5749
15687TIP3    H168552   0.349   3.988   5.208 -0.7163 -1.0778 -1.0660
15687TIP3    H268553   0.434   3.865   5.182 -0.1308 -0.3291 -2.7379
15688TIP3   OH268554   2.025   1.248  16.345  0.7405  0.2816 -0.5405
15688TIP3    H168555   2.066   1.269  16.262 -1.1865  1.2183 -1.2913
15688TIP3    H268556   1.968   1.322  16.363  0.2462 -0.4548  1.0252
15689TIP3   OH268557   6.710   2.819  13.928  0.8337 -0.1601 -0.7131
15689TIP3    H168558   6.781   2.871  13.889  0.5501 -0.4339 -1.6104
15689TIP3    H268559   6.658   2.790  13.853  1.6340 -2.7147 -0.3121
15690TIP3   OH268560   1.921   5.866  11.357  0.0680  0.7115  0.6679
15690TIP3    H168561   1.858   5.813  11.407 -1.4107  0.5369 -1.2970
15690TIP3    H268562   1.868   5.909  11.290  2.2803 -0.9241 -2.2597
15691TIP3   OH268563   4.401   2.925  12.842  0.5711 -0.2265  0.0444
15691TIP3    H168564   4.413   2.831  12.861  0.9029 -0.2774 -0.4051
15691TIP3    H268565   4.434   2.969  12.920  0.6329 -0.4778  0.1627
15692TIP3   OH268566   3.649   1.064  14.782  0.2426  0.5883  0.6244
15692TIP3    H168567   3.616   1.096  14.866 -0.5091 -0.2019  0.6323
15692TIP3    H268568   3.665   0.970  14.797  0.5462  0.5430  0.0237
15693TIP3   OH268569   4.592   5.900  12.239  0.3158  0.0000  0.0148
15693TIP3    H168570   4.599   5.985  12.197 -0.3767  1.1589  2.1716
15693TIP3    H268571   4.506   5.868  12.215  0.7216 -0.2700 -1.1010
15694TIP3   OH268572   5.262   6.694  17.128 -0.2248 -0.2990 -0.1529
15694TIP3    H168573   5.295   6.676  17.216  0.6899 -0.5395 -0.5392
15694TIP3    H268574   5.167   6.689  17.137 -0.1283 -0.7474  0.7248
15695TIP3   OH268575   6.224   3.930  15.364 -0.3965  0.5169  0.1192
15695TIP3    H168576   6.276   3.884  15.430 -2.2300 -1.1831  0.4494
15695TIP3    H268577   6.158   3.977  15.415  0.5451  2.3477 -0.3120
15696TIP3   OH268578   1.481   5.624  14.303 -0.1639 -0.4172 -0.1667
15696TIP3    H168579   1.519   5.710  14.319 -0.1665 -0.2236 -1.1906
15696TIP3    H268580   1.511   5.571  14.376 -0.5859  0.5904  0.7588
15697TIP3   OH268581   3.830   6.490   5.191 -0.7392  0.1411  0.2366
15697TIP3    H168582   3.910   6.542   5.187 -1.0854  0.6391 -0.2031
15697TIP3    H268583   3.839   6.440   5.272  0.0139  0.1952  0.1929
15698TIP3   OH268584   4.337   2.795   2.900 -0.1702 -0.2177 -0.0913
15698TIP3    H168585   4.292   2.852   2.963 -0.1849  0.2256 -0.5071
15698TIP3    H268586   4.422   2.778   2.941  1.0426  2.5830 -1.3520
15699TIP3   OH268587   6.024   3.599   4.015 -0.6215  0.1246 -0.2193
15699TIP3    H168588   5.992   3.667   4.075 -2.0984 -0.5182 -0.2623
15699TIP3    H268589   5.947   3.546   3.995  0.5859 -1.8315  0.1571
15700TIP3   OH268590   0.676   2.402  16.035  0.6565  0.1315  0.5920
15700TIP3    H168591   0.616   2.346  15.987 -1.1238  0.1208  2.7361
15700TIP3    H268592   0.619   2.465  16.079  2.3689  1.3034  1.1770
15701TIP3   OH268593   1.774   0.972  13.380 -0.5340  0.4370  0.2913
15701TIP3    H168594   1.735   0.913  13.444  0.0469 -0.2357  0.0228
15701TIP3    H268595   1.831   0.917  13.327 -1.0804  0.9715 -0.8695
15702TIP3   OH268596   6.157   1.121  16.819  0.6385 -0.1154 -0.0024
15702TIP3    H168597   6.207   1.138  16.899  2.8249  2.2649 -1.7770
15702TIP3    H268598   6.160   1.026  16.809  1.6001 -0.3301  1.9266
15703TIP3   OH268599   0.889   5.035   6.389 -0.1657 -0.4555  0.0996
15703TIP3    H168600   0.832   5.024   6.312 -1.7727  0.7478  1.0813
15703TIP3    H268601   0.843   5.100   6.443  1.6368 -0.2565  1.4206
15704TIP3   OH268602   1.253   0.026   1.544  0.1301 -0.9315 -0.0389
15704TIP3    H168603   1.196   0.099   1.520  0.4427 -0.4565  0.6595
15704TIP3    H268604   1.199  -0.052   1.530 -1.2150 -0.4129  2.0293
15705TIP3   OH268605   4.869   3.776  11.309 -0.4852 -0.6020 -0.2575
15705TIP3    H168606   4.861   3.865  11.341  0.7950 -0.6416  0.2073
15705TIP3    H268607   4.910   3.785  11.223  1.5708 -0.8482  0.6690
15706TIP3   OH268608   0.318   4.516  11.505 -0.8078  0.2070 -0.1536
15706TIP3    H168609   0.414   4.520  11.511 -0.6716 -2.1816 -0.2742
15706TIP3    H268610   0.301   4.465  11.425 -2.1354 -1.0637  0.9097
15707TIP3   OH268611   0.611   1.196   5.991  0.4776  0.2100  0.0577
15707TIP3    H168612   0.531   1.243   5.966  2.0617  2.3184 -1.2912
15707TIP3    H268613   0.668   1.264   6.028  2.9072 -0.5391 -2.1088
15708TIP3   OH268614   4.320   0.260  16.483 -0.7364  0.2497 -0.7590
15708TIP3    H168615   4.367   0.180  16.503  2.0192  2.0030  0.0941
15708TIP3    H268616   4.228   0.234  16.481 -0.1747 -2.3262  2.6528
15709TIP3   OH268617   0.391   6.223   5.446  0.1512  0.3482  0.2769
15709TIP3    H168618   0.370   6.284   5.375  0.1720 -0.7102 -0.6384
15709TIP3    H268619   0.326   6.242   5.514 -0.1832  1.0074 -0.2214
15710TIP3   OH268620   0.207   2.529   2.645  0.2630 -0.1516 -0.4150
15710TIP3    H168621   0.151   2.581   2.588  0.5846  3.0197  1.9588
15710TIP3    H268622   0.295   2.541   2.609  0.2628  0.5671 -0.1937
15711TIP3   OH268623   0.996   1.122  14.786 -0.0092  0.1481  0.1054
15711TIP3    H168624   0.958   1.170  14.712  1.9018  1.8247  0.1456
15711TIP3    H268625   0.951   1.157  14.863  0.5506  1.0665  0.0266
15712TIP3   OH268626   2.317   2.424  12.199  0.0588 -0.2610 -0.5117
15712TIP3    H168627   2.304   2.511  12.160  1.0457  1.1743  2.2401
15712TIP3    H268628   2.406   2.426  12.233 -0.3106 -1.9558  0.6199
15713TIP3   OH268629   3.352   5.032  16.403 -0.1801  0.5120 -0.4857
15713TIP3    H168630   3.289   4.981  16.351  0.9218 -1.4231  0.0588
15713TIP3    H268631   3.319   5.026  16.493  1.5219 -1.6547  0.0079
15714TIP3   OH268632   5.176   1.172   0.319 -0.1095  0.4589 -0.9806
15714TIP3    H168633   5.142   1.254   0.284  0.2904  0.9938 -0.1464
15714TIP3    H268634   5.270   1.184   0.323 -0.1362  0.3939  0.1903
15715TIP3   OH268635   4.494   4.595  15.463  0.4202 -0.3184 -0.3880
15715TIP3    H168636   4.477   4.652  15.538 -1.0159 -0.6760 -0.4269
15715TIP3    H268637   4.420   4.534  15.462  1.5434 -1.7067 -0.7895
15716TIP3   OH268638   5.356   5.672  12.902  0.7063 -0.1213 -0.1000
15716TIP3    H168639   5.275   5.679  12.952  0.5295  0.8410 -0.4958
15716TIP3    H268640   5.327   5.654  12.812  0.7397  3.2195 -0.8593
15717TIP3   OH268641   1.669   3.505   2.429 -0.3226  0.5466  0.5781
15717TIP3    H168642   1.698   3.595   2.443  4.1043 -0.8316  1.3048
15717TIP3    H268643   1.671   3.495   2.333  2.4566  0.3745  0.5887
15718TIP3   OH268644   5.471   3.631   5.075 -0.3189 -0.0792 -0.2059
15718TIP3    H168645   5.414   3.564   5.113  1.6343 -0.7540  1.6178
15718TIP3    H268646   5.455   3.709   5.127 -0.4523  0.0820 -0.4846
15719TIP3   OH268647   3.991   3.248  13.937 -0.0994 -0.5305 -0.1852
15719TIP3    H168648   3.946   3.326  13.905 -0.3838 -1.5920 -2.4292
15719TIP3    H268649   3.927   3.177  13.928  0.7998 -1.3909 -0.0118
15720TIP3   OH268650   3.467   4.867  14.511 -0.3867  0.0819  0.3266
15720TIP3    H168651   3.556   4.878  14.546 -1.3884  2.9600  2.1209
15720TIP3    H268652   3.417   4.830  14.584 -1.1511  0.4840  0.0086
15721TIP3   OH268653   4.332   0.352  15.424  0.6598  0.5913 -0.4413
15721TIP3    H168654   4.406   0.413  15.432 -0.1570  1.5626 -0.1435
15721TIP3    H268655   4.286   0.359  15.507 -1.2809  2.0236 -1.5933
15722TIP3   OH268656   4.572   1.938  17.240  0.3527  0.3582  0.1603
15722TIP3    H168657   4.557   1.937  17.335 -0.0803  0.4538  0.0892
15722TIP3    H268658   4.668   1.935  17.232  0.3510 -2.5920  0.5814
15723TIP3   OH268659   2.156   1.197   5.585 -0.3350  0.2725 -0.0558
15723TIP3    H168660   2.130   1.231   5.499 -0.6741 -1.7486 -0.7941
15723TIP3    H268661   2.246   1.167   5.572 -0.1616  0.5619  0.4836
15724TIP3   OH268662   1.385   3.508   2.429  0.0768  0.5840  0.6238
15724TIP3    H168663   1.452   3.543   2.371 -0.0439  1.2263  0.8673
15724TIP3    H268664   1.341   3.585   2.465 -1.5397  0.1706 -0.3860
15725TIP3   OH268665   0.035   4.742   0.391 -0.0906 -0.0656 -0.0604
15725TIP3    H168666   0.121   4.745   0.433  1.1999  0.3220 -2.6303
15725TIP3    H268667   0.019   4.649   0.376 -0.6311 -0.2230  1.3303
15726TIP3   OH268668   1.343   0.551  13.577 -0.2638  0.0952 -0.0489
15726TIP3    H168669   1.434   0.522  13.576  0.2894  1.8317 -1.4088
15726TIP3    H268670   1.292   0.472  13.556  0.7571 -1.2908  2.4060
15727TIP3   OH268671   5.463   2.105   0.560 -0.0757  0.5701  0.3366
15727TIP3    H168672   5.409   2.102   0.481  0.6458 -1.5948 -0.1076
15727TIP3    H268673   5.439   2.188   0.603 -2.1331  0.6769 -0.9636
15728TIP3   OH268674   3.031   5.345  16.646 -0.4966  0.0094  0.4518
15728TIP3    H168675   3.065   5.300  16.568  0.1584 -0.0451  0.7602
15728TIP3    H268676   3.104   5.400  16.675  0.0591 -1.6295  2.3031
15729TIP3   OH268677   4.074   2.701  16.750  0.1258 -0.1103 -0.7815
15729TIP3    H168678   4.008   2.701  16.819  0.0866  1.7729 -0.8096
15729TIP3    H268679   4.024   2.713  16.669  0.5350  1.7373 -0.7645
15730TIP3   OH268680   2.494   0.755   4.167  0.4625  0.4784 -0.8398
15730TIP3    H168681   2.422   0.811   4.195  0.6519 -0.1624  0.9788
15730TIP3    H268682   2.551   0.748   4.244  0.2396 -2.5151 -0.9087
15731TIP3   OH268683   1.558   1.796   5.608  0.0298 -0.7146  0.0198
15731TIP3    H168684   1.509   1.714   5.607  2.1300 -2.0402  1.7001
15731TIP3    H268685   1.618   1.787   5.682  1.4582  1.6546 -0.8047
15732TIP3   OH268686   5.171   0.301   3.190 -0.2705  0.5912  0.0917
15732TIP3    H168687   5.174   0.333   3.100  1.5324  1.8241  0.5854
15732TIP3    H268688   5.260   0.311   3.223 -0.8891  0.0607  1.9988
15733TIP3   OH268689   5.858   3.032  13.419  0.1368 -0.0699  0.2195
15733TIP3    H168690   5.888   3.096  13.355 -0.3139  0.0865  0.1630
15733TIP3    H268691   5.913   2.955  13.405 -0.6363 -0.4014 -1.0461
15734TIP3   OH268692   3.303   2.232   2.511 -0.2677  0.4024  0.1812
15734TIP3    H168693   3.398   2.235   2.504 -0.4422  2.8524 -1.5683
15734TIP3    H268694   3.282   2.294   2.581 -0.5923 -0.2178  0.6441
15735TIP3   OH268695   0.761   0.564   5.747 -0.7874  0.0781  0.6270
15735TIP3    H168696   0.792   0.475   5.762  2.1721  0.9784  0.3158
15735TIP3    H268697   0.709   0.559   5.667 -1.8705 -1.6148  1.4273
15736TIP3   OH268698   2.011   1.178  13.947 -0.4202 -1.0848  0.2304
15736TIP3    H168699   2.058   1.225  13.878 -1.5227  1.7845  1.3433
15736TIP3    H268700   2.005   1.088  13.915 -0.3651  0.0285 -3.1286
15737TIP3   OH268701   1.110   2.548   4.634  0.0421 -0.1535 -0.1492
15737TIP3    H168702   1.098   2.456   4.610  1.1168 -0.2061 -0.5058
15737TIP3    H268703   1.047   2.596   4.581 -0.6758 -0.7097  0.2006
15738TIP3   OH268704   5.096   6.134  14.641 -0.0025  0.2357  0.4049
15738TIP3    H168705   5.061   6.194  14.707  1.5427  2.7285 -0.9695
15738TIP3    H268706   5.187   6.162  14.628  0.7005 -2.2795 -0.4458
15739TIP3   OH268707   5.021   1.007  16.378 -0.5523 -0.2929 -0.0963
15739TIP3    H168708   5.114   1.026  16.366 -0.5134  0.0134  0.6578
15739TIP3    H268709   4.980   1.092  16.389 -0.6498 -0.5015  1.3830
15740TIP3   OH268710   2.242   1.431   3.497  0.3859 -0.0772  0.7132
15740TIP3    H168711   2.170   1.428   3.560 -0.0269 -1.1765  0.1966
15740TIP3    H268712   2.290   1.350   3.511  1.1703  0.3616  0.6224
15741TIP3   OH268713   5.125   5.153   3.723 -0.2101 -0.3531 -0.0952
15741TIP3    H168714   5.081   5.070   3.706 -0.0874 -0.3682 -0.3452
15741TIP3    H268715   5.127   5.196   3.638  0.1646 -0.3084 -0.0627
15742TIP3   OH268716   5.671   3.479   0.668 -0.2232 -0.1771 -1.1129
15742TIP3    H168717   5.640   3.433   0.591 -1.2972  1.2938 -1.5723
15742TIP3    H268718   5.622   3.561   0.669 -1.6692 -1.0143  2.2215
15743TIP3   OH268719   1.696   6.040   0.189 -0.3117 -0.2521  0.2387
15743TIP3    H168720   1.646   5.993   0.256 -2.1278  0.9518 -0.2336
15743TIP3    H268721   1.772   5.984   0.172 -0.6470 -1.3445  2.1410
15744TIP3   OH268722   1.215   2.960  14.782  0.1044 -0.6955  0.1199
15744TIP3    H168723   1.282   3.020  14.813 -0.2255 -0.1950 -0.1285
15744TIP3    H268724   1.171   2.929  14.862  0.7947 -1.2227  0.2981
15745TIP3   OH268725   3.813   6.752  17.066 -0.5045 -0.8852  0.4864
15745TIP3    H168726   3.850   6.718  17.147 -1.3881 -1.0174  0.8319
15745TIP3    H268727   3.886   6.747  17.003  0.2660 -0.5127  1.3331
15746TIP3   OH268728   1.124   0.129  12.902 -0.3927 -0.1622  0.3604
15746TIP3    H168729   1.083   0.210  12.872 -2.9603 -0.9209  1.6597
15746TIP3    H268730   1.148   0.146  12.993  1.2382 -0.0866 -0.0724
15747TIP3   OH268731   2.903   4.045  14.892  0.3756 -0.0959  0.2957
15747TIP3    H168732   2.864   4.125  14.856 -0.6381 -0.8705 -0.3558
15747TIP3    H268733   2.893   4.054  14.987 -0.7120  0.0595  0.1701
15748TIP3   OH268734   3.741   4.454  11.692 -0.3072 -0.4613  0.2467
15748TIP3    H168735   3.686   4.523  11.730 -1.1032 -1.0036  0.0974
15748TIP3    H268736   3.829   4.471  11.726 -0.8087 -0.3060  1.4818
15749TIP3   OH268737   3.262   6.450   1.119 -0.1189 -0.1482 -0.5518
15749TIP3    H168738   3.280   6.359   1.143 -0.0756 -0.4712 -1.7882
15749TIP3    H268739   3.338   6.498   1.153 -0.7323 -0.3818  1.1939
15750TIP3   OH268740   6.374   1.817  16.376 -0.3689  0.0758  0.0299
15750TIP3    H168741   6.289   1.830  16.418 -0.0802  3.2110 -0.2094
15750TIP3    H268742   6.434   1.798  16.447 -0.9908 -0.7471  0.3457
15751TIP3   OH268743   0.214   6.750   3.292 -0.1984 -0.8532 -0.0693
15751TIP3    H168744   0.264   6.830   3.303  0.5964 -1.0651 -1.9954
15751TIP3    H268745   0.271   6.681   3.324 -0.2322 -0.8239  0.0540
15752TIP3   OH268746   3.275   3.034  16.452 -0.5036  0.1588 -0.0642
15752TIP3    H168747   3.341   3.100  16.471 -0.9714  0.6449 -0.0950
15752TIP3    H268748   3.254   2.995  16.536 -0.8553  0.6563  0.0792
15753TIP3   OH268749   4.165   4.051  14.258 -0.6041 -0.3113 -0.6839
15753TIP3    H168750   4.075   4.034  14.227 -0.1570 -2.8429 -0.7160
15753TIP3    H268751   4.153   4.093  14.343 -1.8515 -1.1742 -0.4047
15754TIP3   OH268752   6.140   5.011  12.597  0.4537 -0.0378  0.6449
15754TIP3    H168753   6.174   4.965  12.520  0.1005 -0.0113  0.4709
15754TIP3    H268754   6.118   5.098  12.565 -0.3663 -0.2492  0.5996
15755TIP3   OH268755   1.576   5.992  16.816  0.0037 -0.1395  0.2812
15755TIP3    H168756   1.629   6.069  16.796 -1.0481  0.3984 -0.4543
15755TIP3    H268757   1.623   5.919  16.775  0.1414  0.3458 -0.4319
15756TIP3   OH268758   6.282   3.562   0.217 -0.7227 -0.0209 -0.7462
15756TIP3    H168759   6.270   3.470   0.238 -0.9705  0.0183 -0.7157
15756TIP3    H268760   6.302   3.604   0.300 -0.9101  0.0039 -0.7153
15757TIP3   OH268761   2.119   5.075   5.678  0.1854 -0.0914 -0.2905
15757TIP3    H168762   2.157   5.020   5.609 -0.2447  0.1595 -0.7299
15757TIP3    H268763   2.045   5.025   5.711  1.0112 -0.6718  0.7099
15758TIP3   OH268764   0.389   1.397   0.958  0.4867 -0.1435  0.2925
15758TIP3    H168765   0.447   1.399   1.034 -0.4042 -0.9344  0.9949
15758TIP3    H268766   0.350   1.485   0.956 -0.7898 -0.6641  1.7669
15759TIP3   OH268767   3.358   5.030  15.112  0.0504  0.7035 -0.6927
15759TIP3    H168768   3.366   5.125  15.098 -0.2890  0.2577 -4.4845
15759TIP3    H268769   3.294   5.002  15.047  1.4039 -2.3861 -0.7458
15760TIP3   OH268770   6.287   2.102  11.814  0.3555  0.0141  0.2043
15760TIP3    H168771   6.374   2.130  11.785 -0.4132  1.7103 -0.4632
15760TIP3    H268772   6.303   2.063  11.901  1.9644 -0.9296 -0.4792
15761TIP3   OH268773   0.992   2.420   0.064  0.4262  0.5640  0.3536
15761TIP3    H168774   1.008   2.332   0.098  0.2992  1.6865  3.4722
15761TIP3    H268775   1.073   2.444   0.020  0.6884 -0.8363  0.0514
15762TIP3   OH268776   5.372   3.891  13.292 -0.2082  0.8078 -0.6791
15762TIP3    H168777   5.313   3.857  13.225 -0.5319  0.2644 -0.1221
15762TIP3    H268778   5.352   3.985  13.296 -1.1277  0.6057 -0.4062
15763TIP3   OH268779   6.698   1.640   5.576  0.4645  0.1197 -0.1596
15763TIP3    H168780   6.628   1.625   5.639  1.6743 -1.9656  0.7696
15763TIP3    H268781   6.733   1.552   5.559  2.3624  1.0347 -1.1444
15764TIP3   OH268782   3.949   4.792   4.423  0.0620 -0.0527  0.1298
15764TIP3    H168783   3.976   4.883   4.414 -0.0479 -0.1525 -1.1859
15764TIP3    H268784   3.856   4.796   4.445  0.0743  0.1469  0.1406
15765TIP3   OH268785   6.671   6.495  16.521  0.4802  0.1450  0.3586
15765TIP3    H168786   6.625   6.412  16.525  0.6921  0.0997  2.2472
15765TIP3    H268787   6.602   6.561  16.519  0.3077 -0.0720 -1.5453
15766TIP3   OH268788   5.886   3.531  16.553  0.3191 -0.4449 -0.4996
15766TIP3    H168789   5.895   3.461  16.618 -1.2259 -0.0077  0.2140
15766TIP3    H268790   5.866   3.609  16.605 -0.9668 -0.0998 -1.4891
15767TIP3   OH268791   5.322   2.976   2.816 -0.2987 -0.7574  0.2701
15767TIP3    H168792   5.375   2.897   2.825  0.3810 -0.3438 -0.1148
15767TIP3    H268793   5.362   3.024   2.743 -1.3385 -0.5593 -0.1833
15768TIP3   OH268794   2.169   4.641  14.735  0.3429 -0.1584 -0.1243
15768TIP3    H168795   2.228   4.716  14.735  0.5467 -0.3191 -0.7598
15768TIP3    H268796   2.210   4.579  14.795  0.1482  0.2468  0.4435
15769TIP3   OH268797   0.977   6.639  14.043  0.3288 -0.2869 -0.0972
15769TIP3    H168798   1.005   6.571  13.982  0.1264 -1.2261  0.8510
15769TIP3    H268799   0.893   6.669  14.009  0.0979 -0.9776 -0.1404
15770TIP3   OH268800   3.697   0.206  10.988 -0.1466  0.4326 -0.2932
15770TIP3    H168801   3.620   0.191  10.933  0.0530 -0.4477 -0.3476
15770TIP3    H268802   3.691   0.139  11.056  1.8477 -1.2400 -1.6903
15771TIP3   OH268803   2.456   2.745   5.516 -0.5284 -0.2776  0.0528
15771TIP3    H168804   2.451   2.669   5.458  2.6727 -0.2760 -0.3333
15771TIP3    H268805   2.517   2.804   5.473 -0.7638  1.2488  1.7539
15772TIP3   OH268806   6.719   4.521  16.790 -0.3643  0.5761  0.2839
15772TIP3    H168807   6.808   4.518  16.755 -0.7318 -0.4543 -0.5724
15772TIP3    H268808   6.688   4.431  16.787 -0.6501  0.5443  2.6862
15773TIP3   OH268809   1.327   6.336   4.073  0.2917  0.1223  0.0235
15773TIP3    H168810   1.409   6.370   4.038  0.3535 -0.7005 -0.6354
15773TIP3    H268811   1.285   6.293   3.999  0.7471 -2.2491  1.0864
15774TIP3   OH268812   6.571   4.523  13.036 -0.1813 -0.0119 -0.5910
15774TIP3    H168813   6.648   4.523  12.979  1.6587  1.5381  1.7622
15774TIP3    H268814   6.536   4.612  13.029  0.8180  0.5933  1.5706
15775TIP3   OH268815   3.313   0.764   6.425 -0.1382 -0.1140  0.4599
15775TIP3    H168816   3.353   0.840   6.382 -1.0923  1.0047  1.4931
15775TIP3    H268817   3.225   0.760   6.387 -0.0581 -0.7609  0.3454
15776TIP3   OH268818   4.985   6.593  14.923  0.0316 -0.4479 -0.5811
15776TIP3    H168819   4.918   6.542  14.969 -0.1847 -1.0237 -1.5286
15776TIP3    H268820   5.038   6.527  14.878  1.4393 -0.0197  0.4262
15777TIP3   OH268821   1.625   2.489  12.745  0.6379 -0.0312  0.1629
15777TIP3    H168822   1.677   2.499  12.666 -1.4304 -0.0413 -1.2269
15777TIP3    H268823   1.556   2.428  12.721 -1.8074  2.2917  1.0354
15778TIP3   OH268824   3.275   5.347  12.589  0.4035 -0.2361 -0.4671
15778TIP3    H168825   3.234   5.396  12.661 -1.0511 -2.1752  0.0565
15778TIP3    H268826   3.360   5.322  12.624  0.8063  1.1324 -0.4179
15779TIP3   OH268827   5.265   3.231  11.177 -0.1108  0.4677 -0.5974
15779TIP3    H168828   5.186   3.247  11.230  1.2075  1.2448  1.1981
15779TIP3    H268829   5.308   3.158  11.221  1.7075  2.0082  0.2772
15780TIP3   OH268830   0.492   4.898   0.547  0.1411  0.0848 -0.0761
15780TIP3    H168831   0.542   4.875   0.470 -1.8372  0.8677 -1.6483
15780TIP3    H268832   0.496   4.994   0.551  0.5552  0.0285  1.0101
15781TIP3   OH268833   1.605   2.261   3.023  0.7042  0.1190 -0.2352
15781TIP3    H168834   1.546   2.186   3.035 -0.5094  1.2085  0.7202
15781TIP3    H268835   1.663   2.234   2.951  0.8622 -2.0852  0.6608
15782TIP3   OH268836   5.126   4.926   5.130 -0.6857  0.2023 -0.3711
15782TIP3    H168837   5.185   4.905   5.202  0.5517 -1.4809 -1.8299
15782TIP3    H268838   5.157   5.010   5.097 -0.6779  0.5266  0.4640
15783TIP3   OH268839   4.201   4.098   5.535 -0.2798  0.0623 -0.0443
15783TIP3    H168840   4.183   4.022   5.480 -1.3894  0.3443 -0.0795
15783TIP3    H268841   4.275   4.141   5.493 -1.4477  0.5691 -1.6051
15784TIP3   OH268842   5.649   4.003   3.613  0.0635  0.5160 -0.2272
15784TIP3    H168843   5.688   3.923   3.578  2.4253 -0.3039  3.9535
15784TIP3    H268844   5.707   4.073   3.583  0.4758  0.1649 -0.2468
15785TIP3   OH268845   3.594   2.026  13.776  0.2121 -0.3188  0.3538
15785TIP3    H168846   3.607   2.101  13.718  3.6712 -1.9429 -1.1580
15785TIP3    H268847   3.515   1.984  13.743 -1.0392  1.8937  0.4109
15786TIP3   OH268848   3.058   6.276  13.424 -0.0936  0.2996  0.3945
15786TIP3    H168849   3.056   6.311  13.513  2.1800  0.4714  0.4067
15786TIP3    H268850   3.066   6.181  13.437 -1.4197  0.1683  0.3507
15787TIP3   OH268851   0.523   2.614  14.415 -0.0818  0.8527 -0.2172
15787TIP3    H168852   0.476   2.577  14.341 -1.3088  1.3532  0.2981
15787TIP3    H268853   0.455   2.637  14.478  1.0368 -1.3822  1.9212
15788TIP3   OH268854   5.072   2.474  16.767 -0.1745 -0.4355 -0.6214
15788TIP3    H168855   4.985   2.493  16.732 -0.6809  1.0191  1.3477
15788TIP3    H268856   5.125   2.550  16.741  0.4746 -1.2084 -1.6157
15789TIP3   OH268857   6.172   5.437   3.668  0.0211  0.5195  0.0426
15789TIP3    H168858   6.168   5.527   3.699  1.1295 -0.0254  1.8014
15789TIP3    H268859   6.129   5.386   3.736 -1.5451 -0.1982 -1.4272
15790TIP3   OH268860   1.896   1.245   2.641 -0.0243  0.5205  0.1801
15790TIP3    H168861   1.826   1.198   2.595  0.8510 -0.7932  0.1627
15790TIP3    H268862   1.970   1.186   2.637  0.4973  1.0463  2.0092
15791TIP3   OH268863   4.884   6.197  11.414 -0.3862  0.7059 -0.2158
15791TIP3    H168864   4.871   6.188  11.508  0.3038  0.0314 -0.1828
15791TIP3    H268865   4.796   6.211  11.379 -0.8585 -0.8409  0.3325
15792TIP3   OH268866   0.558   4.282  12.511  0.3996 -0.4419  0.9405
15792TIP3    H168867   0.585   4.300  12.601  0.0175 -0.5629  1.0815
15792TIP3    H268868   0.538   4.369  12.474  0.8265 -0.3664  0.8821
15793TIP3   OH268869   1.849   5.645   5.849  0.2623  0.4879  0.2090
15793TIP3    H168870   1.880   5.697   5.775 -2.4382  1.5447 -0.1991
15793TIP3    H268871   1.764   5.681   5.871 -1.6962 -3.7118 -0.0539
15794TIP3   OH268872   2.162   0.402  14.856  0.1418 -0.1095 -0.0516
15794TIP3    H168873   2.226   0.472  14.843  0.2194  0.0980  1.3441
15794TIP3    H268874   2.193   0.356  14.935 -0.1233 -1.4728 -0.7149
15795TIP3   OH268875   0.333   3.178   0.082 -0.7366 -0.6063 -0.2906
15795TIP3    H168876   0.316   3.086   0.102 -1.1049 -0.8336 -1.6208
15795TIP3    H268877   0.345   3.219   0.168 -3.0810 -1.4068  0.4558
15796TIP3   OH268878   3.531   5.241   2.193  0.4457  0.0620  0.5776
15796TIP3    H168879   3.521   5.299   2.118  1.6480 -0.9312 -0.3749
15796TIP3    H268880   3.454   5.259   2.247  0.0028  1.4125 -0.4535
15797TIP3   OH268881   4.014   3.502   0.863 -0.0528  0.1941 -0.3142
15797TIP3    H168882   4.047   3.416   0.836 -0.4048  0.2054 -0.7858
15797TIP3    H268883   4.092   3.552   0.883  0.2800  0.5559 -2.4322
15798TIP3   OH268884   5.652   0.211  14.239 -0.5021  0.2356  0.0348
15798TIP3    H168885   5.592   0.267  14.288 -0.8263 -0.2485  0.2047
15798TIP3    H268886   5.599   0.178  14.166  0.3793  2.0448 -1.4446
15799TIP3   OH268887   5.613   2.728  11.584  0.2195 -0.4689 -0.2883
15799TIP3    H168888   5.596   2.765  11.671  1.7181 -3.0241  1.1513
15799TIP3    H268889   5.570   2.643  11.586  0.8830 -0.8491 -1.8271
15800TIP3   OH268890   2.763   0.936  10.790  0.5188 -0.2103  0.7900
15800TIP3    H168891   2.739   0.938  10.882 -0.1565  1.0641  0.5997
15800TIP3    H268892   2.800   1.023  10.772  0.2043 -0.2712 -0.2343
15801TIP3   OH268893   5.396   0.553   1.452  0.6182  0.2145 -0.3675
15801TIP3    H168894   5.387   0.493   1.527 -1.7371  0.9809  0.0002
15801TIP3    H268895   5.360   0.504   1.378 -1.4202  1.1666 -0.0421
15802TIP3   OH268896   3.086   3.682   4.148 -0.4972  0.1941  0.3647
15802TIP3    H168897   3.150   3.736   4.102 -0.0927  0.1953  0.9245
15802TIP3    H268898   3.128   3.659   4.230  0.3681 -3.1604 -0.9485
15803TIP3   OH268899   4.239   0.889  15.476  0.3295 -0.5256  0.0586
15803TIP3    H168900   4.316   0.944  15.459 -0.5551  0.9112  0.5928
15803TIP3    H268901   4.270   0.825  15.540  1.5219 -1.0016 -0.9659
15804TIP3   OH268902   4.824   5.966  13.946  0.2558 -0.0992 -0.0132
15804TIP3    H168903   4.767   6.026  13.995 -1.5766  1.4515 -3.8376
15804TIP3    H268904   4.806   5.880  13.984 -2.8479  0.7110  0.5247
15805TIP3   OH268905   4.642   1.643  11.525  0.1455 -0.2725  0.1404
15805TIP3    H168906   4.597   1.576  11.576  0.1143 -1.2263 -1.1197
15805TIP3    H268907   4.579   1.715  11.518 -0.2427 -0.5757  0.5158
15806TIP3   OH268908   4.131   4.722  14.542  0.1329  0.0914 -0.1048
15806TIP3    H168909   4.222   4.751  14.548 -0.7536  2.9205  0.1928
15806TIP3    H268910   4.101   4.719  14.633 -0.4346  0.3976 -0.2786
15807TIP3   OH268911   4.964   6.146  17.181 -0.6017  0.2516  0.0700
15807TIP3    H168912   5.004   6.186  17.103 -1.3007  0.1177 -0.3621
15807TIP3    H268913   4.919   6.068  17.148  0.3326 -0.6212  0.8338
15808TIP3   OH268914   5.785   2.969  16.606 -0.1329  0.0728 -0.0108
15808TIP3    H168915   5.831   2.987  16.688 -0.5128 -0.4462  0.3211
15808TIP3    H268916   5.842   2.909  16.559  0.0167  0.2563 -0.0635
15809TIP3   OH268917   3.272   3.916  14.945  0.0338 -0.2388 -0.3115
15809TIP3    H168918   3.278   4.010  14.933  2.1634 -0.3132 -0.0524
15809TIP3    H268919   3.184   3.893  14.916 -0.1283  1.6767 -1.3900
15810TIP3   OH268920   2.483   4.400  13.162  0.4982 -0.4973  0.0122
15810TIP3    H168921   2.525   4.478  13.126 -0.7012 -0.1805 -0.7057
15810TIP3    H268922   2.531   4.383  13.243  0.4150  1.3027  0.4668
15811TIP3   OH268923   4.400   4.851  13.030 -0.3208  0.2440 -0.0983
15811TIP3    H168924   4.406   4.832  13.123 -0.2121 -0.3223 -0.2165
15811TIP3    H268925   4.312   4.823  13.005 -0.6463  1.1620  0.0019
15812TIP3   OH268926   4.376   5.419  15.212 -0.1737  0.0780  0.2507
15812TIP3    H168927   4.435   5.410  15.286 -1.6153 -1.9011  1.2035
15812TIP3    H268928   4.292   5.383  15.243 -1.1107  0.2778 -1.9411
15813TIP3   OH268929   5.809   1.172  13.130 -0.5874  0.1522 -0.3999
15813TIP3    H168930   5.736   1.144  13.186 -0.7445  0.1866 -0.5863
15813TIP3    H268931   5.837   1.256  13.166  0.2291 -0.4887  0.4830
15814TIP3   OH268932   2.846   2.260  17.220 -0.4342  0.1086 -0.2545
15814TIP3    H168933   2.843   2.169  17.250 -1.4983  1.2285  3.2376
15814TIP3    H268934   2.755   2.283  17.202 -0.3388  0.9165  0.2589
15815TIP3   OH268935   4.125   2.746  15.176 -0.0808 -0.6037 -0.3561
15815TIP3    H168936   4.158   2.735  15.265  1.6831  1.3186 -0.7548
15815TIP3    H268937   4.032   2.764  15.187  0.5205  1.6917  1.2214
15816TIP3   OH268938   3.145   0.463  12.304  0.1526  0.4629 -0.5126
15816TIP3    H168939   3.080   0.473  12.234 -1.8185  0.3968  1.2599
15816TIP3    H268940   3.101   0.409  12.370  1.1240  2.4494  1.8236
15817TIP3   OH268941   5.574   1.703  12.728  0.9080 -0.3354  0.4533
15817TIP3    H168942   5.570   1.780  12.784 -1.7723 -0.4550  0.5074
15817TIP3    H268943   5.558   1.630  12.787 -1.3665 -0.5068 -0.3127
15818TIP3   OH268944   1.853   3.100   1.367  0.0418 -0.0216 -0.1416
15818TIP3    H168945   1.839   3.057   1.283  0.1379  0.2274 -0.2851
15818TIP3    H268946   1.775   3.153   1.382  0.4127  0.6298 -0.4969
15819TIP3   OH268947   3.991   1.420   3.266  0.7016  0.5712 -0.0078
15819TIP3    H168948   4.085   1.439   3.264  0.6632  1.2050  2.4144
15819TIP3    H268949   3.962   1.457   3.349 -1.3280 -1.3763  0.1766
15820TIP3   OH268950   2.070   5.229   0.778  0.4873 -0.2321  0.2634
15820TIP3    H168951   1.990   5.177   0.770  0.1796  0.0119  1.7509
15820TIP3    H268952   2.130   5.190   0.713 -0.9738 -0.1003 -1.2018
15821TIP3   OH268953   1.537   5.360   1.401  0.8808  0.2355  0.6536
15821TIP3    H168954   1.548   5.362   1.306 -2.1769 -1.6579  0.2167
15821TIP3    H268955   1.506   5.448   1.423 -1.1153 -0.1653 -0.4807
15822TIP3   OH268956   6.011   2.066   0.024  0.7804  0.2437  0.5754
15822TIP3    H168957   5.988   2.157   0.044 -1.1367 -0.1699  0.3738
15822TIP3    H268958   5.927   2.021   0.017  1.7106 -1.5839  0.8087
15823TIP3   OH268959   6.232   1.693   0.137  0.8124  0.0487  0.7949
15823TIP3    H168960   6.275   1.691   0.051  2.5461 -1.5587  1.6751
15823TIP3    H268961   6.277   1.762   0.185  1.5906 -0.7912  1.2869
15824TIP3   OH268962   6.121   6.241   4.725 -0.2032  0.2034  0.0936
15824TIP3    H168963   6.166   6.325   4.730  1.6747 -0.7800  0.3765
15824TIP3    H268964   6.131   6.214   4.633 -1.0515  0.4129 -0.0644
15825TIP3   OH268965   2.468   0.756  14.013  0.6877 -0.3747 -0.2930
15825TIP3    H168966   2.449   0.850  14.012 -0.5448 -0.6146  0.1266
15825TIP3    H268967   2.515   0.741  13.931 -0.9412  0.2469 -1.3745
15826TIP3   OH268968   0.864   5.063   0.020  0.2960 -0.0138 -0.5642
15826TIP3    H168969   0.924   5.111  -0.037  1.0500 -0.1133  0.1370
15826TIP3    H268970   0.919   4.998   0.063 -0.5009 -0.7369 -0.6216
15827TIP3   OH268971   1.486   6.744   5.385 -0.0410 -0.1145  0.2504
15827TIP3    H168972   1.566   6.693   5.379 -1.5153 -2.4111 -0.3185
15827TIP3    H268973   1.512   6.833   5.359  2.2237 -0.9010 -0.2485
15828TIP3   OH268974   0.262   6.626  11.440 -0.7189 -0.4186  0.4357
15828TIP3    H168975   0.331   6.692  11.441 -0.3676 -0.7487 -0.7740
15828TIP3    H268976   0.298   6.555  11.387 -2.7214  0.2273 -1.8981
15829TIP3   OH268977   3.233   3.927   4.095  0.0213 -0.2696 -0.5605
15829TIP3    H168978   3.306   3.870   4.073  0.9875  0.3789  0.9108
15829TIP3    H268979   3.218   3.913   4.188 -0.6519  0.8400 -0.4843
15830TIP3   OH268980   0.476   4.641   6.122  0.6363  0.0927 -0.3247
15830TIP3    H168981   0.489   4.688   6.204  1.3209 -2.0294  0.8303
15830TIP3    H268982   0.557   4.655   6.072  0.0388  1.7564 -0.8623
15831TIP3   OH268983   3.898   4.384  14.845  0.0658 -0.2938 -0.2073
15831TIP3    H168984   3.870   4.307  14.794  1.7436 -0.1349 -1.3996
15831TIP3    H268985   3.993   4.377  14.848  0.2701  1.9944 -0.7137
15832TIP3   OH268986   3.537   0.195   5.337  0.2262 -0.3605  0.4342
15832TIP3    H168987   3.630   0.215   5.337  0.3224 -0.7935  1.3014
15832TIP3    H268988   3.496   0.271   5.379 -0.2156  1.5250 -3.1405
15833TIP3   OH268989   1.309   4.276  12.785  0.2498  0.3110 -0.5453
15833TIP3    H168990   1.403   4.267  12.772  0.3190  0.4687 -0.1488
15833TIP3    H268991   1.276   4.309  12.701  0.8116  2.1688 -0.0571
15834TIP3   OH268992   1.374   4.068  12.315  0.2703 -0.2821  0.0834
15834TIP3    H168993   1.369   4.027  12.401  1.3487  0.8572  0.7025
15834TIP3    H268994   1.292   4.118  12.308  0.5379  0.2649  0.7828
15835TIP3   OH268995   5.048   2.417  12.921  0.0731  0.1314  0.0214
15835TIP3    H168996   5.117   2.395  12.859 -1.5280 -2.0832 -1.0366
15835TIP3    H268997   5.064   2.360  12.996 -1.6575 -1.7442 -0.9977
15836TIP3   OH268998   3.469   5.387  13.379  0.1475  0.4531 -0.4082
15836TIP3    H168999   3.423   5.429  13.306 -0.8879  0.2870  0.1426
15836TIP3    H269000   3.417   5.409  13.456  2.0092  1.7940  0.4957
15837TIP3   OH269001   0.687   6.205  13.364 -0.1990  0.0150 -0.2352
15837TIP3    H169002   0.671   6.112  13.348  0.0518  0.0170 -0.4971
15837TIP3    H269003   0.780   6.217  13.345 -0.0274  0.1327  0.6739
15838TIP3   OH269004   1.213   0.917   3.500  0.2114  0.3324 -0.0690
15838TIP3    H169005   1.236   0.907   3.592  0.1307 -0.2554 -0.1163
15838TIP3    H269006   1.224   1.011   3.483 -0.5854  0.5762  0.7539
15839TIP3   OH269007   6.779   6.373  11.834 -0.0964 -0.0212  0.5852
15839TIP3    H169008   6.687   6.402  11.834  0.4690  1.8228  0.1806
15839TIP3    H269009   6.793   6.337  11.921 -1.8761 -2.5547 -0.1084
15840TIP3   OH269010   4.202   4.767   4.498 -0.4802 -0.0886 -0.0262
15840TIP3    H169011   4.239   4.720   4.572  1.1522  0.2330 -0.6053
15840TIP3    H269012   4.110   4.777   4.519 -0.4195 -1.6766  1.0719
15841TIP3   OH269013   3.941   6.639  12.745 -0.4712 -0.0325 -0.1881
15841TIP3    H169014   3.903   6.685  12.670 -1.8785 -0.2901  0.3516
15841TIP3    H269015   3.892   6.557  12.750  0.6075 -0.6692  0.1354
15842TIP3   OH269016   3.540   3.253  14.136 -0.3538  0.1884 -0.6685
15842TIP3    H169017   3.459   3.260  14.084 -0.4182 -0.4878 -0.6727
15842TIP3    H269018   3.514   3.204  14.214 -0.2117  1.0365 -0.0829
15843TIP3   OH269019   0.468   1.714  17.072 -0.2693 -0.4008  0.7560
15843TIP3    H169020   0.556   1.688  17.044  0.2023  0.3683  1.4960
15843TIP3    H269021   0.411   1.691  16.999  0.6883 -0.0415 -0.1111
15844TIP3   OH269022   0.285   3.345  14.172 -0.0740 -0.2693 -0.2834
15844TIP3    H169023   0.325   3.323  14.088  0.3566  0.5254 -0.2900
15844TIP3    H269024   0.191   3.333  14.158  0.0394 -0.6161 -0.7323
15845TIP3   OH269025   6.607   4.000  11.164  0.2209  0.9470 -0.1935
15845TIP3    H169026   6.703   3.997  11.165  0.2137  0.9070  0.9229
15845TIP3    H269027   6.584   3.984  11.072  1.2478 -0.3052 -0.2562
15846TIP3   OH269028   5.838   5.350   2.111 -0.1432  0.2072  0.6171
15846TIP3    H169029   5.917   5.402   2.124  0.2561  0.0440 -0.9936
15846TIP3    H269030   5.767   5.414   2.115  0.2649  0.7256 -0.2706
15847TIP3   OH269031   3.215   5.624   4.297  0.0586 -0.4438 -0.1376
15847TIP3    H169032   3.290   5.682   4.314  1.3317 -2.5185  1.5167
15847TIP3    H269033   3.206   5.624   4.202 -1.6969  4.5595 -0.1240
15848TIP3   OH269034   2.800   3.790   2.408  0.4103  0.1464  0.0800
15848TIP3    H169035   2.739   3.744   2.465  0.5427 -1.0585 -0.7432
15848TIP3    H269036   2.762   3.783   2.321  0.6242  1.2684 -0.1154
15849TIP3   OH269037   5.750   3.836   5.070  0.0185  0.9752 -0.1452
15849TIP3    H169038   5.835   3.793   5.083 -0.2000  1.1600  2.1784
15849TIP3    H269039   5.770   3.929   5.070 -0.4282  1.1496  3.1603
15850TIP3   OH269040   1.355   5.476   3.314 -0.8688  0.4034 -0.5152
15850TIP3    H169041   1.426   5.494   3.376  1.1082 -2.1881 -1.8926
15850TIP3    H269042   1.284   5.533   3.342  0.2780  0.0742  3.5288
15851TIP3   OH269043   1.671   6.789  14.175  0.5454  0.0921  0.1191
15851TIP3    H169044   1.702   6.738  14.250  0.0336  1.1073  1.0319
15851TIP3    H269045   1.627   6.865  14.214  1.3199  1.2416 -1.2262
15852TIP3   OH269046   2.631   3.666  11.660  0.2592 -0.6288 -0.5934
15852TIP3    H169047   2.639   3.572  11.675 -1.4955 -0.5904  0.7645
15852TIP3    H269048   2.537   3.681  11.651  0.5134  1.0234 -0.6681
15853TIP3   OH269049   6.541   2.287  10.937 -0.0556  0.3611 -0.5185
15853TIP3    H169050   6.597   2.245  10.873  2.1864  0.0020  1.6188
15853TIP3    H269051   6.592   2.361  10.969 -0.1876 -0.7956  2.4883
15854TIP3   OH269052   3.927   3.411  10.844 -0.1626 -0.1321 -0.6987
15854TIP3    H169053   3.894   3.342  10.786 -1.8835 -0.1448  0.2682
15854TIP3    H269054   4.019   3.421  10.819 -0.0496 -2.3396 -1.2673
15855TIP3   OH269055   1.925   1.628  13.388 -0.4128  0.0998  0.3784
15855TIP3    H169056   1.968   1.640  13.303 -1.2463  1.8033  0.1879
15855TIP3    H269057   1.832   1.643  13.371 -0.5202  1.0738  1.7024
15856TIP3   OH269058   6.065   0.766   5.467  0.1695 -0.2859  0.2404
15856TIP3    H169059   6.078   0.712   5.389  0.1957 -0.7233  0.5457
15856TIP3    H269060   6.084   0.707   5.540  2.2594  0.6846  0.5268
15857TIP3   OH269061   4.552   6.668   3.455  0.2341  0.2135 -0.2338
15857TIP3    H169062   4.625   6.607   3.440  2.9010  2.4315  3.0353
15857TIP3    H269063   4.573   6.744   3.402 -0.6174  0.2024 -0.5930
15858TIP3   OH269064   5.966   3.033  12.530  0.3638  0.0006 -0.0686
15858TIP3    H169065   5.881   2.991  12.525 -0.5175  1.7668 -0.5748
15858TIP3    H269066   6.028   2.962  12.545 -1.0861 -1.4108 -0.6640
15859TIP3   OH269067   0.167   6.781   1.108  0.2371 -0.5871  0.2002
15859TIP3    H169068   0.250   6.818   1.078  0.4967 -0.0418  1.5120
15859TIP3    H269069   0.106   6.855   1.104 -0.0150 -0.8151 -0.1292
15860TIP3   OH269070   0.628   1.793  10.996  0.2174  0.5689 -0.0828
15860TIP3    H169071   0.631   1.888  10.988  1.5074  0.5672  0.3988
15860TIP3    H269072   0.687   1.761  10.927  2.6430  0.2400  2.0719
15861TIP3   OH269073   0.216   2.247  15.693  0.1540  0.5406  0.0192
15861TIP3    H169074   0.195   2.191  15.768  1.2393  0.6658  0.4281
15861TIP3    H269075   0.133   2.259  15.648  0.0908 -2.2051 -0.6385
15862TIP3   OH269076   2.550   5.689   0.278 -0.5996  0.4396 -0.2325
15862TIP3    H169077   2.636   5.648   0.290 -1.8975 -2.4462 -0.2706
15862TIP3    H269078   2.509   5.684   0.365 -2.0301 -1.4117 -0.9782
15863TIP3   OH269079   5.931   4.804  13.775  0.3984  0.3031 -0.5845
15863TIP3    H169080   5.970   4.833  13.693  0.0019  0.5898 -0.6705
15863TIP3    H269081   5.905   4.713  13.759 -1.4857  0.9638 -1.4161
15864TIP3   OH269082   1.349   1.586  15.760  0.4630  0.0350 -0.8115
15864TIP3    H169083   1.355   1.513  15.822  1.9965  0.4106 -0.5207
15864TIP3    H269084   1.414   1.566  15.693  1.6026  1.6294 -0.2112
15865TIP3   OH269085   3.595   1.780  13.906  0.4056 -0.0164  0.3199
15865TIP3    H169086   3.584   1.801  13.999  0.6857  0.7364  0.1845
15865TIP3    H269087   3.595   1.865  13.862  1.1974 -0.3119 -0.2700
15866TIP3   OH269088   1.850   6.742  14.553 -0.4490 -0.3560 -0.2569
15866TIP3    H169089   1.763   6.702  14.547 -0.3542 -0.4164 -1.1795
15866TIP3    H269090   1.878   6.754  14.463  0.4336 -0.1654  0.0382
15867TIP3   OH269091   0.536   0.587  15.613 -0.5846 -0.1909 -0.6029
15867TIP3    H169092   0.461   0.624  15.661  0.4516  0.4825  0.5337
15867TIP3    H269093   0.574   0.525  15.675  2.1017  2.3059  0.3477
15868TIP3   OH269094   0.062   3.208  11.593 -0.5991 -0.4117 -0.1318
15868TIP3    H169095   0.069   3.273  11.523 -0.4971 -0.4427 -0.1511
15868TIP3    H269096   0.049   3.259  11.672 -0.1412 -0.3487 -0.0955
15869TIP3   OH269097   3.738   2.563  17.168 -0.0455  0.1262 -0.2342
15869TIP3    H169098   3.679   2.491  17.148 -0.6212  0.8554 -1.1921
15869TIP3    H269099   3.726   2.625  17.096  2.3044  0.0255 -0.7619
15870TIP3   OH269100   1.877   3.655   0.013 -0.1903 -0.2764 -0.3621
15870TIP3    H169101   1.784   3.649   0.032 -0.6439 -1.4346 -2.8253
15870TIP3    H269102   1.889   3.744  -0.022 -0.2794  0.0170  0.3472
15871TIP3   OH269103   4.152   0.405  13.082 -0.0148  0.6481 -0.0727
15871TIP3    H169104   4.073   0.360  13.112 -0.5189  0.9922 -0.8872
15871TIP3    H269105   4.167   0.371  12.994  2.8419 -2.1993  1.4236
15872TIP3   OH269106   3.976   2.472  16.494 -0.2008  0.3291  0.3643
15872TIP3    H169107   4.039   2.538  16.466 -0.7122  0.2210 -1.0955
15872TIP3    H269108   4.029   2.400  16.527  0.5072 -0.1847 -1.7787
15873TIP3   OH269109   1.994   0.010  13.211  0.0556  0.1605  0.5898
15873TIP3    H169110   1.968  -0.077  13.181  1.6827 -0.2845  0.4597
15873TIP3    H269111   1.927   0.033  13.276 -0.3143 -1.2397  0.7283
15874TIP3   OH269112   4.632   3.129  16.815 -0.6998 -0.0608  0.2155
15874TIP3    H169113   4.687   3.207  16.806 -0.6208 -0.4116 -2.9932
15874TIP3    H269114   4.690   3.064  16.855 -0.1340  0.9050  0.9792
15875TIP3   OH269115   6.289   5.730   4.265 -0.1828  0.0181 -0.0419
15875TIP3    H169116   6.355   5.790   4.300 -0.1819  0.0708 -0.1343
15875TIP3    H269117   6.324   5.702   4.181 -0.7539  0.8376 -0.5576
15876TIP3   OH269118   6.644   1.667   3.062 -0.5425 -0.3526 -0.7214
15876TIP3    H169119   6.726   1.617   3.059  0.2268  0.7272  0.9829
15876TIP3    H269120   6.597   1.632   3.137 -1.2820 -0.4199 -1.2133
15877TIP3   OH269121   1.670   0.328  12.987  0.1492 -0.1402 -0.2549
15877TIP3    H169122   1.681   0.318  12.892  1.2251 -2.6048  0.0887
15877TIP3    H269123   1.575   0.322  13.001 -0.1991  2.3154 -1.3536
15878TIP3   OH269124   3.967   3.146  13.239  0.3290  0.4166  0.6734
15878TIP3    H169125   4.060   3.167  13.231 -0.0980  2.4222  0.7219
15878TIP3    H269126   3.929   3.221  13.285 -1.1604 -0.7933  1.4738
15879TIP3   OH269127   1.772   5.620  15.759 -0.2323  0.3420 -0.9479
15879TIP3    H169128   1.862   5.647  15.774 -0.4059  0.1713  0.4199
15879TIP3    H269129   1.731   5.695  15.715  0.4220  0.6193 -1.0836
15880TIP3   OH269130   3.051   6.383  15.662 -0.2460  0.3677  0.0588
15880TIP3    H169131   3.090   6.469  15.650  1.4800 -0.7415 -2.9299
15880TIP3    H269132   3.079   6.355  15.749  1.5512  1.6257 -0.0952
15881TIP3   OH269133   1.721   2.628   5.376 -0.4186  0.2168  0.0778
15881TIP3    H169134   1.771   2.681   5.437 -1.0884  0.1960  0.6571
15881TIP3    H269135   1.735   2.538   5.406 -1.3460  0.2605  0.6596
15882TIP3   OH269136   4.107   3.338   0.278  0.4242 -0.1973  0.7198
15882TIP3    H169137   4.156   3.369   0.355 -0.3827  1.4042  0.5999
15882TIP3    H269138   4.099   3.415   0.222  0.7027 -1.2735 -0.8236
15883TIP3   OH269139   4.237   5.842   3.943  0.2958  0.1188 -0.1544
15883TIP3    H169140   4.193   5.910   3.891  0.4981  1.1045  0.9584
15883TIP3    H269141   4.167   5.780   3.964 -0.1773  0.7072  0.0158
15884TIP3   OH269142   0.980   1.061  10.673 -0.0732 -0.0718 -0.1915
15884TIP3    H169143   0.921   1.068  10.747  1.1595 -0.5159  0.8490
15884TIP3    H269144   1.025   0.977  10.685  1.3899  0.6404 -0.4863
15885TIP3   OH269145   1.923   6.611  16.262 -0.0535  0.4343 -0.5772
15885TIP3    H169146   1.858   6.589  16.195  0.5626  1.5454 -1.5578
15885TIP3    H269147   1.883   6.684  16.311 -0.6750 -0.6324  0.5564
15886TIP3   OH269148   2.671   5.860  11.449 -0.4796  0.4729  0.0920
15886TIP3    H169149   2.736   5.817  11.505 -1.2710 -0.6552  0.1389
15886TIP3    H269150   2.670   5.808  11.368 -1.1620  0.6252  0.0007
15887TIP3   OH269151   2.867   5.102   4.586  0.3258 -0.3528 -0.1555
15887TIP3    H169152   2.899   5.128   4.500 -0.5327  0.1640 -0.3281
15887TIP3    H269153   2.875   5.182   4.639  4.2471 -1.5747  1.2817
15888TIP3   OH269154   6.488   0.151  15.927  0.3576 -0.3768 -0.5785
15888TIP3    H169155   6.573   0.172  15.887  0.5622 -0.7740 -0.3693
15888TIP3    H269156   6.446   0.093  15.864 -0.7611  1.6679 -1.7596
15889TIP3   OH269157   3.325   6.543   4.478 -0.1297 -0.3368  0.3501
15889TIP3    H169158   3.407   6.509   4.513 -0.4497 -3.0578 -1.3987
15889TIP3    H269159   3.302   6.484   4.406 -3.3064  0.7027  0.3903
15890TIP3   OH269160   3.073   4.282  15.843  0.1054  0.5985 -0.2211
15890TIP3    H169161   3.124   4.363  15.852  1.4945 -0.3890  1.0052
15890TIP3    H269162   3.000   4.306  15.786  0.8382  2.5602 -0.3720
15891TIP3   OH269163   1.949   2.171  15.232 -0.0513 -0.0686  0.4387
15891TIP3    H169164   1.879   2.138  15.288  0.4919 -0.5366  0.8458
15891TIP3    H269165   1.903   2.210  15.157 -0.7994  1.1201  1.4966
15892TIP3   OH269166   6.181   2.954   5.534  0.5426 -0.7767  0.5598
15892TIP3    H169167   6.131   3.012   5.591  0.3321 -0.2425 -0.1672
15892TIP3    H269168   6.215   2.886   5.593  0.1573 -0.3454  1.2831
15893TIP3   OH269169   6.814   3.355  14.184 -0.0794 -0.4665  0.4104
15893TIP3    H169170   6.781   3.410  14.255 -1.6772 -0.0738 -0.6022
15893TIP3    H269171   6.824   3.415  14.110  1.0432 -0.9712  0.1508
15894TIP3   OH269172   3.522   0.872  11.502 -0.2967  0.1050 -0.2022
15894TIP3    H169173   3.528   0.779  11.522 -1.4847 -0.3303 -1.7887
15894TIP3    H269174   3.595   0.912  11.550 -0.9042 -1.3576  2.0231
15895TIP3   OH269175   0.579   3.331   0.543 -0.4428  0.5044 -0.4013
15895TIP3    H169176   0.647   3.383   0.585  0.9909 -2.2257  0.8117
15895TIP3    H269177   0.621   3.297   0.463 -0.7022 -0.3775 -0.1707
15896TIP3   OH269178   2.340   2.766  11.649  0.3549 -0.2712  0.1070
15896TIP3    H169179   2.324   2.673  11.637 -1.7486  0.3586 -2.3700
15896TIP3    H269180   2.274   2.794  11.713  0.5612 -0.3382  0.3511
15897TIP3   OH269181   6.735   3.280   4.919  0.0665  0.2580  0.7140
15897TIP3    H169182   6.691   3.261   5.002  2.4501 -1.2060  1.7051
15897TIP3    H269183   6.826   3.294   4.944  0.8813 -0.5667 -1.7180
15898TIP3   OH269184   2.716   5.809  17.198  0.3356  0.9824  0.3289
15898TIP3    H169185   2.698   5.879  17.260  0.4503  0.9106  0.4430
15898TIP3    H269186   2.633   5.796  17.152 -0.0882  0.2630  1.2569
15899TIP3   OH269187   5.711   1.992   2.027 -0.7872  0.1098 -0.0602
15899TIP3    H169188   5.732   2.085   2.020  1.7246 -0.5538 -2.2137
15899TIP3    H269189   5.645   1.978   1.960  0.7969 -0.1407 -1.6150
15900TIP3   OH269190   3.166   3.310   5.547 -0.3049 -0.5315 -0.6136
15900TIP3    H169191   3.193   3.392   5.505  0.7517 -0.9142 -0.6728
15900TIP3    H269192   3.246   3.259   5.554 -0.9659 -1.5571 -0.5512
15901TIP3   OH269193   2.854   6.164  10.868 -0.2381  0.9636 -0.0978
15901TIP3    H169194   2.932   6.196  10.823  1.0577 -0.1911  1.2887
15901TIP3    H269195   2.846   6.073  10.841  0.2798  0.4021  1.6181
15902TIP3   OH269196   4.245   1.683  15.810 -0.0118 -0.0824  0.0903
15902TIP3    H169197   4.248   1.773  15.842 -2.3431 -0.6127  2.0522
15902TIP3    H269198   4.329   1.645  15.835  0.6698  1.3289 -0.0384
15903TIP3   OH269199   5.828   3.211  16.438 -0.0325  0.2046  0.1607
15903TIP3    H169200   5.886   3.229  16.512  1.0627 -0.0348 -0.6266
15903TIP3    H269201   5.812   3.116  16.442 -1.6068  0.4980  1.2602
15904TIP3   OH269202   4.407   3.149   2.239 -0.3657 -0.3047 -0.4700
15904TIP3    H169203   4.431   3.149   2.146  1.8545  1.8627  0.0688
15904TIP3    H269204   4.386   3.057   2.258  0.7545 -1.0558 -2.7003
15905TIP3   OH269205   3.557   4.829  15.653  0.3369  0.2713 -0.0244
15905TIP3    H169206   3.651   4.834  15.632  0.1954 -1.9088 -1.3441
15905TIP3    H269207   3.521   4.911  15.619  1.7582  1.1481  0.5108
15906TIP3   OH269208   4.252   3.438   4.319 -0.2198 -0.0847  0.0565
15906TIP3    H169209   4.219   3.349   4.331  1.1326 -0.4271  1.3764
15906TIP3    H269210   4.320   3.448   4.386  1.6777  0.9469 -1.9500
15907TIP3   OH269211   1.120   1.157  15.562 -0.1165  0.1396 -0.3567
15907TIP3    H169212   1.192   1.142  15.500  0.0445 -0.9507  0.0890
15907TIP3    H269213   1.051   1.096  15.534 -0.2184 -0.0285  0.2556
15908TIP3   OH269214   2.010   2.460  13.978  0.1015  0.4784  0.5404
15908TIP3    H169215   1.954   2.531  14.009  0.1879  0.5589  0.5097
15908TIP3    H269216   2.099   2.488  13.999  0.0521 -0.1798  1.6791
15909TIP3   OH269217   0.040   4.004   0.213  0.0614  0.1320  0.6449
15909TIP3    H169218   0.011   3.970   0.128  1.6507  0.3622 -0.0077
15909TIP3    H269219   0.002   3.943   0.277 -1.1463 -0.0448 -0.2223
15910TIP3   OH269220   0.856   1.865  16.829  0.1264 -0.3429  0.9138
15910TIP3    H169221   0.887   1.952  16.855  1.1543 -1.2855  3.0259
15910TIP3    H269222   0.840   1.872  16.735  1.5210  1.7390  0.7976
15911TIP3   OH269223   3.870   6.634   3.438  0.1676 -0.0779 -0.2257
15911TIP3    H169224   3.956   6.613   3.474 -0.8735 -1.6210  1.4066
15911TIP3    H269225   3.854   6.724   3.465  0.0198 -0.7407  1.9606
15912TIP3   OH269226   0.753   2.057  15.992 -0.4340 -0.0344  0.3130
15912TIP3    H169227   0.689   2.080  15.924 -0.8716 -1.0316  0.3753
15912TIP3    H269228   0.767   1.964  15.980  0.3723  0.0193  0.8565
15913TIP3   OH269229   3.850   4.278   0.821  0.3320  0.0704 -0.0936
15913TIP3    H169230   3.827   4.194   0.860 -1.2239  0.8154  0.6286
15913TIP3    H269231   3.897   4.324   0.889 -1.1535  0.8150  0.4575
15914TIP3   OH269232   0.637   1.058  11.661  0.0769 -0.2304  0.3705
15914TIP3    H169233   0.601   0.981  11.704 -0.1196 -0.0860  0.4614
15914TIP3    H269234   0.676   1.109  11.732  1.3916 -0.8943  0.1582
15915TIP3   OH269235   5.472   0.789   5.870  0.0103  0.0733 -0.4949
15915TIP3    H169236   5.553   0.815   5.914 -1.4537  1.9228  1.2255
15915TIP3    H269237   5.451   0.703   5.907  0.6818  0.0207 -0.2214
15916TIP3   OH269238   0.183   1.908   2.414  0.0627  0.2316  0.2502
15916TIP3    H169239   0.272   1.912   2.380 -0.8995  1.2973 -2.2163
15916TIP3    H269240   0.147   1.826   2.380  0.1171 -0.2667  1.3571
15917TIP3   OH269241   0.121   3.439  15.404  0.2665 -0.3337  0.3836
15917TIP3    H169242   0.136   3.374  15.335  0.0103 -0.3618  0.3548
15917TIP3    H269243   0.058   3.398  15.463 -1.2214  0.5535 -0.5567
15918TIP3   OH269244   1.903   4.983  15.365  0.1743 -0.4980  0.4243
15918TIP3    H169245   1.927   5.029  15.445  1.2778 -1.5011  0.6909
15918TIP3    H269246   1.951   5.028  15.296 -0.5663  0.1977  0.3558
15919TIP3   OH269247   6.614   6.013  13.352  0.8771 -0.6621  0.7101
15919TIP3    H169248   6.574   6.023  13.266  2.7971  0.1241 -0.1243
15919TIP3    H269249   6.625   5.918  13.362 -0.0897 -0.8057  0.4443
15920TIP3   OH269250   0.658   3.830   5.574 -0.1716 -0.0417 -0.7506
15920TIP3    H169251   0.725   3.886   5.535  0.7692  0.1319  1.0611
15920TIP3    H269252   0.703   3.746   5.588 -0.3303  0.0618  0.4208
15921TIP3   OH269253   2.979   2.908  11.076  0.1982 -0.5325 -0.2746
15921TIP3    H169254   3.059   2.858  11.063  0.2847 -0.6580  0.6882
15921TIP3    H269255   2.929   2.857  11.139 -0.1281  0.1155 -0.0033
15922TIP3   OH269256   0.361   2.348  12.575 -0.4583 -0.3175  0.2295
15922TIP3    H169257   0.400   2.273  12.529 -1.6809 -1.0363  0.3385
15922TIP3    H269258   0.435   2.396  12.610  0.3962 -0.8856 -0.7729
15923TIP3   OH269259   3.903   5.155   3.487  0.3679  0.3496  0.2417
15923TIP3    H169260   3.843   5.124   3.420 -0.9333 -0.8613  1.9090
15923TIP3    H269261   3.857   5.227   3.530 -0.3668 -1.2066  2.1614
15924TIP3   OH269262   5.079   6.425   4.454 -0.0310  0.8817  0.1116
15924TIP3    H169263   5.076   6.434   4.550 -1.7214 -1.3321  0.3118
15924TIP3    H269264   5.173   6.417   4.434  0.4064  2.3695  1.4519
15925TIP3   OH269265   0.818   0.202  14.395  0.1642  0.3699  0.5509
15925TIP3    H169266   0.887   0.267  14.378  0.2878 -0.1200 -0.8569
15925TIP3    H269267   0.863   0.118  14.389 -0.0102  0.1283  2.3061
15926TIP3   OH269268   3.070   0.031  11.275 -0.0276  0.0059 -0.3203
15926TIP3    H169269   3.134  -0.031  11.239 -1.0389 -0.6856 -0.9508
15926TIP3    H269270   3.073   0.017  11.369 -1.2546 -2.0147 -0.5603
15927TIP3   OH269271   3.989   3.664  15.830 -0.7210 -0.3906  0.9046
15927TIP3    H169272   4.063   3.668  15.770 -0.5098  0.3021  1.1971
15927TIP3    H269273   4.012   3.596  15.893  0.2024  0.6303  1.6849
15928TIP3   OH269274   2.686   5.247  15.207  0.9102 -0.2734 -0.4000
15928TIP3    H169275   2.613   5.309  15.200 -0.6858 -1.9871  0.7816
15928TIP3    H269276   2.703   5.240  15.301  3.0221  0.5643 -0.6897
15929TIP3   OH269277   4.506   4.984  11.611 -0.4380  0.0151 -0.6596
15929TIP3    H169278   4.434   5.046  11.620  0.5617  1.0950  0.0151
15929TIP3    H269279   4.549   5.009  11.529 -0.4960 -0.2735 -0.7774
15930TIP3   OH269280   3.472   6.701   3.556 -0.1109 -1.1224  0.2118
15930TIP3    H169281   3.544   6.719   3.617  1.1250 -4.0057 -0.3355
15930TIP3    H269282   3.395   6.696   3.612  0.0791  1.7432  0.8335
15931TIP3   OH269283   6.515   6.196  12.142 -0.1676  0.9897  0.2495
15931TIP3    H169284   6.451   6.248  12.189  1.0876 -0.1751  3.3820
15931TIP3    H269285   6.591   6.193  12.200  1.9265  0.5160 -2.4144
15932TIP3   OH269286   1.518   5.977   2.874 -0.2219  0.6960 -0.3969
15932TIP3    H169287   1.533   6.070   2.859  0.2822  0.6734 -0.0345
15932TIP3    H269288   1.491   5.943   2.788 -0.7522  1.2400 -0.4471
15933TIP3   OH269289   2.085   2.839   2.194 -0.2320 -0.2651  0.8102
15933TIP3    H169290   2.159   2.812   2.249  0.3506  0.8807  0.6109
15933TIP3    H269291   2.112   2.924   2.158 -1.5113  0.0043  0.4636
15934TIP3   OH269292   2.547   5.841   6.699  0.1389  0.1439  0.1338
15934TIP3    H169293   2.556   5.754   6.738  3.4962 -0.0622 -0.9145
15934TIP3    H269294   2.541   5.824   6.605 -0.0985  1.0021 -0.0117
15935TIP3   OH269295   6.559   4.997  15.141  0.4308  0.5137  0.9456
15935TIP3    H169296   6.634   5.053  15.156 -0.2586  1.6410  0.2858
15935TIP3    H269297   6.546   4.999  15.046  0.5663 -1.0031  0.8710
15936TIP3   OH269298   3.733   4.576  17.212  0.4921  0.4592  0.1847
15936TIP3    H169299   3.668   4.579  17.282  0.8153  0.4890  0.4834
15936TIP3    H269300   3.698   4.634  17.145  0.1178  0.3282  0.2679
15937TIP3   OH269301   6.561   1.801  13.324  0.1788 -0.0668  0.1088
15937TIP3    H169302   6.584   1.765  13.410  0.0591 -0.7438 -0.1359
15937TIP3    H269303   6.493   1.865  13.343  0.7395  0.3845  0.6040
15938TIP3   OH269304   1.724   6.179   0.667 -0.1650  0.1572 -0.5229
15938TIP3    H169305   1.775   6.098   0.658 -1.8029 -0.7596 -1.9685
15938TIP3    H269306   1.723   6.195   0.762  1.7369 -0.4672 -0.3601
15939TIP3   OH269307   1.261   0.925   1.247  0.4947  0.3373 -0.0564
15939TIP3    H169308   1.320   0.966   1.184  1.2294 -0.6117  0.0025
15939TIP3    H269309   1.180   0.976   1.241  0.3442 -0.0998 -2.1992
15940TIP3   OH269310   3.424   1.743   5.911 -0.2190  0.1366 -0.0333
15940TIP3    H169311   3.455   1.683   5.979 -0.1696  1.5501  1.2027
15940TIP3    H269312   3.499   1.752   5.852  0.3664  0.3551  0.7343
15941TIP3   OH269313   6.561   2.036  13.769 -0.0762 -1.0037  0.2135
15941TIP3    H169314   6.645   2.060  13.730 -0.6930  1.1883  0.1875
15941TIP3    H269315   6.571   2.055  13.862 -0.1747 -1.8392  0.4034
15942TIP3   OH269316   1.478   6.517  12.735  0.5471  0.9765 -0.0003
15942TIP3    H169317   1.425   6.565  12.672 -0.5624 -0.4097 -0.1527
15942TIP3    H269318   1.525   6.452  12.682  0.5163  0.5853  0.4412
15943TIP3   OH269319   3.315   1.612   5.201 -0.1010  0.2301 -0.1027
15943TIP3    H169320   3.362   1.533   5.172 -2.9381 -1.3812 -0.5489
15943TIP3    H269321   3.268   1.584   5.280 -0.2448  1.8040  0.3875
15944TIP3   OH269322   6.489   3.654  14.913  0.3667 -0.2351  0.4442
15944TIP3    H169323   6.569   3.652  14.860  1.3694  2.7421  1.7047
15944TIP3    H269324   6.434   3.585  14.876  1.9914  0.1433 -2.9200
15945TIP3   OH269325   5.000   3.489   2.972 -0.4002  0.9462  0.3136
15945TIP3    H169326   4.916   3.532   2.962 -1.7658 -1.6769  0.1541
15945TIP3    H269327   5.041   3.495   2.886 -1.7021 -0.3571 -0.4088
15946TIP3   OH269328   2.991   3.654   3.773  0.1362 -0.4312 -0.3785
15946TIP3    H169329   2.937   3.688   3.701 -1.5483  0.0732  1.1002
15946TIP3    H269330   3.036   3.731   3.807  1.0425 -0.6940 -0.9532
15947TIP3   OH269331   6.549   0.122  12.658  0.2777 -0.0182 -0.5199
15947TIP3    H169332   6.594   0.192  12.610 -1.4123  1.3656 -0.1374
15947TIP3    H269333   6.546   0.049  12.596  1.4026  0.4892 -1.1955
15948TIP3   OH269334   2.655   4.811   1.364 -0.1244  0.3365 -0.1873
15948TIP3    H169335   2.675   4.871   1.436  0.1103  1.0369 -0.8238
15948TIP3    H269336   2.598   4.862   1.306 -0.5436 -0.3178 -0.3629
15949TIP3   OH269337   4.233   5.292   1.647  0.6501 -0.0979  0.1559
15949TIP3    H169338   4.188   5.210   1.629  0.7444  0.1299 -1.1657
15949TIP3    H269339   4.225   5.342   1.566 -1.4588  2.1827  1.7012
15950TIP3   OH269340   3.946   2.869   0.724  0.7180 -0.0878  0.5489
15950TIP3    H169341   3.926   2.958   0.753  1.7138  0.3056  0.0616
15950TIP3    H269342   3.863   2.822   0.731  0.2123  0.8505  0.9146
15951TIP3   OH269343   1.366   5.108  15.420 -0.1570  0.5199 -0.3944
15951TIP3    H169344   1.443   5.144  15.465  1.7263 -0.2561 -2.8743
15951TIP3    H269345   1.325   5.050  15.485  1.2852  1.0239  0.9997
15952TIP3   OH269346   4.648   5.879   2.680 -0.2864  0.1255  0.2321
15952TIP3    H169347   4.643   5.805   2.740 -1.7723  1.4727  1.8369
15952TIP3    H269348   4.735   5.916   2.693 -0.4072  0.0832  1.1485
15953TIP3   OH269349   4.348   3.913   6.342 -0.7045 -0.3251 -0.7843
15953TIP3    H169350   4.369   3.937   6.252  3.8132 -1.5872 -0.2119
15953TIP3    H269351   4.400   3.973   6.396 -0.9059 -1.6094  0.8940
15954TIP3   OH269352   3.735   4.073  17.057  0.3016 -0.5376  0.1296
15954TIP3    H169353   3.736   4.167  17.072  0.6429 -0.1126 -2.3610
15954TIP3    H269354   3.647   4.055  17.024  0.3709 -1.0515  0.2223
15955TIP3   OH269355   3.942   3.136   5.519  0.2417 -0.0032 -0.2011
15955TIP3    H169356   3.874   3.103   5.460  0.4477  0.4738 -0.7136
15955TIP3    H269357   4.018   3.081   5.502  0.1676 -0.1430 -0.0729
15956TIP3   OH269358   6.085   1.062   3.920  1.2023  0.1153 -0.1224
15956TIP3    H169359   5.996   1.083   3.891  1.3329  1.4155  0.3636
15956TIP3    H269360   6.073   0.994   3.985  0.4645  0.9605  0.6470
15957TIP3   OH269361   4.525   4.361   3.735 -0.7502 -0.2385  0.1224
15957TIP3    H169362   4.555   4.293   3.674 -2.9971 -0.2963 -0.9793
15957TIP3    H269363   4.491   4.312   3.810  0.9303 -0.2047  0.9161
15958TIP3   OH269364   5.870   0.637   0.280 -0.1754  0.0978  0.3737
15958TIP3    H169365   5.876   0.542   0.290 -0.5854  0.1180  0.8229
15958TIP3    H269366   5.924   0.672   0.351  1.9108  0.1846 -1.2189
15959TIP3   OH269367   4.679   3.572  10.768 -0.3412  0.2571  0.2258
15959TIP3    H169368   4.749   3.508  10.780 -0.8938 -0.4285 -0.1769
15959TIP3    H269369   4.645   3.555  10.680 -0.1171  1.4812 -0.1003
15960TIP3   OH269370   5.228   2.915  14.518 -0.1018  0.2649 -0.3137
15960TIP3    H169371   5.302   2.900  14.576 -0.4885 -0.3821  0.0169
15960TIP3    H269372   5.151   2.902  14.573 -0.4664  0.2734 -0.8131
15961TIP3   OH269373   4.180   3.349   2.104 -0.6849 -0.2158 -0.0254
15961TIP3    H169374   4.212   3.323   2.017  1.6172 -0.3151  0.8258
15961TIP3    H269375   4.200   3.274   2.160  0.7897  1.0967  1.2460
15962TIP3   OH269376   1.727   6.759   0.316 -0.2547 -0.1024  0.3870
15962TIP3    H169377   1.800   6.701   0.292 -0.9833 -0.8154 -0.1353
15962TIP3    H269378   1.724   6.754   0.412  1.4806  1.3003  0.5534
15963TIP3   OH269379   6.811   4.114  16.574  0.3414 -0.1342 -0.0204
15963TIP3    H169380   6.845   4.108  16.485  1.2147  0.0622  0.2963
15963TIP3    H269381   6.871   4.061  16.627  1.4425  1.9359  0.8825
15964TIP3   OH269382   3.113   2.422   3.759  0.0086  0.5489  0.3453
15964TIP3    H169383   3.142   2.350   3.702 -2.7839  0.6616 -1.3563
15964TIP3    H269384   3.019   2.407   3.770 -0.5512  3.6678  0.3228
15965TIP3   OH269385   6.689   1.292   3.563  0.3753  0.4347 -0.4866
15965TIP3    H169386   6.774   1.326   3.591  0.9910  0.9630 -2.8888
15965TIP3    H269387   6.699   1.275   3.470 -1.7469 -0.8154 -0.5295
15966TIP3   OH269388   3.896   0.110   1.065  0.2037  0.5309 -0.5929
15966TIP3    H169389   3.975   0.147   1.105 -0.5954  0.6228  0.9494
15966TIP3    H269390   3.841   0.186   1.049 -0.3518  0.2841  0.1207
15967TIP3   OH269391   5.123   0.298  11.780 -0.1137  0.1186 -0.1014
15967TIP3    H169392   5.165   0.341  11.705 -0.3715  2.2627  0.9774
15967TIP3    H269393   5.196   0.272  11.836  0.0019 -0.1310 -0.3657
15968TIP3   OH269394   1.770   5.689   3.746 -0.2377 -0.3336 -0.7019
15968TIP3    H169395   1.826   5.628   3.697 -0.1800 -2.4311  1.8633
15968TIP3    H269396   1.824   5.717   3.820 -1.6653 -0.3622  0.3700
15969TIP3   OH269397   6.443   3.290  14.588 -1.0540  0.2366  0.2152
15969TIP3    H169398   6.515   3.349  14.612  0.7034 -1.1306 -1.6119
15969TIP3    H269399   6.475   3.203  14.608 -0.8177 -0.6849 -3.7736
15970TIP3   OH269400   5.940   1.142  12.440 -0.0346 -0.1347  0.1051
15970TIP3    H169401   6.028   1.132  12.403  0.3625  0.5988  0.8512
15970TIP3    H269402   5.908   1.225  12.405 -0.7499 -0.7600 -0.7833
15971TIP3   OH269403   4.808   3.152   3.376  0.2188 -0.0197  0.2898
15971TIP3    H169404   4.902   3.147   3.362  0.2874  1.5152  0.1981
15971TIP3    H269405   4.782   3.061   3.393  1.5342 -0.6067 -0.7449
15972TIP3   OH269406   1.113   4.610  12.669  0.2130 -0.3594 -0.6108
15972TIP3    H169407   1.034   4.581  12.624  0.1689  1.5879 -1.8348
15972TIP3    H269408   1.184   4.586  12.610  0.3280  0.1315 -0.6781
15973TIP3   OH269409   5.526   0.488  14.914  0.1253  0.0688  0.4928
15973TIP3    H169410   5.595   0.430  14.948  0.1946 -0.1515 -0.0143
15973TIP3    H269411   5.482   0.522  14.992 -0.7152 -1.6414  0.7982
15974TIP3   OH269412   0.742   4.272  13.196  0.2121 -0.4437  0.0870
15974TIP3    H169413   0.659   4.314  13.218  1.0269  1.0538  0.3253
15974TIP3    H269414   0.767   4.311  13.112  0.3668 -1.3712 -0.3120
15975TIP3   OH269415   2.905   6.121   5.215  0.8019  0.4651 -1.0321
15975TIP3    H169416   2.994   6.087   5.205  0.9362  1.0476 -1.8518
15975TIP3    H269417   2.904   6.160   5.302  0.8822 -0.9287 -0.3966
15976TIP3   OH269418   5.383   6.684  14.215 -0.0564  0.2248 -0.6301
15976TIP3    H169419   5.458   6.625  14.227 -0.0911  0.2166 -0.4553
15976TIP3    H269420   5.316   6.630  14.173  0.2149  0.3664 -1.2676
15977TIP3   OH269421   5.336   4.173   2.535  0.1801 -0.1755  0.4119
15977TIP3    H169422   5.407   4.203   2.592  1.7874 -0.0727 -1.6141
15977TIP3    H269423   5.321   4.245   2.475 -0.9245 -0.6278  0.1339
15978TIP3   OH269424   4.407   6.699   5.201  0.0026 -0.5245 -0.1005
15978TIP3    H169425   4.343   6.764   5.229  0.6110  0.1315 -0.2099
15978TIP3    H269426   4.488   6.724   5.245 -0.2054 -2.3281  1.3816
15979TIP3   OH269427   0.373   0.356   2.884 -0.3705  0.5468 -0.3778
15979TIP3    H169428   0.442   0.422   2.887 -0.2569  0.4896 -1.4859
15979TIP3    H269429   0.294   0.406   2.861 -0.0912  0.1616 -2.2239
15980TIP3   OH269430   4.078   3.328   0.668  0.2921  1.1210  0.6829
15980TIP3    H169431   4.020   3.276   0.613  0.5264  0.3276  1.1811
15980TIP3    H269432   4.153   3.347   0.612  0.5326  0.3076  0.7310
15981TIP3   OH269433   0.640   2.857  14.377 -0.7464  0.2041  0.1894
15981TIP3    H169434   0.646   2.762  14.378  0.8029  0.2283 -2.7997
15981TIP3    H269435   0.595   2.878  14.296  0.6187  2.0865 -0.1198
15982TIP3   OH269436   5.162   4.857  11.768 -0.0268  0.7720  0.2720
15982TIP3    H169437   5.077   4.831  11.802 -0.3949  2.7986  0.9882
15982TIP3    H269438   5.147   4.868  11.674  0.3078 -2.1219 -0.1728
15983TIP3   OH269439   4.024   6.421  14.254 -0.0119 -0.0846  0.1375
15983TIP3    H169440   4.053   6.506  14.221 -0.8333  0.7483  1.5274
15983TIP3    H269441   4.093   6.360  14.228  0.9207  1.1255 -0.2614
15984TIP3   OH269442   4.828   0.929   5.802  0.0474 -0.1317  0.0901
15984TIP3    H169443   4.772   0.977   5.742 -0.3056  0.4933  0.9059
15984TIP3    H269444   4.917   0.952   5.775 -0.0633 -1.3688 -1.4001
15985TIP3   OH269445   5.693   0.788  11.763 -0.1350 -0.3621 -0.1572
15985TIP3    H169446   5.736   0.824  11.841 -0.2088 -1.3261  0.3465
15985TIP3    H269447   5.603   0.770  11.792 -0.2665 -0.3771 -0.5688
15986TIP3   OH269448   1.441   1.109  13.592 -0.0001 -0.2616  0.6998
15986TIP3    H169449   1.536   1.113  13.608  0.2692 -3.4577  0.2891
15986TIP3    H269450   1.403   1.102  13.680  0.3562 -1.3477  0.7872
15987TIP3   OH269451   5.293   3.083  10.615  0.2090 -0.1764  0.0896
15987TIP3    H169452   5.319   3.050  10.528  1.9086 -0.6023  0.7401
15987TIP3    H269453   5.235   3.015  10.650  0.9093 -0.8216 -0.0061
15988TIP3   OH269454   3.874   1.759  11.613 -0.5430 -0.3683 -0.1259
15988TIP3    H169455   3.852   1.837  11.561  0.6727  0.8982  1.1863
15988TIP3    H269456   3.826   1.688  11.571  0.8150  0.4802 -3.3046
15989TIP3   OH269457   6.679   4.438  12.205  0.2411  0.0459 -0.3284
15989TIP3    H169458   6.591   4.406  12.223 -0.3184 -0.1269 -3.1289
15989TIP3    H269459   6.687   4.516  12.261 -1.4519 -0.2592  0.3914
15990TIP3   OH269460   1.975   4.535  13.491  0.4008 -0.4627 -0.3235
15990TIP3    H169461   1.925   4.500  13.417 -0.5966 -0.4758  0.3411
15990TIP3    H269462   2.065   4.509  13.474  0.3264  0.3105 -1.9986
15991TIP3   OH269463   2.772   1.206   4.414 -0.0182 -0.1205  0.0491
15991TIP3    H169464   2.742   1.296   4.422 -0.5501 -0.4605  2.3365
15991TIP3    H269465   2.711   1.165   4.352 -0.7854  0.6623  0.2862
15992TIP3   OH269466   5.803   0.133  16.015  0.5335 -0.3850  0.0928
15992TIP3    H169467   5.846   0.162  16.095 -1.5001 -0.2699  1.1817
15992TIP3    H269468   5.865   0.154  15.945  0.7340  3.1623  1.2251
15993TIP3   OH269469   1.818   3.705   1.520  0.5111 -0.5587  0.1294
15993TIP3    H169470   1.795   3.714   1.428 -0.4243 -1.6100  0.2417
15993TIP3    H269471   1.888   3.640   1.522  0.7825 -0.2665  0.1290
15994TIP3   OH269472   4.586   5.928  15.492  0.6107 -0.6745 -0.7362
15994TIP3    H169473   4.511   5.981  15.517  0.6419  0.9400 -3.8571
15994TIP3    H269474   4.557   5.838  15.505 -1.1587 -0.0263 -0.0520
15995TIP3   OH269475   6.059   4.449   2.714  0.0805 -0.4398  0.0769
15995TIP3    H169476   6.047   4.467   2.620 -0.3635  0.4405  0.3003
15995TIP3    H269477   6.098   4.529   2.749  1.4027 -1.2250  0.4223
15996TIP3   OH269478   3.952   5.022   5.328  0.6627  0.0754 -0.3879
15996TIP3    H169479   3.920   5.113   5.332  1.9071  0.4949  0.0696
15996TIP3    H269480   3.990   5.006   5.414 -0.2668 -1.1642 -0.1920
15997TIP3   OH269481   3.683   6.796   4.623 -0.1826  0.5037  0.0953
15997TIP3    H169482   3.648   6.712   4.653 -1.0758  0.4009 -1.2027
15997TIP3    H269483   3.679   6.852   4.701 -0.2178 -0.4488  0.7909
15998TIP3   OH269484   0.347   6.065  15.954 -0.0325  0.0777 -0.0796
15998TIP3    H169485   0.263   6.110  15.944 -0.2882 -0.9834 -3.2876
15998TIP3    H269486   0.324   5.979  15.987  0.2082  1.1819  3.1402
15999TIP3   OH269487   5.974   1.267   0.276  0.1279 -0.2724 -0.2447
15999TIP3    H169488   5.950   1.360   0.273  0.2522 -0.2039  0.6074
15999TIP3    H269489   5.913   1.224   0.216  0.5217  0.4551 -1.1560
16000TIP3   OH269490   2.915   2.783   1.481  0.5423 -0.0731  0.5916
16000TIP3    H169491   2.981   2.718   1.457 -0.0837 -0.4584 -0.0932
16000TIP3    H269492   2.868   2.800   1.400  0.1649  0.6195  0.9586
16001TIP3   OH269493   5.462   2.815   4.548  0.5732  0.1990 -0.2867
16001TIP3    H169494   5.422   2.763   4.618 -0.1210  0.0213 -0.8121
16001TIP3    H269495   5.539   2.855   4.589  0.7379 -0.7119  0.2988
16002TIP3   OH269496   5.007   4.284   5.300 -0.2435  0.6179  0.1229
16002TIP3    H169497   4.944   4.281   5.228  0.0940  0.7415 -0.1750
16002TIP3    H269498   4.966   4.343   5.364 -0.4056  0.7430 -0.0923
16003TIP3   OH269499   1.244   6.266  16.196  0.2350 -0.3699  0.3815
16003TIP3    H169500   1.232   6.211  16.118 -0.2856 -1.1476  0.9964
16003TIP3    H269501   1.161   6.313  16.205  1.1001  1.4190 -0.8181
16004TIP3   OH269502   5.187   2.860  15.490  0.0130 -0.4793 -0.0326
16004TIP3    H169503   5.169   2.816  15.574 -0.6018  0.9025  0.5687
16004TIP3    H269504   5.236   2.939  15.514  0.2915 -0.3383 -1.0336
16005TIP3   OH269505   5.208   3.804  14.862  0.6835 -0.2103 -0.9445
16005TIP3    H169506   5.258   3.724  14.846 -0.6901 -1.5256  0.9630
16005TIP3    H269507   5.260   3.852  14.926 -0.1249 -1.2725  0.5513
16006TIP3   OH269508   5.625   4.779  11.940 -0.0286  0.1734  0.5080
16006TIP3    H169509   5.675   4.713  11.989  0.5181  2.0605  2.5314
16006TIP3    H269510   5.663   4.863  11.966 -1.6397  1.4065 -0.9845
16007TIP3   OH269511   1.056   3.135   0.877 -0.0201  0.1554  0.2440
16007TIP3    H169512   0.986   3.166   0.935 -1.4808  0.4116 -1.5831
16007TIP3    H269513   1.060   3.200   0.807  1.0322 -0.6407 -0.4504
16008TIP3   OH269514   6.610   6.183  14.434 -0.0432 -0.2118  0.5739
16008TIP3    H169515   6.699   6.216  14.428  0.2493 -0.4415  2.9249
16008TIP3    H269516   6.556   6.250  14.392  0.7446  2.2972  3.3703
16009TIP3   OH269517   2.630   3.685  11.050  0.1221  0.6019  0.0950
16009TIP3    H169518   2.582   3.729  10.980  0.1884  2.7095  1.3196
16009TIP3    H269519   2.722   3.696  11.028  0.1194  0.0973 -0.1711
16010TIP3   OH269520   1.027   0.874   4.204 -0.2536  0.1262  0.1546
16010TIP3    H169521   0.949   0.825   4.229 -0.1096 -0.4525 -0.5074
16010TIP3    H269522   1.070   0.895   4.287 -1.8032  1.6281  0.6094
16011TIP3   OH269523   0.973   4.080  11.746  0.1281  0.3025  0.0864
16011TIP3    H169524   1.002   3.998  11.705  0.9708 -0.4256  2.0738
16011TIP3    H269525   1.016   4.148  11.694  0.6952 -0.5676 -0.6189
16012TIP3   OH269526   3.248   1.055   2.090 -0.3934  0.4452 -0.1024
16012TIP3    H169527   3.337   1.023   2.108 -0.1492  0.5594 -1.0737
16012TIP3    H269528   3.196   0.976   2.080 -0.6325  0.3840  1.5756
16013TIP3   OH269529   3.527   5.371  12.192 -0.0286 -0.3402  0.4358
16013TIP3    H169530   3.581   5.440  12.154 -0.7442  0.4108  0.7514
16013TIP3    H269531   3.437   5.395  12.168 -0.3690 -0.5873  1.4405
16014TIP3   OH269532   5.658   1.078   0.434 -0.8398 -0.0194 -0.2531
16014TIP3    H169533   5.645   1.151   0.373 -0.1244  0.6256  0.3574
16014TIP3    H269534   5.663   1.001   0.377  0.0447  0.5994 -1.0400
16015TIP3   OH269535   1.697   0.913  15.822  0.7529  0.0360  0.0629
16015TIP3    H169536   1.778   0.961  15.807  0.6185  0.0392 -0.6714
16015TIP3    H269537   1.658   0.903  15.735  0.9259 -1.6448  0.1627
16016TIP3   OH269538   1.668   1.140   2.505 -0.7337 -0.0328 -0.3676
16016TIP3    H169539   1.640   1.050   2.487 -0.4337 -0.4533  1.1533
16016TIP3    H269540   1.700   1.173   2.421 -1.4900 -1.1116 -1.0975
16017TIP3   OH269541   2.669   1.592   1.980  0.4378 -0.0804 -0.2331
16017TIP3    H169542   2.726   1.648   2.033  1.5037 -0.4989 -0.9207
16017TIP3    H269543   2.602   1.652   1.947  1.8196  0.9125 -1.3327
16018TIP3   OH269544   0.674   1.654   6.177 -0.3720 -0.0497 -0.5004
16018TIP3    H169545   0.597   1.696   6.137 -2.1883  0.0172  2.8559
16018TIP3    H269546   0.678   1.691   6.265  2.2702 -1.6717  0.1049
16019TIP3   OH269547   0.474   0.104  13.666 -0.0509  0.7807  0.4139
16019TIP3    H169548   0.497   0.191  13.634  0.4285  1.3839  2.3565
16019TIP3    H269549   0.385   0.089  13.634  0.6744  1.0189 -1.8370
16020TIP3   OH269550   6.175   2.161  13.209  0.0829  0.3082 -0.4844
16020TIP3    H169551   6.220   2.198  13.133  0.2247 -1.4646 -1.2826
16020TIP3    H269552   6.174   2.067  13.193 -1.1330  0.0419  1.0436
16021TIP3   OH269553   5.420   6.427   4.707  0.1442  0.0021 -0.8779
16021TIP3    H169554   5.414   6.343   4.752 -0.7500  0.3936 -0.2588
16021TIP3    H269555   5.407   6.405   4.615  1.0916 -0.6860 -0.8579
16022TIP3   OH269556   1.059   1.499  13.557  0.0927 -0.2968  0.1810
16022TIP3    H169557   0.968   1.529  13.554 -0.6306 -2.5176 -1.2216
16022TIP3    H269558   1.059   1.429  13.622  0.8735 -0.0514  0.4454
16023TIP3   OH269559   4.647   5.345  16.479 -0.4114  0.0931  0.2425
16023TIP3    H169560   4.621   5.364  16.569  1.9176  1.2273  0.7098
16023TIP3    H269561   4.571   5.371  16.427 -0.6765  2.3048  1.6408
16024TIP3   OH269562   5.934   5.576  14.385  0.1064  0.3267  0.7183
16024TIP3    H169563   5.888   5.658  14.368 -0.4518 -0.0682  0.2537
16024TIP3    H269564   5.898   5.515  14.320  1.7553  0.1681 -0.0737
16025TIP3   OH269565   2.544   4.242  10.960  0.3568 -0.2478 -0.1448
16025TIP3    H169566   2.519   4.253  10.868 -1.1294  1.0274  0.4018
16025TIP3    H269567   2.599   4.163  10.960  2.2474  1.0168 -2.4533
16026TIP3   OH269568   1.180   2.778   6.467 -0.5194  0.2427 -0.4778
16026TIP3    H169569   1.236   2.794   6.543 -2.4415 -2.4815  1.5771
16026TIP3    H269570   1.131   2.860   6.456 -2.1252 -0.1703  2.8930
16027TIP3   OH269571   4.024   4.005  12.688  0.0304 -0.4566  0.4320
16027TIP3    H169572   3.979   3.975  12.608  1.5141 -0.8018 -0.2901
16027TIP3    H269573   4.114   3.975  12.677  0.4567  0.2936  1.8388
16028TIP3   OH269574   2.431   2.549   0.377  0.4452 -0.1118  0.2909
16028TIP3    H169575   2.445   2.644   0.379 -0.9312  0.0913  0.8033
16028TIP3    H269576   2.406   2.530   0.287 -0.9713  0.2685  0.6010
16029TIP3   OH269577   6.566   6.604   6.190 -0.5951 -0.2005  0.1896
16029TIP3    H169578   6.658   6.625   6.172 -0.8936  1.9374  1.0308
16029TIP3    H269579   6.565   6.575   6.281 -0.6015 -1.3426 -0.1625
16030TIP3   OH269580   2.681   1.736   3.955 -0.2026 -0.1993  0.7531
16030TIP3    H169581   2.647   1.808   4.009 -0.5587 -0.1919  0.5199
16030TIP3    H269582   2.679   1.660   4.014  0.6121  0.0785  1.1423
16031TIP3   OH269583   3.274   6.631  11.844 -0.5547 -0.2283  0.3060
16031TIP3    H169584   3.282   6.595  11.756  3.3341  0.2219  0.3736
16031TIP3    H269585   3.197   6.687  11.841 -0.4853 -0.2364 -2.7756
16032TIP3   OH269586   3.464   4.429  15.647 -0.1375 -0.3569  0.4973
16032TIP3    H169587   3.438   4.452  15.736  1.7063 -0.5230  1.0994
16032TIP3    H269588   3.445   4.507  15.596 -2.6907 -0.7939  0.6953
16033TIP3   OH269589   0.040   6.296  14.503 -0.0982 -0.3015 -0.1098
16033TIP3    H169590   0.113   6.261  14.553  0.4603 -1.5109 -1.7112
16033TIP3    H269591   0.079   6.362  14.446 -0.1738 -1.2392 -1.2620
16034TIP3   OH269592   1.653   1.847  11.397  0.6850  0.1188  0.0163
16034TIP3    H169593   1.669   1.831  11.304  3.0712  0.1378  0.3938
16034TIP3    H269594   1.564   1.815  11.412  0.4417 -0.3115 -2.1633
16035TIP3   OH269595   4.107   3.481  16.001 -0.1475 -0.5185  0.5383
16035TIP3    H169596   4.109   3.386  15.988  0.6452 -0.7575  2.3003
16035TIP3    H269597   4.198   3.504  16.019 -0.6949  0.2277  2.4060
16036TIP3   OH269598   5.601   5.645   4.822 -0.4066 -0.3849  0.0223
16036TIP3    H169599   5.553   5.713   4.775 -1.7817 -0.6520  1.0401
16036TIP3    H269600   5.535   5.581   4.847  0.5300 -0.9664  1.0582
16037TIP3   OH269601   1.953   6.310  15.711 -0.7023  0.0597  0.1574
16037TIP3    H169602   1.884   6.247  15.732 -0.8471  0.6641  1.5546
16037TIP3    H269603   2.034   6.263  15.729 -0.7774 -0.1727 -0.1038
16038TIP3   OH269604   2.424   6.366   3.430  0.3311  0.0328 -0.4981
16038TIP3    H169605   2.502   6.413   3.401  0.2460 -0.2114 -1.1311
16038TIP3    H269606   2.457   6.300   3.491  0.4040  1.1943  0.7395
16039TIP3   OH269607   2.822   0.202  14.297 -0.4104  0.3936  0.4758
16039TIP3    H169608   2.865   0.278  14.338 -1.3415 -0.0918  2.4233
16039TIP3    H269609   2.889   0.134  14.295  0.9379  1.7168 -2.7868
16040TIP3   OH269610   1.666   2.645  12.974  0.6570 -0.4349  0.3521
16040TIP3    H169611   1.753   2.643  13.014  1.5916  0.6733 -1.5587
16040TIP3    H269612   1.673   2.586  12.899  0.3684  1.1285 -0.9393
16041TIP3   OH269613   0.692   0.221  17.253  0.7709 -0.1969 -0.5411
16041TIP3    H169614   0.711   0.221  17.159 -0.3940  0.2390 -0.7932
16041TIP3    H269615   0.749   0.153  17.289  0.2720 -1.2940 -1.7710
16042TIP3   OH269616   1.116   1.759   1.772  0.2324 -0.1355 -0.2657
16042TIP3    H169617   1.068   1.780   1.852  0.4920  0.4090 -0.2545
16042TIP3    H269618   1.058   1.787   1.701  0.2918 -0.0001 -0.2603
16043TIP3   OH269619   5.987   1.240   1.432 -0.3494 -0.3247 -0.5767
16043TIP3    H169620   6.018   1.154   1.404  1.2133 -0.3786  1.1860
16043TIP3    H269621   6.061   1.298   1.413 -0.8705  0.3753 -0.4567
16044TIP3   OH269622   3.066   0.673  13.290 -0.2668 -0.0675  0.1586
16044TIP3    H169623   3.089   0.745  13.350  0.4252 -0.8503  0.8468
16044TIP3    H269624   2.970   0.675  13.287 -0.2706  0.6282  0.4881
16045TIP3   OH269625   2.979   4.859   6.355 -0.1304  0.1345 -0.1698
16045TIP3    H169626   2.993   4.944   6.397 -1.5634 -0.7740  2.2725
16045TIP3    H269627   3.060   4.811   6.372 -0.4153  0.0365  0.9612
16046TIP3   OH269628   5.535   4.889  14.797  0.3362  0.7508  0.0579
16046TIP3    H169629   5.549   4.908  14.890 -1.2892  0.3549  0.4019
16046TIP3    H269630   5.619   4.853  14.768  1.0951  1.5302  1.1866
16047TIP3   OH269631   4.727   5.021   3.872  0.0053 -0.2405  0.2461
16047TIP3    H169632   4.812   5.012   3.915  0.0039 -0.3375  0.2273
16047TIP3    H269633   4.700   5.111   3.891  0.2329 -0.1301  0.0293
16048TIP3   OH269634   0.708   5.982   3.159  0.2401 -0.1427 -0.1617
16048TIP3    H169635   0.642   5.934   3.208 -1.2778  1.0206 -1.0552
16048TIP3    H269636   0.712   6.068   3.201  0.0075  0.3496 -1.1308
16049TIP3   OH269637   4.797   5.127   1.082 -0.5222  0.4237 -0.2616
16049TIP3    H169638   4.730   5.122   1.151 -0.0443  1.2855  0.2627
16049TIP3    H269639   4.874   5.084   1.120 -0.8238 -0.7472 -0.9387
16050TIP3   OH269640   1.806   1.408  16.405 -0.1245  0.0915 -0.3816
16050TIP3    H169641   1.788   1.464  16.481 -3.3659 -1.1509 -0.1602
16050TIP3    H269642   1.741   1.435  16.340 -1.0788 -2.6961 -0.6255
16051TIP3   OH269643   0.511   0.642   1.086 -0.3051  0.2850  0.5794
16051TIP3    H169644   0.460   0.681   1.156  0.1830 -0.3159  1.2740
16051TIP3    H269645   0.457   0.653   1.008 -0.7914  1.0710  1.0188
16052TIP3   OH269646   3.680   5.524   3.038  0.3946 -0.3140 -0.0509
16052TIP3    H169647   3.684   5.481   2.953 -0.3310  1.3547 -0.9353
16052TIP3    H269648   3.709   5.456   3.100  1.2963 -1.4037 -1.6434
16053TIP3   OH269649   3.595   5.315  14.505 -0.4370  0.2060  0.1725
16053TIP3    H169650   3.523   5.255  14.481 -1.8445  2.1813 -0.6928
16053TIP3    H269651   3.674   5.269  14.475 -1.4673 -1.2545 -0.4263
16054TIP3   OH269652   5.695   3.622  13.512  0.6257 -0.4916  0.1393
16054TIP3    H169653   5.613   3.651  13.551  0.9379  1.3138 -0.5104
16054TIP3    H269654   5.669   3.556  13.448 -0.2305 -0.6648  0.6653
16055TIP3   OH269655   3.953   1.867   4.487  0.3323  0.0928  0.2087
16055TIP3    H169656   3.963   1.881   4.581 -0.0970 -1.6216  0.5241
16055TIP3    H269657   3.868   1.906   4.467  0.0252 -0.3048  0.7061
16056TIP3   OH269658   6.520   3.220  16.087  0.4644  0.1367  0.6753
16056TIP3    H169659   6.568   3.179  16.015 -1.5368  0.1833 -0.7281
16056TIP3    H269660   6.544   3.313  16.082 -0.0125  0.2140 -0.2150
16057TIP3   OH269661   6.446   2.898  16.236 -0.6499 -0.2804  0.3226
16057TIP3    H169662   6.408   2.862  16.156  1.1965 -0.3874 -0.5269
16057TIP3    H269663   6.488   2.823  16.278  0.8803  0.3279 -0.0863
16058TIP3   OH269664   2.774   2.657   6.687  0.5188 -0.6108  0.1933
16058TIP3    H169665   2.692   2.701   6.711 -0.5530 -1.8508 -1.0628
16058TIP3    H269666   2.749   2.565   6.678  2.0116 -0.9654 -0.3913
16059TIP3   OH269667   5.594   1.878   6.467  0.7402  0.0687  0.1899
16059TIP3    H169668   5.563   1.929   6.542  1.1191 -0.2108  0.5344
16059TIP3    H269669   5.585   1.787   6.495  0.9942 -0.0329 -0.0645
16060TIP3   OH269670   5.599   1.300  16.937 -0.2453 -0.5027  0.2921
16060TIP3    H169671   5.676   1.257  16.900  1.8235  2.1536  1.3398
16060TIP3    H269672   5.529   1.235  16.930  2.1742 -3.1201 -0.3349
16061TIP3   OH269673   2.524   6.567  11.735 -0.5410 -0.4934 -0.0015
16061TIP3    H169674   2.473   6.612  11.802 -0.2486 -0.5931  0.2878
16061TIP3    H269675   2.499   6.475  11.742  0.1969 -0.6497  0.6066
16062TIP3   OH269676   5.857   1.468   2.930 -0.6597 -0.2516  0.7744
16062TIP3    H169677   5.802   1.423   2.866  0.3896  0.0411 -0.3538
16062TIP3    H269678   5.840   1.561   2.916  0.0508 -0.1646  0.4959
16063TIP3   OH269679   0.320   6.572  11.021  0.4312 -0.6310  0.1253
16063TIP3    H169680   0.258   6.506  11.051 -0.2017  0.6296  1.6211
16063TIP3    H269681   0.266   6.647  10.997  1.2618 -0.1022 -0.1318
16064TIP3   OH269682   0.821   6.691   5.614  0.0408  0.0541 -0.2013
16064TIP3    H169683   0.832   6.603   5.650  0.3909 -0.2505 -1.0503
16064TIP3    H269684   0.898   6.705   5.560  0.6543  1.4219  0.9997
16065TIP3   OH269685   6.333   2.107   0.639 -0.5675  0.5555  0.1858
16065TIP3    H169686   6.395   2.043   0.674 -0.8523  0.1760 -0.0002
16065TIP3    H269687   6.278   2.130   0.714 -1.6651 -0.8220 -0.1629
16066TIP3   OH269688   5.753   3.930   0.038  0.1797 -0.2906 -0.0680
16066TIP3    H169689   5.747   4.014   0.084 -0.9408  0.7494 -2.0274
16066TIP3    H269690   5.703   3.943  -0.042  1.9305 -2.1192 -1.5113
16067TIP3   OH269691   6.635   3.931  16.727  0.8817  0.3302 -1.0844
16067TIP3    H169692   6.644   3.896  16.639  1.3999 -1.0703 -0.4924
16067TIP3    H269693   6.558   3.887  16.762 -1.1397  3.1022 -1.8484
16068TIP3   OH269694   5.984   2.131  15.594 -0.5770 -0.0809  0.5150
16068TIP3    H169695   6.041   2.071  15.545 -1.3408 -0.3864 -0.0039
16068TIP3    H269696   6.033   2.150  15.674  1.2309  1.3628 -0.8728
16069TIP3   OH269697   4.541   4.320  16.084 -0.4980  0.0933  0.1527
16069TIP3    H169698   4.543   4.282  15.996 -0.6778 -0.3558  0.3421
16069TIP3    H269699   4.551   4.414  16.070 -0.6488  0.0335 -0.3567
16070TIP3   OH269700   4.702   3.560  11.370 -0.0397  0.0878  0.1736
16070TIP3    H169701   4.624   3.600  11.408  1.2957  1.8823  1.0722
16070TIP3    H269702   4.768   3.629  11.371  1.7488 -1.5679 -0.0592
16071TIP3   OH269703   2.738   3.152  14.792  0.0795 -0.0639  0.0741
16071TIP3    H169704   2.828   3.161  14.824 -0.4538  0.2368  1.5136
16071TIP3    H269705   2.713   3.241  14.767 -0.5705  0.2371  1.7487
16072TIP3   OH269706   4.036   6.798   3.950 -0.1932 -0.6964  0.1223
16072TIP3    H169707   3.984   6.728   3.911 -0.0958 -1.9248  2.1209
16072TIP3    H269708   4.126   6.766   3.947 -0.4111 -1.8223  3.2750
16073TIP3   OH269709   6.048   0.134   1.117  0.2347 -0.3112  0.2193
16073TIP3    H169710   6.067   0.225   1.096  0.5175 -0.8703 -2.2287
16073TIP3    H269711   6.016   0.135   1.207 -0.3081  2.2568  0.0299
16074TIP3   OH269712   2.993   6.088  15.578 -0.2660  0.3761 -0.0348
16074TIP3    H169713   3.040   6.169  15.560 -0.3604  0.5291  0.3994
16074TIP3    H269714   2.903   6.106  15.549 -0.1281  0.1912 -0.5736
16075TIP3   OH269715   2.963   5.863  13.798 -0.2015 -0.0978 -0.0841
16075TIP3    H169716   2.998   5.887  13.884 -0.0912  1.5026 -0.5554
16075TIP3    H269717   2.873   5.835  13.816 -0.0304 -0.2176  0.6088
16076TIP3   OH269718   4.689   1.387  15.521  0.2946 -0.0288  0.1557
16076TIP3    H169719   4.644   1.414  15.602  1.7543 -1.2227  1.4064
16076TIP3    H269720   4.705   1.469  15.474  0.1400  0.7816  1.4793
16077TIP3   OH269721   3.799   0.354   0.086 -0.4144  0.0681 -0.3173
16077TIP3    H169722   3.732   0.387   0.145 -1.9028 -0.6405 -1.5455
16077TIP3    H269723   3.877   0.344   0.140 -0.4229  3.7956  0.4777
16078TIP3   OH269724   1.844   6.241   0.050 -0.1504 -0.2209 -0.0627
16078TIP3    H169725   1.928   6.230   0.093 -0.0072  0.1623 -0.2437
16078TIP3    H269726   1.781   6.196   0.107  0.1970 -0.6516 -0.0159
16079TIP3   OH269727   2.968   0.059   2.238  0.2852  0.0046 -0.4769
16079TIP3    H169728   3.033   0.118   2.276 -1.0034  0.7537  0.5558
16079TIP3    H269729   2.894   0.115   2.215 -0.2593 -0.9443 -1.0934
16080TIP3   OH269730   4.425   4.907   3.021  0.1730  0.4580  0.1768
16080TIP3    H169731   4.500   4.964   3.037  0.2375 -0.0169  1.5947
16080TIP3    H269732   4.349   4.957   3.050  0.2181 -0.1280  1.3082
16081TIP3   OH269733   0.782   2.316   1.948  0.1326  0.3245 -0.1793
16081TIP3    H169734   0.816   2.400   1.919 -0.7522  0.4937 -0.7516
16081TIP3    H269735   0.763   2.269   1.866  2.3823 -1.1559  0.1210
16082TIP3   OH269736   2.406   1.919  16.573 -0.5860  0.9268 -0.2152
16082TIP3    H169737   2.487   1.969  16.560 -0.2675  0.2505 -0.9179
16082TIP3    H269738   2.378   1.941  16.661  2.3254 -1.5818  1.4565
16083TIP3   OH269739   1.166   5.485   4.852  0.6683 -0.2499 -0.3688
16083TIP3    H169740   1.200   5.439   4.775 -0.2014 -0.2783 -0.7408
16083TIP3    H269741   1.146   5.573   4.820 -1.2690 -0.7415 -0.6125
16084TIP3   OH269742   4.965   5.947   2.487  0.2270  0.6519  0.2515
16084TIP3    H169743   5.044   5.975   2.442  0.4240  0.6396  0.5887
16084TIP3    H269744   4.894   5.962   2.424  0.7087 -0.9913 -0.7153
16085TIP3   OH269745   3.375   5.912   4.565  0.1065 -0.3338  1.2540
16085TIP3    H169746   3.399   5.850   4.633  0.1623 -0.0862  1.4620
16085TIP3    H269747   3.285   5.937   4.585  0.6301  0.8982  2.1274
16086TIP3   OH269748   5.642   5.348  13.360 -0.0129 -0.0284 -0.0717
16086TIP3    H169749   5.712   5.382  13.415  0.5112  1.4338 -1.5772
16086TIP3    H269750   5.640   5.254  13.378  0.6224  0.3179  1.8683
16087TIP3   OH269751   6.344   5.585  17.136 -0.0440 -0.0063 -0.5274
16087TIP3    H169752   6.415   5.540  17.182 -0.6865 -1.4566 -0.9245
16087TIP3    H269753   6.265   5.540  17.164 -0.6361  0.4759 -1.4017
16088TIP3   OH269754   0.198   3.906   2.141 -0.4913  0.8858 -0.2745
16088TIP3    H169755   0.274   3.854   2.116 -0.4023 -0.0390  1.8186
16088TIP3    H269756   0.123   3.853   2.115 -0.3955  0.1926  0.8003
16089TIP3   OH269757   4.092   1.598  11.676  0.5412 -0.1860 -0.7969
16089TIP3    H169758   4.069   1.506  11.667  0.9186 -0.5901  2.1059
16089TIP3    H269759   4.023   1.644  11.628 -1.9018 -1.7761  1.0644
16090TIP3   OH269760   6.102   6.248  17.218  0.2763  0.2909 -0.2509
16090TIP3    H169761   6.166   6.312  17.188 -0.4096  0.6020 -1.0849
16090TIP3    H269762   6.081   6.197  17.140 -1.3790  0.9825 -0.2798
16091TIP3   OH269763   3.201   3.389  15.351 -0.6889 -0.4996  0.4883
16091TIP3    H169764   3.117   3.402  15.396 -1.3610 -0.5820 -0.7065
16091TIP3    H269765   3.177   3.351  15.267  0.4596  0.6275 -0.3752
16092TIP3   OH269766   1.302   2.793  11.435 -0.7421 -0.2836  0.2938
16092TIP3    H169767   1.226   2.836  11.395 -0.7135  0.7938  1.3775
16092TIP3    H269768   1.270   2.708  11.463 -0.8364 -0.9484 -1.7626
16093TIP3   OH269769   2.822   0.250  14.685 -0.0798 -0.5979 -0.2629
16093TIP3    H169770   2.864   0.172  14.651 -0.2602  0.4291 -2.9425
16093TIP3    H269771   2.868   0.323  14.642 -3.2132  0.5962 -1.7517
16094TIP3   OH269772   6.655   4.479   1.054 -0.3158 -0.0918  0.1942
16094TIP3    H169773   6.721   4.480   0.985 -0.5579  0.3606 -0.0279
16094TIP3    H269774   6.706   4.471   1.135 -0.0798 -1.5353 -0.0916
16095TIP3   OH269775   2.288   0.807   0.053 -0.3776 -0.5699 -0.3495
16095TIP3    H169776   2.208   0.780   0.098 -0.4816  0.1251 -0.1008
16095TIP3    H269777   2.345   0.730   0.055 -0.1185 -0.3519  1.5832
16096TIP3   OH269778   0.194   5.210  12.292  0.0186 -0.3354  0.3125
16096TIP3    H169779   0.176   5.169  12.376  2.0434 -0.6259  0.6353
16096TIP3    H269780   0.152   5.153  12.227  0.1343 -1.1683  0.9788
16097TIP3   OH269781   4.719   3.290   1.918  0.4902  0.2399 -0.1751
16097TIP3    H169782   4.794   3.291   1.978  0.0379  1.9042  0.3989
16097TIP3    H269783   4.751   3.334   1.839  0.2306  0.6435 -0.0580
16098TIP3   OH269784   6.119   3.584   2.090  0.9045 -0.1182  0.5852
16098TIP3    H169785   6.078   3.656   2.138  0.1862  0.0059 -0.2015
16098TIP3    H269786   6.109   3.608   1.998 -1.6617 -2.4508  0.1929
16099TIP3   OH269787   6.654   1.992  11.039  0.1777 -0.4300 -0.6601
16099TIP3    H169788   6.746   2.015  11.056 -0.1469  0.9234 -0.6852
16099TIP3    H269789   6.639   2.021  10.950 -0.6221  0.4790 -0.2375
16100TIP3   OH269790   3.241   5.076  13.892 -0.1939 -0.6837 -0.6769
16100TIP3    H169791   3.252   5.170  13.877  2.5133 -0.8431  0.1938
16100TIP3    H269792   3.203   5.043  13.810  0.4005  0.8773 -1.6006
16101TIP3   OH269793   3.960   3.715   1.411 -0.1591 -0.2416 -0.1774
16101TIP3    H169794   3.952   3.653   1.484 -2.6251 -0.4434 -0.5568
16101TIP3    H269795   4.019   3.673   1.350 -0.2255 -1.3168  0.4819
16102TIP3   OH269796   3.390   6.477  13.986  0.1103 -0.2391 -0.2112
16102TIP3    H169797   3.409   6.478  13.892 -1.5321  1.2308 -0.5633
16102TIP3    H269798   3.464   6.524  14.025 -0.1165  0.7979 -0.9837
16103TIP3   OH269799   6.702   4.410  16.489 -0.4721  0.0088  0.8750
16103TIP3    H169800   6.689   4.321  16.523  0.9250 -1.0584 -1.3108
16103TIP3    H269801   6.657   4.466  16.552 -3.6712 -2.4423  0.8871
16104TIP3   OH269802   0.485   4.020   3.873  0.4474  0.0321 -0.3053
16104TIP3    H169803   0.466   3.934   3.837  1.0748 -1.0850  1.8971
16104TIP3    H269804   0.578   4.034   3.853  0.5662 -0.1970  0.0722
16105TIP3   OH269805   5.148   4.363  14.451  0.1418 -0.4262 -0.0395
16105TIP3    H169806   5.116   4.274  14.445  0.1949 -0.5125  0.8588
16105TIP3    H269807   5.196   4.377  14.369 -0.5355 -0.9486 -0.5254
16106TIP3   OH269808   3.521   3.713  12.230 -0.3051 -0.3439  0.2696
16106TIP3    H169809   3.477   3.721  12.315  0.4320  0.0989  0.6176
16106TIP3    H269810   3.600   3.765  12.240  0.0893 -0.7983 -0.4939
16107TIP3   OH269811   1.345   0.634  11.915  0.1962 -0.1808 -0.5400
16107TIP3    H169812   1.256   0.656  11.942  0.7567  0.0746  1.1456
16107TIP3    H269813   1.397   0.711  11.936  0.8186 -0.3188 -1.5429
16108TIP3   OH269814   1.791   6.148  16.734 -0.4507 -1.2498  0.4308
16108TIP3    H169815   1.863   6.204  16.763 -2.5615  2.5486 -1.2312
16108TIP3    H269816   1.820   6.113  16.649  0.1331 -1.1733  0.5979
16109TIP3   OH269817   2.723   1.018  11.101 -0.2690  0.1302  0.2636
16109TIP3    H169818   2.682   1.010  11.187 -0.2400  2.1802  0.5012
16109TIP3    H269819   2.810   1.052  11.118 -0.3899  0.9025 -0.5746
16110TIP3   OH269820   0.872   2.826  15.199  0.4552  0.1926  0.5119
16110TIP3    H169821   0.948   2.847  15.146 -2.0547  0.7043 -3.0655
16110TIP3    H269822   0.843   2.911  15.232  1.6982 -0.0646  2.3385
16111TIP3   OH269823   0.122   4.575  12.100 -0.2512  0.5864  0.5297
16111TIP3    H169824   0.048   4.622  12.139  0.6967  0.9263  1.9485
16111TIP3    H269825   0.112   4.485  12.130 -0.7415  0.3827 -0.2416
16112TIP3   OH269826   3.488   1.977   4.320 -0.6117  0.1210  0.3930
16112TIP3    H169827   3.483   1.884   4.298  0.1787 -0.4082  2.3100
16112TIP3    H269828   3.450   2.022   4.245 -0.0372 -1.6919 -1.0278
16113TIP3   OH269829   2.238   3.409   2.550  0.6679  0.2668  0.9585
16113TIP3    H169830   2.224   3.504   2.554  0.4853  0.2493  0.7182
16113TIP3    H269831   2.313   3.394   2.607  0.7195  0.5611  0.9699
16114TIP3   OH269832   1.434   4.000  15.518 -0.5027 -0.4576  0.0207
16114TIP3    H169833   1.502   3.942  15.482  2.3580  0.9811  2.8365
16114TIP3    H269834   1.365   3.941  15.548 -0.5112 -1.9736 -2.7614
16115TIP3   OH269835   3.591   6.022  14.291 -1.1195 -0.1141  0.2191
16115TIP3    H169836   3.532   5.969  14.344 -2.7814 -0.5219 -1.9771
16115TIP3    H269837   3.533   6.069  14.230  0.7958 -0.4898 -1.9569
16116TIP3   OH269838   2.104   4.816   0.988 -0.7652  0.3987 -0.2827
16116TIP3    H169839   2.162   4.890   0.976 -1.5382  1.4268  2.1209
16116TIP3    H269840   2.017   4.854   1.000 -1.1752 -0.8618  0.9780
16117TIP3   OH269841   1.331   2.343  16.162 -0.0784  0.2129  0.7911
16117TIP3    H169842   1.236   2.342  16.168 -0.1249 -3.7126  0.4179
16117TIP3    H269843   1.361   2.371  16.249 -1.5305  1.7724  0.8075
16118TIP3   OH269844   3.918   3.007  16.744  0.2427  0.0016 -0.4898
16118TIP3    H169845   3.895   2.950  16.670  2.7093 -2.0695  0.2236
16118TIP3    H269846   3.962   3.082  16.704 -1.0650  0.3469 -1.3058
16119TIP3   OH269847   6.188   1.936  15.514 -0.0103  0.4602 -0.0485
16119TIP3    H169848   6.225   1.968  15.432 -2.3868 -1.0155 -1.7584
16119TIP3    H269849   6.145   1.854  15.491  0.5754 -0.8058  2.9949
16120TIP3   OH269850   2.637   0.828   5.288 -0.4037 -0.1682 -0.0392
16120TIP3    H169851   2.730   0.811   5.300 -0.2287  1.0929  0.4682
16120TIP3    H269852   2.594   0.745   5.309  0.4706 -0.2138  1.6183
16121TIP3   OH269853   0.181   0.782  11.619  0.6381  0.2429  0.2496
16121TIP3    H169854   0.273   0.807  11.613  1.0345 -0.8228  1.5538
16121TIP3    H269855   0.140   0.822  11.543  2.5058 -0.6346 -1.2606
16122TIP3   OH269856   5.798   1.727   2.868  0.2682 -0.7299  0.2722
16122TIP3    H169857   5.703   1.730   2.865  0.1959 -0.7718  1.9584
16122TIP3    H269858   5.826   1.817   2.850 -0.0139 -1.0568 -1.8915
16123TIP3   OH269859   5.080   5.751   2.665 -0.3072  0.6050 -0.2721
16123TIP3    H169860   5.026   5.785   2.594 -3.3110 -3.1407  0.0612
16123TIP3    H269861   5.035   5.778   2.745  0.5242  0.9017  0.1004
16124TIP3   OH269862   2.893   3.893  16.001 -0.0478  0.0067  0.5143
16124TIP3    H169863   2.846   3.842  16.066  0.0521  0.0711  0.6380
16124TIP3    H269864   2.942   3.829  15.950  0.2938  0.0062  0.8439
16125TIP3   OH269865   2.447   5.113  13.300  0.6259  0.8206 -0.1520
16125TIP3    H169866   2.462   5.198  13.257  1.6063 -0.1882 -1.8588
16125TIP3    H269867   2.535   5.075  13.308  0.4520  0.8773  2.5944
16126TIP3   OH269868   0.619   1.629  16.368 -0.5605  0.2765  0.0027
16126TIP3    H169869   0.701   1.666  16.337 -0.4862 -0.2953 -0.5038
16126TIP3    H269870   0.618   1.645  16.462  2.1680 -3.5663  0.7748
16127TIP3   OH269871   3.575   6.026   3.602 -0.1935  0.3617 -0.0329
16127TIP3    H169872   3.546   6.076   3.526  0.2126 -0.2194 -0.5797
16127TIP3    H269873   3.631   5.957   3.565 -1.6443 -1.1944  0.5826
16128TIP3   OH269874   6.603   6.243   5.085  0.2443 -0.0747  0.3485
16128TIP3    H169875   6.679   6.298   5.105  0.9255  0.1912 -2.7577
16128TIP3    H269876   6.629   6.155   5.113  1.3254  0.1837  0.1828
16129TIP3   OH269877   2.090   1.262   2.389 -0.1381  0.6068 -0.0313
16129TIP3    H169878   2.105   1.195   2.456  0.8879 -0.3432 -1.2170
16129TIP3    H269879   2.152   1.242   2.320 -0.9290  1.8317 -1.1123
16130TIP3   OH269880   0.335   1.508   2.497  0.4272 -0.1450 -0.4456
16130TIP3    H169881   0.285   1.548   2.426 -0.2376  0.5209  0.4023
16130TIP3    H269882   0.284   1.431   2.522  1.0246 -0.7929 -1.1553
16131TIP3   OH269883   6.770   2.828   0.099 -0.0012  0.0673 -0.7197
16131TIP3    H169884   6.780   2.734   0.083  1.9330  0.0142  0.5117
16131TIP3    H269885   6.825   2.870   0.032 -0.6930  0.3124 -1.1365
16132TIP3   OH269886   1.666   0.848   4.550  0.0229  0.7673  0.3724
16132TIP3    H169887   1.746   0.896   4.570 -1.1779  2.5342  1.0482
16132TIP3    H269888   1.596   0.901   4.588 -1.2540 -2.2363  2.3912
16133TIP3   OH269889   1.081   5.341  16.924  0.2103  0.0255  0.1588
16133TIP3    H169890   1.054   5.267  16.979 -0.8816  1.1162  1.1158
16133TIP3    H269891   1.018   5.342  16.852 -1.5662  1.7630  1.6903
16134TIP3   OH269892   0.360   2.646   4.718  0.3668  0.3611 -0.0681
16134TIP3    H169893   0.352   2.741   4.713  1.6858  0.4635 -0.3870
16134TIP3    H269894   0.311   2.622   4.797 -0.8515  1.1855 -0.5669
16135TIP3   OH269895   1.417   1.507   3.653  0.0816 -0.2583  0.2841
16135TIP3    H169896   1.337   1.507   3.705 -1.2706  0.2469 -1.7059
16135TIP3    H269897   1.484   1.470   3.710 -1.5683 -0.6621  1.9944
16136TIP3   OH269898   0.636   2.537  12.199 -0.0202 -0.2945 -0.2707
16136TIP3    H169899   0.593   2.527  12.114  0.2007  1.2672 -0.5857
16136TIP3    H269900   0.649   2.631  12.208  0.4329 -0.4935  1.2663
16137TIP3   OH269901   0.628   4.442   4.190  0.2468  0.0422 -0.1097
16137TIP3    H169902   0.697   4.505   4.166 -1.6097  1.8844 -0.7406
16137TIP3    H269903   0.607   4.398   4.108 -1.8000  2.0144 -0.6852
16138TIP3   OH269904   3.247   1.083   4.457  0.2400 -0.2758 -0.2408
16138TIP3    H169905   3.234   1.069   4.363 -2.3658  0.8795 -0.0901
16138TIP3    H269906   3.296   1.006   4.486 -2.3477 -2.6010 -1.8122
16139TIP3   OH269907   4.767   3.264  16.503  0.4134 -0.0010  0.5692
16139TIP3    H169908   4.838   3.313  16.463 -1.0564  3.2356  1.7702
16139TIP3    H269909   4.811   3.195  16.553  2.7271  1.8088  1.1407
16140TIP3   OH269910   6.690   0.934   4.394  0.6484 -0.2747  0.1556
16140TIP3    H169911   6.725   0.859   4.441  1.9036 -0.4415 -1.0067
16140TIP3    H269912   6.762   0.997   4.394 -0.5544  1.1420  1.5494
16141TIP3   OH269913   5.867   5.530   2.432 -0.2654  0.6139 -0.5040
16141TIP3    H169914   5.925   5.585   2.484 -1.0562  0.6991  0.3026
16141TIP3    H269915   5.815   5.482   2.496 -0.8414  0.2833 -1.2057
16142TIP3   OH269916   3.431   1.072   3.100  0.0930 -0.6869  0.2347
16142TIP3    H169917   3.469   0.992   3.136 -0.4852 -0.4558  1.3867
16142TIP3    H269918   3.417   1.053   3.007  1.2568 -1.4234  0.1963
16143TIP3   OH269919   6.342   6.127   3.666 -1.2349 -0.0335  0.0895
16143TIP3    H169920   6.425   6.166   3.639 -1.0502  0.5617  1.4631
16143TIP3    H269921   6.363   6.037   3.689 -0.3890  0.8881  3.1576
16144TIP3   OH269922   3.993   6.270   1.962 -0.2011  0.6293  0.1399
16144TIP3    H169923   4.042   6.278   2.044 -1.1269  2.1302  0.5700
16144TIP3    H269924   4.015   6.183   1.929  2.4274  1.1135  0.5114
16145TIP3   OH269925   4.013   2.471   0.672  0.3821  0.2283  0.2535
16145TIP3    H169926   3.991   2.416   0.747 -0.3132 -0.8716 -0.7325
16145TIP3    H269927   4.065   2.542   0.709 -2.2023  1.2057  2.1715
16146TIP3   OH269928   2.523   2.849  11.063  0.4373  0.1476 -0.1077
16146TIP3    H169929   2.455   2.863  10.997 -0.6381 -2.3200  0.4147
16146TIP3    H269930   2.489   2.779  11.118  2.2417  0.7331  1.8183
16147TIP3   OH269931   1.319   1.386  13.222  0.7478  0.0766  0.7795
16147TIP3    H169932   1.317   1.321  13.151 -0.5101 -0.5521  1.3586
16147TIP3    H269933   1.279   1.464  13.183  1.0172  0.0718  0.4883
16148TIP3   OH269934   6.796   6.561   4.194 -0.5861  0.4241  0.1913
16148TIP3    H169935   6.836   6.645   4.216 -1.0099  0.2875  1.5195
16148TIP3    H269936   6.767   6.526   4.278 -3.0457  0.2902 -0.6928
16149TIP3   OH269937   1.584   2.737  16.805 -0.1086  0.2021 -0.4968
16149TIP3    H169938   1.593   2.766  16.714 -1.5287 -1.5359 -1.2016
16149TIP3    H269939   1.648   2.667  16.814  1.1201  1.3942  0.3139
16150TIP3   OH269940   5.409   1.984  15.678 -0.2480 -0.2403  0.6812
16150TIP3    H169941   5.450   1.912  15.728 -1.5990 -0.5977  1.2992
16150TIP3    H269942   5.443   2.063  15.719 -1.9719 -0.5192  2.7727
16151TIP3   OH269943   0.646   4.909  17.163  0.0028  0.1128  0.4583
16151TIP3    H169944   0.683   4.921  17.075  0.6716 -0.1803  0.7001
16151TIP3    H269945   0.708   4.853  17.208  0.7975  2.0365  1.8373
16152TIP3   OH269946   0.947   0.144  17.001  0.1279 -0.7195 -0.0809
16152TIP3    H169947   0.955   0.070  16.941  0.1469  0.0738 -1.0592
16152TIP3    H269948   0.854   0.167  16.999  0.4254  0.4439 -1.1823
16153TIP3   OH269949   5.406   4.622   3.472 -0.1170  0.6209  0.4002
16153TIP3    H169950   5.482   4.622   3.413  0.3665 -1.0915  0.9794
16153TIP3    H269951   5.403   4.710   3.508  1.1375  0.9288 -0.2196
16154TIP3   OH269952   5.620   0.134   5.231  0.2206 -0.3262  0.1045
16154TIP3    H169953   5.679   0.157   5.158 -2.9957 -1.2122 -2.9105
16154TIP3    H269954   5.612   0.215   5.281  0.3842  1.1065 -2.0920
16155TIP3   OH269955   5.800   0.172   5.604 -0.1700 -0.0324  0.8528
16155TIP3    H169956   5.855   0.240   5.645  0.5145 -0.3915  0.5429
16155TIP3    H269957   5.861   0.100   5.588 -0.4094  0.1258 -0.8599
16156TIP3   OH269958   2.285   4.535  11.667 -0.0931  0.0078  0.3069
16156TIP3    H169959   2.376   4.549  11.641  0.2646 -0.9476  1.0156
16156TIP3    H269960   2.235   4.547  11.587  0.7871 -0.6892 -0.3563
16157TIP3   OH269961   6.558   1.228  14.109 -0.6133 -0.3449 -0.2642
16157TIP3    H169962   6.476   1.252  14.152  0.2475  2.1827  0.0336
16157TIP3    H269963   6.552   1.267  14.022 -0.9290 -2.6166 -1.2943
16158TIP3   OH269964   0.238   4.582   1.248 -0.7397 -0.2571 -0.1871
16158TIP3    H169965   0.292   4.592   1.326 -0.1436  2.3318 -0.8937
16158TIP3    H269966   0.251   4.491   1.222  0.6142 -0.6023  1.5991
16159TIP3   OH269967   6.640   1.759  11.609  0.3503 -0.1934 -0.9105
16159TIP3    H169968   6.691   1.763  11.528 -0.6414  0.4976 -1.5125
16159TIP3    H269969   6.567   1.700  11.588 -0.3295  0.5858 -0.7646
16160TIP3   OH269970   1.535   2.718   3.519 -0.1867  0.5004 -0.1457
16160TIP3    H169971   1.579   2.794   3.481 -1.3427  0.4171 -1.6952
16160TIP3    H269972   1.594   2.689   3.589  1.2215  1.6090 -0.8431
16161TIP3   OH269973   2.024   1.830   0.187  0.0663  0.1430  0.1606
16161TIP3    H169974   2.007   1.738   0.210  0.4889 -0.0206 -0.1753
16161TIP3    H269975   2.118   1.840   0.197  0.1687  0.2344 -0.8830
16162TIP3   OH269976   6.355   6.571   2.578  0.1373  0.6651 -0.4285
16162TIP3    H169977   6.443   6.544   2.549 -0.2402 -1.6294  0.4850
16162TIP3    H269978   6.358   6.564   2.673 -0.7637  1.5112 -0.3298
16163TIP3   OH269979   3.466   1.329   3.570 -0.2951  0.1371 -0.3358
16163TIP3    H169980   3.559   1.319   3.590 -0.4858 -1.6335 -0.2427
16163TIP3    H269981   3.426   1.246   3.598 -1.5776  0.0613 -2.2630
16164TIP3   OH269982   2.807   3.892  17.008 -0.3472  0.3555  0.1351
16164TIP3    H169983   2.861   3.921  16.934  2.0160 -0.0155  1.6511
16164TIP3    H269984   2.818   3.961  17.073  0.6581 -1.1178  1.5565
16165TIP3   OH269985   0.302   3.079   6.693 -0.0706  0.2218 -0.6602
16165TIP3    H169986   0.286   2.985   6.682  0.6262  0.3474 -2.9045
16165TIP3    H269987   0.397   3.089   6.684 -0.0603  1.0799  0.2272
16166TIP3   OH269988   2.463   5.881  15.466  0.1591  0.2208 -0.9128
16166TIP3    H169989   2.504   5.966  15.448 -0.8232  1.1488  1.0406
16166TIP3    H269990   2.529   5.817  15.440  3.2508  1.6616  2.8168
16167TIP3   OH269991   1.672   6.007   1.506 -0.7538 -0.1787  0.6539
16167TIP3    H169992   1.671   6.027   1.600  0.8450 -0.3816  0.7161
16167TIP3    H269993   1.738   6.066   1.470  0.4052 -1.8278  0.0427
16168TIP3   OH269994   4.522   3.040  13.553 -0.1229 -0.3011  0.4223
16168TIP3    H169995   4.542   3.123  13.595  0.2178  0.1215 -0.5596
16168TIP3    H269996   4.597   2.984  13.573 -0.4505 -0.4496  1.2613
16169TIP3   OH269997   1.449   4.610  13.393 -0.2926  0.1192 -0.5705
16169TIP3    H169998   1.362   4.619  13.432 -0.2228  1.4131 -0.6878
16169TIP3    H269999   1.510   4.627  13.465 -0.1249 -0.9008 -0.4607
16170TIP3   OH270000   5.154   2.719  15.735 -0.3875 -0.5262  0.1254
16170TIP3    H170001   5.149   2.645  15.795 -0.5037  0.3347  1.1864
16170TIP3    H270002   5.216   2.779  15.775 -2.1566  1.0844  0.5532
16171TIP3   OH270003   0.305   0.058   2.757 -0.1779 -0.0132  0.0897
16171TIP3    H170004   0.310   0.138   2.808  1.7317  0.3037 -0.5439
16171TIP3    H270005   0.283   0.087   2.668 -2.1302 -0.4483  0.3916
16172TIP3   OH270006   0.829   0.902  11.975 -0.2406 -0.2519  0.3885
16172TIP3    H170007   0.918   0.871  11.955  0.3182  1.8183 -0.4732
16172TIP3    H270008   0.840   0.958  12.052 -1.2275 -2.0209  1.8723
16173TIP3   OH270009   3.641   3.686   5.246 -0.3363  0.3321 -0.0307
16173TIP3    H170010   3.668   3.594   5.239  1.3068  0.7191  1.0123
16173TIP3    H270011   3.590   3.701   5.167  2.8811 -0.3397 -2.3571
16174TIP3   OH270012   5.534   5.474  15.026 -0.4175  0.2688 -0.2728
16174TIP3    H170013   5.450   5.521  15.022  0.2547  1.5283  0.2998
16174TIP3    H270014   5.572   5.502  15.109  1.0320  0.4772 -1.0055
16175TIP3   OH270015   4.590   4.029   1.906 -0.2097 -0.1536  0.1063
16175TIP3    H170016   4.638   4.068   1.832 -2.2019  0.6350 -0.7933
16175TIP3    H270017   4.499   4.029   1.878 -0.7837 -1.3934  1.9203
16176TIP3   OH270018   5.186   3.778   5.616 -0.1085  0.4300  0.1175
16176TIP3    H170019   5.130   3.839   5.663 -0.7906 -0.7425  0.8557
16176TIP3    H270020   5.142   3.765   5.532 -0.3006  0.4608  0.2121
16177TIP3   OH270021   2.944   3.247   4.289 -0.2575 -0.0020 -0.1046
16177TIP3    H170022   3.014   3.310   4.306 -0.1043  0.2487 -1.5321
16177TIP3    H270023   2.948   3.233   4.194 -1.2769 -1.0074 -0.0115
16178TIP3   OH270024   5.148   5.871   0.668  0.1904 -0.5770  0.0068
16178TIP3    H170025   5.116   5.958   0.643 -0.2271 -0.9826 -0.8607
16178TIP3    H270026   5.243   5.877   0.655  0.2416 -0.0564  0.5575
16179TIP3   OH270027   3.766   4.545   5.605  0.3677  0.7889 -0.2798
16179TIP3    H170028   3.817   4.599   5.665  0.2253  1.1589 -0.4913
16179TIP3    H270029   3.675   4.556   5.634  0.1636  1.9242 -1.3044
16180TIP3   OH270030   5.269   3.333  12.464 -0.2112 -0.2796 -0.1383
16180TIP3    H170031   5.231   3.357  12.379 -2.5481  2.0566  1.4717
16180TIP3    H270032   5.204   3.274  12.502  0.3262 -0.4866  0.4497
16181TIP3   OH270033   5.976   4.738  15.464 -0.1974  0.2648 -0.4395
16181TIP3    H170034   5.928   4.814  15.432 -0.4170  1.0732  1.7209
16181TIP3    H270035   5.978   4.678  15.390 -2.4777  1.1975 -1.3050
16182TIP3   OH270036   2.964   1.332  14.705 -0.3401  0.3237 -0.2931
16182TIP3    H170037   3.010   1.318  14.787 -0.1010 -0.7459 -0.5904
16182TIP3    H270038   3.028   1.309  14.638 -0.4622  1.3942 -0.7817
16183TIP3   OH270039   0.309   0.685   5.251  0.3919  0.6133 -0.6716
16183TIP3    H170040   0.275   0.598   5.274  1.0269  0.8650  1.2543
16183TIP3    H270041   0.300   0.689   5.155 -2.6057 -0.3376 -0.4841
16184TIP3   OH270042   0.649   1.745   4.740  0.2904  0.2071  0.5314
16184TIP3    H170043   0.657   1.839   4.756 -1.3416  0.3312  0.6693
16184TIP3    H270044   0.656   1.705   4.827  1.7005  0.1358  0.3976
16185TIP3   OH270045   6.226   3.132  13.435 -0.0900  0.1102 -0.0284
16185TIP3    H170046   6.168   3.144  13.360  1.2459  0.8490 -0.9589
16185TIP3    H270047   6.172   3.088  13.501 -0.6997 -2.4657 -2.1716
16186TIP3   OH270048   0.130   1.576  14.670  0.0033 -0.4838  0.3820
16186TIP3    H170049   0.084   1.538  14.745  0.4844 -2.2047 -0.1908
16186TIP3    H270050   0.185   1.645  14.709 -3.5401  2.1674  0.9995
16187TIP3   OH270051   3.653   0.506   1.715 -0.7164 -0.3037 -0.2133
16187TIP3    H170052   3.666   0.457   1.796 -1.3631  1.1440  0.7790
16187TIP3    H270053   3.713   0.465   1.652  2.3959  0.7657  1.9415
16188TIP3   OH270054   0.994   4.604  15.580 -0.1105  0.2880 -0.3575
16188TIP3    H170055   1.059   4.559  15.526 -0.3671  0.9948 -1.2740
16188TIP3    H270056   1.027   4.694  15.587 -0.6423  0.4798 -0.2587
16189TIP3   OH270057   1.934   1.095   0.823  0.1030 -0.0203  0.3613
16189TIP3    H170058   1.881   1.038   0.879  0.3373 -0.2812  0.3162
16189TIP3    H270059   1.945   1.175   0.874  0.4933 -0.3368  0.7741
16190TIP3   OH270060   5.175   0.584   2.365  0.6468  0.0297  0.2863
16190TIP3    H170061   5.192   0.492   2.383 -2.3377 -0.3253  1.6563
16190TIP3    H270062   5.260   0.620   2.340  2.4992 -2.3826  2.7800
16191TIP3   OH270063   1.248   5.509   2.928 -0.6775  0.2619  0.3121
16191TIP3    H170064   1.188   5.495   3.002  0.9284 -0.0688  1.5950
16191TIP3    H270065   1.303   5.582   2.955  0.5493 -0.4780 -0.1388
16192TIP3   OH270066   0.086   2.587  16.999 -0.6208  0.1890  0.2983
16192TIP3    H170067   0.168   2.569  17.046 -0.5843 -0.9921 -0.1793
16192TIP3    H270068   0.018   2.544  17.051 -1.0264  1.6393  0.9884
16193TIP3   OH270069   5.143   1.535  10.917 -0.2127  0.2606  0.3016
16193TIP3    H170070   5.203   1.520  10.844 -0.2655  0.7118  0.1637
16193TIP3    H270071   5.056   1.540  10.877 -0.1331  1.5463  0.2611
16194TIP3   OH270072   0.850   6.086  17.229 -0.7371 -0.3454 -0.0600
16194TIP3    H170073   0.903   6.146  17.176 -0.3057 -0.4265  0.2739
16194TIP3    H270074   0.914   6.037  17.280 -1.1805  0.3935  1.2299
16195TIP3   OH270075   1.658   6.666   2.030  0.9357 -0.1880  0.3264
16195TIP3    H170076   1.580   6.645   2.082  1.8277 -0.5719  1.5219
16195TIP3    H270077   1.731   6.630   2.080  1.7258 -1.5763 -1.7671
16196TIP3   OH270078   1.156   1.178  15.179 -0.3960  0.1212  0.1844
16196TIP3    H170079   1.063   1.197  15.163 -0.7482 -0.2951  1.6221
16196TIP3    H270080   1.161   1.083  15.184  0.2238  0.1128 -0.4879
16197TIP3   OH270081   4.723   3.979   6.294  0.2305  0.1325  0.3066
16197TIP3    H170082   4.695   3.948   6.379 -1.7427  1.6366  0.2492
16197TIP3    H270083   4.724   4.075   6.302  0.6534  0.2776 -1.1552
16198TIP3   OH270084   5.854   5.521  14.817  0.1336 -0.3704  0.0675
16198TIP3    H170085   5.878   5.458  14.749  0.8847 -1.6400  1.4869
16198TIP3    H270086   5.770   5.557  14.787  0.6613 -0.5852 -1.7340
16199TIP3   OH270087   2.107   2.666   0.249 -0.0018 -0.0690 -0.0301
16199TIP3    H170088   2.103   2.646   0.156  1.6321  1.0450 -0.3717
16199TIP3    H270089   2.200   2.686   0.265 -0.5317  1.2856  1.5042
16200TIP3   OH270090   5.900   3.707  12.425  0.5876  0.6195 -0.5891
16200TIP3    H170091   5.825   3.763  12.444  0.7456  0.7005 -0.2042
16200TIP3    H270092   5.976   3.764  12.439  0.7172  0.5997 -1.1714
16201TIP3   OH270093   1.236   1.884   3.211 -0.5073  0.1961  0.2107
16201TIP3    H170094   1.214   1.838   3.292 -0.9778  1.5523  0.8513
16201TIP3    H270095   1.189   1.834   3.143  0.4999 -1.3927  0.6513
16202TIP3   OH270096   4.676   2.656  11.739  0.6351 -0.2258 -0.0847
16202TIP3    H170097   4.618   2.600  11.687  0.9589  0.1100 -0.8128
16202TIP3    H270098   4.704   2.724  11.679 -0.2256  1.0692  0.9651
16203TIP3   OH270099   6.216   1.920  16.929  0.2064 -0.0842 -0.1226
16203TIP3    H170100   6.209   1.930  17.024  1.2091 -2.1235  0.1981
16203TIP3    H270101   6.183   2.002  16.894 -1.5403  0.1459  1.9483
16204TIP3   OH270102   4.313   5.887  16.683  0.1875 -0.1059 -0.2963
16204TIP3    H170103   4.230   5.850  16.652  0.6573 -0.5359 -1.0651
16204TIP3    H270104   4.373   5.876  16.609  1.6574 -2.2507  1.1638
16205TIP3   OH270105   2.467   3.374   3.426  0.3528  0.3432  0.2274
16205TIP3    H170106   2.510   3.410   3.504 -0.7227  2.8892 -0.3083
16205TIP3    H270107   2.532   3.383   3.357  0.4667  0.2412  0.3196
16206TIP3   OH270108   0.313   2.623   1.588 -0.3940  0.3156  0.0387
16206TIP3    H170109   0.355   2.546   1.625 -2.1350 -0.2757  0.8330
16206TIP3    H270110   0.380   2.662   1.532  0.8440 -1.1893  0.4321
16207TIP3   OH270111   4.657   4.689  16.709 -0.4165  0.4175 -0.9267
16207TIP3    H170112   4.645   4.669  16.616 -3.2987 -0.1773 -0.4827
16207TIP3    H270113   4.575   4.662  16.750  0.0612  2.4534  1.5140
16208TIP3   OH270114   1.956   3.006   6.139  0.3991  0.2921 -0.0691
16208TIP3    H170115   1.902   3.070   6.186 -0.7175 -0.4574 -0.3059
16208TIP3    H270116   1.951   2.927   6.192 -0.4268 -0.3981 -1.1240
16209TIP3   OH270117   1.656   1.550  12.215  0.4666 -0.3602 -0.2522
16209TIP3    H170118   1.598   1.474  12.215  1.8043 -1.3962  0.1827
16209TIP3    H270119   1.678   1.564  12.123  0.5098 -0.7060 -0.2915
16210TIP3   OH270120   4.105   6.516   3.199 -0.2967  0.0328  0.4498
16210TIP3    H170121   4.173   6.579   3.224 -0.9207  1.3260 -0.9700
16210TIP3    H270122   4.108   6.449   3.266  1.1156  1.0428  1.4305
16211TIP3   OH270123   0.152   0.880   4.968  0.1401  0.3439  0.9678
16211TIP3    H170124   0.096   0.957   4.979  0.3877  0.7403 -0.4773
16211TIP3    H270125   0.241   0.915   4.965  0.3743 -0.1584  1.9243
16212TIP3   OH270126   1.016   4.979   5.065 -0.0059  1.0166  0.3173
16212TIP3    H170127   0.935   5.010   5.025  0.8113  0.3614 -1.8716
16212TIP3    H270128   1.055   4.921   5.000  3.3951  3.1696  0.3364
16213TIP3   OH270129   6.773   4.070  13.995  0.3494 -0.9670  0.2165
16213TIP3    H170130   6.692   4.065  13.944 -0.0843 -3.5943  1.1069
16213TIP3    H270131   6.744   4.088  14.085  0.8127 -0.9089  0.3555
16214TIP3   OH270132   0.115   6.696  16.830 -0.0916 -0.2850  0.0755
16214TIP3    H170133   0.193   6.734  16.870 -0.2595  0.3734 -0.1990
16214TIP3    H270134   0.140   6.607  16.808  0.2347 -0.4210  0.9702
16215TIP3   OH270135   0.740   0.694   2.869 -0.3108  0.6408  0.3968
16215TIP3    H170136   0.679   0.636   2.914  0.8882  0.4397  1.7900
16215TIP3    H270137   0.748   0.771   2.926  1.7866  0.0659  0.9369
16216TIP3   OH270138   4.251   2.542  15.018 -0.1197 -0.4323 -0.4081
16216TIP3    H170139   4.193   2.602  15.066 -1.4667 -1.4602 -0.7220
16216TIP3    H270140   4.332   2.543  15.068 -0.7806  0.1788  0.6784
16217TIP3   OH270141   3.270   3.730   2.217 -0.7208  0.3335 -0.3474
16217TIP3    H170142   3.363   3.748   2.203 -0.6053  0.3476  0.4426
16217TIP3    H270143   3.250   3.770   2.302 -1.6991  1.2656 -0.9981
16218TIP3   OH270144   1.703   0.130   2.428  0.7419 -0.0031 -0.6459
16218TIP3    H170145   1.780   0.092   2.470  0.7252  1.7773  1.0863
16218TIP3    H270146   1.736   0.166   2.346  1.5600 -0.1088 -0.3669
16219TIP3   OH270147   3.406   3.428  12.856 -0.1360  0.2691 -0.0692
16219TIP3    H170148   3.500   3.440  12.861  0.0668 -0.0199 -2.2831
16219TIP3    H270149   3.390   3.342  12.896  1.0053 -1.2115 -2.6365
16220TIP3   OH270150   1.727   1.170   5.407  0.2222 -0.6205 -0.1878
16220TIP3    H170151   1.739   1.137   5.318  0.5927 -1.5786  0.2116
16220TIP3    H270152   1.787   1.118   5.460 -0.8819 -0.8904  0.8132
16221TIP3   OH270153   2.146   5.900  13.625 -0.0294  0.1179 -0.4508
16221TIP3    H170154   2.226   5.935  13.587  0.3543  0.1973  0.4043
16221TIP3    H270155   2.094   5.978  13.647  0.8144  0.1876  1.4331
16222TIP3   OH270156   0.255   5.417  13.855 -0.1136 -0.2519  0.0805
16222TIP3    H170157   0.210   5.374  13.782 -0.6707  0.7608 -0.1820
16222TIP3    H270158   0.286   5.345  13.910 -1.1215 -0.9887 -0.3043
16223TIP3   OH270159   0.950   4.715   3.109 -0.0549  0.0640  0.2105
16223TIP3    H170160   0.855   4.714   3.103  0.0075  0.0886 -1.0060
16223TIP3    H270161   0.974   4.806   3.095  0.2863 -0.3940 -2.5227
16224TIP3   OH270162   3.757   5.795   3.233  0.1718 -0.0275  0.6859
16224TIP3    H170163   3.805   5.712   3.231 -1.9751 -1.3021 -1.5572
16224TIP3    H270164   3.800   5.849   3.166 -1.3831 -1.1568 -1.3013
16225TIP3   OH270165   6.250   6.420   6.237  0.1300 -0.0071 -0.2936
16225TIP3    H170166   6.219   6.455   6.320 -1.3752 -0.4850 -0.6470
16225TIP3    H270167   6.333   6.377   6.259 -0.4956 -0.5381  1.0496
16226TIP3   OH270168   3.592   4.916  11.004 -0.4346 -0.5545 -0.1937
16226TIP3    H170169   3.685   4.892  10.996  0.2730  1.7010  1.0189
16226TIP3    H270170   3.565   4.936  10.915  0.6302  0.1719 -0.3602
16227TIP3   OH270171   1.400   5.750   4.002  0.4411 -0.6501  0.1071
16227TIP3    H170172   1.454   5.729   4.078  1.9608 -0.0518 -0.7948
16227TIP3    H270173   1.338   5.677   3.996  1.9081 -1.9502  0.4527
16228TIP3   OH270174   2.765   4.331  16.428 -0.1096 -0.4095 -0.0232
16228TIP3    H170175   2.794   4.413  16.386  0.6308 -0.8115 -0.3164
16228TIP3    H270176   2.819   4.264  16.387 -0.3381 -0.9783  0.6112
16229TIP3   OH270177   2.933   5.514   0.628 -0.0447 -0.4061 -0.2380
16229TIP3    H170178   2.981   5.471   0.557 -0.8913 -0.1484 -0.9803
16229TIP3    H270179   2.995   5.579   0.662 -0.3116  0.8813 -2.0956
16230TIP3   OH270180   5.553   5.659   2.488 -0.3157 -0.7460 -0.2898
16230TIP3    H170181   5.616   5.593   2.517 -0.8070 -2.1442 -2.2762
16230TIP3    H270182   5.470   5.611   2.482 -0.8827  0.3037 -0.7785
16231TIP3   OH270183   2.795   5.121   4.939  0.0411 -0.3120  0.4072
16231TIP3    H170184   2.720   5.115   4.879  0.1576  0.0851  0.2189
16231TIP3    H270185   2.814   5.215   4.944  1.1901 -0.4963 -0.3600
16232TIP3   OH270186   6.774   2.022  16.194 -0.4497  0.2336  0.9279
16232TIP3    H170187   6.688   2.015  16.236 -0.9751 -0.6106 -0.2286
16232TIP3    H270188   6.826   1.952  16.234 -1.3854 -1.4951 -0.7545
16233TIP3   OH270189   0.615   2.643   3.954  0.1560  0.3979 -0.0036
16233TIP3    H170190   0.620   2.554   3.990 -0.5056 -0.0442 -0.9671
16233TIP3    H270191   0.695   2.686   3.985  0.6914 -0.6666  0.1286
16234TIP3   OH270192   0.370   5.011  11.497 -0.4332  0.1441  0.8651
16234TIP3    H170193   0.448   4.985  11.447 -0.9310  0.9783 -0.3588
16234TIP3    H270194   0.340   4.930  11.538 -0.7761 -0.8111 -1.2400
16235TIP3   OH270195   5.309   2.141   0.347  0.0429  0.5629  0.2009
16235TIP3    H170196   5.247   2.068   0.353  1.5749 -0.5476  3.4592
16235TIP3    H270197   5.356   2.124   0.265  0.3903 -2.1498  0.9077
16236TIP3   OH270198   3.886   4.812  17.257 -0.6357  0.1071  0.3756
16236TIP3    H170199   3.899   4.718  17.244 -0.4760 -0.0358  1.4756
16236TIP3    H270200   3.809   4.834  17.206 -2.9701 -1.4007  3.0912
16237TIP3   OH270201   2.989   1.874  12.663 -0.2577  0.0973 -0.0330
16237TIP3    H170202   3.038   1.912  12.590 -0.3835  0.1992 -0.0642
16237TIP3    H270203   2.907   1.844  12.624 -0.2148 -0.0877  0.0170
16238TIP3   OH270204   0.692   1.210  11.869 -0.1039 -0.0082  0.0193
16238TIP3    H170205   0.616   1.261  11.899  0.1807  0.7501 -0.5485
16238TIP3    H270206   0.757   1.275  11.843  0.6961 -0.6535  0.3578
16239TIP3   OH270207   6.330   6.099   5.725 -0.2459  0.5552 -0.0235
16239TIP3    H170208   6.422   6.096   5.751 -0.2643  2.1228  0.2889
16239TIP3    H270209   6.332   6.087   5.630  0.2916  0.7670 -0.0437
16240TIP3   OH270210   1.699   5.686  12.359  0.2562 -0.2478 -0.1572
16240TIP3    H170211   1.646   5.734  12.295 -0.7319  0.8352  1.4275
16240TIP3    H270212   1.638   5.664  12.429  1.0791 -2.3826 -0.0882
16241TIP3   OH270213   5.234   2.780  13.862 -0.2747  0.1716 -0.4638
16241TIP3    H170214   5.270   2.869  13.872  0.6952 -0.4611  2.1407
16241TIP3    H270215   5.167   2.789  13.795  2.0355  2.2233 -2.6063
16242TIP3   OH270216   2.856   6.161   4.445 -0.5195  0.5417 -0.8638
16242TIP3    H170217   2.812   6.240   4.414  0.3712  0.7902 -1.5145
16242TIP3    H270218   2.796   6.090   4.425  0.2181  0.6378 -3.6108
16243TIP3   OH270219   1.562   4.893   2.120  0.6560 -0.4372 -0.8442
16243TIP3    H170220   1.566   4.871   2.213  0.7193  0.7458 -0.5599
16243TIP3    H270221   1.468   4.899   2.101  0.6351  1.8243 -0.2276
16244TIP3   OH270222   6.784   6.206   4.686 -0.0227  0.3724  0.5795
16244TIP3    H170223   6.745   6.149   4.753 -1.4013  1.1456  0.4396
16244TIP3    H270224   6.845   6.261   4.735  0.9145 -0.8335  0.8004
16245TIP3   OH270225   1.114   0.307  16.776 -0.2054 -0.6525  0.7495
16245TIP3    H170226   1.186   0.371  16.779 -2.9182  2.7077 -1.8003
16245TIP3    H270227   1.044   0.346  16.829 -1.5701 -2.0055 -0.0099
16246TIP3   OH270228   5.829   5.470   5.697  0.8581  0.4726 -0.2465
16246TIP3    H170229   5.924   5.477   5.706  0.6934  2.0214  0.7159
16246TIP3    H270230   5.797   5.478   5.787 -0.1423 -0.7808 -0.4934
16247TIP3   OH270231   2.608   0.816   6.041 -0.5554  0.4734  0.1964
16247TIP3    H170232   2.663   0.867   6.100 -1.8396 -0.7510  2.5410
16247TIP3    H270233   2.533   0.873   6.023  0.2283  1.1580 -0.9110
16248TIP3   OH270234   3.349   1.738   0.410 -0.1574 -0.1553 -0.1361
16248TIP3    H170235   3.270   1.687   0.429 -0.3577  0.0083 -0.5298
16248TIP3    H270236   3.389   1.693   0.336 -0.9194  0.8986 -1.1975
16249TIP3   OH270237   3.679   5.686  13.339 -0.4667  0.1119 -0.3040
16249TIP3    H170238   3.721   5.615  13.289 -2.2348 -1.7091  0.7374
16249TIP3    H270239   3.624   5.731  13.275  0.4574  0.3883 -0.9127
16250TIP3   OH270240   2.945   3.862   3.073  0.1007 -0.1449 -0.2442
16250TIP3    H170241   2.866   3.877   3.022 -0.2428 -0.9337  0.0500
16250TIP3    H270242   3.016   3.895   3.018 -0.2154 -1.4145 -1.4616
16251TIP3   OH270243   5.266   3.804   4.791 -0.2126  0.4050 -0.1072
16251TIP3    H170244   5.279   3.810   4.886 -1.1276 -0.4552  0.0698
16251TIP3    H270245   5.174   3.828   4.778 -0.1282  0.3665 -0.7658
16252TIP3   OH270246   4.580   2.623   1.267  0.1497  0.2370 -0.0982
16252TIP3    H170247   4.517   2.692   1.287 -0.2415 -0.1001 -0.1651
16252TIP3    H270248   4.612   2.644   1.179 -2.0875 -1.2438 -1.2984
16253TIP3   OH270249   3.204   2.726   1.001  0.2782 -0.3583 -0.0950
16253TIP3    H170250   3.146   2.666   1.047  0.8255 -0.9914 -0.2295
16253TIP3    H270251   3.146   2.777   0.945 -0.3738  0.3060  1.1569
16254TIP3   OH270252   4.892   0.987   3.237  0.0185  0.4921 -0.0225
16254TIP3    H170253   4.827   0.922   3.264 -0.9329  1.2735 -0.4071
16254TIP3    H270254   4.945   0.943   3.171  0.9471 -0.6962  1.4755
16255TIP3   OH270255   4.815   3.339  12.806 -0.0494  0.3737 -0.0305
16255TIP3    H170256   4.857   3.389  12.876  0.5798 -0.4420  0.1964
16255TIP3    H270257   4.740   3.391  12.780  0.6924  1.5110  0.0761
16256TIP3   OH270258   4.837   0.884  17.241 -0.0013 -0.4056  0.0347
16256TIP3    H170259   4.781   0.859  17.168 -1.0750  1.6835  0.0964
16256TIP3    H270260   4.925   0.855  17.214 -0.7631 -1.8592 -0.9764
16257TIP3   OH270261   6.705   2.330  13.001  0.2915 -0.1016 -0.7921
16257TIP3    H170262   6.746   2.274  13.066 -2.6520 -0.6962  0.6227
16257TIP3    H270263   6.694   2.415  13.045 -2.5022 -0.7524 -0.1150
16258TIP3   OH270264   3.153   5.157   5.696  0.0257  0.3693 -0.4982
16258TIP3    H170265   3.098   5.214   5.749  2.1971  2.7829 -0.6947
16258TIP3    H270266   3.240   5.196   5.702  1.2806 -2.0713 -1.9483
16259TIP3   OH270267   0.896   2.581   1.135  0.5688  0.2869 -0.3928
16259TIP3    H170268   0.858   2.621   1.057 -1.4837 -1.9872 -0.6254
16259TIP3    H270269   0.935   2.499   1.103  0.5765 -0.1881  0.7998
16260TIP3   OH270270   2.287   5.427   0.753 -0.3384  0.3699 -0.3755
16260TIP3    H170271   2.206   5.388   0.721 -0.6088  1.1503 -0.6565
16260TIP3    H270272   2.259   5.507   0.798  0.2417  0.4519 -0.1564
16261TIP3   OH270273   1.653   3.693   0.773 -0.2901  0.0005 -0.0354
16261TIP3    H170274   1.729   3.655   0.731 -0.9422 -0.2046 -1.0439
16261TIP3    H270275   1.619   3.623   0.830  0.6679  0.3247  0.9530
16262TIP3   OH270276   4.491   0.397   2.484  0.0882  0.4424 -0.6417
16262TIP3    H170277   4.434   0.473   2.480  0.0003  0.3108 -1.9173
16262TIP3    H270278   4.503   0.370   2.393  0.5722 -0.7287 -0.2466
16263TIP3   OH270279   5.553   5.917  16.089 -0.2151  0.4646  0.1393
16263TIP3    H170280   5.623   5.888  16.147 -0.0810 -0.9841 -0.7153
16263TIP3    H270281   5.562   6.012  16.086  0.2483  0.4820  1.8742
16264TIP3   OH270282   3.348   4.672   0.542  0.3034 -0.3903 -0.1819
16264TIP3    H170283   3.380   4.689   0.630 -0.6914  0.2413  0.0632
16264TIP3    H270284   3.400   4.730   0.486  0.6745 -0.5232  0.0171
16265TIP3   OH270285   1.167   1.202  11.095 -0.2677 -0.5726  0.0236
16265TIP3    H170286   1.197   1.133  11.153  1.3152  0.5858  0.6086
16265TIP3    H270287   1.079   1.223  11.126  0.2314 -0.5623  1.4575
16266TIP3   OH270288   5.688   3.923   4.584 -0.2721  0.2670  0.1496
16266TIP3    H170289   5.664   3.856   4.647 -0.3574  0.3198  0.1732
16266TIP3    H270290   5.611   3.931   4.527 -1.0508  1.8039  1.3921
16267TIP3   OH270291   6.277   1.161   0.930 -0.1889  0.5997 -0.2344
16267TIP3    H170292   6.328   1.239   0.953 -0.1965  0.4657  0.2359
16267TIP3    H270293   6.288   1.152   0.835  0.7395  0.5105 -0.1151
16268TIP3   OH270294   5.775   6.820  12.517 -0.0807 -0.8454 -0.4149
16268TIP3    H170295   5.849   6.880  12.528 -0.8642  0.0450  0.0039
16268TIP3    H270296   5.744   6.837  12.428 -1.2283  0.4066  0.2340
16269TIP3   OH270297   1.420   1.163  15.704  0.2461 -0.2097  1.0775
16269TIP3    H170298   1.345   1.219  15.727  0.5693  0.3091  0.8698
16269TIP3    H270299   1.447   1.125  15.787 -1.1782 -1.5688  0.9527
16270TIP3   OH270300   5.874   6.482  11.390  0.0024  0.3818 -0.2408
16270TIP3    H170301   5.856   6.565  11.434  0.2768 -0.1320  0.8491
16270TIP3    H270302   5.816   6.483  11.314 -1.7909  0.4836  1.0912
16271TIP3   OH270303   3.429   6.594  10.854 -0.0625 -0.8758 -0.3229
16271TIP3    H170304   3.394   6.510  10.826  0.6743 -1.7985  1.4623
16271TIP3    H270305   3.448   6.640  10.773  0.2395 -2.7273 -1.3316
16272TIP3   OH270306   1.830   0.586  13.457  0.2505  0.6481 -0.2840
16272TIP3    H170307   1.880   0.505  13.448  2.1944  1.7096  0.6544
16272TIP3    H270308   1.891   0.655  13.428 -1.1106  1.8512 -0.3484
16273TIP3   OH270309   6.556   0.896  14.823  0.3480  0.3021 -0.1286
16273TIP3    H170310   6.464   0.909  14.800  0.1124  3.0327  2.1210
16273TIP3    H270311   6.556   0.889  14.918  2.4852  0.3024 -0.1053
16274TIP3   OH270312   5.668   4.905  13.789 -0.3247  0.1787  0.0670
16274TIP3    H170313   5.753   4.866  13.808 -0.4242 -0.6303 -1.0772
16274TIP3    H270314   5.675   4.996  13.818  0.0283 -0.5789  2.4914
16275TIP3   OH270315   3.155   5.096  12.105 -0.4954 -0.1081 -0.3532
16275TIP3    H170316   3.219   5.091  12.176 -0.9024 -1.9960 -0.0971
16275TIP3    H270317   3.078   5.136  12.144 -0.0316  0.6894 -0.2487
16276TIP3   OH270318   3.857   2.566   2.212 -0.5345 -0.0709 -0.2150
16276TIP3    H170319   3.803   2.572   2.291 -1.1616  0.5962 -0.6775
16276TIP3    H270320   3.902   2.651   2.208  1.7615 -1.2033  1.0059
16277TIP3   OH270321   5.654   0.737   2.664  0.0067 -0.2245  0.9264
16277TIP3    H170322   5.594   0.779   2.603  1.1183 -0.3493 -0.2777
16277TIP3    H270323   5.629   0.644   2.662 -0.2400 -0.1602  0.9951
16278TIP3   OH270324   2.545   0.157   4.119 -0.0040 -0.0304  0.1533
16278TIP3    H170325   2.456   0.159   4.152 -0.4047 -0.3010 -0.8944
16278TIP3    H270326   2.539   0.114   4.034  1.2237 -0.6708  0.3706
16279TIP3   OH270327   3.850   4.851  10.993 -0.0425  0.1029  0.4114
16279TIP3    H170328   3.930   4.899  11.017  0.6439  0.2725 -2.1073
16279TIP3    H270329   3.852   4.773  11.047  0.7159  1.1377  1.9318
16280TIP3   OH270330   4.487   6.125  16.692 -0.4480 -0.4726 -0.1710
16280TIP3    H170331   4.415   6.062  16.687  0.4607 -1.3777 -3.0197
16280TIP3    H270332   4.564   6.074  16.667  0.5547  1.3786 -0.9192
16281TIP3   OH270333   2.861   2.395   4.407  0.3780  0.2929 -0.3218
16281TIP3    H170334   2.772   2.419   4.432  0.1946  0.8696 -1.5053
16281TIP3    H270335   2.850   2.333   4.336  0.9170 -0.2199  0.0362
16282TIP3   OH270336   3.822   5.996   1.683 -0.8765 -0.0501 -0.4718
16282TIP3    H170337   3.750   6.024   1.740  1.7544  0.8059  2.5825
16282TIP3    H270338   3.813   5.901   1.677 -1.9780 -0.0004  0.2938
16283TIP3   OH270339   1.129   2.552   3.095 -0.2676  0.0494 -0.6260
16283TIP3    H170340   1.193   2.598   3.150 -0.9706  0.2192  0.0516
16283TIP3    H270341   1.177   2.476   3.062  0.6933  0.8811 -1.1875
16284TIP3   OH270342   2.628   6.115   2.628  0.1374 -0.1184  0.2039
16284TIP3    H170343   2.541   6.146   2.652 -0.0447  0.0108 -0.5985
16284TIP3    H270344   2.681   6.194   2.622 -0.4387  0.1275 -2.2961
16285TIP3   OH270345   2.592   4.375   2.171  0.0801  0.2548 -0.0649
16285TIP3    H170346   2.608   4.281   2.177  0.2643  0.3243  0.5718
16285TIP3    H270347   2.675   4.411   2.139  0.4010  0.3333  0.8438
16286TIP3   OH270348   3.919   6.655   1.010 -0.3806 -0.0762 -0.2279
16286TIP3    H170349   3.913   6.747   1.038  3.0044  0.2393 -0.3613
16286TIP3    H270350   3.986   6.617   1.067  2.7105 -0.8575 -4.1516
16287TIP3   OH270351   6.569   6.553   6.462  0.3893  0.4995  0.0444
16287TIP3    H170352   6.633   6.573   6.530 -0.9618 -2.0901  2.1845
16287TIP3    H270353   6.489   6.597   6.491 -0.9647 -2.8892  1.7039
16288TIP3   OH270354   3.724   3.011   2.969  0.6747 -0.3894 -0.3042
16288TIP3    H170355   3.660   3.023   3.039  1.3466 -0.6107  0.3542
16288TIP3    H270356   3.671   3.002   2.889 -0.0543  0.6940  0.0509
16289TIP3   OH270357   1.908   5.450   0.516 -0.5297  0.6418 -0.8102
16289TIP3    H170358   1.845   5.501   0.567 -0.3999  0.0288 -0.0315
16289TIP3    H270359   1.886   5.359   0.534 -0.2726  0.4175 -1.6006
16290TIP3   OH270360   6.350   2.573  11.813  0.4069 -0.6127  0.2513
16290TIP3    H170361   6.377   2.660  11.843  0.4272 -0.6843  0.4444
16290TIP3    H270362   6.432   2.527  11.798  0.4305 -0.0174 -1.5979
16291TIP3   OH270363   1.057   2.482   0.623  0.2434  0.0303  0.1223
16291TIP3    H170364   0.981   2.504   0.676  1.5485  0.4232  1.8630
16291TIP3    H270365   1.020   2.456   0.538 -1.8638 -0.5609  1.1844
16292TIP3   OH270366   1.005   0.703  12.521  0.2203 -0.3623 -0.3445
16292TIP3    H170367   0.994   0.792  12.555  2.3104  0.4002 -1.5640
16292TIP3    H270368   0.954   0.703  12.440 -0.5482 -0.5688  0.1377
16293TIP3   OH270369   0.782   6.635   1.745  0.4127 -0.3107 -0.0840
16293TIP3    H170370   0.810   6.628   1.836 -0.3847  0.5217  0.2349
16293TIP3    H270371   0.736   6.553   1.727  0.5748 -0.4759  0.2567
16294TIP3   OH270372   4.629   2.358  15.514 -0.0469  0.1211 -0.3663
16294TIP3    H170373   4.619   2.283  15.571 -0.2024 -0.6343 -1.3734
16294TIP3    H270374   4.646   2.432  15.573  1.3731 -0.9245  0.5629
16295TIP3   OH270375   3.696   1.266   5.855  0.4362 -0.4949  0.1269
16295TIP3    H170376   3.649   1.208   5.796  1.4609 -0.3431 -0.8457
16295TIP3    H270377   3.774   1.217   5.881  1.7705  0.7262 -1.3967
16296TIP3   OH270378   1.104   2.116   1.843 -0.2467 -0.2907 -0.1265
16296TIP3    H170379   1.067   2.202   1.820  0.5793  0.1418  0.1366
16296TIP3    H270380   1.145   2.086   1.761 -0.1800 -0.2401 -0.1127
16297TIP3   OH270381   6.475   6.093   2.701  0.4855 -0.5200  0.4226
16297TIP3    H170382   6.524   6.175   2.704 -0.8303  0.3940 -2.0419
16297TIP3    H270383   6.542   6.026   2.690  1.3273  0.5888 -1.4464
16298TIP3   OH270384   3.595   4.568  11.228  0.2127  0.5212  0.2123
16298TIP3    H170385   3.573   4.544  11.318 -0.4900 -0.1510 -0.1320
16298TIP3    H270386   3.589   4.663  11.226 -0.9727  0.4574  0.5746
16299TIP3   OH270387   0.504   1.511   1.936 -0.0407  0.6973  0.1197
16299TIP3    H170388   0.472   1.531   2.024 -1.2718  2.5187 -0.7126
16299TIP3    H270389   0.586   1.560   1.929 -0.0496  0.7225  0.1874
16300TIP3   OH270390   0.801   2.199  11.929 -0.6484  0.6903  0.4658
16300TIP3    H170391   0.864   2.235  11.991  0.4052  0.8882 -0.7079
16300TIP3    H270392   0.814   2.105  11.933 -1.2784  0.6301  1.2729
16301TIP3   OH270393   6.145   2.888  14.369 -0.2733  0.0909 -0.3250
16301TIP3    H170394   6.088   2.853  14.301  0.0328 -0.9082 -0.0724
16301TIP3    H270395   6.208   2.818  14.387 -1.7079 -0.5546  2.5511
16302TIP3   OH270396   3.339   6.781   2.188 -0.4763  0.3478  0.5405
16302TIP3    H170397   3.399   6.733   2.245 -0.2382  0.2925  0.2419
16302TIP3    H270398   3.375   6.770   2.100 -0.1294  1.5277  0.5320
16303TIP3   OH270399   0.890   2.910   5.750  0.2620  0.1779  0.4249
16303TIP3    H170400   0.970   2.876   5.791  1.2839  0.6844 -1.1099
16303TIP3    H270401   0.871   2.990   5.798  0.9552  0.3084  0.4856
16304TIP3   OH270402   2.587   6.485  14.234  0.2027  0.5586 -0.4823
16304TIP3    H170403   2.627   6.561  14.193  0.3737  1.0693  0.6190
16304TIP3    H270404   2.577   6.510  14.326  1.2087 -1.1326  0.1036
16305TIP3   OH270405   4.313   0.919   0.397 -0.0368 -0.2816  0.0771
16305TIP3    H170406   4.291   1.003   0.436  0.6277 -0.0970  0.0528
16305TIP3    H270407   4.343   0.940   0.309  0.4396 -0.5154  0.1831
16306TIP3   OH270408   0.079   1.969  11.591 -0.5644 -0.1876  0.5244
16306TIP3    H170409   0.010   2.022  11.551  0.1665  0.7565  0.4939
16306TIP3    H270410   0.105   2.018  11.669 -0.1451 -0.6959  0.7104
16307TIP3   OH270411   4.912   0.214   3.517  0.1323  0.4228 -0.3812
16307TIP3    H170412   4.980   0.240   3.579 -0.1944  0.8324 -0.1928
16307TIP3    H270413   4.847   0.284   3.522 -0.7454 -0.4112  0.1233
16308TIP3   OH270414   1.256   0.887   0.509 -0.0201  0.8331  0.3770
16308TIP3    H170415   1.202   0.945   0.455  1.2322  2.1734  0.5323
16308TIP3    H270416   1.193   0.839   0.563 -1.1957  0.5749 -1.1858
16309TIP3   OH270417   3.511   2.185   0.724 -0.3840 -0.3732 -0.2731
16309TIP3    H170418   3.426   2.142   0.713 -0.1634 -0.7477 -0.5109
16309TIP3    H270419   3.561   2.159   0.647 -0.2831  0.3910 -0.4672
16310TIP3   OH270420   3.406   0.840  12.582 -0.4861 -0.4457 -0.6435
16310TIP3    H170421   3.378   0.788  12.507 -0.4819 -0.9777 -0.2737
16310TIP3    H270422   3.464   0.782  12.632  2.0617  0.9343 -1.8865
16311TIP3   OH270423   0.403   3.888  11.359 -0.0434  0.6644 -0.1672
16311TIP3    H170424   0.346   3.914  11.431  0.0962 -2.3758  1.1298
16311TIP3    H270425   0.345   3.886  11.282 -2.2446 -3.8873  1.4015
16312TIP3   OH270426   2.516   1.298  12.065 -0.2956 -0.3877  0.0810
16312TIP3    H170427   2.463   1.221  12.089 -0.6469 -0.0899  0.2595
16312TIP3    H270428   2.551   1.330  12.148 -0.0195 -0.4477 -0.0113
16313TIP3   OH270429   1.070   4.821  17.002  0.8113 -0.7127 -0.1390
16313TIP3    H170430   1.165   4.822  17.018  0.6844 -1.3296  0.7180
16313TIP3    H270431   1.054   4.740  16.955  0.6003 -1.0542  0.5056
16314TIP3   OH270432   4.347   6.689  13.267  0.0335 -0.1786  0.7000
16314TIP3    H170433   4.253   6.699  13.250  0.0916  1.2761  1.1198
16314TIP3    H270434   4.364   6.596  13.255 -0.9065 -0.0361 -2.1409
16315TIP3   OH270435   3.931   4.623   3.032 -0.0911  0.7003  0.1763
16315TIP3    H170436   3.991   4.553   3.006 -0.4885  0.6522 -0.6555
16315TIP3    H270437   3.844   4.585   3.020 -0.2937  0.7124  1.5236
16316TIP3   OH270438   3.487   4.518   2.121 -0.0557 -0.2303  0.3949
16316TIP3    H170439   3.519   4.577   2.189  0.4550  3.0807 -2.5834
16316TIP3    H270440   3.392   4.517   2.134  0.1731 -1.0288  2.1895
16317TIP3   OH270441   4.819   4.203   5.576 -0.3175 -0.2510 -0.3705
16317TIP3    H170442   4.902   4.212   5.623 -1.5585  1.4451  1.6026
16317TIP3    H270443   4.759   4.166   5.641 -1.6604  0.6304 -1.0954
16318TIP3   OH270444   0.948   3.233  11.210  0.0317  0.7596  0.7915
16318TIP3    H170445   1.029   3.257  11.256  0.0796  0.7408  0.7194
16318TIP3    H270446   0.959   3.269  11.122 -0.0104  0.6976  0.7613
16319TIP3   OH270447   1.906   2.212  13.996  0.2898  0.9279  0.1023
16319TIP3    H170448   1.884   2.192  14.087  0.8801 -0.4168 -0.0408
16319TIP3    H270449   1.940   2.302  13.999  1.3983  0.4923  1.4085
16320TIP3   OH270450   6.503   5.884   4.360 -0.0991  0.1913 -0.0715
16320TIP3    H170451   6.564   5.891   4.287  0.1045 -0.0616  0.0716
16320TIP3    H270452   6.488   5.974   4.388  0.2745  0.2516 -0.0562
16321TIP3   OH270453   4.056   0.182   2.464  0.6498  0.6031 -0.3827
16321TIP3    H170454   4.106   0.234   2.401  1.5936 -0.4112 -0.4879
16321TIP3    H270455   4.112   0.177   2.541  0.9232 -0.9067 -0.6579
16322TIP3   OH270456   5.535   4.852   4.706  0.3043 -0.4290  0.3435
16322TIP3    H170457   5.558   4.902   4.628 -1.2689 -0.6328 -0.2747
16322TIP3    H270458   5.619   4.830   4.747  1.1007  0.4021 -0.8337
16323TIP3   OH270459   3.634   1.970  12.131  0.1878  0.2418 -0.6683
16323TIP3    H170460   3.634   1.876  12.113  2.5541 -0.0386  0.5317
16323TIP3    H270461   3.558   2.004  12.084 -0.7494 -2.2784 -1.0476
16324TIP3   OH270462   6.605   3.828  13.101 -0.7658  0.2712  0.0177
16324TIP3    H170463   6.510   3.837  13.114 -0.6368 -1.3475  2.4187
16324TIP3    H270464   6.643   3.881  13.171  0.1258  1.2784 -1.2134
16325TIP3   OH270465   6.481   2.189  15.974 -0.1173 -0.0187  0.0694
16325TIP3    H170466   6.421   2.137  16.027  0.0933 -1.1836 -0.8034
16325TIP3    H270467   6.520   2.125  15.913  1.2453  0.8958 -0.0366
16326TIP3   OH270468   5.233   2.582  15.050  0.1133 -0.1024  0.0323
16326TIP3    H170469   5.220   2.619  15.137 -1.7318 -1.1044  0.2117
16326TIP3    H270470   5.198   2.648  14.990 -0.0103 -0.0642  0.1462
16327TIP3   OH270471   4.682   2.846   4.171 -0.4504  0.2658  0.0397
16327TIP3    H170472   4.667   2.802   4.255 -0.7920  0.3715  0.0326
16327TIP3    H270473   4.776   2.834   4.155 -0.8080 -1.7279 -0.6839
16328TIP3   OH270474   4.241   3.635  14.943  0.2477  0.6892  0.1348
16328TIP3    H170475   4.196   3.715  14.970 -1.1047 -0.3076  0.9305
16328TIP3    H270476   4.248   3.642  14.848 -2.1188  0.6148 -0.0767
16329TIP3   OH270477   6.216   1.939  17.195 -0.1096  0.1198  0.6495
16329TIP3    H170478   6.207   1.844  17.204  0.7213 -0.0071  0.1737
16329TIP3    H270479   6.144   1.974  17.247  0.7295 -0.7235  2.4250
16330TIP3   OH270480   3.990   5.844   2.403 -0.0124  0.6546 -0.5967
16330TIP3    H170481   3.907   5.875   2.368  0.3110  0.2793 -1.7257
16330TIP3    H270482   3.986   5.749   2.394  0.8899  0.6894 -1.4849
16331TIP3   OH270483   4.359   0.286  13.401 -0.1404 -0.4416 -0.5791
16331TIP3    H170484   4.439   0.268  13.351  0.6904  1.2918  0.0748
16331TIP3    H270485   4.352   0.211  13.461  1.2114 -0.4570 -0.4064
16332TIP3   OH270486   0.898   6.217  11.484 -0.0587 -0.1223  0.8367
16332TIP3    H170487   0.879   6.230  11.391  0.9170 -0.9064  0.5252
16332TIP3    H270488   0.993   6.210  11.488  0.0174  1.3759  2.0899
16333TIP3   OH270489   4.270   6.746   6.484  0.4945  0.3466 -0.0569
16333TIP3    H170490   4.250   6.779   6.571 -2.0778 -0.5089 -0.2645
16333TIP3    H270491   4.327   6.671   6.498  0.5553  0.5666  0.8568
16334TIP3   OH270492   1.097   6.085  13.706  0.8650 -0.1334  0.1640
16334TIP3    H170493   1.113   6.021  13.776  1.2006  0.2298  0.4177
16334TIP3    H270494   1.010   6.121  13.726 -0.7617 -2.7965 -1.7417
16335TIP3   OH270495   0.427   4.517   3.354  0.1588  0.2296 -0.2558
16335TIP3    H170496   0.498   4.488   3.297  1.1513 -0.6353  1.3734
16335TIP3    H270497   0.470   4.569   3.422 -0.7079 -0.6188  0.9639
16336TIP3   OH270498   5.476   2.057  16.786  0.3438  0.6595  0.1014
16336TIP3    H170499   5.487   2.041  16.880 -0.3313  1.1991  0.2681
16336TIP3    H270500   5.563   2.041  16.749  0.0619 -2.0496  0.4565
16337TIP3   OH270501   1.543   1.187  14.444  0.6591 -0.0355  0.0207
16337TIP3    H170502   1.622   1.199  14.391  0.8831  1.3764  0.6462
16337TIP3    H270503   1.548   1.097  14.475  2.5930  0.3597  0.9535
16338TIP3   OH270504   2.202   3.803   6.196  0.7622  0.0423 -0.2493
16338TIP3    H170505   2.288   3.839   6.218  1.3300 -0.9957 -0.7505
16338TIP3    H270506   2.198   3.720   6.244 -1.1237  1.3948  2.0625
16339TIP3   OH270507   0.106   6.522  17.135 -0.1551  0.0685  0.2624
16339TIP3    H170508   0.059   6.500  17.215  0.3664  0.6076  0.7270
16339TIP3    H270509   0.079   6.612  17.115  2.3015  1.2102  1.7667
16340TIP3   OH270510   2.618   0.445  13.526 -0.1110  0.2422 -0.0167
16340TIP3    H170511   2.628   0.538  13.547 -1.7002  0.1793  1.1319
16340TIP3    H270512   2.673   0.400  13.590 -0.3949  0.3372  0.2976
16341TIP3   OH270513   5.695   6.751   4.677 -0.5747 -0.0058  0.2796
16341TIP3    H170514   5.666   6.781   4.763  0.4522  2.4929 -0.2063
16341TIP3    H270515   5.780   6.709   4.694  0.1984  1.5535  0.3460
16342TIP3   OH270516   6.361   3.107   5.051 -0.3093 -0.4270  0.8040
16342TIP3    H170517   6.306   3.106   5.129  1.6056  0.5419  2.2348
16342TIP3    H270518   6.390   3.198   5.044 -1.8032 -0.1148 -2.0587
16343TIP3   OH270519   3.283   1.492   6.561 -0.2994  0.1127 -0.2804
16343TIP3    H170520   3.214   1.458   6.504  0.6953  0.4743 -1.7086
16343TIP3    H270521   3.270   1.587   6.561 -0.7009  0.0596  0.6226
16344TIP3   OH270522   1.945   1.815   5.065 -0.0301  0.2599  0.4167
16344TIP3    H170523   1.867   1.788   5.017  1.0313 -1.2911 -0.5093
16344TIP3    H270524   1.938   1.773   5.150 -0.4672  0.5755  0.5354
16345TIP3   OH270525   1.069   3.863  12.679 -0.2527  0.0439  0.0996
16345TIP3    H170526   1.050   3.769  12.680  0.6896 -0.1474  0.4593
16345TIP3    H270527   1.102   3.882  12.766  0.5095  0.5062 -0.2875
16346TIP3   OH270528   0.403   4.990   3.475  0.2884 -0.6147 -0.1545
16346TIP3    H170529   0.465   4.932   3.519  0.9611 -0.8929 -1.4277
16346TIP3    H270530   0.456   5.064   3.446 -0.0552 -0.6309 -0.8483
16347TIP3   OH270531   2.719   6.495  12.888 -0.2584  0.4549 -0.0683
16347TIP3    H170532   2.763   6.412  12.870 -0.5284  0.3819 -0.3821
16347TIP3    H270533   2.760   6.557  12.829 -2.1547 -0.0887 -2.0025
16348TIP3   OH270534   2.511   2.226  15.526 -0.2296 -0.2427 -0.3005
16348TIP3    H170535   2.477   2.233  15.438  2.4128  0.9561 -1.2829
16348TIP3    H270536   2.606   2.234  15.516 -0.0054  2.2004  2.8733
16349TIP3   OH270537   0.930   5.513  11.713  0.0747 -0.8371  0.1547
16349TIP3    H170538   0.836   5.499  11.699  0.1540  0.2760 -1.5016
16349TIP3    H270539   0.962   5.549  11.631  1.9125 -0.9457  0.8070
16350TIP3   OH270540   5.885   3.860   0.500 -0.8875  0.1494 -0.5668
16350TIP3    H170541   5.942   3.896   0.432  0.0925  1.0077  0.6802
16350TIP3    H270542   5.797   3.890   0.476 -0.3453  1.7797 -0.6065
16351TIP3   OH270543   3.203   2.246   0.449  0.0336 -0.7645 -0.6833
16351TIP3    H170544   3.266   2.317   0.429 -0.4999  0.0381  0.4181
16351TIP3    H270545   3.119   2.291   0.457 -0.1219 -1.3436  1.1908
16352TIP3   OH270546   2.618   0.463  13.054  0.1831  0.0198 -0.6725
16352TIP3    H170547   2.565   0.500  13.125 -1.0576 -0.7696 -1.1552
16352TIP3    H270548   2.708   0.469  13.085 -0.2639  0.5674  0.5615
16353TIP3   OH270549   3.952   4.916  14.060 -1.0944  0.0900 -0.3017
16353TIP3    H170550   3.978   4.902  14.151  0.7808 -0.9976 -0.9874
16353TIP3    H270551   3.976   4.835  14.015  0.6521  1.7114 -2.3387
16354TIP3   OH270552   0.763   5.134   5.395  0.1391 -0.0825 -0.5886
16354TIP3    H170553   0.791   5.210   5.344  2.9110 -0.0937  0.7960
16354TIP3    H270554   0.834   5.071   5.385  0.2069 -0.5527  2.2316
16355TIP3   OH270555   4.948   0.387  17.059 -0.0452 -0.4446 -0.7109
16355TIP3    H170556   5.043   0.404  17.056  0.2027 -1.5321  0.4655
16355TIP3    H270557   4.941   0.292  17.050 -1.1163 -0.2475 -2.1320
16356TIP3   OH270558   5.381   1.813   3.726  0.2257 -0.1187  0.0799
16356TIP3    H170559   5.464   1.859   3.741 -0.0633  0.1129  0.9822
16356TIP3    H270560   5.384   1.789   3.633  1.3314 -0.1675  0.1174
16357TIP3   OH270561   3.372   0.442  15.464 -0.0934 -0.8473 -0.0380
16357TIP3    H170562   3.351   0.452  15.557  0.9737  2.5617 -0.0988
16357TIP3    H270563   3.288   0.426  15.422 -0.9148  0.0677  1.2237
16358TIP3   OH270564   3.910   1.196   4.600 -0.1412 -0.2915  0.7504
16358TIP3    H170565   3.994   1.238   4.581 -0.2299 -1.2709 -2.0335
16358TIP3    H270566   3.847   1.245   4.546 -1.2365 -0.0827  2.1968
16359TIP3   OH270567   6.400   3.421   5.315  0.3557  0.9077 -0.0918
16359TIP3    H170568   6.446   3.434   5.398 -0.2248  1.8706  0.0849
16359TIP3    H270569   6.333   3.356   5.334  0.4946  0.8201  0.0949
16360TIP3   OH270570   1.187   3.237   5.836  0.4845  0.4691 -0.7088
16360TIP3    H170571   1.144   3.198   5.913  2.8817 -1.8967 -0.5269
16360TIP3    H270572   1.128   3.216   5.763 -0.5933  0.6341  0.0900
16361TIP3   OH270573   1.543   6.350  15.202  0.1327  0.3505 -0.5213
16361TIP3    H170574   1.587   6.335  15.118  0.2181 -2.0300 -0.0818
16361TIP3    H270575   1.514   6.263  15.229 -1.9299  1.4240  0.8103
16362TIP3   OH270576   4.059   5.679  15.604 -0.4740 -0.2727 -0.4150
16362TIP3    H170577   4.067   5.583  15.597  0.1340 -0.2560  0.0193
16362TIP3    H270578   4.138   5.712  15.562 -0.1707  0.0106  0.3715
16363TIP3   OH270579   2.647   3.283   4.976  0.1625 -0.8482  0.0749
16363TIP3    H170580   2.731   3.249   4.944  1.0639  0.2166  1.2570
16363TIP3    H270581   2.631   3.361   4.923  0.9141  0.0631  1.1549
16364TIP3   OH270582   4.338   5.776  12.428 -0.3785 -0.1237  0.2762
16364TIP3    H170583   4.391   5.851  12.456 -1.8424  1.4200 -0.9148
16364TIP3    H270584   4.381   5.700  12.467  2.1291  1.1591  0.1631
16365TIP3   OH270585   3.905   1.195  16.451 -0.7861  0.1444 -0.1115
16365TIP3    H170586   3.875   1.114  16.410 -1.2622  0.5724 -0.6293
16365TIP3    H270587   3.867   1.264  16.397  0.3727  0.7083 -0.2103
16366TIP3   OH270588   4.682   2.604  14.641  0.1434  0.5468  0.5540
16366TIP3    H170589   4.747   2.648  14.587 -0.6464  0.0403 -0.8223
16366TIP3    H270590   4.724   2.594  14.726  2.0011 -0.1389 -0.4446
16367TIP3   OH270591   0.286   5.468  11.035 -0.3929 -0.2138 -0.2765
16367TIP3    H170592   0.243   5.399  11.087  1.1724  0.4732  1.9992
16367TIP3    H270593   0.347   5.420  10.979 -0.3725 -0.8066  0.2365
16368TIP3   OH270594   0.786   6.202   3.360 -0.7394  0.4076  0.2378
16368TIP3    H170595   0.846   6.219   3.287 -1.0549  0.9311  0.0952
16368TIP3    H270596   0.843   6.173   3.431 -0.4009  0.1292 -0.1376
16369TIP3   OH270597   4.679   6.018  16.884  1.0231 -0.0663 -0.3999
16369TIP3    H170598   4.730   6.098  16.872 -1.1936  1.2820 -1.0725
16369TIP3    H270599   4.608   6.043  16.943  1.0346 -1.8693  0.3987
16370TIP3   OH270600   2.753   1.250  13.864 -1.0128  0.1851  0.2157
16370TIP3    H170601   2.686   1.233  13.930 -2.3839  1.8040 -0.7260
16370TIP3    H270602   2.717   1.216  13.783 -0.3409  0.3124 -0.1454
16371TIP3   OH270603   4.372   5.850  14.392  0.9516 -0.1391 -0.7392
16371TIP3    H170604   4.465   5.861  14.371  0.4597  1.3858 -2.2202
16371TIP3    H270605   4.333   5.934  14.371 -0.8426 -0.8818 -0.4315
16372TIP3   OH270606   3.458   5.585  13.145 -0.0571  0.3662 -0.3886
16372TIP3    H170607   3.371   5.551  13.123 -0.3711  1.9131 -1.6514
16372TIP3    H270608   3.509   5.573  13.065  0.9608 -0.6821  0.4002
16373TIP3   OH270609   0.313   5.532   1.986 -0.2429  0.1282 -0.5521
16373TIP3    H170610   0.262   5.580   2.051 -1.4129  1.0341 -2.0999
16373TIP3    H270611   0.314   5.589   1.909  3.5536  0.3897 -0.4395
16374TIP3   OH270612   2.357   0.595  14.804 -0.5091  0.1814  0.1181
16374TIP3    H170613   2.405   0.561  14.728  0.3114  0.7970  0.3559
16374TIP3    H270614   2.384   0.687  14.810 -2.1514  0.6982 -0.0917
16375TIP3   OH270615   2.435   3.107   5.068  0.8427  0.3408  0.1357
16375TIP3    H170616   2.394   3.077   4.987  1.4658  1.2132 -0.5069
16375TIP3    H270617   2.364   3.107   5.132  0.4314 -0.7289 -0.3051
16376TIP3   OH270618   4.128   3.664   2.955  0.0001 -0.0822 -0.1567
16376TIP3    H170619   4.151   3.577   2.924 -0.2046  0.2026 -1.1510
16376TIP3    H270620   4.182   3.723   2.903 -0.4195  0.4183 -0.0357
16377TIP3   OH270621   0.914   0.851   6.254  0.2704  0.1479 -0.3859
16377TIP3    H170622   0.929   0.944   6.271  0.7272  0.3653 -1.9384
16377TIP3    H270623   0.940   0.807   6.335 -0.5480  1.4225  0.5836
16378TIP3   OH270624   3.970   0.879   3.264  0.0515  0.7350  0.4593
16378TIP3    H170625   4.063   0.874   3.286 -0.0867 -2.3394  0.6075
16378TIP3    H270626   3.969   0.888   3.168  0.4971  2.5877  0.6086
16379TIP3   OH270627   1.333   1.098  14.153 -0.4551 -0.1111 -0.0258
16379TIP3    H170628   1.355   1.013  14.115  3.9458  0.0890  1.7952
16379TIP3    H270629   1.312   1.078  14.244 -0.4242  0.6285  0.1413
16380TIP3   OH270630   6.486   4.246   5.416 -0.6161  0.1227 -0.5537
16380TIP3    H170631   6.479   4.225   5.323 -2.8516  0.1332 -0.3978
16380TIP3    H270632   6.518   4.165   5.457  1.0237  0.3242 -1.3972
16381TIP3   OH270633   4.182   5.043  15.697  0.1747  0.3145 -0.1509
16381TIP3    H170634   4.148   5.073  15.612 -1.7999 -1.0415  0.1328
16381TIP3    H270635   4.127   5.088  15.761  0.3847 -0.1858  0.3788
16382TIP3   OH270636   0.320   3.473   3.478 -0.1503  0.0921 -0.4553
16382TIP3    H170637   0.270   3.407   3.430 -0.9701 -0.0190  0.5437
16382TIP3    H270638   0.264   3.551   3.477 -0.9171 -0.4111  1.7596
16383TIP3   OH270639   0.313   1.840   3.843  0.2035  0.0715 -0.1986
16383TIP3    H170640   0.256   1.916   3.848  1.0312  0.6366  1.0048
16383TIP3    H270641   0.255   1.766   3.863 -0.5348  0.4034 -1.0643
16384TIP3   OH270642   1.454   1.625   3.049  0.7010 -0.2054 -0.1056
16384TIP3    H170643   1.487   1.668   3.128  0.6922 -2.5285  1.2251
16384TIP3    H270644   1.531   1.582   3.011  0.3232 -0.7452 -0.2632
16385TIP3   OH270645   5.419   0.262   2.980 -0.0516 -0.0963 -0.2627
16385TIP3    H170646   5.333   0.298   2.961 -0.4842 -0.3842  1.0820
16385TIP3    H270647   5.480   0.332   2.960 -0.4217 -0.4877 -3.0229
16386TIP3   OH270648   2.340   4.416  12.897  0.0516 -0.2187  0.8170
16386TIP3    H170649   2.258   4.385  12.936 -0.5281  0.1259 -0.1206
16386TIP3    H270650   2.404   4.407  12.967 -0.5406 -1.6020  1.2043
16387TIP3   OH270651   1.285   3.404   3.622 -0.0544 -0.2680 -0.2688
16387TIP3    H170652   1.328   3.489   3.617 -0.6835  0.0744  0.0291
16387TIP3    H270653   1.224   3.413   3.695  1.5149 -1.7302  1.2437
16388TIP3   OH270654   6.342   1.789   5.799  0.1227 -0.7207 -0.2543
16388TIP3    H170655   6.274   1.737   5.842  0.2549 -2.3193 -1.9354
16388TIP3    H270656   6.304   1.813   5.714  0.6322  0.7244 -0.0967
16389TIP3   OH270657   5.399   3.367  14.132 -0.6178 -0.4521 -0.4058
16389TIP3    H170658   5.306   3.347  14.121 -0.7993  0.3699 -0.3749
16389TIP3    H270659   5.401   3.457  14.165  0.2007 -0.2965 -0.8638
16390TIP3   OH270660   6.239   4.558  14.065  0.1623 -0.2317  0.2443
16390TIP3    H170661   6.297   4.524  13.996  1.4148  0.0620  1.1523
16390TIP3    H270662   6.282   4.534  14.147  0.6901  2.8904  0.9153
16391TIP3   OH270663   3.100   1.660  17.063  0.5880  0.5104  0.1158
16391TIP3    H170664   3.034   1.646  16.996 -0.9149  0.2396  1.6264
16391TIP3    H270665   3.175   1.608  17.035  0.4270  1.3743 -1.9738
16392TIP3   OH270666   3.265   3.299  13.084 -0.5574 -0.6817  0.4409
16392TIP3    H170667   3.221   3.381  13.109 -0.2980 -0.1062 -0.9255
16392TIP3    H270668   3.319   3.277  13.160 -0.5850  0.4498  0.8103
16393TIP3   OH270669   6.093   6.276  15.499  0.1917 -0.4687  0.1476
16393TIP3    H170670   6.086   6.344  15.565 -1.0175 -0.5357  0.0936
16393TIP3    H270671   6.175   6.295  15.454 -1.2225  2.3278 -1.3775
16394TIP3   OH270672   0.278   3.003  16.646 -0.8892 -0.9964  0.1085
16394TIP3    H170673   0.249   3.046  16.565  0.4366  1.0061  0.6440
16394TIP3    H270674   0.281   2.910  16.625 -0.4766 -0.4858 -2.1991
16395TIP3   OH270675   6.676   3.849  12.753  0.1728  0.2370  0.0440
16395TIP3    H170676   6.758   3.845  12.704  0.1075 -0.1458 -0.0350
16395TIP3    H270677   6.675   3.937  12.791  0.6366  0.2310  0.0754
16396TIP3   OH270678   0.001   5.086   2.164  0.1711 -0.6198  0.7300
16396TIP3    H170679   0.045   5.167   2.138  0.6752 -0.5521  1.7637
16396TIP3    H270680   0.055   5.016   2.128  0.4718 -0.5140  0.9748
16397TIP3   OH270681   1.954   0.503  16.263 -0.2423  0.4114  0.7061
16397TIP3    H170682   1.924   0.592  16.243  0.0021  0.6055  1.1632
16397TIP3    H270683   2.036   0.517  16.312  0.3579 -0.0891 -0.1513
16398TIP3   OH270684   3.322   6.440  13.672  0.4583  1.1289 -0.9761
16398TIP3    H170685   3.377   6.448  13.594  1.8772 -0.6179 -0.1927
16398TIP3    H270686   3.331   6.524  13.717  2.3618  0.9310 -0.9568
16399TIP3   OH270687   1.429   4.320  13.458 -0.0685 -0.1282 -0.2571
16399TIP3    H170688   1.445   4.412  13.439 -0.4190  0.1142  0.5767
16399TIP3    H270689   1.334   4.313  13.463  0.0272  0.0370  2.3668
16400TIP3   OH270690   4.702   0.374  14.576 -0.3751 -0.2967  0.1005
16400TIP3    H170691   4.796   0.380  14.596 -0.3395  1.4962 -0.5760
16400TIP3    H270692   4.660   0.383  14.661 -0.0255  2.2050  0.0551
16401TIP3   OH270693   0.106   1.816  12.960 -0.3286 -0.9233  0.2824
16401TIP3    H170694   0.072   1.730  12.984  1.5692 -1.3437  1.5721
16401TIP3    H270695   0.041   1.878  12.994 -0.8461 -1.7850  0.8931
16402TIP3   OH270696   3.995   0.226   3.085 -0.2006 -0.5436  0.2326
16402TIP3    H170697   3.979   0.182   3.002 -0.3111 -0.3606  0.1545
16402TIP3    H270698   4.087   0.253   3.081 -0.1492 -0.7188  0.2570
16403TIP3   OH270699   1.752   4.812  14.529  0.3774  0.2250  0.2637
16403TIP3    H170700   1.799   4.777  14.604  1.1607  0.5527 -0.0659
16403TIP3    H270701   1.817   4.864  14.481 -0.5184  1.3725  0.2452
16404TIP3   OH270702   6.558   1.965   6.358 -0.3569  0.0141 -0.2526
16404TIP3    H170703   6.486   1.903   6.347  1.5689 -2.4346  0.4988
16404TIP3    H270704   6.600   1.968   6.272 -1.2931  1.4065 -0.6782
16405TIP3   OH270705   6.442   3.094   0.571  0.2211 -0.0442 -0.6825
16405TIP3    H170706   6.504   3.060   0.635  0.8810  0.5546 -1.0031
16405TIP3    H270707   6.449   3.035   0.496 -0.6142 -0.7960 -0.1752
16406TIP3   OH270708   6.476   5.019   4.476  0.4703  0.0486  0.1604
16406TIP3    H170709   6.475   5.057   4.388  1.1929  0.8949  0.5114
16406TIP3    H270710   6.390   5.041   4.512 -0.3540 -1.4631 -0.8030
16407TIP3   OH270711   6.385   5.751  13.398 -0.5835 -0.2520  0.5443
16407TIP3    H170712   6.373   5.765  13.304 -1.0923 -0.5249  0.5672
16407TIP3    H270713   6.343   5.827  13.439 -0.3472 -0.1247  0.5519
16408TIP3   OH270714   6.124   1.520  13.787  0.5786  0.1638 -0.2547
16408TIP3    H170715   6.215   1.516  13.757  1.0119  2.6868  0.6222
16408TIP3    H270716   6.130   1.560  13.874 -1.3707  0.4606 -0.2509
16409TIP3   OH270717   0.245   3.175   1.886 -0.0805 -0.4377  0.0862
16409TIP3    H170718   0.309   3.241   1.912  1.0552 -2.0091  1.4276
16409TIP3    H270719   0.191   3.218   1.820  1.4357  1.4043  0.0034
16410TIP3   OH270720   6.408   1.430   3.504 -0.1505  1.0589  0.1715
16410TIP3    H170721   6.397   1.355   3.562  1.4300  0.5202 -0.1861
16410TIP3    H270722   6.498   1.459   3.520  0.0158  1.4457 -1.3617
16411TIP3   OH270723   5.428   0.296   1.186  0.3492 -0.4747 -0.3407
16411TIP3    H170724   5.499   0.278   1.125 -1.1529 -3.1451 -1.3669
16411TIP3    H270725   5.404   0.387   1.167  2.0680 -0.2210 -1.4417
16412TIP3   OH270726   6.219   3.469   5.573  0.1469 -0.2798  0.4721
16412TIP3    H170727   6.132   3.488   5.537  0.5325 -0.4703 -0.5728
16412TIP3    H270728   6.207   3.390   5.625 -0.4337  0.0574  0.8708
16413TIP3   OH270729   2.939   3.475  12.203 -0.0062  0.4236 -0.3783
16413TIP3    H170730   2.894   3.452  12.122  1.0292 -1.2683 -0.4926
16413TIP3    H270731   3.002   3.404  12.217  1.0252  1.5742  0.9916
16414TIP3   OH270732   2.297   1.767   0.267  0.8567  0.3375  1.0269
16414TIP3    H170733   2.364   1.758   0.199 -0.5573  3.0663 -0.8519
16414TIP3    H270734   2.274   1.677   0.290  3.2533 -0.6524 -0.1823
16415TIP3   OH270735   6.054   5.439   5.918 -0.4746 -0.2468 -0.2204
16415TIP3    H170736   6.017   5.520   5.953  2.7597  1.8039 -1.3306
16415TIP3    H270737   6.107   5.467   5.843  2.3230 -3.1233  0.5747
16416TIP3   OH270738   0.394   5.964  12.061  0.0764  0.0118  0.2919
16416TIP3    H170739   0.314   5.913  12.066 -0.5467  0.9418 -0.1092
16416TIP3    H270740   0.464   5.899  12.062 -0.7030 -0.8425 -0.1956
16417TIP3   OH270741   0.215   2.372  15.981  0.1607  0.0681  0.1340
16417TIP3    H170742   0.137   2.320  15.965  0.1424  0.0719  0.2144
16417TIP3    H270743   0.240   2.352  16.071  0.3015  0.0015  0.0803
16418TIP3   OH270744   5.379   2.729  10.918 -0.1276 -0.2815 -0.5084
16418TIP3    H170745   5.463   2.689  10.942 -0.2967 -0.5764 -0.3990
16418TIP3    H270746   5.392   2.822  10.932  0.2561 -0.3017 -0.7073
16419TIP3   OH270747   2.505   2.820   2.456 -0.3496  0.7277 -0.2602
16419TIP3    H170748   2.444   2.792   2.388 -0.5708 -0.8337  0.5417
16419TIP3    H270749   2.465   2.790   2.538  2.5220 -2.3450  0.1222
16420TIP3   OH270750   4.021   1.187  12.512  0.0358  0.3149  0.1796
16420TIP3    H170751   4.017   1.172  12.607 -2.5737 -0.5932 -0.0127
16420TIP3    H270752   4.112   1.170  12.488  0.6966  0.4316  2.4984
16421TIP3   OH270753   3.175   3.224  17.204 -0.1173 -0.4889 -0.3336
16421TIP3    H170754   3.185   3.179  17.288  0.5656  1.0827  0.4551
16421TIP3    H270755   3.161   3.316  17.228  0.0813 -0.0189 -1.9479
16422TIP3   OH270756   2.124   2.321  16.998  0.3379  0.5890  0.5315
16422TIP3    H170757   2.066   2.394  17.021  0.4469  1.0698 -0.6545
16422TIP3    H270758   2.175   2.353  16.924 -1.7317 -1.6809 -2.0188
16423TIP3   OH270759   5.147   0.242  15.940  0.0266 -0.0331 -0.4814
16423TIP3    H170760   5.205   0.204  16.007 -0.6455 -0.5351 -0.1783
16423TIP3    H270761   5.151   0.336  15.955  1.2780 -0.0152 -0.8815
16424TIP3   OH270762   0.844   2.406  15.068  0.3457 -0.3519  0.0121
16424TIP3    H170763   0.874   2.475  15.127 -0.5779 -0.6016  0.7869
16424TIP3    H270764   0.910   2.337  15.077 -0.2728 -0.7671  1.4679
16425TIP3   OH270765   5.749   4.503  15.221 -0.4370  0.3328 -0.0532
16425TIP3    H170766   5.684   4.489  15.290 -1.5818  0.3711 -1.1068
16425TIP3    H270767   5.739   4.427  15.163 -0.4909  1.0264 -0.9613
16426TIP3   OH270768   1.174   1.658   3.355  0.9082 -0.4288 -0.9936
16426TIP3    H170769   1.165   1.615   3.271 -1.6585 -0.2667 -0.8422
16426TIP3    H270770   1.166   1.588   3.420 -1.5468 -0.0025 -0.7956
16427TIP3   OH270771   2.045   6.095   1.015  0.2315 -0.4186 -0.6394
16427TIP3    H170772   2.101   6.040   1.070  0.7029 -1.4846 -2.1453
16427TIP3    H270773   2.077   6.080   0.926 -0.8017  0.9367 -1.2554
16428TIP3   OH270774   5.907   6.625   6.004  0.0310 -0.2537  0.0731
16428TIP3    H170775   5.883   6.542   5.961  2.1668 -0.0600 -1.5670
16428TIP3    H270776   6.003   6.622   6.011  0.2500  2.6020 -1.1132
16429TIP3   OH270777   0.741   1.765   1.076  0.1365  0.7041 -0.1193
16429TIP3    H170778   0.770   1.801   1.159 -0.2777  0.8259 -0.0291
16429TIP3    H270779   0.706   1.679   1.098  2.6225 -0.4707 -0.5480
16430TIP3   OH270780   3.295   4.784   1.964  0.1379  0.2297  0.3585
16430TIP3    H170781   3.384   4.807   1.938  0.3278  0.0512  0.8655
16430TIP3    H270782   3.240   4.843   1.912  0.4927 -0.5360 -0.9100
16431TIP3   OH270783   5.449   3.843  11.516 -0.1925 -0.1135 -0.5427
16431TIP3    H170784   5.356   3.856  11.497 -0.3865 -1.2225 -0.3881
16431TIP3    H270785   5.495   3.897  11.452 -0.9496  0.5508 -0.5282
16432TIP3   OH270786   0.622   1.191  11.188 -0.5946  0.1344  0.7788
16432TIP3    H170787   0.657   1.135  11.257 -2.1300  0.5408  1.9016
16432TIP3    H270788   0.552   1.241  11.230  0.3391  2.4704 -0.3434
16433TIP3   OH270789   0.011   1.227  13.554  0.5170 -0.1856 -0.0905
16433TIP3    H170790  -0.044   1.210  13.478  0.2232 -1.8717  0.4685
16433TIP3    H270791  -0.020   1.166  13.621  0.8427  1.1906  1.3533
16434TIP3   OH270792   1.733   0.866  13.903  0.2081 -0.4850  0.4976
16434TIP3    H170793   1.709   0.774  13.908 -0.1431 -0.4431 -0.4681
16434TIP3    H270794   1.824   0.866  13.872  0.1845 -0.5037  0.4286
16435TIP3   OH270795   5.810   3.534  14.029  1.2699 -0.2084  0.3766
16435TIP3    H170796   5.902   3.559  14.025  0.6737  2.0116 -0.1610
16435TIP3    H270797   5.784   3.553  14.120  1.1550 -0.1020  0.3221
16436TIP3   OH270798   1.431   0.140   5.688  0.0236 -0.2118 -0.0752
16436TIP3    H170799   1.446   0.152   5.782  0.7263 -1.0888 -0.0644
16436TIP3    H270800   1.509   0.177   5.646 -0.7875  1.1911 -0.3878
16437TIP3   OH270801   4.561   1.583  15.709 -0.5180 -0.0632  0.2962
16437TIP3    H170802   4.631   1.637  15.745  0.4169  0.4316 -2.1848
16437TIP3    H270803   4.568   1.500  15.756  0.8504  0.4435  1.0172
16438TIP3   OH270804   0.591   6.205  16.744  0.3548 -0.5840 -0.5821
16438TIP3    H170805   0.686   6.216  16.738  0.0688  1.7889 -1.4173
16438TIP3    H270806   0.574   6.195  16.838  1.3389  0.0239 -0.3299
16439TIP3   OH270807   4.361   2.303  15.243  0.1293 -0.5411  0.3114
16439TIP3    H170808   4.384   2.252  15.165 -1.3400 -0.7223 -0.0168
16439TIP3    H270809   4.378   2.394  15.217 -0.2097 -0.6124 -0.1831
16440TIP3   OH270810   4.673   4.793   0.904 -0.3865 -0.0946 -0.4027
16440TIP3    H170811   4.764   4.817   0.923 -0.4762 -0.7904  0.9177
16440TIP3    H270812   4.621   4.863   0.943 -0.5047 -0.7842  0.6982
16441TIP3   OH270813   5.455   1.786   2.295  0.0746  0.0133  0.1505
16441TIP3    H170814   5.495   1.829   2.370 -0.1213  1.2280 -0.4416
16441TIP3    H270815   5.369   1.758   2.327  0.2528 -0.0633  0.5708
16442TIP3   OH270816   3.859   4.783  12.902 -0.2367 -0.2738 -0.5849
16442TIP3    H170817   3.906   4.862  12.929  0.4131 -0.6809 -0.5083
16442TIP3    H270818   3.883   4.772  12.810 -1.3649  0.3510 -0.9533
16443TIP3   OH270819   6.416   0.554  14.010  0.6202  0.1412 -0.0864
16443TIP3    H170820   6.349   0.523  14.070  0.9172  0.0469  0.1997
16443TIP3    H270821   6.368   0.588  13.934  0.2814 -0.6420 -0.2259
16444TIP3   OH270822   4.264   1.450  12.042  0.0792 -0.6066  0.3877
16444TIP3    H170823   4.178   1.441  12.083 -0.1656  0.7720  0.1829
16444TIP3    H270824   4.266   1.539  12.008  0.3328 -1.6405 -2.4942
16445TIP3   OH270825   5.452   2.460  11.579 -0.4372  0.3087 -0.0653
16445TIP3    H170826   5.440   2.472  11.485 -0.0896 -1.6745 -0.3911
16445TIP3    H270827   5.366   2.435  11.612 -0.6778  1.5215  0.2426
16446TIP3   OH270828   2.847   4.662  11.773 -0.7506 -0.0552  0.7200
16446TIP3    H170829   2.864   4.626  11.687  1.1615  2.2898  0.0706
16446TIP3    H270830   2.753   4.682  11.773 -0.3921  1.7225 -1.5362
16447TIP3   OH270831   4.092   4.850   5.966  0.5792  0.2437 -0.0151
16447TIP3    H170832   4.132   4.937   5.955 -0.0444  0.4529 -0.6851
16447TIP3    H270833   4.014   4.866   6.019  1.1428 -0.1060  0.9466
16448TIP3   OH270834   0.503   2.835   2.742 -0.5135  0.6494  0.0860
16448TIP3    H170835   0.477   2.788   2.662  2.8052 -0.7820 -0.2230
16448TIP3    H270836   0.462   2.787   2.813 -1.3217  0.3640 -0.5640
16449TIP3   OH270837   0.861   6.146   2.592 -0.4865 -0.7151 -0.4018
16449TIP3    H170838   0.876   6.211   2.524  1.5370 -0.6990  0.0378
16449TIP3    H270839   0.917   6.174   2.665 -0.6739 -2.1561  0.3138
16450TIP3   OH270840   3.510   1.617   0.863 -0.1670 -0.6763 -0.1903
16450TIP3    H170841   3.496   1.523   0.862 -1.3028 -0.5295 -2.8296
16450TIP3    H270842   3.507   1.643   0.771  1.0318  1.8203  0.4199
16451TIP3   OH270843   0.183   2.022  13.452  0.4891 -0.1334 -0.0297
16451TIP3    H170844   0.257   1.965  13.474 -0.2336 -0.9092  0.3597
16451TIP3    H270845   0.116   1.964  13.417  0.4673  0.7079 -1.4676
16452TIP3   OH270846   1.063   4.703  11.828  0.3200  0.3431  0.1201
16452TIP3    H170847   1.015   4.737  11.904  2.3334  1.1317  1.0667
16452TIP3    H270848   1.065   4.776  11.767  0.3846  0.3337  0.1097
16453TIP3   OH270849   6.284   1.517   3.007  0.0316  0.6905  0.1052
16453TIP3    H170850   6.346   1.472   2.949  0.2186  1.5857 -0.4077
16453TIP3    H270851   6.203   1.523   2.956  0.3142  1.8266 -0.2270
16454TIP3   OH270852   0.033   4.530  12.460  0.0495 -0.0399  0.0589
16454TIP3    H170853   0.003   4.576  12.538 -1.6921  0.8187 -1.0779
16454TIP3    H270854   0.084   4.596  12.412  1.5937 -0.7316  0.7421
16455TIP3   OH270855   2.878   1.287  11.298 -0.3167  0.8108  0.1383
16455TIP3    H170856   2.789   1.255  11.315  0.3150 -1.0935  0.0597
16455TIP3    H270857   2.934   1.211  11.313  1.1225  1.4737 -1.5751
16456TIP3   OH270858   3.764   1.419   6.137 -0.1678  0.2576  0.2293
16456TIP3    H170859   3.742   1.459   6.221 -0.9394 -0.9081  0.6018
16456TIP3    H270860   3.712   1.338   6.135  1.2181 -0.6351 -0.5607
16457TIP3   OH270861   0.936   2.691   2.239  0.6966 -0.1234  0.0145
16457TIP3    H170862   0.986   2.612   2.218  0.3473 -0.2262 -0.4581
16457TIP3    H270863   0.875   2.700   2.165 -1.3450 -1.1232  1.5148
16458TIP3   OH270864   3.562   0.134   2.343 -1.0182  0.2046  1.1342
16458TIP3    H170865   3.510   0.135   2.424  1.5149 -0.6938  2.8025
16458TIP3    H270866   3.649   0.163   2.370 -0.3758  0.8382 -1.4792
16459TIP3   OH270867   4.783   5.709   3.767 -0.5462 -0.4619 -0.2685
16459TIP3    H170868   4.707   5.719   3.824  0.9156  0.9113  1.5203
16459TIP3    H270869   4.857   5.701   3.828  0.9510  0.1426 -1.9710
16460TIP3   OH270870   3.330   3.724   2.513  0.2331  0.2525 -0.0913
16460TIP3    H170871   3.310   3.679   2.595 -0.5026  0.8165  0.0405
16460TIP3    H270872   3.259   3.787   2.502  2.6601  3.3603  1.1620
16461TIP3   OH270873   0.401   4.482  12.829 -0.0682  0.0108  0.2277
16461TIP3    H170874   0.345   4.545  12.874  0.2191 -0.0525  0.6765
16461TIP3    H270875   0.381   4.495  12.736  0.9842  1.7538  0.2023
16462TIP3   OH270876   2.992   4.137   1.681  0.4086 -0.0308  0.3842
16462TIP3    H170877   3.017   4.062   1.626  0.0314  1.3833 -1.7781
16462TIP3    H270878   3.075   4.181   1.699  0.3557  0.4223 -0.4507
16463TIP3   OH270879   1.500   4.803   3.254  0.9959 -0.1538  0.3547
16463TIP3    H170880   1.576   4.862   3.260  0.7933  0.1323  0.1067
16463TIP3    H270881   1.440   4.847   3.194  0.9831 -0.7761 -0.0939
16464TIP3   OH270882   1.555   2.936  17.214  0.2958  0.4397  0.1043
16464TIP3    H170883   1.642   2.938  17.173  0.8843  1.7557  1.3759
16464TIP3    H270884   1.504   2.999  17.163  0.0866 -0.3229 -0.6342
16465TIP3   OH270885   4.825   2.063   6.220 -0.0159 -1.0005 -0.4062
16465TIP3    H170886   4.856   1.985   6.267 -0.3146 -1.7719 -1.4526
16465TIP3    H270887   4.903   2.094   6.173 -0.4865 -2.2351 -2.0784
16466TIP3   OH270888   3.185   5.752   3.040 -0.3996  0.2484  0.0315
16466TIP3    H170889   3.134   5.678   3.008 -0.3227  0.3131 -0.2403
16466TIP3    H270890   3.181   5.744   3.135 -1.7073  0.7761  0.0427
16467TIP3   OH270891   1.640   6.221   1.906  0.0482 -0.1548  0.0592
16467TIP3    H170892   1.638   6.160   1.979  2.3462  2.0067  1.9903
16467TIP3    H270893   1.707   6.285   1.929 -2.2709  3.1246 -1.8799
16468TIP3   OH270894   3.871   0.045  16.193  0.4492 -0.2805 -0.0289
16468TIP3    H170895   3.868   0.055  16.098 -0.8503 -0.2406  0.0027
16468TIP3    H270896   3.944   0.101  16.221  0.2822  0.4000 -0.9217
16469TIP3   OH270897   3.238   4.681   6.276 -0.2566 -0.0667  0.8647
16469TIP3    H170898   3.279   4.629   6.206  1.3745  1.6719  0.4765
16469TIP3    H270899   3.312   4.708   6.331 -1.2694  0.5021  1.9542
16470TIP3   OH270900   0.593   0.207   0.226  0.1820 -0.1695  0.3784
16470TIP3    H170901   0.669   0.244   0.270  1.7043 -1.9608 -0.7057
16470TIP3    H270902   0.620   0.196   0.135 -1.4608 -0.6016 -0.0843
16471TIP3   OH270903   3.840   4.122  15.065 -0.1895  0.9563 -0.2972
16471TIP3    H170904   3.895   4.094  14.992  0.1993  1.5770 -0.2430
16471TIP3    H270905   3.761   4.157  15.025 -1.2248 -1.3067 -0.3445
16472TIP3   OH270906   2.949   2.775   2.698  0.7040  0.1067 -0.0626
16472TIP3    H170907   2.898   2.694   2.702  2.6025 -1.0564  1.3776
16472TIP3    H270908   2.898   2.838   2.750 -0.5092 -0.3176 -0.7300
16473TIP3   OH270909   5.370   5.144  11.683 -0.2096 -0.6949  0.8265
16473TIP3    H170910   5.414   5.188  11.611  0.2489 -0.8354  1.0178
16473TIP3    H270911   5.416   5.060  11.692  1.1923  0.2358  2.7178
16474TIP3   OH270912   2.081   5.738   2.937 -0.0713  0.0811  0.4720
16474TIP3    H170913   2.065   5.747   2.843  1.8734 -1.3278 -0.0252
16474TIP3    H270914   2.115   5.823   2.964 -0.5836  0.4736 -0.0997
16475TIP3   OH270915   4.746   5.181  16.988 -0.1720 -0.1892  0.3964
16475TIP3    H170916   4.670   5.238  17.004 -0.3630  0.2418 -1.9100
16475TIP3    H270917   4.792   5.222  16.915  1.4487 -1.3046  0.7637
16476TIP3   OH270918   2.099   3.176  16.087  0.0850 -0.4534 -0.4375
16476TIP3    H170919   2.055   3.261  16.094  1.3123  0.0413  1.7319
16476TIP3    H270920   2.147   3.181  16.005 -0.5224  0.6262 -0.7420
16477TIP3   OH270921   1.972   1.700   2.277 -0.5077 -0.0423  0.0944
16477TIP3    H170922   2.005   1.661   2.196 -0.7826 -0.1019  0.0114
16477TIP3    H270923   1.981   1.630   2.342  1.7930  0.6965  0.6314
16478TIP3   OH270924   0.902   5.111  16.440  0.4223  0.1613 -0.3184
16478TIP3    H170925   0.951   5.187  16.409 -0.0655 -0.1893 -2.0040
16478TIP3    H270926   0.905   5.049  16.367  0.0416 -1.0716  0.6963
16479TIP3   OH270927   6.405   3.386   5.054 -0.3282  0.0365  0.3121
16479TIP3    H170928   6.436   3.405   5.143 -0.4357  1.4669  0.0565
16479TIP3    H270929   6.327   3.440   5.044  0.3118  0.7154 -1.0428
16480TIP3   OH270930   1.372   1.784   5.313  0.2186 -0.0430 -0.1787
16480TIP3    H170931   1.407   1.846   5.377  2.8560 -2.8888  1.2969
16480TIP3    H270932   1.338   1.712   5.366  1.6169 -2.0373 -1.9094
16481TIP3   OH270933   5.104   2.142  10.698 -0.1062 -0.7433 -0.5329
16481TIP3    H170934   5.074   2.217  10.647  0.5831 -0.1506 -0.0861
16481TIP3    H270935   5.197   2.134  10.675  0.3447 -0.1182  1.0610
16482TIP3   OH270936   3.576   3.687  10.557  0.5704  0.0702  0.3029
16482TIP3    H170937   3.596   3.593  10.560 -0.6202 -0.1638  0.9200
16482TIP3    H270938   3.659   3.728  10.532  1.2219 -1.1056  0.5135
16483TIP3   OH270939   0.120   4.538   5.278  0.1938 -0.4443 -0.0895
16483TIP3    H170940   0.034   4.521   5.239  0.2792 -1.2104  0.0515
16483TIP3    H270941   0.106   4.614   5.334 -0.4929 -0.8289  0.2685
16484TIP3   OH270942   3.253   5.884   1.138  0.3597 -0.4030  0.2340
16484TIP3    H170943   3.251   5.969   1.182  0.7201 -0.2515 -0.0374
16484TIP3    H270944   3.179   5.836   1.175  0.1311  0.0426  0.3590
16485TIP3   OH270945   6.549   3.036  14.614 -0.3087 -0.6300 -0.5256
16485TIP3    H170946   6.460   3.030  14.648 -0.2603 -0.3666 -0.3475
16485TIP3    H270947   6.605   3.029  14.691 -0.1718 -0.8763 -0.6433
16486TIP3   OH270948   0.490   4.965   2.407  0.0935  0.9563  0.1704
16486TIP3    H170949   0.553   4.893   2.411 -0.7323  0.2547  0.6590
16486TIP3    H270950   0.455   4.971   2.495 -1.1011  0.8228 -0.2926
16487TIP3   OH270951   5.978   0.560  12.251 -0.3793 -0.1227 -0.3670
16487TIP3    H170952   6.063   0.566  12.295 -1.8050 -0.4250  2.5819
16487TIP3    H270953   5.939   0.647  12.261 -0.3974  0.0484 -1.7963
16488TIP3   OH270954   2.042   2.731  12.339  0.3283  0.3176 -0.2721
16488TIP3    H170955   1.958   2.684  12.345 -0.5257  1.7415 -0.8862
16488TIP3    H270956   2.108   2.663  12.355 -0.9455 -0.7536  0.5669
16489TIP3   OH270957   4.249   3.029   0.572 -0.2364  0.1300 -0.0172
16489TIP3    H170958   4.300   3.110   0.565  0.9302 -0.5628  0.3528
16489TIP3    H270959   4.189   3.046   0.645 -1.8306  1.6306 -1.6385
16490TIP3   OH270960   6.171   5.105   0.894 -0.2090  0.6650  0.1074
16490TIP3    H170961   6.119   5.041   0.944 -1.1798  1.5765  0.2758
16490TIP3    H270962   6.203   5.166   0.960  1.4504 -0.1188  0.0618
16491TIP3   OH270963   6.071   2.698   1.513  0.0089 -0.5213  0.0845
16491TIP3    H170964   6.163   2.689   1.536  0.3424 -1.5522 -1.4901
16491TIP3    H270965   6.034   2.611   1.529 -0.5024 -0.3211  0.0040
16492TIP3   OH270966   2.321   1.474  17.188  0.0859 -0.0706 -0.1944
16492TIP3    H170967   2.320   1.426  17.271  4.2499 -0.8888 -0.4850
16492TIP3    H270968   2.344   1.564  17.214 -1.6017  0.3932 -0.2321
16493TIP3   OH270969   4.551   5.601  12.707 -0.7109 -0.0599 -0.0362
16493TIP3    H170970   4.578   5.560  12.625 -0.6838 -0.5410  0.2116
16493TIP3    H270971   4.479   5.546  12.739 -0.1961 -0.3390  0.6592
16494TIP3   OH270972   2.245   4.573   4.163 -0.1173 -0.2018 -0.1096
16494TIP3    H170973   2.209   4.550   4.078  0.5864  0.1689 -0.5084
16494TIP3    H270974   2.331   4.531   4.166 -0.5191 -0.9720  0.7844
16495TIP3   OH270975   3.107   2.829  15.831  0.4212  0.5089 -0.5696
16495TIP3    H170976   3.142   2.819  15.743  1.1474 -0.4103 -0.1851
16495TIP3    H270977   3.038   2.762  15.837  2.1873 -1.2546  0.4576
16496TIP3   OH270978   5.746   2.278  12.080  0.2788  0.3877 -0.0788
16496TIP3    H170979   5.816   2.333  12.045  0.4888  0.6085  0.6768
16496TIP3    H270980   5.692   2.338  12.130 -0.7370  0.3066 -1.0612
16497TIP3   OH270981   4.444   4.631   4.097 -0.0615  0.7649  0.2793
16497TIP3    H170982   4.358   4.651   4.135 -0.4222 -0.0780 -0.0573
16497TIP3    H270983   4.501   4.617   4.172 -0.3979  0.6107  0.5099
16498TIP3   OH270984   3.913   3.401  13.349  0.0610 -0.0852  0.2936
16498TIP3    H170985   3.845   3.447  13.300  0.1772 -2.0554 -1.8582
16498TIP3    H270986   3.993   3.418  13.300  0.1488 -2.2634 -0.4077
16499TIP3   OH270987   6.762   1.630   6.470  0.1207  0.1608 -0.4369
16499TIP3    H170988   6.672   1.649   6.496 -0.1385 -0.5987 -0.7848
16499TIP3    H270989   6.788   1.557   6.527  0.2525 -0.1308 -0.8681
16500TIP3   OH270990   5.645   0.552   1.303  0.1240  0.1355 -0.1253
16500TIP3    H170991   5.678   0.642   1.302 -3.4339  1.5179 -1.2860
16500TIP3    H270992   5.593   0.547   1.383  0.6026 -1.0545  0.1214
16501TIP3   OH270993   6.762   2.116  12.814  0.6158 -0.0154  0.6885
16501TIP3    H170994   6.849   2.153  12.829  0.7480 -0.1530  0.2752
16501TIP3    H270995   6.704   2.166  12.872  1.1377 -0.6829  1.8177
16502TIP3   OH270996   3.999   3.178   4.685 -0.2278 -0.1195 -0.3542
16502TIP3    H170997   3.949   3.255   4.659 -0.3719  0.1728  0.7461
16502TIP3    H270998   4.041   3.147   4.605 -0.7617  0.6749 -0.9375
16503TIP3   OH270999   5.230   2.574  13.208  0.1809 -0.3678 -0.0628
16503TIP3    H171000   5.241   2.641  13.140  0.7794 -1.8387 -1.4638
16503TIP3    H271001   5.190   2.500  13.162 -1.9494 -0.4298  1.7976
16504TIP3   OH271002   2.095   1.603   5.615  0.3046 -0.5639  0.1812
16504TIP3    H171003   2.112   1.683   5.665  0.0679 -1.5292  1.8492
16504TIP3    H271004   2.082   1.633   5.525  0.6234  1.2250  0.7104
16505TIP3   OH271005   6.068   4.047  11.284  0.1247 -0.3251  0.0915
16505TIP3    H171006   5.979   4.082  11.280 -0.5413 -2.0187 -0.1805
16505TIP3    H271007   6.069   3.993  11.364  0.9572 -0.1974  0.1760
16506TIP3   OH271008   0.213   6.687   5.482 -0.6540  0.0600  0.1026
16506TIP3    H171009   0.249   6.726   5.562  0.0613  0.2869 -0.3271
16506TIP3    H271010   0.187   6.763   5.429 -1.9357 -0.1019  0.4826
16507TIP3   OH271011   3.469   1.650   4.202  0.0858  0.3719 -0.6555
16507TIP3    H171012   3.490   1.596   4.278 -0.2678  0.7570 -0.2805
16507TIP3    H271013   3.380   1.682   4.218 -0.5662 -0.7548 -1.9438
16508TIP3   OH271014   2.362   2.138  16.381 -0.0293 -0.5829 -0.0208
16508TIP3    H171015   2.400   2.147  16.469 -1.3311  0.1358  0.4818
16508TIP3    H271016   2.268   2.141  16.396 -0.2640 -1.1155 -1.3849
16509TIP3   OH271017   2.251   4.363  15.741  0.6688 -0.1682  0.2607
16509TIP3    H171018   2.337   4.322  15.739  0.8758  0.3185 -1.1278
16509TIP3    H271019   2.200   4.308  15.800  1.5019 -1.3082 -0.0600
16510TIP3   OH271020   5.482   5.421   0.169 -0.0598 -0.5054 -0.3059
16510TIP3    H171021   5.559   5.475   0.153 -0.7141  0.2442 -1.0187
16510TIP3    H271022   5.507   5.363   0.241  1.3853 -0.7404 -0.9837
16511TIP3   OH271023   3.747   4.873  14.623  0.3768 -0.1637 -0.2722
16511TIP3    H171024   3.785   4.902  14.706  0.6887  0.3524 -0.5960
16511TIP3    H271025   3.751   4.777  14.627  1.0285 -0.1249  0.0073
16512TIP3   OH271026   6.285   5.952  12.980  0.2812 -0.2898  0.1848
16512TIP3    H171027   6.246   5.868  12.957 -0.0381 -0.1204  0.1019
16512TIP3    H271028   6.283   6.003  12.899 -2.2150  0.8410  0.8960
16513TIP3   OH271029   6.501   4.096   2.768 -0.7418 -0.6378 -0.0464
16513TIP3    H171030   6.512   4.002   2.753 -0.2904 -0.4488 -0.9267
16513TIP3    H271031   6.531   4.137   2.687  1.7112  0.4070  1.3280
16514TIP3   OH271032   5.362   0.259  11.955 -0.3441  0.3320 -0.0183
16514TIP3    H171033   5.329   0.180  11.997  0.8242 -1.7838 -2.9168
16514TIP3    H271034   5.456   0.244  11.946 -0.4689  0.9201 -2.7992
16515TIP3   OH271035   4.857   2.004  17.246  0.3797 -0.0446 -0.3072
16515TIP3    H171036   4.946   2.015  17.281  1.1074 -1.4112 -1.6212
16515TIP3    H271037   4.860   1.918  17.203 -1.8673 -0.5263  0.4614
16516TIP3   OH271038   0.824   6.306  12.270 -0.0436  0.1341 -0.5754
16516TIP3    H171039   0.883   6.378  12.291 -0.0600 -0.0287  0.0409
16516TIP3    H271040   0.828   6.248  12.347 -1.6947  0.5926 -0.1192
16517TIP3   OH271041   1.495   2.603  17.250 -0.1075 -0.3262  0.0499
16517TIP3    H171042   1.590   2.593  17.245 -0.1163  0.0293 -0.9188
16517TIP3    H271043   1.479   2.692  17.218 -0.9601 -1.1955 -2.0143
16518TIP3   OH271044   6.696   5.466  16.123 -0.7654 -0.5531 -0.0936
16518TIP3    H171045   6.720   5.530  16.190 -1.0700 -0.8792  0.3285
16518TIP3    H271046   6.713   5.511  16.040 -0.0682 -0.2675  0.1990
16519TIP3   OH271047   0.045   4.775   0.033 -0.1040  0.0099  0.0660
16519TIP3    H171048  -0.039   4.736   0.056 -1.4317  2.8479  0.2062
16519TIP3    H271049   0.107   4.739   0.096 -1.2129 -2.0216  0.0351
16520TIP3   OH271050   1.473   6.565   2.719 -0.1557  0.3972 -1.0121
16520TIP3    H171051   1.529   6.627   2.673  0.7707  0.3410  0.0448
16520TIP3    H271052   1.526   6.486   2.727 -0.5192  0.2188 -0.3359
16521TIP3   OH271053   6.436   1.337  15.364  0.6944 -0.4627 -0.3024
16521TIP3    H171054   6.380   1.269  15.327  0.1914 -2.1536  3.3372
16521TIP3    H271055   6.496   1.291  15.421  0.2022  2.1290  2.4447
16522TIP3   OH271056   2.800   2.718  12.031  0.4023  0.2569  0.3804
16522TIP3    H171057   2.768   2.659  12.099  1.2911  0.1891  0.7445
16522TIP3    H271058   2.721   2.753  11.991 -0.1319  0.3108  1.4660
16523TIP3   OH271059   6.234   0.826  15.781  0.0398  0.6295 -0.5486
16523TIP3    H171060   6.293   0.782  15.721 -1.5192 -3.3886  0.7321
16523TIP3    H271061   6.159   0.851  15.727 -0.3324 -0.8872 -0.7416
16524TIP3   OH271062   2.230   6.122  13.383  0.9625 -0.0478 -0.6438
16524TIP3    H171063   2.162   6.187  13.366  0.2187 -0.8619 -0.7882
16524TIP3    H271064   2.299   6.144  13.320  0.6412  0.5015 -0.8101
16525TIP3   OH271065   2.113   4.923   5.149 -0.0095 -0.1587 -1.4272
16525TIP3    H171066   2.056   4.908   5.074 -0.0236  1.9155 -1.8613
16525TIP3    H271067   2.052   4.946   5.220  0.1588  0.3941 -1.4574
16526TIP3   OH271068   5.648   6.418  11.740  0.2521  0.8019  0.6971
16526TIP3    H171069   5.697   6.500  11.742 -1.8844  2.1328  0.7448
16526TIP3    H271070   5.581   6.429  11.807  0.7666 -1.5478  1.6330
16527TIP3   OH271071   6.545   3.749   5.633  0.0788  0.0789  0.2056
16527TIP3    H171072   6.475   3.774   5.694 -0.6100  1.1544 -0.9986
16527TIP3    H271073   6.620   3.802   5.661  0.7984 -1.9376  2.2381
16528TIP3   OH271074   2.179   1.808  14.908  0.7662  0.4447 -0.6780
16528TIP3    H171075   2.270   1.832  14.928  0.2593  1.8604 -0.0634
16528TIP3    H271076   2.127   1.882  14.937 -0.7219 -0.8610  0.0803
16529TIP3   OH271077   0.356   3.917   4.480  0.0441  0.5339 -0.3711
16529TIP3    H171078   0.401   3.833   4.489 -2.2546 -0.6960  0.0267
16529TIP3    H271079   0.307   3.927   4.562  3.4224  4.2684  1.3959
16530TIP3   OH271080   2.410   4.252   1.908  0.7537 -0.3138 -0.3468
16530TIP3    H171081   2.447   4.294   1.986  0.4469 -2.0997  0.7935
16530TIP3    H271082   2.485   4.236   1.851  1.3185 -1.0723  0.5933
16531TIP3   OH271083   2.518   4.459  16.275 -0.6872 -0.4665  0.3901
16531TIP3    H171084   2.545   4.399  16.205 -1.4524 -2.4595  1.7712
16531TIP3    H271085   2.598   4.478  16.323 -0.4635 -0.4638  0.0171
16532TIP3   OH271086   3.417   5.470   2.045 -0.2043  0.4175  0.0569
16532TIP3    H171087   3.470   5.548   2.061 -2.5445  2.4208 -1.5939
16532TIP3    H271088   3.331   5.492   2.080 -1.7289 -0.1766 -3.0842
16533TIP3   OH271089   0.852   3.220  16.184 -0.1309 -0.5296 -0.3409
16533TIP3    H171090   0.879   3.253  16.099 -1.3195 -1.3635 -1.0533
16533TIP3    H271091   0.865   3.125  16.179 -1.2886 -0.7117  0.0072
16534TIP3   OH271092   4.553   1.367   3.605  0.4427  0.1206 -0.3683
16534TIP3    H171093   4.622   1.424   3.640 -0.9794 -0.2769  3.2229
16534TIP3    H271094   4.586   1.278   3.619  0.0577 -0.0375 -0.4740
16535TIP3   OH271095   0.781   3.265  16.736  0.1707  0.7911  0.4034
16535TIP3    H171096   0.844   3.234  16.801  1.1298  0.0263 -0.8572
16535TIP3    H271097   0.729   3.187  16.714  0.8058  0.6917 -0.7882
16536TIP3   OH271098   5.052   2.035  12.992 -0.2341 -0.5293  0.0229
16536TIP3    H171099   5.061   2.110  13.051  0.8782 -2.9322  3.0669
16536TIP3    H271100   4.958   2.013  12.996  0.1085 -1.6872  2.2676
16537TIP3   OH271101   2.017   6.741  11.696 -0.0200 -0.1875  0.0986
16537TIP3    H171102   1.923   6.722  11.702  0.0167 -1.0754 -1.7245
16537TIP3    H271103   2.022   6.826  11.652  0.0611 -1.1502 -1.7923
16538TIP3   OH271104   6.573   1.131  16.242 -0.4168  0.0955 -0.2452
16538TIP3    H171105   6.657   1.127  16.288 -0.7634  0.6620  0.4491
16538TIP3    H271106   6.538   1.042  16.249 -0.1550  0.0091 -0.0023
16539TIP3   OH271107   3.033   4.604  12.711 -0.5875 -0.4406 -0.0960
16539TIP3    H171108   3.078   4.688  12.721 -1.3246 -0.1530  0.8860
16539TIP3    H271109   3.001   4.584  12.799 -1.8890 -0.9072 -0.6716
16540TIP3   OH271110   3.563   1.051  12.698 -0.2625 -0.2206  0.1350
16540TIP3    H171111   3.485   1.102  12.718  0.5412 -0.0074  2.9651
16540TIP3    H271112   3.530   0.965  12.672 -1.4555 -0.0819  1.1532
16541TIP3   OH271113   5.435   3.868  15.033 -0.0605  0.7067  0.0088
16541TIP3    H171114   5.474   3.951  15.061  0.3017  0.5196  0.0650
16541TIP3    H271115   5.506   3.821  14.990  0.2701 -0.3858  1.6756
16542TIP3   OH271116   6.617   6.473  10.687 -0.8540  0.1973 -0.2524
16542TIP3    H171117   6.561   6.540  10.648 -0.3235  0.0457 -1.2956
16542TIP3    H271118   6.686   6.522  10.732 -0.0988  0.3637 -1.5596
16543TIP3   OH271119   0.540   0.836  14.763  0.4595  0.0944  0.1175
16543TIP3    H171120   0.493   0.813  14.683  0.9959  1.8048 -0.7216
16543TIP3    H271121   0.619   0.782  14.760  0.6945  0.4727 -0.7533
16544TIP3   OH271122   5.271   4.313  16.118 -0.0889  0.6315 -0.5565
16544TIP3    H171123   5.177   4.313  16.104 -0.1828 -0.2158  0.0677
16544TIP3    H271124   5.284   4.266  16.200  0.8439  1.1850 -0.3725
16545TIP3   OH271125   2.862   5.644   3.451  0.4995 -0.0336  0.5539
16545TIP3    H171126   2.933   5.581   3.467 -1.3728 -2.0517  1.1633
16545TIP3    H271127   2.841   5.679   3.538  0.6914  0.5074  0.3845
16546TIP3   OH271128   3.794   1.315   0.217 -0.1333  0.0550  0.1492
16546TIP3    H171129   3.700   1.296   0.219  0.1290 -1.2097  0.6983
16546TIP3    H271130   3.799   1.410   0.215 -1.4315  0.1289  0.0447
16547TIP3   OH271131   6.507   4.770  12.404 -0.1196 -0.1173  0.2772
16547TIP3    H171132   6.441   4.705  12.381 -1.8673  0.6245  2.9311
16547TIP3    H271133   6.457   4.848  12.428  1.9220  2.1327 -2.4495
16548TIP3   OH271134   3.899   4.001  14.314  0.1099  0.2307  0.3018
16548TIP3    H171135   3.842   4.077  14.316  0.8477  0.9104 -2.8304
16548TIP3    H271136   3.871   3.952  14.237  2.0116 -0.8196  0.2553
16549TIP3   OH271137   2.071   6.740   6.399  0.6447  0.3405  0.3125
16549TIP3    H171138   2.099   6.828   6.374 -2.4773  1.1106 -0.6542
16549TIP3    H271139   2.071   6.691   6.317 -1.1793  0.4753  0.2204
16550TIP3   OH271140   1.372   6.260   0.102  0.0320  0.1574 -0.2952
16550TIP3    H171141   1.458   6.302   0.105  0.1714 -0.2259  1.3908
16550TIP3    H271142   1.312   6.328   0.132  0.3033 -0.8967  2.8213
16551TIP3   OH271143   1.019   5.871  14.478  0.1511 -0.4554 -0.2394
16551TIP3    H171144   1.069   5.944  14.515  2.2083 -1.5126 -0.8401
16551TIP3    H271145   1.056   5.859  14.390 -1.1067 -1.3233 -0.6658
16552TIP3   OH271146   5.444   2.602   4.302  0.7902 -0.2684 -0.1897
16552TIP3    H171147   5.445   2.677   4.361  2.6623 -0.2176 -0.2525
16552TIP3    H271148   5.351   2.582   4.290  0.3484 -0.3205  2.8104
16553TIP3   OH271149   0.687   3.421  13.596  0.5760  0.0176 -0.1194
16553TIP3    H171150   0.717   3.463  13.516  1.1059  0.2078  0.1773
16553TIP3    H271151   0.767   3.394  13.641  0.2400 -1.7285 -0.5300
16554TIP3   OH271152   0.369   5.917   1.981 -0.0271  0.0488  0.5274
16554TIP3    H171153   0.444   5.891   2.036  0.4287 -0.9074 -0.5401
16554TIP3    H271154   0.366   6.012   1.989  0.7828  0.0218  1.2524
16555TIP3   OH271155   0.044   2.503  16.742  0.2791  0.1241 -0.0515
16555TIP3    H171156   0.111   2.524  16.678 -0.7302  2.2712 -0.4616
16555TIP3    H271157   0.073   2.547  16.822  0.5781 -0.9575  0.4353
16556TIP3   OH271158   0.733   3.240   5.118 -0.2791  0.1901  0.0572
16556TIP3    H171159   0.659   3.299   5.130 -0.4719 -0.1974  0.7906
16556TIP3    H271160   0.804   3.296   5.086 -1.0107  0.4863 -1.0668
16557TIP3   OH271161   2.927   5.839  12.714 -0.2899 -0.6054 -0.5171
16557TIP3    H171162   2.953   5.921  12.754 -0.5176 -0.5626 -0.4550
16557TIP3    H271163   2.933   5.855  12.620 -0.2443 -0.5465 -0.5043
16558TIP3   OH271164   0.757   2.005   4.771  0.2398 -0.6020  0.6391
16558TIP3    H171165   0.819   1.995   4.700  0.7177 -0.2620  1.0107
16558TIP3    H271166   0.811   2.018   4.849 -0.2628 -1.4002  1.1329
16559TIP3   OH271167   4.226   0.412  13.893 -0.0214 -0.1140 -0.9159
16559TIP3    H171168   4.248   0.355  13.967 -0.1866 -0.1071 -0.8595
16559TIP3    H271169   4.133   0.433  13.907 -0.1617 -0.4550 -1.3552
16560TIP3   OH271170   5.147   1.549  17.053  0.5397 -0.1680 -0.3498
16560TIP3    H171171   5.226   1.539  17.107 -1.3049  0.5893  2.6393
16560TIP3    H271172   5.124   1.459  17.029  0.7885 -0.6493  1.1060
16561TIP3   OH271173   5.456   3.243   0.944  0.3081  0.2556 -0.0994
16561TIP3    H171174   5.416   3.250   0.857 -0.2562  0.1963  0.1516
16561TIP3    H271175   5.465   3.333   0.974  1.9984  0.3759 -0.8803
16562TIP3   OH271176   2.933   3.648   4.731  0.7395  0.4086 -0.6156
16562TIP3    H171177   2.875   3.696   4.790  2.3313  1.8717 -0.1958
16562TIP3    H271178   2.957   3.569   4.780  1.4475  1.2459  0.4100
16563TIP3   OH271179   2.878   5.746   0.796  0.0825 -0.2572 -0.1753
16563TIP3    H171180   2.855   5.680   0.730 -1.0425  0.0251 -0.0796
16563TIP3    H271181   2.953   5.792   0.759 -0.1774 -0.4907 -1.0019
16564TIP3   OH271182   6.196   1.558  13.495 -0.3181 -0.0581 -1.0380
16564TIP3    H171183   6.141   1.497  13.544 -1.2278  1.4322 -0.1361
16564TIP3    H271184   6.135   1.605  13.438  0.1811  0.7780 -0.9049
16565TIP3   OH271185   0.679   1.048  12.554 -0.3280 -0.0525  0.3104
16565TIP3    H171186   0.672   0.955  12.576  1.9588 -0.2626  0.3587
16565TIP3    H271187   0.633   1.093  12.624  1.6427 -0.9963  2.2866
16566TIP3   OH271188   1.197   3.075  12.365  0.2252 -0.3961  0.0027
16566TIP3    H171189   1.103   3.086  12.372  0.3609 -1.2116  4.3342
16566TIP3    H271190   1.213   2.983  12.385  1.8956 -0.3647 -1.0993
16567TIP3   OH271191   3.312   3.455  16.793 -0.4167 -0.0720  0.0473
16567TIP3    H171192   3.263   3.403  16.729 -1.8107 -0.1189  1.1374
16567TIP3    H271193   3.253   3.464  16.867  1.2325 -0.1206  1.4000
16568TIP3   OH271194   2.743   4.983   0.774 -0.6549 -0.4169 -0.0221
16568TIP3    H171195   2.801   5.041   0.726 -1.3193  0.2140 -0.0695
16568TIP3    H271196   2.667   5.037   0.796 -1.1523 -1.1836  0.1737
16569TIP3   OH271197   3.916   1.154  11.858  0.1855  0.0766  0.0100
16569TIP3    H171198   3.963   1.132  11.938  0.6127 -0.6679 -0.4364
16569TIP3    H271199   3.860   1.228  11.882  1.0480  0.5017  0.7318
16570TIP3   OH271200   1.941   2.733  13.445  0.8328  0.5246  0.6790
16570TIP3    H171201   1.967   2.824  13.426 -0.5345  1.0356  1.1746
16570TIP3    H271202   2.023   2.690  13.471  1.9388  0.9477 -1.9407
16571TIP3   OH271203   6.506   1.689   6.578 -0.0726 -0.4590  0.7727
16571TIP3    H171204   6.453   1.610   6.587 -0.6676 -0.2665 -0.8519
16571TIP3    H271205   6.472   1.732   6.499  2.3742 -0.2313 -0.1995
16572TIP3   OH271206   1.626   3.831  15.188 -0.0920  0.5267 -0.4910
16572TIP3    H171207   1.703   3.880  15.159 -0.1880  1.7402  1.2934
16572TIP3    H271208   1.635   3.825  15.283 -0.8360 -1.6523 -0.5261
16573TIP3   OH271209   4.038   3.568   5.590 -0.8826 -0.1599  0.0389
16573TIP3    H171210   3.990   3.650   5.604  0.1683  0.9816 -2.6351
16573TIP3    H271211   4.125   3.597   5.560 -0.5321 -2.2518 -1.0345
16574TIP3   OH271212   5.213   5.347  12.436 -0.0518 -0.3920  0.1562
16574TIP3    H171213   5.133   5.396  12.457  0.4559  0.6111 -0.1888
16574TIP3    H271214   5.209   5.334  12.341 -0.5407 -1.6749  0.3462
16575TIP3   OH271215   5.104   2.083   4.180  0.0909  0.0990  0.3273
16575TIP3    H171216   5.087   2.098   4.273 -0.1511 -0.9268  0.4609
16575TIP3    H271217   5.099   1.988   4.170 -2.5770  0.3376 -1.2520
16576TIP3   OH271218   1.637   1.000  12.186 -0.5144 -0.0017 -0.3987
16576TIP3    H171219   1.684   1.080  12.163 -0.7492  0.5605  0.9911
16576TIP3    H271220   1.568   1.030  12.245 -0.8967 -1.1788 -0.2395
16577TIP3   OH271221   4.034   0.478  14.347  0.0264 -0.0423 -0.1278
16577TIP3    H171222   4.120   0.519  14.349  0.8814 -1.7787  0.0553
16577TIP3    H271223   3.998   0.492  14.435  1.0651 -1.2094  0.5029
16578TIP3   OH271224   6.535   3.569  11.175 -0.7165 -0.1396  0.1783
16578TIP3    H171225   6.568   3.498  11.230  1.0633  0.8639  0.4328
16578TIP3    H271226   6.443   3.547  11.160 -0.2414 -2.3733  0.4306
16579TIP3   OH271227   3.834   4.803  14.291  0.3869 -0.0081 -0.2043
16579TIP3    H171228   3.901   4.862  14.326  1.0792 -0.8304 -0.1191
16579TIP3    H271229   3.837   4.727  14.348 -1.6518  0.5574  0.6644
16580TIP3   OH271230   5.512   3.914   5.531 -0.1788  0.1975 -0.4067
16580TIP3    H171231   5.524   4.008   5.518  1.2734  0.3041  1.3948
16580TIP3    H271232   5.453   3.887   5.462 -0.6816  2.4661 -0.8969
16581TIP3   OH271233   2.232   5.693  14.944  0.0695 -0.4901  0.5607
16581TIP3    H171234   2.156   5.725  14.994  0.2863  0.8471  0.0677
16581TIP3    H271235   2.304   5.696  15.007 -0.5679 -3.2664  1.4839
16582TIP3   OH271236   4.366   1.897   0.693 -0.0987 -0.5184  0.8206
16582TIP3    H171237   4.345   1.863   0.781  1.5134  1.4458  2.0117
16582TIP3    H271238   4.460   1.915   0.696 -0.1135 -0.0059 -1.1938
16583TIP3   OH271239   5.255   3.503   1.443  0.4053 -0.0369  0.1583
16583TIP3    H171240   5.283   3.437   1.381  0.8452  0.2642  0.0408
16583TIP3    H271241   5.319   3.573   1.436  0.2710  0.1489  0.7061
16584TIP3   OH271242   5.132   3.390   0.061  0.1857 -0.4531 -0.1652
16584TIP3    H171243   5.080   3.436   0.128 -0.3479 -0.6633 -0.4307
16584TIP3    H271244   5.085   3.307   0.048 -1.6416  1.0033 -3.2554
16585TIP3   OH271245   5.654   5.606  16.925  0.5653  0.5360  0.4861
16585TIP3    H171246   5.720   5.669  16.950 -0.2634  3.1329 -3.3796
16585TIP3    H271247   5.575   5.633  16.973  0.9549  0.7018  1.0300
16586TIP3   OH271248   4.521   5.855  12.624  0.9795  0.2281  0.0883
16586TIP3    H171249   4.543   5.899  12.706 -4.2057  2.7904  0.2848
16586TIP3    H271250   4.529   5.761  12.645  0.7886  0.8354  3.2072
16587TIP3   OH271251   2.230   6.415  17.149 -0.2116  0.2972  0.1702
16587TIP3    H171252   2.311   6.413  17.098 -1.1874 -0.5876 -1.3696
16587TIP3    H271253   2.160   6.425  17.084 -1.6557 -2.9618  1.1303
16588TIP3   OH271254   2.783   0.577   5.972  0.2399 -0.2272  0.6543
16588TIP3    H171255   2.754   0.585   6.063  0.7317  2.0065  0.6410
16588TIP3    H271256   2.878   0.570   5.978  0.6746  4.1539  0.1599
16589TIP3   OH271257   2.342   5.160  14.495 -0.3616 -0.4241 -0.5285
16589TIP3    H171258   2.396   5.091  14.533  1.3282  1.0413 -0.1999
16589TIP3    H271259   2.332   5.135  14.404 -1.3189 -2.0578  0.0211
16590TIP3   OH271260   2.617   3.488   0.488 -0.1732  0.8944 -0.8353
16590TIP3    H171261   2.555   3.417   0.471  0.3445  0.4339 -0.8138
16590TIP3    H271262   2.673   3.456   0.558  0.0836  1.3164 -0.8414
16591TIP3   OH271263   2.390   0.635   0.319  0.7830 -0.1622 -0.0545
16591TIP3    H171264   2.304   0.626   0.359  1.0396 -1.1274  0.3000
16591TIP3    H271265   2.415   0.726   0.334  0.3898 -0.2314  0.9879
16592TIP3   OH271266   0.337   2.628  16.755  0.0099 -0.4357  0.0715
16592TIP3    H171267   0.356   2.540  16.789 -0.7123 -0.5747  0.1331
16592TIP3    H271268   0.321   2.681  16.833 -0.3795 -0.4508  0.0046
16593TIP3   OH271269   0.406   2.048  10.659 -0.0353  0.1066  0.5742
16593TIP3    H171270   0.381   2.072  10.570 -0.3850  0.4574  0.7637
16593TIP3    H271271   0.458   2.123  10.689 -3.2807  1.8653  2.0982
16594TIP3   OH271272   5.871   4.516   0.724 -0.0500  0.0125  0.5090
16594TIP3    H171273   5.814   4.562   0.662  0.9408 -0.1425 -0.5255
16594TIP3    H271274   5.902   4.585   0.783 -2.5299 -0.1393  2.0688
16595TIP3   OH271275   1.273   2.729   4.206  1.2486  0.2398  0.1221
16595TIP3    H171276   1.207   2.681   4.156  0.4655  0.5314  0.8759
16595TIP3    H271277   1.319   2.663   4.257  1.0118  0.1337  0.1973
16596TIP3   OH271278   6.716   1.316   0.756  0.1762  0.2506  0.1665
16596TIP3    H171279   6.782   1.272   0.810 -0.5121 -1.1656 -0.1110
16596TIP3    H271280   6.653   1.247   0.735 -2.2569  1.8856  1.7489
16597TIP3   OH271281   2.553   4.274  13.959 -0.6741 -0.1110  0.1067
16597TIP3    H171282   2.575   4.244  13.871  0.6048  1.1690 -0.0307
16597TIP3    H271283   2.479   4.333  13.946 -0.4391  0.1336 -0.1230
16598TIP3   OH271284   4.295   2.819   0.055  0.3139  0.2851  0.3034
16598TIP3    H171285   4.243   2.742   0.080 -2.3543  1.9305 -0.0112
16598TIP3    H271286   4.335   2.848   0.137  3.6176 -2.9901 -0.0143
16599TIP3   OH271287   1.085   5.627   0.819 -0.1037 -0.0084 -0.0337
16599TIP3    H171288   1.165   5.617   0.870 -0.1579  0.2390  0.1005
16599TIP3    H271289   1.037   5.545   0.833 -0.6036  0.4733  1.1593
16600TIP3   OH271290   4.582   4.968   3.291 -0.0085 -0.0617 -0.1388
16600TIP3    H171291   4.570   5.017   3.210 -0.3190  0.1115  0.0110
16600TIP3    H271292   4.568   4.876   3.266 -1.2196  0.0904 -0.0580
16601TIP3   OH271293   2.509   4.081   4.021  0.1110  0.6545 -0.0072
16601TIP3    H171294   2.580   4.047   4.075 -0.2183  0.0773  0.0597
16601TIP3    H271295   2.466   4.146   4.077 -1.1523 -0.9990  0.9763
16602TIP3   OH271296   4.890   3.135  13.617 -0.4843 -0.1194 -0.1443
16602TIP3    H171297   4.843   3.067  13.665 -2.0760  0.9072 -0.2193
16602TIP3    H271298   4.821   3.192  13.582  0.7803  0.9369 -0.9709
16603TIP3   OH271299   4.455   5.506  14.702 -0.0216  0.2221 -0.0056
16603TIP3    H171300   4.423   5.499  14.792  1.4279  0.6539  0.5587
16603TIP3    H271301   4.393   5.564  14.658 -0.0701  0.9823  1.0551
16604TIP3   OH271302   1.784   3.055  15.711  0.2639  0.2498 -0.3919
16604TIP3    H171303   1.859   3.002  15.739  0.9006  2.1577  1.7118
16604TIP3    H271304   1.717   3.037  15.777  0.3329  1.7146  0.0777
16605TIP3   OH271305   3.139   3.408   3.732 -0.1018  0.6641  0.1185
16605TIP3    H171306   3.100   3.488   3.766 -1.8234  0.0458 -0.3131
16605TIP3    H271307   3.072   3.372   3.673  0.0623 -1.7918  1.3769
16606TIP3   OH271308   0.042   5.440  12.373  0.3460 -0.2349  0.0708
16606TIP3    H171309   0.107   5.495  12.416  0.3177 -1.3806  1.5944
16606TIP3    H271310   0.093   5.382  12.317  0.5721 -0.4890  0.5368
16607TIP3   OH271311   5.828   6.334  14.790 -0.5905  0.7628 -0.3202
16607TIP3    H171312   5.743   6.345  14.748 -1.1490  1.7110  1.0050
16607TIP3    H271313   5.877   6.413  14.765 -0.0506  0.1533 -1.1913
16608TIP3   OH271314   4.667   5.580   5.167  0.7886  0.1420  0.3486
16608TIP3    H171315   4.608   5.534   5.108  0.2179  0.0590  0.9752
16608TIP3    H271316   4.613   5.647   5.208  1.9548  2.4535 -1.6980
16609TIP3   OH271317   0.682   0.176  16.689  0.6216 -0.9800  0.2727
16609TIP3    H171318   0.759   0.187  16.633  0.7446 -1.3258  0.3719
16609TIP3    H271319   0.622   0.245  16.661  1.3533 -0.0902  0.8456
16610TIP3   OH271320   2.190   0.914   3.425  0.1652  0.0564  0.0472
16610TIP3    H171321   2.210   0.981   3.360 -0.9330  1.5672  1.2313
16610TIP3    H271322   2.094   0.917   3.433  0.1720 -1.1232  0.6704
16611TIP3   OH271323   2.078   3.749  16.063 -0.7726  0.0448 -0.3789
16611TIP3    H171324   2.052   3.729  16.153 -0.9651  1.4392 -0.1189
16611TIP3    H271325   1.997   3.779  16.021 -0.8479 -1.2741 -1.2367
16612TIP3   OH271326   0.216   2.571  15.698 -0.3187  0.3623  0.5916
16612TIP3    H171327   0.251   2.645  15.748 -1.2906  0.6876  0.7902
16612TIP3    H271328   0.205   2.502  15.762 -1.8695  0.8827  0.8890
16613TIP3   OH271329   3.036   4.796  17.064 -0.8643  0.4955  0.8888
16613TIP3    H171330   3.057   4.712  17.106  0.0425  0.1251 -0.2892
16613TIP3    H271331   3.121   4.835  17.044 -1.2634  0.5686 -0.7606
16614TIP3   OH271332   1.047   2.308  16.877 -0.3708 -0.0353 -0.3683
16614TIP3    H171333   1.105   2.260  16.935 -1.3292  0.6912  1.2153
16614TIP3    H271334   1.018   2.243  16.813  2.0228 -0.4383 -1.0913
16615TIP3   OH271335   5.314   6.073   1.699  0.2988  0.2383  0.4416
16615TIP3    H171336   5.342   6.098   1.611 -0.1336  0.1468  0.2773
16615TIP3    H271337   5.379   6.008   1.727 -0.7152 -1.2929 -0.6244
16616TIP3   OH271338   1.130   4.672  14.348  0.6388  0.3314 -0.0999
16616TIP3    H171339   1.126   4.765  14.369 -0.8071 -0.0039  1.2389
16616TIP3    H271340   1.142   4.628  14.432 -1.3514 -0.8210 -0.3620
16617TIP3   OH271341   0.203   2.009  11.853 -0.3601  0.0727 -0.3775
16617TIP3    H171342   0.229   1.995  11.944  1.3216 -1.3869 -1.0307
16617TIP3    H271343   0.260   2.079  11.823  0.2383 -0.5570 -0.7437
16618TIP3   OH271344   4.865   4.843   1.233  0.6039  0.2269 -0.0316
16618TIP3    H171345   4.847   4.857   1.326  1.2604  0.0855  0.1235
16618TIP3    H271346   4.780   4.823   1.194  0.2196  0.9603  0.4174
16619TIP3   OH271347   4.990   1.007  12.878 -0.0136 -0.0401 -0.1980
16619TIP3    H171348   4.921   0.952  12.915  2.0386 -2.9925 -0.6127
16619TIP3    H271349   4.961   1.028  12.790 -0.7489 -0.5935 -0.0857
16620TIP3   OH271350   2.160   0.173   0.013 -0.2253 -0.1102 -0.1326
16620TIP3    H171351   2.146   0.217   0.097  0.3841  1.4783 -0.8321
16620TIP3    H271352   2.239   0.121   0.026  0.1231  0.4832  0.1434
16621TIP3   OH271353   6.594   4.370   6.481 -0.4529  0.4906 -0.3930
16621TIP3    H171354   6.640   4.440   6.527  1.2108 -2.2669  2.3023
16621TIP3    H271355   6.503   4.378   6.510  0.0137  0.6181  1.0442
16622TIP3   OH271356   1.057   2.625  12.805  0.5179  0.3327 -0.0111
16622TIP3    H171357   1.093   2.706  12.769  1.6847 -0.4907 -0.7287
16622TIP3    H271358   0.962   2.640  12.807  0.4265  0.5901 -3.0456
16623TIP3   OH271359   5.504   5.933   4.032  0.3429 -0.6567  0.3654
16623TIP3    H171360   5.517   5.873   4.106  1.1451  1.4438  1.9583
16623TIP3    H271361   5.574   5.998   4.041 -0.6927  0.7077 -1.1650
16624TIP3   OH271362   5.898   5.161   1.278  0.0960  0.2154 -0.0450
16624TIP3    H171363   5.895   5.219   1.355  0.1978  0.3411 -0.1358
16624TIP3    H271364   5.856   5.081   1.308  1.0928 -0.1321  0.4842
16625TIP3   OH271365   4.625   6.624   3.807  0.2023  0.0169 -0.0091
16625TIP3    H171366   4.715   6.622   3.841  0.7622 -3.0365 -1.4859
16625TIP3    H271367   4.631   6.673   3.725  1.0361 -2.1968 -1.3179
16626TIP3   OH271368   0.630   0.278  15.327  0.3661 -0.0361 -0.3458
16626TIP3    H171369   0.610   0.235  15.244 -1.0538 -0.3821  0.1561
16626TIP3    H271370   0.553   0.332  15.346 -0.0021 -1.1452  1.4834
16627TIP3   OH271371   2.164   4.475   1.357 -0.0109  0.4203 -0.0737
16627TIP3    H171372   2.175   4.533   1.282  0.1771 -0.1234 -0.4713
16627TIP3    H271373   2.069   4.469   1.369 -0.0921 -0.5619 -1.1206
16628TIP3   OH271374   4.569   0.047   2.603  0.1381  0.2737  0.2358
16628TIP3    H171375   4.643   0.073   2.658 -1.6590  1.2039  2.2767
16628TIP3    H271376   4.509   0.002   2.663 -0.3318 -1.7619 -1.6808
16629TIP3   OH271377   1.005   5.116  17.084 -0.3571  0.2996 -1.2083
16629TIP3    H171378   1.068   5.048  17.058 -1.9622 -1.1104 -1.4929
16629TIP3    H271379   0.921   5.084  17.053 -1.3615  1.7358 -0.0362
16630TIP3   OH271380   1.538   5.828  12.198 -0.0872  0.1642  0.4289
16630TIP3    H171381   1.492   5.794  12.122 -1.5210  1.0865  0.8674
16630TIP3    H271382   1.601   5.890  12.163 -0.4777  0.2990 -0.0329
16631TIP3   OH271383   3.144   6.297  14.260  0.5123  0.1617 -0.1967
16631TIP3    H171384   3.174   6.292  14.351  0.1860 -1.4347 -0.1652
16631TIP3    H271385   3.114   6.208  14.240 -0.1077  0.6852 -1.6268
16632TIP3   OH271386   5.948   4.263   1.410 -0.3307  0.0255  0.3749
16632TIP3    H171387   5.946   4.336   1.473  1.1994 -0.1011  0.5888
16632TIP3    H271388   5.993   4.298   1.334  0.9375 -0.8624  0.7043
16633TIP3   OH271389   2.536   2.387  13.143  0.1405  0.4301 -0.4599
16633TIP3    H171390   2.457   2.362  13.095  0.1713  0.4186 -0.5045
16633TIP3    H271391   2.606   2.336  13.102  0.7040  2.7701 -2.5106
16634TIP3   OH271392   3.892   2.808  16.543 -0.1253 -0.2830 -0.3842
16634TIP3    H171393   3.811   2.758  16.533 -0.4937  0.5703 -1.7654
16634TIP3    H271394   3.935   2.800  16.458  0.3943  0.7427 -0.2169
16635TIP3   OH271395   6.052   4.410   1.960  0.1500  0.4650 -0.4023
16635TIP3    H171396   5.984   4.474   1.983  0.7145  1.0424 -0.3378
16635TIP3    H271397   6.030   4.384   1.870  0.0378  0.9030 -0.5055
16636TIP3   OH271398   6.674   6.444   1.707  0.3108 -0.5903 -0.2433
16636TIP3    H171399   6.637   6.499   1.638  0.1848  0.1867  0.4287
16636TIP3    H271400   6.690   6.360   1.665  0.5025 -0.0381 -1.2922
16637TIP3   OH271401   6.103   0.449   5.674  0.0606  0.0277  0.0919
16637TIP3    H171402   6.050   0.419   5.748 -1.0253  0.4231 -0.5119
16637TIP3    H271403   6.123   0.370   5.625  1.1747 -0.2991  1.0432
16638TIP3   OH271404   3.337   0.149  12.853  0.6769  0.2708 -0.0219
16638TIP3    H171405   3.296   0.068  12.882  0.3953  0.3630 -0.1651
16638TIP3    H271406   3.265   0.204  12.823  0.7097  1.1800  1.5463
16639TIP3   OH271407   2.805   4.234   5.049 -0.3736 -0.0059 -0.3486
16639TIP3    H171408   2.720   4.194   5.065 -0.8704  1.4980  0.9067
16639TIP3    H271409   2.868   4.168   5.079 -1.1190 -0.6815 -0.2366
16640TIP3   OH271410   4.458   3.497  15.035 -0.0382  0.2961 -0.6370
16640TIP3    H171411   4.370   3.530  15.018 -0.3023 -0.9531 -1.7885
16640TIP3    H271412   4.483   3.454  14.954  1.2404 -0.2316  0.0275
16641TIP3   OH271413   3.259   1.025  14.124  0.5422 -0.1315 -0.0966
16641TIP3    H171414   3.191   0.997  14.062  1.8386 -1.4081 -0.9409
16641TIP3    H271415   3.297   1.103  14.083  0.0694  0.1710  0.0369
16642TIP3   OH271416   0.184   2.915   2.535 -0.2221 -0.2296  0.1261
16642TIP3    H171417   0.242   2.915   2.459 -2.6679  0.0410 -1.8113
16642TIP3    H271418   0.124   2.842   2.520 -1.9771  1.0266  0.8078
16643TIP3   OH271419   4.313   1.290  13.969 -0.4079 -0.4408  0.1672
16643TIP3    H171420   4.231   1.325  14.004 -0.6604 -0.6680 -0.1958
16643TIP3    H271421   4.381   1.348  14.004 -0.7402 -0.1441  0.3218
16644TIP3   OH271422   1.246   4.299   1.182 -0.1165  0.4978 -0.0237
16644TIP3    H171423   1.158   4.275   1.151 -0.1162 -0.0922  0.4240
16644TIP3    H271424   1.306   4.246   1.129 -0.1731 -1.7356  2.0240
16645TIP3   OH271425   4.884   1.396  15.840 -0.5778  0.1239  0.4775
16645TIP3    H171426   4.955   1.347  15.798 -1.8012 -1.7673  0.5797
16645TIP3    H271427   4.902   1.488  15.818  1.0556 -0.4723 -0.7502
16646TIP3   OH271428   5.425   3.904  15.722 -0.3084 -0.4793  0.2633
16646TIP3    H171429   5.504   3.958  15.728 -0.7693  0.0228  2.4102
16646TIP3    H271430   5.452   3.818  15.755 -0.2368 -0.8065 -0.6373
16647TIP3   OH271431   1.755   4.350  16.272 -0.5226 -0.0013 -0.3590
16647TIP3    H171432   1.769   4.403  16.194 -1.1586  1.3580  0.4507
16647TIP3    H271433   1.677   4.387  16.313 -1.0273 -1.6099  0.1741
16648TIP3   OH271434   4.260   5.439  17.169 -0.1835  0.0564  0.1387
16648TIP3    H171435   4.236   5.472  17.256 -0.1576 -0.2659  0.2715
16648TIP3    H271436   4.312   5.360  17.187  0.3859  0.3552 -0.1564
16649TIP3   OH271437   4.362   6.700   3.624 -0.2246  0.2113 -0.6620
16649TIP3    H171438   4.404   6.648   3.556 -1.0247 -0.8855 -0.3328
16649TIP3    H271439   4.414   6.781   3.629 -0.4892  0.5330 -2.9209
16650TIP3   OH271440   2.922   2.947  12.154 -0.0152  0.1059 -0.3921
16650TIP3    H171441   2.903   2.871  12.099  1.2178 -0.4045 -0.1365
16650TIP3    H271442   3.007   2.979  12.122  1.2392 -0.8254  1.8655
16651TIP3   OH271443   3.915   3.851   3.000  0.0231  0.6409  0.1074
16651TIP3    H171444   3.848   3.808   2.947  1.3254 -0.9898 -0.2367
16651TIP3    H271445   3.994   3.800   2.986  1.3080  2.4167  0.6826
16652TIP3   OH271446   6.479   4.944  14.092  0.5339 -0.4062  0.1231
16652TIP3    H171447   6.459   4.894  14.171 -0.5604 -0.5532 -0.2449
16652TIP3    H271448   6.486   4.879  14.023 -0.4296 -0.1004 -0.2657
16653TIP3   OH271449   5.369   6.581   5.744  0.0374 -0.2988 -0.3123
16653TIP3    H171450   5.316   6.502   5.736  0.6539 -0.8525  0.9588
16653TIP3    H271451   5.319   6.639   5.801 -0.3635  0.1856 -1.1555
16654TIP3   OH271452   3.231   5.756   3.340 -0.0093 -0.2066 -0.1497
16654TIP3    H171453   3.205   5.845   3.365 -0.6580 -0.5964  0.5690
16654TIP3    H271454   3.327   5.759   3.339 -0.0286  0.7189 -0.9302
16655TIP3   OH271455   2.252   1.343  11.794 -0.7035  0.5709 -0.0352
16655TIP3    H171456   2.195   1.403  11.747 -1.5800  0.8708  1.3738
16655TIP3    H271457   2.310   1.400  11.844 -0.6585  0.2573  0.2726
16656TIP3   OH271458   4.388   2.712  13.158 -0.0224  0.2922  0.2455
16656TIP3    H171459   4.359   2.656  13.231 -0.3174 -0.5773 -0.5234
16656TIP3    H271460   4.321   2.781  13.153 -2.4385 -2.0831 -1.9586
16657TIP3   OH271461   3.583   4.314   1.212 -0.1652 -0.5429  0.3707
16657TIP3    H171462   3.517   4.246   1.224 -1.5480  0.8943  1.1065
16657TIP3    H271463   3.565   4.377   1.282  0.3878  1.1225 -0.9666
16658TIP3   OH271464   4.314   4.682   2.959  0.5566  0.2504  1.0452
16658TIP3    H171465   4.311   4.640   3.045 -0.8304  0.9546  1.3487
16658TIP3    H271466   4.336   4.773   2.978 -1.8864  0.9026  0.8436
16659TIP3   OH271467   1.141   2.838   5.830  0.1292  0.6000 -0.3740
16659TIP3    H171468   1.123   2.776   5.900  0.5709 -0.7540 -1.4308
16659TIP3    H271469   1.236   2.835   5.817  0.0465  0.7753 -1.0811
16660TIP3   OH271470   6.122   6.410   4.011 -0.1028 -0.5884  0.6590
16660TIP3    H171471   6.107   6.327   3.966 -0.3432  0.8058 -1.9202
16660TIP3    H271472   6.207   6.400   4.053 -1.1429 -2.9331  2.2912
16661TIP3   OH271473   0.245   4.722  13.212  0.1573 -0.0126  0.1954
16661TIP3    H171474   0.187   4.798  13.214  0.6252  0.3275  1.3359
16661TIP3    H271475   0.327   4.753  13.252  1.1741 -0.4552 -1.5280
16662TIP3   OH271476   1.523   1.126   4.424 -0.8191  0.2305  0.1644
16662TIP3    H171477   1.520   1.218   4.450 -2.5009  0.3675 -0.4081
16662TIP3    H271478   1.517   1.078   4.507  1.1880  0.6100  0.5507
16663TIP3   OH271479   5.086   0.417  13.548  0.0994  0.1058 -0.0534
16663TIP3    H171480   5.063   0.489  13.490  1.4292 -0.6526 -1.5720
16663TIP3    H271481   5.074   0.338  13.495  0.2875 -0.6789  1.0432
16664TIP3   OH271482   1.053   6.164   5.170 -0.0856 -0.5104 -0.2654
16664TIP3    H171483   0.969   6.205   5.151 -0.1888 -0.8019 -0.4369
16664TIP3    H271484   1.088   6.214   5.244  0.8210  1.3477 -1.9004
16665TIP3   OH271485   4.303   4.933  16.728  0.1083 -0.8235  0.5659
16665TIP3    H171486   4.358   4.966  16.799 -0.2845 -1.7611  1.3297
16665TIP3    H271487   4.240   5.003  16.712  1.5145  0.2505 -0.3130
16666TIP3   OH271488   1.555   4.864   5.070 -0.5398 -0.4532  0.2928
16666TIP3    H171489   1.467   4.840   5.042  0.1579 -1.4185 -1.1164
16666TIP3    H271490   1.579   4.938   5.013  0.3910 -1.6011 -0.8191
16667TIP3   OH271491   5.448   5.313  11.929 -0.2236 -0.3665  0.1760
16667TIP3    H171492   5.361   5.283  11.904 -0.4433  0.1938  0.2584
16667TIP3    H271493   5.482   5.357  11.851  0.2717 -1.2015 -0.0868
16668TIP3   OH271494   2.727   0.827   6.499 -0.4340 -0.4686 -0.6093
16668TIP3    H171495   2.715   0.774   6.419 -0.4060 -2.5262  0.7005
16668TIP3    H271496   2.813   0.866   6.490 -2.1059  2.8647 -3.5524
16669TIP3   OH271497   2.105   5.375  12.059 -0.0562 -0.0940  0.0054
16669TIP3    H171498   2.058   5.447  12.101  1.2597 -0.1521  1.6233
16669TIP3    H271499   2.148   5.329  12.131 -0.0134 -1.8694 -1.1329
16670TIP3   OH271500   4.166   3.582  11.628 -0.4621 -0.2426 -0.5959
16670TIP3    H171501   4.220   3.656  11.601 -0.3697 -0.1522 -0.1775
16670TIP3    H271502   4.111   3.564  11.553  0.3312 -0.5059 -1.1163
16671TIP3   OH271503   4.977   2.595   0.959  0.0739 -0.7459  0.4865
16671TIP3    H171504   4.964   2.608   1.053 -1.2609 -1.0188  0.3425
16671TIP3    H271505   4.943   2.507   0.942 -0.3599 -0.4111 -0.3816
16672TIP3   OH271506   2.250   1.174   0.939  0.0481 -0.1540 -0.1609
16672TIP3    H171507   2.240   1.101   0.877  0.8244  0.1078 -0.5969
16672TIP3    H271508   2.344   1.177   0.958 -0.1359 -0.0057  0.7686
16673TIP3   OH271509   2.802   3.756   5.000  0.3701 -0.1840 -0.6546
16673TIP3    H171510   2.720   3.717   5.029  0.0544  0.4634 -0.6794
16673TIP3    H271511   2.868   3.722   5.062 -0.5687  2.6605  2.0298
16674TIP3   OH271512   4.808   2.703   2.921 -0.7059  0.3306  0.0335
16674TIP3    H171513   4.775   2.740   2.839 -1.0433  1.1780  0.5429
16674TIP3    H271514   4.839   2.616   2.897  0.5755  1.1313 -1.2950
16675TIP3   OH271515   0.740   2.475   2.437  0.1247 -0.1384 -0.1825
16675TIP3    H171516   0.647   2.476   2.414  0.4548 -2.6531 -1.8011
16675TIP3    H271517   0.785   2.460   2.354  1.8404 -1.1165  0.8996
16676TIP3   OH271518   1.283   3.717  16.632 -0.2192  0.0034 -0.0008
16676TIP3    H171519   1.241   3.797  16.664 -0.4458  1.1542 -3.0422
16676TIP3    H271520   1.210   3.657  16.615 -0.1714 -0.2054  0.5077
16677TIP3   OH271521   3.271   3.746  15.173 -0.0554  0.6094 -0.1313
16677TIP3    H171522   3.253   3.802  15.097 -2.4763 -0.2895 -0.2585
16677TIP3    H271523   3.276   3.658  15.138 -1.6716  0.1284  0.7964
16678TIP3   OH271524   3.961   3.173   6.116 -0.3617 -0.4318 -0.4094
16678TIP3    H171525   3.910   3.233   6.062 -0.0191 -0.1856 -0.4616
16678TIP3    H271526   3.895   3.118   6.160 -0.6678 -0.1259 -0.4833
16679TIP3   OH271527   2.331   2.511  16.983 -0.0153  0.2833  0.2888
16679TIP3    H171528   2.423   2.493  16.962 -0.3188  0.4181 -1.1464
16679TIP3    H271529   2.334   2.541  17.074  1.4475  0.9095  0.0599
16680TIP3   OH271530   0.579   4.336  17.225 -0.1897  0.8324 -0.7308
16680TIP3    H171531   0.673   4.338  17.207 -0.2831  1.2223 -1.1990
16680TIP3    H271532   0.570   4.280  17.302  0.5733  2.0365  0.2478
16681TIP3   OH271533   3.167   6.339   2.721  0.0247 -0.6676 -0.0432
16681TIP3    H171534   3.082   6.341   2.677 -0.2406  0.0227  0.4904
16681TIP3    H271535   3.229   6.372   2.656 -0.6096  1.9139  0.6005
16682TIP3   OH271536   6.398   6.349   4.047 -0.2612 -0.1041  0.7866
16682TIP3    H171537   6.470   6.319   3.992 -0.1284 -0.7627  1.3086
16682TIP3    H271538   6.437   6.416   4.104 -0.4420  0.7115 -0.0365
16683TIP3   OH271539   1.426   3.719   1.545  0.3827 -0.0286 -0.2930
16683TIP3    H171540   1.496   3.751   1.600  0.3746  2.1816 -1.5226
16683TIP3    H271541   1.375   3.797   1.522 -0.7443 -1.1775 -1.8296
16684TIP3   OH271542   5.699   5.509   3.214  0.1446 -0.0247  0.0709
16684TIP3    H171543   5.739   5.458   3.143 -2.2973 -0.5305 -0.9830
16684TIP3    H271544   5.690   5.597   3.177  0.0208  0.0249  0.2202
16685TIP3   OH271545   6.285   4.651   1.849 -0.5132  0.3221 -0.0804
16685TIP3    H171546   6.196   4.666   1.881 -0.2472  0.4065  0.6381
16685TIP3    H271547   6.280   4.571   1.797 -1.1208  0.6450 -0.5205
16686TIP3   OH271548   6.073   5.529   2.061 -0.1944 -0.0832  0.2416
16686TIP3    H171549   6.035   5.581   1.989  0.4812 -0.9623 -0.7626
16686TIP3    H271550   6.084   5.592   2.132  0.2455  1.0731 -0.8261
16687TIP3   OH271551   4.223   5.109  12.007  0.3584 -0.1306 -0.3226
16687TIP3    H171552   4.157   5.103  12.076  0.1811  0.3482 -0.4448
16687TIP3    H271553   4.209   5.031  11.953  0.6836 -0.6443  0.3452
16688TIP3   OH271554   0.390   0.567  13.411 -0.5394  0.0098 -0.0773
16688TIP3    H171555   0.467   0.617  13.436 -0.8108 -0.6944  2.2570
16688TIP3    H271556   0.426   0.491  13.364  0.1446  0.0924  0.3039
16689TIP3   OH271557   4.332   3.673  15.363  0.4002 -0.1604 -0.1769
16689TIP3    H171558   4.409   3.701  15.313 -0.0255 -1.0081 -1.3435
16689TIP3    H271559   4.349   3.580  15.381 -0.9392 -0.7202 -1.6299
16690TIP3   OH271560   6.725   3.280   5.921  0.5452 -0.0031 -0.4596
16690TIP3    H171561   6.785   3.266   5.848 -0.2185 -1.4018 -0.8441
16690TIP3    H271562   6.648   3.228   5.899 -0.9493  2.0297 -0.1452
16691TIP3   OH271563   4.360   4.011   5.748  0.6198  0.0768 -0.3177
16691TIP3    H171564   4.283   4.043   5.701  1.3142 -0.4411 -1.8533
16691TIP3    H271565   4.337   4.019   5.840 -1.2653 -0.0560 -0.7525
16692TIP3   OH271566   5.131   3.351  14.211  0.5338  0.1259  0.0219
16692TIP3    H171567   5.038   3.364  14.196  0.6963  0.4846 -0.7091
16692TIP3    H271568   5.155   3.417  14.276  0.4887  0.7498 -0.5818
16693TIP3   OH271569   6.492   1.270  13.825  0.1257 -0.6771 -0.0769
16693TIP3    H171570   6.557   1.206  13.796 -1.0853 -1.6311 -0.6643
16693TIP3    H271571   6.432   1.280  13.752  0.6712  1.6363 -0.2492
16694TIP3   OH271572   4.479   6.701   2.805  0.1175 -0.4614 -0.0624
16694TIP3    H171573   4.468   6.620   2.756 -0.5732  0.1912 -1.0152
16694TIP3    H271574   4.427   6.689   2.884  0.5013 -1.1701  0.0830
16695TIP3   OH271575   5.122   0.205   1.440 -0.2747 -0.7598 -0.2797
16695TIP3    H171576   5.050   0.203   1.503 -1.6412 -0.5181 -1.7965
16695TIP3    H271577   5.095   0.270   1.375  2.0433  0.4963 -0.0419
16696TIP3   OH271578   0.146   2.317  16.311 -0.2140  0.5323 -0.0591
16696TIP3    H171579   0.175   2.403  16.342  0.0261  0.6606 -0.6303
16696TIP3    H271580   0.058   2.332  16.278 -1.1844  0.0231  2.2168
16697TIP3   OH271581   6.554   5.420  13.259 -0.2393  0.5233 -0.0335
16697TIP3    H171582   6.469   5.442  13.296 -0.2416 -1.0408  0.9123
16697TIP3    H271583   6.537   5.343  13.204  0.2512  1.2323 -1.1947
16698TIP3   OH271584   1.770   0.378   5.087 -0.2426  0.1540 -0.5021
16698TIP3    H171585   1.693   0.428   5.060 -0.9808 -1.6237 -1.8367
16698TIP3    H271586   1.733   0.301   5.130  0.8436  0.2753  0.6566
16699TIP3   OH271587   2.180   1.223   1.556 -0.0282 -0.0179 -0.6322
16699TIP3    H171588   2.178   1.318   1.548 -0.8280 -0.0098 -0.3850
16699TIP3    H271589   2.119   1.192   1.489 -3.1673 -0.1471  2.1411
16700TIP3   OH271590   6.239   3.120  12.959 -0.2534  0.3347  0.0603
16700TIP3    H171591   6.232   3.141  12.866  0.4690  1.8512  0.3392
16700TIP3    H271592   6.302   3.183  12.993 -2.3085  1.3796  2.0811
16701TIP3   OH271593   6.520   4.648  14.243  0.3778  0.4741 -0.5043
16701TIP3    H171594   6.498   4.557  14.262 -0.4100  1.0358  1.4475
16701TIP3    H271595   6.580   4.643  14.169 -3.5453 -1.3110 -3.7584
16702TIP3   OH271596   2.459   4.575  11.295  0.1388 -0.2053 -0.4144
16702TIP3    H171597   2.378   4.611  11.258  0.1682 -0.0631 -0.3391
16702TIP3    H271598   2.453   4.481  11.278  0.1471 -0.1430 -0.7745
16703TIP3   OH271599   5.625   3.138   5.673  0.2728 -0.0542  0.3369
16703TIP3    H171600   5.559   3.077   5.705  0.2577 -0.0402  0.3335
16703TIP3    H271601   5.577   3.219   5.656  0.0672 -0.4102 -0.8141
16704TIP3   OH271602   1.059   3.221   4.178  0.0180 -0.5585  0.4487
16704TIP3    H171603   1.098   3.199   4.263  0.6152  0.1622  0.3706
16704TIP3    H271604   0.964   3.218   4.194  0.1242 -0.4853  1.1329
16705TIP3   OH271605   6.099   2.790  13.603 -0.3191  0.0019 -0.1742
16705TIP3    H171606   6.107   2.871  13.653  1.8538 -0.3985  0.1962
16705TIP3    H271607   6.116   2.816  13.512 -0.3697  0.0909 -0.1574
16706TIP3   OH271608   1.276   5.699  15.127  0.2591 -0.2172  0.0429
16706TIP3    H171609   1.335   5.774  15.124 -2.0893  1.6658  0.1720
16706TIP3    H271610   1.198   5.730  15.173 -0.6215 -2.8315  0.4219
16707TIP3   OH271611   1.491   5.209   0.684  0.5102  0.3231  0.2333
16707TIP3    H171612   1.477   5.303   0.691 -1.0707 -0.0557  3.0180
16707TIP3    H271613   1.487   5.178   0.774  1.6839 -2.3437 -0.5848
16708TIP3   OH271614   1.048   6.065   3.179  0.2015  0.9115 -0.3048
16708TIP3    H171615   1.026   6.065   3.272 -1.1366  0.5538 -0.6072
16708TIP3    H271616   1.106   5.990   3.169 -0.2007  0.5336  0.1311
16709TIP3   OH271617   4.197   6.287  11.026  0.4064  0.1203  0.7082
16709TIP3    H171618   4.127   6.263  11.087 -0.9167 -0.0039 -0.8458
16709TIP3    H271619   4.192   6.222  10.956  3.7804 -1.4729  1.8402
16710TIP3   OH271620   3.053   2.584   4.478 -0.4612  0.0047 -0.2825
16710TIP3    H171621   2.979   2.560   4.422  1.3697  0.1880 -2.9114
16710TIP3    H271622   3.102   2.502   4.489 -0.6784  0.0232  0.8786
16711TIP3   OH271623   0.561   3.463   5.150 -0.2632 -0.4542  0.1045
16711TIP3    H171624   0.554   3.541   5.095  0.4012 -0.7305 -0.3730
16711TIP3    H271625   0.569   3.497   5.239  1.2286  0.0588 -0.2105
16712TIP3   OH271626   3.456   1.996   0.399 -0.0982 -0.5092  0.5401
16712TIP3    H171627   3.409   1.913   0.386  0.3966 -0.5935 -0.8089
16712TIP3    H271628   3.403   2.060   0.352  0.0864 -0.2559  0.6784
16713TIP3   OH271629   2.689   1.464   4.496  0.0430 -0.4729 -0.4487
16713TIP3    H171630   2.761   1.447   4.557 -1.0925  0.4394  1.1696
16713TIP3    H271631   2.710   1.549   4.458  1.3019 -1.5119 -2.1831
16714TIP3   OH271632   0.325   5.290   1.597  0.0032 -0.2612  0.7129
16714TIP3    H171633   0.304   5.303   1.690 -1.7921 -3.3412  0.8083
16714TIP3    H271634   0.242   5.305   1.551  0.9551  1.5563 -0.4424
16715TIP3   OH271635   6.694   5.403  14.975  0.3893  0.1554 -0.1387
16715TIP3    H171636   6.757   5.368  14.912  0.8474  0.2832  0.2438
16715TIP3    H271637   6.747   5.431  15.049 -0.4456 -4.1570  2.2828
16716TIP3   OH271638   2.776   5.631  16.114 -0.6595 -0.1359 -0.2169
16716TIP3    H171639   2.796   5.553  16.063 -1.6609 -0.1604 -0.5933
16716TIP3    H271640   2.819   5.616  16.198 -0.2435 -0.7678 -0.5414
16717TIP3   OH271641   3.076   1.869  13.889 -0.5667  0.2720  0.2037
16717TIP3    H171642   3.144   1.846  13.952  0.6791 -0.1864 -1.3029
16717TIP3    H271643   3.068   1.964  13.895  0.8778  0.4260 -0.3043
16718TIP3   OH271644   0.269   2.432  13.104  0.2924 -0.3241  0.5701
16718TIP3    H171645   0.184   2.474  13.112  0.5464  0.4655 -0.8086
16718TIP3    H271646   0.261   2.352  13.156 -1.7322 -0.9948 -0.7442
16719TIP3   OH271647   5.668   6.230  15.855  0.1900  0.1108 -0.1357
16719TIP3    H171648   5.669   6.325  15.841  0.9623 -0.2721 -3.0854
16719TIP3    H271649   5.643   6.194  15.770 -1.1072 -2.3134  1.2402
16720TIP3   OH271650   0.121   3.647   5.525 -0.4043 -0.0831 -0.3398
16720TIP3    H171651   0.077   3.697   5.594 -0.8962 -0.1590 -0.6006
16720TIP3    H271652   0.206   3.691   5.514 -1.7101  2.0745 -2.1452
16721TIP3   OH271653   5.159   5.067   0.057  0.6396  0.2392  0.3859
16721TIP3    H171654   5.067   5.045   0.061  0.6178  0.3956  0.7931
16721TIP3    H271655   5.162   5.153   0.014  0.6407 -0.0461 -0.1817
16722TIP3   OH271656   4.915   0.134  16.414  0.3090  0.3639  0.4475
16722TIP3    H171657   4.856   0.195  16.458 -0.4213  0.9770 -1.3191
16722TIP3    H271658   4.899   0.148  16.321  2.2899 -0.4238 -0.0451
16723TIP3   OH271659   3.300   5.623   4.024 -0.5356 -0.3033  0.1495
16723TIP3    H171660   3.313   5.711   3.987 -1.0791 -0.2650  0.0459
16723TIP3    H271661   3.240   5.580   3.963  1.5240 -1.5449 -1.0361
16724TIP3   OH271662   0.021   1.167   4.902 -0.8717 -0.4042 -0.5133
16724TIP3    H171663   0.072   1.236   4.944 -1.4042 -0.3419  0.0294
16724TIP3    H271664   0.033   1.182   4.808  0.6579 -0.7970 -0.3971
16725TIP3   OH271665   1.674   3.605  14.119 -0.2846  0.4090 -0.7235
16725TIP3    H171666   1.627   3.522  14.111 -1.2164  0.8656 -0.1105
16725TIP3    H271667   1.633   3.648  14.194  0.4737  1.2462 -0.7808
16726TIP3   OH271668   5.612   1.484   4.226  0.1561  0.3840 -0.1014
16726TIP3    H171669   5.577   1.531   4.302  0.5082 -2.8807  2.1894
16726TIP3    H271670   5.537   1.441   4.186  0.6125 -1.8802  1.3698
16727TIP3   OH271671   0.209   6.669  12.429 -0.3004 -0.7562 -0.2030
16727TIP3    H171672   0.246   6.757  12.426 -0.2362 -0.7838 -0.2223
16727TIP3    H271673   0.247   6.630  12.507  0.6829 -1.2165 -0.8978
16728TIP3   OH271674   5.150   4.899   4.209 -0.0316 -0.0413 -0.7186
16728TIP3    H171675   5.093   4.830   4.242  0.8745 -1.1503 -1.4581
16728TIP3    H271676   5.220   4.853   4.164  0.9315  1.3408 -0.6628
16729TIP3   OH271677   4.099   3.527   1.258 -0.2634 -0.6111  0.6426
16729TIP3    H171678   4.144   3.571   1.185 -1.8872  0.4941  0.2955
16729TIP3    H271679   4.025   3.483   1.217 -1.5533  0.5427  1.7205
16730TIP3   OH271680   5.504   5.815  17.272  0.3616  0.1982  0.2799
16730TIP3    H171681   5.580   5.822  17.330  0.8266 -1.6136 -0.0808
16730TIP3    H271682   5.430   5.843  17.325  1.2874  2.1829  0.5799
16731TIP3   OH271683   3.250   6.613   5.433 -0.0756  0.3887  0.4733
16731TIP3    H171684   3.313   6.598   5.363  0.3321 -0.2497  0.9703
16731TIP3    H271685   3.267   6.702   5.462 -1.9396  1.5615 -1.9318
16732TIP3   OH271686   5.149   3.111   1.940 -0.3542 -0.0596 -0.1474
16732TIP3    H171687   5.239   3.090   1.962 -0.4954  1.0520  1.5652
16732TIP3    H271688   5.148   3.205   1.925 -1.2125 -0.0772 -0.2643
16733TIP3   OH271689   4.474   0.744   5.384  0.4232  0.1352 -0.1500
16733TIP3    H171690   4.423   0.824   5.374 -0.0041 -0.1595 -0.3816
16733TIP3    H271691   4.525   0.739   5.303 -0.7886 -0.6798 -0.8936
16734TIP3   OH271692   3.117   0.307  12.843 -0.7671  0.2989  0.4890
16734TIP3    H171693   3.027   0.312  12.813 -0.6625  1.1991  0.2986
16734TIP3    H271694   3.132   0.391  12.886 -0.1066  0.0422  0.7708
16735TIP3   OH271695   4.270   3.795  11.483 -0.5588  0.4430  0.3089
16735TIP3    H171696   4.226   3.821  11.402 -1.1954 -0.6053  0.3038
16735TIP3    H271697   4.301   3.877  11.521  0.2044  0.8999 -1.2492
16736TIP3   OH271698   0.273   0.362   1.095  0.5791 -0.0895 -0.0652
16736TIP3    H171699   0.322   0.387   1.173  1.3478  0.4664 -0.7140
16736TIP3    H271700   0.248   0.446   1.055  0.3420 -0.3673 -0.5042
16737TIP3   OH271701   0.454   4.094  13.573 -0.1233 -0.3300  0.1453
16737TIP3    H171702   0.514   4.055  13.511 -0.3913 -1.7971  0.7930
16737TIP3    H271703   0.510   4.122  13.646 -0.0021  0.0073 -0.0740
16738TIP3   OH271704   4.566   1.598   2.224 -0.3421 -0.0131 -0.3276
16738TIP3    H171705   4.479   1.622   2.194 -1.1664 -3.7059 -1.1231
16738TIP3    H271706   4.625   1.651   2.169 -2.0184  1.5761 -0.6641
16739TIP3   OH271707   1.101   3.371   1.604 -0.0561 -0.4392 -0.0382
16739TIP3    H171708   1.007   3.351   1.605 -0.9816  3.1109 -3.0807
16739TIP3    H271709   1.115   3.423   1.683 -0.6210 -1.0038  0.4464
16740TIP3   OH271710   6.621   3.658   3.058  0.5961  0.2347 -0.1306
16740TIP3    H171711   6.613   3.586   2.995  1.3838 -1.1629  1.3495
16740TIP3    H271712   6.543   3.650   3.113 -0.2724  1.6728 -1.0907
16741TIP3   OH271713   0.816   5.376   2.255  0.0041  0.0932 -0.1968
16741TIP3    H171714   0.738   5.361   2.309  1.3223 -1.4539  1.3639
16741TIP3    H271715   0.783   5.375   2.165 -1.7460 -0.8315  0.4140
16742TIP3   OH271716   3.408   4.699  12.411  0.0875  0.9627 -0.0397
16742TIP3    H171717   3.411   4.699  12.507  0.3840  0.1717 -0.0515
16742TIP3    H271718   3.325   4.656  12.390  0.1456  0.9033 -0.1441
16743TIP3   OH271719   5.699   5.402   5.279 -0.4756 -0.4214 -0.1197
16743TIP3    H171720   5.660   5.387   5.365 -0.1050 -1.8094 -0.1778
16743TIP3    H271721   5.793   5.388   5.293 -0.6606 -3.1036 -1.2364
16744TIP3   OH271722   3.799   6.083   2.695  0.6730 -0.2628  0.2863
16744TIP3    H171723   3.799   5.993   2.662  1.8654 -0.1745  0.0368
16744TIP3    H271724   3.715   6.091   2.741  0.5644 -1.5133  0.3340
16745TIP3   OH271725   3.389   3.219  13.298  0.0443  0.2023 -0.2173
16745TIP3    H171726   3.399   3.140  13.351  0.6003 -0.1070 -0.7785
16745TIP3    H271727   3.477   3.255  13.291  0.2159 -0.4739 -2.0100
16746TIP3   OH271728   2.564   0.135  10.545 -0.5145 -0.8046  0.2291
16746TIP3    H171729   2.638   0.193  10.529 -0.5911 -0.6944  0.2715
16746TIP3    H271730   2.494   0.194  10.574 -0.6648 -0.8894  0.0401
16747TIP3   OH271731   0.132   3.669   2.467  0.1621  1.1022  0.0077
16747TIP3    H171732   0.213   3.699   2.426  0.9160  0.2669  0.8692
16747TIP3    H271733   0.156   3.651   2.558 -0.1050 -2.7255 -0.6206
16748TIP3   OH271734   2.900   4.056   3.915  0.7364  0.2995 -0.6430
16748TIP3    H171735   2.886   4.146   3.946  0.5472 -0.0093  0.1686
16748TIP3    H271736   2.878   4.001   3.990 -1.4303 -0.5411 -1.8653
16749TIP3   OH271737   6.159   0.900   2.995  0.3026 -0.2074 -0.4082
16749TIP3    H171738   6.133   0.854   3.075 -1.8711  1.4120 -0.1577
16749TIP3    H271739   6.188   0.986   3.026  0.9418 -0.1286 -1.2208
16750TIP3   OH271740   2.120   4.576  11.412  0.1861  0.4318  0.1646
16750TIP3    H171741   2.114   4.671  11.405 -0.3983  0.3001 -1.2185
16750TIP3    H271742   2.069   4.542  11.338  1.3555 -0.9402 -0.0496
16751TIP3   OH271743   0.210   2.537  15.422 -0.2224  0.1442 -0.3116
16751TIP3    H171744   0.143   2.476  15.391 -0.5754  0.5480 -0.3483
16751TIP3    H271745   0.201   2.536  15.517 -0.0520 -0.0563 -0.2967
16752TIP3   OH271746   1.312   3.490  12.317 -0.4200  0.0605  0.4176
16752TIP3    H171747   1.246   3.537  12.367  1.5214  1.3681  1.8201
16752TIP3    H271748   1.396   3.520  12.353  0.9315 -2.3545 -0.5791
16753TIP3   OH271749   6.302   1.899   0.297 -0.3516 -0.7168 -0.6544
16753TIP3    H171750   6.236   1.935   0.355 -1.3473 -2.4846 -0.6809
16753TIP3    H271751   6.365   1.856   0.355  1.4406  1.8965 -0.5339
16754TIP3   OH271752   5.700   1.032  15.270 -0.3749  0.4753  0.0386
16754TIP3    H171753   5.658   1.030  15.355  0.4087 -0.6494  0.4112
16754TIP3    H271754   5.753   1.113  15.271 -0.6121  0.6248  0.4900
16755TIP3   OH271755   2.363   5.489   5.349 -0.2191  0.0205  0.6322
16755TIP3    H171756   2.431   5.423   5.337 -0.5544 -0.3633  0.8108
16755TIP3    H271757   2.388   5.561   5.292  1.0731  0.4494  1.7069
16756TIP3   OH271758   5.246   0.389  12.399 -0.5503 -0.1665  0.5424
16756TIP3    H171759   5.308   0.373  12.328 -0.5266 -0.8618  0.7193
16756TIP3    H271760   5.223   0.482  12.390  0.4486  0.0800  0.4207
16757TIP3   OH271761   3.582   2.160  16.711  0.3178 -0.4743 -0.1992
16757TIP3    H171762   3.558   2.084  16.765  1.3989  0.5347  1.7705
16757TIP3    H271763   3.601   2.229  16.775 -1.7924  1.8136 -1.9907
16758TIP3   OH271764   3.379   1.564  17.155 -0.1829  0.3097 -0.2206
16758TIP3    H171765   3.374   1.530  17.066 -0.1887  0.7894 -0.4068
16758TIP3    H271766   3.362   1.658  17.146 -1.8495  0.0968  0.4827
16759TIP3   OH271767   5.817   0.508  11.280 -0.0264  0.2671 -0.1674
16759TIP3    H171768   5.835   0.489  11.188 -3.2576 -0.9639 -0.6271
16759TIP3    H271769   5.789   0.599  11.282 -0.3210  0.1825 -0.4735
16760TIP3   OH271770   5.109   1.455   2.894 -0.1127 -1.0857  0.0660
16760TIP3    H171771   5.149   1.401   2.826 -0.0451 -1.3087  0.2776
16760TIP3    H271772   5.167   1.445   2.970 -0.9945 -2.0714  0.6345
16761TIP3   OH271773   5.589   6.358  13.888  0.1997 -0.2387  0.1379
16761TIP3    H171774   5.594   6.453  13.876 -1.1753 -0.4265 -2.1180
16761TIP3    H271775   5.655   6.323  13.828  1.2600 -0.6887  1.5501
16762TIP3   OH271776   2.636   4.492  16.576 -0.5260  0.4144  0.3217
16762TIP3    H171777   2.700   4.557  16.546 -0.8410  1.4830  1.9212
16762TIP3    H271778   2.663   4.411  16.533 -0.3520  1.6577 -2.0485
16763TIP3   OH271779   2.460   3.664   6.358 -0.4596  0.0541 -0.0729
16763TIP3    H171780   2.511   3.583   6.349 -0.6832 -0.3872  2.3397
16763TIP3    H271781   2.373   3.642   6.326  0.2518  0.2156 -2.2200
16764TIP3   OH271782   1.242   6.634  11.642 -0.7556  0.4742  0.1865
16764TIP3    H171783   1.319   6.680  11.677  0.7025 -1.7718  0.0620
16764TIP3    H271784   1.200   6.697  11.584  1.9205  1.2355 -0.9925
16765TIP3   OH271785   4.134   2.608  16.026  0.2195  0.5619  0.5513
16765TIP3    H171786   4.207   2.579  16.082 -0.9505  0.2983  1.9828
16765TIP3    H271787   4.077   2.531  16.020  0.4823  0.5062 -1.2651
16766TIP3   OH271788   1.843   4.879  16.583 -0.2513 -0.0632 -0.3384
16766TIP3    H171789   1.758   4.837  16.600 -0.3351 -0.8601 -2.5887
16766TIP3    H271790   1.821   4.968  16.555 -0.3848 -0.4620 -1.5132
16767TIP3   OH271791   0.671   6.529   6.533  0.1128 -0.2522 -0.0182
16767TIP3    H171792   0.660   6.527   6.628 -2.1925 -1.2423 -0.2681
16767TIP3    H271793   0.762   6.503   6.519  0.4600 -0.1685  1.9168
16768TIP3   OH271794   4.626   5.195  15.424  0.2202  0.4399 -0.2511
16768TIP3    H171795   4.610   5.173  15.332 -0.2297  1.0430 -0.3225
16768TIP3    H271796   4.715   5.228  15.426  1.7297 -3.4774  0.2278
16769TIP3   OH271797   3.952   2.832  15.718 -0.5440  0.1321 -0.7420
16769TIP3    H171798   3.931   2.744  15.688 -0.6487 -0.0955 -0.0181
16769TIP3    H271799   3.866   2.875  15.728 -0.5604 -0.0868  0.0942
16770TIP3   OH271800   2.244   3.619   3.863 -0.2026 -0.8023 -0.1653
16770TIP3    H171801   2.191   3.558   3.811  0.1896 -1.2438 -0.0461
16770TIP3    H271802   2.182   3.660   3.923 -0.3455 -1.5726  0.2066
16771TIP3   OH271803   5.772   0.697  16.301  0.1718  0.5980  0.5430
16771TIP3    H171804   5.682   0.725  16.317 -0.1184  1.0250 -1.6247
16771TIP3    H271805   5.765   0.604  16.279  0.3416  0.4586  1.0838
16772TIP3   OH271806   5.089   3.430  11.837  0.7096 -0.2107  0.7162
16772TIP3    H171807   5.080   3.364  11.768  0.7807  1.7756 -1.2530
16772TIP3    H271808   5.159   3.488  11.806 -0.1297  1.4454  1.8435
16773TIP3   OH271809   1.663   3.794   2.510 -0.0286 -0.0796  0.1330
16773TIP3    H171810   1.592   3.781   2.572  0.3199 -0.8201  0.3872
16773TIP3    H271811   1.730   3.841   2.560 -0.5371  1.0657 -0.2507
16774TIP3   OH271812   6.595   4.939   1.316 -0.0533  0.4479  0.0129
16774TIP3    H171813   6.655   5.012   1.331 -0.1922  0.7062 -0.6325
16774TIP3    H271814   6.558   4.920   1.402 -0.6384  1.6959  0.0635
16775TIP3   OH271815   0.629   6.418   1.616  0.1025  0.0870  0.3092
16775TIP3    H171816   0.573   6.352   1.576 -0.6633  0.4162  0.8193
16775TIP3    H271817   0.649   6.383   1.703  0.1148  0.2838  0.3865
16776TIP3   OH271818   0.577   1.507   3.474  0.2636 -0.1017  0.1913
16776TIP3    H171819   0.614   1.524   3.387  0.7980 -0.5439  0.3281
16776TIP3    H271820   0.502   1.566   3.480  0.1698 -0.1273 -0.6048
16777TIP3   OH271821   4.659   3.965  11.925  0.5587 -0.3894 -0.6900
16777TIP3    H171822   4.580   3.988  11.974  1.0287  0.6544 -0.4171
16777TIP3    H271823   4.626   3.930  11.842 -0.2005 -0.5235 -0.3444
16778TIP3   OH271824   6.111   1.335  14.092  0.0538  0.1175  0.5390
16778TIP3    H171825   6.041   1.306  14.033  1.3179  1.3860 -1.6670
16778TIP3    H271826   6.115   1.430  14.079  0.8717  0.3186  2.1319
16779TIP3   OH271827   3.597   4.432   0.948  0.0693  0.0383 -0.1482
16779TIP3    H171828   3.669   4.385   0.905 -0.7633 -0.3138 -1.1731
16779TIP3    H271829   3.606   4.409   1.041  2.0487  1.0259 -0.0605
16780TIP3   OH271830   2.383   6.262   0.925  0.4337 -0.6512  0.4974
16780TIP3    H171831   2.302   6.300   0.892 -0.5551 -2.0610  1.3013
16780TIP3    H271832   2.452   6.307   0.875 -0.8763 -0.3682 -1.1048
16781TIP3   OH271833   0.479   3.214   5.933  0.1726  0.7430 -0.2602
16781TIP3    H171834   0.492   3.246   6.022 -0.1271 -0.1692  0.1172
16781TIP3    H271835   0.398   3.256   5.904 -0.5993 -0.2191  0.4896
16782TIP3   OH271836   3.794   2.595   0.577 -0.6571 -0.0723  0.0967
16782TIP3    H171837   3.835   2.645   0.506  0.0341  1.0462  1.2669
16782TIP3    H271838   3.868   2.554   0.623 -1.0342 -0.0627  0.7119
16783TIP3   OH271839   4.778   1.224   3.315 -0.2092 -0.5251 -0.3350
16783TIP3    H171840   4.830   1.151   3.281 -0.1940 -0.6842  0.0247
16783TIP3    H271841   4.710   1.182   3.367  0.6333 -0.2408  1.0322
16784TIP3   OH271842   2.261   4.512   1.865 -0.1576 -0.5068 -0.2334
16784TIP3    H171843   2.319   4.447   1.905  0.8757 -0.4826 -1.6623
16784TIP3    H271844   2.222   4.467   1.789 -0.3917  0.1475 -0.5069
16785TIP3   OH271845   3.561   6.052   2.863 -0.2056  0.1590  0.8389
16785TIP3    H171846   3.473   6.059   2.825 -0.5419 -2.7174  0.9872
16785TIP3    H271847   3.578   5.958   2.867  3.3723  0.6719 -0.2852
16786TIP3   OH271848   4.378   0.257   0.749  0.3049 -0.2183  0.1712
16786TIP3    H171849   4.409   0.326   0.690 -0.0927 -1.1361 -1.1530
16786TIP3    H271850   4.310   0.299   0.801  1.0570  0.7652  0.3617
16787TIP3   OH271851   4.018   2.125  12.938  0.2120 -0.2168 -0.3388
16787TIP3    H171852   4.016   2.030  12.927  2.5009 -0.3598  0.3401
16787TIP3    H271853   3.988   2.139  13.027 -0.7187 -0.2468 -0.6403
16788TIP3   OH271854   1.825   1.027   1.823 -0.1230  0.4586  0.0529
16788TIP3    H171855   1.756   1.092   1.810 -1.4362 -1.3491 -2.1737
16788TIP3    H271856   1.857   1.007   1.735  1.2507 -0.8954  0.8254
16789TIP3   OH271857   6.254   3.672   2.468 -0.1133  0.1128  0.5693
16789TIP3    H171858   6.340   3.678   2.511  0.0231  1.4935  0.1199
16789TIP3    H271859   6.191   3.676   2.540  0.1226  2.2363  0.6669
16790TIP3   OH271860   0.092   4.500  13.371  0.0643 -0.4432 -0.4681
16790TIP3    H171861   0.156   4.455  13.425 -0.4469  0.3840  0.8590
16790TIP3    H271862   0.139   4.523  13.291  0.8123 -1.7391 -0.4067
16791TIP3   OH271863   4.011   4.830   2.736  0.8941  0.8897  0.5063
16791TIP3    H171864   4.053   4.819   2.650  0.3728  3.5626 -0.1342
16791TIP3    H271865   4.060   4.901   2.777  0.2163  0.5955  1.8474
16792TIP3   OH271866   0.008   3.911   1.004  0.5600 -0.3048 -0.7394
16792TIP3    H171867  -0.031   3.998   1.000  1.2833  0.0080 -1.0560
16792TIP3    H271868  -0.008   3.874   0.917  1.5701  0.0921 -1.1037
16793TIP3   OH271869   2.178   1.047  15.935  0.0728 -0.1275  0.5753
16793TIP3    H171870   2.197   1.137  15.909  0.7689 -1.3906 -3.6103
16793TIP3    H271871   2.085   1.036  15.917 -0.6845  0.5288  3.7668
16794TIP3   OH271872   0.467   1.896   0.798  0.5501  0.0526 -0.3231
16794TIP3    H171873   0.536   1.870   0.738  0.0725  0.1139 -0.9036
16794TIP3    H271874   0.386   1.865   0.757  0.1268  0.9856 -0.2128
16795TIP3   OH271875   4.697   0.112  16.931 -0.2524  1.1036 -0.1418
16795TIP3    H171876   4.793   0.122  16.930 -0.1456  0.3462  0.9569
16795TIP3    H271877   4.668   0.152  16.850  1.3082 -1.8039 -2.2456
16796TIP3   OH271878   2.846   0.294   3.062 -0.4464 -0.2255  0.2315
16796TIP3    H171879   2.925   0.337   3.031 -1.4025  0.4752 -1.3038
16796TIP3    H271880   2.812   0.247   2.985 -1.6168 -0.3606  0.8143
16797TIP3   OH271881   1.250   2.804  12.437  0.6760 -0.2024  0.3698
16797TIP3    H171882   1.157   2.784  12.449  0.3896  0.1166 -1.1857
16797TIP3    H271883   1.293   2.760  12.509 -0.5124 -1.9325  0.0627
16798TIP3   OH271884   2.003   4.703   1.668 -0.4413 -0.8049 -0.0663
16798TIP3    H171885   1.957   4.665   1.593 -0.3614 -0.3859 -0.3327
16798TIP3    H271886   2.088   4.730   1.633 -0.8108  0.3798 -0.0867
16799TIP3   OH271887   5.517   2.228  15.811  0.0259 -0.1783 -0.4067
16799TIP3    H171888   5.423   2.228  15.832 -0.0323 -1.8207 -0.5524
16799TIP3    H271889   5.525   2.285  15.735 -1.0001 -0.7720 -0.9717
16800TIP3   OH271890   5.706   2.090   6.323  0.2684  0.2126  0.4906
16800TIP3    H171891   5.770   2.134   6.379  2.4909 -2.9231  0.5350
16800TIP3    H271892   5.672   2.019   6.376  1.4851 -2.0501 -1.6586
16801TIP3   OH271893   5.700   0.641  17.107 -0.1096 -0.1887 -0.1130
16801TIP3    H171894   5.720   0.550  17.084  0.7719  0.2229 -0.9639
16801TIP3    H271895   5.632   0.667  17.045  0.1090 -0.0556 -0.2970
16802TIP3   OH271896   4.204   2.164   3.645  0.4719 -0.2575 -0.2174
16802TIP3    H171897   4.299   2.164   3.634  0.3586 -0.3563 -1.2424
16802TIP3    H271898   4.176   2.077   3.616 -0.0279  0.1225 -0.8933
16803TIP3   OH271899   0.348   3.529  15.991 -0.4190 -0.2044  0.4042
16803TIP3    H171900   0.400   3.585  15.933 -1.8478 -0.7113 -1.4129
16803TIP3    H271901   0.404   3.515  16.067  1.2736  0.9592 -0.5938
16804TIP3   OH271902   1.751   2.591  17.135  0.2973 -0.0967 -0.4244
16804TIP3    H171903   1.805   2.569  17.211 -2.6633 -0.7806  1.5754
16804TIP3    H271904   1.738   2.508  17.090 -1.5810 -0.4981  0.8204
16805TIP3   OH271905   3.199   0.940  11.799  0.0198  0.7308  0.0569
16805TIP3    H171906   3.113   0.977  11.779 -0.1417  1.6533  2.3007
16805TIP3    H271907   3.256   0.973  11.729 -1.4458  0.0645 -1.4758
16806TIP3   OH271908   0.749   4.723  13.178 -0.3727 -0.0883  0.3363
16806TIP3    H171909   0.690   4.671  13.124 -0.6036 -0.6127  1.0850
16806TIP3    H271910   0.836   4.686  13.161 -0.3886  0.0513 -0.0340
16807TIP3   OH271911   0.471   6.653  17.197  0.0534 -0.0464  0.2401
16807TIP3    H171912   0.524   6.692  17.267  0.5370 -0.7552  0.2692
16807TIP3    H271913   0.535   6.618  17.135 -0.2293  4.4883 -2.8760
16808TIP3   OH271914   1.759   4.147  15.446 -0.1377 -0.4705 -0.0001
16808TIP3    H171915   1.816   4.126  15.372 -1.2849 -0.6800 -0.8347
16808TIP3    H271916   1.677   4.175  15.406 -0.3984  0.4717  1.1891
16809TIP3   OH271917   2.571   1.560  11.263  0.1576 -0.3478  0.2247
16809TIP3    H171918   2.510   1.487  11.266  0.3624 -0.4786  1.4142
16809TIP3    H271919   2.612   1.554  11.177 -1.3819 -0.3612 -0.5230
16810TIP3   OH271920   3.318   1.073  12.268  0.4059  0.2468  0.1641
16810TIP3    H171921   3.291   1.085  12.359 -2.1354  0.6825 -0.6120
16810TIP3    H271922   3.351   1.159  12.241  0.7911  0.2207  0.5471
16811TIP3   OH271923   2.791   3.199   6.017  0.4860  0.1553 -0.2360
16811TIP3    H171924   2.755   3.188   5.929 -0.9948 -1.9208  0.5796
16811TIP3    H271925   2.718   3.235   6.068  1.1230  0.7047  0.2827
16812TIP3   OH271926   1.534   2.203  13.961  0.5011  0.3362  0.7211
16812TIP3    H171927   1.444   2.190  13.992  0.4574  3.3021  2.0015
16812TIP3    H271928   1.551   2.296  13.974  2.5180  0.5903 -2.8608
16813TIP3   OH271929   5.624   0.168  11.930  0.4273  0.0475 -1.1876
16813TIP3    H171930   5.649   0.189  11.841  1.0587  1.6672 -0.6457
16813TIP3    H271931   5.702   0.128  11.968  0.2058 -0.5091 -1.3196
16814TIP3   OH271932   3.204   3.759  11.687 -0.8784 -0.1454  0.3807
16814TIP3    H171933   3.156   3.691  11.733 -0.2318 -0.0251  1.2510
16814TIP3    H271934   3.226   3.720  11.602 -2.0065 -0.3954  0.1884
16815TIP3   OH271935   4.838   2.400   3.812 -0.3146 -0.3053 -0.3190
16815TIP3    H171936   4.748   2.410   3.780 -0.2077  0.3762 -0.4186
16815TIP3    H271937   4.891   2.397   3.733 -0.0247  1.6531 -0.2245
16816TIP3   OH271938   3.686   5.190  12.349  0.1155  0.5600  0.4636
16816TIP3    H171939   3.756   5.246  12.383 -1.6984  1.0692  3.4872
16816TIP3    H271940   3.628   5.250  12.303  0.6000  0.4334 -0.3234
16817TIP3   OH271941   6.235   2.076  14.574 -0.1921  0.1827  0.5706
16817TIP3    H171942   6.184   2.146  14.616  1.2284  1.1698  0.6873
16817TIP3    H271943   6.313   2.068  14.629  0.8886  0.3211 -0.9169
16818TIP3   OH271944   1.446   4.989   4.494  0.0074  0.4156 -0.0012
16818TIP3    H171945   1.501   4.947   4.560 -1.6876 -0.3084  0.9812
16818TIP3    H271946   1.491   5.072   4.475  3.8335 -2.0411 -2.5119
16819TIP3   OH271947   5.638   0.082  12.253 -0.5608  1.0123  0.7476
16819TIP3    H171948   5.695   0.089  12.177 -2.3835  1.4430 -0.6120
16819TIP3    H271949   5.661   0.157  12.308  0.5439  0.8708  0.4873
16820TIP3   OH271950   0.787   4.231  13.474  0.6355 -0.0495 -0.1384
16820TIP3    H171951   0.808   4.320  13.500  0.6096 -0.2182  0.4554
16820TIP3    H271952   0.761   4.239  13.382  0.4421  0.5808 -0.0336
16821TIP3   OH271953   1.261   3.238   2.931  0.2824 -0.2382  0.6211
16821TIP3    H171954   1.227   3.252   2.842 -1.7696 -3.8645  0.7821
16821TIP3    H271955   1.356   3.237   2.920  0.0104 -2.6247 -1.8868
16822TIP3   OH271956   5.608   2.622  12.054 -0.4799 -0.1624 -0.0323
16822TIP3    H171957   5.648   2.682  12.118 -0.7676  0.9497 -0.8683
16822TIP3    H271958   5.606   2.538  12.098  0.4555  0.3215  0.9742
16823TIP3   OH271959   2.451   1.796   6.404  0.2621 -0.2389 -0.1976
16823TIP3    H171960   2.475   1.813   6.495 -2.0751  0.1616  0.3717
16823TIP3    H271961   2.437   1.701   6.400  0.1050 -0.2205 -0.0749
16824TIP3   OH271962   5.534   2.049   2.781 -0.1424  0.3672 -0.2717
16824TIP3    H171963   5.583   2.131   2.786  0.4545 -0.0345  0.6743
16824TIP3    H271964   5.472   2.054   2.853  0.3843 -0.3220  0.2312
16825TIP3   OH271965   4.036   3.593   4.697  0.0393 -0.1908 -0.2811
16825TIP3    H171966   4.063   3.666   4.643 -1.2113 -0.6093 -1.5087
16825TIP3    H271967   4.073   3.611   4.783 -0.6453  2.1256 -0.4368
16826TIP3   OH271968   6.302   3.640  11.457  0.5517 -0.6358  0.5013
16826TIP3    H171969   6.316   3.655  11.363  0.3728  1.5309  0.7782
16826TIP3    H271970   6.323   3.724  11.497  2.2237 -2.0295  2.6056
16827TIP3   OH271971   3.559   0.366  15.716 -0.4096  0.3873  0.0618
16827TIP3    H171972   3.495   0.303  15.749 -1.5471  2.7142  2.3848
16827TIP3    H271973   3.534   0.379  15.624 -1.9070 -0.3542  0.3513
16828TIP3   OH271974   6.650   1.258   1.483 -0.0771  0.2124 -0.2297
16828TIP3    H171975   6.658   1.334   1.541  1.6805  0.9360 -1.3879
16828TIP3    H271976   6.724   1.202   1.506 -0.8847 -0.7556  0.0317
16829TIP3   OH271977   0.871   6.739   4.025 -0.4705 -0.0167  0.4431
16829TIP3    H171978   0.916   6.807   3.975 -1.6778  0.7110  0.3348
16829TIP3    H271979   0.926   6.727   4.103 -0.7149  1.7149  0.9011
16830TIP3   OH271980   0.086   3.094  14.206  0.3225  0.2435 -0.0352
16830TIP3    H171981   0.045   3.180  14.213 -1.8561 -0.7618 -0.0509
16830TIP3    H271982   0.101   3.082  14.113 -0.8344 -0.0514 -0.1869
16831TIP3   OH271983   2.611   2.256   5.789  0.4301 -0.0599 -0.5078
16831TIP3    H171984   2.622   2.190   5.857 -0.0065 -1.0365 -1.3655
16831TIP3    H271985   2.570   2.331   5.833  1.5459 -0.1002  0.6162
16832TIP3   OH271986   2.189   0.601  12.781  0.4550 -0.5126 -0.3574
16832TIP3    H171987   2.113   0.595  12.839 -1.1815  4.9892 -1.6022
16832TIP3    H271988   2.264   0.607  12.840 -0.6567 -0.3593  1.0752
16833TIP3   OH271989   5.870   3.769   5.499 -0.1220 -0.3812 -0.0633
16833TIP3    H171990   5.798   3.756   5.561  0.9073  1.1662  1.4953
16833TIP3    H271991   5.947   3.732   5.542  0.7975  1.6024  0.0419
16834TIP3   OH271992   4.092   2.518  13.107  0.4111  0.4625  0.3492
16834TIP3    H171993   4.076   2.581  13.036 -1.2568 -0.6543 -0.2923
16834TIP3    H271994   4.074   2.568  13.187 -0.3026  0.9939 -0.1286
16835TIP3   OH271995   1.187   5.259  16.482 -0.2446 -0.1938 -0.5014
16835TIP3    H171996   1.149   5.347  16.481  2.5194  1.0365 -1.1315
16835TIP3    H271997   1.217   5.244  16.392 -1.6513 -2.2472 -0.6749
16836TIP3   OH271998   1.046   1.659  16.192 -0.3222 -0.4887  0.1662
16836TIP3    H171999   1.081   1.710  16.119 -0.0252  1.6788  1.7809
16836TIP3    H272000   1.123   1.619  16.232 -0.0338  1.2678  1.4512
16837TIP3   OH272001   4.039   1.429   5.840  0.2650 -0.1080 -0.4983
16837TIP3    H172002   4.053   1.357   5.902  1.0909 -1.3978 -2.1539
16837TIP3    H272003   3.968   1.480   5.880  1.9529  0.1057  2.3770
16838TIP3   OH272004   6.715   1.106  14.364  0.2589 -0.1617 -0.4021
16838TIP3    H172005   6.665   1.169  14.313 -0.6896  0.2984  1.0651
16838TIP3    H272006   6.754   1.158  14.434  1.6916 -0.7499 -0.7533
16839TIP3   OH272007   5.689   4.055   0.391  0.1498 -0.3127 -0.2264
16839TIP3    H172008   5.761   4.110   0.360  0.5866 -0.5833  0.3127
16839TIP3    H272009   5.617   4.074   0.331 -0.4774  2.6777  1.3738
16840TIP3   OH272010   5.420   0.163   0.092 -0.2514 -0.1312  0.1697
16840TIP3    H172011   5.460   0.076   0.085 -0.8817 -0.3796 -0.4189
16840TIP3    H272012   5.413   0.179   0.186  2.1990  0.3720  0.2893
16841TIP3   OH272013   2.293   4.133  10.972 -0.3174 -0.1831 -0.6737
16841TIP3    H172014   2.299   4.226  10.953  0.2307 -0.0662  0.0571
16841TIP3    H272015   2.298   4.091  10.886 -0.8338  0.4665 -1.0253
16842TIP3   OH272016   4.889   3.948   4.087 -0.0618  0.1450 -0.3920
16842TIP3    H172017   4.906   4.032   4.130  2.7679  0.3411 -1.7571
16842TIP3    H272018   4.930   3.883   4.144  1.6908  0.1706 -1.6111
16843TIP3   OH272019   2.713   0.825  12.706 -0.3238  0.6629  0.0748
16843TIP3    H172020   2.640   0.818  12.645  1.2590 -0.8055 -1.7319
16843TIP3    H272021   2.727   0.736  12.737 -0.2564  1.1816  1.5889
16844TIP3   OH272022   2.118   6.507   1.605  0.7631 -0.2046  0.1678
16844TIP3    H172023   2.113   6.412   1.613 -0.4676 -0.0055  2.1800
16844TIP3    H272024   2.107   6.538   1.695  1.5096  1.8300 -0.4262
16845TIP3   OH272025   4.084   1.699  16.547  0.0647  0.4291  0.0609
16845TIP3    H172026   4.171   1.723  16.515  0.0620  1.0323  0.4920
16845TIP3    H272027   4.090   1.606  16.569  0.7659  0.6114  0.6388
16846TIP3   OH272028   6.592   1.596  13.125  0.4117  0.3521  0.0039
16846TIP3    H172029   6.575   1.663  13.191 -1.6206 -0.0307 -0.1112
16846TIP3    H272030   6.506   1.567  13.096  1.2655 -0.5215 -1.7884
16847TIP3   OH272031   3.404   4.392  11.899 -0.1442 -0.9576 -0.0803
16847TIP3    H172032   3.455   4.472  11.916  0.2330 -1.4261  1.0173
16847TIP3    H272033   3.366   4.407  11.812  1.7190 -0.5334 -0.8531
16848TIP3   OH272034   0.981   5.907  12.921 -0.8044 -0.3045 -0.1658
16848TIP3    H172035   0.978   5.837  12.985  1.8371 -1.3700 -1.1431
16848TIP3    H272036   0.924   5.877  12.850  0.2947 -1.4714 -0.5712
16849TIP3   OH272037   0.265   4.074   1.625  0.0769 -0.6318 -0.2219
16849TIP3    H172038   0.244   4.022   1.703  2.9125 -3.1338 -1.0328
16849TIP3    H272039   0.327   4.139   1.656  0.7538 -1.2515 -0.2710
16850TIP3   OH272040   1.622   6.650  14.427  0.0357  0.0659  0.2405
16850TIP3    H172041   1.542   6.600  14.442  0.0627 -0.3287 -0.8684
16850TIP3    H272042   1.597   6.742  14.442 -0.8301  0.0222 -0.8305
16851TIP3   OH272043   3.797   6.648  13.107 -0.1201 -0.5295 -0.0603
16851TIP3    H172044   3.868   6.586  13.088 -0.2840 -0.2754 -1.5680
16851TIP3    H272045   3.821   6.727  13.059 -1.7505 -0.6833 -1.1885
16852TIP3   OH272046   0.954   6.304  13.299  0.1753  0.0348 -0.2464
16852TIP3    H172047   1.002   6.380  13.332  1.7888  0.2648 -2.9923
16852TIP3    H272048   1.007   6.229  13.325  0.7508  0.1323 -1.1173
16853TIP3   OH272049   5.100   5.125   4.368 -0.2432 -0.4980  0.0397
16853TIP3    H172050   5.129   5.041   4.331  2.1680  0.0786  0.5382
16853TIP3    H272051   5.058   5.100   4.451  0.4602 -1.2321  0.1902
16854TIP3   OH272052   5.360   0.317   1.959  0.3100 -0.0627 -0.2997
16854TIP3    H172053   5.272   0.333   1.925 -0.0270  0.3708  0.7600
16854TIP3    H272054   5.367   0.221   1.961 -0.8778 -0.1502  1.4313
16855TIP3   OH272055   5.050   0.018   2.117  0.0522 -0.3244  0.0100
16855TIP3    H172056   5.130  -0.034   2.128  0.5113  0.3401 -0.0734
16855TIP3    H272057   5.064   0.094   2.174 -1.1723 -0.9233  1.1366
16856TIP3   OH272058   6.383   2.432   1.052  0.3683  0.1510 -0.3534
16856TIP3    H172059   6.463   2.443   1.104  0.2213 -0.5821  0.0287
16856TIP3    H272060   6.367   2.519   1.015  0.9280  0.4811  0.1649
16857TIP3   OH272061   3.193   6.126  14.768 -0.0152  0.0333  0.6159
16857TIP3    H172062   3.211   6.032  14.770  1.0692  0.1939 -0.3931
16857TIP3    H272063   3.268   6.165  14.813  1.3575  0.6069 -2.0274
16858TIP3   OH272064   6.671   4.473  13.439 -0.5999  0.7835  0.1757
16858TIP3    H172065   6.659   4.446  13.530  0.3314  0.2435  0.1439
16858TIP3    H272066   6.765   4.488  13.431 -0.2815 -1.7915 -1.4058
16859TIP3   OH272067   4.169   0.871   1.622  0.0391  0.1216  0.8656
16859TIP3    H172068   4.211   0.917   1.695  1.7750  2.5884 -1.5967
16859TIP3    H272069   4.075   0.881   1.638  0.3953  0.5113  2.8106
16860TIP3   OH272070   6.789   5.125   0.064  0.2860 -0.0454 -0.3747
16860TIP3    H172071   6.842   5.119  -0.016  0.4991 -1.2867 -0.1385
16860TIP3    H272072   6.717   5.064   0.050 -1.4555  2.0637 -0.9447
16861TIP3   OH272073   6.583   3.495   0.617 -0.0420 -0.5371 -0.0740
16861TIP3    H172074   6.571   3.573   0.563 -1.0323 -0.1049  0.7394
16861TIP3    H272075   6.609   3.427   0.556  0.0496  0.2435 -0.9143
16862TIP3   OH272076   6.227   6.489   0.846  0.3409  0.0140 -0.1936
16862TIP3    H172077   6.269   6.563   0.801  1.3141  0.1105  0.8552
16862TIP3    H272078   6.141   6.522   0.872  0.5183  0.5729 -0.3114
16863TIP3   OH272079   0.830   5.536   1.695 -0.2956 -0.3723 -0.2757
16863TIP3    H172080   0.908   5.574   1.736 -1.0070  0.6222  0.1652
16863TIP3    H272081   0.857   5.518   1.605 -0.2473  2.1550 -0.8045
16864TIP3   OH272082   3.942   5.623   1.307 -0.3492  0.2790 -0.9497
16864TIP3    H172083   3.963   5.537   1.344  0.4199  0.6899 -0.4189
16864TIP3    H272084   3.985   5.685   1.366 -0.9547  1.0295 -1.3010
16865TIP3   OH272085   5.301   2.393  12.348  0.0207 -0.2890 -0.2344
16865TIP3    H172086   5.328   2.483  12.328  0.8855 -0.7537 -1.2555
16865TIP3    H272087   5.307   2.348  12.263  0.3518 -1.4893  0.4210
16866TIP3   OH272088   6.346   2.526  11.518 -0.2051 -0.6034  0.7375
16866TIP3    H172089   6.359   2.433  11.501 -3.4483 -1.5502  2.9969
16866TIP3    H272090   6.363   2.537  11.612 -0.1185  1.0110  0.5571
16867TIP3   OH272091   6.122   0.681   2.116  0.0484  0.1495  0.3233
16867TIP3    H172092   6.088   0.627   2.044 -0.0043  1.2558 -0.4868
16867TIP3    H272093   6.044   0.724   2.151 -0.0702 -1.1588  1.7073
16868TIP3   OH272094   4.153   6.148   0.592 -0.2131 -0.1981 -0.5381
16868TIP3    H172095   4.185   6.144   0.502  0.3423 -0.6300 -0.3245
16868TIP3    H272096   4.105   6.066   0.604  0.4359 -0.5287 -0.1731
16869TIP3   OH272097   0.311   2.404   3.976  0.2129 -0.0312  0.3364
16869TIP3    H172098   0.341   2.462   4.046 -0.2748  1.5626 -0.7511
16869TIP3    H272099   0.350   2.319   3.996  0.4987  0.5354  2.2523
16870TIP3   OH272100   6.799   4.229   6.171  0.4473  0.0362  0.0187
16870TIP3    H172101   6.828   4.148   6.212 -1.3783 -0.2986  0.7026
16870TIP3    H272102   6.709   4.211   6.142 -0.0363  1.8407  0.3067
16871TIP3   OH272103   3.659   1.044  13.833  0.0071 -0.0688 -0.1828
16871TIP3    H172104   3.600   1.095  13.889 -0.0032  0.3117 -0.5352
16871TIP3    H272105   3.695   1.108  13.772  0.2897 -0.4194 -0.3876
16872TIP3   OH272106   2.167   4.361   4.432  0.4365  0.9990  0.1198
16872TIP3    H172107   2.124   4.292   4.382 -0.2339  1.6274 -0.1692
16872TIP3    H272108   2.140   4.443   4.390  3.3995  1.3513 -1.2730
16873TIP3   OH272109   3.030   2.661   3.913 -0.4139  0.0593 -0.3644
16873TIP3    H172110   3.074   2.734   3.871 -2.4868  0.9912 -0.9806
16873TIP3    H272111   3.061   2.583   3.866  1.7966  0.5281  0.2968
16874TIP3   OH272112   3.152   2.115  16.299  0.2195 -0.6921  0.2192
16874TIP3    H172113   3.117   2.091  16.214 -1.5425  0.6187  0.5501
16874TIP3    H272114   3.110   2.055  16.361 -0.8727  0.3581  0.5176
16875TIP3   OH272115   5.798   1.007   3.961  0.3368  0.3974 -0.6511
16875TIP3    H172116   5.740   0.981   3.890 -0.3102 -1.3411  0.4802
16875TIP3    H272117   5.742   1.056   4.021 -0.2833 -2.2536  1.0027
16876TIP3   OH272118   6.294   2.708   4.153  0.5559 -0.4599 -0.7237
16876TIP3    H172119   6.230   2.638   4.139  1.4843 -1.0934 -1.9207
16876TIP3    H272120   6.259   2.783   4.106  1.3256 -1.1972 -2.5155
16877TIP3   OH272121   6.501   0.909  15.669  0.2940  0.3184 -0.3222
16877TIP3    H172122   6.584   0.863  15.678 -1.1661 -2.0654  1.7337
16877TIP3    H272123   6.468   0.917  15.759 -3.0237 -1.3959 -1.2884
16878TIP3   OH272124   1.793   3.369   3.046  0.1295 -0.8023 -0.1014
16878TIP3    H172125   1.870   3.420   3.071  0.3046 -0.8499 -0.5425
16878TIP3    H272126   1.757   3.414   2.970 -0.3785 -0.6844  0.2015
16879TIP3   OH272127   0.361   2.893   4.438  0.1743  0.0060 -0.3171
16879TIP3    H172128   0.411   2.942   4.503 -1.6449 -0.4591  1.4771
16879TIP3    H272129   0.280   2.943   4.427  0.8116  0.5692 -2.9437
16880TIP3   OH272130   0.415   6.156   3.129  0.4795 -0.6606 -0.3064
16880TIP3    H172131   0.323   6.137   3.150  0.7230 -1.0285  0.4587
16880TIP3    H272132   0.420   6.148   3.034 -0.6200  0.8774 -0.5216
16881TIP3   OH272133   4.042   1.233   3.923  0.6843  0.0275 -0.6628
16881TIP3    H172134   3.982   1.197   3.988  0.9198  1.0414  0.1306
16881TIP3    H272135   4.048   1.326   3.944  1.5569  0.1804 -1.5083
16882TIP3   OH272136   4.951   1.683   1.501  0.0712 -0.1549  0.3457
16882TIP3    H172137   5.022   1.619   1.502  0.7688  0.6089  0.8706
16882TIP3    H272138   4.901   1.665   1.581  0.6494  0.3658  0.8310
16883TIP3   OH272139   4.143   2.976  17.138 -0.1269 -0.0008  0.8872
16883TIP3    H172140   4.150   3.071  17.152  0.2702 -0.2023  2.1069
16883TIP3    H272141   4.186   2.938  17.214  1.4645 -1.1551 -0.5493
16884TIP3   OH272142   1.706   4.536   0.584  0.2537 -0.0454  0.2686
16884TIP3    H172143   1.802   4.536   0.591  0.3781  0.9869 -1.2295
16884TIP3    H272144   1.688   4.494   0.500 -0.5370  1.2231 -0.2114
16885TIP3   OH272145   5.824   4.241  12.463 -0.2230  0.2621  0.1814
16885TIP3    H172146   5.738   4.214  12.496  0.4138 -0.3112  1.4162
16885TIP3    H272147   5.841   4.324  12.508 -0.1120  0.3518 -0.0275
16886TIP3   OH272148   1.559   4.453   1.010  0.2788 -0.5289 -0.2888
16886TIP3    H172149   1.493   4.421   1.072 -0.8748  3.0302  0.4277
16886TIP3    H272150   1.512   4.464   0.928  0.1331  1.1573 -0.0070
16887TIP3   OH272151   3.548   4.448  12.359 -0.0740 -0.1109  0.1416
16887TIP3    H172152   3.459   4.441  12.392 -0.3405  0.6241 -0.4155
16887TIP3    H272153   3.549   4.395  12.279  0.9230 -2.9890  1.9877
16888TIP3   OH272154   3.840   5.083   4.513 -0.4514 -0.4874 -0.5553
16888TIP3    H172155   3.904   5.078   4.442 -0.3578  1.7782 -0.6569
16888TIP3    H272156   3.776   5.148   4.484 -2.5447 -2.2980 -0.2084
16889TIP3   OH272157   5.833   3.022   2.800 -0.9082  0.3224 -0.2220
16889TIP3    H172158   5.854   3.099   2.853  0.0187  0.3302 -0.5903
16889TIP3    H272159   5.862   3.045   2.712  1.2832 -1.2259  0.0500
16890TIP3   OH272160   6.270   5.226  11.760  1.1089 -0.4606  0.3014
16890TIP3    H172161   6.304   5.164  11.825 -0.9759 -0.6427  1.2754
16890TIP3    H272162   6.205   5.277  11.808 -0.5777 -0.6822 -1.6834
16891TIP3   OH272163   4.957   0.613   2.191  0.4507  0.3497 -0.1737
16891TIP3    H172164   5.022   0.612   2.261  0.2671 -0.4451 -0.0132
16891TIP3    H272165   5.009   0.626   2.111  0.5015  3.1007  0.2522
16892TIP3   OH272166   2.665   4.438   3.335  0.2016  0.5489 -0.1206
16892TIP3    H172167   2.625   4.370   3.281  1.0831 -1.3201  1.5368
16892TIP3    H272168   2.759   4.426   3.322  0.3683  3.4056 -2.1472
16893TIP3   OH272169   3.822   6.267   0.065  0.1666  0.5892  0.2052
16893TIP3    H172170   3.865   6.308  -0.010  0.2051 -1.1752 -0.7659
16893TIP3    H272171   3.774   6.339   0.107 -0.2153  1.5252 -1.7582
16894TIP3   OH272172   1.736   2.114  11.403  0.6623  0.0625  0.4547
16894TIP3    H172173   1.697   2.027  11.387  1.4425 -0.3690  0.8707
16894TIP3    H272174   1.752   2.149  11.316 -1.7003  0.7358  0.2435
16895TIP3   OH272175   4.027   1.342  14.337  0.1026  1.2801  0.2721
16895TIP3    H172176   4.068   1.408  14.393  2.3621  1.5047 -1.5691
16895TIP3    H272177   4.069   1.260  14.364 -1.7523  0.7488  1.6540
16896TIP3   OH272178   0.788   0.742   4.228  0.2168 -0.5287  0.4204
16896TIP3    H172179   0.703   0.784   4.212  0.5637  0.1162  0.2349
16896TIP3    H272180   0.776   0.692   4.309 -1.3106 -3.0856 -1.2985
16897TIP3   OH272181   1.040   1.312   5.324 -0.1545 -0.4890 -0.8749
16897TIP3    H172182   1.003   1.243   5.270  0.6877 -1.0349 -0.7589
16897TIP3    H272183   1.047   1.387   5.265 -1.6938 -0.2940 -0.8218
16898TIP3   OH272184   4.098   2.158   1.851 -0.3471  0.0436 -0.5619
16898TIP3    H172185   4.125   2.235   1.800 -1.0805  0.4771 -0.2941
16898TIP3    H272186   4.151   2.087   1.816 -0.2966  0.4952 -1.4122
16899TIP3   OH272187   0.616   2.976   0.289  0.6385 -0.6651  0.4285
16899TIP3    H172188   0.587   2.948   0.376  0.7707 -1.3605  0.2492
16899TIP3    H272189   0.649   3.065   0.303  0.7378 -0.8020  1.1084
16900TIP3   OH272190   3.972   6.784   2.665 -0.0087 -0.4409 -0.2855
16900TIP3    H172191   3.918   6.755   2.738  1.7158 -0.8806  0.8585
16900TIP3    H272192   4.026   6.855   2.702  3.2072 -2.8534 -0.1590
16901TIP3   OH272193   3.062   0.571   2.598  0.3452  0.0647  0.5722
16901TIP3    H172194   2.968   0.567   2.584  0.7077 -0.4731 -1.9918
16901TIP3    H272195   3.083   0.492   2.648 -0.6318  0.4648  1.6140
16902TIP3   OH272196   0.031   3.013  12.045  0.0317 -0.2772  0.0999
16902TIP3    H172197  -0.036   3.078  12.027  0.4197 -0.0835 -0.6693
16902TIP3    H272198   0.016   2.944  11.980  1.6552  0.5873 -1.2349
16903TIP3   OH272199   2.605   3.976   4.371 -0.1746 -0.1588  0.3222
16903TIP3    H172200   2.640   4.039   4.309 -1.6272 -0.3975 -0.7929
16903TIP3    H272201   2.513   3.967   4.346 -0.5246 -1.0590  1.8522
16904TIP3   OH272202   5.482   6.617  14.862 -0.0500 -0.3711 -0.1433
16904TIP3    H172203   5.537   6.687  14.828 -0.5672 -1.2909 -3.0098
16904TIP3    H272204   5.534   6.577  14.933  0.2933  2.7486  1.4277
16905TIP3   OH272205   0.196   4.679   4.945 -0.5744 -0.6351  0.7972
16905TIP3    H172206   0.107   4.698   4.913 -0.5784 -1.8668  0.0453
16905TIP3    H272207   0.250   4.681   4.866 -0.5816 -3.7092  0.6510
16906TIP3   OH272208   4.266   1.803   4.105  0.5718  0.2913 -0.1374
16906TIP3    H172209   4.272   1.720   4.057 -1.1372  1.4319 -2.3882
16906TIP3    H272210   4.200   1.786   4.172  0.9054 -0.4593  0.0079
16907TIP3   OH272211   2.798   4.029  16.314 -0.5339  0.0185 -0.2334
16907TIP3    H172212   2.709   4.046  16.344 -1.3618  0.9024 -3.0217
16907TIP3    H272213   2.790   3.959  16.250  0.6079  0.8124 -1.2828
16908TIP3   OH272214   0.630   1.866   0.564 -0.3173 -0.0473  0.1442
16908TIP3    H172215   0.666   1.951   0.589 -0.3091  0.0234 -0.1016
16908TIP3    H272216   0.704   1.818   0.528 -0.6932  0.5208 -1.4365
16909TIP3   OH272217   1.191   4.522   4.837  0.2797  0.2057  0.1224
16909TIP3    H172218   1.282   4.494   4.825  0.4403 -0.0666  1.8901
16909TIP3    H272219   1.138   4.448   4.807  0.6104  0.6088 -1.5259
16910TIP3   OH272220   5.046   6.683  13.821  0.0326  0.4461  0.0897
16910TIP3    H172221   5.057   6.740  13.897  1.1013  1.1007 -0.5521
16910TIP3    H272222   5.065   6.739  13.746 -1.4211 -0.0890 -0.7005
16911TIP3   OH272223   2.978   0.212  10.790  0.2219  0.0887  0.1031
16911TIP3    H172224   2.928   0.153  10.846 -0.6647 -0.5708 -1.3663
16911TIP3    H272225   3.069   0.201  10.820 -0.1159 -0.9333  0.7900
16912TIP3   OH272226   0.186   2.804  11.738  0.7210  0.7741  0.2122
16912TIP3    H172227   0.189   2.725  11.684 -0.2674  0.6251  0.3719
16912TIP3    H272228   0.158   2.873  11.679 -0.1926  0.6451  0.4989
16913TIP3   OH272229   6.032   6.359  15.897  0.4050  0.0023 -0.2384
16913TIP3    H172230   5.963   6.339  15.960 -0.2440  0.7850 -0.6762
16913TIP3    H272231   6.071   6.275  15.876 -0.8064 -0.5306 -0.4128
16914TIP3   OH272232   5.314   3.880  16.605 -0.7783  0.0885  0.3593
16914TIP3    H172233   5.228   3.862  16.568 -0.9135 -0.4326  0.9258
16914TIP3    H272234   5.298   3.946  16.673 -0.2928  2.3117 -1.6535
16915TIP3   OH272235   3.223   3.852   5.193 -0.4715 -0.2792 -1.0153
16915TIP3    H172236   3.303   3.904   5.187 -0.2297 -0.5914 -0.5440
16915TIP3    H272237   3.239   3.793   5.266 -1.1959 -0.2422 -0.8297
16916TIP3   OH272238   3.853   6.447   4.344  0.0887  0.0417 -0.2713
16916TIP3    H172239   3.852   6.362   4.389 -0.0029  0.0406 -0.2758
16916TIP3    H272240   3.843   6.425   4.251  1.1634 -0.0186 -0.3859
16917TIP3   OH272241   5.134   4.640  10.928  0.2821 -0.2695 -0.4897
16917TIP3    H172242   5.045   4.648  10.962 -0.0582 -2.5520 -0.7117
16917TIP3    H272243   5.129   4.672  10.839 -0.4003 -0.6371 -0.5873
16918TIP3   OH272244   1.318   0.876  12.778 -0.0637 -0.2312  0.1175
16918TIP3    H172245   1.334   0.830  12.696 -0.3693  1.0379 -0.6761
16918TIP3    H272246   1.231   0.846  12.806  0.2288 -0.9967  0.2110
16919TIP3   OH272247   5.114   2.827   3.274 -0.8799  0.3399 -0.1086
16919TIP3    H172248   5.052   2.830   3.201  2.0695 -1.5139 -2.8299
16919TIP3    H272249   5.171   2.903   3.260 -0.4241  0.0929  0.3920
16920TIP3   OH272250   1.142   4.455  16.453 -0.6772 -0.2158 -0.0676
16920TIP3    H172251   1.201   4.466  16.378 -2.5239 -0.2188 -1.5487
16920TIP3    H272252   1.117   4.544  16.478  0.4539 -0.1797  0.9933
16921TIP3   OH272253   0.687   5.559  11.188 -0.1734 -0.2489  0.6163
16921TIP3    H172254   0.686   5.574  11.093  0.3130 -1.0273  0.4843
16921TIP3    H272255   0.648   5.473  11.199 -0.3512 -0.0998  1.1373
16922TIP3   OH272256   6.087   2.469   2.699 -0.0681  0.2829  0.2612
16922TIP3    H172257   6.145   2.532   2.656  0.5817 -1.3083 -1.3127
16922TIP3    H272258   6.122   2.460   2.787  1.8581 -0.3175 -0.5345
16923TIP3   OH272259   5.468   2.474   0.377  0.5169  1.1352 -0.0377
16923TIP3    H172260   5.511   2.508   0.299  0.2386  0.8222 -0.3260
16923TIP3    H272261   5.510   2.390   0.393 -0.1150  0.7463 -0.4224
16924TIP3   OH272262   1.940   2.681   1.283 -0.1149 -0.6389 -0.2418
16924TIP3    H172263   1.924   2.762   1.234  0.7119 -0.6178 -0.4885
16924TIP3    H272264   1.945   2.709   1.375  0.7321 -0.3194 -0.3799
16925TIP3   OH272265   5.043   0.067   3.997 -0.4227  0.5091 -0.6443
16925TIP3    H172266   5.033   0.117   4.078 -0.9250  0.5093 -0.7049
16925TIP3    H272267   5.055  -0.023   4.026  0.1204  0.6047 -0.5487
16926TIP3   OH272268   4.801   0.492   5.181  0.5510  0.4569 -0.2502
16926TIP3    H172269   4.734   0.556   5.160  0.7510  0.4071 -1.0600
16926TIP3    H272270   4.775   0.413   5.134 -0.2894 -0.4157  1.6113
16927TIP3   OH272271   5.790   2.035  12.659  0.3880 -0.2657  0.1317
16927TIP3    H172272   5.844   2.106  12.624  0.6984 -0.4195  0.2951
16927TIP3    H272273   5.738   2.005  12.584  0.7561 -0.3237 -0.1005
16928TIP3   OH272274   3.110   0.414   0.377 -0.3403  0.6865 -0.3180
16928TIP3    H172275   3.059   0.400   0.457 -1.7875 -0.8799 -1.4733
16928TIP3    H272276   3.073   0.493   0.339 -1.3093  0.0886 -0.6559
16929TIP3   OH272277   3.392   4.826   4.338 -0.2259 -0.5836 -0.0837
16929TIP3    H172278   3.329   4.779   4.284 -0.2712 -1.6861  0.9124
16929TIP3    H272279   3.353   4.830   4.425  1.7902 -2.8309  0.9935
16930TIP3   OH272280   6.725   4.323  11.141 -0.0289  0.6823  0.1694
16930TIP3    H172281   6.789   4.387  11.111 -0.5395  0.3468 -1.7371
16930TIP3    H272282   6.771   4.239  11.137 -0.1364  0.6212  0.1971
16931TIP3   OH272283   2.369   3.071   2.873 -0.0462  0.3362  0.4012
16931TIP3    H172284   2.318   3.079   2.793 -0.0712  0.9458  0.4718
16931TIP3    H272285   2.316   3.115   2.940 -0.5367 -1.1407  0.9916
16932TIP3   OH272286   1.756   6.352  11.560  0.1038  0.1195 -0.1671
16932TIP3    H172287   1.767   6.315  11.472  1.1043 -0.6839  0.2834
16932TIP3    H272288   1.845   6.355  11.595 -0.2491  0.8282  0.6623
16933TIP3   OH272289   4.882   5.026  14.456 -0.1795 -0.0529  0.2130
16933TIP3    H172290   4.898   4.955  14.518  2.2578 -1.8919 -2.3753
16933TIP3    H272291   4.959   5.082  14.464 -0.9546  0.9958  0.4808
16934TIP3   OH272292   5.904   3.980   2.587  0.3050 -0.5129 -0.1798
16934TIP3    H172293   5.875   4.052   2.643  2.0338  0.9580 -1.1188
16934TIP3    H272294   5.874   3.901   2.632 -1.3043  0.7639  1.0638
16935TIP3   OH272295   0.965   3.744  14.475 -0.4775 -0.0660  0.0072
16935TIP3    H172296   0.888   3.706  14.516  1.5517 -1.6532  2.5655
16935TIP3    H272297   1.011   3.787  14.547  0.2309  2.2657 -1.7693
16936TIP3   OH272298   4.940   5.971   5.785  0.6528  0.2639 -0.2663
16936TIP3    H172299   4.878   5.909   5.748  0.4262 -0.4334  1.2223
16936TIP3    H272300   4.958   5.937   5.873  1.4058  1.6797  0.1455
16937TIP3   OH272301   4.746   0.354   4.961  0.7309  0.4914 -0.7504
16937TIP3    H172302   4.839   0.338   4.978  0.6947 -0.1359 -1.1356
16937TIP3    H272303   4.709   0.267   4.947  0.0265  0.7143 -0.3178
16938TIP3   OH272304   0.396   4.494   2.195 -0.4795  0.2709 -0.2679
16938TIP3    H172305   0.358   4.459   2.114 -1.5271  1.1635 -0.1745
16938TIP3    H272306   0.488   4.511   2.172 -0.4709 -0.5570 -0.9189
16939TIP3   OH272307   2.894   5.399   4.973 -0.2257  0.3661 -0.2549
16939TIP3    H172308   2.879   5.395   5.068  2.1589 -0.9038  0.1283
16939TIP3    H272309   2.935   5.484   4.959  0.9830 -0.1360  0.1386
16940TIP3   OH272310   1.396   5.408  12.840 -0.0447  0.0417  0.1764
16940TIP3    H172311   1.466   5.423  12.775  0.3209  1.8990  0.9543
16940TIP3    H272312   1.342   5.487  12.834 -1.7294 -1.1129  0.0236
16941TIP3   OH272313   4.436   0.076   3.286  0.1040 -0.1194  0.3435
16941TIP3    H172314   4.398   0.163   3.297 -0.6181 -0.4695  0.6541
16941TIP3    H272315   4.530   0.088   3.303 -0.5392 -0.1143  4.2492
16942TIP3   OH272316   0.730   0.413  16.306 -0.1746 -0.1197  0.0821
16942TIP3    H172317   0.795   0.452  16.248  0.2221  1.9616  1.8582
16942TIP3    H272318   0.651   0.465  16.292  0.0326  0.6521  1.6553
16943TIP3   OH272319   4.940   1.358  11.743 -0.1231 -0.5439 -0.0057
16943TIP3    H172320   4.917   1.449  11.724  0.8644 -0.0281  1.2201
16943TIP3    H272321   4.900   1.308  11.672 -0.7639  0.8335 -0.6327
16944TIP3   OH272322   3.786   6.432  12.752  0.6787 -0.6376 -0.7388
16944TIP3    H172323   3.753   6.342  12.752  0.2273 -0.4757 -1.6361
16944TIP3    H272324   3.726   6.480  12.808  2.8174 -1.5560  2.5308
16945TIP3   OH272325   2.120   0.052  16.724  0.3082 -0.3642 -0.5325
16945TIP3    H172326   2.045   0.071  16.780  1.8962  0.6012  1.2933
16945TIP3    H272327   2.099   0.095  16.641 -1.8026 -1.3359 -0.5368
16946TIP3   OH272328   0.376   1.215  13.160  0.1181  0.6070  0.4582
16946TIP3    H172329   0.306   1.225  13.225 -0.0343  0.2263  0.3525
16946TIP3    H272330   0.455   1.244  13.206  0.0677  0.0120  0.9241
16947TIP3   OH272331   0.641   6.438   1.931  0.4903  0.0154 -0.1347
16947TIP3    H172332   0.605   6.408   2.014 -0.2012 -2.5593 -1.3261
16947TIP3    H272333   0.732   6.407   1.932 -0.7791 -4.1004 -2.2247
16948TIP3   OH272334   1.538   4.290  11.662 -0.5122  0.2086  0.6614
16948TIP3    H172335   1.583   4.206  11.653  0.7708  0.9862 -0.2613
16948TIP3    H272336   1.452   4.276  11.620 -0.4017 -0.7112  0.7353
16949TIP3   OH272337   3.912   0.604   0.366  0.0288  0.2566  0.2535
16949TIP3    H172338   3.944   0.675   0.311  0.4939  1.3712  1.9236
16949TIP3    H272339   3.947   0.623   0.453 -0.7921 -1.3955  0.9767
16950TIP3   OH272340   2.421   1.652  16.603 -0.3728  0.3782 -0.1122
16950TIP3    H172341   2.431   1.747  16.607 -0.1626  0.3677 -0.3826
16950TIP3    H272342   2.369   1.630  16.681 -1.3268  0.8272 -0.6187
16951TIP3   OH272343   6.467   6.683  12.555 -0.4077  0.0214  0.1255
16951TIP3    H172344   6.439   6.681  12.647  0.7614 -0.4658  0.4850
16951TIP3    H272345   6.506   6.597  12.540  0.1648  0.3974 -0.5838
16952TIP3   OH272346   4.519   6.220   2.366  0.2291  0.0104  0.2253
16952TIP3    H172347   4.469   6.292   2.404  1.1911  0.8036  0.0226
16952TIP3    H272348   4.604   6.224   2.410  0.1517 -1.2737  0.5146
16953TIP3   OH272349   3.076   5.461   1.565 -0.5478  0.1710 -0.3985
16953TIP3    H172350   3.130   5.530   1.606  0.6213 -0.7833 -0.3025
16953TIP3    H272351   3.023   5.508   1.501 -0.6993  1.3566  0.5676
16954TIP3   OH272352   5.459   4.592  17.066  0.2448 -0.1863 -0.0484
16954TIP3    H172353   5.463   4.623  17.157 -2.3436 -1.3688  0.5224
16954TIP3    H272354   5.522   4.521  17.062  1.1536  0.5793  0.5343
16955TIP3   OH272355   4.008   3.557   3.192 -0.3194  0.0828  0.0367
16955TIP3    H172356   4.048   3.603   3.118 -1.6844 -1.3422 -1.6008
16955TIP3    H272357   3.986   3.470   3.158 -1.5043 -0.3948  1.9454
16956TIP3   OH272358   6.300   5.063   4.015  0.4095  0.4842  0.3064
16956TIP3    H172359   6.393   5.041   4.027  0.6789  1.0190 -0.7186
16956TIP3    H272360   6.279   5.030   3.928 -0.6458 -0.5106  0.9223
16957TIP3   OH272361   5.324   5.921   3.816 -0.5323  0.1827 -0.3515
16957TIP3    H172362   5.387   5.921   3.888 -0.2999 -0.3043 -0.5486
16957TIP3    H272363   5.241   5.945   3.857 -1.1225 -3.4044  0.7435
16958TIP3   OH272364   2.420   2.472  11.802 -0.3309 -0.0978 -0.3305
16958TIP3    H172365   2.505   2.496  11.838  0.1676 -0.8383 -1.0132
16958TIP3    H272366   2.440   2.424  11.722 -1.4239  1.1939 -1.3922
16959TIP3   OH272367   1.550   0.507  12.334  0.3920  0.0801 -0.0309
16959TIP3    H172368   1.572   0.485  12.244  1.6416  0.2053  0.2248
16959TIP3    H272369   1.545   0.602  12.335  0.2200  0.0701 -0.0081
16960TIP3   OH272370   5.637   2.986   2.270  0.2542 -0.1359  0.2094
16960TIP3    H172371   5.577   3.061   2.273  0.0210 -0.2976 -0.2971
16960TIP3    H272372   5.718   3.022   2.234 -0.8501 -0.7623 -3.0519
16961TIP3   OH272373   2.497   6.375   4.140 -0.5598 -0.4717  0.2115
16961TIP3    H172374   2.449   6.451   4.173 -0.6481  0.5401 -2.1210
16961TIP3    H272375   2.435   6.331   4.082 -0.1148 -1.6893  0.6314
16962TIP3   OH272376   4.646   1.667   0.308 -0.2156 -0.3330  0.3057
16962TIP3    H172377   4.626   1.711   0.391  1.0033  0.4694  0.1798
16962TIP3    H272378   4.722   1.713   0.274 -0.1403 -1.2660 -0.8150
16963TIP3   OH272379   4.196   1.462  11.392  0.4486  0.7400 -0.1721
16963TIP3    H172380   4.198   1.549  11.431  0.8858 -0.3240  2.2847
16963TIP3    H272381   4.274   1.419  11.425 -0.6300 -1.1451 -0.0238
16964TIP3   OH272382   1.921   2.277   2.974  0.1375  0.1848  0.1348
16964TIP3    H172383   1.907   2.361   2.929 -0.1880  0.7583  1.2867
16964TIP3    H272384   1.976   2.298   3.049  2.7730 -1.1920 -1.3632
16965TIP3   OH272385   1.570   4.783   0.680 -0.0330 -0.3479  0.0776
16965TIP3    H172386   1.611   4.791   0.766  0.0152 -0.6894  0.0869
16965TIP3    H272387   1.600   4.698   0.647 -1.2090 -0.8648  0.3315
16966TIP3   OH272388   2.021   0.218  16.257 -0.0065  0.2020  0.9102
16966TIP3    H172389   2.022   0.312  16.240  0.1501 -0.0698 -0.6988
16966TIP3    H272390   2.040   0.210  16.350 -0.0014  1.7620  1.0581
16967TIP3   OH272391   5.767   0.174   4.510 -0.0255 -0.1853 -0.2308
16967TIP3    H172392   5.733   0.100   4.561 -0.8634 -0.3084 -0.9753
16967TIP3    H272393   5.773   0.246   4.573  1.0046 -0.9388  0.5517
16968TIP3   OH272394   6.723   1.564  14.483 -0.1179 -0.2157  0.3798
16968TIP3    H172395   6.810   1.536  14.510 -0.1154 -0.0953  0.4965
16968TIP3    H272396   6.720   1.658  14.503 -0.4556 -0.3270  0.8509
16969TIP3   OH272397   5.977   1.845  13.052 -0.2778  0.0496  0.3764
16969TIP3    H172398   6.035   1.876  13.122  0.0307  1.1631 -0.3544
16969TIP3    H272399   6.037   1.808  12.986 -0.5337 -0.5275  0.4636
16970TIP3   OH272400   1.917   3.744  14.131  0.0377  0.0884  0.5182
16970TIP3    H172401   1.845   3.681  14.139  0.8255 -0.6821  1.6262
16970TIP3    H272402   1.907   3.802  14.207 -0.9640  1.6326 -0.7383
16971TIP3   OH272403   2.772   5.613  15.669 -1.1480  0.0300  0.2145
16971TIP3    H172404   2.863   5.584  15.676 -1.5767 -0.7938  2.7741
16971TIP3    H272405   2.777   5.708  15.685 -0.9945 -0.3817  2.7097
16972TIP3   OH272406   1.730   0.749   0.475 -0.1085  0.8182 -0.2429
16972TIP3    H172407   1.788   0.773   0.547  0.0707  1.1254 -0.4896
16972TIP3    H272408   1.753   0.658   0.454  0.6373  1.1017 -0.6767
16973TIP3   OH272409   5.269   2.473  14.323 -0.4140  0.5857  0.4915
16973TIP3    H172410   5.238   2.527  14.396  3.4927  2.5946  0.7915
16973TIP3    H272411   5.256   2.528  14.246 -0.5638  0.1732  0.2233
16974TIP3   OH272412   6.626   6.001  13.825  0.3102  0.6355  0.3313
16974TIP3    H172413   6.532   6.001  13.843  0.1017 -1.3281 -0.5754
16974TIP3    H272414   6.663   5.947  13.895  0.4206 -0.7758 -0.7989
16975TIP3   OH272415   1.424   5.488  14.535 -0.3819 -0.2781 -0.4790
16975TIP3    H172416   1.392   5.458  14.450 -1.4619  1.4347 -0.7075
16975TIP3    H272417   1.352   5.467  14.595  0.5382 -1.8423  0.0966
16976TIP3   OH272418   6.271   6.550  15.611  0.6658  0.1679 -0.1731
16976TIP3    H172419   6.316   6.476  15.652 -1.8153 -1.3100  0.0253
16976TIP3    H272420   6.186   6.554  15.656  0.3879  2.5688 -0.8305
16977TIP3   OH272421   5.000   3.950   0.882 -0.3382 -0.3580  0.1689
16977TIP3    H172422   4.912   3.934   0.847 -0.7799 -1.0441  1.5497
16977TIP3    H272423   4.995   3.921   0.973  0.9728  0.7571  0.6147
16978TIP3   OH272424   1.493   4.262   3.244 -0.3459 -0.2764 -0.2254
16978TIP3    H172425   1.586   4.252   3.225 -0.5136  0.1516 -1.3585
16978TIP3    H272426   1.481   4.357   3.255 -1.2095  0.0428 -3.3570
16979TIP3   OH272427   1.130   5.162  12.507 -0.5676  0.1054  0.4652
16979TIP3    H172428   1.140   5.161  12.602 -0.2242 -0.5126  0.4267
16979TIP3    H272429   1.110   5.253  12.486  1.9785  0.7759  0.8568
16980TIP3   OH272430   0.969   3.146  16.906  0.5550  0.1146  0.5425
16980TIP3    H172431   1.021   3.170  16.983  1.4209  1.1447 -0.3543
16980TIP3    H272432   1.024   3.087  16.856  0.6557  0.7663 -0.1264
16981TIP3   OH272433   1.262   0.109   4.771  0.1191 -0.4011 -0.2295
16981TIP3    H172434   1.329   0.056   4.728  1.0365 -0.1897  0.8922
16981TIP3    H272435   1.192   0.119   4.706  0.2280 -2.4265 -0.6762
16982TIP3   OH272436   4.877   3.288  16.823  0.1118  0.4267  0.1689
16982TIP3    H172437   4.932   3.285  16.745 -0.7252 -0.3039 -0.4033
16982TIP3    H272438   4.874   3.197  16.853 -1.2365  0.3704 -0.1310
16983TIP3   OH272439   5.521   4.462  15.356  0.4803 -0.3949  0.2584
16983TIP3    H172440   5.458   4.398  15.322 -1.7360  1.1863  1.3056
16983TIP3    H272441   5.475   4.504  15.429  1.1995  3.6437 -1.5012
16984TIP3   OH272442   2.715   2.757  16.450  0.0926 -0.5085 -0.5912
16984TIP3    H172443   2.649   2.800  16.505  1.2455  0.4690  0.0438
16984TIP3    H272444   2.739   2.823  16.385  1.0106 -0.5803 -0.3308
16985TIP3   OH272445   0.174   1.575   3.875 -0.6700  0.0576 -0.3310
16985TIP3    H172446   0.161   1.501   3.935 -0.5563  0.9386  0.7815
16985TIP3    H272447   0.094   1.626   3.883 -0.1797  0.7869 -0.0827
16986TIP3   OH272448   4.900   3.600   6.876  0.2586  0.4800 -0.2368
16986TIP3    H172449   4.895   3.647   6.793  0.0635 -0.1686 -0.5970
16986TIP3    H272450   4.847   3.652   6.936 -1.0306  0.0437 -0.9692
16987TIP3   OH272451   0.864   5.404  13.998 -0.1670  0.4006 -0.1276
16987TIP3    H172452   0.880   5.405  13.903 -0.8284 -0.5895 -0.2548
16987TIP3    H272453   0.876   5.312  14.022 -4.2931 -0.1573  0.0200
16988TIP3   OH272454   5.014   3.694   3.871  0.6924  0.1283  0.6318
16988TIP3    H172455   4.988   3.605   3.895 -0.1516  0.4087  0.7769
16988TIP3    H272456   5.095   3.709   3.921  0.9159 -0.5981  0.5025
16989TIP3   OH272457   5.950   6.215  11.402  0.0223  0.3713 -0.3094
16989TIP3    H172458   5.956   6.185  11.311 -0.4735  0.4138 -0.3588
16989TIP3    H272459   5.896   6.294  11.398  1.7724  1.5948 -0.2516
16990TIP3   OH272460   5.542   4.905   5.185  0.4497  0.1257 -0.0763
16990TIP3    H172461   5.561   4.824   5.137  1.3169 -0.2063  0.8321
16990TIP3    H272462   5.615   4.963   5.165 -0.2190  0.7364 -0.8056
16991TIP3   OH272463   3.477   4.246   2.220 -0.7320  0.3722 -0.6217
16991TIP3    H172464   3.473   4.341   2.208  0.2172  0.6271  0.9354
16991TIP3    H272465   3.530   4.234   2.299  0.7488 -1.5217 -1.8559
16992TIP3   OH272466   1.226   2.176   3.519 -0.3439  0.1181 -0.5013
16992TIP3    H172467   1.199   2.100   3.572  3.4900  1.9595  4.4560
16992TIP3    H272468   1.311   2.151   3.482  0.2608  1.4593 -0.0297
16993TIP3   OH272469   5.331   0.679   5.335  0.1861 -0.6824  0.1512
16993TIP3    H172470   5.258   0.680   5.397  0.8262 -0.3096  0.9055
16993TIP3    H272471   5.307   0.744   5.270  0.1636 -0.0460  0.7834
16994TIP3   OH272472   0.277   1.475  12.730 -0.5371 -0.3361 -0.3126
16994TIP3    H172473   0.243   1.520  12.653 -1.2620 -0.0435  0.1807
16994TIP3    H272474   0.204   1.423  12.763 -0.8944  1.2389  1.4568
16995TIP3   OH272475   1.989   4.150   4.652  0.0299  0.0429 -0.0719
16995TIP3    H172476   1.962   4.088   4.585  0.6748  0.8523 -1.0941
16995TIP3    H272477   2.060   4.106   4.699  1.3073  0.4723 -1.5770
16996TIP3   OH272478   0.588   4.660  12.566  0.2505  0.1181 -0.5092
16996TIP3    H172479   0.508   4.609  12.576 -0.2077  1.0979  1.0318
16996TIP3    H272480   0.608   4.656  12.473 -1.5235 -0.2497 -0.8864
16997TIP3   OH272481   6.208   1.129  12.351  0.1411 -0.5726 -0.3852
16997TIP3    H172482   6.225   1.194  12.282 -0.1071  1.8056  1.7356
16997TIP3    H272483   6.236   1.046  12.312  1.7412  0.9681 -2.6930
16998TIP3   OH272484   5.816   6.815   1.333  0.0437  1.2386  0.0783
16998TIP3    H172485   5.859   6.899   1.316  1.1424  0.3198 -1.8242
16998TIP3    H272486   5.866   6.752   1.281 -1.7946 -0.3353  0.1842
16999TIP3   OH272487   4.603   2.738   0.410 -0.2880  0.3253 -0.3846
16999TIP3    H172488   4.536   2.781   0.357  0.4693  0.4000 -1.3053
16999TIP3    H272489   4.599   2.646   0.382 -1.4533 -0.0992  1.1023
17000TIP3   OH272490   5.043   4.321   2.650 -0.1342  0.2322  0.2932
17000TIP3    H172491   5.008   4.404   2.681 -0.1012  0.7565 -1.0466
17000TIP3    H272492   5.105   4.294   2.717 -1.6767  0.2469  1.7505
17001TIP3   OH272493   2.408   0.335   3.697 -0.4650 -0.3224 -0.1277
17001TIP3    H172494   2.420   0.266   3.762  0.3760  0.8067  0.9142
17001TIP3    H272495   2.483   0.393   3.708  0.3536 -0.7430 -2.9020
17002TIP3   OH272496   5.747   3.011  12.168  1.1278  0.2619  0.0087
17002TIP3    H172497   5.675   3.073  12.181  1.8537  0.9164  0.9685
17002TIP3    H272498   5.764   2.975  12.255  0.2730 -1.8090 -0.6462
17003TIP3   OH272499   0.135   4.385  17.091  0.0765  0.2115 -0.0048
17003TIP3    H172500   0.134   4.310  17.032  2.6617 -0.4943  0.8071
17003TIP3    H272501   0.182   4.453  17.043  1.9066 -0.2620  1.0796
17004TIP3   OH272502   0.349   3.876   0.867  0.1240 -0.1072 -0.6301
17004TIP3    H172503   0.377   3.913   0.784 -0.0047  1.6210  0.0679
17004TIP3    H272504   0.299   3.946   0.909  0.7258 -0.7062  1.1742
17005TIP3   OH272505   4.611   5.564   2.453  0.1819  0.2287  0.3112
17005TIP3    H172506   4.533   5.535   2.407  0.7483  2.0386 -1.8317
17005TIP3    H272507   4.578   5.610   2.530 -0.8209  0.2292 -0.1153
17006TIP3   OH272508   4.083   4.260   2.443  0.4880 -0.1083  0.1158
17006TIP3    H172509   4.063   4.326   2.509  0.6377 -0.4903  0.5422
17006TIP3    H272510   4.072   4.306   2.359 -0.6913  0.0997  0.3754
17007TIP3   OH272511   5.092   0.209  13.378  0.3121  0.8054  0.5731
17007TIP3    H172512   5.050   0.125  13.362 -0.7672  1.5784 -0.8986
17007TIP3    H272513   5.150   0.222  13.302  1.3774  0.8525  1.3817
17008TIP3   OH272514   0.420   5.053  14.389 -0.7472 -0.4216  0.1228
17008TIP3    H172515   0.485   5.061  14.319 -2.4889 -1.4782 -1.6580
17008TIP3    H272516   0.432   4.965  14.424  1.5024  0.7873  2.6385
17009TIP3   OH272517   3.907   4.036  12.957 -0.5706 -0.3207 -0.8226
17009TIP3    H172518   3.894   4.128  12.979  3.1253  0.5893 -2.0747
17009TIP3    H272519   3.878   4.029  12.866 -0.2326 -0.2378 -0.9379
17010TIP3   OH272520   5.915   1.569  14.223  0.2811  0.3850  0.0380
17010TIP3    H172521   5.877   1.579  14.310  0.3202 -0.5678  0.1684
17010TIP3    H272522   5.895   1.478  14.198 -0.4521  0.8916 -1.2853
17011TIP3   OH272523   1.466   4.538   3.321  0.0758 -0.2235  0.3911
17011TIP3    H172524   1.502   4.517   3.407 -1.1025  2.5961  1.6349
17011TIP3    H272525   1.513   4.617   3.294  0.5355 -1.1624 -1.6429
17012TIP3   OH272526   1.348   2.617  13.385 -0.4633 -0.1986  0.1825
17012TIP3    H172527   1.387   2.701  13.410  0.4005 -0.5658  0.0918
17012TIP3    H272528   1.378   2.603  13.296  0.6521 -1.3208  0.7147
17013TIP3   OH272529   2.188   0.754  13.133 -0.0417  0.0949 -0.1477
17013TIP3    H172530   2.220   0.675  13.090  0.8072  0.4359 -0.1648
17013TIP3    H272531   2.260   0.817  13.125 -0.4600  0.6629  0.4170
17014TIP3   OH272532   4.342   0.808   5.095  0.1056 -1.1555 -0.0882
17014TIP3    H172533   4.330   0.859   5.175  1.6647 -0.9862  0.0516
17014TIP3    H272534   4.270   0.835   5.039 -0.7324 -0.9221  1.0739
17015TIP3   OH272535   2.039   2.797   3.767  0.1488  0.1432  0.2387
17015TIP3    H172536   2.040   2.833   3.856  0.0010  0.7057  0.0138
17015TIP3    H272537   1.997   2.865   3.715 -0.6047 -0.5842 -0.0959
17016TIP3   OH272538   3.443   0.885   2.872  0.1508  0.1327 -0.3499
17016TIP3    H172539   3.361   0.837   2.869 -0.2806  0.7969  0.4133
17016TIP3    H272540   3.487   0.853   2.951 -0.4623  1.4771  0.5580
17017TIP3   OH272541   3.778   6.153   1.241 -0.4577  0.3261  0.2968
17017TIP3    H172542   3.819   6.167   1.326  1.8574 -0.0948 -0.7092
17017TIP3    H272543   3.773   6.240   1.202  0.3687  0.2624  0.0408
17018TIP3   OH272544   5.818   0.707  13.927  0.1923  0.3258 -0.0744
17018TIP3    H172545   5.885   0.661  13.978  0.3097  0.5134 -0.0631
17018TIP3    H272546   5.864   0.777  13.883  0.5208 -1.2213 -2.2699
17019TIP3   OH272547   3.029   6.484   5.347  0.2971 -0.3434 -0.8583
17019TIP3    H172548   3.083   6.554   5.382  0.4561 -0.5195 -0.7555
17019TIP3    H272549   3.068   6.403   5.381 -0.7145 -0.4139  0.1719
17020TIP3   OH272550   5.651   2.898   2.555  0.1733  0.4991 -0.3621
17020TIP3    H172551   5.689   2.975   2.514 -0.8101  1.4351  0.4414
17020TIP3    H272552   5.558   2.901   2.532  0.0757 -0.3063 -0.1126
17021TIP3   OH272553   0.308   3.646  13.582  0.6297  0.4750  0.2819
17021TIP3    H172554   0.280   3.727  13.540 -0.6910  0.6810  1.5190
17021TIP3    H272555   0.403   3.646  13.572  0.3001  0.1324 -3.3261
17022TIP3   OH272556   4.571   0.447  14.835  0.3824  0.7012  0.3336
17022TIP3    H172557   4.558   0.521  14.776  0.7234  0.0339 -0.5933
17022TIP3    H272558   4.482   0.424  14.864 -0.0351 -0.3790 -1.6931
17023TIP3   OH272559   1.347   1.466  10.702 -0.6104 -0.1312  0.4565
17023TIP3    H172560   1.378   1.525  10.770 -1.4613  0.8550  0.0049
17023TIP3    H272561   1.424   1.448  10.649 -0.0082 -0.6653  1.4878
17024TIP3   OH272562   1.384   4.165   5.392  0.3097 -0.7129 -0.0067
17024TIP3    H172563   1.443   4.118   5.452 -0.3075 -1.7163 -0.1684
17024TIP3    H272564   1.403   4.128   5.306  0.8204  0.3528 -0.3559
17025TIP3   OH272565   4.082   1.839   5.946  0.1326  0.0897 -0.1730
17025TIP3    H172566   4.038   1.788   6.014  0.3894  0.5140  0.3191
17025TIP3    H272567   4.141   1.777   5.904 -3.4835 -1.4682 -3.2919
17026TIP3   OH272568   2.575   3.885  15.256 -0.3423  0.1408 -0.2518
17026TIP3    H172569   2.572   3.976  15.228 -0.0950  0.0051 -0.7233
17026TIP3    H272570   2.494   3.847  15.223  0.5000 -0.3131 -1.8079
17027TIP3   OH272571   4.263   6.315  16.056  0.3350 -0.2351 -0.1782
17027TIP3    H172572   4.345   6.267  16.041  1.7072  1.9547  0.0434
17027TIP3    H272573   4.291   6.404  16.079 -2.0018 -0.4804  4.0643
17028TIP3   OH272574   4.977   1.878  13.559 -0.0753  0.5000 -0.0713
17028TIP3    H172575   5.045   1.904  13.498 -0.7874 -0.7409 -1.4092
17028TIP3    H272576   4.900   1.863  13.504 -0.4610 -1.6047  0.9986
17029TIP3   OH272577   2.500   0.808   1.441 -0.0751 -0.2884  0.7994
17029TIP3    H172578   2.422   0.863   1.450  0.3020  0.7696 -1.9924
17029TIP3    H272579   2.471   0.721   1.468 -2.1052  0.1769  0.2555
17030TIP3   OH272580   5.628   1.651   5.271 -0.2026 -0.0058 -0.4348
17030TIP3    H172581   5.585   1.713   5.212 -0.2528  0.8283  0.4705
17030TIP3    H272582   5.558   1.617   5.327 -0.1012 -0.5539 -0.6317
17031TIP3   OH272583   5.462   3.231  16.457  0.4228  0.5078 -0.1317
17031TIP3    H172584   5.371   3.212  16.433  0.9150  0.0710 -1.6776
17031TIP3    H272585   5.505   3.146  16.457  0.3659  0.4198  2.7587
17032TIP3   OH272586   6.170   2.584  15.088 -0.1284  0.7279  0.2948
17032TIP3    H172587   6.150   2.666  15.043  0.4388  0.7654  0.1129
17032TIP3    H272588   6.253   2.554  15.049 -0.1231  0.2779  0.6446
17033TIP3   OH272589   5.540   1.135  13.241  0.3807  0.1175  0.4518
17033TIP3    H172590   5.570   1.113  13.329 -3.0638  0.3311  1.7744
17033TIP3    H272591   5.508   1.225  13.248 -0.8224 -0.1890 -0.7560
17034TIP3   OH272592   3.561   0.295  16.412  0.3142 -0.4023  0.1663
17034TIP3    H172593   3.654   0.313  16.425  0.2988 -1.0439  1.2735
17034TIP3    H272594   3.517   0.379  16.426  0.7089 -0.1405 -0.1783
17035TIP3   OH272595   4.831   1.145   0.070  0.3882  0.1910  0.1303
17035TIP3    H172596   4.824   1.052   0.052  0.5952  0.5752 -2.0411
17035TIP3    H272597   4.810   1.153   0.163 -0.8837 -1.8570  0.0426
17036TIP3   OH272598   2.771   6.579   2.455  0.1935  0.3335 -0.0888
17036TIP3    H172599   2.780   6.505   2.514  0.1731  0.6331  0.2901
17036TIP3    H272600   2.700   6.555   2.396 -0.6911  0.5996  0.8582
17037TIP3   OH272601   5.087   6.109  13.462 -0.3203 -0.2455 -0.1001
17037TIP3    H172602   5.065   6.172  13.393  0.9752 -1.4542 -1.6469
17037TIP3    H272603   5.015   6.046  13.460  0.4819 -1.1372 -1.4159
17038TIP3   OH272604   5.961   0.012  14.668  0.5366 -0.1146  0.0877
17038TIP3    H172605   6.014   0.087  14.640 -1.3569  1.7302  1.2787
17038TIP3    H272606   5.889   0.008  14.605  0.4535 -0.7458  0.2193
17039TIP3   OH272607   1.570   3.221   1.396 -0.4068  0.9397 -0.2705
17039TIP3    H172608   1.495   3.262   1.439 -1.6447 -1.9640  0.4559
17039TIP3    H272609   1.534   3.181   1.318  0.4621 -0.1283 -0.1396
17040TIP3   OH272610   4.692   5.980  15.736  0.2233  0.6494  0.0657
17040TIP3    H172611   4.643   6.020  15.664 -0.5913 -1.2268 -0.4306
17040TIP3    H272612   4.773   5.949  15.695  0.7040  1.4424  0.3903
17041TIP3   OH272613   2.115   3.320  13.981  0.3514 -0.5712  0.1717
17041TIP3    H172614   2.035   3.274  14.005  0.1493  0.3600  1.3571
17041TIP3    H272615   2.186   3.258  13.999  0.1231 -0.2663  2.2354
17042TIP3   OH272616   3.631   6.129  12.219 -0.1804  0.0892  0.4521
17042TIP3    H172617   3.578   6.208  12.235 -0.7944 -0.4458  1.1291
17042TIP3    H272618   3.709   6.141  12.274 -0.4349  0.0735  0.8217
17043TIP3   OH272619   2.794   0.425  17.044 -0.3899 -0.8859  0.7741
17043TIP3    H172620   2.876   0.395  17.082  0.7082 -0.4891 -1.2414
17043TIP3    H272621   2.742   0.454  17.119  1.2856 -1.1655  2.0571
17044TIP3   OH272622   5.182   3.494  16.670 -0.6701  0.1746  0.5212
17044TIP3    H172623   5.171   3.454  16.584  0.9312  2.8338 -1.0003
17044TIP3    H272624   5.115   3.563  16.674  0.7454  1.5912  0.4114
17045TIP3   OH272625   3.622   4.619  15.404 -0.4372 -0.4020 -0.6947
17045TIP3    H172626   3.551   4.659  15.454  0.7416 -0.4634  1.0735
17045TIP3    H272627   3.691   4.686  15.403 -0.9221  0.1155 -3.3933
17046TIP3   OH272628   2.801   2.754   2.424 -0.5020  0.1048 -0.4266
17046TIP3    H172629   2.885   2.768   2.468 -0.9307  0.6210  0.2315
17046TIP3    H272630   2.753   2.694   2.482 -1.6175  1.8745  0.5566
17047TIP3   OH272631   5.464   0.698   6.385 -0.3313 -0.6267 -0.0996
17047TIP3    H172632   5.552   0.661   6.381  0.3746  0.7862  1.7383
17047TIP3    H272633   5.471   0.784   6.345 -0.7857 -0.3384  0.4306
17048TIP3   OH272634   2.048   4.636   3.134  0.2344  0.4072 -0.4647
17048TIP3    H172635   2.022   4.549   3.106  0.7181  0.3601 -0.7864
17048TIP3    H272636   2.116   4.662   3.071 -1.0922  1.7030 -1.3786
17049TIP3   OH272637   6.644   2.517   0.695 -0.2246 -0.2255  0.6840
17049TIP3    H172638   6.605   2.567   0.767  0.3697  0.5142  0.4978
17049TIP3    H272639   6.729   2.488   0.729  0.5625  1.0998 -0.0942
17050TIP3   OH272640   5.844   1.186   6.250 -0.1103 -0.1405  0.6558
17050TIP3    H172641   5.926   1.228   6.276 -0.4251 -0.5308  2.3344
17050TIP3    H272642   5.853   1.096   6.280 -0.9139 -0.3514  0.2834
17051TIP3   OH272643   2.717   4.766   2.730 -0.5893  0.3054 -0.0715
17051TIP3    H172644   2.661   4.742   2.656 -0.4956 -0.3713  0.0715
17051TIP3    H272645   2.661   4.758   2.807 -0.4193  0.0529  0.0284
17052TIP3   OH272646   3.758   3.088  15.190 -0.5606 -0.0433 -0.2398
17052TIP3    H172647   3.719   3.171  15.219  0.0155  0.5013 -0.9943
17052TIP3    H272648   3.688   3.044  15.142 -0.7968  0.1139 -0.0414
17053TIP3   OH272649   4.313   2.367  16.901 -0.2395  0.1551  0.2157
17053TIP3    H172650   4.272   2.438  16.950 -2.7880 -1.2931  0.2895
17053TIP3    H272651   4.306   2.291  16.958  1.1824 -0.4831 -0.4396
17054TIP3   OH272652   0.705   1.337  14.299 -0.6705  0.1470  0.0160
17054TIP3    H172653   0.785   1.387  14.288 -1.0022  1.4046  2.9641
17054TIP3    H272654   0.643   1.377  14.237  0.3934  0.4213 -0.8764
17055TIP3   OH272655   4.586   0.215  17.173 -0.0988 -1.0056  0.1922
17055TIP3    H172656   4.623   0.153  17.236  1.0144 -0.4147  0.1413
17055TIP3    H272657   4.616   0.184  17.088  1.4717  0.2336  0.2544
17056TIP3   OH272658   5.591   6.420  16.291 -0.0942 -0.5105 -0.0343
17056TIP3    H172659   5.506   6.462  16.301  0.5311  0.8477 -0.2734
17056TIP3    H272660   5.613   6.389  16.379  0.8074  2.4022  0.8261
17057TIP3   OH272661   6.087   1.709  15.720  0.3859  0.5940 -0.1276
17057TIP3    H172662   6.072   1.688  15.628  1.6939  1.1756 -0.4951
17057TIP3    H272663   6.124   1.798  15.718 -1.9304  1.6008  1.1482
17058TIP3   OH272664   0.340   0.640   1.499  0.3689 -0.0735  0.6256
17058TIP3    H172665   0.289   0.641   1.580  1.4669  0.6375  1.3297
17058TIP3    H272666   0.390   0.559   1.503 -1.1065 -1.0527 -0.3374
17059TIP3   OH272667   2.535   0.541   1.594  0.4920 -0.1560 -0.0413
17059TIP3    H172668   2.457   0.491   1.618  2.0432 -3.1845 -1.1052
17059TIP3    H272669   2.546   0.603   1.666 -3.0418  0.5516 -0.0116
17060TIP3   OH272670   2.542   6.119  15.339 -0.1721  0.3760  0.2790
17060TIP3    H172671   2.460   6.167  15.353 -0.5995 -0.4614  0.6788
17060TIP3    H272672   2.568   6.142  15.250 -1.8352 -0.8084 -0.5373
17061TIP3   OH272673   1.731   0.520   2.997 -0.3546  0.0710  0.3190
17061TIP3    H172674   1.691   0.519   3.084 -0.7108 -0.9524  0.1446
17061TIP3    H272675   1.810   0.466   3.006  0.3905  1.1543  0.3726
17062TIP3   OH272676   1.561   0.108   4.166 -0.2341 -0.3946  0.0191
17062TIP3    H172677   1.491   0.043   4.160  1.8138 -2.5556 -1.1581
17062TIP3    H272678   1.577   0.118   4.260 -0.5423 -1.6434  0.2167
17063TIP3   OH272679   5.746   5.771   0.695  0.1855 -0.1534 -0.9456
17063TIP3    H172680   5.794   5.701   0.650 -0.2571 -1.2107  0.1807
17063TIP3    H272681   5.808   5.843   0.701  0.3521 -0.0960 -2.9615
17064TIP3   OH272682   0.838   4.510   1.958  0.3816  0.1386 -0.2189
17064TIP3    H172683   0.898   4.555   1.898 -0.7519 -0.3225 -1.7089
17064TIP3    H272684   0.896   4.456   2.012  1.2084 -1.8867 -2.9936
17065TIP3   OH272685   0.166   0.905   5.857 -0.0050  0.0835 -0.4573
17065TIP3    H172686   0.216   0.973   5.811  1.6064  0.1757  1.3425
17065TIP3    H272687   0.193   0.915   5.949 -1.7778 -1.2554  0.2263
17066TIP3   OH272688   3.510   4.931   3.415 -0.6196 -0.8515  0.3449
17066TIP3    H172689   3.528   5.016   3.455  0.4180 -1.1501  0.5385
17066TIP3    H272690   3.419   4.912   3.437 -0.7614  0.0621  0.5649
17067TIP3   OH272691   5.932   3.489   0.956  0.2856 -0.3248 -0.0404
17067TIP3    H172692   5.934   3.411   1.010 -1.8950 -0.1838  0.2975
17067TIP3    H272693   5.951   3.561   1.017 -0.8699 -0.2914  0.2851
17068TIP3   OH272694   6.569   5.214  15.423 -0.0131 -0.2774 -0.3733
17068TIP3    H172695   6.655   5.207  15.382  0.9825 -0.8789  1.7466
17068TIP3    H272696   6.583   5.187  15.514 -2.1755  0.8939  0.3551
17069TIP3   OH272697   6.403   6.180  13.488  0.1434  0.0516  0.3673
17069TIP3    H172698   6.463   6.242  13.530 -0.0843  1.9970 -2.0731
17069TIP3    H272699   6.459   6.121  13.438  0.2143 -0.1824  0.7218
17070TIP3   OH272700   2.742   2.802  15.913 -0.2706  0.0739 -0.0044
17070TIP3    H172701   2.783   2.820  15.997 -2.0523  0.3099  0.8447
17070TIP3    H272702   2.752   2.883  15.863  2.0646 -0.5354 -0.5944
17071TIP3   OH272703   2.873   2.249   1.420  0.2207  0.1537  0.2204
17071TIP3    H172704   2.947   2.308   1.429  0.7791 -0.4646 -0.2395
17071TIP3    H272705   2.842   2.235   1.510  1.7907 -0.9877  0.6165
17072TIP3   OH272706   0.371   3.741  10.795 -0.2118 -0.2444  0.0562
17072TIP3    H172707   0.406   3.660  10.758 -1.7125 -1.5169  1.3339
17072TIP3    H272708   0.284   3.749  10.757 -0.7911 -0.2484  1.3570
17073TIP3   OH272709   4.219   3.247  15.851  0.4993 -0.4107 -0.4144
17073TIP3    H172710   4.173   3.224  15.771 -0.3513  2.5495 -0.8629
17073TIP3    H272711   4.206   3.172  15.909 -1.4743 -1.3197 -1.9700
17074TIP3   OH272712   1.415   6.679  14.170  0.0778 -0.9331 -0.4073
17074TIP3    H172713   1.481   6.723  14.116 -1.2019  1.0064 -0.4181
17074TIP3    H272714   1.460   6.601  14.203  1.6259 -0.9066 -2.3439
17075TIP3   OH272715   0.634   3.933   5.907  0.4198  0.7465 -0.4064
17075TIP3    H172716   0.606   4.021   5.934  0.6091  0.2753  1.3701
17075TIP3    H272717   0.553   3.887   5.887  0.2716  1.0542 -0.5243
17076TIP3   OH272718   5.250   5.358  14.096  0.3395 -0.5473 -0.1510
17076TIP3    H172719   5.262   5.419  14.023  0.5305 -0.8696 -0.3937
17076TIP3    H272720   5.327   5.372  14.152 -0.7465  1.0577  0.9959
17077TIP3   OH272721   1.572   4.566  15.216  0.4851  0.0129 -0.4659
17077TIP3    H172722   1.605   4.516  15.291  0.7257 -0.2622 -0.7554
17077TIP3    H272723   1.521   4.637  15.255 -1.0558 -1.2714 -0.0767
17078TIP3   OH272724   6.063   6.651   4.145 -0.0941 -0.5201  0.8497
17078TIP3    H172725   6.071   6.579   4.083  0.2150 -0.2938  0.6289
17078TIP3    H272726   6.018   6.719   4.096 -2.7134 -1.4884  1.8224
17079TIP3   OH272727   0.391   5.480  12.236  0.3474  0.1415 -0.1633
17079TIP3    H172728   0.426   5.446  12.154 -0.9387 -0.2239 -0.5610
17079TIP3    H272729   0.463   5.532  12.272  1.0934 -0.0955 -1.2749
17080TIP3   OH272730   2.442   4.417  12.490 -0.0982  0.0911  0.0052
17080TIP3    H172731   2.508   4.468  12.443 -0.6427  0.6776 -0.1203
17080TIP3    H272732   2.438   4.334  12.442  2.2762 -0.9183  1.4224
17081TIP3   OH272733   2.747   0.072   4.749  0.3624 -0.2879 -1.0211
17081TIP3    H172734   2.703  -0.012   4.735  1.2113 -0.8239 -0.5218
17081TIP3    H272735   2.807   0.080   4.675 -1.3922  0.9991 -2.3388
17082TIP3   OH272736   2.696   1.078   5.868 -0.5156 -0.4695  0.4640
17082TIP3    H172737   2.611   1.098   5.906 -0.2139 -2.1713  2.1002
17082TIP3    H272738   2.758   1.130   5.920 -0.5304  0.9546 -0.8761
17083TIP3   OH272739   2.022   6.557  13.460 -0.4321  0.0287 -0.7068
17083TIP3    H172740   2.115   6.562  13.480 -0.8426  2.9924  0.7128
17083TIP3    H272741   1.983   6.512  13.535 -0.4785  1.1919 -0.0208
17084TIP3   OH272742   1.418   3.464   6.411  0.2524 -0.4128  0.5813
17084TIP3    H172743   1.444   3.520   6.338 -0.9862 -1.3113 -0.5754
17084TIP3    H272744   1.469   3.384   6.400 -0.8708 -1.0623 -0.0775
17085TIP3   OH272745   3.634   5.880  10.422 -0.2221  0.0433 -0.0609
17085TIP3    H172746   3.577   5.803  10.424  1.5654 -1.3457 -0.1401
17085TIP3    H272747   3.702   5.857  10.358  0.2051  1.7905 -0.2501
17086TIP3   OH272748   6.081   5.891   2.480 -0.0826 -0.0153 -0.7728
17086TIP3    H172749   6.165   5.908   2.522 -0.6707  3.3944 -0.8642
17086TIP3    H272750   6.027   5.967   2.502 -2.1656 -0.7269 -3.2196
17087TIP3   OH272751   6.785   1.917   4.194 -0.3354 -0.3532 -0.1092
17087TIP3    H172752   6.760   1.893   4.283 -0.5124  4.1062  1.1267
17087TIP3    H272753   6.714   1.883   4.140 -2.4963  0.7888  1.9350
17088TIP3   OH272754   3.748   2.477  11.074  0.6028  0.1917 -0.2925
17088TIP3    H172755   3.754   2.435  10.988 -0.5063 -0.7676  0.0911
17088TIP3    H272756   3.754   2.405  11.137  1.1435  0.8597  0.4334
17089TIP3   OH272757   0.433   5.350   5.775 -0.0278  0.9797 -0.4959
17089TIP3    H172758   0.465   5.424   5.722  0.0147  0.8186 -0.6961
17089TIP3    H272759   0.402   5.390   5.856 -0.7713  1.3066 -0.9373
17090TIP3   OH272760   3.500   5.735   2.105 -0.0137  0.1912  0.0734
17090TIP3    H172761   3.578   5.681   2.119 -0.2646 -0.5959 -1.4506
17090TIP3    H272762   3.534   5.819   2.076  0.2591 -0.4831 -1.6217
17091TIP3   OH272763   6.153   0.748  16.030 -0.0305 -0.0035 -0.2190
17091TIP3    H172764   6.166   0.805  15.954 -0.3392  1.3146  0.6956
17091TIP3    H272765   6.081   0.789  16.078 -0.9651 -1.7538 -0.0885
17092TIP3   OH272766   2.304   5.204   0.487  0.3571  0.5094  0.4141
17092TIP3    H172767   2.391   5.240   0.475  0.1087  0.8711 -0.3204
17092TIP3    H272768   2.244   5.274   0.462 -0.1208 -0.8819 -2.6514
17093TIP3   OH272769   5.503   1.114   3.543  0.1675 -0.5605 -0.2050
17093TIP3    H172770   5.470   1.203   3.532  1.1190 -0.2699 -0.7401
17093TIP3    H272771   5.595   1.125   3.564 -0.3529 -1.3113  2.7322
17094TIP3   OH272772   4.750   1.052  13.422 -0.3993 -0.0538  0.1581
17094TIP3    H172773   4.671   0.999  13.423 -1.0933  0.9658  0.5746
17094TIP3    H272774   4.772   1.065  13.514  0.7647 -1.0699  0.0323
17095TIP3   OH272775   6.430   5.998  15.416 -0.4687  0.4527  0.3607
17095TIP3    H172776   6.350   5.968  15.374  0.1412 -0.1082 -0.4156
17095TIP3    H272777   6.439   5.942  15.493 -0.3873 -0.0294  0.0002
17096TIP3   OH272778   2.138   2.510   5.325  0.8198  0.2302 -0.2873
17096TIP3    H172779   2.089   2.444   5.275  0.4377  0.2356  0.0748
17096TIP3    H272780   2.212   2.462   5.362  1.2997  0.3017 -1.1451
17097TIP3   OH272781   4.141   5.146   4.698  0.4870  0.3183  0.3913
17097TIP3    H172782   4.173   5.184   4.780 -0.3682  1.5796  0.1518
17097TIP3    H272783   4.046   5.158   4.701  0.0395 -2.8822  0.8446
17098TIP3   OH272784   2.108   5.394  12.695 -0.6620  0.5306  0.1022
17098TIP3    H172785   2.151   5.356  12.772  0.6754 -0.7970 -1.2768
17098TIP3    H272786   2.127   5.488  12.702  1.8826  0.0685 -0.0750
17099TIP3   OH272787   1.889   5.487   1.773  0.5797  0.0812 -0.3013
17099TIP3    H172788   1.811   5.498   1.827  0.4926 -0.9688 -0.1903
17099TIP3    H272789   1.945   5.428   1.824  1.1271  0.2474 -0.7051
17100TIP3   OH272790   3.344   6.058   4.846 -0.6236 -0.4553  0.0711
17100TIP3    H172791   3.308   5.976   4.881  0.3867 -0.9859 -0.1353
17100TIP3    H272792   3.267   6.112   4.829 -1.3145 -1.5123 -0.1817
17101TIP3   OH272793   2.754   5.976   2.808  0.3083 -0.0554 -0.0133
17101TIP3    H172794   2.694   5.929   2.866 -0.7621  1.3175  0.0057
17101TIP3    H272795   2.700   6.006   2.736  0.6736  2.4182  0.7004
17102TIP3   OH272796   1.137   5.496  11.279  0.4598 -0.0650  0.0505
17102TIP3    H172797   1.180   5.428  11.228 -2.6842 -2.7198  0.7579
17102TIP3    H272798   1.065   5.525  11.223 -0.6717 -0.2470  1.3809
17103TIP3   OH272799   2.319   1.769   4.877 -0.2533  0.1540  0.3004
17103TIP3    H172800   2.407   1.764   4.840  0.2078 -2.8317  1.6287
17103TIP3    H272801   2.288   1.679   4.876 -1.7518  0.5620  3.4456
17104TIP3   OH272802   0.444   0.548  14.800  0.1071  0.5167  0.2719
17104TIP3    H172803   0.411   0.593  14.723  1.3621  0.1594 -0.5034
17104TIP3    H272804   0.539   0.561  14.796  0.3780 -1.2461  0.6235
17105TIP3   OH272805   1.543   1.427   1.486  0.0260 -0.2496 -0.0843
17105TIP3    H172806   1.486   1.488   1.533 -1.2720 -1.4856 -0.0478
17105TIP3    H272807   1.599   1.484   1.433 -0.6034  1.0133  0.5841
17106TIP3   OH272808   1.006   0.599  15.523 -0.0750 -0.0601  0.5511
17106TIP3    H172809   0.946   0.524  15.525  0.5002 -0.5072  1.0332
17106TIP3    H272810   0.972   0.654  15.452 -1.1872 -0.2072  0.9444
17107TIP3   OH272811   6.548   3.513   5.535  0.3480  0.1860 -0.5825
17107TIP3    H172812   6.572   3.469   5.617  0.0147 -0.8159 -1.0069
17107TIP3    H272813   6.530   3.603   5.560  0.8214  0.0251  0.3536
17108TIP3   OH272814   5.125   2.437  10.643 -0.7241 -0.7506  0.4588
17108TIP3    H172815   5.059   2.387  10.594 -0.7340 -1.2457  0.9767
17108TIP3    H272816   5.189   2.463  10.577 -1.8914  0.4959 -0.2179
17109TIP3   OH272817   1.213   5.350  14.390  0.0155  0.1356 -0.3139
17109TIP3    H172818   1.182   5.309  14.309 -1.0171 -0.3388  0.3114
17109TIP3    H272819   1.143   5.333  14.454  1.1195 -0.1032  0.8597
17110TIP3   OH272820   3.117   2.171   4.720  0.0856  0.4846 -0.8444
17110TIP3    H172821   3.138   2.162   4.627  1.2090 -0.9930 -0.4685
17110TIP3    H272822   3.024   2.192   4.722  0.3639  1.9374 -2.3499
17111TIP3   OH272823   2.721   4.348   3.727  0.5063 -0.6168  0.5234
17111TIP3    H172824   2.648   4.389   3.772  0.7031  0.2639  0.0426
17111TIP3    H272825   2.725   4.391   3.642  1.6303 -0.6068  0.5717
17112TIP3   OH272826   3.525   1.382  12.756 -0.1805  0.0706  0.6763
17112TIP3    H172827   3.454   1.319  12.741  0.2038  0.1141 -1.4343
17112TIP3    H272828   3.507   1.454  12.696  0.9463  0.6758  1.0459
17113TIP3   OH272829   5.179   0.050   0.867  0.0665 -0.0942  0.0517
17113TIP3    H172830   5.099   0.015   0.828 -0.0616  1.5109 -1.1436
17113TIP3    H272831   5.197  -0.009   0.940 -1.9664 -0.7274  0.0751
17114TIP3   OH272832   5.397   2.364  14.943 -0.2101 -0.5343 -0.5256
17114TIP3    H172833   5.397   2.318  15.027  0.2875 -0.9796 -0.7693
17114TIP3    H272834   5.352   2.447  14.962  0.8926 -0.1395  0.4502
17115TIP3   OH272835   5.646   1.963  12.395  0.4135 -0.1407  0.1425
17115TIP3    H172836   5.709   1.993  12.329  0.6193 -0.6585  0.1042
17115TIP3    H272837   5.561   1.973  12.352  0.6171 -1.5743 -0.6510
17116TIP3   OH272838   0.910   1.141   1.549  0.4981 -0.2306 -0.0810
17116TIP3    H172839   0.999   1.154   1.516 -0.0076  3.9861 -0.0413
17116TIP3    H272840   0.857   1.128   1.471  0.8495 -0.6613 -0.2481
17117TIP3   OH272841   1.360   1.252   3.939 -0.1093  0.1571 -0.1291
17117TIP3    H172842   1.406   1.205   3.869  0.1525  0.2031  0.0096
17117TIP3    H272843   1.395   1.341   3.936  0.0341  0.1126  0.1736
17118TIP3   OH272844   4.941   2.143   3.899 -0.3678  0.6907  0.1760
17118TIP3    H172845   4.942   2.221   3.843  2.2877  0.4268 -0.2184
17118TIP3    H272846   5.009   2.159   3.964  0.2457 -1.2935  0.0595
17119TIP3   OH272847   5.743   1.598   2.230  0.0373 -0.4053 -0.4237
17119TIP3    H172848   5.689   1.667   2.192  0.0898  0.0384  0.3095
17119TIP3    H272849   5.736   1.611   2.324  0.4072 -1.1246 -0.2932
17120TIP3   OH272850   1.624   2.477   5.674 -0.3747 -0.3112  0.1451
17120TIP3    H172851   1.667   2.413   5.617 -1.7876 -0.6509 -0.5675
17120TIP3    H272852   1.608   2.429   5.756  2.7715  0.5404  1.3307
17121TIP3   OH272853   0.755   5.412  15.893 -0.2050  0.6281 -0.0042
17121TIP3    H172854   0.710   5.496  15.892 -2.4476 -0.5192 -2.8045
17121TIP3    H272855   0.707   5.360  15.958  0.9494  1.3340  1.4528
17122TIP3   OH272856   3.163   0.195  14.048  0.7493  0.0460  0.4563
17122TIP3    H172857   3.108   0.184  14.126 -0.5321 -1.3898 -0.6077
17122TIP3    H272858   3.238   0.245  14.078  0.0701 -0.1342  2.5250
17123TIP3   OH272859   3.654   0.746  12.718 -0.2070  0.1405 -0.0162
17123TIP3    H172860   3.739   0.704  12.705 -0.4725  0.0999 -1.7674
17123TIP3    H272861   3.675   0.837  12.738  0.2790 -0.0771  0.4631
17124TIP3   OH272862   5.375   3.181  14.641  0.8521 -0.0111 -0.3708
17124TIP3    H172863   5.385   3.086  14.642  0.4336 -0.0513  1.0741
17124TIP3    H272864   5.381   3.207  14.733 -2.9997  0.9005 -0.2636
17125TIP3   OH272865   2.611   5.630  15.445  0.0323  0.3279 -0.0026
17125TIP3    H172866   2.648   5.670  15.366  0.8960  0.5699  0.5295
17125TIP3    H272867   2.686   5.604  15.497 -0.5332  0.8518  1.0983
17126TIP3   OH272868   1.312   5.456   2.368 -0.3759 -0.9614 -0.5515
17126TIP3    H172869   1.263   5.539   2.371  0.3501 -0.5568  0.2994
17126TIP3    H272870   1.244   5.388   2.374 -0.7070 -0.3937  2.7766
17127TIP3   OH272871   3.399   0.452  13.167 -0.7826 -0.3152  0.5975
17127TIP3    H172872   3.425   0.544  13.172  0.0348 -0.6186  2.4847
17127TIP3    H272873   3.451   0.415  13.096 -0.8181  0.5724  0.1059
17128TIP3   OH272874   0.335   1.006  16.078 -0.2262 -0.2988  0.5954
17128TIP3    H172875   0.390   0.999  16.000  1.1833 -0.6945  1.6074
17128TIP3    H272876   0.246   0.994  16.046  0.3912 -1.0307 -0.8731
17129TIP3   OH272877   5.895   1.430  12.416 -0.1452  0.0577 -0.4301
17129TIP3    H172878   5.871   1.439  12.508  1.0599  0.3083 -0.1367
17129TIP3    H272879   5.822   1.470  12.369 -0.1229  1.1981  0.4711
17130TIP3   OH272880   5.016   5.574  11.314 -0.3957  0.4186  0.1193
17130TIP3    H172881   5.087   5.639  11.309  0.0738 -0.1097 -0.1603
17130TIP3    H272882   5.062   5.490  11.313 -0.9680  0.0881  1.0610
17131TIP3   OH272883   1.462   3.561   1.144  0.6229  0.1660 -0.6455
17131TIP3    H172884   1.521   3.558   1.220 -0.8290 -2.3518  0.4720
17131TIP3    H272885   1.376   3.539   1.181 -0.6036  1.5820 -2.6070
17132TIP3   OH272886   0.005   5.783   5.858 -0.0418  0.6310  0.4607
17132TIP3    H172887   0.051   5.861   5.889  1.3959  0.2692 -0.7039
17132TIP3    H272888   0.073   5.729   5.818 -1.1160 -0.9670  0.7353
17133TIP3   OH272889   0.602   2.013  15.757 -0.4196  0.2275  0.6066
17133TIP3    H172890   0.515   2.012  15.718  0.3840 -0.8788 -1.2176
17133TIP3    H272891   0.659   1.974  15.690  1.9398  3.3652  0.6442
17134TIP3   OH272892   1.212   4.371  14.816 -0.0169  0.3164 -0.1465
17134TIP3    H172893   1.127   4.350  14.855  0.7749 -1.5524  0.6227
17134TIP3    H272894   1.272   4.375  14.890  0.8782 -0.0181 -0.8395
17135TIP3   OH272895   1.800   3.365  10.845 -0.0934 -0.2704  0.3237
17135TIP3    H172896   1.744   3.433  10.806 -0.9104 -0.2097  1.5750
17135TIP3    H272897   1.769   3.284  10.807  1.0445  0.0591 -1.3650
17136TIP3   OH272898   5.583   2.684  12.759  0.5591  0.4304  0.2271
17136TIP3    H172899   5.590   2.778  12.778 -0.9783  0.8745 -1.2815
17136TIP3    H272900   5.537   2.648  12.835  2.8035  0.5500  1.6929
17137TIP3   OH272901   3.562   5.237   6.501 -0.1693  0.1778 -0.0320
17137TIP3    H172902   3.500   5.291   6.452 -0.6578  1.3711  1.8596
17137TIP3    H272903   3.648   5.262   6.466 -0.6529 -0.8995 -2.0977
17138TIP3   OH272904   3.004   2.308  12.940  0.2562  0.2389  0.4333
17138TIP3    H172905   3.053   2.229  12.917  0.9574  1.0163 -0.7760
17138TIP3    H272906   2.915   2.290  12.908  0.3576 -0.1407  0.3563
17139TIP3   OH272907   0.435   5.214  12.450  0.3301 -0.1145  0.2486
17139TIP3    H172908   0.355   5.242  12.404 -0.0916 -1.0310  0.4238
17139TIP3    H272909   0.419   5.123  12.474  1.9261 -0.6940 -0.7924
17140TIP3   OH272910   3.012   3.952   1.138 -0.1797  0.5605  0.8779
17140TIP3    H172911   2.983   4.035   1.100  1.1348 -0.3869 -2.3052
17140TIP3    H272912   2.987   3.886   1.074  0.6972 -1.2735  2.3949
17141TIP3   OH272913   3.863   6.605   3.139 -0.1791  0.0789 -0.1096
17141TIP3    H172914   3.841   6.617   3.231  1.7280  1.6413  0.1736
17141TIP3    H272915   3.956   6.581   3.140  0.0705  0.9069 -1.6720
17142TIP3   OH272916   3.804   2.974  14.328 -0.0343  0.3294  0.0257
17142TIP3    H172917   3.820   3.066  14.308 -2.1944  0.2488 -2.4328
17142TIP3    H272918   3.817   2.929  14.244 -0.8256 -1.3341  0.7669
17143TIP3   OH272919   6.653   6.481   2.081 -0.7163  0.4581  0.1470
17143TIP3    H172920   6.657   6.576   2.068 -1.8583  0.5805  0.5576
17143TIP3    H272921   6.728   6.461   2.137  1.5283  0.5957 -2.7059
17144TIP3   OH272922   3.826   5.412  13.865  0.0214  0.2814  0.3296
17144TIP3    H172923   3.792   5.455  13.944  2.6611  2.5059  0.3417
17144TIP3    H272924   3.883   5.343  13.898 -0.4598 -0.1033  0.3543
17145TIP3   OH272925   5.490   1.917   1.839 -0.0672 -0.1265 -0.0224
17145TIP3    H172926   5.421   1.977   1.867 -0.0680 -0.0571 -0.1736
17145TIP3    H272927   5.526   1.956   1.759  0.0860 -0.2085  0.0057
17146TIP3   OH272928   3.184   4.131  10.984 -0.0376  0.1500  0.0372
17146TIP3    H172929   3.165   4.219  10.950  0.9370  0.1405 -0.5441
17146TIP3    H272930   3.264   4.105  10.939 -0.0046 -0.8052  0.6432
17147TIP3   OH272931   4.246   1.543   0.360 -0.5465  0.7641 -0.0222
17147TIP3    H172932   4.278   1.511   0.276 -1.0329  1.4295 -0.4625
17147TIP3    H272933   4.303   1.501   0.424 -0.6358 -0.3159 -0.6338
17148TIP3   OH272934   4.823   4.366   5.127  0.3462  0.8930 -0.1109
17148TIP3    H172935   4.745   4.338   5.079  0.4144  0.9272 -0.2407
17148TIP3    H272936   4.878   4.408   5.061  1.8228 -1.7782 -0.6532
17149TIP3   OH272937   6.107   3.868  12.492  0.0113 -0.2912 -0.3932
17149TIP3    H172938   6.035   3.903  12.544  0.4434  0.0842 -0.0480
17149TIP3    H272939   6.113   3.925  12.416  1.7312  1.3822  0.9291
17150TIP3   OH272940   3.826   2.314  12.822  0.6761 -0.1859 -0.3620
17150TIP3    H172941   3.795   2.285  12.737 -0.3537 -2.1008  0.6192
17150TIP3    H272942   3.902   2.258  12.840  1.0605  0.4010 -0.1346
17151TIP3   OH272943   5.702   2.820  16.199  0.4367  0.3141 -0.0209
17151TIP3    H172944   5.720   2.881  16.127  0.3756 -0.2421 -0.5055
17151TIP3    H272945   5.630   2.860  16.247 -0.8437 -0.2895 -1.4203
17152TIP3   OH272946   5.763   4.582  16.121  0.2833  0.2888  0.1652
17152TIP3    H172947   5.761   4.591  16.216  0.1987  0.3427  0.1574
17152TIP3    H272948   5.830   4.644  16.093  0.2901  0.2920  0.1869
17153TIP3   OH272949   0.485   3.974  10.710  0.0516 -0.0987 -0.2468
17153TIP3    H172950   0.564   4.002  10.756  0.3885 -0.0214 -0.8695
17153TIP3    H272951   0.472   3.884  10.738 -0.7066  0.4755  1.3101
17154TIP3   OH272952   4.520   5.719   6.069  0.1603  0.3959 -0.4051
17154TIP3    H172953   4.519   5.666   6.149  1.7558  1.9704  0.6942
17154TIP3    H272954   4.612   5.718   6.042 -0.4337 -0.5014 -2.5062
17155TIP3   OH272955   6.074   2.111  10.598 -0.0619 -0.2849 -0.4817
17155TIP3    H172956   6.161   2.077  10.581  0.8262  1.3661  0.5771
17155TIP3    H272957   6.019   2.033  10.607  1.7816 -1.4365  1.2690
17156TIP3   OH272958   2.846   6.194  14.760 -0.5524 -0.4757  0.1413
17156TIP3    H172959   2.919   6.150  14.804  1.7730  1.2774 -1.8671
17156TIP3    H272960   2.835   6.276  14.808  0.4018  0.3440 -1.0159
17157TIP3   OH272961   0.018   5.443  13.183  0.0220 -0.6069  0.6017
17157TIP3    H172962  -0.051   5.505  13.207 -0.4306 -1.0860  0.5562
17157TIP3    H272963  -0.015   5.400  13.104  0.8424 -0.0939 -0.0332
17158TIP3   OH272964   6.522   6.616  12.851  0.0622  0.3217 -0.0545
17158TIP3    H172965   6.444   6.657  12.887 -0.3297 -0.5336  0.0886
17158TIP3    H272966   6.514   6.524  12.875  0.1946 -0.1191 -1.6182
17159TIP3   OH272967   4.232   3.318  14.423 -0.5331  0.1042  0.2031
17159TIP3    H172968   4.196   3.373  14.493  0.7330 -1.3363  2.0563
17159TIP3    H272969   4.267   3.380  14.359 -2.1001  1.4595  0.6146
17160TIP3   OH272970   6.563   3.359   4.355  0.0093  0.2468 -0.1321
17160TIP3    H172971   6.546   3.274   4.394 -1.6490  0.6224 -0.0116
17160TIP3    H272972   6.640   3.392   4.403 -1.0073  0.0029  1.7128
17161TIP3   OH272973   4.611   4.603  16.449  0.1724 -0.1684  0.1269
17161TIP3    H172974   4.536   4.662  16.436  1.1159  0.9951 -0.1772
17161TIP3    H272975   4.573   4.523  16.484 -1.2620  0.2662 -0.3992
17162TIP3   OH272976   5.184   2.114  12.442 -0.1111 -0.2140 -0.0808
17162TIP3    H172977   5.101   2.082  12.409 -0.3993 -1.2334  1.5598
17162TIP3    H272978   5.194   2.201  12.403 -2.2946  0.2323  0.2947
17163TIP3   OH272979   1.753   3.776   3.506 -0.4990  0.1860  0.3824
17163TIP3    H172980   1.824   3.716   3.482 -1.4653 -0.9810  0.3955
17163TIP3    H272981   1.791   3.863   3.497  1.0754 -0.4488  0.8659
17164TIP3   OH272982   6.013   3.311  13.974 -0.0421 -0.3271 -0.6006
17164TIP3    H172983   5.982   3.273  14.056  0.8324 -0.0333 -0.1356
17164TIP3    H272984   5.947   3.378  13.954 -1.0571 -1.3978 -0.9176
17165TIP3   OH272985   5.707   1.907   5.742 -0.0455 -0.3007  0.1771
17165TIP3    H172986   5.745   1.822   5.764  1.3248  0.0157 -0.8491
17165TIP3    H272987   5.701   1.907   5.646 -0.0525  0.7301  0.1649
17166TIP3   OH272988   6.415   5.912  13.964 -0.5076 -0.4768  0.1287
17166TIP3    H172989   6.330   5.874  13.941 -0.5160 -0.8737  0.7983
17166TIP3    H272990   6.440   5.866  14.044  0.2736 -0.2552  0.0083
17167TIP3   OH272991   3.514   0.368  11.132  0.6149  0.1958 -0.3780
17167TIP3    H172992   3.437   0.397  11.083  0.4387  1.5136  0.6479
17167TIP3    H272993   3.567   0.321  11.067 -0.6048  0.0863 -1.3166
17168TIP3   OH272994   3.963   1.735  12.087  0.2509  0.7773 -0.4216
17168TIP3    H172995   3.929   1.709  12.002  0.1586 -1.0653  0.1507
17168TIP3    H272996   3.887   1.730  12.146  0.8778 -0.5755  0.2906
17169TIP3   OH272997   4.203   1.176   5.575 -0.2028  0.3870 -0.5374
17169TIP3    H172998   4.181   1.101   5.629  0.1889 -0.4063 -1.4569
17169TIP3    H272999   4.245   1.138   5.497  0.5928  1.5885 -0.7143
17170TIP3   OH273000   0.767   4.755   5.080  0.4610 -0.8389  0.0113
17170TIP3    H173001   0.856   4.748   5.045  0.7693 -0.7692  0.7875
17170TIP3    H273002   0.713   4.771   5.002  1.3102  0.6954 -0.2861
17171TIP3   OH273003   1.555   4.601   0.334  0.0274 -0.7190 -0.4921
17171TIP3    H173004   1.571   4.557   0.251 -0.0716 -0.4666 -0.6446
17171TIP3    H273005   1.614   4.676   0.334 -0.4413 -0.3424 -0.6258
17172TIP3   OH273006   5.531   4.879  12.771 -0.2169 -0.4553  0.3907
17172TIP3    H173007   5.604   4.858  12.713  1.1134 -0.0483  1.8984
17172TIP3    H273008   5.567   4.871  12.859 -2.4717 -2.0759  1.2287
17173TIP3   OH273009   6.352   5.394   5.606 -0.4912  0.3281 -0.5298
17173TIP3    H173010   6.433   5.378   5.558 -0.2921  0.7740 -0.3413
17173TIP3    H273011   6.335   5.311   5.651 -0.2205  0.1831 -0.6898
17174TIP3   OH273012   6.470   3.354  10.469  0.4904  0.2182 -0.0059
17174TIP3    H173013   6.390   3.406  10.462  0.6827  0.4966 -0.1105
17174TIP3    H273014   6.487   3.349  10.563 -0.8646 -1.6753  0.1772
17175TIP3   OH273015   4.059   0.677  11.721  0.5050  0.3780  0.0418
17175TIP3    H173016   4.092   0.587  11.718 -0.7653 -0.1056  0.4784
17175TIP3    H273017   4.065   0.708  11.631  1.2297 -0.0299 -0.0588
17176TIP3   OH273018   5.049   1.836  11.870  0.0856 -0.1783  0.4476
17176TIP3    H173019   4.967   1.843  11.821 -0.1455  0.6334  0.9381
17176TIP3    H273020   5.023   1.832  11.961  0.6297  1.2313  0.6791
17177TIP3   OH273021   6.465   3.252  14.926  0.2578 -1.0334  0.3928
17177TIP3    H173022   6.411   3.175  14.943  0.6410 -1.0908  1.3885
17177TIP3    H273023   6.547   3.217  14.893 -0.0130 -0.9888 -0.3272
17178TIP3   OH273024   1.560   1.560  12.707 -0.1182 -0.0920  0.0886
17178TIP3    H173025   1.600   1.480  12.742 -0.3090  0.4856  1.6386
17178TIP3    H273026   1.622   1.590  12.640  0.0763 -1.3944 -0.3269
17179TIP3   OH273027   0.579   5.317   1.159  0.2102 -0.4261  0.6140
17179TIP3    H173028   0.591   5.221   1.157 -0.5635 -0.5831  2.7171
17179TIP3    H273029   0.543   5.335   1.245 -1.3940  1.5997 -0.4394
17180TIP3   OH273030   2.931   0.447  11.395  0.4356  0.9901  0.4379
17180TIP3    H173031   2.916   0.394  11.317 -0.0397  0.1256  1.1074
17180TIP3    H273032   3.024   0.467  11.393  1.0655 -1.6367  1.2507
17181TIP3   OH273033   5.716   2.849   0.642 -0.1090  0.2104  0.0039
17181TIP3    H173034   5.636   2.814   0.682 -1.4266  1.4522 -1.4585
17181TIP3    H273035   5.702   2.944   0.638  1.3310  0.4185 -0.5077
17182TIP3   OH273036   3.840   5.560   2.622 -0.0876 -0.0486 -0.0080
17182TIP3    H173037   3.816   5.482   2.671 -0.8984 -1.2614 -2.2590
17182TIP3    H273038   3.876   5.620   2.688  0.1596 -2.1386  1.8126
17183TIP3   OH273039   4.172   1.406  16.104 -0.3489 -0.8174  0.1410
17183TIP3    H173040   4.195   1.384  16.194 -3.2648 -1.6287  0.7403
17183TIP3    H273041   4.137   1.495  16.108  0.6721 -0.3903 -0.3922
17184TIP3   OH273042   1.318   0.397  10.606  0.0236 -0.4456 -0.6129
17184TIP3    H173043   1.250   0.446  10.652 -0.1282 -1.1967 -0.0255
17184TIP3    H273044   1.388   0.461  10.590 -1.0694  0.4889 -1.7811
17185TIP3   OH273045   5.296   5.794   4.954 -0.2268 -0.4691  0.0446
17185TIP3    H173046   5.366   5.831   5.007 -0.8375  1.1980 -0.2932
17185TIP3    H273047   5.325   5.806   4.863  0.3533 -2.4007 -0.0637
17186TIP3   OH273048   2.798   2.311   3.132 -0.1042 -0.7565  0.0977
17186TIP3    H173049   2.853   2.330   3.055 -1.7671 -1.3060 -1.2623
17186TIP3    H273050   2.712   2.347   3.109 -0.2728  0.3378  2.3084
17187TIP3   OH273051   3.289   1.729  15.374 -0.1433 -0.6856  0.1729
17187TIP3    H173052   3.243   1.812  15.387 -1.1026 -1.0282 -1.0018
17187TIP3    H273053   3.302   1.695  15.463  0.7084  0.9462  0.7051
17188TIP3   OH273054   4.589   4.776   1.205 -0.1936 -0.0980  0.0505
17188TIP3    H173055   4.519   4.750   1.146  0.2270  1.8547 -1.3483
17188TIP3    H273056   4.544   4.809   1.283 -0.8013 -0.3972 -0.1765
17189TIP3   OH273057   2.395   2.148  11.381  0.0011  0.5782  0.5611
17189TIP3    H173058   2.308   2.185  11.369  0.2595  0.6617 -1.1303
17189TIP3    H273059   2.421   2.118  11.294  0.6479 -1.7016  1.5070
17190TIP3   OH273060   2.184   2.322   3.404 -0.0828  0.3251  0.7211
17190TIP3    H173061   2.261   2.336   3.349 -1.8162 -0.2460 -1.9436
17190TIP3    H273062   2.213   2.346   3.492  2.4564  2.3550 -0.5899
17191TIP3   OH273063   0.652   6.556   2.595 -0.0496  0.1358 -0.2249
17191TIP3    H173064   0.619   6.470   2.623  0.0947  0.2802  0.3942
17191TIP3    H273065   0.625   6.563   2.503 -1.9575  0.3344  0.3209
17192TIP3   OH273066   2.288   6.218   4.966 -0.3549  0.5175  0.3784
17192TIP3    H173067   2.256   6.128   4.962  0.7639  0.0419  1.7421
17192TIP3    H273068   2.238   6.258   5.037 -0.6558  0.8956 -0.0446
17193TIP3   OH273069   5.344   1.879   5.379  0.1334  0.0788  0.0298
17193TIP3    H173070   5.263   1.929   5.379 -0.2939 -0.6060  0.7230
17193TIP3    H273071   5.356   1.852   5.288 -0.9984 -0.7474  0.1183
17194TIP3   OH273072   6.165   3.841   1.934 -0.0023  0.0151  0.2032
17194TIP3    H173073   6.199   3.818   1.847  0.8804  0.4571  0.4339
17194TIP3    H273074   6.240   3.834   1.992 -0.0673  2.0100  0.5486
17195TIP3   OH273075   3.343   4.436   0.838 -0.0353  0.2877 -0.0618
17195TIP3    H173076   3.428   4.437   0.882  0.6492 -0.7641 -1.3251
17195TIP3    H273077   3.319   4.529   0.830 -0.7789  0.4895  3.6040
17196TIP3   OH273078   2.243   3.473   0.618 -0.2595  0.6141 -0.4141
17196TIP3    H173079   2.306   3.402   0.603  0.7278  1.3461  0.1938
17196TIP3    H273080   2.160   3.429   0.636  0.6399 -0.4338  1.3250
17197TIP3   OH273081   5.286   1.436  16.687  0.6183 -0.8001  0.2346
17197TIP3    H173082   5.233   1.511  16.712  0.2801 -1.3029  1.0612
17197TIP3    H273083   5.254   1.411  16.600  0.5896 -0.1244  0.0534
17198TIP3   OH273084   1.849   1.675  13.053 -0.4098  0.0154 -0.4503
17198TIP3    H173085   1.911   1.748  13.063  0.7707 -1.0661  0.3150
17198TIP3    H273086   1.800   1.697  12.973  0.2563  1.4036 -0.5042
17199TIP3   OH273087   4.605   6.277  15.548 -0.0758  0.2675 -0.0996
17199TIP3    H173088   4.619   6.282  15.453  2.1247 -0.4650  0.1779
17199TIP3    H273089   4.528   6.220  15.557  1.1311 -1.6299 -1.3653
17200TIP3   OH273090   6.466   5.029   0.315  0.0547 -0.4879  0.5408
17200TIP3    H173091   6.401   5.000   0.379 -0.3168  0.5246  0.6275
17200TIP3    H273092   6.417   5.039   0.233 -0.1866  1.5540  0.9135
17201TIP3   OH273093   5.289   3.690   1.851 -0.1286 -0.3203 -0.0999
17201TIP3    H173094   5.361   3.675   1.790  0.4734 -1.9027  0.9710
17201TIP3    H273095   5.211   3.665   1.803  0.2319 -0.5439 -0.5791
17202TIP3   OH273096   4.928   6.344   6.102 -0.3956  0.0061 -0.0607
17202TIP3    H173097   4.984   6.270   6.081  0.1457  0.4200 -0.0921
17202TIP3    H273098   4.975   6.390   6.172 -0.7843  0.2538  0.0387
17203TIP3   OH273099   0.848   3.754   5.151  0.1105 -0.8762  0.0783
17203TIP3    H173100   0.820   3.845   5.136  0.0643 -0.9206 -0.1111
17203TIP3    H273101   0.939   3.753   5.122  0.5786 -0.5230  1.4935
17204TIP3   OH273102   0.525   1.321   4.955 -0.3969 -0.4192 -0.5607
17204TIP3    H173103   0.588   1.311   4.883 -0.3295 -0.7750 -0.4549
17204TIP3    H273104   0.573   1.291   5.032 -1.1665 -2.0634 -0.7023
17205TIP3   OH273105   1.264   4.354  12.151  0.2273  0.2569  0.0573
17205TIP3    H173106   1.218   4.335  12.069  0.2296  0.9479 -0.1062
17205TIP3    H273107   1.341   4.404  12.123 -0.5352  1.7644  0.6179
17206TIP3   OH273108   4.970   5.180  14.153  0.8324  0.3763  0.0207
17206TIP3    H173109   5.015   5.187  14.238  2.7224 -1.1567 -0.8269
17206TIP3    H273110   5.041   5.175  14.089 -0.5610 -0.5446 -1.4784
17207TIP3   OH273111   3.224   0.057  16.087  0.1080  0.6118 -0.3260
17207TIP3    H173112   3.217   0.014  16.002  1.1735 -1.8744  0.7848
17207TIP3    H273113   3.315   0.043  16.114 -0.5539  0.0956  1.8198
17208TIP3   OH273114   3.116   6.230   5.721 -0.2337 -0.4790  0.0089
17208TIP3    H173115   3.131   6.192   5.807 -0.9117 -0.3905  0.1655
17208TIP3    H273116   3.102   6.155   5.663  2.2553 -0.6432 -0.4355
17209TIP3   OH273117   6.396   1.877   4.336 -0.4801 -0.8431 -0.7901
17209TIP3    H173118   6.458   1.860   4.407 -2.0896 -0.3887  0.7697
17209TIP3    H273119   6.450   1.880   4.257  1.6008  0.3528  0.6253
17210TIP3   OH273120   4.577   3.918  15.684 -0.2669  0.1758 -0.1765
17210TIP3    H173121   4.529   3.975  15.624 -0.7141  0.7423  0.7040
17210TIP3    H273122   4.508   3.872  15.732  0.0508  1.2450  1.3377
17211TIP3   OH273123   3.840   1.010   0.662  0.0993  0.1349  0.1045
17211TIP3    H173124   3.896   1.074   0.706  0.3546 -0.2162  0.2949
17211TIP3    H273125   3.772   1.062   0.619  1.1571  0.6263 -0.9746
17212TIP3   OH273126   0.142   4.080  14.685 -0.0354  0.0745  0.1891
17212TIP3    H173127   0.101   4.166  14.684  0.3485  0.2475 -1.5585
17212TIP3    H273128   0.171   4.065  14.595  2.0034 -0.8747  0.9681
17213TIP3   OH273129   1.837   3.333   4.388 -0.6650  0.3520  0.5542
17213TIP3    H173130   1.888   3.408   4.419  1.8778 -0.4510 -1.5244
17213TIP3    H273131   1.902   3.267   4.367 -2.6878 -1.3250 -0.6011
17214TIP3   OH273132   3.374   2.112   2.143  0.5317 -0.1427  0.1194
17214TIP3    H173133   3.444   2.064   2.098  0.6747  0.7256 -0.5952
17214TIP3    H273134   3.297   2.100   2.087  0.1683 -0.8515  0.7548
17215TIP3   OH273135   6.491   5.435   3.072  0.3588 -0.3981 -0.2214
17215TIP3    H173136   6.421   5.488   3.036  1.0623 -0.5072 -1.7776
17215TIP3    H273137   6.482   5.350   3.029  0.5592 -0.8686  0.6493
17216TIP3   OH273138   5.659   5.788   3.765  0.2838  0.1419  0.9005
17216TIP3    H173139   5.599   5.762   3.835 -0.5225 -0.7600 -0.1208
17216TIP3    H273140   5.739   5.816   3.811 -0.5914  0.5270  2.2245
17217TIP3   OH273141   2.092   2.819  13.802  0.5725  0.0804 -0.1115
17217TIP3    H173142   2.079   2.852  13.891 -1.0311  0.3298 -0.4194
17217TIP3    H273143   2.084   2.896  13.746 -2.3625 -0.6463 -0.7708
17218TIP3   OH273144   5.477   0.525   0.643  0.4681  0.6090  0.3156
17218TIP3    H173145   5.477   0.495   0.734 -0.1893  1.0784  0.4718
17218TIP3    H273146   5.547   0.474   0.601 -0.4928 -0.9939  0.6227
17219TIP3   OH273147   4.928   1.996  11.161 -0.1729  0.7161  0.3133
17219TIP3    H173148   4.886   2.081  11.147 -0.2477  0.5752 -0.3776
17219TIP3    H273149   5.021   2.012  11.142 -0.3395  0.4273 -0.8233
17220TIP3   OH273150   1.171   1.566  14.194  0.6994  0.5514  0.3920
17220TIP3    H173151   1.205   1.593  14.280 -0.5493  1.0948  0.7283
17220TIP3    H273152   1.199   1.635  14.134 -0.9733  1.7266  0.9273
17221TIP3   OH273153   4.787   3.782  16.518  0.2055  0.1897  0.2849
17221TIP3    H173154   4.761   3.691  16.501 -1.6668  0.4944  1.2713
17221TIP3    H273155   4.709   3.833  16.495  1.8626  1.7547 -2.0314
17222TIP3   OH273156   2.592   1.253  11.001  0.0258 -0.4645  0.7736
17222TIP3    H173157   2.645   1.173  11.011  0.5383 -0.1540  0.5816
17222TIP3    H273158   2.510   1.233  11.046  0.8235 -0.4671  2.2736
17223TIP3   OH273159   1.761   1.135  14.281  0.2878 -0.0746 -0.8337
17223TIP3    H173160   1.693   1.096  14.226 -0.5591 -1.6260  1.2462
17223TIP3    H273161   1.824   1.064  14.294  0.6835  0.4067 -0.1158
17224TIP3   OH273162   1.501   4.074   2.374  0.1765 -1.6328  0.8892
17224TIP3    H173163   1.436   4.138   2.405  0.3660 -1.4534  0.9217
17224TIP3    H273164   1.575   4.128   2.346  0.2681 -1.8319  0.7532
17225TIP3   OH273165   3.484   5.663   4.669  0.1970  0.0572 -0.2624
17225TIP3    H173166   3.428   5.585   4.675 -0.2918  0.3495 -0.9584
17225TIP3    H273167   3.534   5.651   4.588  0.8474 -0.0039  0.1419
17226TIP3   OH273168   1.334   5.928   1.209  0.3931  0.2642  0.2706
17226TIP3    H173169   1.289   5.981   1.275 -1.0415 -1.2358  0.5167
17226TIP3    H273170   1.378   5.992   1.153 -1.4655  1.7287  0.4385
17227TIP3   OH273171   6.573   5.110  12.830 -0.2300  0.1829 -0.1484
17227TIP3    H173172   6.488   5.136  12.863 -0.0198  1.3885 -0.5334
17227TIP3    H273173   6.568   5.015  12.822 -1.4769  0.2382 -0.0295
17228TIP3   OH273174   6.625   0.202  15.357 -0.3818 -0.4426 -0.2945
17228TIP3    H173175   6.549   0.145  15.341 -0.0239 -0.2111 -2.9587
17228TIP3    H273176   6.696   0.163  15.307  0.9063  0.1658  1.0258
17229TIP3   OH273177   3.922   6.294  16.745  0.2260  1.0053  0.7575
17229TIP3    H173178   3.851   6.240  16.709  1.2385  0.4087 -0.3945
17229TIP3    H273179   3.877   6.364  16.792 -1.1341  0.6293  0.0563
17230TIP3   OH273180   4.958   3.544  12.412 -0.0593  1.0225 -0.2445
17230TIP3    H173181   5.027   3.534  12.478  0.4188 -0.1486 -0.9059
17230TIP3    H273182   4.996   3.507  12.332 -1.3040  0.7646 -0.7218
17231TIP3   OH273183   4.262   0.934   3.311 -0.6128  0.0381  0.2152
17231TIP3    H173184   4.268   1.018   3.266  0.7725  0.7521  1.6440
17231TIP3    H273185   4.296   0.952   3.399  1.1860 -2.3348  0.0782
17232TIP3   OH273186   4.520   4.155   3.329 -0.3198 -0.4068  0.1154
17232TIP3    H173187   4.431   4.119   3.329 -0.4506 -0.2175  3.6227
17232TIP3    H273188   4.508   4.249   3.316 -0.5599 -0.4778 -0.1914
17233TIP3   OH273189   6.458   6.518  15.115  0.3579  0.7888 -0.1615
17233TIP3    H173190   6.534   6.525  15.172  0.9530 -0.3121 -0.8197
17233TIP3    H273191   6.493   6.496  15.029 -0.8066 -1.4225 -0.1165
17234TIP3   OH273192   6.276   2.935   4.608 -0.3710 -0.8265 -0.1402
17234TIP3    H173193   6.213   2.885   4.659 -0.3036 -1.1478 -0.3679
17234TIP3    H273194   6.225   2.969   4.534 -0.4641 -0.3818  0.1316
17235TIP3   OH273195   1.645   4.936  17.282 -0.2469 -0.5183 -0.0061
17235TIP3    H173196   1.617   4.903  17.197  0.9730  0.2796 -0.7244
17235TIP3    H273197   1.737   4.960  17.270 -0.2858  0.3604  1.3052
17236TIP3   OH273198   6.742   5.246  17.007  0.7483 -0.0175 -0.0037
17236TIP3    H173199   6.805   5.216  17.073  0.4436  0.0732  0.3308
17236TIP3    H273200   6.716   5.166  16.961  0.5501 -0.1601  0.3515
17237TIP3   OH273201   2.737   5.036  12.891 -0.0636 -0.4300  0.4391
17237TIP3    H173202   2.687   5.063  12.815 -0.8094 -1.8639  0.4075
17237TIP3    H273203   2.822   5.011  12.856  0.0251  0.1222  0.2495
17238TIP3   OH273204   3.208   1.904   4.142  0.2174 -1.1797 -0.0890
17238TIP3    H173205   3.262   1.960   4.086  0.6100 -0.6600  0.7938
17238TIP3    H273206   3.178   1.834   4.084 -1.4658  0.7034 -1.5912
17239TIP3   OH273207   0.398   2.242   3.542  0.0224 -0.0093 -0.2333
17239TIP3    H173208   0.493   2.250   3.553  0.4609 -1.3863 -2.6495
17239TIP3    H273209   0.362   2.316   3.591  2.3621  0.8934  0.2055
17240TIP3   OH273210   5.021   1.446  16.179  0.1103  0.7334  0.0629
17240TIP3    H173211   5.060   1.527  16.146 -0.9253  1.1311 -0.2295
17240TIP3    H273212   4.950   1.476  16.237  0.1233  0.0349  0.4452
17241TIP3   OH273213   5.102   2.845  16.893  0.0602 -0.2728  0.2434
17241TIP3    H173214   5.166   2.858  16.963 -0.0938  0.1315  0.3126
17241TIP3    H273215   5.150   2.799  16.825  0.6280  0.6779 -0.0053
17242TIP3   OH273216   6.206   0.834   5.939 -0.0799 -0.2403 -0.1217
17242TIP3    H173217   6.280   0.892   5.958  0.3189  0.0245 -2.4174
17242TIP3    H273218   6.142   0.855   6.007  1.1412  0.9508  0.6959
17243TIP3   OH273219   4.529   5.531   3.604 -0.2018 -0.3948  0.0878
17243TIP3    H173220   4.535   5.581   3.686  0.2018  0.7799 -0.6528
17243TIP3    H273221   4.574   5.585   3.540 -0.4417 -1.3622 -0.8986
17244TIP3   OH273222   4.729   5.492  14.766  0.4894 -0.5213  0.0506
17244TIP3    H173223   4.643   5.483  14.726 -0.4807  2.7227  1.1930
17244TIP3    H273224   4.728   5.430  14.839 -1.6815  0.8763  1.2596
17245TIP3   OH273225   1.158   3.905   3.814 -0.2555  0.2614 -0.2934
17245TIP3    H173226   1.186   3.915   3.723  0.6051 -3.0679 -0.4848
17245TIP3    H273227   1.240   3.904   3.864 -0.6332  0.5897  0.3349
17246TIP3   OH273228   2.806   4.879  13.573  0.4714 -0.2029 -0.1694
17246TIP3    H173229   2.811   4.966  13.535  2.6693 -0.7148 -1.1285
17246TIP3    H273230   2.758   4.890  13.655  0.5783  1.8645 -0.3802
17247TIP3   OH273231   4.282   5.118   3.709  0.1704  0.7335 -0.9590
17247TIP3    H173232   4.267   5.090   3.799  0.0323 -0.6313 -1.3953
17247TIP3    H273233   4.373   5.149   3.708 -0.0501  1.4133 -0.1983
17248TIP3   OH273234   2.400   4.731   4.784  1.0973  0.0545 -0.2117
17248TIP3    H173235   2.310   4.752   4.808  1.7995  1.2738  1.3725
17248TIP3    H273236   2.392   4.694   4.696 -0.8730  0.8124 -0.3883
17249TIP3   OH273237   2.513   4.899   4.381 -0.9416  0.2729 -0.0107
17249TIP3    H173238   2.591   4.905   4.326 -1.3739  1.3735 -0.5199
17249TIP3    H273239   2.543   4.854   4.460  0.6605  2.3002  0.5901
17250TIP3   OH273240   0.545   4.458  15.948 -0.0846 -0.7279 -0.1375
17250TIP3    H173241   0.522   4.492  16.034 -1.5471 -1.7204 -0.1190
17250TIP3    H273242   0.639   4.440  15.953  0.2717  1.2118  0.5505
17251TIP3   OH273243   5.562   5.614  13.103  0.0808  0.1273 -0.1263
17251TIP3    H173244   5.509   5.556  13.158  0.2528 -0.9296 -1.0518
17251TIP3    H273245   5.499   5.652  13.041 -0.0047  0.7967  0.3729
17252TIP3   OH273246   4.898   6.490   1.012  0.2147  0.4145 -0.3705
17252TIP3    H173247   4.925   6.548   1.083  1.5369  0.7807 -1.1693
17252TIP3    H273248   4.907   6.401   1.048  3.4098  0.4802 -0.9255
17253TIP3   OH273249   1.431   5.502  15.967  0.0993  0.6428  0.0469
17253TIP3    H173250   1.460   5.593  15.972 -0.8254  0.9649 -0.3753
17253TIP3    H273251   1.495   5.459  15.909 -0.0268  1.2448 -0.5344
17254TIP3   OH273252   3.952   2.180  16.022  0.9602 -0.2660 -0.2576
17254TIP3    H173253   3.908   2.098  16.044  0.1039 -0.2521 -1.8422
17254TIP3    H273254   3.985   2.213  16.106 -1.7918 -0.4270  0.9268
17255TIP3   OH273255   0.284   1.658   1.306 -0.5491 -0.4198  0.2131
17255TIP3    H173256   0.270   1.633   1.398  0.1315  0.3079  0.5227
17255TIP3    H273257   0.345   1.732   1.311 -0.3386 -0.5204 -0.8380
17256TIP3   OH273258   5.142   5.398   2.719  0.4703 -0.0630 -0.1498
17256TIP3    H173259   5.140   5.372   2.812 -1.5423  2.4835  0.5688
17256TIP3    H273260   5.051   5.388   2.690  1.3252 -2.1615 -2.2831
17257TIP3   OH273261   0.387   2.091  15.507 -0.1581  0.2306 -0.0810
17257TIP3    H173262   0.361   2.154  15.574  0.7111  0.3943  0.1146
17257TIP3    H273263   0.368   2.134  15.424  3.3137  2.0381  0.0103
17258TIP3   OH273264   3.807   0.615  11.195 -0.0318 -0.0336 -0.4496
17258TIP3    H173265   3.847   0.561  11.262 -1.0790 -0.9526 -0.5551
17258TIP3    H273266   3.881   0.659  11.152  0.5496  1.9580  2.4419
17259TIP3   OH273267   0.182   0.197  15.214 -0.4560  0.3332 -0.3829
17259TIP3    H173268   0.126   0.158  15.147 -0.9392 -0.7741  0.6343
17259TIP3    H273269   0.148   0.286  15.225 -0.3840  0.5130 -1.5725
17260TIP3   OH273270   5.797   5.505  11.624 -0.5922  0.4723  0.1778
17260TIP3    H173271   5.799   5.426  11.570 -0.5403  0.8004 -0.3036
17260TIP3    H273272   5.888   5.518  11.652 -0.9733 -0.9462  2.1799
17261TIP3   OH273273   4.730   2.648   5.158  0.4424 -0.4245  0.0767
17261TIP3    H173274   4.721   2.711   5.087  1.4663 -2.2073 -1.6773
17261TIP3    H273275   4.641   2.637   5.192 -0.0077  0.6232 -0.7620
17262TIP3   OH273276   5.288   3.724  13.841  0.4220  0.7394  0.1539
17262TIP3    H173277   5.375   3.686  13.853  0.7837  1.9969  1.5701
17262TIP3    H273278   5.230   3.648  13.835  1.6521 -0.1202 -1.2949
17263TIP3   OH273279   5.451   3.947  12.316 -0.1320 -0.5826 -0.0346
17263TIP3    H173280   5.483   3.981  12.233 -0.1731  0.7014  0.4599
17263TIP3    H273281   5.379   4.006  12.340  0.2829 -0.5526  1.2044
17264TIP3   OH273282   2.739   2.512   1.257 -0.6791  0.0421 -0.0772
17264TIP3    H173283   2.752   2.440   1.195  0.9164 -1.8142  2.3110
17264TIP3    H273284   2.685   2.473   1.327 -1.4258  1.7354  0.3000
17265TIP3   OH273285   3.888   5.845  13.507  0.0261 -0.1848 -0.6134
17265TIP3    H173286   3.849   5.932  13.505  1.8549  0.6600 -1.1585
17265TIP3    H273287   3.863   5.806  13.423 -0.2732  0.0542 -0.6368
17266TIP3   OH273288   3.859   3.591  14.796  0.0338 -0.2436  0.6862
17266TIP3    H173289   3.836   3.659  14.859  0.0629 -0.8130  1.3257
17266TIP3    H273290   3.879   3.514  14.851  1.0852 -0.4393  0.0360
17267TIP3   OH273291   2.080   0.802  16.101 -0.0593  0.5414 -0.0689
17267TIP3    H173292   2.111   0.824  16.189 -0.0687  0.8092 -0.1291
17267TIP3    H273293   2.115   0.872  16.045  1.2950 -0.4947 -0.5354
17268TIP3   OH273294   1.849   3.382  12.403  0.2189 -0.1011 -0.0491
17268TIP3    H173295   1.800   3.343  12.475 -1.4479  0.9219 -0.6069
17268TIP3    H273296   1.925   3.423  12.444 -1.2065  1.2703  1.2417
17269TIP3   OH273297   4.312   3.732  11.890  0.4814 -0.1675  0.1841
17269TIP3    H173298   4.273   3.645  11.882 -0.0286 -0.0576  1.2914
17269TIP3    H273299   4.252   3.790  11.842  1.1173 -0.5114 -1.0175
17270TIP3   OH273300   1.872   2.170  12.179  0.3988  0.5408  0.0579
17270TIP3    H173301   1.881   2.258  12.143  1.0471  0.0115 -1.0894
17270TIP3    H273302   1.778   2.161  12.198  0.1903  1.1337 -0.6943
17271TIP3   OH273303   0.918   6.096   6.626 -0.6840 -0.1960 -0.1076
17271TIP3    H173304   0.992   6.155   6.611 -0.3267 -0.5454  0.2477
17271TIP3    H273305   0.841   6.148   6.602 -0.3842  0.4567  0.2925
17272TIP3   OH273306   1.351   0.717  12.538 -0.0639  0.2598 -0.2841
17272TIP3    H173307   1.321   0.632  12.505 -0.6648 -0.0486  1.0410
17272TIP3    H273308   1.434   0.731  12.492 -0.2093 -0.8009 -0.9073
17273TIP3   OH273309   1.921   1.432  11.287 -0.4941  0.1864  0.0151
17273TIP3    H173310   2.014   1.444  11.268 -0.1663 -1.3335  0.5858
17273TIP3    H273311   1.879   1.430  11.200  0.2936 -1.2633 -0.3468
17274TIP3   OH273312   6.487   0.677  14.666 -0.0753 -0.0094  0.4477
17274TIP3    H173313   6.423   0.703  14.600  3.0178  2.1410 -1.8520
17274TIP3    H273314   6.508   0.758  14.713  2.7610 -0.0974 -0.5550
17275TIP3   OH273315   6.262   6.455  12.674  0.4331  0.6732 -0.0893
17275TIP3    H173316   6.245   6.541  12.713  0.9711  1.2291 -1.0461
17275TIP3    H273317   6.177   6.423  12.647  0.1913  0.7713  0.5554
17276TIP3   OH273318   2.795   3.068  10.523  0.4983  0.2555  0.8626
17276TIP3    H173319   2.806   2.989  10.576  1.0919 -0.4469 -0.2735
17276TIP3    H273320   2.701   3.084  10.524  0.4980  0.2266  2.0831
17277TIP3   OH273321   1.989   6.524   3.423 -0.4121 -0.8236 -0.0198
17277TIP3    H173322   2.058   6.571   3.470  0.2111  0.0644 -1.7979
17277TIP3    H273323   1.963   6.455   3.484 -1.3635  1.7836  2.6938
17278TIP3   OH273324   2.544   6.104  14.204 -0.2282  0.0942 -0.1260
17278TIP3    H173325   2.467   6.105  14.261 -0.4363  0.5559 -0.4141
17278TIP3    H273326   2.574   6.013  14.207 -0.4910  0.0194  0.3785
17279TIP3   OH273327   4.331   1.229  12.440 -0.2413 -0.3207  0.1798
17279TIP3    H173328   4.368   1.285  12.372  1.5906 -1.8375 -0.1117
17279TIP3    H273329   4.356   1.140  12.414 -0.9183 -1.0640  1.9748
17280TIP3   OH273330   1.623   2.878   5.262  0.5043  0.0512 -0.7545
17280TIP3    H173331   1.541   2.920   5.238 -0.2490 -1.3516 -0.6605
17280TIP3    H273332   1.621   2.874   5.358  1.2568  1.1118 -0.6695
17281TIP3   OH273333   2.642   3.494  13.173 -0.1492 -0.2672  0.1569
17281TIP3    H173334   2.652   3.436  13.097  0.4794  1.0916 -0.8093
17281TIP3    H273335   2.573   3.555  13.148 -0.0065  0.1309  0.7294
17282TIP3   OH273336   6.473   0.272   0.167  0.3480 -0.0125  0.3932
17282TIP3    H173337   6.555   0.248   0.123 -0.5108  0.6019 -1.6080
17282TIP3    H273338   6.414   0.294   0.095 -1.0242  1.2893  1.8974
17283TIP3   OH273339   3.157   0.349   5.019  0.4797 -0.0907 -0.5548
17283TIP3    H173340   3.177   0.269   4.970  3.1554 -0.5417  1.1586
17283TIP3    H273341   3.162   0.322   5.111  1.2184  2.0057  0.0450
17284TIP3   OH273342   1.552   3.748  11.325  0.5423 -0.4101 -0.3516
17284TIP3    H173343   1.571   3.829  11.374  1.2205  0.1249 -1.4822
17284TIP3    H273344   1.559   3.773  11.233  0.0778 -1.6061 -0.7195
17285TIP3   OH273345   6.214   6.599  14.521 -0.0336  0.2462 -0.0491
17285TIP3    H173346   6.126   6.565  14.535 -0.0528  0.8046  1.3092
17285TIP3    H273347   6.202   6.671  14.458 -0.1464 -1.4419 -1.9893
17286TIP3   OH273348   2.840   1.818  15.963 -0.4314 -0.8438 -0.7322
17286TIP3    H173349   2.807   1.902  15.932  1.5169  0.1442 -0.2138
17286TIP3    H273350   2.805   1.754  15.901 -0.6225  0.5300 -2.0723
17287TIP3   OH273351   4.950   1.090   4.227  0.1014 -0.5489  0.2684
17287TIP3    H173352   5.017   1.140   4.273  2.9457 -1.9814 -2.1254
17287TIP3    H273353   4.999   1.031   4.169 -3.2293 -0.6577 -2.6365
17288TIP3   OH273354   5.701   2.589   5.781  0.8331  0.0749  0.0025
17288TIP3    H173355   5.768   2.591   5.713  0.3664 -1.2552 -0.5321
17288TIP3    H273356   5.748   2.565   5.861  1.3965  1.7337  0.1805
17289TIP3   OH273357   4.752   0.264   5.570 -0.3219  0.4654  0.3812
17289TIP3    H173358   4.811   0.298   5.637  0.0319  0.6996 -0.0494
17289TIP3    H273359   4.745   0.334   5.506  0.1601 -0.1486 -0.3534
17290TIP3   OH273360   3.668   2.695   1.715  0.6350  0.1437 -0.0126
17290TIP3    H173361   3.736   2.639   1.678 -0.5139  0.1750 -2.3215
17290TIP3    H273362   3.665   2.672   1.808  1.9205 -1.8018 -0.4152
17291TIP3   OH273363   4.383   1.670  16.809  0.3026  0.6184 -0.0282
17291TIP3    H173364   4.291   1.647  16.821  0.7125 -0.6806  0.7321
17291TIP3    H273365   4.404   1.725  16.885 -0.3145  2.4598 -1.1497
17292TIP3   OH273366   1.284   0.501   2.412 -0.1967 -0.0594 -0.0784
17292TIP3    H173367   1.372   0.463   2.407 -0.5382 -0.7785 -0.6659
17292TIP3    H273368   1.226   0.425   2.422 -0.7858  0.3847 -0.1384
17293TIP3   OH273369   0.346   4.115   6.355 -0.0374  0.2614 -0.0690
17293TIP3    H173370   0.264   4.124   6.403  0.8291  0.2044  1.4869
17293TIP3    H273371   0.394   4.196   6.374  0.3189  0.2323 -0.8410
17294TIP3   OH273372   3.491   2.544   5.291  0.0103 -0.0994 -0.1610
17294TIP3    H173373   3.399   2.523   5.309 -0.1107 -0.6980 -1.4238
17294TIP3    H273374   3.491   2.636   5.267 -0.2403 -0.0559  0.0097
17295TIP3   OH273375   0.858   3.169  11.757 -0.2623 -0.3122 -0.4475
17295TIP3    H173376   0.899   3.148  11.841 -0.7692  0.8282  0.0863
17295TIP3    H273377   0.808   3.090  11.735 -1.0177 -0.2151  0.8616
17296TIP3   OH273378   5.945   4.839  13.225  0.0928 -0.1712 -0.2230
17296TIP3    H173379   5.917   4.918  13.178 -2.3671 -1.9434 -1.8802
17296TIP3    H273380   5.882   4.830  13.296  1.7066  0.5603  1.3141
17297TIP3   OH273381   0.362   5.775   4.152  0.9177  0.4697  0.0670
17297TIP3    H173382   0.272   5.757   4.125  0.9547  0.9230 -0.3613
17297TIP3    H273383   0.410   5.696   4.128  0.5400  0.0267  0.7543
17298TIP3   OH273384   1.424   6.093   1.436  0.5185  0.0681 -0.9432
17298TIP3    H173385   1.372   6.034   1.490 -0.0822  2.7007  1.4568
17298TIP3    H273386   1.514   6.062   1.446  0.1949 -0.5306  0.1963
17299TIP3   OH273387   1.987   1.632  16.070  0.4028  0.0205  0.1937
17299TIP3    H173388   1.903   1.624  16.025  0.6730 -1.4482 -0.0738
17299TIP3    H273389   1.968   1.689  16.145 -0.5200  0.7772 -0.5930
17300TIP3   OH273390   3.459   2.365  11.152 -0.0479  0.6349  0.5931
17300TIP3    H173391   3.504   2.410  11.081 -1.0813  1.0688  0.1973
17300TIP3    H273392   3.424   2.285  11.112 -0.4292  0.7637  0.6689
17301TIP3   OH273393   0.840   5.307  13.469 -0.5248 -0.0056 -0.8673
17301TIP3    H173394   0.801   5.390  13.441 -0.3094  0.7391  0.9977
17301TIP3    H273395   0.784   5.278  13.541 -0.3210 -1.2547 -1.2053
17302TIP3   OH273396   6.296   5.322  12.205 -0.2762 -0.2306  0.1074
17302TIP3    H173397   6.321   5.411  12.228  0.8843 -0.6385  0.4123
17302TIP3    H273398   6.316   5.270  12.282  0.9989 -1.1202 -0.8058
17303TIP3   OH273399   4.726   0.704  15.273 -0.1250  0.0652  0.3440
17303TIP3    H173400   4.661   0.667  15.333 -0.1518  2.5515  1.9380
17303TIP3    H273401   4.694   0.682  15.186 -0.7988 -2.4848  1.1893
17304TIP3   OH273402   2.274   6.370  15.217  0.1683 -0.3259 -0.6095
17304TIP3    H173403   2.215   6.348  15.145 -0.0309  0.3919 -0.6631
17304TIP3    H273404   2.337   6.431  15.179  1.5213 -1.8073 -0.7994
17305TIP3   OH273405   0.293   2.899  13.296 -0.3542 -0.8508 -0.2104
17305TIP3    H173406   0.319   2.933  13.382  0.5525 -0.2466 -0.7099
17305TIP3    H273407   0.218   2.952  13.271 -0.7517 -1.1657  0.2939
17306TIP3   OH273408   0.069   3.416  11.405 -0.0350 -0.0039  0.2971
17306TIP3    H173409   0.137   3.464  11.358  1.4051 -1.2347  1.0731
17306TIP3    H273410  -0.013   3.453  11.374  1.0173  2.0886 -0.0396
17307TIP3   OH273411   4.923   5.396  14.598 -0.0729  0.0665  0.2252
17307TIP3    H173412   4.927   5.478  14.549  0.0301  0.3575  0.7226
17307TIP3    H273413   4.868   5.416  14.674  1.5294  0.1948  1.3577
17308TIP3   OH273414   6.314   4.358   4.463 -0.4019 -0.6268 -0.7975
17308TIP3    H173415   6.352   4.441   4.434 -0.6587 -0.8252 -1.7119
17308TIP3    H273416   6.224   4.360   4.432 -0.6946 -0.8318  0.0270
17309TIP3   OH273417   6.786   6.362   0.280 -0.7778  0.4121 -0.0143
17309TIP3    H173418   6.720   6.431   0.283 -1.0807  0.1429 -0.5167
17309TIP3    H273419   6.752   6.298   0.218 -0.9193 -0.6334  1.1237
17310TIP3   OH273420   6.528   6.456   0.895  0.0328 -0.3695  0.3148
17310TIP3    H173421   6.536   6.501   0.811 -1.1448 -1.1332 -0.2259
17310TIP3    H273422   6.454   6.498   0.938 -1.3445 -2.0168 -0.3734
17311TIP3   OH273423   5.443   3.903   2.445 -0.3180  0.1638  0.4196
17311TIP3    H173424   5.356   3.944   2.439  0.0097  0.5100 -2.7998
17311TIP3    H273425   5.482   3.943   2.523 -1.2194  3.7154 -0.8258
17312TIP3   OH273426   1.611   6.652  10.394 -0.4221  0.2430 -0.3333
17312TIP3    H173427   1.575   6.631  10.480 -1.2775 -1.7047 -1.1436
17312TIP3    H273428   1.577   6.739  10.374 -1.6925 -0.0451  0.5102
17313TIP3   OH273429   6.137   6.597  11.421  0.7643 -0.0933 -0.4881
17313TIP3    H173430   6.043   6.590  11.438  1.2039 -1.4514  1.6281
17313TIP3    H273431   6.153   6.535  11.349 -0.0154  0.4604 -1.1463
17314TIP3   OH273432   0.261   6.818  12.827 -0.6146 -0.0330 -0.2100
17314TIP3    H173433   0.235   6.737  12.870 -0.1772 -0.3047 -0.4608
17314TIP3    H273434   0.178   6.859  12.801 -1.0072  1.0317  2.4924
17315TIP3   OH273435   0.904   6.654  16.166  0.3579  0.1368 -0.1693
17315TIP3    H173436   0.953   6.572  16.166  1.6933  0.9247  0.1540
17315TIP3    H273437   0.971   6.722  16.158 -0.7161  1.2082 -0.1357
17316TIP3   OH273438   1.088   1.233   2.708  0.3950  0.4548 -0.1330
17316TIP3    H173439   1.118   1.318   2.740  1.4860  0.7730 -1.9009
17316TIP3    H273440   1.061   1.250   2.617  1.5786 -1.2711 -0.8356
17317TIP3   OH273441   6.235   1.607   5.554 -0.0943  0.1288  0.4007
17317TIP3    H173442   6.210   1.699   5.568  3.4900  1.0992  0.9377
17317TIP3    H273443   6.168   1.557   5.600 -0.9576  2.5582  1.9222
17318TIP3   OH273444   1.358   6.502  17.067  0.2820 -0.1474 -0.3353
17318TIP3    H173445   1.358   6.439  17.139  0.3463 -1.2569 -1.2898
17318TIP3    H273446   1.441   6.549  17.075  0.2426 -0.2037  0.3718
17319TIP3   OH273447   6.713   1.067  13.773 -0.3342 -0.3177  0.0167
17319TIP3    H173448   6.725   0.972  13.773 -1.3114 -0.4502  1.1540
17319TIP3    H273449   6.752   1.097  13.855 -0.1318  0.2531 -0.2801
17320TIP3   OH273450   1.293   5.408   5.766  0.1805  0.3011 -1.1073
17320TIP3    H173451   1.315   5.415   5.859 -2.7180 -0.7613 -0.2640
17320TIP3    H273452   1.375   5.383   5.723  1.3219 -0.2298  1.3097
17321TIP3   OH273453   6.331   2.502   0.662  0.3057 -0.0609 -0.1081
17321TIP3    H173454   6.398   2.503   0.731  0.1638 -0.3240  0.0350
17321TIP3    H273455   6.256   2.459   0.703  0.6360 -1.3220 -0.8105
17322TIP3   OH273456   1.582   4.161   0.224  0.1069 -0.1983  0.1077
17322TIP3    H173457   1.545   4.109   0.296  1.3402 -2.3242 -0.7286
17322TIP3    H273458   1.552   4.117   0.145  1.4318  0.1880 -0.6213
17323TIP3   OH273459   0.811   3.226   0.342  0.3604 -0.1147  0.4443
17323TIP3    H173460   0.896   3.185   0.359  0.6377 -0.4332 -1.5979
17323TIP3    H273461   0.828   3.320   0.346  0.8812 -0.1763 -0.3138
17324TIP3   OH273462   0.585   5.040   0.838 -0.1581 -0.2424  0.2658
17324TIP3    H173463   0.525   4.973   0.804 -2.7849  1.8466  0.6573
17324TIP3    H273464   0.634   5.069   0.761  2.0263 -3.5255  0.3122
17325TIP3   OH273465   2.538   3.112  14.012 -0.7009 -0.4260  0.3870
17325TIP3    H173466   2.556   3.168  13.936 -2.2290 -0.9244 -0.3752
17325TIP3    H273467   2.513   3.173  14.081 -1.3415 -0.0883 -0.1369
17326TIP3   OH273468   3.127   4.907   5.861 -0.2660 -0.1553 -0.3028
17326TIP3    H173469   3.144   4.968   5.790  0.7024 -0.7053 -0.5580
17326TIP3    H273470   3.061   4.847   5.827  0.7013 -0.8389 -0.9969
17327TIP3   OH273471   2.851   0.598  15.518  0.0488  0.6680 -0.2234
17327TIP3    H173472   2.943   0.623  15.530  0.3057 -0.7926  1.0301
17327TIP3    H273473   2.812   0.610  15.605 -0.4931 -0.5606 -0.2963
17328TIP3   OH273474   6.059   4.881   3.179 -0.1814 -0.4696 -0.2239
17328TIP3    H173475   6.033   4.793   3.152  1.6774 -0.8846 -0.7490
17328TIP3    H273476   6.098   4.869   3.266  0.3201 -0.2062 -0.4103
17329TIP3   OH273477   0.237   5.325  16.325  0.2447 -0.3576  0.1501
17329TIP3    H173478   0.176   5.301  16.395  1.3885  0.7566  1.5517
17329TIP3    H273479   0.194   5.399  16.281 -0.5476 -1.1603 -0.4476
17330TIP3   OH273480   6.762   4.922   0.589  0.4688  0.4617  0.2878
17330TIP3    H173481   6.816   4.900   0.513 -1.6106 -1.4537 -0.7045
17330TIP3    H273482   6.755   5.017   0.586  2.2008  0.5870 -0.6623
17331TIP3   OH273483   5.185   1.409  12.976  0.4969 -0.8990  0.4592
17331TIP3    H173484   5.226   1.410  13.063 -1.1144  3.0390  1.2923
17331TIP3    H273485   5.096   1.378  12.992 -0.2704  1.2626  0.4994
17332TIP3   OH273486   5.652   5.444  13.893 -0.0381 -0.2917 -0.2097
17332TIP3    H173487   5.581   5.387  13.924  0.0775  0.4686  1.5078
17332TIP3    H273488   5.609   5.528  13.875  0.6482  0.7053  2.4969
17333TIP3   OH273489   2.783   0.265   4.333  0.2123  0.1448 -0.3041
17333TIP3    H173490   2.739   0.188   4.369 -0.1393  0.4425 -0.0903
17333TIP3    H273491   2.840   0.231   4.264  0.2124 -0.3282 -0.0690
17334TIP3   OH273492   4.884   1.263   1.661  0.1090  0.2366  0.2741
17334TIP3    H173493   4.869   1.341   1.715  2.3271  2.2165 -1.8258
17334TIP3    H273494   4.873   1.294   1.571 -1.4786 -2.5119 -0.5064
17335TIP3   OH273495   3.329   5.931   1.826  0.0225  0.1303  0.2773
17335TIP3    H173496   3.242   5.940   1.864 -1.1560 -0.7720 -2.0631
17335TIP3    H273497   3.357   6.020   1.807 -0.6363  0.3855  0.5131
17336TIP3   OH273498   0.920   6.162   3.640 -0.3872  0.3949  0.7428
17336TIP3    H173499   1.006   6.189   3.672 -0.2493 -0.3003  0.9732
17336TIP3    H273500   0.885   6.106   3.709 -1.0677  0.7464  0.6860
17337TIP3   OH273501   6.319   5.102   3.306  0.0637 -0.4584 -0.6939
17337TIP3    H173502   6.389   5.127   3.368 -0.8904  2.1400 -0.5959
17337TIP3    H273503   6.239   5.109   3.357 -0.6181  0.4238 -1.8675
17338TIP3   OH273504   6.331   4.893   3.768 -0.1922 -0.1947  0.0528
17338TIP3    H173505   6.378   4.863   3.690  0.0570  1.6342 -0.5174
17338TIP3    H273506   6.352   4.828   3.835 -1.6972 -2.6704 -1.8206
17339TIP3   OH273507   1.455   5.852  17.038 -1.1370 -0.1648 -0.0523
17339TIP3    H173508   1.500   5.911  17.099  1.4417 -2.3298  0.2771
17339TIP3    H273509   1.468   5.892  16.952 -0.7759  0.5628  0.3334
17340TIP3   OH273510   3.531   3.786   3.804  0.0938 -0.4537 -0.1386
17340TIP3    H173511   3.530   3.880   3.821  2.8787 -0.3404 -0.4174
17340TIP3    H273512   3.445   3.769   3.764 -1.7957  1.3242  2.9596
17341TIP3   OH273513   5.163   2.481  15.870 -0.0626 -0.3007  0.0699
17341TIP3    H173514   5.218   2.414  15.830 -0.6923 -0.8409  0.0942
17341TIP3    H273515   5.089   2.432  15.908 -1.1090  0.5126 -0.8814
17342TIP3   OH273516   4.139   3.555   4.960 -0.5250 -0.2331  0.1257
17342TIP3    H173517   4.049   3.567   4.992 -0.1997  0.8486  0.6314
17342TIP3    H273518   4.191   3.620   5.007  0.4142 -0.3949 -0.6670
17343TIP3   OH273519   0.788   5.243  12.632 -0.2388  0.0296 -1.3236
17343TIP3    H173520   0.743   5.275  12.554  1.5771  0.2996 -2.3034
17343TIP3    H273521   0.777   5.148  12.629  0.0767  0.0137 -2.0926
17344TIP3   OH273522   2.877   1.593  13.632  0.6085  0.5708  0.1060
17344TIP3    H173523   2.836   1.623  13.550  0.1824  0.0783  0.1365
17344TIP3    H273524   2.957   1.645  13.639  0.6800  0.5744 -0.6529
17345TIP3   OH273525   3.384   3.708   4.019  0.1255  0.1354 -0.3546
17345TIP3    H173526   3.426   3.757   3.948  0.2792 -0.5027 -0.7094
17345TIP3    H273527   3.412   3.618   4.005 -1.1243 -0.2426 -0.4068
17346TIP3   OH273528   1.594   5.743   5.916 -0.1408  0.0797 -0.0093
17346TIP3    H173529   1.503   5.736   5.889 -0.1196 -1.0944  0.2143
17346TIP3    H273530   1.612   5.662   5.963  1.3183 -0.1586 -0.9447
17347TIP3   OH273531   6.706   0.620   3.526 -0.6996  0.4041 -0.1110
17347TIP3    H173532   6.799   0.626   3.548 -0.8702 -2.1410  1.5922
17347TIP3    H273533   6.692   0.527   3.507 -3.1546  0.4907  1.0415
17348TIP3   OH273534   4.100   4.505  16.041  0.1951 -0.0814  0.0317
17348TIP3    H173535   4.155   4.505  15.963 -1.9220  3.3950 -1.6020
17348TIP3    H273536   4.135   4.575  16.096 -0.1067 -0.5729  0.8662
17349TIP3   OH273537   1.922   5.884   0.189 -0.3815  0.8019  0.7256
17349TIP3    H173538   2.010   5.893   0.151  0.3233  0.1188  2.1609
17349TIP3    H273539   1.936   5.841   0.273 -2.2572 -0.6048  0.3459
17350TIP3   OH273540   5.083   0.565   3.258 -0.2694  0.3214  0.0095
17350TIP3    H173541   5.063   0.473   3.245  0.8203 -0.2679  2.2087
17350TIP3    H273542   5.005   0.611   3.227 -0.9731 -1.3570 -0.7567
17351TIP3   OH273543   5.575   3.814   0.492 -0.0765 -0.1296  0.1985
17351TIP3    H173544   5.575   3.909   0.489  1.0100 -0.1537 -1.2887
17351TIP3    H273545   5.612   3.787   0.408  1.2796 -1.8376  1.2949
17352TIP3   OH273546   3.107   6.809  11.554 -0.2879  0.5204  0.4041
17352TIP3    H173547   3.098   6.804  11.649  2.1848  1.3691  0.7185
17352TIP3    H273548   3.168   6.881  11.540  0.5938 -0.6160 -1.7472
17353TIP3   OH273549   1.530   4.694  13.667  0.1412  0.0345 -0.8319
17353TIP3    H173550   1.534   4.724  13.758 -1.9159  2.0437 -1.3452
17353TIP3    H273551   1.618   4.710  13.633  0.4857  0.7896  0.3624
17354TIP3   OH273552   2.859   5.753   1.643  0.3083  0.3910  0.0791
17354TIP3    H173553   2.912   5.728   1.567  0.4781  1.1238 -0.0472
17354TIP3    H273554   2.810   5.830   1.614 -0.9840 -0.3954  0.1262
17355TIP3   OH273555   1.620   0.203   0.968  0.0559  0.1290 -0.5227
17355TIP3    H173556   1.662   0.271   1.021  0.3165 -0.3976 -0.0599
17355TIP3    H273557   1.592   0.137   1.031  1.4157 -1.0660 -1.1503
17356TIP3   OH273558   5.864   5.183   2.613 -0.0197  0.1378 -0.2350
17356TIP3    H173559   5.931   5.250   2.622 -0.3472  0.4334 -0.0050
17356TIP3    H273560   5.900   5.107   2.659 -0.1810  0.5402  0.5466
17357TIP3   OH273561   5.466   2.208   6.254 -0.1854 -0.1910  0.0169
17357TIP3    H173562   5.551   2.171   6.278 -0.0304  0.2356  0.1523
17357TIP3    H273563   5.403   2.161   6.308  0.0081 -0.2500  0.1918
17358TIP3   OH273564   5.681   6.040   5.085  0.0453 -0.7625  0.4791
17358TIP3    H173565   5.676   6.102   5.158  2.6181 -0.7215  0.6667
17358TIP3    H273566   5.619   5.971   5.108 -1.1686  0.6089  1.3728
17359TIP3   OH273567   2.626   0.910  15.261 -0.6660 -0.4758  0.2232
17359TIP3    H173568   2.599   0.819  15.270 -0.3292 -0.5516  0.4686
17359TIP3    H273569   2.546   0.957  15.239 -0.7353 -0.9200 -0.4881
17360TIP3   OH273570   2.259   6.057  16.431 -0.2665 -0.4418  0.8155
17360TIP3    H173571   2.225   5.985  16.484 -3.2426 -0.3381 -0.8044
17360TIP3    H273572   2.206   6.133  16.457 -1.6698 -0.3502 -2.0714
17361TIP3   OH273573   1.071   2.719   2.685  0.0260  0.4765  0.0815
17361TIP3    H173574   1.069   2.625   2.701  2.5001 -0.0140 -2.0838
17361TIP3    H273575   1.014   2.732   2.609  1.3190  0.3652 -0.9432
17362TIP3   OH273576   2.492   1.186   6.551 -0.0945 -0.4504 -0.2904
17362TIP3    H173577   2.495   1.148   6.463 -1.5058 -1.4729  0.0888
17362TIP3    H273578   2.498   1.111   6.610 -1.8100 -0.0144  0.4677
17363TIP3   OH273579   5.289   5.309   5.423  0.0960 -0.0948 -0.4808
17363TIP3    H173580   5.219   5.363   5.386  0.4807 -0.3453 -1.6024
17363TIP3    H273581   5.326   5.263   5.348  1.4324 -0.0050  0.1025
17364TIP3   OH273582   5.526   5.491  11.744 -0.1699  0.0297 -0.3491
17364TIP3    H173583   5.595   5.444  11.697  0.7537  0.4866  0.5453
17364TIP3    H273584   5.488   5.549  11.678  1.2321  0.7884 -0.5168
17365TIP3   OH273585   3.415   3.780   0.473  0.0412  0.1977  0.9696
17365TIP3    H173586   3.385   3.815   0.389  1.6523 -1.6148 -0.4240
17365TIP3    H273587   3.347   3.804   0.535 -1.5456  0.9442 -1.0043
17366TIP3   OH273588   5.767   3.337  10.885 -0.3530  0.2537  0.2629
17366TIP3    H173589   5.793   3.277  10.955 -0.7738 -0.8824 -0.5395
17366TIP3    H273590   5.830   3.320  10.814  0.3973  1.7713  0.5467
17367TIP3   OH273591   1.342   3.128   3.598 -0.5981  0.3525  0.7433
17367TIP3    H173592   1.302   3.215   3.594 -1.0740  0.1306  0.5868
17367TIP3    H273593   1.384   3.117   3.513  0.0611  0.7097  1.0205
17368TIP3   OH273594   5.118   5.690  13.772 -0.2279 -0.6226 -0.3679
17368TIP3    H173595   5.175   5.702  13.696  1.2529 -0.2617  0.7616
17368TIP3    H273596   5.128   5.598  13.795  0.4849 -0.3950  0.2656
17369TIP3   OH273597   5.618   5.943  11.681  0.5384  0.6759 -0.3080
17369TIP3    H173598   5.663   5.895  11.611  1.6098  0.2954  0.6280
17369TIP3    H273599   5.624   5.886  11.757 -0.9183  0.9459  0.0149
17370TIP3   OH273600   4.336   6.501  16.817 -0.4686 -0.6588 -0.1397
17370TIP3    H173601   4.392   6.553  16.875  2.9163 -1.6415 -2.4111
17370TIP3    H273602   4.277   6.566  16.777 -0.7331  0.4528  1.9608
17371TIP3   OH273603   0.036   6.651   0.306 -0.0631  0.2917  0.2203
17371TIP3    H173604   0.037   6.557   0.321  1.8590  0.1259 -0.8550
17371TIP3    H273605  -0.021   6.662   0.229 -2.2614  0.2780  1.7867
17372TIP3   OH273606   4.422   0.927  16.860 -0.0802  0.4704 -0.0415
17372TIP3    H173607   4.434   0.940  16.766  1.9264 -0.8717 -0.0158
17372TIP3    H273608   4.453   0.838  16.875  0.3080  0.9341  1.9990
17373TIP3   OH273609   2.257   0.918  14.187  0.1071  0.5962  0.5672
17373TIP3    H173610   2.334   0.924  14.244  2.1823 -0.0014 -2.1131
17373TIP3    H273611   2.231   0.826  14.191 -0.2878  0.7298  1.2043
17374TIP3   OH273612   6.752   6.119   0.148  0.5947 -0.0085  0.2175
17374TIP3    H173613   6.825   6.079   0.194  1.6684 -0.2283 -1.6455
17374TIP3    H273614   6.699   6.045   0.118  0.6479  0.0814 -0.1020
17375TIP3   OH273615   6.694   5.340  11.367 -0.1773 -0.5844  0.2245
17375TIP3    H173616   6.733   5.264  11.411 -0.1245 -0.8766 -0.3175
17375TIP3    H273617   6.688   5.314  11.275 -1.3388 -0.4131  0.2403
17376TIP3   OH273618   3.608   3.785   4.651 -0.5870 -0.0211 -0.7544
17376TIP3    H173619   3.640   3.858   4.598  0.0977 -0.8210 -1.4444
17376TIP3    H273620   3.674   3.773   4.719 -0.5626 -0.1771 -0.8052
17377TIP3   OH273621   4.769   0.081  13.469  0.2023 -0.0562 -0.5738
17377TIP3    H173622   4.811  -0.004  13.479  1.2688  0.4744 -0.3992
17377TIP3    H273623   4.764   0.115  13.558 -1.4268 -0.4937 -0.4922
17378TIP3   OH273624   4.269   3.639  12.223 -0.6956  0.4834  0.8044
17378TIP3    H173625   4.249   3.693  12.146  1.0286  0.9575  0.6555
17378TIP3    H273626   4.359   3.664  12.247  0.8883 -3.5952 -0.3861
17379TIP3   OH273627   3.675   1.359   4.794 -0.0226 -0.4751  0.5807
17379TIP3    H173628   3.679   1.312   4.711  1.8576 -0.5238  0.6924
17379TIP3    H273629   3.581   1.369   4.811 -0.4266 -2.5405 -0.3619
17380TIP3   OH273630   2.853   4.131   1.911 -0.0526  0.0628 -0.3838
17380TIP3    H173631   2.809   4.215   1.902 -1.9947 -1.0156 -1.3256
17380TIP3    H273632   2.909   4.125   1.834 -2.5753 -0.9978 -2.2074
17381TIP3   OH273633   0.318   5.020   4.667 -0.2049  0.0852 -0.2013
17381TIP3    H173634   0.275   5.101   4.692 -0.9158  0.4254 -2.4422
17381TIP3    H273635   0.410   5.044   4.656 -0.2308  0.3545  0.1610
17382TIP3   OH273636   3.509   6.301   2.678  0.0099  0.4411  0.2387
17382TIP3    H173637   3.546   6.389   2.683  0.0938  0.3892  0.5903
17382TIP3    H273638   3.560   6.250   2.741 -0.1022  0.1653  0.1065
17383TIP3   OH273639   6.550   4.637   0.813 -0.0564  0.1058 -0.3169
17383TIP3    H173640   6.520   4.718   0.771 -1.3886 -0.1723  0.0792
17383TIP3    H273641   6.532   4.649   0.906  2.6319  0.5975  0.1837
17384TIP3   OH273642   0.897   2.457   6.167 -0.2351  0.3151  0.3498
17384TIP3    H173643   0.962   2.410   6.219  0.5362  2.6874  1.6094
17384TIP3    H273644   0.838   2.496   6.232 -0.9554  0.9382 -0.6626
17385TIP3   OH273645   6.631   4.271   4.515  0.2914  0.3555  0.1285
17385TIP3    H173646   6.548   4.257   4.469  0.2056  1.0067  0.0841
17385TIP3    H273647   6.697   4.274   4.446  0.6461 -2.2921  0.3016
17386TIP3   OH273648   4.661   3.426  14.838 -0.0348  0.4819  0.2165
17386TIP3    H173649   4.715   3.504  14.825  2.6542 -1.3673 -0.1274
17386TIP3    H273650   4.700   3.383  14.915  0.9088 -2.4377 -1.8102
17387TIP3   OH273651   1.277   2.181  14.081 -0.4642 -0.0716 -0.7399
17387TIP3    H173652   1.246   2.240  14.149 -1.6925  0.2015 -1.5309
17387TIP3    H273653   1.270   2.094  14.120 -1.1712  0.0808 -0.5262
17388TIP3   OH273654   2.781   2.810  10.658 -0.3319  0.3970 -0.6672
17388TIP3    H173655   2.696   2.783  10.622 -0.5878 -1.2031  1.0885
17388TIP3    H273656   2.764   2.826  10.750  1.3688 -0.3542 -0.2156
17389TIP3   OH273657   4.821   5.933  14.622 -0.4756  0.0559 -0.0701
17389TIP3    H173658   4.908   5.951  14.659 -0.6484  0.0966  0.3149
17389TIP3    H273659   4.780   5.875  14.686 -0.5372 -0.3789 -0.5063
17390TIP3   OH273660   1.082   0.175   5.440  0.0622  0.6421  0.2723
17390TIP3    H173661   1.074   0.265   5.408  2.2170  1.2203  1.3028
17390TIP3    H273662   1.057   0.181   5.532  1.5678  0.4428  0.6948
17391TIP3   OH273663   3.105   6.714  10.935 -1.0592  0.1641 -0.2744
17391TIP3    H173664   3.193   6.732  10.901 -0.9689  0.2266 -0.0135
17391TIP3    H273665   3.062   6.799  10.935 -1.3644  0.0113 -1.0874
17392TIP3   OH273666   2.185   3.553  15.296 -0.2276  0.6388  0.4698
17392TIP3    H173667   2.113   3.580  15.353 -0.7832  1.0210 -0.4165
17392TIP3    H273668   2.144   3.534  15.212  0.3272 -1.7050  0.6812
17393TIP3   OH273669   6.334   5.553  15.164 -0.4121  0.3152  0.0902
17393TIP3    H173670   6.291   5.519  15.242  1.0947 -2.7426 -0.3289
17393TIP3    H273671   6.271   5.539  15.094 -0.9554  1.1418  0.4121
17394TIP3   OH273672   3.995   6.046   3.320  0.2838  0.1705 -0.5947
17394TIP3    H173673   4.040   6.023   3.239  1.0775 -1.3155  0.2545
17394TIP3    H273674   3.960   5.964   3.353  0.6694  0.6275  0.9873
17395TIP3   OH273675   1.244   5.667   2.660  0.0611  0.2220  0.5807
17395TIP3    H173676   1.268   5.574   2.663 -0.8850 -0.0076  1.3688
17395TIP3    H273677   1.178   5.677   2.729 -1.2478  1.0545 -0.7447
17396TIP3   OH273678   4.374   5.834  14.065  0.1853  0.0382  0.0205
17396TIP3    H173679   4.371   5.905  14.129  2.3071 -0.0534  0.2443
17396TIP3    H273680   4.352   5.755  14.115  0.7072  0.1295  0.3939
17397TIP3   OH273681   1.166   3.052  14.159  0.0216  0.5487 -0.1965
17397TIP3    H173682   1.164   2.978  14.098 -1.0226  0.7181 -0.3706
17397TIP3    H273683   1.191   3.127  14.104 -0.9787  0.7131 -0.4413
17398TIP3   OH273684   5.463   2.767   6.003 -0.0648 -0.7614  0.1135
17398TIP3    H173685   5.449   2.765   6.097 -1.9265  0.9839 -0.0787
17398TIP3    H273686   5.534   2.829   5.991  0.5843 -1.4467  0.4093
17399TIP3   OH273687   2.800   1.044   5.501  0.4200 -0.7011 -0.3951
17399TIP3    H173688   2.892   1.045   5.474  0.4868  1.0655 -0.1582
17399TIP3    H273689   2.751   1.032   5.419  0.8509 -1.9647 -0.4837
17400TIP3   OH273690   5.242   0.951   0.675 -0.0436  0.1797 -0.4443
17400TIP3    H173691   5.313   0.969   0.736 -1.0081 -0.2513  0.8181
17400TIP3    H273692   5.275   0.879   0.621  0.9570  0.8185 -0.7057
17401TIP3   OH273693   3.078   0.399   3.659  0.1314 -0.1064 -0.3968
17401TIP3    H173694   3.005   0.440   3.613  0.4367 -0.4343 -1.1707
17401TIP3    H273695   3.110   0.331   3.600 -0.5044 -1.6312  0.9797
17402TIP3   OH273696   1.843   5.297  13.832  0.2267  0.1257  0.1474
17402TIP3    H173697   1.836   5.242  13.754 -2.3975 -1.1780  1.2516
17402TIP3    H273698   1.839   5.387  13.799  4.8884 -0.2189 -1.7018
17403TIP3   OH273699   4.244   5.130  14.180  0.2045 -0.3774 -0.2818
17403TIP3    H173700   4.339   5.140  14.176  0.5113 -0.4169  4.3632
17403TIP3    H273701   4.210   5.219  14.172  0.6075 -0.3562 -1.8834
17404TIP3   OH273702   2.978   5.347   5.915 -0.6460  0.2972  0.0100
17404TIP3    H173703   2.951   5.309   5.999 -1.8841 -1.1275 -1.0037
17404TIP3    H273704   2.992   5.440   5.935 -1.0686  0.0121  1.7636
17405TIP3   OH273705   2.986   6.262  16.413 -0.5480  0.2147 -0.2971
17405TIP3    H173706   3.050   6.297  16.475 -0.2282  2.0052 -1.6025
17405TIP3    H273707   2.912   6.323  16.417 -1.3817 -0.7943 -0.1748
17406TIP3   OH273708   3.195   0.978  14.939 -0.5738  0.5687 -0.7345
17406TIP3    H173709   3.145   1.056  14.961 -0.5887  1.1074 -2.5712
17406TIP3    H273710   3.178   0.964  14.846  0.6591 -0.7251 -0.7874
17407TIP3   OH273711   1.074   5.218   5.289 -0.2422 -0.2618  0.2702
17407TIP3    H173712   1.098   5.207   5.197  1.0452  2.4470  0.2602
17407TIP3    H273713   1.000   5.278   5.287  0.6040  0.8139  1.0882
17408TIP3   OH273714   1.321   3.304  14.293 -0.4276 -0.5981  0.4443
17408TIP3    H173715   1.345   3.370  14.358 -0.5656  0.4281 -0.5338
17408TIP3    H273716   1.380   3.231  14.310  1.2099  0.6364  0.1394
17409TIP3   OH273717   1.848   2.855  16.590 -0.0687 -0.3580  0.2403
17409TIP3    H173718   1.879   2.840  16.501 -1.9220  1.4953 -0.7451
17409TIP3    H273719   1.759   2.820  16.591 -1.3040  2.6210  0.3545
17410TIP3   OH273720   4.342   2.557  16.219  0.6622  0.3847  0.1072
17410TIP3    H173721   4.335   2.473  16.263  0.5937  1.4774  2.2341
17410TIP3    H273722   4.433   2.585  16.235  0.4076  1.1446  0.2406
17411TIP3   OH273723   2.859   3.214  14.186 -0.1502  0.2529 -0.1534
17411TIP3    H173724   2.819   3.255  14.109 -1.5367 -0.1210  0.3567
17411TIP3    H273725   2.840   3.275  14.258  0.3284  0.1386  0.0707
17412TIP3   OH273726   3.071   5.923   1.992 -0.4926  0.4441 -0.3154
17412TIP3    H173727   3.134   5.952   2.059  0.1413 -1.4922 -0.0533
17412TIP3    H273728   2.992   5.973   2.011 -0.3007 -0.0169  1.8563
17413TIP3   OH273729   5.441   3.979   0.884  0.1465 -0.2236 -0.0673
17413TIP3    H173730   5.354   3.990   0.924 -0.0483 -1.1161 -0.2372
17413TIP3    H273731   5.431   4.012   0.795  0.5259  1.5786  0.5481
17414TIP3   OH273732   3.165   3.091  13.673  0.7876 -0.8603  0.1325
17414TIP3    H173733   3.105   3.124  13.606 -0.1900 -0.0568  1.3762
17414TIP3    H273734   3.134   3.002  13.692  0.9915 -1.0432 -0.3933
17415TIP3   OH273735   1.646   4.854  15.364 -0.5582  0.6736  0.3351
17415TIP3    H173736   1.709   4.784  15.352 -1.9340 -0.6515  0.6981
17415TIP3    H273737   1.699   4.934  15.366  0.9354 -0.2553 -0.9996
17416TIP3   OH273738   4.408   1.745   4.341 -0.3311 -0.2230  0.3696
17416TIP3    H173739   4.358   1.753   4.260 -2.4276  2.0352  1.8186
17416TIP3    H273740   4.373   1.814   4.397  3.2646  0.2900  2.0781
17417TIP3   OH273741   2.506   1.664  12.219 -0.0520  0.8621  0.2194
17417TIP3    H173742   2.583   1.609  12.203 -0.9852  0.1735 -2.0888
17417TIP3    H273743   2.527   1.747  12.176 -1.0339  0.2806 -1.4428
17418TIP3   OH273744   3.464   2.986   0.714  0.5061 -0.4529  0.4507
17418TIP3    H173745   3.424   2.959   0.796 -0.5185  1.8995  0.7682
17418TIP3    H273746   3.395   2.974   0.648 -0.3422  2.3068  0.7746
17419TIP3   OH273747   5.119   6.082   5.609  0.4853 -0.0172  0.7699
17419TIP3    H173748   5.063   6.143   5.561 -0.2233 -2.5562 -1.7157
17419TIP3    H273749   5.061   6.040   5.673  0.3929 -0.0197  0.6826
17420TIP3   OH273750   5.153   6.165  14.010  0.4726  0.5840 -0.2396
17420TIP3    H173751   5.159   6.084  13.959  0.4251  0.3397  0.1365
17420TIP3    H273752   5.164   6.235  13.946 -1.5236  0.3402 -0.8843
17421TIP3   OH273753   4.366   6.554   6.750  0.3391  0.0632 -0.1542
17421TIP3    H173754   4.398   6.468   6.777  0.8169  0.2599 -0.0904
17421TIP3    H273755   4.390   6.561   6.657  1.3542  0.6084  0.1426
17422TIP3   OH273756   4.276   1.672  11.873 -0.2456  0.2736 -0.4839
17422TIP3    H173757   4.244   1.758  11.900 -0.4990  0.5510 -1.6141
17422TIP3    H273758   4.220   1.648  11.798  0.8932 -0.1321 -1.2281
17423TIP3   OH273759   5.220   0.607   0.600  0.2105 -0.0890 -0.6172
17423TIP3    H173760   5.180   0.560   0.527  0.8626  0.0488 -1.0679
17423TIP3    H273761   5.311   0.578   0.599 -0.5525 -2.9114  2.4077
17424TIP3   OH273762   2.442   0.702   5.560 -0.8422 -0.6789  0.1550
17424TIP3    H173763   2.522   0.753   5.573 -0.4354 -1.8480  2.4930
17424TIP3    H273764   2.457   0.621   5.609 -2.7212 -1.7217 -0.9400
17425TIP3   OH273765   3.175   5.371   0.985  0.4122 -0.5618  0.4168
17425TIP3    H173766   3.153   5.464   0.979  0.3970 -0.5957 -0.0691
17425TIP3    H273767   3.195   5.357   1.077  0.0989 -0.1470  0.5479
17426TIP3   OH273768   5.652   2.256  11.379 -0.2328 -0.2738 -0.3234
17426TIP3    H173769   5.744   2.238  11.356 -0.4837  0.1593 -1.7456
17426TIP3    H273770   5.647   2.351  11.385  0.0279 -0.4094  2.5564
17427TIP3   OH273771   4.648   4.667   2.338  0.2614  0.2535  0.3200
17427TIP3    H173772   4.594   4.608   2.285  0.3082  1.1889 -0.7904
17427TIP3    H273773   4.737   4.650   2.308  0.2769  0.8695  0.0223
17428TIP3   OH273774   2.249   2.207  10.704 -0.3114  0.6207  0.5235
17428TIP3    H173775   2.300   2.166  10.773 -1.2782  0.6341  1.2674
17428TIP3    H273776   2.163   2.165  10.711 -0.5887  1.0568 -0.2779
17429TIP3   OH273777   4.356   1.254   2.891 -0.1121  0.4046  0.1184
17429TIP3    H173778   4.421   1.324   2.884  0.0362  0.5216  2.5006
17429TIP3    H273779   4.272   1.298   2.875 -0.0760  1.2617  2.1978
17430TIP3   OH273780   3.632   5.354   1.439  0.2668  0.6925  0.5007
17430TIP3    H173781   3.692   5.426   1.461  1.3832 -0.6149  1.9029
17430TIP3    H273782   3.545   5.387   1.461  0.6251  2.0587 -0.0765
17431TIP3   OH273783   0.908   2.508   4.299  0.1188  0.7058  0.1047
17431TIP3    H173784   0.836   2.456   4.263 -0.9196  1.4753  1.0524
17431TIP3    H273785   0.980   2.495   4.236 -0.7306 -0.3065 -0.6920
17432TIP3   OH273786   0.219   0.093  13.574  0.6057 -0.3020  0.5185
17432TIP3    H173787   0.163   0.170  13.564  1.6081  0.5329  1.2234
17432TIP3    H273788   0.163   0.028  13.618 -0.2129  0.0399 -0.0068
17433TIP3   OH273789   5.078   1.052   5.813  0.3965  0.6709 -0.2154
17433TIP3    H173790   5.095   1.108   5.889  1.2933  0.3711 -0.1834
17433TIP3    H273791   5.118   1.099   5.739 -0.5262  0.9930 -0.5201
17434TIP3   OH273792   4.461   4.718   4.398  0.3760 -0.0436  0.2136
17434TIP3    H173793   4.391   4.783   4.387 -0.0629 -0.7191 -1.0543
17434TIP3    H273794   4.432   4.665   4.473 -0.8883 -0.8156 -0.7879
17435TIP3   OH273795   5.804   6.187  13.308  0.4334  0.0265  0.0944
17435TIP3    H173796   5.849   6.139  13.238  0.6392  1.2156 -0.5850
17435TIP3    H273797   5.869   6.251  13.339 -0.0837  0.3421  0.5341
17436TIP3   OH273798   0.750   0.307  14.991  0.0660  0.5140  0.1661
17436TIP3    H173799   0.659   0.288  14.970  0.6034 -1.0324 -0.7998
17436TIP3    H273800   0.788   0.341  14.910  0.3988  0.9995  0.5170
17437TIP3   OH273801   5.253   3.576   4.632 -0.4310 -0.0186  0.3175
17437TIP3    H173802   5.306   3.522   4.691 -0.1520 -0.2866 -0.1737
17437TIP3    H273803   5.267   3.666   4.663 -1.2830 -0.2719  1.4354
17438TIP3   OH273804   3.524   6.708  15.835  0.3722 -0.0138 -0.1379
17438TIP3    H173805   3.479   6.624  15.844  2.4214 -1.0297  1.0098
17438TIP3    H273806   3.604   6.686  15.787  0.3068  1.5295 -0.9783
17439TIP3   OH273807   2.880   3.065   1.953  0.6078  0.5011 -0.1122
17439TIP3    H173808   2.863   3.031   2.041  0.9873  1.0801  0.1854
17439TIP3    H273809   2.795   3.060   1.909 -0.4584  3.5941  1.4395
17440TIP3   OH273810   1.462   3.764   5.681  0.0103 -0.6729  0.0556
17440TIP3    H173811   1.403   3.697   5.646 -0.9921 -0.1480  0.6900
17440TIP3    H273812   1.545   3.718   5.695  0.1511 -1.1186 -2.0469
17441TIP3   OH273813   6.004   0.601   3.167  0.5732 -0.2143  0.1956
17441TIP3    H173814   5.913   0.589   3.143  0.1887  0.9302  0.9962
17441TIP3    H273815   6.012   0.695   3.184  2.4237  0.0671 -1.9871
17442TIP3   OH273816   4.472   5.386  15.914 -0.0531 -0.5055 -0.0008
17442TIP3    H173817   4.433   5.345  15.992 -0.4235 -0.2099 -0.0292
17442TIP3    H273818   4.409   5.368  15.844  0.6621 -1.4718 -0.4215
17443TIP3   OH273819   2.178   1.760   5.397 -0.1549  0.3945  0.1982
17443TIP3    H173820   2.132   1.834   5.357 -1.2179 -0.3731 -0.0293
17443TIP3    H273821   2.179   1.693   5.329  2.5444  0.8546 -0.2810
17444TIP3   OH273822   4.493   6.249   4.064  0.5134 -0.1109 -0.2159
17444TIP3    H173823   4.510   6.295   3.982  2.0241 -1.6310 -0.7604
17444TIP3    H273824   4.502   6.317   4.132  1.5808  0.6299 -1.0963
17445TIP3   OH273825   5.705   3.360   2.371  0.2324  0.4690  0.0814
17445TIP3    H173826   5.756   3.363   2.290 -0.4622 -0.4257 -0.3942
17445TIP3    H273827   5.629   3.306   2.350 -0.4134  0.9673  1.0710
17446TIP3   OH273828   2.020   3.208  14.619  0.1115  0.0998  0.0491
17446TIP3    H173829   1.941   3.156  14.609  2.1735 -3.2289  0.4872
17446TIP3    H273830   2.010   3.252  14.703 -0.5192 -1.6240  0.8808
17447TIP3   OH273831   5.788   4.930  15.373  0.2347  0.0291 -0.3553
17447TIP3    H173832   5.785   5.024  15.391  1.0219  0.2333 -1.2460
17447TIP3    H273833   5.698   4.900  15.386 -0.3399  1.1986 -1.5371
17448TIP3   OH273834   2.968   4.135   0.616 -0.0115 -0.2111  0.6015
17448TIP3    H173835   2.927   4.208   0.570 -1.7281 -1.7853 -0.4348
17448TIP3    H273836   3.059   4.162   0.628 -0.4161  1.7372 -0.5036
17449TIP3   OH273837   2.121   4.075  12.035  0.1665  0.1895 -0.1580
17449TIP3    H173838   2.148   4.166  12.041  0.0846  0.0871  2.3858
17449TIP3    H273839   2.050   4.075  11.971  1.4296  1.5847 -1.5851
17450TIP3   OH273840   4.924   4.953  16.877 -0.1408 -0.3222  0.6695
17450TIP3    H173841   4.940   5.041  16.844 -1.0891 -0.1098  0.7574
17450TIP3    H273842   4.856   4.964  16.943  1.3866 -0.8056  2.3552
17451TIP3   OH273843   1.993   6.599   6.075 -0.0034  0.5435  0.6263
17451TIP3    H173844   2.044   6.680   6.082  2.9842 -1.2099 -0.3201
17451TIP3    H273845   2.034   6.539   6.137  1.9426 -2.3038 -3.2285
17452TIP3   OH273846   5.095   2.053   1.287 -0.3892  0.1872 -0.3686
17452TIP3    H173847   5.001   2.063   1.302 -0.0911  2.6298  0.0549
17452TIP3    H273848   5.129   2.024   1.372 -0.8099 -1.0955 -0.6334
17453TIP3   OH273849   5.806   6.282   1.825  0.4633 -0.1384 -0.1773
17453TIP3    H173850   5.813   6.227   1.903  1.7022  0.9068  0.4584
17453TIP3    H273851   5.881   6.256   1.771 -2.4323 -3.5854 -2.8412
17454TIP3   OH273852   0.774   4.495   5.555  0.4644  0.0809  0.0641
17454TIP3    H173853   0.810   4.459   5.475  1.4936  0.4230  0.3633
17454TIP3    H273854   0.682   4.514   5.534  0.3047 -1.3093 -0.5315
17455TIP3   OH273855   0.231   2.156   5.445  0.3368 -0.7609 -0.0184
17455TIP3    H173856   0.221   2.103   5.365  1.5451 -0.3183 -0.4876
17455TIP3    H273857   0.203   2.244   5.418 -1.6832 -1.1488  0.7638
17456TIP3   OH273858   4.832   2.419  11.233 -0.0321  0.4790 -0.4366
17456TIP3    H173859   4.894   2.486  11.206 -0.0973  0.6589 -0.1373
17456TIP3    H273860   4.873   2.377  11.308 -1.2394  2.0555  1.1514
17457TIP3   OH273861   6.278   1.832   1.929 -0.2160 -0.5793 -0.6201
17457TIP3    H173862   6.307   1.759   1.874  0.0876  0.7421 -2.2364
17457TIP3    H273863   6.351   1.848   1.989  1.8874  1.7723 -3.6933
17458TIP3   OH273864   2.561   2.759  16.162 -0.0180 -0.6574 -0.0396
17458TIP3    H173865   2.576   2.776  16.069 -1.1566 -1.5433 -0.4075
17458TIP3    H273866   2.548   2.845  16.201 -1.2436 -0.3715 -1.0313
17459TIP3   OH273867   6.098   3.236   5.674  0.3887  0.5605 -0.4113
17459TIP3    H173868   6.084   3.206   5.764 -0.2217 -2.3884 -1.4342
17459TIP3    H273869   6.012   3.264   5.644  0.8775  3.0341  0.3970
17460TIP3   OH273870   0.241   0.387  16.971 -0.2949  0.0000 -0.8412
17460TIP3    H173871   0.175   0.456  16.965  0.4218  0.7247 -0.5010
17460TIP3    H273872   0.204   0.314  16.923 -1.5333  0.2543 -0.2948
17461TIP3   OH273873   3.065   5.866  15.997 -0.2349  0.1258  0.2312
17461TIP3    H173874   3.032   5.924  15.928  1.0930  1.2153  0.4850
17461TIP3    H273875   3.160   5.875  15.991 -0.0346 -1.7674  0.5215
17462TIP3   OH273876   2.926   6.657  12.091 -0.5905  0.6411  0.1386
17462TIP3    H173877   2.869   6.719  12.046  0.9195  3.6086  2.1679
17462TIP3    H273878   2.868   6.585  12.117 -2.6291  1.7859 -1.1508
17463TIP3   OH273879   6.214   2.700  16.001  0.2401  0.5537 -0.7674
17463TIP3    H173880   6.295   2.654  15.980  1.3342  1.9313  0.3244
17463TIP3    H273881   6.161   2.635  16.047  1.0338 -0.1355 -0.8032
17464TIP3   OH273882   5.969   1.224  12.068 -0.0456  0.3102 -0.2337
17464TIP3    H173883   5.969   1.164  12.142 -1.4475  0.5377 -0.0278
17464TIP3    H273884   5.939   1.171  11.994  1.9728 -0.0791 -0.7865
17465TIP3   OH273885   2.832   0.043  14.973  0.2369  0.3842  0.3226
17465TIP3    H173886   2.766   0.043  14.903  0.2304 -0.7445  0.3163
17465TIP3    H273887   2.868   0.131  14.972 -0.3191  0.6095 -0.5906
17466TIP3   OH273888   1.242   2.260  16.594 -0.0254  0.0141 -0.5143
17466TIP3    H173889   1.314   2.263  16.657  0.6778 -1.6975 -1.1815
17466TIP3    H273890   1.163   2.249  16.646  0.4248 -0.1375  0.1349
17467TIP3   OH273891   0.217   0.364  12.863  0.1441  0.0336  0.3259
17467TIP3    H173892   0.229   0.405  12.948  1.7399 -0.8298  0.5412
17467TIP3    H273893   0.134   0.316  12.871 -0.2500  0.8206  1.0225
17468TIP3   OH273894   5.344   5.028   2.375  0.2058  0.1048 -0.0771
17468TIP3    H173895   5.404   4.977   2.430  0.3746  0.0485 -0.3156
17468TIP3    H273896   5.370   5.119   2.390  0.5461  0.0633 -0.4120
17469TIP3   OH273897   4.041   3.886   2.663  0.5872  0.7471  0.1434
17469TIP3    H173898   3.965   3.944   2.660  0.4199  0.5312  0.2132
17469TIP3    H273899   4.104   3.932   2.719 -0.2656 -0.0009  1.7332
17470TIP3   OH273900   6.006   4.919   3.839 -0.7813 -0.4403 -1.1954
17470TIP3    H173901   6.001   4.877   3.924 -0.4411 -0.7608 -1.3335
17470TIP3    H273902   6.097   4.907   3.811 -0.0569  2.3626 -0.2274
17471TIP3   OH273903   0.690   6.427  11.685 -0.3243  0.3135 -0.4381
17471TIP3    H173904   0.602   6.463  11.684 -0.1207  0.7997 -1.5532
17471TIP3    H273905   0.678   6.332  11.690 -0.8933  0.4283  0.3719
17472TIP3   OH273906   3.850   5.048  11.583 -0.2297  0.5339  0.1098
17472TIP3    H173907   3.770   5.097  11.562  0.2002  0.7021 -1.1727
17472TIP3    H273908   3.908   5.112  11.622 -0.6693  0.4362  0.9408
17473TIP3   OH273909   1.528   3.195  15.663 -0.4378 -0.5450 -0.2647
17473TIP3    H173910   1.623   3.191  15.674 -0.6451  1.5568  3.0248
17473TIP3    H273911   1.495   3.116  15.708 -0.3765  0.0046  0.7525
17474TIP3   OH273912   1.826   0.810   5.016 -0.2824  0.3050  0.1489
17474TIP3    H173913   1.826   0.905   5.025 -0.2918  0.5809 -2.2859
17474TIP3    H273914   1.795   0.777   5.100 -0.1327  2.4388  1.0679
17475TIP3   OH273915   0.523   0.118   0.545 -0.4752  0.5066 -0.4008
17475TIP3    H173916   0.619   0.122   0.549 -0.4435  0.3103 -0.8225
17475TIP3    H273917   0.505   0.039   0.492 -0.8446  1.2405 -1.3885
17476TIP3   OH273918   0.518   1.539   0.402  0.0804  0.2563 -0.0194
17476TIP3    H173919   0.465   1.475   0.354  0.7854 -0.3946  0.0628
17476TIP3    H273920   0.468   1.621   0.395  0.1294  0.1648 -1.8048
17477TIP3   OH273921   4.345   3.484   0.013  0.5571 -0.0822  0.0381
17477TIP3    H173922   4.379   3.401   0.045 -0.2057 -0.7442 -0.8362
17477TIP3    H273923   4.251   3.469   0.001  0.4888  0.7600 -0.5760
17478TIP3   OH273924   2.803   5.085  16.677 -0.1057  0.4942  0.0655
17478TIP3    H173925   2.720   5.095  16.724 -0.3687 -1.1305 -0.0312
17478TIP3    H273926   2.860   5.153  16.713 -1.3810  1.4157  0.3525
17479TIP3   OH273927   4.949   1.445   5.126 -0.5557 -0.3366 -0.4881
17479TIP3    H173928   4.979   1.536   5.126 -1.7803  0.0756  0.0914
17479TIP3    H273929   4.853   1.451   5.123 -0.6635 -1.5914  0.0803
17480TIP3   OH273930   4.369   1.620   3.867 -0.0969  0.4633 -0.5243
17480TIP3    H173931   4.430   1.693   3.854  1.7676 -0.9727 -0.1422
17480TIP3    H273932   4.359   1.581   3.780 -0.8070  0.9585 -0.6637
17481TIP3   OH273933   2.210   2.328  13.314  0.0401  0.1230  0.6871
17481TIP3    H173934   2.270   2.340  13.388  1.0327 -1.1796  0.1203
17481TIP3    H273935   2.268   2.311  13.239 -1.0454 -2.1351  0.3100
17482TIP3   OH273936   6.231   4.559  16.229 -0.2525  0.3487 -0.2832
17482TIP3    H173937   6.179   4.523  16.157  2.6360  0.3996 -2.4805
17482TIP3    H273938   6.287   4.487  16.257  1.8224  1.5359 -1.1732
17483TIP3   OH273939   2.651   1.763  16.173 -0.4188 -0.2731 -0.1623
17483TIP3    H173940   2.724   1.766  16.111  0.0016 -0.2790  0.3304
17483TIP3    H273941   2.627   1.855  16.186 -0.7028 -0.2856 -0.5489
17484TIP3   OH273942   1.754   5.531  16.096 -0.0140 -0.4765  0.1043
17484TIP3    H173943   1.799   5.452  16.124  0.7378 -0.1671 -0.2365
17484TIP3    H273944   1.682   5.499  16.041  0.6048 -0.8986 -0.4670
17485TIP3   OH273945   2.845   0.710  14.158  0.2342  0.3462  0.1657
17485TIP3    H173946   2.806   0.783  14.110  0.5142  0.5265  0.2095
17485TIP3    H273947   2.841   0.636  14.097 -0.1952  0.3563  0.1760
17486TIP3   OH273948   3.243   1.173  14.573 -0.0996 -0.3499  0.0760
17486TIP3    H173949   3.267   1.187  14.665 -0.2709  0.4448  0.0046
17486TIP3    H273950   3.326   1.173  14.526 -0.0585 -0.0927  0.1477
17487TIP3   OH273951   4.972   5.474  12.163  0.2074  0.0066  0.5254
17487TIP3    H173952   4.971   5.456  12.257  2.2783 -0.1952  0.5332
17487TIP3    H273953   4.904   5.417  12.127 -2.3894  1.9716  2.1939
17488TIP3   OH273954   5.663   6.560   2.148  0.4189 -0.4920  0.4912
17488TIP3    H173955   5.740   6.505   2.161  2.1667  1.9627  0.7918
17488TIP3    H273956   5.681   6.609   2.068 -1.4512 -0.8768 -0.2012
17489TIP3   OH273957   2.606   4.847  13.751  0.0846  0.3006  0.1073
17489TIP3    H173958   2.669   4.804  13.809  0.7466  0.1052 -0.7374
17489TIP3    H273959   2.565   4.774  13.704  0.7282  0.5379 -0.8424
17490TIP3   OH273960   5.144   6.357  15.967  0.1840 -0.2525  0.4243
17490TIP3    H173961   5.057   6.350  15.927 -0.1534 -0.7515  1.2318
17490TIP3    H273962   5.131   6.331  16.058  1.2619 -0.7073  0.4593
17491TIP3   OH273963   3.774   0.591   5.464  0.5005  0.7708 -0.8177
17491TIP3    H173964   3.730   0.661   5.512  0.1769  1.2744 -1.8215
17491TIP3    H273965   3.774   0.516   5.523  1.2740  1.7591  0.4582
17492TIP3   OH273966   6.126   1.930   1.366  0.0227 -0.1100  0.0966
17492TIP3    H173967   6.080   1.868   1.310  0.7974 -0.8448  0.2658
17492TIP3    H273968   6.059   1.962   1.426 -0.4548 -0.5291 -0.2103
17493TIP3   OH273969   3.398   4.291  12.792  0.6404 -0.0510 -0.3908
17493TIP3    H173970   3.419   4.266  12.702  2.1429  2.5934 -0.8339
17493TIP3    H273971   3.309   4.326  12.787  0.2263 -1.1080 -0.5893
17494TIP3   OH273972   5.068   6.056   3.871  0.2591 -0.3309 -0.8266
17494TIP3    H173973   5.091   6.123   3.806 -0.7158 -0.3785 -1.2230
17494TIP3    H273974   4.973   6.052   3.869  0.1995 -0.2408  0.7136
17495TIP3   OH273975   2.504   0.701  16.695  0.4500 -0.5240  0.2975
17495TIP3    H173976   2.548   0.692  16.779 -0.6989  1.5773  1.1567
17495TIP3    H273977   2.412   0.685  16.714 -0.1299  2.0839 -0.1162
17496TIP3   OH273978   0.352   6.227   1.043 -0.2421 -0.1950  0.0182
17496TIP3    H173979   0.425   6.234   1.105 -2.3152 -1.0484  2.6063
17496TIP3    H273980   0.341   6.317   1.010  1.3199  0.1354  0.3343
17497TIP3   OH273981   0.590   0.314  14.505 -0.9345 -0.3960  0.0967
17497TIP3    H173982   0.560   0.389  14.453  1.3135  2.3650  2.5614
17497TIP3    H273983   0.677   0.293  14.470 -1.0906 -1.1268  0.1374
17498TIP3   OH273984   6.715   4.459  15.750 -0.2324  0.1814  0.4814
17498TIP3    H173985   6.718   4.494  15.661 -1.6668  0.8788  0.6856
17498TIP3    H273986   6.806   4.461  15.780  0.7947 -3.1031 -2.0826
17499TIP3   OH273987   6.445   1.997  16.752 -0.0418  0.0777  0.0540
17499TIP3    H173988   6.415   1.946  16.828 -0.0971 -0.3808 -0.2720
17499TIP3    H273989   6.400   2.081  16.761  0.2696  0.1765  0.7518
17500TIP3   OH273990   5.564   6.217  10.495 -0.3310  0.3678  0.0957
17500TIP3    H173991   5.480   6.173  10.509  0.4551 -1.7750 -1.4971
17500TIP3    H273992   5.599   6.232  10.582 -2.7137  2.0167  0.8060
17501TIP3   OH273993   1.664   4.420  17.154 -0.4948 -0.2805 -0.5935
17501TIP3    H173994   1.574   4.422  17.122 -0.5840  0.7867 -0.3063
17501TIP3    H273995   1.709   4.489  17.104 -0.0733 -0.1644 -0.0646
17502TIP3   OH273996   3.896   5.002   2.346 -0.2783  0.6709 -0.1563
17502TIP3    H173997   3.840   5.077   2.326 -0.7777  0.5789  0.8508
17502TIP3    H273998   3.837   4.940   2.391 -0.0296 -0.5781 -1.5002
17503TIP3   OH273999   5.742   3.077  15.695  0.3485  0.0779 -0.1653
17503TIP3    H174000   5.655   3.118  15.688 -0.0796 -0.6503  0.7448
17503TIP3    H274001   5.797   3.143  15.737  0.2861  0.6167 -0.9259
17504TIP3   OH274002   2.646   1.865  15.199  0.4365  0.1142  0.3403
17504TIP3    H174003   2.720   1.882  15.256 -0.0149  2.6596  0.1969
17504TIP3    H274004   2.569   1.869  15.257  0.1672  0.3890 -0.0361
17505TIP3   OH274005   0.727   3.270   5.602  0.5949 -0.1807 -0.0956
17505TIP3    H174006   0.706   3.363   5.610  0.4429 -0.1771 -0.4975
17505TIP3    H274007   0.738   3.239   5.692  3.0562  0.7782 -0.0309
17506TIP3   OH274008   2.322   5.566   4.858 -0.4330  0.2143  0.4028
17506TIP3    H174009   2.389   5.580   4.925  0.0500 -0.2342  0.0192
17506TIP3    H274010   2.274   5.488   4.887 -0.6740  0.4310  0.5869
17507TIP3   OH274011   6.613   5.216   6.009 -0.3999  0.3085  0.1439
17507TIP3    H174012   6.623   5.263   5.926  1.5198 -0.3634 -0.0423
17507TIP3    H274013   6.662   5.267   6.072 -0.0798 -0.3117  0.3996
17508TIP3   OH274014   4.300   2.036  16.218 -0.2504  0.1743  0.1939
17508TIP3    H174015   4.278   2.074  16.303  1.6752  0.1882  0.7146
17508TIP3    H274016   4.330   2.110  16.165 -0.2740 -0.0175 -0.0892
17509TIP3   OH274017   4.777   3.072  11.445  0.0323  0.1680  0.3739
17509TIP3    H174018   4.764   3.029  11.361 -1.6161  0.4940  0.4410
17509TIP3    H274019   4.784   3.001  11.508 -0.3040 -0.0402  0.1733
17510TIP3   OH274020   0.176   4.002  13.221 -0.2053  0.1007 -0.6572
17510TIP3    H174021   0.159   3.970  13.132  0.2183 -0.9396 -0.3829
17510TIP3    H274022   0.098   4.052  13.244 -0.8978 -0.7426 -1.1192
17511TIP3   OH274023   2.630   2.792  13.419 -0.0030 -0.1094  0.3641
17511TIP3    H174024   2.551   2.833  13.455 -1.2961 -0.1657 -2.2623
17511TIP3    H274025   2.602   2.704  13.395  1.2440 -0.6042  0.6900
17512TIP3   OH274026   6.158   4.123   0.890  0.2751 -0.2394  0.3981
17512TIP3    H174027   6.087   4.078   0.846  0.6810 -0.4258 -0.0745
17512TIP3    H274028   6.192   4.185   0.825 -2.0430  2.7529  1.8766
17513TIP3   OH274029   3.517   5.619  17.285  0.3825 -0.2407 -0.5016
17513TIP3    H174030   3.424   5.620  17.307  0.7856 -0.6447  1.3073
17513TIP3    H274031   3.534   5.529  17.256  0.2894 -0.2667 -0.4739
17514TIP3   OH274032   6.653   0.903   0.875  0.3278 -0.8274 -0.4930
17514TIP3    H174033   6.678   0.811   0.882  2.2413 -0.5342 -2.8098
17514TIP3    H274034   6.731   0.952   0.902 -1.3923  0.1961  2.9829
17515TIP3   OH274035   4.769   2.584  16.998  0.7396 -0.4704 -0.1214
17515TIP3    H174036   4.715   2.520  17.045  0.3984  0.1836  0.3833
17515TIP3    H274037   4.846   2.534  16.970 -0.8427 -1.8173 -2.2545
17516TIP3   OH274038   5.731   1.236  11.273  0.6497 -0.5469  0.4726
17516TIP3    H174039   5.718   1.329  11.255 -0.5777 -0.5099  1.4183
17516TIP3    H274040   5.669   1.191  11.216 -0.7460 -0.6108  1.9829
17517TIP3   OH274041   4.048   0.518   1.085 -1.0330 -0.7511  0.3244
17517TIP3    H174042   3.958   0.551   1.081 -0.6123  0.4757  0.8773
17517TIP3    H274043   4.092   0.576   1.146  0.0793 -1.5127  0.2521
17518TIP3   OH274044   4.077   2.852   3.862  0.2363 -0.1979  0.6376
17518TIP3    H174045   4.141   2.781   3.856 -0.6319 -0.8775 -0.7504
17518TIP3    H274046   3.992   2.807   3.866 -0.5804  0.7720 -3.6197
17519TIP3   OH274047   0.981   6.035   1.397 -0.6506 -0.1364  0.0848
17519TIP3    H174048   1.047   5.996   1.454  0.0397  0.8435 -0.0198
17519TIP3    H274049   0.966   5.969   1.329  2.2828  0.7062 -1.4622
17520TIP3   OH274050   6.413   4.960   5.768  0.3334  0.3384  0.0639
17520TIP3    H174051   6.406   4.865   5.767 -2.4809  0.5027 -0.5398
17520TIP3    H274052   6.400   4.984   5.860  0.5553  0.1884  0.1360
17521TIP3   OH274053   4.258   5.699   5.560 -0.3060  0.5081  0.2610
17521TIP3    H174054   4.352   5.686   5.572  0.1119  0.4506 -2.6263
17521TIP3    H274055   4.219   5.676   5.644  2.1199 -0.8481  1.0536
17522TIP3   OH274056   5.891   3.186   0.849  0.2788  0.7398 -0.1549
17522TIP3    H174057   5.910   3.279   0.857  1.3656  0.5819 -0.8043
17522TIP3    H274058   5.845   3.164   0.930  0.0371  1.8289  0.0127
17523TIP3   OH274059   3.426   6.130  14.494 -0.1524  0.1817  0.7205
17523TIP3    H174060   3.340   6.171  14.492  0.4647  1.4910 -0.6966
17523TIP3    H274061   3.409   6.036  14.495 -1.6039  0.3926 -1.4557
17524TIP3   OH274062   1.260   4.717  14.073  0.4680 -0.7943  0.0359
17524TIP3    H174063   1.228   4.647  14.130  0.3703 -0.2980  0.5978
17524TIP3    H274064   1.231   4.798  14.115  0.7927 -0.4041 -0.4763
17525TIP3   OH274065   5.876   6.198   4.374 -0.0090  0.1874 -0.2347
17525TIP3    H174066   5.924   6.257   4.432 -0.9619  0.6611  0.0758
17525TIP3    H274067   5.913   6.112   4.393 -1.0332  0.1622  1.8771
17526TIP3   OH274068   3.570   4.285  14.044  0.5950 -0.0173  0.4703
17526TIP3    H174069   3.521   4.203  14.039  1.8028 -0.8777  2.2934
17526TIP3    H274070   3.580   4.313  13.953 -1.1295 -1.1029 -0.0688
17527TIP3   OH274071   6.046   2.964   0.547  0.2936  0.5221 -0.0575
17527TIP3    H174072   6.052   3.055   0.520 -0.8915  0.6887  0.2038
17527TIP3    H274073   5.955   2.953   0.575 -0.1839 -1.3407 -2.2088
17528TIP3   OH274074   0.387   6.279  15.642 -0.1983  0.4177  0.0902
17528TIP3    H174075   0.311   6.230  15.671 -0.0582 -0.8184 -1.5474
17528TIP3    H274076   0.421   6.229  15.568  2.1646  0.9736  0.7544
17529TIP3   OH274077   3.621   4.390  13.259  0.2811 -0.0013 -0.3200
17529TIP3    H174078   3.556   4.360  13.195  0.3693 -0.6617 -0.1074
17529TIP3    H274079   3.702   4.399  13.209  0.3216 -0.4009 -0.3316
17530TIP3   OH274080   2.777   4.135  15.909 -0.0184  0.1016 -0.4520
17530TIP3    H174081   2.819   4.054  15.882 -1.0124 -0.1930 -1.1671
17530TIP3    H274082   2.813   4.202  15.850  1.3409  0.3278  0.6097
17531TIP3   OH274083   5.243   0.737  14.062  0.3810  0.1792 -0.0438
17531TIP3    H174084   5.273   0.681  13.990  0.0321 -0.4877  0.3241
17531TIP3    H274085   5.207   0.676  14.126 -0.5671  0.8712  0.0957
17532TIP3   OH274086   2.906   4.619   4.316 -0.0888 -0.1207  0.0939
17532TIP3    H174087   2.934   4.593   4.404  0.8980 -0.7509 -0.4007
17532TIP3    H274088   2.913   4.714   4.316 -0.9391 -0.0544  0.9844
17533TIP3   OH274089   4.899   3.753   0.081  0.2520  0.0569  0.4584
17533TIP3    H174090   4.889   3.770  -0.013  0.5574 -0.1218  0.3925
17533TIP3    H274091   4.811   3.763   0.117  0.0202 -0.4810  0.0508
17534TIP3   OH274092   2.282   6.651   4.601  0.2293  0.3986  0.0895
17534TIP3    H174093   2.225   6.655   4.678  1.5832 -1.0999  1.2071
17534TIP3    H274094   2.338   6.728   4.610 -1.1787  1.5425 -0.6931
17535TIP3   OH274095   2.366   3.695   5.921 -0.7098  0.0911  0.5409
17535TIP3    H174096   2.416   3.737   5.991 -0.7007 -1.0555  1.2330
17535TIP3    H274097   2.380   3.601   5.934 -0.8309 -0.1368 -0.9181
17536TIP3   OH274098   3.827   1.229  13.702  0.2404  0.5292 -0.6822
17536TIP3    H174099   3.787   1.279  13.630  1.6971 -0.5670 -2.2943
17536TIP3    H274100   3.898   1.284  13.733  1.4015 -0.2076 -1.9904
17537TIP3   OH274101   5.588   5.496   6.197  0.1090 -0.1765 -0.3755
17537TIP3    H174102   5.609   5.582   6.235  1.9649 -1.5075  1.7284
17537TIP3    H274103   5.493   5.488   6.208  0.1793  0.7796  1.2176
17538TIP3   OH274104   4.138   3.563   1.903 -0.5442  0.2245  0.4530
17538TIP3    H174105   4.153   3.634   1.965 -2.0412  0.0065  1.0996
17538TIP3    H274106   4.177   3.486   1.944  1.1558  0.6832 -0.2883
17539TIP3   OH274107   2.793   1.155   4.692 -0.4384  0.3496 -0.1310
17539TIP3    H174108   2.755   1.067   4.695 -0.5559  0.4331  1.0321
17539TIP3    H274109   2.799   1.175   4.598  1.0278 -1.5020 -0.4534
17540TIP3   OH274110   1.517   4.458  15.505 -0.6747  0.3202  0.1632
17540TIP3    H174111   1.587   4.462  15.571 -0.4595 -2.2385  0.1277
17540TIP3    H274112   1.469   4.540  15.516  2.6358  2.3708 -0.1695
17541TIP3   OH274113   5.013   2.045   1.809 -0.2596 -0.0053 -0.4914
17541TIP3    H174114   5.049   2.117   1.757  2.7726 -0.3149  1.0579
17541TIP3    H274115   4.940   2.012   1.757 -0.2179  2.6405 -2.3487
17542TIP3   OH274116   5.606   3.290   3.124 -0.4748  0.0653  0.0748
17542TIP3    H174117   5.620   3.372   3.172 -2.2509 -0.3974  1.4492
17542TIP3    H274118   5.526   3.305   3.074  0.8147  0.1824 -1.9854
17543TIP3   OH274119   3.237   2.538  16.456  0.2155  0.4985  0.0273
17543TIP3    H174120   3.246   2.626  16.422  1.1222  1.0626  1.6655
17543TIP3    H274121   3.190   2.490  16.388 -1.0236  2.4555 -0.5229
17544TIP3   OH274122   6.429   1.253   3.723 -0.4433  0.4827 -0.7024
17544TIP3    H174123   6.521   1.241   3.696 -0.0382  1.0129  0.4023
17544TIP3    H274124   6.435   1.305   3.803 -1.5856 -1.7168  0.8379
17545TIP3   OH274125   0.220   4.010  13.971  0.1011 -0.2327 -0.0547
17545TIP3    H174126   0.230   4.031  14.064  1.8235 -0.8166 -0.0767
17545TIP3    H274127   0.129   4.030  13.951 -0.6540 -1.3741  2.0892
17546TIP3   OH274128   6.107   3.134   2.328  0.1204 -0.1013  0.1550
17546TIP3    H174129   6.142   3.085   2.253 -1.5494  0.7243 -1.2038
17546TIP3    H274130   6.131   3.225   2.310 -0.7796  0.1740  0.3266
17547TIP3   OH274131   4.729   6.761   3.050 -0.3665  0.0565 -0.5268
17547TIP3    H174132   4.675   6.833   3.016  0.4483  0.8248 -0.1931
17547TIP3    H274133   4.759   6.715   2.972  0.9656  1.4349 -0.8542
17548TIP3   OH274134   0.661   4.566   2.152 -0.3689  0.3973 -0.2559
17548TIP3    H174135   0.724   4.635   2.176  0.4652 -0.9960  1.6884
17548TIP3    H274136   0.706   4.514   2.085  0.6594 -0.7054  1.2618
17549TIP3   OH274137   6.526   6.593  14.257 -0.5063  0.0184 -0.3333
17549TIP3    H174138   6.593   6.659  14.276 -0.7529  0.4070 -0.8246
17549TIP3    H274139   6.446   6.642  14.245 -0.3547 -0.2207 -2.4297
17550TIP3   OH274140   3.490   6.182  15.506  0.4514  0.3344 -0.4374
17550TIP3    H174141   3.577   6.207  15.538  0.5311 -0.9283  0.3829
17550TIP3    H274142   3.451   6.264  15.476  0.9044  1.3530  1.6524
17551TIP3   OH274143   5.278   1.111   3.096  0.0227  0.6222 -0.5359
17551TIP3    H174144   5.271   1.199   3.134  0.3868  0.6603 -0.5555
17551TIP3    H274145   5.359   1.075   3.133  0.4190  0.6897 -1.3317
17552TIP3   OH274146   0.483   4.155  16.718 -0.1697 -0.5419 -0.3516
17552TIP3    H174147   0.434   4.103  16.783 -0.2024  0.1033  0.1420
17552TIP3    H274148   0.534   4.090  16.669  0.4760 -0.9690  0.8603
17553TIP3   OH274149   0.901   3.118  13.536 -0.1356 -0.6252 -0.0575
17553TIP3    H174150   0.997   3.115  13.532  0.0564  1.8949  1.2537
17553TIP3    H274151   0.881   3.101  13.628 -0.9546 -1.3844 -0.3785
17554TIP3   OH274152   6.652   5.242   2.671 -0.6115 -0.3907  0.3389
17554TIP3    H174153   6.722   5.184   2.702 -1.0399 -1.0516  0.0764
17554TIP3    H274154   6.662   5.321   2.723 -0.3212 -0.8853  1.0465
17555TIP3   OH274155   4.130   6.285  15.496 -0.6830 -0.3279  0.0492
17555TIP3    H174156   4.188   6.270  15.570  0.4168 -0.3457 -0.7972
17555TIP3    H274157   4.125   6.381  15.488  1.9102 -0.2972 -1.8944
17556TIP3   OH274158   0.386   0.792   1.269  0.1365  0.2192 -0.2486
17556TIP3    H174159   0.373   0.764   1.359 -2.4573 -0.0840 -0.7002
17556TIP3    H274160   0.387   0.888   1.274 -1.2154  0.2311 -0.0349
17557TIP3   OH274161   1.065   0.413   5.783  0.4451 -0.1821 -0.2418
17557TIP3    H174162   1.105   0.448   5.863  0.3593  0.2756 -0.4012
17557TIP3    H274163   1.086   0.477   5.715 -1.6637  0.7365 -0.0679
17558TIP3   OH274164   5.421   0.399   0.901 -0.0139  0.4319 -0.7807
17558TIP3    H174165   5.329   0.422   0.899 -0.1310  0.0706  0.0128
17558TIP3    H274166   5.424   0.305   0.881  0.2392  0.5848 -1.4743
17559TIP3   OH274167   0.555   0.453  16.903 -0.5730 -0.0692  0.4101
17559TIP3    H174168   0.518   0.454  16.815 -0.8876  0.5189  0.5491
17559TIP3    H274169   0.519   0.532  16.945  1.4794  0.9693  0.2735
17560TIP3   OH274170   4.446   4.223   4.756 -0.3486  0.6447 -0.0961
17560TIP3    H174171   4.363   4.230   4.709 -0.9464 -0.5663  0.7371
17560TIP3    H274172   4.427   4.259   4.843 -0.3849 -0.8405  0.5296
17561TIP3   OH274173   4.298   0.583   5.519  0.1127 -1.0698  0.1385
17561TIP3    H174174   4.224   0.557   5.465  0.6445 -1.4185 -0.4237
17561TIP3    H274175   4.362   0.618   5.458 -0.2315  0.7803  0.7864
17562TIP3   OH274176   5.597   6.794   4.933  0.8673 -0.1605  0.3553
17562TIP3    H174177   5.578   6.730   5.001  1.8098 -0.2485  0.5450
17562TIP3    H274178   5.531   6.863   4.945 -1.1332 -1.7973 -0.8074
17563TIP3   OH274179   1.265   1.198  16.934 -0.1934  0.2803  0.3868
17563TIP3    H174180   1.323   1.252  16.986  1.2761 -0.2110 -0.7170
17563TIP3    H274181   1.197   1.258  16.903  0.9174  1.3087 -0.0820
17564TIP3   OH274182   2.169   1.002   0.744 -0.5318 -0.5259 -0.2819
17564TIP3    H174183   2.088   1.052   0.750  0.2738  0.8773 -0.9515
17564TIP3    H274184   2.165   0.958   0.659 -1.1594 -1.4858  0.2327
17565TIP3   OH274185   1.644   5.251   5.397 -0.6330  0.6223 -0.3720
17565TIP3    H174186   1.692   5.180   5.440 -1.1118  0.1112 -0.6731
17565TIP3    H274187   1.693   5.330   5.419  0.1605  0.1428 -0.3978
17566TIP3   OH274188   4.465   1.776  13.895  0.7506  0.6563 -0.0568
17566TIP3    H174189   4.398   1.825  13.942  0.3010  0.7436 -0.7875
17566TIP3    H274190   4.543   1.783  13.951 -0.4593 -1.4580  1.9498
17567TIP3   OH274191   1.343   0.097  11.355 -0.1756  0.0398 -0.2603
17567TIP3    H174192   1.359   0.168  11.293  0.3649  1.2553  1.2435
17567TIP3    H274193   1.263   0.055  11.323  0.3623  0.3422 -2.0408
17568TIP3   OH274194   2.058   0.689  14.099 -0.4476  0.5318  0.1951
17568TIP3    H174195   1.995   0.620  14.079  0.9718 -0.8431  0.3463
17568TIP3    H274196   2.005   0.765  14.123 -2.0347 -0.4436 -0.1984
17569TIP3   OH274197   2.408   5.845  13.938 -0.1161  0.2239 -0.0264
17569TIP3    H174198   2.358   5.788  13.880  0.4598 -0.6650  0.3346
17569TIP3    H274199   2.345   5.875  14.004 -0.2596 -0.5938  0.2112
17570TIP3   OH274200   4.319   5.647  13.223  0.2606 -0.3225 -0.5356
17570TIP3    H174201   4.396   5.691  13.186  0.0573  1.1267  0.6978
17570TIP3    H274202   4.245   5.696  13.188 -0.0182 -0.4059 -0.0623
17571TIP3   OH274203   2.270   3.753   5.376 -0.6104 -0.6264 -0.1633
17571TIP3    H174204   2.300   3.760   5.467 -2.4529  1.5537  0.3291
17571TIP3    H274205   2.186   3.709   5.382 -0.9205 -0.1234 -0.7536
17572TIP3   OH274206   2.475   4.265  14.855  0.5938  0.3420  0.0827
17572TIP3    H174207   2.430   4.350  14.857 -0.1461 -0.0329 -0.4758
17572TIP3    H274208   2.531   4.269  14.778  0.3884  0.2415 -0.0733
17573TIP3   OH274209   1.017   0.464  11.620  0.1839  0.2130  0.0787
17573TIP3    H174210   0.969   0.504  11.692 -1.5482 -1.1685 -0.2779
17573TIP3    H274211   0.984   0.375  11.616  0.1035  0.3215 -2.5536
17574TIP3   OH274212   0.285   6.683   5.100 -0.5321 -0.6447  0.2329
17574TIP3    H174213   0.370   6.722   5.117 -0.3105 -1.0354  0.0246
17574TIP3    H274214   0.228   6.757   5.079  0.0450 -0.4905 -0.8099
17575TIP3   OH274215   4.398   3.369  14.707  0.1154 -0.5701 -0.2019
17575TIP3    H174216   4.437   3.299  14.654  1.7405  0.6656 -0.6549
17575TIP3    H274217   4.473   3.422  14.735 -0.7680 -0.8344  2.8169
17576TIP3   OH274218   0.111   2.833  15.213  0.3319  0.2495 -0.1638
17576TIP3    H174219   0.132   2.745  15.182  1.5243  0.5030 -0.0806
17576TIP3    H274220   0.022   2.825  15.248 -0.2038 -0.5441 -1.6347
17577TIP3   OH274221   1.129   1.106   0.360  0.1264 -0.2757  0.1817
17577TIP3    H174222   1.038   1.134   0.356 -0.1657 -0.8564  2.2493
17577TIP3    H274223   1.179   1.188   0.362 -0.3929  0.0534 -0.2326
17578TIP3   OH274224   1.662   5.833  15.628 -0.2942 -0.2734  0.3015
17578TIP3    H174225   1.616   5.840  15.544  4.4236 -0.5443 -2.4432
17578TIP3    H274226   1.671   5.924  15.657  1.8451  0.1715 -1.6837
17579TIP3   OH274227   3.283   6.273   4.644  0.3096  0.1394 -0.1636
17579TIP3    H174228   3.344   6.246   4.575 -1.2065  1.4205 -2.0254
17579TIP3    H274229   3.208   6.215   4.634 -0.3561  1.0090 -0.2643
17580TIP3   OH274230   6.720   2.371  16.220 -0.3455 -0.7584  0.0977
17580TIP3    H174231   6.725   2.341  16.129 -0.1099 -1.6814  0.4144
17580TIP3    H274232   6.626   2.382  16.236 -0.4487 -1.5221  0.0422
17581TIP3   OH274233   4.125   5.050  12.350  0.1307  0.0968  0.1704
17581TIP3    H174234   4.040   5.061  12.308 -0.6087 -3.2349  0.6994
17581TIP3    H274235   4.164   5.138  12.347 -2.3773  1.2185 -2.0285
17582TIP3   OH274236   4.483   0.289   5.189  0.2723  0.0929 -0.4458
17582TIP3    H174237   4.485   0.313   5.281  1.3256  1.6499 -0.8580
17582TIP3    H274238   4.558   0.231   5.178 -1.0869 -1.8447  0.1042
17583TIP3   OH274239   1.195   5.312  14.693  0.4411 -0.0032 -0.4706
17583TIP3    H174240   1.105   5.328  14.663  0.5953  1.0532 -0.3839
17583TIP3    H274241   1.213   5.383  14.755  1.2150 -0.4138 -0.2111
17584TIP3   OH274242   6.316   3.959   5.627 -0.4495 -0.2301  0.6340
17584TIP3    H174243   6.269   3.888   5.672 -1.2282  0.2404  0.5655
17584TIP3    H274244   6.271   3.968   5.543 -0.6510  0.6646  0.8326
17585TIP3   OH274245   3.934   5.875  12.147  0.4305 -0.6783 -0.3253
17585TIP3    H174246   3.970   5.817  12.081  0.3261  0.3170 -1.2713
17585TIP3    H274247   3.839   5.862  12.143  0.2737  0.7722 -1.7105
17586TIP3   OH274248   3.844   4.659   2.284  0.1140  0.0303  0.4601
17586TIP3    H174249   3.826   4.705   2.366 -1.0692 -0.4431  0.4812
17586TIP3    H274250   3.923   4.609   2.301  1.8643  2.5981  0.2125
17587TIP3   OH274251   4.144   3.359  11.203  0.1794  0.0908 -0.3194
17587TIP3    H174252   4.149   3.453  11.189 -3.0375  1.0238  3.8153
17587TIP3    H274253   4.187   3.344  11.287  1.9908 -2.4183 -1.5970
17588TIP3   OH274254   3.540   1.089  13.373  0.1193  0.1442 -0.5203
17588TIP3    H174255   3.593   1.009  13.374  1.7206  1.1743 -1.0246
17588TIP3    H274256   3.601   1.158  13.347 -1.8425  1.1267 -2.6512
17589TIP3   OH274257   6.429   6.596  13.343 -0.5389  0.3834 -0.1368
17589TIP3    H174258   6.387   6.564  13.423  0.4676  0.0480  0.2597
17589TIP3    H274259   6.446   6.516  13.292 -0.4918  0.5313 -0.3522
17590TIP3   OH274260   6.211   5.268   6.224 -0.1071 -0.2544 -0.0570
17590TIP3    H174261   6.140   5.232   6.171  0.7790  0.6464 -1.9264
17590TIP3    H274262   6.291   5.233   6.185  0.5478 -0.1929  1.1831
17591TIP3   OH274263   6.033   5.751  11.953 -0.2446  0.0896  0.3389
17591TIP3    H174264   6.057   5.682  12.015  1.0387  0.8287  0.6795
17591TIP3    H274265   6.111   5.806  11.946 -0.1574 -0.3049 -2.3863
17592TIP3   OH274266   1.307   4.891   2.646  0.0689  0.4750  0.6216
17592TIP3    H174267   1.297   4.930   2.732 -0.6051  1.2833  0.1797
17592TIP3    H274268   1.295   4.963   2.584  0.9338 -0.0164 -0.1461
17593TIP3   OH274269   5.649   3.876   1.315  0.5101 -0.5404 -0.0981
17593TIP3    H174270   5.640   3.893   1.222  1.5342 -0.5544 -0.2120
17593TIP3    H274271   5.670   3.961   1.353  0.9292 -0.6793 -0.0076
17594TIP3   OH274272   3.218   3.476  14.639 -0.0279  0.1777 -0.4376
17594TIP3    H174273   3.310   3.461  14.615  0.5725 -0.0368  1.8868
17594TIP3    H274274   3.203   3.569  14.622  0.7184  0.2906 -0.4992
17595TIP3   OH274275   5.556   5.995   6.374 -0.0850  0.1932  0.5256
17595TIP3    H174276   5.495   6.007   6.447  0.2946  0.0470  0.8656
17595TIP3    H274277   5.570   6.083   6.340 -0.9998  0.1553  0.0328
17596TIP3   OH274278   5.981   0.445   4.067  0.1760  0.0512  0.0370
17596TIP3    H174279   6.055   0.421   4.010  0.4603 -0.5998  0.6718
17596TIP3    H274280   5.905   0.440   4.009  0.2494 -2.2375  0.0791
17597TIP3   OH274281   2.063   5.870  16.031  0.0774  0.1045 -0.0532
17597TIP3    H174282   2.136   5.901  16.085 -0.4551 -2.2502  2.1321
17597TIP3    H274283   2.104   5.807  15.971 -0.1323 -1.2776  1.2280
17598TIP3   OH274284   6.015   4.107   2.370  0.3945 -0.1544  0.1345
17598TIP3    H174285   5.947   4.077   2.431 -0.9932  0.0406 -1.2753
17598TIP3    H274286   6.094   4.062   2.398 -0.4506 -0.8686  1.4426
17599TIP3   OH274287   6.317   6.767  12.939 -0.2651  0.1699  0.2319
17599TIP3    H174288   6.363   6.797  13.017 -1.4448  2.1731  0.1896
17599TIP3    H274289   6.273   6.845  12.905 -0.9250 -0.9728 -1.6306
17600TIP3   OH274290   1.457   2.100   3.343 -0.6553  0.0714 -0.3173
17600TIP3    H174291   1.448   2.085   3.249  1.7518  1.5536 -0.8374
17600TIP3    H274292   1.498   2.021   3.376  0.3111  0.3402 -0.8567
17601TIP3   OH274293   5.017   1.033   2.154  0.4651  0.2670 -0.1714
17601TIP3    H174294   5.096   0.983   2.136  1.2745  1.7267 -0.7983
17601TIP3    H274295   5.005   1.090   2.078 -0.3563  1.1080  0.5505
17602TIP3   OH274296   2.250   2.567  12.660  0.3373 -0.0337 -0.6051
17602TIP3    H174297   2.277   2.616  12.738  1.4276  0.8510 -1.5293
17602TIP3    H274298   2.158   2.545  12.676  0.7760 -0.5624  1.2795
17603TIP3   OH274299   4.193   0.084  11.554  0.5701 -0.2923  0.3674
17603TIP3    H174300   4.212   0.044  11.639 -0.7662  1.9778  1.7960
17603TIP3    H274301   4.273   0.130  11.530  0.4645  0.3475  1.1867
17604TIP3   OH274302   5.468   5.747  11.166 -0.2636 -0.3687 -0.0662
17604TIP3    H174303   5.414   5.712  11.096  2.8215 -1.6146 -1.9430
17604TIP3    H274304   5.545   5.690  11.167  2.0017  2.5783  1.0474
17605TIP3   OH274305   4.436   6.754   4.092  0.5548 -0.3362 -0.7072
17605TIP3    H174306   4.440   6.723   4.182  0.2724 -1.2015 -0.9906
17605TIP3    H274307   4.528   6.759   4.064  0.6021 -0.9607 -0.6727
17606TIP3   OH274308   1.226   3.921   0.204  0.4354 -0.1561  1.1154
17606TIP3    H174309   1.285   3.892   0.134 -0.8416 -0.3647  0.1171
17606TIP3    H274310   1.260   3.880   0.283  0.8735 -1.3116  0.3360
17607TIP3   OH274311   4.860   3.087   5.584  0.5659  0.0210  1.0731
17607TIP3    H174312   4.774   3.072   5.623 -0.1149 -0.0314 -0.4291
17607TIP3    H274313   4.863   3.181   5.568 -0.6383 -0.4152 -2.0830
17608TIP3   OH274314   5.632   3.783   6.096  0.2071  0.0723  0.6635
17608TIP3    H174315   5.571   3.710   6.104 -0.4854  0.6271  0.4310
17608TIP3    H274316   5.612   3.823   6.012  2.1139 -0.8558 -0.2535
17609TIP3   OH274317   5.567   3.722  16.666  0.1853 -0.5974  0.2030
17609TIP3    H174318   5.518   3.722  16.749  1.1083 -2.5210  0.7701
17609TIP3    H274319   5.514   3.667  16.608  0.8158 -1.2945  0.2886
17610TIP3   OH274320   3.472   3.247   0.777 -0.3797  0.3152 -0.1805
17610TIP3    H174321   3.483   3.157   0.747 -0.7800  0.8143 -1.8461
17610TIP3    H274322   3.457   3.298   0.697 -1.7600  1.6221  0.8771
17611TIP3   OH274323   6.418   1.084   4.086  0.5481  0.3240  0.0152
17611TIP3    H174324   6.447   1.023   4.154 -0.7126 -0.2843  0.0166
17611TIP3    H274325   6.345   1.131   4.125  0.4665  0.6832 -0.5639
17612TIP3   OH274326   5.182   4.082   5.121 -0.1859 -0.5759  0.2303
17612TIP3    H174327   5.168   4.142   5.048  0.2543 -0.7107  0.0326
17612TIP3    H274328   5.179   4.138   5.199 -2.3879 -0.6856  0.2551
17613TIP3   OH274329   6.408   0.421  11.726  0.1795  0.2625 -0.0264
17613TIP3    H174330   6.328   0.466  11.699 -0.1636  0.2057  0.8638
17613TIP3    H274331   6.477   0.486  11.716  0.1007  0.1629 -1.2615
17614TIP3   OH274332   4.109   0.434  12.430 -0.2014 -0.0801 -0.1681
17614TIP3    H174333   4.189   0.485  12.434  0.0380 -0.4601 -0.1153
17614TIP3    H274334   4.040   0.494  12.458 -0.3095  1.0243 -2.6883
17615TIP3   OH274335   4.117   0.236  16.126  0.7461  0.4264 -0.1998
17615TIP3    H174336   4.062   0.313  16.110  0.8927  0.9145  1.5651
17615TIP3    H274337   4.173   0.230  16.049 -0.2349  1.2382 -0.9991
17616TIP3   OH274338   0.199   0.621   0.587 -0.3625 -0.0472 -0.1804
17616TIP3    H174339   0.215   0.603   0.680 -1.5069  1.9178  0.4351
17616TIP3    H274340   0.129   0.562   0.563 -0.6493  0.0299  0.4442
17617TIP3   OH274341   2.227   4.427  16.954  0.2849  0.1827  0.6751
17617TIP3    H174342   2.231   4.415  16.859 -0.5567 -1.2943  0.8185
17617TIP3    H274343   2.254   4.343  16.991 -1.3932  0.0744  1.7148
17618TIP3   OH274344   2.560   0.607  16.458  0.0133 -0.1624  0.5076
17618TIP3    H174345   2.649   0.617  16.424 -0.3423 -0.2479 -0.4569
17618TIP3    H274346   2.566   0.634  16.550  1.0391 -0.1992  0.4493
17619TIP3   OH274347   3.131   1.513   1.409  0.2662  0.3374 -0.0860
17619TIP3    H174348   3.110   1.490   1.319 -0.1825 -0.4582  0.2091
17619TIP3    H274349   3.209   1.462   1.429  0.4342  0.6043 -0.0656
17620TIP3   OH274350   3.829   0.031  12.051  0.7806  0.2584  0.2846
17620TIP3    H174351   3.883  -0.028  12.104 -0.0290 -1.2887 -0.6019
17620TIP3    H274352   3.767   0.069  12.114  1.0329 -0.1566  0.7852
17621TIP3   OH274353   3.112   4.314  16.626  0.3696 -0.7966  0.2347
17621TIP3    H174354   3.194   4.349  16.591 -0.1512  0.5423  0.3239
17621TIP3    H274355   3.074   4.263  16.554  0.7283 -0.4851 -0.1723
17622TIP3   OH274356   4.097   6.348   4.724  0.5638 -0.7155 -0.4648
17622TIP3    H174357   4.121   6.438   4.703 -0.6404 -0.6185 -1.4631
17622TIP3    H274358   4.059   6.353   4.812  1.2812 -0.3828 -0.1733
17623TIP3   OH274359   2.848   4.262  13.441 -0.1112  0.7143  0.2656
17623TIP3    H174360   2.912   4.326  13.471 -0.0068  0.7392 -0.0097
17623TIP3    H274361   2.876   4.180  13.482  1.4775  0.2249 -1.7036
17624TIP3   OH274362   5.287   5.513  14.768 -0.1687  0.0691  0.4026
17624TIP3    H174363   5.219   5.540  14.829 -0.0672  1.0292  0.0984
17624TIP3    H274364   5.351   5.584  14.771 -0.0881  0.0453 -0.7013
17625TIP3   OH274365   1.792   3.559   5.263 -0.2273  0.0998 -0.3399
17625TIP3    H174366   1.807   3.523   5.176  0.5731 -0.8019  0.1611
17625TIP3    H274367   1.762   3.485   5.315 -0.9564  0.6926  0.0933
17626TIP3   OH274368   2.281   4.184   2.346 -0.3300  0.1993  0.0997
17626TIP3    H174369   2.318   4.114   2.292 -2.9941 -1.2022 -0.0121
17626TIP3    H274370   2.327   4.176   2.430 -0.2892 -1.4383 -0.0537
17627TIP3   OH274371   4.051   3.970  13.871 -0.1245  0.8807  0.3486
17627TIP3    H174372   4.092   3.899  13.921  3.1798 -0.1117 -3.4906
17627TIP3    H274373   4.102   4.048  13.892  0.7566  0.6245 -0.7695
17628TIP3   OH274374   3.614   0.166   5.653 -0.3448  0.7991 -0.5302
17628TIP3    H174375   3.535   0.219   5.663  0.0760  1.1284  1.3155
17628TIP3    H274376   3.684   0.230   5.638  0.4367  0.9812  3.3261
17629TIP3   OH274377   4.650   5.326   2.217 -0.1429  0.2723 -0.0166
17629TIP3    H174378   4.662   5.408   2.169 -0.7122 -0.7184 -1.8885
17629TIP3    H274379   4.735   5.309   2.257  0.5179  0.8069 -1.1766
17630TIP3   OH274380   0.786   1.327   5.127 -0.4627 -0.1207 -0.5006
17630TIP3    H174381   0.836   1.379   5.063  0.0980  1.2580  1.0148
17630TIP3    H274382   0.799   1.236   5.100  1.7732  0.2981 -0.9268
17631TIP3   OH274383   4.212   6.185   2.279  0.0044 -0.4755 -0.5108
17631TIP3    H174384   4.224   6.264   2.226 -1.5292 -0.3829 -0.7436
17631TIP3    H274385   4.161   6.126   2.224 -2.2995 -0.0758  1.1127
17632TIP3   OH274386   5.563   4.753  15.298 -0.4732 -0.1958 -0.9296
17632TIP3    H174387   5.611   4.680  15.337  0.3545  0.7457 -0.1796
17632TIP3    H274388   5.512   4.713  15.227  2.1833 -1.0505 -2.4159
17633TIP3   OH274389   6.726   6.460  11.091 -0.4736 -0.0620 -0.1412
17633TIP3    H174390   6.800   6.433  11.036 -0.2588  0.4216 -0.0936
17633TIP3    H274391   6.747   6.550  11.116 -0.2481 -0.5090  1.2942
17634TIP3   OH274392   2.641   5.579  12.343 -0.8484 -0.0204 -0.0655
17634TIP3    H174393   2.735   5.574  12.330 -0.8091  0.1757  0.1314
17634TIP3    H274394   2.616   5.495  12.380 -0.3750  0.7962  2.1920
17635TIP3   OH274395   3.637   5.729  13.605  0.5329 -0.0937  0.5801
17635TIP3    H174396   3.669   5.716  13.516  1.7959  1.0651  0.8542
17635TIP3    H274397   3.715   5.752  13.656 -0.5159  1.4035  1.5481
17636TIP3   OH274398   0.508   2.744   0.058 -0.2264 -0.1402  0.1462
17636TIP3    H174399   0.498   2.674   0.123 -0.1599  0.8028  1.1888
17636TIP3    H274400   0.469   2.821   0.099  0.6428  0.6910 -0.5544
17637TIP3   OH274401   2.249   6.713   2.854 -0.2656  0.0777 -0.1728
17637TIP3    H174402   2.327   6.682   2.900  0.1701  0.4647 -0.6427
17637TIP3    H274403   2.250   6.808   2.865 -0.4513  0.1230 -0.5227
17638TIP3   OH274404   2.678   5.258   2.023 -0.4049 -0.2979  0.0538
17638TIP3    H174405   2.758   5.272   1.972 -1.1030  0.7657 -0.7654
17638TIP3    H274406   2.700   5.185   2.081  0.5015 -1.3328 -1.5433
17639TIP3   OH274407   4.359   3.913   3.752 -0.3960 -0.0602  0.6124
17639TIP3    H174408   4.275   3.941   3.716 -0.0155  1.0219  0.5628
17639TIP3    H274409   4.396   3.857   3.683 -1.2131 -0.8200  0.7744
17640TIP3   OH274410   4.055   6.016   1.866 -0.5253 -0.7244 -0.5040
17640TIP3    H174411   3.972   5.983   1.900 -1.1540 -0.1810 -1.4765
17640TIP3    H274412   4.060   5.982   1.776  0.5461 -1.1728 -0.2866
17641TIP3   OH274413   2.440   0.177   1.470 -0.2539 -0.2552  0.7025
17641TIP3    H174414   2.432   0.270   1.488 -2.2241 -0.4592  1.0117
17641TIP3    H274415   2.400   0.165   1.384 -0.0270 -0.8152  0.6698
17642TIP3   OH274416   1.719   3.525  11.075  0.3338  0.2516  0.1621
17642TIP3    H174417   1.777   3.600  11.063 -0.6755  0.9741 -0.2880
17642TIP3    H274418   1.757   3.457  11.021  0.4125  0.9195 -0.6298
17643TIP3   OH274419   4.759   3.562   2.738 -0.1591  0.0447  0.5473
17643TIP3    H174420   4.773   3.602   2.652 -0.8544 -1.6465 -0.3819
17643TIP3    H274421   4.665   3.574   2.754  0.3081  2.0665  1.9798
17644TIP3   OH274422   3.083   2.508   1.789  0.4885  0.1137 -0.0754
17644TIP3    H174423   3.060   2.415   1.780 -1.3956  0.1128  3.6461
17644TIP3    H274424   3.177   2.507   1.807  0.0415 -1.3490  2.4994
17645TIP3   OH274425   1.659   4.481  10.897  0.6360 -0.0319  0.5962
17645TIP3    H174426   1.564   4.478  10.907  0.4346 -0.7034 -1.3537
17645TIP3    H274427   1.693   4.447  10.980 -0.8703 -1.8074  0.5241
17646TIP3   OH274428   0.700   6.014  16.456 -0.0514 -0.1619 -0.5561
17646TIP3    H174429   0.606   6.009  16.471  0.0952 -1.4177  0.0421
17646TIP3    H274430   0.738   6.021  16.544  0.5644 -2.7925 -0.5793
17647TIP3   OH274431   5.743   1.811   4.930 -0.3261 -0.2643 -0.2273
17647TIP3    H174432   5.664   1.817   4.984  1.0101  1.2452  1.6196
17647TIP3    H274433   5.773   1.901   4.922  1.1007 -0.8084 -1.0859
17648TIP3   OH274434   1.851   1.083   4.630 -0.1223 -0.1643 -0.5234
17648TIP3    H174435   1.946   1.096   4.626 -0.1123 -0.4180 -1.2490
17648TIP3    H274436   1.821   1.146   4.695  0.5987 -0.3938  0.0429
17649TIP3   OH274437   6.335   2.521  11.076  0.1466 -0.0890  0.0855
17649TIP3    H174438   6.302   2.583  11.011 -0.2232 -0.5103 -0.1322
17649TIP3    H274439   6.421   2.495  11.043  0.3831  0.4444  0.2749
17650TIP3   OH274440   4.976   5.117   4.932 -0.5402 -0.4313  0.0043
17650TIP3    H174441   4.934   5.120   5.018  0.4906 -1.9350  0.5848
17650TIP3    H274442   5.066   5.144   4.948  0.1606 -2.5089 -0.2489
17651TIP3   OH274443   1.411   2.344  13.128  0.2485 -0.4823 -0.2570
17651TIP3    H174444   1.501   2.359  13.160 -0.4146  2.0116  0.6088
17651TIP3    H274445   1.403   2.402  13.053 -1.0997  0.4595  0.5942
17652TIP3   OH274446   4.695   5.317   3.371 -0.6144  0.5058 -0.2237
17652TIP3    H174447   4.682   5.329   3.277  0.6941 -0.6992 -0.5764
17652TIP3    H274448   4.729   5.400   3.403 -1.4178  1.0372 -0.7336
17653TIP3   OH274449   5.359   6.396  10.777  0.0294 -0.3388  0.3516
17653TIP3    H174450   5.329   6.466  10.834  2.2707 -0.7854  2.1504
17653TIP3    H274451   5.376   6.439  10.693 -1.1920  0.7418  0.6415
17654TIP3   OH274452   0.631   0.958  13.745 -0.0122  0.1047 -0.0412
17654TIP3    H174453   0.726   0.971  13.743 -0.1265  0.9919 -0.2325
17654TIP3    H274454   0.619   0.863  13.749  0.9061  0.0446  1.6235
17655TIP3   OH274455   2.981   4.482   2.938  0.3796  0.2930 -0.6758
17655TIP3    H174456   2.910   4.490   2.874 -2.3558 -2.0471  1.8885
17655TIP3    H274457   2.942   4.511   3.020  2.9115  0.3960  0.5329
17656TIP3   OH274458   6.016   3.146   5.909 -0.0687 -0.3309  1.1714
17656TIP3    H174459   5.921   3.141   5.921  0.1797 -1.5400  2.8563
17656TIP3    H274460   6.050   3.151   5.999  1.4292  0.8945  0.5539
17657TIP3   OH274461   3.912   0.026  15.584 -0.2544  0.4608 -0.0091
17657TIP3    H174462   3.884   0.050  15.495  2.7859  0.0103 -1.1325
17657TIP3    H274463   3.929   0.109  15.627 -0.9604  0.6600 -0.1119
17658TIP3   OH274464   0.771   1.253  14.956  0.5924  0.1229  0.1461
17658TIP3    H174465   0.786   1.207  15.039  1.0797  0.4700  0.2542
17658TIP3    H274466   0.676   1.253  14.945  0.5928 -0.9099  0.1462
17659TIP3   OH274467   0.559   2.544   0.502  0.0040  0.5375 -0.3884
17659TIP3    H174468   0.614   2.467   0.486 -0.2477  0.2992 -0.1182
17659TIP3    H274469   0.620   2.613   0.529 -0.0983 -0.5043  2.6895
17660TIP3   OH274470   3.072   6.370  15.937 -0.3853 -0.0142  0.0221
17660TIP3    H174471   3.050   6.418  16.017  0.7879  0.2971  0.1754
17660TIP3    H274472   3.153   6.324  15.959 -1.1738 -1.5787 -0.3249
17661TIP3   OH274473   4.257   4.577   5.958 -0.3832 -0.2740 -0.3571
17661TIP3    H174474   4.262   4.574   5.863 -0.8312 -1.2441 -0.3616
17661TIP3    H274475   4.195   4.647   5.977  1.0231  1.0886 -0.7239
17662TIP3   OH274476   0.318   0.596  17.133  0.7090 -0.4412 -0.3060
17662TIP3    H174477   0.306   0.524  17.070  0.6612 -0.1833 -0.5932
17662TIP3    H274478   0.325   0.552  17.218  1.2489 -0.8237 -0.5486
17663TIP3   OH274479   3.034   0.932  13.955 -0.2130 -0.5000  0.2318
17663TIP3    H174480   3.060   0.988  13.882 -0.0989 -1.6794 -0.6331
17663TIP3    H274481   2.939   0.946  13.964 -0.4808 -1.3925 -1.0457
17664TIP3   OH274482   2.040   4.145  13.681  0.3242  0.6650  0.0633
17664TIP3    H174483   1.993   4.151  13.598 -2.4881 -0.1504  1.5366
17664TIP3    H274484   2.121   4.193  13.666 -0.2795  0.8116 -3.0453
17665TIP3   OH274485   5.693   2.669  15.809 -0.1713 -0.8132  0.2334
17665TIP3    H174486   5.636   2.710  15.744 -0.9324 -2.0418  0.1265
17665TIP3    H274487   5.646   2.590  15.836  0.5233 -0.7472  1.6653
17666TIP3   OH274488   5.195   5.282  11.043  0.0311 -0.3399  0.3992
17666TIP3    H174489   5.118   5.258  11.095 -0.9977 -0.2514 -1.0511
17666TIP3    H274490   5.161   5.338  10.974  1.9205  2.5716  1.7144
17667TIP3   OH274491   4.945   5.469  16.164  0.0072 -0.0993  0.1904
17667TIP3    H174492   5.026   5.520  16.172 -0.2001  0.3119 -0.3826
17667TIP3    H274493   4.876   5.534  16.150 -0.3601 -0.4867  0.1897
17668TIP3   OH274494   4.546   3.095   3.643 -0.0435  0.1515  0.6439
17668TIP3    H174495   4.532   3.059   3.731 -1.4108 -2.0961 -0.4609
17668TIP3    H274496   4.629   3.057   3.615  0.2541  0.6520  0.8307
17669TIP3   OH274497   4.783   6.630  12.692 -0.4819  0.2554  0.4989
17669TIP3    H174498   4.763   6.692  12.762 -0.8181  0.5862  0.1085
17669TIP3    H274499   4.875   6.606  12.708 -0.1926  1.2438  0.3526
17670TIP3   OH274500   5.487   5.292   2.802  0.2580 -0.3005 -0.3099
17670TIP3    H174501   5.495   5.348   2.879  0.2170  0.1555 -0.6318
17670TIP3    H274502   5.484   5.203   2.836  0.2231 -0.0969  0.2140
17671TIP3   OH274503   1.550   2.011  10.885  0.1579  0.3092 -0.5210
17671TIP3    H174504   1.621   2.057  10.839  0.6761  0.2678  0.2288
17671TIP3    H274505   1.554   1.922  10.851 -0.3154  0.6007 -1.3675
17672TIP3   OH274506   2.348   1.447   6.601  0.1748 -0.2514 -0.0820
17672TIP3    H174507   2.378   1.488   6.519  1.2989 -3.3793 -1.3175
17672TIP3    H274508   2.395   1.363   6.604  0.0535 -0.2639  3.7426
17673TIP3   OH274509   3.580   6.746  13.647  0.7456 -0.2653 -0.0416
17673TIP3    H174510   3.638   6.754  13.571  1.4877 -3.4657  0.0866
17673TIP3    H274511   3.625   6.794  13.716  2.2105 -0.8876 -0.5325
17674TIP3   OH274512   3.419   4.868  13.166 -0.3337 -0.1720  0.0297
17674TIP3    H174513   3.420   4.817  13.247 -1.4032 -0.5598 -0.1968
17674TIP3    H274514   3.402   4.958  13.195  1.5085  0.0714  0.4258
17675TIP3   OH274515   3.882   2.425  13.607 -0.9456 -0.4630  0.6036
17675TIP3    H174516   3.902   2.397  13.517  2.0040 -2.3659  1.7738
17675TIP3    H274517   3.899   2.519  13.606 -1.8792 -0.2997 -1.0792
17676TIP3   OH274518   6.810   2.863   3.075 -0.0902 -0.0016 -0.4680
17676TIP3    H174519   6.817   2.769   3.059  1.8501  0.3274 -1.6391
17676TIP3    H274520   6.719   2.876   3.102 -0.3684 -2.2124 -0.2777
17677TIP3   OH274521   4.380   1.067   2.082  0.3810  0.1351  0.2128
17677TIP3    H174522   4.465   1.033   2.055  0.3676  0.9956 -0.9450
17677TIP3    H274523   4.343   0.999   2.137  0.0687 -2.0039 -2.5554
17678TIP3   OH274524   3.350   3.195  15.503  0.2144 -0.2311  0.3664
17678TIP3    H174525   3.273   3.152  15.541  0.3117 -1.5869 -0.9309
17678TIP3    H274526   3.313   3.262  15.446  0.0151 -0.3814  0.3191
17679TIP3   OH274527   6.022   1.702  15.455 -0.2138 -0.0952 -0.0435
17679TIP3    H174528   6.035   1.679  15.363 -0.3318 -1.9116  0.3779
17679TIP3    H274529   5.960   1.775  15.452  0.1497  0.1835 -1.4251
17680TIP3   OH274530   0.056   0.597  16.908  0.1333 -0.0099  0.1169
17680TIP3    H174531  -0.034   0.617  16.883 -0.2048 -2.0158 -0.3940
17680TIP3    H274532   0.109   0.659  16.859 -0.9241  0.6717 -0.1839
17681TIP3   OH274533   5.206   1.675  12.864  0.6401  0.0931  0.4564
17681TIP3    H174534   5.123   1.718  12.887 -0.8153 -1.2609 -2.1006
17681TIP3    H274535   5.191   1.583  12.883  2.1254  0.0407  1.4423
17682TIP3   OH274536   0.035   0.994  13.227 -0.4173  0.2479 -0.0798
17682TIP3    H174537  -0.036   0.961  13.172 -1.9958 -0.1273  2.1101
17682TIP3    H274538   0.006   1.081  13.254  1.1161  1.1256 -1.1608
17683TIP3   OH274539   4.365   2.580  13.449 -0.5294  0.3818 -0.5178
17683TIP3    H174540   4.316   2.662  13.451  0.8117  1.1934 -0.3228
17683TIP3    H274541   4.369   2.552  13.540 -0.4644  0.4134 -0.5106
17684TIP3   OH274542   4.835   4.851   3.239 -0.5071 -0.2675  0.3087
17684TIP3    H174543   4.809   4.929   3.289 -1.2986  0.1964 -0.8214
17684TIP3    H274544   4.760   4.791   3.248 -0.2729 -0.5413  0.4269
17685TIP3   OH274545   5.026   1.465  14.063  0.4145 -0.1034 -0.0165
17685TIP3    H174546   5.111   1.431  14.089  0.0079 -1.2373 -0.1336
17685TIP3    H274547   5.009   1.538  14.123  1.6352  0.3847 -0.2481
17686TIP3   OH274548   0.486   4.794  13.336  0.2270  0.0523 -0.5679
17686TIP3    H174549   0.542   4.861  13.374  0.6107  0.1572 -1.3057
17686TIP3    H274550   0.540   4.752  13.270 -0.5385  0.1170 -1.2525
17687TIP3   OH274551   6.085   1.682   2.828  0.2415 -0.3161 -0.1429
17687TIP3    H174552   6.112   1.739   2.900  0.7082  0.5641 -1.0088
17687TIP3    H274553   5.990   1.694   2.822  0.0001 -1.4787  1.2490
17688TIP3   OH274554   4.944   5.831   2.895  0.0652  0.0742 -0.5478
17688TIP3    H174555   4.899   5.915   2.886 -0.3326 -0.0609  0.1276
17688TIP3    H274556   4.876   5.770   2.926  0.5893 -0.2451  0.0007
17689TIP3   OH274557   0.491   5.190  15.299 -0.9019  0.1081 -0.0076
17689TIP3    H174558   0.572   5.239  15.295 -0.3941 -0.4056  2.7992
17689TIP3    H274559   0.432   5.236  15.239  1.0763  1.1511 -1.2084
17690TIP3   OH274560   6.121   4.351  11.338 -0.1370  0.4225  0.9345
17690TIP3    H174561   6.190   4.310  11.391  1.0573  0.2383 -0.7380
17690TIP3    H274562   6.160   4.432  11.307 -0.2379 -0.2467 -1.0080
17691TIP3   OH274563   0.773   6.565   4.333 -0.1675 -0.5130  0.2307
17691TIP3    H174564   0.687   6.605   4.329  0.0239 -0.0305  0.8893
17691TIP3    H274565   0.833   6.634   4.307 -0.1683 -1.5291 -2.6000
17692TIP3   OH274566   0.116   0.720  14.128  0.8985  0.3157  0.3991
17692TIP3    H174567   0.023   0.695  14.126  1.1870 -0.6961 -0.6691
17692TIP3    H274568   0.116   0.806  14.170 -0.6611  0.9109 -0.7700
17693TIP3   OH274569   1.396   3.455  13.242 -0.2487 -0.3233 -0.0025
17693TIP3    H174570   1.447   3.374  13.243 -0.2720 -0.3665 -1.4551
17693TIP3    H274571   1.398   3.485  13.332  0.3317 -1.5919  0.4249
17694TIP3   OH274572   6.433   4.018   2.303 -0.0603 -0.6219 -0.5091
17694TIP3    H174573   6.399   4.108   2.303  1.8768  0.1594  1.1096
17694TIP3    H274574   6.410   3.984   2.389  0.8535 -1.0195 -0.4202
17695TIP3   OH274575   4.004   4.582   0.865 -0.0888  0.3472  0.4609
17695TIP3    H174576   3.965   4.530   0.935  1.3121  0.2014  1.1504
17695TIP3    H274577   4.098   4.573   0.878  0.1807  1.2716 -0.7442
17696TIP3   OH274578   4.969   6.149   1.603 -0.1990  0.1088 -0.4815
17696TIP3    H174579   4.918   6.182   1.529  1.8668 -0.0149 -2.0126
17696TIP3    H274580   5.038   6.097   1.563  2.1366  1.6311  1.4036
17697TIP3   OH274581   4.367   4.227   2.178  0.7235 -0.2760 -0.4048
17697TIP3    H174582   4.327   4.162   2.237  0.5687  0.2444  0.0772
17697TIP3    H274583   4.389   4.301   2.236  0.1758  0.4188 -1.0657
17698TIP3   OH274584   6.110   4.450   3.403  0.1731 -0.6556 -0.2701
17698TIP3    H174585   6.103   4.525   3.462 -1.5815  0.1372 -1.4312
17698TIP3    H274586   6.148   4.485   3.323 -0.7041 -0.9866 -0.8394
17699TIP3   OH274587   6.660   0.232  10.854  0.3491 -0.2655 -0.0583
17699TIP3    H174588   6.648   0.181  10.773 -0.4091  0.4664 -0.4071
17699TIP3    H274589   6.750   0.214  10.880  1.1278  0.7448 -1.9485
17700TIP3   OH274590   6.807   5.033   5.529 -0.0488  0.0709  0.2753
17700TIP3    H174591   6.781   4.950   5.567 -0.4425  0.4378  0.8064
17700TIP3    H274592   6.901   5.040   5.547  0.2886 -0.9310 -1.0405
17701TIP3   OH274593   5.012   6.261   4.221 -0.5241 -0.5129  0.0546
17701TIP3    H174594   5.069   6.287   4.149 -2.3057 -0.6562 -1.4767
17701TIP3    H274595   5.049   6.301   4.299  1.4295 -0.3206 -0.9592
17702TIP3   OH274596   0.271   3.897  13.462  0.3463 -0.4035  0.2768
17702TIP3    H174597   0.303   3.960  13.527 -2.4365  1.5100 -0.1365
17702TIP3    H274598   0.290   3.938  13.378  0.6245 -1.2023 -0.0517
17703TIP3   OH274599   6.017   2.199  12.065 -0.5940  0.7405 -0.3211
17703TIP3    H174600   6.010   2.132  11.997 -0.1646 -0.1284  0.4771
17703TIP3    H274601   5.931   2.198  12.108 -1.4472  2.4796 -1.9249
17704TIP3   OH274602   5.369   2.060  13.515 -0.0999 -0.2079 -0.2205
17704TIP3    H174603   5.413   1.980  13.487 -0.1267 -0.7884  1.3701
17704TIP3    H274604   5.278   2.048  13.489 -0.2552 -1.0166  0.6773
17705TIP3   OH274605   3.066   0.033  14.289 -0.0612 -0.2679  0.1898
17705TIP3    H174606   3.068  -0.058  14.318 -0.8919 -0.2529  0.3124
17705TIP3    H274607   3.133   0.077  14.340  1.1817 -1.0613 -0.7327
17706TIP3   OH274608   1.271   6.723  13.256 -0.0039  0.0848 -0.0260
17706TIP3    H174609   1.184   6.762  13.260 -0.0803 -0.0869  0.0173
17706TIP3    H274610   1.262   6.649  13.195 -0.3800 -1.1355  1.4581
17707TIP3   OH274611   3.455   6.679   3.284  0.3240  0.7130 -0.0646
17707TIP3    H174612   3.510   6.605   3.259  1.7389  1.9093 -0.6065
17707TIP3    H274613   3.450   6.674   3.380 -1.5827 -1.4375 -0.2493
17708TIP3   OH274614   0.766   6.184   0.192  0.4204 -0.4182 -0.2230
17708TIP3    H174615   0.769   6.236   0.112  1.1638  0.6786  0.5177
17708TIP3    H274616   0.840   6.124   0.185  0.5365 -0.2639 -0.3151
17709TIP3   OH274617   6.142   1.111  16.226 -0.2325 -0.0464  0.4045
17709TIP3    H174618   6.195   1.094  16.149 -1.5641 -0.7238 -0.3717
17709TIP3    H274619   6.065   1.056  16.215 -1.0554  0.8485  1.5654
17710TIP3   OH274620   3.608   5.897   1.876 -0.4702  0.0683 -0.3472
17710TIP3    H174621   3.585   5.988   1.896  0.1045 -0.1540  1.3592
17710TIP3    H274622   3.525   5.858   1.847 -0.6093  1.2569 -1.6359
17711TIP3   OH274623   4.215   3.781  14.265  0.6109  0.0068  0.5019
17711TIP3    H174624   4.218   3.876  14.276 -1.8204  0.4363 -1.9312
17711TIP3    H274625   4.138   3.753  14.315  0.2489 -0.4125 -0.2705
17712TIP3   OH274626   4.498   6.614   4.923 -0.0376  0.7191  0.5594
17712TIP3    H174627   4.477   6.614   5.016  3.0214  0.2880  1.3155
17712TIP3    H274628   4.484   6.705   4.895 -2.0536  0.6124  1.1308
17713TIP3   OH274629   4.108   3.520  13.987  0.6988 -0.4571  0.2823
17713TIP3    H174630   4.103   3.470  14.069 -0.0325 -0.0252  0.5097
17713TIP3    H274631   4.018   3.519  13.953  0.5384  1.2151  0.6126
17714TIP3   OH274632   2.530   5.073  12.718 -0.1884 -0.2229  0.0340
17714TIP3    H174633   2.452   5.109  12.760 -0.4132 -2.0859  1.3105
17714TIP3    H274634   2.501   5.050  12.630 -1.2314 -1.2612  0.6225
17715TIP3   OH274635   2.147   0.455   3.688 -0.3150  0.4683 -0.0010
17715TIP3    H174636   2.214   0.482   3.626 -0.7160 -1.1781 -1.2081
17715TIP3    H274637   2.185   0.380   3.734  0.1932  2.0236  2.1636
17716TIP3   OH274638   2.438   4.512   3.122  0.5183 -0.3358  0.5245
17716TIP3    H174639   2.450   4.483   3.212  0.2745 -0.5120  0.5017
17716TIP3    H274640   2.360   4.567   3.125  1.7057  1.3959  0.8078
17717TIP3   OH274641   0.362   2.189   6.723 -0.0008 -0.0845  0.7542
17717TIP3    H174642   0.322   2.110   6.688 -0.4223  0.4914 -0.0588
17717TIP3    H274643   0.291   2.235   6.768  0.0272  0.3132  0.3919
17718TIP3   OH274644   6.381   0.102   2.471  0.1220  0.1943 -0.1593
17718TIP3    H174645   6.414   0.035   2.531 -2.2269 -0.2568  0.7096
17718TIP3    H274646   6.423   0.183   2.500  0.3689 -0.3296  0.9888
17719TIP3   OH274647   3.825   6.452   1.884  0.3133  0.3207 -0.1155
17719TIP3    H174648   3.781   6.454   1.969  1.1719 -0.2056  0.3509
17719TIP3    H274649   3.899   6.393   1.897  0.2732 -0.0168 -1.3236
17720TIP3   OH274650   0.846   6.449  15.906 -0.5156  0.3324  0.2692
17720TIP3    H174651   0.873   6.386  15.839 -0.8984  2.0580 -1.5461
17720TIP3    H274652   0.918   6.449  15.969 -0.7752 -2.3403  0.6355
17721TIP3   OH274653   6.075   1.324  14.694  0.5841  0.1849 -0.4167
17721TIP3    H174654   6.126   1.398  14.728 -0.7471  1.3536 -0.8906
17721TIP3    H274655   6.096   1.322  14.601  0.0646  0.4334 -0.5429
17722TIP3   OH274656   0.791   1.627   4.222  0.8890 -0.2309  0.0408
17722TIP3    H174657   0.748   1.549   4.186  0.7356 -0.0545 -0.1582
17722TIP3    H274658   0.797   1.688   4.148 -1.2867  0.9391  0.7728
17723TIP3   OH274659   2.690   0.713  13.560 -0.1361  0.7094 -0.2906
17723TIP3    H174660   2.783   0.717  13.584  0.4730 -0.0044 -2.4063
17723TIP3    H274661   2.671   0.800  13.525 -0.7635  1.4267  1.7347
17724TIP3   OH274662   3.048   3.736  15.827  0.0673  0.2589  0.1259
17724TIP3    H174663   3.110   3.681  15.779  1.2070  1.2690  0.4195
17724TIP3    H274664   3.024   3.805  15.765 -0.6905 -0.0666  0.0499
17725TIP3   OH274665   2.472   0.926  14.355 -0.3627 -0.2761  0.2388
17725TIP3    H174666   2.498   0.834  14.365 -0.7297 -0.4700 -0.5892
17725TIP3    H274667   2.554   0.975  14.360 -0.1867 -0.6338  0.8771
17726TIP3   OH274668   1.336   4.808  17.066  0.1581 -0.0870  0.2314
17726TIP3    H174669   1.419   4.778  17.029  0.6592  0.1049  1.1680
17726TIP3    H274670   1.350   4.901  17.085 -0.0143 -0.2315  1.0852
17727TIP3   OH274671   5.805   2.210  14.434  0.0532 -0.0615  0.8757
17727TIP3    H174672   5.875   2.220  14.369 -1.3243 -2.2855 -1.0293
17727TIP3    H274673   5.725   2.226  14.385 -0.8386  2.4468  3.0350
17728TIP3   OH274674   3.936   3.247  11.937 -0.2391  0.3318 -0.5575
17728TIP3    H174675   3.851   3.217  11.907 -0.7552  2.1890 -1.0109
17728TIP3    H274676   3.998   3.216  11.871 -0.6149 -0.4902 -0.5369
17729TIP3   OH274677   1.688   0.553   3.658  0.2783  0.2095 -0.2540
17729TIP3    H174678   1.593   0.547   3.659  0.2731  0.0310 -1.1878
17729TIP3    H274679   1.714   0.506   3.579  1.0888  0.9198 -0.4186
17730TIP3   OH274680   3.294   6.293  11.692 -0.2277  0.1338 -0.0523
17730TIP3    H174681   3.342   6.271  11.613 -1.1867  0.3530 -0.6994
17730TIP3    H274682   3.258   6.380  11.675  0.6886  0.7592  1.1496
17731TIP3   OH274683   3.084   1.417   2.174  0.5741 -0.2204 -0.0217
17731TIP3    H174684   3.016   1.413   2.107 -0.0642  0.3305  0.5836
17731TIP3    H274685   3.165   1.393   2.129  0.1978  0.4366 -1.0528
17732TIP3   OH274686   6.519   6.668   5.746 -0.1721  0.3610 -0.3194
17732TIP3    H174687   6.610   6.647   5.770 -0.2217  0.4403 -0.0525
17732TIP3    H274688   6.485   6.715   5.822 -0.9984 -1.2267  0.3165
17733TIP3   OH274689   4.466   0.882  11.754  0.2154 -0.0878  0.2041
17733TIP3    H174690   4.496   0.795  11.779 -1.3240 -0.4827  0.7231
17733TIP3    H274691   4.479   0.936  11.832 -0.6450 -0.3184  0.5096
17734TIP3   OH274692   5.060   3.812  16.142 -0.0102 -0.1985  0.4415
17734TIP3    H174693   5.055   3.758  16.063  0.6920 -2.8622  2.1300
17734TIP3    H274694   5.153   3.818  16.161 -0.2162 -0.2844  1.5092
17735TIP3   OH274695   5.110   0.747  16.422 -0.1029 -0.3090  0.1773
17735TIP3    H174696   5.035   0.806  16.416 -0.5308 -0.8509  0.1111
17735TIP3    H274697   5.079   0.675  16.477 -0.1440 -1.3068 -1.1233
17736TIP3   OH274698   3.900   4.236   5.384  0.1828 -0.0160  0.3987
17736TIP3    H174699   3.931   4.314   5.338  1.2980 -0.9165 -0.4146
17736TIP3    H274700   3.960   4.226   5.458 -0.3079  0.2125  0.8333
17737TIP3   OH274701   2.558   2.244  17.235  0.1712  0.3712  0.0171
17737TIP3    H174702   2.463   2.252  17.238  0.2625  1.3066  0.6491
17737TIP3    H274703   2.578   2.171  17.293 -0.1056  0.6376  0.4444
17738TIP3   OH274704   5.193   0.103   0.321 -0.0740  0.3464  0.0268
17738TIP3    H174705   5.173   0.083   0.412  2.1931 -2.2308 -0.0008
17738TIP3    H274706   5.140   0.041   0.271 -0.4578  1.0146 -0.4157
17739TIP3   OH274707   4.185   0.924   2.820 -0.6599  0.3242 -0.4216
17739TIP3    H174708   4.151   0.855   2.876 -0.8525  1.1165  0.4318
17739TIP3    H274709   4.108   0.959   2.775 -0.7142  0.7944  0.0411
17740TIP3   OH274710   6.368   2.157  17.243  0.2085 -0.3050  0.2776
17740TIP3    H174711   6.386   2.152  17.337 -0.2806 -1.2505  0.3179
17740TIP3    H274712   6.288   2.107  17.230  1.3125 -1.8321 -0.9285
17741TIP3   OH274713   5.024   4.186   3.068 -0.1250 -0.6949  0.4413
17741TIP3    H174714   4.929   4.190   3.052 -0.2039  0.0478  1.0869
17741TIP3    H274715   5.035   4.219   3.157  0.8522  0.2291 -0.0128
17742TIP3   OH274716   2.333   0.164  12.173  0.3329 -0.3061  0.1887
17742TIP3    H174717   2.330   0.219  12.251  0.8432 -0.7631  0.5352
17742TIP3    H274718   2.406   0.198  12.122 -0.6947  0.6983 -0.6270
17743TIP3   OH274719   6.305   1.876  15.047 -0.5491  0.0418  0.1078
17743TIP3    H174720   6.361   1.871  15.124  1.1450 -1.2339 -1.1882
17743TIP3    H274721   6.216   1.875  15.083  0.2194  0.2070  2.0773
17744TIP3   OH274722   0.875   2.097  11.057 -0.3688  0.5491 -0.0290
17744TIP3    H174723   0.889   2.187  11.085  1.2643 -0.0775  1.2233
17744TIP3    H274724   0.961   2.056  11.063 -1.4987 -1.6855  1.6408
17745TIP3   OH274725   5.483   1.061  15.507  0.0767  0.3718 -0.4252
17745TIP3    H174726   5.441   1.143  15.533 -1.3393 -0.6901  0.6813
17745TIP3    H274727   5.420   1.018  15.450  0.6199 -0.1614 -0.6308
17746TIP3   OH274728   2.886   3.165   4.860  0.1081 -0.3383  0.1236
17746TIP3    H174729   2.930   3.199   4.782  0.6265 -0.4210  0.3762
17746TIP3    H274730   2.886   3.070   4.848 -1.6809 -0.2371 -0.7614
17747TIP3   OH274731   4.500   5.966   3.919 -0.0273  0.1237 -0.1653
17747TIP3    H174732   4.416   5.926   3.943  0.7462 -0.7240  1.1910
17747TIP3    H274733   4.498   6.052   3.960  0.6950 -0.7725  1.8070
17748TIP3   OH274734   0.828   3.319  11.460  0.2139  0.7055  0.2692
17748TIP3    H174735   0.867   3.294  11.376  2.2163  1.5981  0.9144
17748TIP3    H274736   0.752   3.261  11.469  0.2131  0.3071 -1.9466
17749TIP3   OH274737   3.837   4.067   5.172  0.4849  0.2173  0.6750
17749TIP3    H174738   3.862   3.980   5.204 -0.5204 -0.3323  0.0090
17749TIP3    H274739   3.852   4.125   5.247  2.4067 -0.3114  0.7097
17750TIP3   OH274740   3.706   4.752   1.416  0.4271 -0.6212  0.5234
17750TIP3    H174741   3.684   4.774   1.326 -0.2938 -0.7012  0.6753
17750TIP3    H274742   3.626   4.769   1.466  0.8311 -0.5402  1.1541
17751TIP3   OH274743   2.644   2.261   2.304 -0.0718 -0.0034 -0.5385
17751TIP3    H174744   2.615   2.176   2.270 -0.0145 -0.1064 -0.3289
17751TIP3    H274745   2.691   2.301   2.231 -2.3502  0.9592 -1.4985
17752TIP3   OH274746   5.403   1.051  12.028 -0.5569  0.1338 -0.3888
17752TIP3    H174747   5.491   1.029  11.997 -1.1692 -0.0654 -2.0699
17752TIP3    H274748   5.345   1.007  11.966 -1.8136  3.3277 -1.6070
17753TIP3   OH274749   1.362   5.761   5.485  0.6253  0.1145 -0.5371
17753TIP3    H174750   1.441   5.746   5.432  0.2866  0.0192 -1.0185
17753TIP3    H274751   1.290   5.752   5.423  0.2100 -0.2078 -0.0128
17754TIP3   OH274752   4.858   5.787  13.295  0.3460 -0.3405  0.2658
17754TIP3    H174753   4.802   5.711  13.313 -1.0861  1.0248  1.7066
17754TIP3    H274754   4.797   5.854  13.261  1.4380  0.5025 -0.0489
17755TIP3   OH274755   0.206   0.267  14.269 -0.2139  0.1929  0.6305
17755TIP3    H174756   0.143   0.339  14.272 -0.2089  0.1609  2.4163
17755TIP3    H274757   0.216   0.240  14.361  0.8760 -1.1288  0.1486
17756TIP3   OH274758   1.831   2.627  15.081 -0.5190  0.0119 -0.1805
17756TIP3    H174759   1.822   2.539  15.117 -0.4732 -0.3504 -1.0293
17756TIP3    H274760   1.760   2.634  15.016  0.1348  0.2022 -0.8928
17757TIP3   OH274761   6.666   0.216  14.172 -0.0879 -0.9191  0.2472
17757TIP3    H174762   6.572   0.223  14.186  0.1039 -1.1595  1.7273
17757TIP3    H274763   6.701   0.300  14.202  0.1670 -0.7819 -0.4143
17758TIP3   OH274764   4.641   4.603  12.231  0.7127  0.0233  0.5953
17758TIP3    H174765   4.655   4.688  12.192  0.4842 -0.2173 -0.0119
17758TIP3    H274766   4.700   4.544  12.185 -0.3058 -0.4603 -0.1202
17759TIP3   OH274767   4.871   5.468   6.278  0.8485  0.8184  0.0874
17759TIP3    H174768   4.800   5.532   6.275 -1.0557 -1.2320  0.5027
17759TIP3    H274769   4.864   5.422   6.194 -0.0215 -1.1749  1.2386
17760TIP3   OH274770   1.420   3.394  15.997  0.1293 -0.2795  0.0825
17760TIP3    H174771   1.462   3.463  16.048 -1.4199  0.9370 -0.2810
17760TIP3    H274772   1.383   3.439  15.921 -0.3573 -1.6072 -0.4823
17761TIP3   OH274773   5.832   6.458  15.172  0.1274 -0.2245  0.5184
17761TIP3    H174774   5.737   6.469  15.167  0.1426  0.1390  1.0386
17761TIP3    H274775   5.862   6.530  15.227  0.2980 -2.3557  3.3167
17762TIP3   OH274776   5.428   4.666  11.235  0.2504  0.0794 -0.1705
17762TIP3    H174777   5.340   4.634  11.254 -0.2154  0.6062 -1.3938
17762TIP3    H274778   5.485   4.595  11.262 -0.6858 -1.1740 -1.3957
17763TIP3   OH274779   4.419   4.820  14.591 -0.3527  0.0972  0.7128
17763TIP3    H174780   4.435   4.818  14.686  0.0807 -0.1785  0.6352
17763TIP3    H274781   4.445   4.908  14.565 -0.9557  0.3420  0.9339
17764TIP3   OH274782   4.969   2.287   3.577 -0.3415  0.3725  0.3951
17764TIP3    H174783   5.050   2.287   3.526  1.2419  0.6652  2.8298
17764TIP3    H274784   4.931   2.200   3.561  1.6246 -0.6283  0.9816
17765TIP3   OH274785   4.106   5.385   1.374 -0.1432 -0.0944 -0.2400
17765TIP3    H174786   4.052   5.314   1.339  0.9765 -1.3614  0.5541
17765TIP3    H274787   4.192   5.372   1.336  0.4129  0.0539  0.9395
17766TIP3   OH274788   4.676   2.153   3.416 -0.1272 -0.0556 -0.1205
17766TIP3    H174789   4.737   2.088   3.450  0.6200  2.4953  3.6760
17766TIP3    H274790   4.728   2.206   3.356  0.3782 -0.2370  0.1532
17767TIP3   OH274791   0.296   2.221  11.147  0.0253  0.2438  0.3243
17767TIP3    H174792   0.336   2.240  11.062 -2.3378  2.1699 -0.4159
17767TIP3    H274793   0.342   2.278  11.209 -1.7586  2.7713 -0.5926
17768TIP3   OH274794   6.739   0.079   3.494  0.0538 -0.9370 -0.6294
17768TIP3    H174795   6.686   0.010   3.534 -1.0777  1.7759  2.7469
17768TIP3    H274796   6.816   0.086   3.550 -0.4089  1.3174 -0.2395
17769TIP3   OH274797   3.238   0.763  15.470  0.3345  0.2577  0.1036
17769TIP3    H174798   3.155   0.793  15.507  0.7943 -0.4439  1.7684
17769TIP3    H274799   3.244   0.671  15.494  1.1568  0.0602 -0.8200
17770TIP3   OH274800   6.401   0.929  14.095 -0.1849 -0.4974 -0.5870
17770TIP3    H174801   6.438   0.927  14.183  0.0305 -3.1472 -0.7178
17770TIP3    H274802   6.367   1.018  14.086 -0.7062 -0.3436  2.3712
17771TIP3   OH274803   2.617   5.331   5.939  0.4414 -0.4150  0.4511
17771TIP3    H174804   2.603   5.381   5.859  0.0033 -1.4056 -0.1073
17771TIP3    H274805   2.653   5.393   6.001  0.9063  0.3307 -0.5668
17772TIP3   OH274806   2.488   2.934  17.115 -0.3407 -0.3222 -0.0109
17772TIP3    H174807   2.425   2.994  17.075 -1.1800 -1.7116 -0.8229
17772TIP3    H274808   2.564   2.989  17.135 -0.9979  0.9673 -0.9376
17773TIP3   OH274809   3.407   5.115  13.300  0.0890 -1.0566 -0.9215
17773TIP3    H174810   3.416   5.192  13.356  0.8228 -1.7776 -0.0062
17773TIP3    H274811   3.323   5.125  13.257 -0.1258 -0.0790 -0.2832
17774TIP3   OH274812   0.316   6.118   5.109 -0.0034 -0.2338  0.1630
17774TIP3    H174813   0.264   6.199   5.111 -0.9743 -0.8608  1.6516
17774TIP3    H274814   0.402   6.146   5.077 -1.2689  0.7931 -2.4762
17775TIP3   OH274815   3.854   2.617   3.909 -0.2995 -0.4097  0.4315
17775TIP3    H174816   3.777   2.562   3.924 -1.3811  0.6214 -1.1407
17775TIP3    H274817   3.918   2.588   3.973 -1.1662 -2.9056  0.1916
17776TIP3   OH274818   5.487   6.514   3.520 -0.1584 -0.0666 -0.1876
17776TIP3    H174819   5.522   6.492   3.433  1.9011 -3.8797  1.4742
17776TIP3    H274820   5.563   6.546   3.569 -0.8909  0.2322  0.7736
17777TIP3   OH274821   1.431   3.264   5.371 -0.1068  0.1023  0.2896
17777TIP3    H174822   1.461   3.265   5.281  0.3962 -1.1570  0.4364
17777TIP3    H274823   1.474   3.339   5.412  2.4554 -1.3688  0.3773
17778TIP3   OH274824   0.544   4.747   5.688  0.5423  0.3111  0.8815
17778TIP3    H174825   0.455   4.750   5.652 -0.4006  2.3769  3.1769
17778TIP3    H274826   0.596   4.801   5.628 -0.2766  1.0195  0.7937
17779TIP3   OH274827   4.730   2.852   0.798  0.2371 -0.5402  0.4893
17779TIP3    H174828   4.784   2.791   0.749  1.3153  1.2544 -0.5774
17779TIP3    H274829   4.644   2.847   0.756  0.6339 -0.4380 -0.3271
17780TIP3   OH274830   0.421   0.318   5.786 -0.1269 -0.4377  0.1254
17780TIP3    H174831   0.407   0.377   5.860 -0.4543  1.8789 -1.7140
17780TIP3    H274832   0.452   0.236   5.825 -0.5352  0.6559  2.8138
17781TIP3   OH274833   3.768   6.298   6.296  0.5528  0.5786 -0.0063
17781TIP3    H174834   3.792   6.382   6.258 -2.6028  1.6212  0.2187
17781TIP3    H274835   3.826   6.235   6.254  1.8292  2.6312 -1.3798
17782TIP3   OH274836   0.438   1.162  11.410  0.2716  0.2708 -0.2948
17782TIP3    H174837   0.359   1.145  11.462  1.3929 -0.4781  1.1961
17782TIP3    H274838   0.487   1.080  11.414  0.8963  0.5757 -1.6263
17783TIP3   OH274839   1.122   5.855  16.051  0.0455  0.2932 -0.4307
17783TIP3    H174840   1.152   5.938  16.090  1.2416  0.1380 -1.0077
17783TIP3    H274841   1.053   5.825  16.110  2.5777 -0.5183  2.2610
17784TIP3   OH274842   6.202   5.936   5.909 -0.2183 -0.1167  0.5947
17784TIP3    H174843   6.258   5.986   5.850  2.2083 -0.0817  2.8106
17784TIP3    H274844   6.176   5.999   5.976 -1.8701 -0.4665  0.3112
17785TIP3   OH274845   5.209   2.617   5.072 -0.3440  0.0028 -0.1828
17785TIP3    H174846   5.197   2.695   5.019 -1.6777  1.0587  1.6195
17785TIP3    H274847   5.271   2.643   5.140 -0.4944 -0.6199  0.1979
17786TIP3   OH274848   0.763   2.599   5.891  0.1781 -0.1100  0.6968
17786TIP3    H174849   0.844   2.633   5.931  0.3672  0.8960 -0.5236
17786TIP3    H274850   0.787   2.581   5.800 -1.2911  1.3568 -0.0022
17787TIP3   OH274851   5.111   1.791   3.659 -0.4443 -0.4683  0.0322
17787TIP3    H174852   5.037   1.808   3.717 -1.9864 -1.0667 -1.7084
17787TIP3    H274853   5.188   1.802   3.715 -1.8404 -0.1614  1.9611
17788TIP3   OH274854   6.808   4.172  14.296 -0.3233 -0.6927  0.4023
17788TIP3    H174855   6.773   4.090  14.330 -0.7807 -0.2452  1.0460
17788TIP3    H274856   6.898   4.175  14.329 -0.0280 -1.3321 -0.3399
17789TIP3   OH274857   5.132   1.814   4.229 -0.4527  0.1368 -0.0706
17789TIP3    H174858   5.135   1.729   4.274  1.1573  0.3223  0.2191
17789TIP3    H274859   5.178   1.799   4.147 -0.9758  0.5091 -0.4365
17790TIP3   OH274860   1.959   6.195  13.042 -0.3993  0.0771 -0.2852
17790TIP3    H174861   1.886   6.158  13.092  0.6037 -1.2174  0.2770
17790TIP3    H274862   1.950   6.289  13.052 -0.1114 -0.1554  2.5642
17791TIP3   OH274863   3.007   4.383  12.532 -0.0531 -0.5575  0.0935
17791TIP3    H174864   2.962   4.422  12.457  1.5077 -0.4737 -0.8092
17791TIP3    H274865   3.008   4.453  12.598  1.2615  0.3764 -0.9123
17792TIP3   OH274866   4.088   5.094   2.761 -0.9974 -0.0839 -0.5018
17792TIP3    H174867   4.059   5.185   2.769  0.0938  0.4107 -1.9821
17792TIP3    H274868   4.114   5.086   2.669 -0.9490 -1.8506 -0.3373
17793TIP3   OH274869   1.018   1.678  12.429  0.1055 -0.3217 -0.0775
17793TIP3    H174870   0.935   1.639  12.402 -0.0958 -0.1806  0.3453
17793TIP3    H274871   1.004   1.773  12.419  0.1500 -0.2884  0.1904
17794TIP3   OH274872   3.660   4.908  11.800  0.5277  0.0991  0.1582
17794TIP3    H174873   3.625   4.919  11.712  1.2844  1.1333 -0.0125
17794TIP3    H274874   3.594   4.947  11.857 -0.2519 -1.1217  0.1008
17795TIP3   OH274875   0.331   0.588  15.982  0.5021 -0.0575 -0.1347
17795TIP3    H174876   0.407   0.598  16.039 -0.7948 -0.5588  1.7112
17795TIP3    H274877   0.282   0.514  16.018 -1.3148  0.7848 -0.7662
17796TIP3   OH274878   6.320   2.161   0.952 -1.2474  0.1830  0.7351
17796TIP3    H174879   6.338   2.254   0.966  0.1450  0.3212 -1.8321
17796TIP3    H274880   6.406   2.119   0.952 -1.4883 -0.4299 -2.6015
17797TIP3   OH274881   1.164   1.425   2.382 -0.2912 -0.2562  0.2435
17797TIP3    H174882   1.252   1.404   2.414  0.1363  1.5871  0.3390
17797TIP3    H274883   1.105   1.374   2.437  0.6122  0.2426  1.7138
17798TIP3   OH274884   6.377   1.650   1.753  0.1784  0.1094  0.1752
17798TIP3    H174885   6.319   1.688   1.687 -0.6332  1.2251  1.4994
17798TIP3    H274886   6.465   1.661   1.717 -0.2567  0.6101 -0.7552
17799TIP3   OH274887   0.256   3.799  14.631  0.5391  0.3145  0.4085
17799TIP3    H174888   0.235   3.890  14.655 -3.2551 -0.3406 -0.0525
17799TIP3    H274889   0.226   3.747  14.705 -2.0686 -0.9082 -1.4321
17800TIP3   OH274890   5.690   3.572   6.706 -0.4792 -0.8242 -0.4560
17800TIP3    H174891   5.655   3.508   6.768 -0.4291 -0.9371 -0.5448
17800TIP3    H274892   5.628   3.572   6.633 -1.0609  0.0211  0.0384
17801TIP3   OH274893   0.901   1.185  13.563 -0.2449 -0.2500  0.0669
17801TIP3    H174894   0.807   1.165  13.565 -0.0966 -1.2308 -1.8361
17801TIP3    H274895   0.914   1.235  13.483  0.7357  0.6015  0.7396
17802TIP3   OH274896   1.799   0.402  15.536  0.6826  0.2396 -0.4332
17802TIP3    H174897   1.726   0.439  15.487  2.2686 -0.8488 -3.7534
17802TIP3    H274898   1.842   0.478  15.577 -1.9542  0.9194  1.1511
17803TIP3   OH274899   3.022   0.668   0.323 -0.0407 -0.1084  0.2977
17803TIP3    H174900   3.057   0.735   0.381 -1.5500 -0.7592  1.9945
17803TIP3    H274901   2.950   0.711   0.276  0.8926  0.2906 -0.7812
17804TIP3   OH274902   3.163   6.153  16.694 -0.3933 -0.9067  0.2682
17804TIP3    H174903   3.235   6.090  16.690 -1.0974 -1.6177 -1.8271
17804TIP3    H274904   3.196   6.230  16.648 -0.6136 -0.8765  0.1587
17805TIP3   OH274905   3.089   2.920   1.846 -0.0263 -0.2597 -0.2285
17805TIP3    H174906   3.020   2.980   1.875 -3.2600 -3.2637 -1.2632
17805TIP3    H274907   3.108   2.948   1.756  1.1325  1.4282  0.5185
17806TIP3   OH274908   4.593   3.926   3.183  0.0852  0.1095  0.1840
17806TIP3    H174909   4.575   4.003   3.237 -1.0967  0.3487 -0.5208
17806TIP3    H274910   4.683   3.902   3.203 -0.1907  0.4740  1.9083
17807TIP3   OH274911   1.473   3.197  13.250 -0.0914 -0.1582  0.2786
17807TIP3    H174912   1.463   3.150  13.333  0.0414  1.3136  1.1403
17807TIP3    H274913   1.559   3.170  13.218 -0.3198 -1.0611  0.3892
17808TIP3   OH274914   1.983   1.291   0.159  0.4131  0.0472  0.2131
17808TIP3    H174915   2.007   1.241   0.237  2.5310 -0.4069 -0.7059
17808TIP3    H274916   2.034   1.252   0.088 -2.3237 -0.2882 -1.6558
17809TIP3   OH274917   2.746   2.417  11.926  0.0354 -0.4925  0.4009
17809TIP3    H174918   2.839   2.441  11.926 -0.0704  0.3165 -3.3149
17809TIP3    H274919   2.742   2.336  11.875 -1.3209 -0.4102  0.3581
17810TIP3   OH274920   4.211   4.459  16.801 -0.0908  0.5230 -0.1694
17810TIP3    H174921   4.188   4.472  16.893 -0.8473 -0.6926 -0.1684
17810TIP3    H274922   4.127   4.458  16.756 -0.0006 -2.4460 -0.3756
17811TIP3   OH274923   6.004   0.885  13.769  0.1463  0.2921  0.0849
17811TIP3    H174924   5.984   0.888  13.675 -1.4135  0.9512  0.4278
17811TIP3    H274925   6.095   0.914  13.775  0.5236 -0.5348 -1.2913
17812TIP3   OH274926   3.359   6.697  13.789 -0.1878 -0.3335  0.4752
17812TIP3    H174927   3.428   6.733  13.733 -1.5315  0.8662 -0.4443
17812TIP3    H274928   3.357   6.756  13.865 -2.0622  1.2980 -0.8048
17813TIP3   OH274929   3.422   1.844  15.716 -0.3456  0.6166 -0.0872
17813TIP3    H174930   3.438   1.870  15.806 -0.1287  1.3416 -0.3398
17813TIP3    H274931   3.505   1.808  15.685 -0.9411 -1.4831  0.6250
17814TIP3   OH274932   2.839   1.731   1.816  0.3246 -0.2943 -0.2319
17814TIP3    H174933   2.850   1.703   1.725  0.4355  0.0259 -0.3170
17814TIP3    H274934   2.806   1.653   1.861 -0.7886 -0.1295 -0.7608
17815TIP3   OH274935   2.008   0.662  13.702  0.3622  0.0336 -0.1779
17815TIP3    H174936   2.046   0.590  13.652  0.5547 -0.2380  0.3608
17815TIP3    H274937   1.915   0.640  13.708 -0.1423  1.3375 -2.5955
17816TIP3   OH274938   3.863   1.713   3.363  0.2475  0.2760 -0.6817
17816TIP3    H174939   3.782   1.705   3.414 -0.8070  2.4286 -1.9239
17816TIP3    H274940   3.932   1.722   3.429 -0.5940 -1.0128  0.3922
17817TIP3   OH274941   6.706   1.497   1.655 -0.5682 -0.2686  0.7823
17817TIP3    H174942   6.649   1.544   1.594 -0.3270 -0.5094  0.3640
17817TIP3    H274943   6.760   1.565   1.694 -1.1598 -0.0375  1.1968
17818TIP3   OH274944   1.289   5.195   4.255  0.4151  0.5750 -0.0480
17818TIP3    H174945   1.205   5.229   4.224 -0.2369  0.5421  1.6374
17818TIP3    H274946   1.351   5.218   4.185 -1.2762 -0.9859 -2.1594
17819TIP3   OH274947   4.558   1.371  11.585 -0.1122 -0.4130 -0.2311
17819TIP3    H174948   4.560   1.404  11.675  0.2250 -1.7306  0.2510
17819TIP3    H274949   4.635   1.315  11.578  1.1811  1.4979 -2.0591
17820TIP3   OH274950   6.053   3.181  13.227 -0.3313 -0.2335 -0.5706
17820TIP3    H174951   6.081   3.273  13.230 -0.0893 -0.3280  0.3977
17820TIP3    H274952   6.026   3.167  13.137  1.4787  0.2467 -1.2222
17821TIP3   OH274953   1.888   2.763   5.880 -0.2070  0.2211 -0.1398
17821TIP3    H174954   1.816   2.796   5.934  1.0160  0.5721  1.3171
17821TIP3    H274955   1.906   2.835   5.818  0.3024  0.9972  0.8988
17822TIP3   OH274956   5.412   1.483  15.556  1.4760  0.1009 -0.2980
17822TIP3    H174957   5.413   1.436  15.639 -0.2587 -1.5886 -1.2026
17822TIP3    H274958   5.471   1.434  15.499  2.5512  1.1736 -0.1465
17823TIP3   OH274959   6.187   3.467  13.760  0.0499 -0.4800  0.0652
17823TIP3    H174960   6.114   3.436  13.708 -0.2216  1.0433 -0.4966
17823TIP3    H274961   6.259   3.478  13.697 -0.7373  2.8920 -0.3605
17824TIP3   OH274962   5.000   2.979  10.359  0.0498 -0.1515  0.6865
17824TIP3    H174963   5.004   2.884  10.375 -0.4542 -0.2344  0.3446
17824TIP3    H274964   4.907   2.996  10.345  0.5518 -0.2528 -3.2373
17825TIP3   OH274965   4.338   0.519  16.620 -0.2254  0.4955  0.1422
17825TIP3    H174966   4.305   0.434  16.591 -0.2177  0.5728 -0.0935
17825TIP3    H274967   4.374   0.560  16.541  1.1925  0.0569  0.5457
17826TIP3   OH274968   5.100   1.098  13.258  0.7208 -0.1041  0.1302
17826TIP3    H174969   5.176   1.042  13.244  1.5687  0.9868  0.2485
17826TIP3    H274970   5.130   1.164  13.321 -0.8245 -0.6184  1.4346
17827TIP3   OH274971   3.932   1.044  13.931 -0.0468 -0.2966  0.1179
17827TIP3    H174972   3.837   1.045  13.942 -0.2143 -1.4469 -1.0323
17827TIP3    H274973   3.952   1.124  13.882 -0.6180 -0.8143 -0.9796
17828TIP3   OH274974   4.047   6.098   0.978  0.3916 -0.2293 -0.5496
17828TIP3    H174975   4.100   6.177   0.987 -0.1092  0.3110 -2.1766
17828TIP3    H274976   4.095   6.030   1.026  0.0012  1.4301  2.3373
17829TIP3   OH274977   5.680   0.169   2.389  0.5438  0.1791 -0.5158
17829TIP3    H174978   5.616   0.122   2.442 -0.9078  0.9911 -1.4859
17829TIP3    H274979   5.759   0.172   2.442  0.5491 -2.9911 -0.2734
17830TIP3   OH274980   0.542   5.665   5.706 -0.0926  0.0827 -0.1171
17830TIP3    H174981   0.501   5.689   5.622  0.5949 -1.0993 -0.7995
17830TIP3    H274982   0.619   5.614   5.681  0.3816  0.1330  1.2369
17831TIP3   OH274983   4.621   3.709  10.457 -0.3911  0.0474  0.0784
17831TIP3    H174984   4.603   3.732  10.366 -1.1765 -0.9414 -0.0237
17831TIP3    H274985   4.618   3.792  10.504  1.4363  0.7652 -1.0091
17832TIP3   OH274986   5.947   5.680   3.330 -0.6171 -0.3040  0.0626
17832TIP3    H174987   5.891   5.724   3.394 -0.0676 -0.1587  0.4497
17832TIP3    H274988   5.916   5.590   3.328 -1.0224 -0.1658  0.0928
17833TIP3   OH274989   5.085   2.387  15.250  0.0242 -0.1896 -0.7149
17833TIP3    H174990   5.132   2.465  15.221  1.5335 -0.9999 -0.4608
17833TIP3    H274991   5.116   2.372  15.339 -0.8228 -0.6648 -0.4934
17834TIP3   OH274992   4.623   6.441  11.418 -0.2200 -0.0344  0.0446
17834TIP3    H174993   4.698   6.469  11.364  0.1488 -0.0852  0.5330
17834TIP3    H274994   4.590   6.522  11.457 -0.9057  0.0978 -0.7742
17835TIP3   OH274995   4.012   5.688   3.490 -0.1895 -0.3379 -0.0842
17835TIP3    H174996   4.082   5.673   3.553 -0.9772 -1.3186  0.5786
17835TIP3    H274997   3.978   5.600   3.470 -0.3679  0.0099 -1.3953
17836TIP3   OH274998   0.930   6.056   5.852 -0.3892 -0.2343  0.1299
17836TIP3    H174999   0.992   6.031   5.784 -0.0801  0.5537  0.1155
17836TIP3    H275000   0.847   6.068   5.806 -0.0300  0.9562 -0.2220
17837TIP3   OH275001   2.271   1.644  13.786 -0.9084 -0.4391  0.1088
17837TIP3    H175002   2.185   1.655  13.827 -2.4466 -1.9432 -2.6004
17837TIP3    H275003   2.252   1.615  13.697  2.4098 -0.0885 -0.7766
17838TIP3   OH275004   1.956   2.079  11.687  0.6817  0.2205 -0.1076
17838TIP3    H175005   1.990   2.120  11.608  0.0718  1.1487  0.1010
17838TIP3    H275006   2.031   2.074  11.746  1.4758 -1.7787 -1.2598
17839TIP3   OH275007   2.425   4.697  16.170  0.4663  0.3003  1.0524
17839TIP3    H175008   2.438   4.621  16.227 -0.9824 -1.2819 -0.6690
17839TIP3    H275009   2.409   4.660  16.084  1.6747  2.6304 -0.2376
17840TIP3   OH275010   3.615   0.023   1.417  0.2175 -0.3128  0.2502
17840TIP3    H175011   3.582   0.003   1.505 -0.2144  2.0215  0.6475
17840TIP3    H275012   3.597   0.116   1.406  1.6103 -0.2724 -1.7530
17841TIP3   OH275013   1.712   4.121   0.773  0.4118 -0.3087 -0.1226
17841TIP3    H175014   1.652   4.050   0.797 -0.1095  0.5390  1.0807
17841TIP3    H275015   1.799   4.085   0.789  0.1637 -0.7985  0.1370
17842TIP3   OH275016   4.348   6.308  11.829  0.4209 -0.1108 -0.2386
17842TIP3    H175017   4.410   6.367  11.785  1.9812 -0.2935  1.6320
17842TIP3    H275018   4.385   6.296  11.916 -2.4065 -0.0323  1.0139
17843TIP3   OH275019   6.263   6.556   4.902 -0.0095 -0.2828 -0.2837
17843TIP3    H175020   6.203   6.561   4.828  1.1834  1.1496 -1.1759
17843TIP3    H275021   6.304   6.469   4.894 -0.8899 -0.6812 -0.4941
17844TIP3   OH275022   6.730   3.236   1.542 -0.0867 -0.7775 -0.5074
17844TIP3    H175023   6.644   3.195   1.555 -0.1820 -0.2399  0.6909
17844TIP3    H275024   6.718   3.293   1.466 -0.4571 -1.6025 -1.0758
17845TIP3   OH275025   5.446   2.762  13.306 -0.0095  0.0139 -0.6328
17845TIP3    H175026   5.530   2.716  13.308 -0.1971 -0.2935  2.7363
17845TIP3    H275027   5.434   2.786  13.214  2.7052 -1.8562 -1.5341
17846TIP3   OH275028   3.618   6.485   3.054 -0.2448  0.1263  0.0871
17846TIP3    H175029   3.639   6.496   2.961 -0.9002 -1.5719 -0.2857
17846TIP3    H275030   3.702   6.472   3.097  0.1482  1.8924 -0.1039
17847TIP3   OH275031   5.626   4.846   1.980  0.9783 -0.1282 -0.4661
17847TIP3    H175032   5.619   4.751   1.980 -0.3552 -0.0424 -1.1020
17847TIP3    H275033   5.595   4.873   2.066  1.8279 -0.2971 -0.1058
17848TIP3   OH275034   5.072   4.520  14.126  0.0015 -0.7036 -0.7486
17848TIP3    H175035   5.078   4.435  14.082 -0.5319 -0.3949 -1.4212
17848TIP3    H275036   4.981   4.548  14.113 -1.4218 -2.5271  4.1205
17849TIP3   OH275037   3.207   1.342   4.540 -0.2503  0.2996 -0.2685
17849TIP3    H175038   3.243   1.262   4.500  2.5680  0.4960  1.7236
17849TIP3    H275039   3.128   1.313   4.585 -1.6551 -0.5191 -3.1012
17850TIP3   OH275040   3.997   0.530  14.619  0.2509 -0.3724  0.1654
17850TIP3    H175041   4.077   0.490  14.652  0.7332  0.8753  0.5238
17850TIP3    H275042   4.005   0.623  14.641 -0.4414  0.0970 -1.4394
17851TIP3   OH275043   4.573   2.333   5.292 -0.4837 -0.3325  0.2141
17851TIP3    H175044   4.668   2.339   5.290 -0.5531  1.1307  0.9695
17851TIP3    H275045   4.542   2.421   5.270 -1.6743 -0.7983 -0.0586
17852TIP3   OH275046   4.849   3.978  15.320  0.2003 -0.1709 -0.6152
17852TIP3    H175047   4.826   3.918  15.391  1.1068 -1.7852 -1.6450
17852TIP3    H275048   4.769   4.028  15.304 -1.3545 -2.7530 -1.2899
17853TIP3   OH275049   2.171   3.700  13.998  0.0522 -0.6954  0.7587
17853TIP3    H175050   2.084   3.729  14.026 -0.1794 -0.2773 -0.3528
17853TIP3    H275051   2.153   3.622  13.944  0.3602 -0.5500  0.4503
17854TIP3   OH275052   0.471   2.996  15.828 -0.9194  0.2051 -0.3199
17854TIP3    H175053   0.563   3.022  15.818 -0.8046  0.1255  0.5002
17854TIP3    H275054   0.440   2.984  15.738  0.3805 -1.5145 -0.5626
17855TIP3   OH275055   6.252   3.880  10.833  0.1556 -0.3915  0.0019
17855TIP3    H175056   6.263   3.812  10.900  2.0241  0.4184  0.5533
17855TIP3    H275057   6.341   3.899  10.803 -0.2025  2.5308  0.6059
17856TIP3   OH275058   2.161   1.622   6.732 -0.0416  0.1206 -1.1093
17856TIP3    H175059   2.213   1.552   6.693  1.5576  1.1422 -0.8568
17856TIP3    H275060   2.115   1.581   6.805  0.8398 -0.6898 -1.0051
17857TIP3   OH275061   5.934   1.079   0.467  0.1316 -0.0312  0.4016
17857TIP3    H175062   5.839   1.075   0.482  0.0979 -1.6828 -0.2343
17857TIP3    H275063   5.945   1.143   0.397 -0.5561 -0.3062  0.0456
17858TIP3   OH275064   3.503   5.060  15.360  0.0127  0.2843 -0.1418
17858TIP3    H175065   3.464   5.027  15.279 -1.1478  1.4911 -0.1010
17858TIP3    H275066   3.597   5.057  15.345 -0.1755 -0.1946 -1.2550
17859TIP3   OH275067   0.969   2.524   0.312  0.2115 -0.1344  0.0459
17859TIP3    H175068   0.877   2.527   0.338 -0.6410  0.5353 -2.8789
17859TIP3    H275069   0.968   2.487   0.224  2.7287  0.2438 -0.1732
17860TIP3   OH275070   5.709   3.549  14.298  0.1433  0.4375 -0.2644
17860TIP3    H175071   5.764   3.472  14.312 -0.5717  0.2341  1.5381
17860TIP3    H275072   5.736   3.611  14.366 -0.8195  0.9087 -0.2988
17861TIP3   OH275073   6.411   5.451  12.816  0.5252 -0.7003 -0.4266
17861TIP3    H175074   6.349   5.524  12.806  0.7998 -0.1118  1.8769
17861TIP3    H275075   6.366   5.389  12.874  0.3242 -2.3665 -2.3277
17862TIP3   OH275076   6.518   4.924   2.452  0.3777 -0.6755  0.5874
17862TIP3    H175077   6.489   4.999   2.399  1.0181 -0.2868  0.7764
17862TIP3    H275078   6.559   4.865   2.388 -0.8525 -1.2431  0.3159
17863TIP3   OH275079   0.033   1.511   4.804  0.0158 -0.1500  0.2714
17863TIP3    H175080  -0.035   1.484   4.742  0.8213 -0.8966 -0.2904
17863TIP3    H275081  -0.014   1.561   4.871 -0.7054  1.7400 -1.5798
17864TIP3   OH275082   0.938   2.053  14.285  0.1492  0.2980  0.4840
17864TIP3    H175083   0.906   2.114  14.351 -0.5394  0.0148  0.4148
17864TIP3    H275084   0.887   1.973  14.298  1.6701 -0.5845  1.1604
17865TIP3   OH275085   3.955   3.296  14.791 -0.0195 -0.1927 -0.0065
17865TIP3    H175086   4.041   3.253  14.793  0.6623  1.0145 -1.8624
17865TIP3    H275087   3.930   3.295  14.699 -1.3580  0.7444  0.3344
17866TIP3   OH275088   6.607   1.527   0.023 -0.2648 -0.2640  0.1538
17866TIP3    H175089   6.647   1.614   0.015 -0.7897  0.0800  1.2296
17866TIP3    H275090   6.662   1.481   0.086  0.6631 -1.1113 -1.2332
17867TIP3   OH275091   6.483   0.182   1.018  0.7349 -0.2096 -0.3874
17867TIP3    H175092   6.453   0.271   1.000 -1.1054 -0.5950  0.6551
17867TIP3    H275093   6.472   0.136   0.934  0.9818  0.3427 -0.7254
17868TIP3   OH275094   4.313   0.721  12.115 -1.2587  0.1294 -0.6289
17868TIP3    H175095   4.356   0.805  12.099 -0.5537 -0.2831 -0.9149
17868TIP3    H275096   4.222   0.744  12.135 -0.9431  0.9924 -0.1847
17869TIP3   OH275097   0.080   0.637   1.224  0.7711  0.2888  0.0306
17869TIP3    H175098   0.159   0.655   1.274  1.9701 -1.2618 -1.2861
17869TIP3    H275099   0.098   0.673   1.137  0.3362 -0.7591 -0.4992
17870TIP3   OH275100   3.373   2.870   1.150  0.5633  0.4237 -0.4600
17870TIP3    H175101   3.297   2.826   1.111  0.2199 -1.1417  1.8751
17870TIP3    H275102   3.335   2.936   1.207  1.0200  1.0377 -0.8589
17871TIP3   OH275103   6.650   2.724  15.176 -0.1467  0.2979  0.4378
17871TIP3    H175104   6.652   2.686  15.088  1.9400  0.2569  0.4731
17871TIP3    H275105   6.588   2.669  15.224 -1.0392  0.1079 -0.9092
17872TIP3   OH275106   0.227   5.006  15.963 -0.5994  0.3505 -0.3002
17872TIP3    H175107   0.269   5.050  16.037 -1.8330 -0.0572  0.6607
17872TIP3    H275108   0.264   5.048  15.886  1.5558  0.0073  0.5135
17873TIP3   OH275109   4.047   4.732  13.612  0.2358 -0.1367  0.0651
17873TIP3    H175110   4.026   4.824  13.628  0.8579  0.2281 -1.1168
17873TIP3    H275111   3.973   4.698  13.562 -0.4991 -0.5795  1.4332
17874TIP3   OH275112   6.592   6.406   3.094 -0.0203  0.0303 -0.1836
17874TIP3    H175113   6.669   6.444   3.051  0.0600 -0.4954 -0.5091
17874TIP3    H275114   6.618   6.399   3.186 -0.1656  1.0808 -0.0511
17875TIP3   OH275115   3.563   5.727   4.949  0.0218  0.6584 -0.1983
17875TIP3    H175116   3.499   5.695   4.886 -1.2529  1.7973  0.5038
17875TIP3    H275117   3.644   5.682   4.925 -0.9670 -0.6282 -1.2342
17876TIP3   OH275118   2.651   6.031   1.271  0.3139  0.3644  0.1791
17876TIP3    H175119   2.650   5.951   1.218  1.1570 -0.3637  1.2296
17876TIP3    H275120   2.700   6.094   1.219 -0.3770  0.2016 -0.6683
17877TIP3   OH275121   2.133   4.652   4.407 -0.1000 -0.3071 -0.2404
17877TIP3    H175122   2.144   4.746   4.422 -1.4316  0.0552 -1.4661
17877TIP3    H275123   2.161   4.639   4.316  1.4652 -1.3556  0.3670
17878TIP3   OH275124   6.045   4.785   1.761  0.5658  0.0589  0.2552
17878TIP3    H175125   5.963   4.737   1.751  0.7947 -0.2410 -0.2033
17878TIP3    H275126   6.020   4.868   1.804  0.1181 -0.2950  0.6848
17879TIP3   OH275127   5.330   1.396  12.598 -0.5021  0.4431 -0.4822
17879TIP3    H175128   5.414   1.382  12.554 -0.8867 -0.4175 -0.9495
17879TIP3    H275129   5.266   1.401  12.526 -0.7287  2.0772 -0.1915
17880TIP3   OH275130   6.107   1.460   4.465  0.1473  0.1902  0.1381
17880TIP3    H175131   6.066   1.375   4.481 -1.6515  0.4909 -2.5848
17880TIP3    H275132   6.167   1.444   4.392  0.3573  1.0679  0.1176
17881TIP3   OH275133   3.152   6.062  11.699 -0.1732  0.2461 -0.1643
17881TIP3    H175134   3.183   6.152  11.709  0.1314 -0.0407  1.7824
17881TIP3    H275135   3.171   6.021  11.784 -0.2692 -1.6628 -1.0378
17882TIP3   OH275136   1.544   4.394   5.804 -0.2365  0.0472 -0.4348
17882TIP3    H175137   1.552   4.474   5.856  0.3798 -0.6630  0.5773
17882TIP3    H275138   1.474   4.413   5.741 -1.0465  0.8963  0.7033
17883TIP3   OH275139   4.208   0.676  12.571  0.3153  0.8432 -0.7258
17883TIP3    H175140   4.288   0.660  12.521  0.5514 -0.5621  0.0504
17883TIP3    H275141   4.239   0.709  12.655 -0.0017  1.6298 -0.9137
17884TIP3   OH275142   0.785   4.105   3.893 -0.5191 -0.6728 -0.4938
17884TIP3    H175143   0.793   4.051   3.815 -0.1072  0.3060 -1.1309
17884TIP3    H275144   0.869   4.095   3.938 -0.9265 -1.6090  0.0770
17885TIP3   OH275145   2.440   0.887  15.903 -0.6633  0.1344 -0.2991
17885TIP3    H175146   2.479   0.900  15.817  2.0265 -0.9008  0.7383
17885TIP3    H275147   2.408   0.974  15.928  0.4642  0.8861 -1.4174
17886TIP3   OH275148   2.752   4.351  11.095  0.5689  0.4104 -0.3211
17886TIP3    H175149   2.666   4.311  11.088  1.2077 -0.8933 -0.8754
17886TIP3    H275150   2.784   4.355  11.004  1.3135  0.3659 -0.0639
17887TIP3   OH275151   3.114   6.693   2.370 -0.3916  0.1722  0.4871
17887TIP3    H175152   3.193   6.675   2.320 -0.4877  0.4719  0.2214
17887TIP3    H275153   3.066   6.757   2.316 -0.0020  1.2971  1.4584
17888TIP3   OH275154   6.406   6.351  13.228  0.7759  0.5733  0.3585
17888TIP3    H175155   6.387   6.264  13.261  0.2312  0.2942 -0.6458
17888TIP3    H275156   6.330   6.373  13.174  1.1614  1.4313  0.1570
17889TIP3   OH275157   6.115   0.000  14.353 -0.3596  0.2017  0.0786
17889TIP3    H175158   6.098   0.003  14.259 -0.0364 -0.2702  0.0067
17889TIP3    H275159   6.035   0.035  14.392 -1.5087 -1.9604 -0.2687
17890TIP3   OH275160   1.648   5.088   3.315  0.5099 -0.4761 -0.1807
17890TIP3    H175161   1.664   5.182   3.306  0.0591 -0.2632  1.1941
17890TIP3    H275162   1.733   5.052   3.343  0.1304 -0.1510  1.4588
17891TIP3   OH275163   2.876   4.068   2.463 -0.1892 -0.2167  0.0720
17891TIP3    H175164   2.839   4.094   2.547 -0.6342 -3.1313  0.8174
17891TIP3    H275165   2.863   3.974   2.458 -0.1741 -0.1289 -3.2879
17892TIP3   OH275166   3.333   1.520  12.383 -0.3116 -0.0017  0.2463
17892TIP3    H175167   3.240   1.516  12.403  0.1342  0.4105  2.4965
17892TIP3    H275168   3.358   1.429  12.367 -1.0731 -0.1228 -0.2966
17893TIP3   OH275169   4.094   0.858  13.447  0.0407 -0.0032 -0.5345
17893TIP3    H175170   4.044   0.927  13.489 -1.2851 -0.6940 -0.9484
17893TIP3    H275171   4.171   0.845  13.503  0.3065  1.7984 -0.4717
17894TIP3   OH275172   0.026   0.443   2.393  0.1245 -0.1570 -0.1853
17894TIP3    H175173   0.102   0.499   2.406 -0.3909  0.1549  1.6336
17894TIP3    H275174   0.063   0.358   2.368  1.0199  0.2882 -0.3938
17895TIP3   OH275175   4.654   5.382   2.761 -0.5718  0.6363 -0.0551
17895TIP3    H175176   4.584   5.421   2.711 -0.1726 -0.4570 -1.4982
17895TIP3    H275177   4.621   5.379   2.851 -1.0638  3.1213 -0.1232
17896TIP3   OH275178   3.353   4.282   3.366 -0.2311  0.1667  0.1788
17896TIP3    H175179   3.435   4.329   3.351  0.2829 -0.2421  1.6104
17896TIP3    H275180   3.288   4.329   3.314  0.1575  2.7647  1.9136
17897TIP3   OH275181   2.145   2.369  12.459  0.3585 -0.1766 -0.1357
17897TIP3    H175182   2.196   2.356  12.380 -0.3227  0.5261 -0.7049
17897TIP3    H275183   2.185   2.446  12.501 -0.7223  0.8967 -1.0147
17898TIP3   OH275184   4.327   3.539  14.289 -0.1425  0.4738 -0.4172
17898TIP3    H175185   4.286   3.624  14.273 -2.3883 -0.7385 -1.3278
17898TIP3    H275186   4.347   3.505  14.202  0.3992 -0.1061 -0.0724
17899TIP3   OH275187   1.827   5.129   4.513  0.3484  0.6042 -0.1926
17899TIP3    H175188   1.847   5.110   4.421  1.6064  1.8354 -0.2015
17899TIP3    H275189   1.896   5.191   4.539  0.1398  0.0694  1.6439
17900TIP3   OH275190   6.780   2.792  11.894 -0.0664  0.4531 -0.4067
17900TIP3    H175191   6.857   2.816  11.841  1.3213  0.0459  1.4001
17900TIP3    H275192   6.773   2.697  11.884  1.0093  0.1901  1.1892
17901TIP3   OH275193   1.145   2.796   2.942  0.4742  0.4847 -0.6568
17901TIP3    H175194   1.121   2.775   2.852 -0.6794 -1.1295  0.0189
17901TIP3    H275195   1.112   2.723   2.994 -4.1417  4.1063  1.8375
17902TIP3   OH275196   1.187   3.279  13.098  0.0799  0.3496 -0.1428
17902TIP3    H175197   1.195   3.191  13.062 -0.1993  0.0174  0.5839
17902TIP3    H275198   1.266   3.289  13.152 -1.4220 -0.6970  2.3479
17903TIP3   OH275199   3.815   3.855  14.102 -0.1858  0.2404 -0.0349
17903TIP3    H175200   3.796   3.873  14.010  2.6223 -0.3815 -0.7891
17903TIP3    H275201   3.821   3.759  14.107  0.1491  0.2980  0.7038
17904TIP3   OH275202   4.500   2.117   1.468 -0.0373  0.1197 -0.0827
17904TIP3    H175203   4.531   2.115   1.378  5.2851  2.4737  1.4944
17904TIP3    H275204   4.484   2.210   1.487 -0.6963 -0.2973  1.5307
17905TIP3   OH275205   3.661   0.808   5.042  0.0244  0.2510 -0.5447
17905TIP3    H175206   3.736   0.781   5.094 -0.6466  1.9841  1.3849
17905TIP3    H275207   3.585   0.788   5.096 -0.6587  2.4618 -0.6272
17906TIP3   OH275208   1.954   2.325  16.637  0.0026 -0.1553 -0.0093
17906TIP3    H175209   1.936   2.385  16.564 -1.3604 -1.5752 -0.8596
17906TIP3    H275210   2.032   2.362  16.679  0.6114  0.8698 -1.9700
17907TIP3   OH275211   4.646   3.333   5.081 -0.2395  0.1281 -0.0701
17907TIP3    H175212   4.596   3.252   5.075  0.1373 -0.1170  0.0861
17907TIP3    H275213   4.580   3.402   5.082 -0.6439 -0.2631  1.4261
17908TIP3   OH275214   5.344   1.312  12.090  0.4656  0.2763 -0.6799
17908TIP3    H175215   5.344   1.344  12.000  0.1994 -1.3774 -1.2851
17908TIP3    H275216   5.368   1.220  12.082  0.3039  0.0890  0.9312
17909TIP3   OH275217   5.188   5.430   0.219 -0.1051 -0.2342  0.3103
17909TIP3    H175218   5.275   5.397   0.196 -0.6802 -0.1608 -2.1432
17909TIP3    H275219   5.189   5.522   0.191 -0.2652  0.4086  2.2929
17910TIP3   OH275220   3.896   5.049  16.312 -0.1692 -0.1532 -0.2578
17910TIP3    H175221   3.818   5.029  16.364 -0.9139  1.5203 -0.6918
17910TIP3    H275222   3.877   5.134  16.272  0.6414 -1.0961 -2.7673
17911TIP3   OH275223   5.091   0.402  16.268 -0.3558  0.1451  0.5209
17911TIP3    H175224   5.152   0.444  16.207  0.6997  0.9799  2.1271
17911TIP3    H275225   5.130   0.316  16.285 -1.0943 -0.4255 -0.6340
17912TIP3   OH275226   2.637   0.377  14.937 -0.3516  0.2024 -0.2181
17912TIP3    H175227   2.704   0.351  14.874  0.7893 -0.3829  1.1945
17912TIP3    H275228   2.672   0.455  14.980 -0.7072  0.0811  0.3092
17913TIP3   OH275229   1.404   6.504  15.990  0.2274 -0.2818 -0.4404
17913TIP3    H175230   1.437   6.420  15.957  2.3655  0.5224 -0.4072
17913TIP3    H275231   1.404   6.494  16.085  1.7580  0.1999 -0.3765
17914TIP3   OH275232   0.493   1.374  13.631  0.0204  0.1781 -0.0710
17914TIP3    H175233   0.502   1.432  13.556 -0.0653  0.2786 -0.0047
17914TIP3    H275234   0.398   1.365  13.643  0.0335 -0.1383 -0.2048
17915TIP3   OH275235   1.277   6.311   1.360  0.4467 -0.1555 -0.1508
17915TIP3    H175236   1.317   6.226   1.381 -0.0844 -0.8378 -1.8601
17915TIP3    H275237   1.225   6.333   1.438 -0.4045 -1.9949 -0.1758
17916TIP3   OH275238   6.539   1.088   0.106  0.1540 -0.4195  0.5667
17916TIP3    H175239   6.581   1.049   0.029 -0.7732  0.7369 -0.5475
17916TIP3    H275240   6.445   1.082   0.088 -0.0338  1.0645  0.9853
17917TIP3   OH275241   1.370   5.368  13.153 -0.1890  0.3550  0.1184
17917TIP3    H175242   1.368   5.456  13.192  2.0435  0.9952 -1.1044
17917TIP3    H275243   1.373   5.384  13.059  1.0334 -1.0169 -0.0947
17918TIP3   OH275244   2.503   5.205   3.069 -0.5529  0.1245 -0.5875
17918TIP3    H175245   2.417   5.242   3.090 -0.1121  0.5294  0.5308
17918TIP3    H275246   2.517   5.137   3.134  0.6481  1.1062  0.1930
17919TIP3   OH275247   4.325   6.001  15.338  0.3579 -0.7205 -0.9173
17919TIP3    H175248   4.234   5.976  15.354  0.4875 -0.4368  0.3027
17919TIP3    H275249   4.374   5.919  15.342  0.6153 -0.4777  1.8767
17920TIP3   OH275250   4.693   5.922  16.026 -0.2867  0.6833  0.0313
17920TIP3    H175251   4.698   5.931  15.931  2.4360 -0.0278  0.0555
17920TIP3    H275252   4.601   5.939  16.048 -0.8772  1.1227 -2.6808
17921TIP3   OH275253   4.155   0.953  13.195 -0.0385  0.1135 -0.0266
17921TIP3    H175254   4.081   0.913  13.149  0.7775 -0.8335 -0.5507
17921TIP3    H275255   4.153   0.913  13.282  0.3320 -0.5433 -0.3098
17922TIP3   OH275256   5.740   5.704  13.701  0.3154  0.2521  0.3112
17922TIP3    H175257   5.661   5.699  13.647  0.2818 -0.7728  0.4514
17922TIP3    H275258   5.758   5.798  13.708 -0.9043  0.4902  0.3133
17923TIP3   OH275259   4.986   4.905  15.492  0.8874  0.1367 -0.0246
17923TIP3    H175260   4.894   4.879  15.491  0.5173  1.4184 -0.4464
17923TIP3    H275261   5.034   4.824  15.476 -0.0293 -1.0576  2.9310
17924TIP3   OH275262   1.937   0.334   3.057 -0.9578 -0.5926 -0.3987
17924TIP3    H175263   1.888   0.255   3.080  0.8407 -1.4585  0.6110
17924TIP3    H275264   2.025   0.318   3.091  0.1121  0.7909 -2.4233
17925TIP3   OH275265   2.359   4.592   0.659  0.3174 -0.1701 -0.4963
17925TIP3    H175266   2.366   4.687   0.659  1.0982 -0.2255 -0.0335
17925TIP3    H275267   2.449   4.561   0.651  0.2750 -0.8707  1.3618
17926TIP3   OH275268   1.679   0.279  11.705 -0.7090 -0.4769 -0.4342
17926TIP3    H175269   1.611   0.342  11.726  1.7646  1.8429  0.8353
17926TIP3    H275270   1.721   0.259  11.789 -0.9402 -3.2389 -0.9262
17927TIP3   OH275271   2.729   0.614  14.537  0.4618 -0.5085  0.2559
17927TIP3    H175272   2.703   0.700  14.568  2.7078  0.1291  0.4068
17927TIP3    H275273   2.677   0.601  14.457 -0.9607  0.3393  1.0332
17928TIP3   OH275274   5.972   3.574  11.560  0.0461 -0.5402 -0.0407
17928TIP3    H175275   5.942   3.511  11.626  0.3294 -0.0781  0.5323
17928TIP3    H275276   6.037   3.628  11.606 -2.4127  2.1623  0.3614
17929TIP3   OH275277   4.513   3.495   0.755 -0.6836 -0.0394  0.1738
17929TIP3    H175278   4.478   3.409   0.730 -2.3472  0.5738  0.3024
17929TIP3    H275279   4.536   3.536   0.672  1.2988 -1.0791  0.1880
17930TIP3   OH275280   4.019   6.211  11.363 -0.2041  0.9328  0.3299
17930TIP3    H175281   3.962   6.198  11.438  0.2229 -2.5821  0.1652
17930TIP3    H275282   4.105   6.230  11.401  0.3371 -2.2462  0.8725
17931TIP3   OH275283   6.473   3.043   0.859  0.2431 -0.2165  0.2583
17931TIP3    H175284   6.391   3.005   0.827  0.4296 -0.8616  0.5254
17931TIP3    H275285   6.515   2.971   0.906  0.6143  0.3243  0.7606
17932TIP3   OH275286   5.253   1.918  17.048 -0.5827 -0.6507  0.3463
17932TIP3    H175287   5.221   1.909  16.959  0.9155  0.2084 -0.2858
17932TIP3    H275288   5.176   1.943  17.099 -1.3884 -0.8947 -0.7457
17933TIP3   OH275289   3.949   1.471  13.073 -0.8512 -0.2403  0.5835
17933TIP3    H175290   3.945   1.503  13.163 -2.7607 -0.2668  0.5192
17933TIP3    H275291   4.035   1.428  13.067  0.0900  1.4200  1.8153
17934TIP3   OH275292   5.265   3.401   4.396  0.0037  0.1878 -0.2152
17934TIP3    H175293   5.271   3.312   4.431 -0.6040 -0.0982 -0.8342
17934TIP3    H275294   5.268   3.457   4.474  0.2818 -0.3708  0.1865
17935TIP3   OH275295   5.193   0.136   2.654 -0.0618 -0.3449 -0.6741
17935TIP3    H175296   5.152   0.197   2.593 -1.6622 -1.3143 -0.5817
17935TIP3    H275297   5.216   0.190   2.729 -1.2540  0.1926 -0.6849
17936TIP3   OH275298   5.941   5.911  13.255 -0.0428  0.0204  0.5050
17936TIP3    H175299   5.846   5.904  13.265 -0.0589  2.2234  2.1453
17936TIP3    H275300   5.976   5.836  13.304 -0.8926 -0.4269  0.4392
17937TIP3   OH275301   2.884   0.453   3.952  0.6231 -0.2770  0.2316
17937TIP3    H175302   2.821   0.525   3.964  2.0078  1.0442 -0.2147
17937TIP3    H275303   2.833   0.383   3.911 -0.9200  0.1758  1.3145
17938TIP3   OH275304   5.444   6.287  11.454 -0.0448 -0.3029 -0.5560
17938TIP3    H175305   5.480   6.363  11.499  0.0943 -1.2398  0.9623
17938TIP3    H275306   5.351   6.288  11.476 -0.0395 -0.5828 -0.5200
17939TIP3   OH275307   1.659   4.149   6.366 -0.0509 -0.2170  0.1672
17939TIP3    H175308   1.664   4.219   6.300 -0.8161  3.0133  3.3847
17939TIP3    H275309   1.576   4.106   6.348  0.5470 -0.5445 -2.0377
17940TIP3   OH275310   1.897   4.443  14.973 -0.5486 -0.1988 -0.1946
17940TIP3    H175311   1.816   4.485  14.945  0.9886  0.9135 -3.3861
17940TIP3    H275312   1.934   4.502  15.038 -1.3818  0.2856 -0.1601
17941TIP3   OH275313   2.304   1.800   2.277 -0.2056 -0.9446 -0.0715
17941TIP3    H175314   2.268   1.757   2.354  0.4822 -0.2839  0.6305
17941TIP3    H275315   2.247   1.875   2.262 -0.3975 -1.1294 -0.2652
17942TIP3   OH275316   2.256   0.833   5.801  0.1139 -0.5234 -0.4030
17942TIP3    H175317   2.167   0.856   5.825  0.5781  1.0449 -0.1383
17942TIP3    H275318   2.309   0.909   5.826  1.6749 -1.8328  0.4051
17943TIP3   OH275319   5.330   4.502  14.866  0.0559  0.2950 -0.0899
17943TIP3    H175320   5.245   4.458  14.860 -0.7396  1.8762 -0.6934
17943TIP3    H275321   5.351   4.526  14.776  0.1527  1.7101  0.2957
17944TIP3   OH275322   3.148   0.745   2.379 -0.8211 -0.1264  0.0160
17944TIP3    H175323   3.099   0.699   2.310 -1.6296 -0.8137  1.0409
17944TIP3    H275324   3.128   0.696   2.459  2.1408 -0.8969  0.3403
17945TIP3   OH275325   1.527   3.705  13.677  0.3995  0.0034 -0.1352
17945TIP3    H175326   1.574   3.739  13.601  2.4243 -2.2494  0.0452
17945TIP3    H275327   1.596   3.687  13.742 -0.9034 -1.5390  0.8700
17946TIP3   OH275328   1.248   0.136  10.649 -0.2808  0.2833  0.0594
17946TIP3    H175329   1.280   0.224  10.632  1.2197  0.1136  1.8804
17946TIP3    H275330   1.180   0.148  10.716  0.1301  0.0433  0.5252
17947TIP3   OH275331   4.863   5.392  12.396  0.0837  0.1187  0.5642
17947TIP3    H175332   4.791   5.380  12.334  0.3577  0.0136  0.2670
17947TIP3    H275333   4.835   5.346  12.475 -0.8722  1.3850  1.0010
17948TIP3   OH275334   5.848   0.445  14.206 -0.0987 -0.5192  0.0608
17948TIP3    H175335   5.786   0.496  14.154 -2.3833 -3.2441 -0.0507
17948TIP3    H275336   5.802   0.362  14.222  3.9651 -3.0877 -0.9752
17949TIP3   OH275337   2.573   4.171   3.191 -0.2424 -0.3025  0.2679
17949TIP3    H175338   2.641   4.120   3.235 -1.2104 -0.1835  1.9726
17949TIP3    H275339   2.556   4.124   3.110  0.2694 -1.6210  0.9076
17950TIP3   OH275340   3.545   0.877  13.172 -0.0879 -0.3878 -0.0248
17950TIP3    H175341   3.607   0.844  13.107  0.5505 -1.4910  1.1404
17950TIP3    H275342   3.591   0.870  13.255 -2.1338 -2.1559  0.9777
17951TIP3   OH275343   1.945   2.231   6.587  0.4144 -0.0707  0.4223
17951TIP3    H175344   1.862   2.207   6.627  0.5441  0.8956  1.2926
17951TIP3    H275345   1.951   2.326   6.599  1.4873 -0.0876  0.0865
17952TIP3   OH275346   0.648   4.772   6.600  0.2054  0.4503 -0.5295
17952TIP3    H175347   0.736   4.742   6.576 -0.5456 -1.1767 -1.3203
17952TIP3    H275348   0.615   4.815   6.521 -0.0663  0.2402 -0.5290
17953TIP3   OH275349   0.197   5.018  15.202 -0.1778 -0.4107  0.3545
17953TIP3    H175350   0.186   4.941  15.147  1.4937  0.4030 -1.1692
17953TIP3    H275351   0.247   4.987  15.277 -1.6830 -1.3333  0.9967
17954TIP3   OH275352   5.379   4.293   3.244  0.9118  0.1174 -0.1239
17954TIP3    H175353   5.357   4.206   3.210 -0.0778  0.8744 -1.4847
17954TIP3    H275354   5.347   4.293   3.334  0.9496 -0.9336 -0.1026
17955TIP3   OH275355   2.452   5.302  10.583 -0.3931  0.5115  0.6226
17955TIP3    H175356   2.399   5.249  10.641 -2.0648  1.6632  0.1793
17955TIP3    H275357   2.540   5.301  10.622 -0.8671 -0.9174  1.6741
17956TIP3   OH275358   0.913   3.077   3.597  0.0502 -0.4798  0.3536
17956TIP3    H175359   0.846   3.010   3.601 -1.4696  1.0514  1.5830
17956TIP3    H275360   0.981   3.047   3.658 -1.8763  0.3672  3.0225
17957TIP3   OH275361   0.897   5.725   5.798 -0.1477 -0.5223 -0.4725
17957TIP3    H175362   0.919   5.734   5.891  0.0787 -1.4076 -0.4344
17957TIP3    H275363   0.961   5.779   5.752 -0.3033 -0.0224 -0.1129
17958TIP3   OH275364   0.129   4.440  16.354  0.0987 -0.1822 -0.4847
17958TIP3    H175365   0.051   4.440  16.409  0.8751  2.8400  0.7024
17958TIP3    H275366   0.096   4.418  16.267 -1.7659 -0.9262  0.3799
17959TIP3   OH275367   2.269   5.467  14.794 -0.6493  0.2416 -0.5806
17959TIP3    H175368   2.237   5.490  14.707  1.5349  2.1628 -0.9331
17959TIP3    H275369   2.239   5.540  14.850 -0.8862 -0.3078  0.0171
17960TIP3   OH275370   2.645   6.780   0.315 -0.5686  0.2373  0.8756
17960TIP3    H175371   2.686   6.799   0.230 -1.5600  0.6232  0.4789
17960TIP3    H275372   2.684   6.696   0.342 -0.6686 -0.1799 -0.2331
17961TIP3   OH275373   0.624   5.045  14.185 -0.0601 -0.4302 -0.0269
17961TIP3    H175374   0.619   5.045  14.090 -2.0041 -0.5953  0.0578
17961TIP3    H275375   0.666   4.962  14.207 -1.5685 -1.3825 -0.6643
17962TIP3   OH275376   5.115   5.760  10.354  0.2627 -0.0259 -0.5573
17962TIP3    H175377   5.092   5.672  10.326  2.0682  0.0119 -2.2655
17962TIP3    H275378   5.167   5.748  10.433  0.4140 -0.5021 -0.7270
17963TIP3   OH275379   6.180   1.823  16.580 -0.6784 -0.3423 -0.2492
17963TIP3    H175380   6.112   1.756  16.574  0.0808 -1.2773  1.3973
17963TIP3    H275381   6.227   1.803  16.661  0.8449  0.9688 -0.7780
17964TIP3   OH275382   5.455   2.703   6.264  0.2684 -0.0124  0.1522
17964TIP3    H175383   5.419   2.722   6.350  1.8642 -1.7973  1.2462
17964TIP3    H275384   5.545   2.736   6.267  0.3596 -0.1435 -0.8234
17965TIP3   OH275385   4.474   1.306   5.630  0.1304  0.3611  0.6170
17965TIP3    H175386   4.506   1.217   5.619 -0.4357  0.2318 -0.0297
17965TIP3    H275387   4.385   1.296   5.664  1.0156  0.7293  3.1092
17966TIP3   OH275388   1.146   5.044   4.441 -0.1519  0.0808  0.2645
17966TIP3    H175389   1.108   4.989   4.373 -0.2923  1.0320 -0.4445
17966TIP3    H275390   1.208   5.100   4.394 -1.0720  1.5218  0.7359
17967TIP3   OH275391   4.685   6.704  12.265 -0.2681 -0.5089 -0.0411
17967TIP3    H175392   4.651   6.629  12.314  1.4850 -0.5543  1.1310
17967TIP3    H275393   4.694   6.773  12.330 -1.4503  0.6236 -1.0309
17968TIP3   OH275394   6.390   2.136   2.209  0.0514  0.2710 -0.5532
17968TIP3    H175395   6.392   2.227   2.178 -1.7898  0.6812  0.4801
17968TIP3    H275396   6.318   2.096   2.160 -1.2633  0.2665  1.3431
17969TIP3   OH275397   0.986   4.490   4.197  0.2460  0.1805 -0.3116
17969TIP3    H175398   0.946   4.577   4.190  2.0380  0.9577 -1.0758
17969TIP3    H275399   0.986   4.457   4.107  0.2178 -0.3241 -0.1259
17970TIP3   OH275400   5.084   6.412   1.639 -0.3563  0.2524 -0.1996
17970TIP3    H175401   5.008   6.377   1.592  0.3813 -0.8550 -0.5804
17970TIP3    H275402   5.109   6.341   1.699 -0.0110  0.8598  0.3782
17971TIP3   OH275403   2.670   1.304   5.393  0.0972  0.0876 -0.2267
17971TIP3    H175404   2.746   1.293   5.336  0.7531  0.8825  0.4822
17971TIP3    H275405   2.631   1.387   5.366  0.6950  0.7120  0.7987
17972TIP3   OH275406   6.669   6.284   2.742 -0.2633  0.0461  0.2475
17972TIP3    H175407   6.650   6.377   2.755  1.4518  0.4769 -0.2056
17972TIP3    H275408   6.763   6.277   2.752 -0.4043 -1.7081  0.5563
17973TIP3   OH275409   0.091   0.954   2.383  0.2709  0.3202 -0.9554
17973TIP3    H175410   0.064   0.877   2.333  4.1695 -1.2930 -0.7879
17973TIP3    H275411   0.142   1.006   2.321  0.7713  0.8866 -0.0782
17974TIP3   OH275412   0.541   4.420   0.383  0.4672 -0.9951  0.5121
17974TIP3    H175413   0.600   4.404   0.309  0.5109 -1.8251  0.7203
17974TIP3    H275414   0.454   4.420   0.345  0.6640  1.7797 -0.0539
17975TIP3   OH275415   0.003   2.423  10.931 -0.2835 -0.2116 -0.1339
17975TIP3    H175416  -0.017   2.331  10.909 -0.2361 -1.1317  3.3424
17975TIP3    H275417   0.099   2.428  10.928 -0.3071 -0.0586 -0.9655
17976TIP3   OH275418   5.485   6.756  11.986  0.1248 -0.9024 -0.1844
17976TIP3    H175419   5.495   6.750  12.081 -0.3543 -0.6934 -0.1184
17976TIP3    H275420   5.542   6.829  11.960 -1.8351  0.8482  0.2938
17977TIP3   OH275421   1.454   1.135  12.674 -0.4188  0.2616  0.1801
17977TIP3    H175422   1.407   1.202  12.723 -3.3893 -2.0524  0.5748
17977TIP3    H275423   1.451   1.057  12.729  0.7219 -0.9560 -1.4188
17978TIP3   OH275424   0.757   1.507   2.716 -0.0460  0.1631 -0.0862
17978TIP3    H175425   0.707   1.564   2.658  1.4928  0.5122 -1.0966
17978TIP3    H275426   0.711   1.423   2.712 -0.8623  0.6259 -0.5703
17979TIP3   OH275427   2.585   5.269   0.441  0.0949 -0.1029 -0.0934
17979TIP3    H175428   2.654   5.225   0.490  1.2367  0.6056 -1.0243
17979TIP3    H275429   2.620   5.276   0.352 -0.0555  2.6101  0.0110
17980TIP3   OH275430   6.467   4.879   5.324 -0.0498  0.1570  0.0343
17980TIP3    H175431   6.430   4.964   5.301  1.4919  0.5888 -0.9288
17980TIP3    H275432   6.441   4.865   5.415 -0.2449  1.7091  0.2305
17981TIP3   OH275433   0.172   4.673  14.363  0.3312 -0.2769  0.2964
17981TIP3    H175434   0.171   4.692  14.270  1.1606  1.8863  0.7119
17981TIP3    H275435   0.080   4.676  14.390  0.2017  0.3402 -0.2116
17982TIP3   OH275436   6.781   1.385  16.127 -0.5582  0.0604 -0.3442
17982TIP3    H175437   6.813   1.425  16.208  0.2968 -0.9675 -0.1626
17982TIP3    H275438   6.685   1.390  16.134 -0.4901  0.0714  0.6850
17983TIP3   OH275439   6.492   6.801  15.116  0.5515  0.5932 -0.4991
17983TIP3    H175440   6.480   6.841  15.029 -3.3823  0.3114 -0.2111
17983TIP3    H275441   6.466   6.710  15.103  4.8051 -0.7767 -0.0624
17984TIP3   OH275442   5.198   4.779   2.880  0.6956 -0.4844  0.2936
17984TIP3    H175443   5.274   4.832   2.856 -1.6186  2.3438 -1.1900
17984TIP3    H275444   5.224   4.689   2.861  3.4116  0.4842 -0.8197
17985TIP3   OH275445   2.823   4.173   1.348  0.0347  0.0608  0.1100
17985TIP3    H175446   2.814   4.180   1.253  1.9730 -2.1240 -0.2874
17985TIP3    H275447   2.893   4.235   1.370 -1.8173  2.0827  0.4247
17986TIP3   OH275448   0.417   1.646  11.759 -0.6115 -0.3671  0.0751
17986TIP3    H175449   0.485   1.618  11.697 -2.0378 -1.1866 -1.1644
17986TIP3    H275450   0.363   1.706  11.708 -1.9626 -1.2591  0.4337
17987TIP3   OH275451   5.833   5.184   1.876 -0.0693  0.1557  0.2208
17987TIP3    H175452   5.868   5.254   1.822  0.3103 -0.2012  0.0049
17987TIP3    H275453   5.828   5.222   1.964 -1.5157  1.0273 -0.2071
17988TIP3   OH275454   6.343   5.934  16.324 -0.2467  0.4207  0.1588
17988TIP3    H175455   6.305   5.921  16.237 -1.1696  1.2108  0.4463
17988TIP3    H275456   6.438   5.930  16.309 -0.2748  3.8482 -1.4541
17989TIP3   OH275457   5.091   2.458  17.046 -0.1755  0.1938  0.5266
17989TIP3    H175458   5.076   2.485  16.955  0.9205  1.3955  0.7000
17989TIP3    H275459   5.083   2.362  17.043  1.7730  0.0403 -1.2144
17990TIP3   OH275460   4.518   5.424   2.989 -0.2275  0.3403  0.1282
17990TIP3    H175461   4.424   5.416   2.975 -0.0917  0.8112 -1.1742
17990TIP3    H275462   4.526   5.451   3.080 -1.4730  2.1740 -0.2585
17991TIP3   OH275463   6.790   0.849   1.336 -0.0954 -0.3399 -0.3062
17991TIP3    H175464   6.803   0.763   1.297  0.7686  0.3567 -1.6173
17991TIP3    H275465   6.784   0.833   1.430  0.5831 -1.7710 -0.5019
17992TIP3   OH275466   1.817   2.079   0.753 -0.2799  1.0237  0.1157
17992TIP3    H175467   1.721   2.070   0.748 -0.1330  0.4456 -2.8210
17992TIP3    H275468   1.838   2.146   0.688  1.5056 -0.7099 -1.1451
17993TIP3   OH275469   1.670   4.304   5.563 -0.3379 -0.0302  0.6088
17993TIP3    H175470   1.631   4.338   5.644 -0.2427  1.5909 -0.0148
17993TIP3    H275471   1.603   4.318   5.496  0.0989 -0.1375  0.1493
17994TIP3   OH275472   3.167   1.111   4.827  0.0413  0.1904 -0.4853
17994TIP3    H175473   3.098   1.176   4.813  0.4327  0.5469 -0.7914
17994TIP3    H275474   3.158   1.085   4.918 -2.0086 -1.5161 -1.1293
17995TIP3   OH275475   4.299   1.958  13.991 -0.7594 -0.8302 -0.7334
17995TIP3    H175476   4.319   1.988  14.080  1.3457 -1.5714 -0.9197
17995TIP3    H275477   4.220   2.007  13.966 -0.3620  0.6924  0.8811
17996TIP3   OH275478   3.274   5.649   5.245 -0.0931 -0.6142 -0.4258
17996TIP3    H175479   3.278   5.602   5.162  0.1980 -1.2539 -0.0541
17996TIP3    H275480   3.234   5.588   5.306  0.4562 -0.4584  0.1085
17997TIP3   OH275481   0.445   0.684   0.187 -0.1968  0.1147 -0.0176
17997TIP3    H175482   0.496   0.616   0.142  1.2408  1.0335  0.2141
17997TIP3    H275483   0.433   0.752   0.121  1.2021  1.0953  0.7091
17998TIP3   OH275484   0.801   4.530   1.063  0.0541  0.5352 -0.3680
17998TIP3    H175485   0.745   4.587   1.011  0.3524 -0.4490 -1.7878
17998TIP3    H275486   0.890   4.552   1.035  0.2699  0.6335  0.3830
17999TIP3   OH275487   3.533   1.941   2.355 -0.3227  0.4906  0.2945
17999TIP3    H175488   3.526   1.891   2.274 -1.8313 -1.2541  1.4670
17999TIP3    H275489   3.502   2.029   2.331 -0.1472  0.1752 -1.1616
18000TIP3   OH275490   4.451   3.898   1.362  0.0607 -0.2232  0.1118
18000TIP3    H175491   4.404   3.815   1.355 -1.9544  0.9589 -0.6807
18000TIP3    H275492   4.444   3.922   1.454  0.1315 -0.6251  0.2244
18001TIP3   OH275493   5.248   5.910  14.477 -0.2033  0.0341 -0.5458
18001TIP3    H175494   5.202   5.870  14.551 -0.3435 -0.4924 -0.9146
18001TIP3    H275495   5.281   5.993  14.512 -1.3772  0.3912 -0.2507
18002TIP3   OH275496   1.542   4.061   5.168  0.1410 -0.2812  0.2921
18002TIP3    H175497   1.566   4.014   5.088  1.8657 -1.7418  1.6228
18002TIP3    H275498   1.590   4.144   5.163 -0.4560  0.0107 -0.6032
18003TIP3   OH275499   6.750   4.627   1.811  0.1392  0.0402  0.5549
18003TIP3    H175500   6.713   4.670   1.734  0.8934  0.8359  0.6298
18003TIP3    H275501   6.682   4.634   1.878 -1.0029 -1.7306 -0.3906
18004TIP3   OH275502   0.061   4.766   6.346  0.0227  0.0601  0.0919
18004TIP3    H175503   0.140   4.720   6.371  0.6538  0.6931 -0.7090
18004TIP3    H275504   0.088   4.825   6.275 -0.5375  2.4016  1.7535
18005TIP3   OH275505   4.091   0.224   0.065 -0.3719  0.3741  0.0472
18005TIP3    H175506   4.161   0.159   0.064 -0.8386 -0.1416 -1.0826
18005TIP3    H275507   4.078   0.244   0.157  0.9136  0.1040  0.2999
18006TIP3   OH275508   5.606   3.877  14.690  0.4676  0.1281 -0.0635
18006TIP3    H175509   5.556   3.958  14.678  1.2188  0.6835  0.4621
18006TIP3    H275510   5.543   3.807  14.674 -0.1043  0.8176 -0.8848
18007TIP3   OH275511   1.243   1.012   5.108 -0.4286 -0.6332  0.2366
18007TIP3    H175512   1.331   0.990   5.140 -0.3837 -0.7924  0.0025
18007TIP3    H275513   1.251   1.103   5.079  0.2250 -1.2972 -1.7687
18008TIP3   OH275514   1.558   3.199   2.202  0.5807 -0.0309  0.2927
18008TIP3    H175515   1.635   3.208   2.146  0.0669 -1.1151 -0.6040
18008TIP3    H275516   1.520   3.287   2.205  1.0720  0.2089 -0.4069
18009TIP3   OH275517   4.621   0.709   5.124 -0.2548 -0.2173 -0.4415
18009TIP3    H175518   4.550   0.762   5.090 -1.6464 -2.2558 -0.8013
18009TIP3    H275519   4.699   0.764   5.115 -2.0238  2.7662  1.6520
18010TIP3   OH275520   6.618   3.706  11.864 -0.5160  0.4050  0.0488
18010TIP3    H175521   6.672   3.746  11.932 -2.0038 -0.5708  1.8305
18010TIP3    H275522   6.674   3.637  11.827  0.2168  0.8080  0.3954
18011TIP3   OH275523   2.686   5.086  16.396 -0.4182 -0.0939  0.1420
18011TIP3    H175524   2.759   5.123  16.446 -0.7284 -0.8044  1.1318
18011TIP3    H275525   2.726   5.057  16.314  0.0006  1.5702 -0.2800
18012TIP3   OH275526   4.565   6.251  14.511  0.1594  0.5334 -0.0607
18012TIP3    H175527   4.561   6.313  14.584  0.6097  1.1806 -0.5758
18012TIP3    H275528   4.507   6.288  14.444  1.0911  0.8476 -0.7010
18013TIP3   OH275529   3.126   3.288   2.545  0.2624  0.2895 -0.3097
18013TIP3    H175530   3.161   3.317   2.461  1.4784  2.1529  0.7988
18013TIP3    H275531   3.079   3.363   2.580 -1.0992 -0.7948  0.2226
18014TIP3   OH275532   3.014   4.462   5.730  0.1371 -0.5945 -0.4207
18014TIP3    H175533   3.064   4.447   5.650  2.6186  1.7775  0.6087
18014TIP3    H275534   3.070   4.431   5.800  0.3019  2.2236  0.7685
18015TIP3   OH275535   5.228   0.901   6.216 -0.0043  0.3139  0.5359
18015TIP3    H175536   5.308   0.867   6.256 -1.2461 -0.8074  2.0927
18015TIP3    H275537   5.259   0.971   6.157  2.1296 -0.2850  0.9043
18016TIP3   OH275538   5.308   5.882  14.152 -0.6593 -0.2951 -0.7858
18016TIP3    H175539   5.243   5.914  14.090 -1.6427 -1.3677 -0.3333
18016TIP3    H275540   5.276   5.910  14.238 -0.9940 -1.5803 -0.4805
18017TIP3   OH275541   6.633   3.662  15.453 -0.2531  0.5027  0.1898
18017TIP3    H175542   6.638   3.578  15.498  0.2320  0.9099  0.9212
18017TIP3    H275543   6.625   3.640  15.360  1.9492 -0.3597  0.1774
18018TIP3   OH275544   5.381   3.598   5.663 -0.5962 -0.0260  0.0787
18018TIP3    H175545   5.438   3.639   5.728 -0.3407  0.5682 -0.5259
18018TIP3    H275546   5.307   3.658   5.655 -0.5332 -0.0022 -0.3237
18019TIP3   OH275547   4.018   6.306  12.575  0.0821 -0.6659 -0.6561
18019TIP3    H175548   4.107   6.317  12.606 -0.7517  3.7781  0.5587
18019TIP3    H275549   3.965   6.299  12.655 -0.9172 -0.3096 -1.2725
18020TIP3   OH275550   6.182   5.561  13.278 -0.2393 -0.6792 -0.1812
18020TIP3    H175551   6.172   5.488  13.339  0.8346 -0.4232  0.3108
18020TIP3    H275552   6.133   5.633  13.319  0.2765 -0.5785  0.2575
18021TIP3   OH275553   4.879   4.102  11.833 -0.6232  0.1200  0.3003
18021TIP3    H175554   4.948   4.094  11.898  1.2076 -3.5897 -1.9139
18021TIP3    H275555   4.820   4.028  11.851 -0.7992 -0.1726 -1.3450
18022TIP3   OH275556   2.761   3.141  13.793 -0.5168 -0.1089  0.1518
18022TIP3    H175557   2.800   3.062  13.829  0.6157  0.6778  0.6980
18022TIP3    H275558   2.819   3.212  13.822 -1.3186  0.8819 -0.6084
18023TIP3   OH275559   3.467   3.728  13.538 -0.6201 -0.3299 -0.1791
18023TIP3    H175560   3.452   3.636  13.514  0.1386 -0.4372 -0.2757
18023TIP3    H275561   3.532   3.724  13.608  1.4482  0.2229 -1.9753
18024TIP3   OH275562   2.314   4.935   0.419  0.7206 -0.2097  0.1305
18024TIP3    H175563   2.232   4.886   0.416  0.0835  0.8279  0.3181
18024TIP3    H275564   2.287   5.027   0.408  1.9396  0.0496 -0.7626
18025TIP3   OH275565   2.201   1.882  11.651 -0.1388  0.1424 -0.0943
18025TIP3    H175566   2.143   1.910  11.722  0.4606 -0.1417  0.5171
18025TIP3    H275567   2.274   1.944  11.653 -0.5342  0.6463 -1.0235
18026TIP3   OH275568   1.215   0.914  12.401 -0.3714  0.6675  0.3528
18026TIP3    H175569   1.124   0.927  12.425 -0.9457 -3.1060  0.5333
18026TIP3    H275570   1.254   0.868  12.476  1.2110  0.6547 -0.4504
18027TIP3   OH275571   5.909   5.337   1.499  0.0414  0.5739  0.3370
18027TIP3    H175572   5.974   5.336   1.570 -0.2163 -0.1181  0.5642
18027TIP3    H275573   5.913   5.426   1.465  3.0250 -0.1272 -1.4053
18028TIP3   OH275574   5.856   6.322   3.220 -0.1303  0.1614  0.1438
18028TIP3    H175575   5.833   6.396   3.165  0.3864 -0.9850 -1.6745
18028TIP3    H275576   5.877   6.252   3.158 -1.0928 -1.6481  1.8113
18029TIP3   OH275577   2.567   4.618  15.875 -0.1342 -0.2109  0.1651
18029TIP3    H175578   2.484   4.580  15.907  0.3124 -0.4497  1.0579
18029TIP3    H275579   2.561   4.611  15.780 -2.0002  1.5794  0.1060
18030TIP3   OH275580   6.165   4.832  14.107 -0.1285 -0.2068  0.1190
18030TIP3    H175581   6.207   4.762  14.157 -1.6538 -0.3783  1.1859
18030TIP3    H275582   6.088   4.855  14.158 -1.4556 -0.0420 -1.9173
18031TIP3   OH275583   2.731   3.774   6.294 -1.0271  0.2528 -0.3617
18031TIP3    H175584   2.764   3.859   6.266  0.2612 -0.6974 -1.8246
18031TIP3    H275585   2.716   3.784   6.388  3.2397  0.8499  0.3597
18032TIP3   OH275586   5.306   5.079   4.692  0.3405 -0.0841 -0.1326
18032TIP3    H175587   5.366   5.154   4.688 -0.6608  1.0519  3.9088
18032TIP3    H275588   5.361   5.005   4.717  0.4741  0.4069  1.0153
18033TIP3   OH275589   0.537   0.927   1.005  0.3435  0.3659  0.1110
18033TIP3    H175590   0.458   0.979   1.022 -0.9781 -1.7923  0.7803
18033TIP3    H275591   0.505   0.837   1.000  2.7393 -0.4988  0.0463
18034TIP3   OH275592   0.639   1.477   4.434 -0.1035  0.3571  0.3776
18034TIP3    H175593   0.601   1.562   4.413 -0.4020  0.1873  0.2395
18034TIP3    H275594   0.581   1.413   4.393 -0.4201  0.0476  1.2956
18035TIP3   OH275595   0.429   0.822  15.888 -0.6389  0.4103  0.4817
18035TIP3    H175596   0.503   0.788  15.839  0.8863  0.8350  2.4501
18035TIP3    H275597   0.376   0.745  15.909  0.4919 -0.1983  1.1183
18036TIP3   OH275598   1.337   0.677  17.203 -0.0314 -0.3219 -0.1724
18036TIP3    H175599   1.330   0.764  17.242 -1.0412 -0.3699 -0.2213
18036TIP3    H275600   1.409   0.636  17.249 -0.6177 -0.0494  1.0242
18037TIP3   OH275601   1.126   3.118   1.432  0.7976 -0.0842 -0.6910
18037TIP3    H175602   1.148   3.069   1.511 -0.5614 -0.6735 -0.6532
18037TIP3    H275603   1.071   3.190   1.463  2.9542  1.6088 -0.7226
18038TIP3   OH275604   1.668   5.894   0.404  0.5338 -0.3678  0.3910
18038TIP3    H175605   1.682   5.814   0.354 -0.7343  0.6508 -1.6891
18038TIP3    H275606   1.622   5.866   0.483  1.4370 -1.8624  0.3946
18039TIP3   OH275607   3.243   3.562  14.062 -0.2823 -0.1976 -0.6294
18039TIP3    H175608   3.225   3.492  14.124 -0.4564  0.2211 -0.1968
18039TIP3    H275609   3.167   3.621  14.070 -0.5183 -0.3721 -1.5672
18040TIP3   OH275610   0.811   1.987   3.210 -0.2590 -0.0581 -0.1674
18040TIP3    H175611   0.888   1.977   3.266 -0.5935  1.7320  0.6600
18040TIP3    H275612   0.737   1.981   3.270 -0.7909 -1.7102 -0.9504
18041TIP3   OH275613   3.898   1.646  10.756  0.0176  0.2299 -0.2624
18041TIP3    H175614   3.981   1.691  10.769  0.2081  0.3533 -1.7868
18041TIP3    H275615   3.923   1.558  10.727 -0.3640 -0.4940  1.5354
18042TIP3   OH275616   2.125   4.868   4.559  0.0933  0.1401 -0.2356
18042TIP3    H175617   2.194   4.932   4.543 -0.6614  0.9328 -0.3587
18042TIP3    H275618   2.044   4.913   4.533 -0.6046 -0.3525  1.0240
18043TIP3   OH275619   6.158   1.054  11.489  1.0793 -0.1213  0.0491
18043TIP3    H175620   6.063   1.040  11.485  1.2354 -1.3784  0.2805
18043TIP3    H275621   6.176   1.119  11.422  0.1722 -0.6399 -0.7128
18044TIP3   OH275622   1.108   4.314  15.830  0.1530  0.0458 -0.1153
18044TIP3    H175623   1.070   4.351  15.910  2.2255  1.9558  0.0306
18044TIP3    H275624   1.151   4.234  15.859 -0.6823 -0.2461  0.3427
18045TIP3   OH275625   4.067   5.041  15.136 -0.0213 -0.2424  0.7323
18045TIP3    H175626   4.064   4.975  15.067  2.1161 -2.2651  2.4673
18045TIP3    H275627   4.086   5.123  15.090  1.3854 -1.5434 -1.0850
18046TIP3   OH275628   2.932   0.022  12.409  0.2506  0.3852  0.1501
18046TIP3    H175629   2.846  -0.019  12.398 -0.3999  1.9286 -0.6901
18046TIP3    H275630   2.989  -0.024  12.348 -0.1135 -0.2838  0.3162
18047TIP3   OH275631   2.036   5.200  15.205  0.1739 -0.6610 -0.1111
18047TIP3    H175632   1.990   5.281  15.182  1.0776  0.1770  0.9441
18047TIP3    H275633   2.035   5.148  15.125 -1.9516 -0.3492 -0.3189
18048TIP3   OH275634   6.163   3.433  13.239 -0.0863  0.0660 -0.1173
18048TIP3    H175635   6.243   3.430  13.186  1.0131 -1.0804  1.5418
18048TIP3    H275636   6.096   3.465  13.179  0.5473 -3.5343 -2.9947
18049TIP3   OH275637   2.110   4.913   1.462  0.5785  0.1694  0.3927
18049TIP3    H175638   2.151   4.996   1.436  0.2058  0.3712  0.4451
18049TIP3    H275639   2.182   4.850   1.463  0.6741  0.2427 -0.7653
18050TIP3   OH275640   3.751   1.699  17.020 -0.1181  0.1036 -0.3838
18050TIP3    H175641   3.820   1.641  17.054  0.9301  1.0967 -0.7737
18050TIP3    H275642   3.697   1.642  16.965 -1.6052 -1.4472  2.5509
18051TIP3   OH275643   1.741   3.546  13.012  0.1211 -0.3099  0.1683
18051TIP3    H175644   1.653   3.580  12.999 -0.3747 -1.9747 -1.1168
18051TIP3    H275645   1.756   3.490  12.936  0.6059 -3.4902  2.5078
18052TIP3   OH275646   3.820   5.158  14.767 -0.5499 -0.5122  0.1133
18052TIP3    H175647   3.875   5.098  14.817  0.3068  1.4333  1.5841
18052TIP3    H275648   3.849   5.148  14.677  0.4978 -1.3087  0.5302
18053TIP3   OH275649   3.321   4.050  16.754 -0.0666  0.3083 -0.7194
18053TIP3    H175650   3.343   3.957  16.758  0.2661  0.4260  0.4735
18053TIP3    H275651   3.304   4.075  16.845  1.9802  1.9104 -0.7155
18054TIP3   OH275652   2.384   6.009   1.607 -0.2102 -0.5142 -0.4663
18054TIP3    H175653   2.390   5.956   1.686 -0.2781 -1.7465 -1.2654
18054TIP3    H275654   2.367   6.098   1.638  0.3701 -0.8731  0.9152
18055TIP3   OH275655   2.460   5.857   5.793  0.3185  0.4764  0.2102
18055TIP3    H175656   2.461   5.843   5.887  0.8329 -0.5825  0.0601
18055TIP3    H275657   2.553   5.858   5.768  0.1805  0.4993 -0.3132
18056TIP3   OH275658   4.835   0.326   3.995  0.4250 -0.7891  0.3394
18056TIP3    H175659   4.761   0.384   4.011 -0.0754 -2.0733  3.0193
18056TIP3    H275660   4.911   0.373   4.031  0.4092 -0.7887  0.3721
18057TIP3   OH275661   0.750   1.582  13.677 -0.6519 -0.2231 -0.0847
18057TIP3    H175662   0.755   1.525  13.601 -1.0297 -0.6735  0.2301
18057TIP3    H275663   0.810   1.543  13.740  0.5604  0.8069 -0.5820
18058TIP3   OH275664   0.885   0.481  11.851 -0.1763 -0.6283 -0.2241
18058TIP3    H175665   0.857   0.540  11.921  1.5400  1.0520 -0.9019
18058TIP3    H275666   0.829   0.404  11.861 -1.3227  0.4036  1.7363
18059TIP3   OH275667   0.158   3.340   0.654 -0.0886  0.4394  0.1115
18059TIP3    H175668   0.115   3.333   0.739  0.3785 -1.0721  0.2331
18059TIP3    H275669   0.233   3.398   0.670  0.0320  0.1109  0.7487
18060TIP3   OH275670   5.230   6.745   2.456  0.2162  0.2728  0.4977
18060TIP3    H175671   5.233   6.816   2.520  0.2516  0.5520  0.1903
18060TIP3    H275672   5.237   6.665   2.508 -1.1467  0.4426  0.9554
18061TIP3   OH275673   3.695   4.362  12.613 -0.2145 -0.0438 -0.2717
18061TIP3    H175674   3.728   4.439  12.659  0.1233  0.4087 -1.2578
18061TIP3    H275675   3.627   4.396  12.556 -1.1193 -0.7065  0.3966
18062TIP3   OH275676   1.771   0.832   3.432  0.1791 -0.4323  0.1981
18062TIP3    H175677   1.817   0.904   3.388 -1.4583  0.9684  0.6822
18062TIP3    H275678   1.839   0.786   3.481  1.1200  1.4584  0.7333
18063TIP3   OH275679   0.420   5.395   4.290 -0.4697  0.0252  0.0714
18063TIP3    H175680   0.351   5.341   4.251 -1.7696  1.7775 -0.1109
18063TIP3    H275681   0.456   5.444   4.216  2.8981 -2.8633 -0.3311
18064TIP3   OH275682   4.482   6.096  17.072 -0.5170  0.4954  0.4035
18064TIP3    H175683   4.432   6.015  17.084  0.3840 -0.1485 -0.1143
18064TIP3    H275684   4.417   6.166  17.083 -1.4377 -0.3097  0.1976
18065TIP3   OH275685   3.016   4.283   3.753 -0.5191 -0.4529  0.0101
18065TIP3    H175686   3.010   4.368   3.709 -0.8550 -0.9488 -0.9348
18065TIP3    H275687   2.954   4.228   3.704 -1.8523 -0.6860  1.8968
18066TIP3   OH275688   4.108   5.712  16.182  0.4497 -0.1507 -0.2725
18066TIP3    H175689   4.184   5.701  16.238 -1.8546 -0.8575  2.8867
18066TIP3    H275690   4.128   5.789  16.129  1.7088  2.2146  3.4270
18067TIP3   OH275691   5.171   6.347  16.363  0.1722  0.2723  0.6283
18067TIP3    H175692   5.075   6.352  16.365  0.0486 -1.0357 -0.7632
18067TIP3    H275693   5.191   6.316  16.274  1.9245  1.2656  0.6577
18068TIP3   OH275694   2.068   6.034   4.596  0.2352 -0.3015 -0.3057
18068TIP3    H175695   2.117   6.116   4.600  0.3882 -0.3720 -0.7617
18068TIP3    H275696   2.077   5.997   4.684  1.9113 -0.8337 -0.6717
18069TIP3   OH275697   5.691   6.497   6.246 -0.3524 -0.7679  0.0095
18069TIP3    H175698   5.606   6.514   6.288 -1.3905 -0.1065 -2.2649
18069TIP3    H275699   5.754   6.539   6.304 -1.7859  0.5271  0.6924
18070TIP3   OH275700   3.017   2.351   2.590 -0.3061 -0.1312 -0.0835
18070TIP3    H175701   3.063   2.367   2.507  0.2713 -1.9675 -0.1294
18070TIP3    H275702   3.087   2.335   2.653 -0.8270 -1.3003  0.2075
18071TIP3   OH275703   2.119   5.596   5.351 -0.5807 -0.1870 -0.4056
18071TIP3    H175704   2.199   5.544   5.358 -0.6833 -0.4788 -1.3693
18071TIP3    H275705   2.054   5.536   5.313 -0.7029  0.6258 -1.5128
18072TIP3   OH275706   4.592   2.534   2.903  0.4712 -0.1807 -0.1923
18072TIP3    H175707   4.678   2.498   2.884  0.7635 -0.1390  0.9800
18072TIP3    H275708   4.610   2.618   2.946 -0.1629  0.0495 -0.3679
18073TIP3   OH275709   2.148   2.182  14.273 -0.3702 -0.0464 -0.1658
18073TIP3    H175710   2.160   2.119  14.202 -0.4343 -0.5588  0.2721
18073TIP3    H275711   2.067   2.229  14.250 -0.3806 -0.1983 -0.4409
18074TIP3   OH275712   3.853   4.051   3.725 -0.0922  0.1999 -0.7916
18074TIP3    H175713   3.804   4.045   3.643 -0.7977 -0.2940 -0.3359
18074TIP3    H275714   3.837   4.140   3.757 -0.3139  0.1917 -0.8818
18075TIP3   OH275715   6.497   4.164  13.546 -0.1360 -0.5799  0.7261
18075TIP3    H175716   6.425   4.226  13.554 -1.1553 -1.7551  0.8617
18075TIP3    H275717   6.477   4.113  13.468  1.7631  0.5929 -0.5715
18076TIP3   OH275718   2.339   4.517  10.411 -0.1366  0.3567  0.0656
18076TIP3    H175719   2.318   4.580  10.480  2.0273  0.8133  0.3306
18076TIP3    H275720   2.380   4.570  10.343  1.4297 -0.7246  0.1682
18077TIP3   OH275721   4.359   2.505   5.950  0.0964  0.0898  0.0119
18077TIP3    H175722   4.303   2.445   5.999 -0.1915 -0.0866 -0.5291
18077TIP3    H275723   4.331   2.495   5.859  1.4403 -0.4729 -0.3446
18078TIP3   OH275724   3.233   6.037   2.164  0.7498 -0.3113 -0.1770
18078TIP3    H175725   3.263   6.047   2.254  0.0631  3.0440 -0.2807
18078TIP3    H275726   3.314   6.028   2.113  1.3539  1.8033  0.3530
18079TIP3   OH275727   3.796   5.995   5.915  0.0762 -0.0983  0.2240
18079TIP3    H175728   3.776   6.088   5.908  2.6285  0.4698  0.2933
18079TIP3    H275729   3.833   5.985   6.003  0.7739 -1.0034 -0.1702
18080TIP3   OH275730   1.400   1.431  12.515  0.0419  0.1217  0.1392
18080TIP3    H175731   1.454   1.353  12.528  1.7135  1.4371  1.4346
18080TIP3    H275732   1.458   1.504  12.537 -1.2558  1.7840 -1.7847
18081TIP3   OH275733   2.001   3.461  13.527  0.2400 -0.1694  0.1162
18081TIP3    H175734   2.064   3.428  13.463  0.5486 -0.9546  0.8174
18081TIP3    H275735   1.922   3.478  13.476  0.8118  0.2054 -0.6567
18082TIP3   OH275736   2.843   1.490   5.977 -0.3651  0.2347  0.8725
18082TIP3    H175737   2.855   1.512   6.070 -1.4051  0.8194  0.8695
18082TIP3    H275738   2.791   1.562   5.942 -0.1117 -0.0715 -0.1378
18083TIP3   OH275739   2.052   6.152   5.937 -0.1333 -0.6243  0.5178
18083TIP3    H175740   2.103   6.073   5.923  1.8774  0.9135 -1.1155
18083TIP3    H275741   2.061   6.170   6.030 -0.4171 -2.1758  0.8572
18084TIP3   OH275742   5.205   1.568   0.784  0.4650  0.0612  0.0873
18084TIP3    H175743   5.242   1.522   0.859  0.1474  0.1330  0.2873
18084TIP3    H275744   5.126   1.610   0.818 -1.4884 -2.5587 -1.0177
18085TIP3   OH275745   5.743   1.738  12.510 -0.4590  0.4426 -0.0461
18085TIP3    H175746   5.692   1.703  12.582 -1.7645 -0.2594 -1.2808
18085TIP3    H275747   5.693   1.814  12.479 -0.5433  0.0125 -0.9834
18086TIP3   OH275748   4.922   4.357  12.344  0.0383 -0.0308  0.2899
18086TIP3    H175749   4.864   4.399  12.280  1.3507  2.9013  0.8956
18086TIP3    H275750   4.871   4.353  12.424  0.4423  2.0622  0.6833
18087TIP3   OH275751   2.930   3.392   1.359 -0.0291 -0.3355 -0.3699
18087TIP3    H175752   2.996   3.372   1.293  0.7450  2.3115 -0.4670
18087TIP3    H275753   2.979   3.407   1.439 -0.7671 -1.2482  0.2515
18088TIP3   OH275754   1.892   4.237  11.561 -0.1110  0.0304 -0.0672
18088TIP3    H175755   1.970   4.184  11.580 -0.1362 -0.6806 -1.8197
18088TIP3    H275756   1.819   4.184  11.591 -0.0927 -0.6717 -1.2095
18089TIP3   OH275757   1.798   5.835  16.022  0.6229 -0.6338  0.1595
18089TIP3    H175758   1.797   5.740  16.034 -0.3519 -0.5904  0.4325
18089TIP3    H275759   1.889   5.855  15.998  1.7466 -1.1924  3.6361
18090TIP3   OH275760   2.523   0.939   6.676  0.1714  0.5503 -0.0205
18090TIP3    H175761   2.442   0.890   6.665 -0.4942  1.4669  0.8454
18090TIP3    H275762   2.590   0.882   6.636 -0.5025 -1.3112  1.4049
18091TIP3   OH275763   3.205   2.945  16.067  0.4974  0.6393 -0.2192
18091TIP3    H175764   3.208   2.888  15.990 -0.8324  0.2941 -0.0364
18091TIP3    H275765   3.210   3.033  16.031 -2.7003  0.5824 -0.9406
18092TIP3   OH275766   5.343   0.892  13.342  0.7784 -0.2217 -0.2530
18092TIP3    H175767   5.368   0.799  13.336  0.4805 -0.4434  1.7063
18092TIP3    H275768   5.418   0.934  13.385  0.6835  0.3745 -0.6566
18093TIP3   OH275769   2.939   0.778   1.423 -0.2015  0.0349 -0.0400
18093TIP3    H175770   3.008   0.771   1.357 -0.1401  0.7377 -0.0539
18093TIP3    H275771   2.983   0.755   1.505 -0.0496  0.0878 -0.1052
18094TIP3   OH275772   5.973   2.572   4.518 -0.1088 -0.4026 -0.2482
18094TIP3    H175773   5.970   2.558   4.612  1.1275 -1.8399 -0.4055
18094TIP3    H275774   5.913   2.645   4.503  0.2616  0.3447  1.7336
18095TIP3   OH275775   4.471   5.285  14.493 -0.1733  0.2292 -0.5321
18095TIP3    H175776   4.494   5.354  14.556 -0.6332 -0.5147  0.4679
18095TIP3    H275777   4.377   5.276  14.501 -0.2121  0.0307 -1.2392
18096TIP3   OH275778   3.368   1.837  17.044 -0.2458 -0.0972  0.6672
18096TIP3    H175779   3.288   1.856  16.994  0.3344  1.3291  0.2463
18096TIP3    H275780   3.387   1.918  17.091  0.3289 -0.7940  1.6592
18097TIP3   OH275781   5.813   5.848  14.802  0.5791  0.3536  0.4135
18097TIP3    H175782   5.779   5.770  14.757  0.6053  0.4483  0.2309
18097TIP3    H275783   5.802   5.919  14.739  0.9974  0.4085  0.4063
18098TIP3   OH275784   1.466   6.422  15.598 -0.0305  0.2696 -0.4916
18098TIP3    H175785   1.378   6.444  15.628  0.4629 -0.5670  1.6577
18098TIP3    H275786   1.479   6.476  15.519 -1.8503  1.5558  0.0584
18099TIP3   OH275787   0.839   2.760  16.498  0.1769  0.1464  0.0082
18099TIP3    H175788   0.798   2.692  16.444  0.8349 -0.3544  0.1274
18099TIP3    H275789   0.776   2.831  16.499  0.2112  0.2183 -1.5466
18100TIP3   OH275790   3.671   2.865   3.543 -0.1063 -0.9172  0.0722
18100TIP3    H175791   3.707   2.949   3.515  2.0667 -1.2186  1.7594
18100TIP3    H275792   3.697   2.858   3.635 -1.3192 -2.8734  0.2795
18101TIP3   OH275793   0.940   5.686   6.068  0.2200 -0.7524 -0.0568
18101TIP3    H175794   0.868   5.742   6.095  2.1659  1.2353  1.1660
18101TIP3    H275795   0.956   5.630   6.144  0.8107 -0.2974  0.1549
18102TIP3   OH275796   0.860   5.902  17.016 -0.1946 -0.0716  0.2042
18102TIP3    H175797   0.904   5.818  17.022  0.3379  0.1913 -0.0002
18102TIP3    H275798   0.864   5.938  17.105 -0.4253 -0.2632  0.2897
18103TIP3   OH275799   6.433   5.443   4.923 -0.2132 -0.2157 -0.1850
18103TIP3    H175800   6.496   5.379   4.955 -1.4814 -1.5165 -0.2328
18103TIP3    H275801   6.367   5.449   4.993 -1.2869 -0.6653 -1.1356
18104TIP3   OH275802   1.004   3.061   3.328  0.4165  0.1902  0.6615
18104TIP3    H175803   0.964   3.079   3.413  0.3555  0.7247  0.5220
18104TIP3    H275804   1.079   3.006   3.347 -0.4951 -0.9991  0.9190
18105TIP3   OH275805   2.753   1.011  14.995 -0.5028  0.1647  0.1318
18105TIP3    H175806   2.705   0.996  15.076 -0.0721  0.2994  0.4113
18105TIP3    H275807   2.740   1.104  14.976 -0.5828  0.1389  0.0605
18106TIP3   OH275808   6.419   5.873   6.140 -0.1822 -0.1913 -0.1868
18106TIP3    H175809   6.415   5.882   6.045  0.6163  0.7552 -0.1542
18106TIP3    H275810   6.329   5.856   6.168 -0.3298 -0.9724 -1.1594
18107TIP3   OH275811   5.855   5.076   0.419  0.4336 -0.6794 -0.0139
18107TIP3    H175812   5.827   4.984   0.421 -0.1929 -0.4747  0.8673
18107TIP3    H275813   5.909   5.086   0.498  1.2282 -0.5203 -0.5792
18108TIP3   OH275814   1.843   3.803   5.641  0.1444 -0.0936 -0.3828
18108TIP3    H175815   1.788   3.861   5.693 -0.3769 -0.7555 -0.1883
18108TIP3    H275816   1.932   3.834   5.655  0.0623 -0.6138  1.3409
18109TIP3   OH275817   0.981   0.415   3.278 -0.6277 -0.6014 -0.2404
18109TIP3    H175818   1.014   0.405   3.368 -1.1730  0.8372  0.1334
18109TIP3    H275819   1.059   0.436   3.226 -0.9416  3.3889  0.7389
18110TIP3   OH275820   2.569   4.339  11.614  0.1477 -0.1367  0.0240
18110TIP3    H175821   2.628   4.265  11.626  0.0435 -0.1447  0.5057
18110TIP3    H275822   2.481   4.301  11.621  0.0937  0.0378  0.3262
18111TIP3   OH275823   1.291   6.217   3.504  0.1436 -0.0295  0.7488
18111TIP3    H175824   1.259   6.206   3.594  0.0858 -2.2116  0.5024
18111TIP3    H275825   1.324   6.130   3.480  0.5050  0.6251 -1.2093
18112TIP3   OH275826   6.372   5.438  13.535  0.0672  0.0557  0.0296
18112TIP3    H175827   6.419   5.521  13.538 -0.1015  0.1029  4.3250
18112TIP3    H275828   6.283   5.462  13.511 -0.2384  1.2660  2.3047
18113TIP3   OH275829   2.064   0.749   1.679 -0.4421  0.1857  0.6463
18113TIP3    H175830   2.112   0.693   1.617  1.1177  2.3913 -0.1977
18113TIP3    H275831   1.974   0.747   1.647  0.0409 -0.0193 -0.7588
18114TIP3   OH275832   1.503   3.530  10.733 -0.5405 -0.5117  0.4344
18114TIP3    H175833   1.590   3.525  10.694 -0.7510 -0.9000  0.0004
18114TIP3    H275834   1.460   3.450  10.704 -1.2365 -0.0421  0.1632
18115TIP3   OH275835   4.979   6.415  11.187  0.2673  0.1468 -0.1680
18115TIP3    H175836   4.980   6.499  11.234  1.5034 -1.2588  2.3676
18115TIP3    H275837   4.892   6.379  11.204  0.3657  0.0918  0.2184
18116TIP3   OH275838   0.867   5.335  12.202  0.6721  0.6272 -1.0467
18116TIP3    H175839   0.876   5.346  12.297 -3.1977  0.8088 -0.5975
18116TIP3    H275840   0.850   5.241  12.191  2.5364  0.3587 -1.7240
18117TIP3   OH275841   3.888   4.406   4.577  0.1738 -0.0312 -0.1115
18117TIP3    H175842   3.905   4.456   4.658  0.3844 -0.3820  0.0604
18117TIP3    H275843   3.921   4.318   4.596  0.2270 -0.1131 -0.5841
18118TIP3   OH275844   0.993   4.561   3.330 -0.2294 -0.5645  0.0516
18118TIP3    H175845   1.070   4.506   3.341  0.9119  0.8347 -0.9195
18118TIP3    H275846   1.011   4.614   3.253 -2.7464 -1.1682 -1.0115
18119TIP3   OH275847   4.053   6.450   0.314 -0.1264  0.2701 -0.2047
18119TIP3    H175848   3.980   6.396   0.344 -0.3323  1.1435  0.9077
18119TIP3    H275849   4.039   6.458   0.219 -2.5391  1.9202  0.2282
18120TIP3   OH275850   2.378   6.754  12.732 -0.3628  0.6592 -0.0069
18120TIP3    H175851   2.409   6.831  12.684  0.6512  0.4295  0.2657
18120TIP3    H275852   2.288   6.776  12.757 -0.1074  1.7315  0.0126
18121TIP3   OH275853   2.804   3.524  15.256 -0.1951 -0.0336  0.3533
18121TIP3    H175854   2.876   3.568  15.301 -0.2793  0.9686 -0.4814
18121TIP3    H275855   2.811   3.432  15.284  1.5623  0.0049  0.0689
18122TIP3   OH275856   4.726   5.124  12.482  0.6014 -0.1989  0.6472
18122TIP3    H175857   4.678   5.188  12.430  0.9913  0.5007  1.1488
18122TIP3    H275858   4.693   5.039  12.452 -1.8985  0.2903  1.8719
18123TIP3   OH275859   2.636   3.866   4.613 -0.4622  0.4591  0.2428
18123TIP3    H175860   2.621   3.914   4.531 -1.6007  0.8769  0.6732
18123TIP3    H275861   2.696   3.921   4.663 -0.0300  0.3660 -0.1827
18124TIP3   OH275862   4.192   4.875  11.862  0.6522  0.0682  0.3006
18124TIP3    H175863   4.234   4.789  11.852 -0.1556 -0.3019  0.0263
18124TIP3    H275864   4.099   4.858  11.845  0.8281  1.4413 -2.2435
18125TIP3   OH275865   2.272   0.642   1.479  1.0072 -0.3068 -0.3829
18125TIP3    H175866   2.226   0.559   1.493 -1.5788  0.9752 -1.0003
18125TIP3    H275867   2.295   0.641   1.386 -1.8430  0.9908 -1.1593
18126TIP3   OH275868   0.845   3.057   4.792 -0.7222 -0.0969 -0.0039
18126TIP3    H175869   0.888   3.020   4.715  0.0413 -0.7440  0.7389
18126TIP3    H275870   0.811   2.982   4.840 -1.0097  0.2936  0.4194
18127TIP3   OH275871   5.905   3.347   3.153 -0.0322  0.0544  0.1167
18127TIP3    H175872   5.897   3.442   3.161 -0.7177  0.1496 -1.5501
18127TIP3    H275873   5.816   3.314   3.165  0.0419 -0.2943 -0.2847
18128TIP3   OH275874   4.035   3.799   2.358  0.5047  0.1914  0.3337
18128TIP3    H175875   4.005   3.816   2.448 -1.8446 -0.5473 -0.2854
18128TIP3    H275876   4.061   3.707   2.359 -0.5580 -0.1168 -0.0116
18129TIP3   OH275877   1.036   1.468   1.509  0.0330  0.4554 -0.3804
18129TIP3    H175878   0.974   1.535   1.540 -0.7541 -0.2080 -0.5080
18129TIP3    H275879   1.034   1.401   1.577  0.0702  0.0928 -0.7386
18130TIP3   OH275880   0.880   4.461  13.571 -0.1100 -0.5197  0.0501
18130TIP3    H175881   0.811   4.433  13.631 -1.2522 -2.3330 -2.0385
18130TIP3    H275882   0.876   4.557  13.573 -1.8609 -0.5834  0.9018
18131TIP3   OH275883   6.569   2.595  12.352 -0.0323 -0.2978 -0.2128
18131TIP3    H175884   6.531   2.641  12.427 -0.8268  2.5250 -2.2309
18131TIP3    H275885   6.663   2.593  12.369  0.0629  2.4086 -0.1398
18132TIP3   OH275886   3.494   6.023  16.934 -0.3644  0.5823  0.1108
18132TIP3    H175887   3.530   6.099  16.979  1.2794 -1.4017  2.2794
18132TIP3    H275888   3.533   6.026  16.846  0.9809  1.3671  0.7276
18133TIP3   OH275889   2.703   5.597   5.274  0.3196  0.1340  0.2375
18133TIP3    H175890   2.723   5.506   5.296  0.3158 -0.2824 -1.4309
18133TIP3    H275891   2.754   5.648   5.337  1.1363 -1.0057  0.5205
18134TIP3   OH275892   3.933   1.056   4.861  0.1279  0.2988  0.1196
18134TIP3    H175893   3.930   1.081   4.769  0.9282 -2.9629 -0.8615
18134TIP3    H275894   3.846   1.022   4.880  0.3003 -0.0578  0.2732
18135TIP3   OH275895   2.811   3.969   4.813  0.8142  0.2965 -0.2534
18135TIP3    H175896   2.792   3.911   4.887  0.6654  2.5621  1.5482
18135TIP3    H275897   2.739   4.032   4.813  0.9884  0.5135 -2.1412
18136TIP3   OH275898   3.029   3.892   2.683  0.4738 -0.0776  0.7030
18136TIP3    H175899   2.962   3.950   2.718 -0.4804 -0.2585 -0.7581
18136TIP3    H275900   3.051   3.929   2.597  1.7401 -0.4217  0.8597
18137TIP3   OH275901   5.395   2.378   2.253 -0.0028 -0.6260 -0.1115
18137TIP3    H175902   5.436   2.340   2.331 -1.1134 -1.0325  0.2863
18137TIP3    H275903   5.340   2.307   2.219 -0.1975 -0.1613 -0.7633
18138TIP3   OH275904   4.972   3.298  12.109  0.1675  0.1317 -0.3227
18138TIP3    H175905   5.063   3.326  12.100 -0.3709  2.3667  0.7114
18138TIP3    H275906   4.933   3.312  12.023 -0.0788  2.6966  0.1562
18139TIP3   OH275907   5.865   3.100   2.117 -0.0527 -0.2304 -0.8255
18139TIP3    H175908   5.914   3.182   2.118 -1.8884  0.8876 -0.2252
18139TIP3    H275909   5.807   3.108   2.041  0.4709 -1.4265 -1.3698
18140TIP3   OH275910   2.756   4.490   5.661  0.1191 -0.0603 -0.3863
18140TIP3    H175911   2.843   4.472   5.696 -0.0053  0.9161  0.4579
18140TIP3    H275912   2.697   4.434   5.712  0.2020 -0.4273 -0.6887
18141TIP3   OH275913   3.504   2.615  16.714 -0.0534  0.0069 -0.6025
18141TIP3    H175914   3.534   2.699  16.679  0.6931 -0.1207 -0.2819
18141TIP3    H275915   3.538   2.550  16.653 -0.8638 -0.0533 -0.9984
18142TIP3   OH275916   1.489   6.411   0.995  0.4758 -0.5239  0.5400
18142TIP3    H175917   1.457   6.412   1.086 -1.2423 -0.3672 -0.0417
18142TIP3    H275918   1.409   6.411   0.942  1.3416 -4.3036 -0.9779
18143TIP3   OH275919   0.265   4.120  12.859 -0.1660 -0.0107  0.1989
18143TIP3    H175920   0.243   4.148  12.770 -1.8805 -1.3560  0.1810
18143TIP3    H275921   0.216   4.039  12.872 -2.1243  1.5640  3.3274
18144TIP3   OH275922   3.780   0.558  13.434  0.3855 -0.2007  0.1192
18144TIP3    H175923   3.811   0.601  13.513  1.7413 -0.1144 -0.4585
18144TIP3    H275924   3.859   0.529  13.389 -0.3735 -0.2565 -1.2096
18145TIP3   OH275925   0.067   2.134   4.560 -0.5710  0.1536 -0.1854
18145TIP3    H175926   0.020   2.214   4.585  0.0094  0.5304 -0.2789
18145TIP3    H275927   0.104   2.154   4.474  0.7913  0.3160  0.4217
18146TIP3   OH275928   1.636   2.936   3.400 -0.1330  0.4478  0.4971
18146TIP3    H175929   1.631   3.031   3.397 -1.0146  0.3809 -0.2666
18146TIP3    H275930   1.595   2.907   3.319  2.3796 -0.5183 -0.4974
18147TIP3   OH275931   6.277   0.966  14.651 -0.0339  0.1662  0.5685
18147TIP3    H175932   6.206   1.010  14.698  0.7604  1.2733  0.7638
18147TIP3    H275933   6.315   1.035  14.596  0.0112 -0.7521 -0.5816
18148TIP3   OH275934   2.920   6.679   1.775 -0.2644  0.5090 -0.4439
18148TIP3    H175935   2.923   6.763   1.729  1.7862  0.6839 -0.0371
18148TIP3    H275936   3.010   6.663   1.802 -1.0846 -0.5465  1.7994
18149TIP3   OH275937   4.824   3.147  15.395  0.1107 -0.2815  0.1891
18149TIP3    H175938   4.796   3.176  15.482 -2.2908  1.6628 -1.1596
18149TIP3    H275939   4.900   3.201  15.374 -0.3761  0.4716  0.3607
18150TIP3   OH275940   2.764   1.513   3.371 -0.3018 -0.2132 -0.1829
18150TIP3    H175941   2.815   1.488   3.295 -1.0229 -2.5694  0.0697
18150TIP3    H275942   2.725   1.432   3.402 -3.6161  1.3911  0.0626
18151TIP3   OH275943   5.436   0.215  11.363  0.3796  0.0039  0.1828
18151TIP3    H175944   5.530   0.223  11.344 -0.0654 -1.1154 -2.6082
18151TIP3    H275945   5.410   0.132  11.325 -1.9532  0.7009  0.1484
18152TIP3   OH275946   5.142   6.299  13.692  0.0239  0.0677 -0.5777
18152TIP3    H175947   5.052   6.332  13.693 -0.4852 -1.3036  0.3640
18152TIP3    H275948   5.141   6.228  13.629  0.4884  0.1468 -0.6776
18153TIP3   OH275949   6.386   1.028   1.259  0.2519 -0.0567 -0.5078
18153TIP3    H175950   6.376   1.002   1.167  0.3352  2.5658 -1.3032
18153TIP3    H275951   6.296   1.035   1.291  0.1038  2.1276 -1.3336
18154TIP3   OH275952   6.645   4.367  14.181  0.3403 -0.2121  0.2890
18154TIP3    H175953   6.648   4.352  14.087 -1.3596 -2.3736  0.5578
18154TIP3    H275954   6.702   4.300  14.219  0.3323  0.0996  0.8739
18155TIP3   OH275955   1.708   1.029  12.905 -0.4017 -0.1015 -0.6546
18155TIP3    H175956   1.748   0.968  12.842 -1.6685 -0.0618 -1.5205
18155TIP3    H275957   1.695   1.109  12.855  0.2738  0.5410  0.1935
18156TIP3   OH275958   4.177   2.536   4.531  0.0601 -0.6433  0.4894
18156TIP3    H175959   4.244   2.506   4.592  0.4072  2.7574  1.8834
18156TIP3    H275960   4.211   2.513   4.444  1.9663 -0.9931  1.3089
18157TIP3   OH275961   1.110   4.264  14.062 -0.7472 -0.6188  0.9203
18157TIP3    H175962   1.026   4.273  14.107 -0.5354  1.9201  0.8856
18157TIP3    H275963   1.092   4.203  13.990 -2.8686  0.7363  0.2405
18158TIP3   OH275964   5.080   2.110   4.471 -0.0531 -0.2820  0.2736
18158TIP3    H175965   5.101   2.020   4.498  2.2587 -0.4243 -1.8221
18158TIP3    H275966   5.164   2.155   4.472 -1.1360  1.7779  0.8480
18159TIP3   OH275967   3.073   3.270  15.145 -0.4602 -0.4942 -0.7413
18159TIP3    H175968   3.003   3.226  15.194  0.4672 -1.3811 -0.1659
18159TIP3    H275969   3.029   3.335  15.092 -1.4337  1.0910  1.9329
18160TIP3   OH275970   0.554   5.042   1.182  0.0975 -0.1766  0.1497
18160TIP3    H175971   0.526   5.027   1.092 -1.3287 -0.6696  0.6705
18160TIP3    H275972   0.477   5.022   1.236  0.9910 -0.0944  1.4965
18161TIP3   OH275973   6.049   0.117  15.575 -0.0293  0.0140  0.7530
18161TIP3    H175974   5.988   0.177  15.531  0.6438 -0.6725 -1.1775
18161TIP3    H275975   6.135   0.157  15.563  0.2483 -0.5726  0.7611
18162TIP3   OH275976   1.209   3.136  13.430 -0.0380 -0.1903 -0.0516
18162TIP3    H175977   1.199   3.218  13.382  0.2660 -0.1089  0.0201
18162TIP3    H275978   1.302   3.133  13.453  0.2804 -1.3230 -1.4249
18163TIP3   OH275979   2.299   0.370  12.690 -0.5180 -0.2979  0.2327
18163TIP3    H175980   2.344   0.348  12.772 -1.2713 -2.7579  0.0515
18163TIP3    H275981   2.240   0.441  12.712 -0.8675 -1.0888  1.9118
18164TIP3   OH275982   6.200   3.189  11.830  0.2974 -0.3608 -0.0423
18164TIP3    H175983   6.105   3.185  11.821  0.2987 -0.7674  0.1182
18164TIP3    H275984   6.233   3.184  11.740  0.1278  1.0947 -0.1965
18165TIP3   OH275985   6.348   0.451  17.051  0.0972  0.4323 -0.0936
18165TIP3    H175986   6.400   0.406  16.985 -0.2852 -1.0766  0.6212
18165TIP3    H275987   6.307   0.381  17.102 -0.2691  1.5791  1.2226
18166TIP3   OH275988   3.823   4.236   3.199 -0.5605  0.2546  0.0916
18166TIP3    H175989   3.894   4.300   3.202 -0.5088  0.2606 -0.9545
18166TIP3    H275990   3.792   4.240   3.109 -0.9038 -0.8220  0.1625
18167TIP3   OH275991   2.760   5.390   3.001 -0.3420  0.2829 -0.2215
18167TIP3    H175992   2.708   5.340   3.064 -0.6015 -0.5036 -1.0543
18167TIP3    H275993   2.763   5.479   3.037  0.8831 -0.5203  1.7363
18168TIP3   OH275994   4.884   5.144  13.536 -0.2867 -0.2532  0.5355
18168TIP3    H175995   4.802   5.108  13.569 -1.0165  2.1553  1.4947
18168TIP3    H275996   4.880   5.238  13.558  2.2579  0.1131 -0.3138
18169TIP3   OH275997   2.188   2.804   6.685  0.6351 -0.6876  0.0467
18169TIP3    H175998   2.215   2.718   6.720 -0.1934 -1.2657 -0.7312
18169TIP3    H275999   2.188   2.792   6.590  0.1598  0.0711 -0.0496
18170TIP3   OH276000   2.711   2.257   1.995 -0.3014  0.1633  0.4010
18170TIP3    H176001   2.763   2.328   1.957  0.3027 -0.3840  0.1861
18170TIP3    H276002   2.621   2.282   1.977 -0.0975  0.8589  0.2925
18171TIP3   OH276003   2.377   5.085  16.007 -0.0964 -0.2479 -0.8106
18171TIP3    H176004   2.372   5.129  15.922 -1.0450 -0.6232 -0.9563
18171TIP3    H276005   2.453   5.123  16.050 -0.8245  1.4361 -0.9938
18172TIP3   OH276006   0.640   2.678  16.774 -0.1596 -0.0704 -0.1334
18172TIP3    H176007   0.622   2.666  16.681  1.5730  0.5331 -0.5518
18172TIP3    H276008   0.558   2.714  16.809  0.5143  3.8056 -2.2320
18173TIP3   OH276009   5.558   1.338  15.379  0.4252 -0.4596 -0.7147
18173TIP3    H176010   5.592   1.404  15.318 -1.1753  0.2249 -0.9054
18173TIP3    H276011   5.629   1.275  15.389  1.4665  0.5466 -1.6459
18174TIP3   OH276012   0.928   4.453  14.430  0.1420 -0.3682 -0.8090
18174TIP3    H176013   0.868   4.447  14.505  0.4445 -1.9936 -0.6871
18174TIP3    H276014   1.006   4.495  14.466  0.6636 -2.0121  0.0602
18175TIP3   OH276015   4.041   6.323  13.440  0.4162  0.3949  0.2184
18175TIP3    H176016   4.101   6.293  13.509 -0.2565  2.6423  1.8078
18175TIP3    H276017   3.979   6.381  13.485 -1.1861  0.4109 -1.9452
18176TIP3   OH276018   3.111   2.498  17.001 -0.0741  0.5936  0.5186
18176TIP3    H176019   3.173   2.425  17.011 -1.0764 -0.1799  1.1529
18176TIP3    H276020   3.138   2.540  16.920  0.6251 -0.3830  0.2273
18177TIP3   OH276021   1.085   1.565   4.688  0.3389 -0.5224 -0.4421
18177TIP3    H176022   1.095   1.487   4.742 -1.3990 -1.4326 -1.4095
18177TIP3    H276023   1.004   1.551   4.640  0.5453  1.4210 -1.4012
18178TIP3   OH276024   1.404   2.692   6.290  0.4990  0.2549 -0.0568
18178TIP3    H176025   1.380   2.666   6.379 -0.7586  2.7397  0.3719
18178TIP3    H276026   1.498   2.712   6.296  0.4069  0.4586  0.7057
18179TIP3   OH276027   5.011   6.697   0.250  0.3849  0.5160 -0.0382
18179TIP3    H176028   4.965   6.615   0.232 -2.0762  1.6272  0.9471
18179TIP3    H276029   4.984   6.721   0.339  2.9238  1.2315  0.5907
18180TIP3   OH276030   5.256   0.552  11.218 -0.0302  0.3922 -0.1550
18180TIP3    H176031   5.216   0.474  11.257  1.8278 -0.2926  0.4300
18180TIP3    H276032   5.185   0.616  11.213 -0.8879 -0.3580  2.0523
18181TIP3   OH276033   6.048   3.849   3.867  0.4242  0.1644 -0.1829
18181TIP3    H176034   6.080   3.762   3.892 -2.2472 -0.8670 -0.1638
18181TIP3    H276035   5.953   3.838   3.862 -0.1152  3.5552  1.6322
18182TIP3   OH276036   1.858   5.252  13.089  0.3817 -0.1621  0.3117
18182TIP3    H176037   1.772   5.235  13.051 -0.0844 -0.1395  1.3327
18182TIP3    H276038   1.839   5.290  13.175  1.4117  0.1583  0.4040
18183TIP3   OH276039   2.424   5.886   4.590  0.1399  0.7654  0.2860
18183TIP3    H176040   2.423   5.978   4.564  1.6762  0.4297 -1.0493
18183TIP3    H276041   2.340   5.852   4.560 -0.5132  1.7625  0.9446
18184TIP3   OH276042   0.636   4.471   1.772  0.2224 -0.4570 -0.3238
18184TIP3    H176043   0.605   4.559   1.754  0.0655 -0.3259  0.5449
18184TIP3    H276044   0.716   4.483   1.824 -1.1947 -0.8116  2.0455
18185TIP3   OH276045   4.391   6.677  17.101 -0.2724 -0.3915 -0.3491
18185TIP3    H176046   4.297   6.677  17.083  0.1421  0.1315 -2.7491
18185TIP3    H276047   4.400   6.726  17.183 -2.0892 -0.4624 -0.0954
18186TIP3   OH276048   1.606   2.685  14.651  0.3258  0.4194  0.4651
18186TIP3    H176049   1.674   2.638  14.698  0.2239 -1.4889 -1.2327
18186TIP3    H276050   1.642   2.699  14.564 -0.9162  0.6116 -0.0278
18187TIP3   OH276051   0.138   2.919  12.556 -0.3280  0.2631  0.2453
18187TIP3    H176052   0.233   2.926  12.567 -0.2890 -0.8800  0.7542
18187TIP3    H276053   0.126   2.902  12.462  0.0257 -0.4247  0.3231
18188TIP3   OH276054   3.179   2.094  14.712 -0.0148  0.4610  0.1263
18188TIP3    H176055   3.175   2.160  14.781  0.0317  0.5709  0.0234
18188TIP3    H276056   3.089   2.086  14.681 -0.1019  0.1259  0.4693
18189TIP3   OH276057   6.791   3.114   6.140  0.2504  0.1219 -0.2289
18189TIP3    H176058   6.698   3.129   6.161  0.2757 -1.5876  1.2900
18189TIP3    H276059   6.829   3.202   6.135 -1.2712  0.8142  0.0181
18190TIP3   OH276060   6.336   5.210   3.676 -0.4280  0.0554  0.1452
18190TIP3    H176061   6.291   5.279   3.725  0.0436  0.3283  0.2001
18190TIP3    H276062   6.268   5.171   3.621 -0.8299  0.1388  0.5860
18191TIP3   OH276063   6.766   3.374  14.607 -0.2989  0.1934  0.0601
18191TIP3    H176064   6.742   3.418  14.525  1.2466  1.3576  0.2038
18191TIP3    H276065   6.823   3.302  14.581 -1.0778 -0.4083 -0.0009
18192TIP3   OH276066   1.078   5.217  15.688 -0.3897 -0.6128 -0.2106
18192TIP3    H176067   1.166   5.180  15.687 -0.2740 -0.3958  1.0309
18192TIP3    H276068   1.081   5.285  15.755 -1.3850 -0.3179 -0.4511
18193TIP3   OH276069   0.693   0.942   2.365  0.2862  0.2523  0.2095
18193TIP3    H176070   0.778   0.986   2.361  0.7439 -0.4852  1.5094
18193TIP3    H276071   0.701   0.869   2.304 -0.0935  1.2766 -1.1107
18194TIP3   OH276072   5.351   0.919   1.076  0.2977 -0.0360 -0.0840
18194TIP3    H176073   5.312   0.832   1.086  3.3297 -1.6892 -2.0840
18194TIP3    H276074   5.411   0.911   1.003  0.7608  3.7546 -0.2385
18195TIP3   OH276075   2.642   6.797  14.444  0.3944 -0.7343  0.3368
18195TIP3    H176076   2.668   6.705  14.449  0.6109 -0.7381 -0.7811
18195TIP3    H276077   2.697   6.834  14.375 -1.2690 -0.3022 -0.7954
18196TIP3   OH276078   0.116   4.458   0.912  0.1435  0.1970 -0.1047
18196TIP3    H176079   0.088   4.375   0.874 -0.5785  0.4108 -0.0413
18196TIP3    H276080   0.191   4.434   0.968 -0.9510 -0.6361  1.0379
18197TIP3   OH276081   5.317   2.389   4.118 -0.1966 -0.1060 -0.2493
18197TIP3    H176082   5.411   2.391   4.130 -0.3845 -0.2392  1.3089
18197TIP3    H276083   5.283   2.351   4.198 -1.6812  1.2181 -0.2196
18198TIP3   OH276084   2.905   0.783   4.277  0.5388  0.5086 -0.0055
18198TIP3    H176085   2.984   0.762   4.326 -0.0524 -0.8912  0.3704
18198TIP3    H276086   2.833   0.746   4.329 -0.2089  0.1676 -1.2385
18199TIP3   OH276087   5.638   3.312   5.256 -0.2324  0.3086  0.2353
18199TIP3    H176088   5.680   3.389   5.218 -2.1339  1.5836  0.5981
18199TIP3    H276089   5.567   3.291   5.195  0.1605 -1.0450  0.2391
18200TIP3   OH276090   3.430   2.923   4.177  0.6309  0.3245 -0.3671
18200TIP3    H176091   3.456   2.988   4.243  1.0733 -0.0702 -0.1482
18200TIP3    H276092   3.340   2.946   4.155  1.2259  1.8488 -1.3030
18201TIP3   OH276093   2.945   4.312  16.831  0.0240  0.4373 -0.0389
18201TIP3    H176094   3.002   4.312  16.755  1.8958  0.1226  1.3256
18201TIP3    H276095   2.901   4.398  16.828 -0.3683  0.1861 -1.7660
18202TIP3   OH276096   3.814   1.131  13.099  0.4704 -0.4292  0.0720
18202TIP3    H176097   3.797   1.188  13.025  0.5916  0.3054  0.5959
18202TIP3    H276098   3.782   1.045  13.072 -0.7962  0.1434 -0.2758
18203TIP3   OH276099   0.037   2.581  14.208  0.0673  0.4309  0.0843
18203TIP3    H176100  -0.054   2.560  14.186  0.0408  0.3978  0.2203
18203TIP3    H276101   0.033   2.611  14.299  0.6228 -2.5938  1.1418
18204TIP3   OH276102   5.166   3.002   3.564  0.8847  0.3684 -0.1728
18204TIP3    H176103   5.146   3.089   3.597  0.9246 -0.0252  0.9060
18204TIP3    H276104   5.166   3.012   3.469 -0.9629  1.1428 -0.1154
18205TIP3   OH276105   1.395   5.236   2.148 -0.2843  0.5341  0.4544
18205TIP3    H176106   1.388   5.229   2.052 -1.6364  4.9631  0.1385
18205TIP3    H276107   1.318   5.191   2.181 -0.5143  0.1607 -0.5793
18206TIP3   OH276108   2.045   4.520   4.646  0.6499 -0.1937  0.0314
18206TIP3    H176109   2.055   4.578   4.571 -0.1325  0.4186  0.3995
18206TIP3    H276110   2.026   4.434   4.608 -0.8443  0.3401 -0.4483
18207TIP3   OH276111   0.041   4.624  11.416 -0.3685  0.3090  0.3197
18207TIP3    H176112  -0.004   4.583  11.342 -2.2615  0.9229  1.0991
18207TIP3    H276113   0.114   4.564  11.436 -0.4364 -0.3679 -1.3871
18208TIP3   OH276114   4.680   1.348   4.639 -0.3246  1.5533 -0.0843
18208TIP3    H176115   4.666   1.408   4.566 -1.2082  0.3660 -0.9010
18208TIP3    H276116   4.594   1.341   4.681 -0.2408  0.8202 -0.0295
18209TIP3   OH276117   3.648   1.152   5.100 -0.0383 -1.0793  0.1031
18209TIP3    H176118   3.709   1.165   5.027  0.2583 -2.1714  0.1494
18209TIP3    H276119   3.569   1.117   5.060 -0.2404 -0.7161  0.1814
18210TIP3   OH276120   0.958   1.314   4.077  0.2064  0.1815 -0.0043
18210TIP3    H176121   0.957   1.265   4.159 -0.6668  1.6540  0.8640
18210TIP3    H276122   0.867   1.335   4.060  0.5822  1.6815 -0.2572
18211TIP3   OH276123   6.423   0.962  12.716 -0.2063 -0.0651 -0.0177
18211TIP3    H176124   6.416   0.888  12.777  0.4958  0.0867  0.2592
18211TIP3    H276125   6.333   0.980  12.689 -0.2588 -1.8421 -1.0815
18212TIP3   OH276126   2.018   5.679   6.715 -0.5028 -0.0601  0.5018
18212TIP3    H176127   2.089   5.623   6.746  0.0153 -0.7359 -1.7704
18212TIP3    H276128   1.943   5.657   6.770  0.3355 -1.2749  1.1759
18213TIP3   OH276129   4.386   2.759   3.658 -0.3297  0.1054  0.2072
18213TIP3    H176130   4.301   2.803   3.651 -0.1000  0.3121 -1.4921
18213TIP3    H276131   4.420   2.759   3.569  2.0125  1.1012  1.0628
18214TIP3   OH276132   2.971   5.747  11.888  0.3792 -0.4779 -0.4707
18214TIP3    H176133   2.894   5.802  11.876  0.4823 -0.6203 -1.8435
18214TIP3    H276134   3.013   5.746  11.802  1.3570 -1.2204  0.0160
18215TIP3   OH276135   2.720   6.067  15.541 -0.4999 -0.1020  0.0952
18215TIP3    H176136   2.657   6.119  15.591 -0.7473  0.1507 -0.4730
18215TIP3    H276137   2.695   6.081  15.450  0.2922 -0.1218 -0.1267
18216TIP3   OH276138   0.094   3.731   0.465  0.3461 -0.8403  0.1966
18216TIP3    H176139   0.011   3.758   0.424 -0.0980  1.0782  2.2732
18216TIP3    H276140   0.093   3.635   0.458 -1.1685 -0.7538 -1.4505
18217TIP3   OH276141   1.908   2.125  10.596 -0.0141 -0.2775 -0.7274
18217TIP3    H176142   1.936   2.099  10.683 -1.2047 -1.0489 -0.5628
18217TIP3    H276143   1.923   2.220  10.593  0.3722 -0.3061  0.1758
18218TIP3   OH276144   3.118   5.412   4.460 -0.1763 -0.0314 -0.3298
18218TIP3    H176145   3.185   5.417   4.528  1.3716 -1.5262 -1.6895
18218TIP3    H276146   3.134   5.488   4.405  1.0932 -0.8972 -1.2106
18219TIP3   OH276147   4.496   2.172   0.362  0.5308 -0.1678 -0.2893
18219TIP3    H176148   4.416   2.144   0.318  0.8675  0.9358 -1.6608
18219TIP3    H276149   4.548   2.213   0.293  1.1530  1.4529  1.1023
18220TIP3   OH276150   0.068   5.792   5.016 -0.3893 -0.2931 -0.0960
18220TIP3    H176151   0.121   5.797   4.937  0.0610  0.6165  0.2504
18220TIP3    H276152  -0.020   5.767   4.986  0.0464 -1.0389 -0.7508
18221TIP3   OH276153   1.783   5.344   0.233 -0.3420  0.4659  0.2888
18221TIP3    H176154   1.825   5.400   0.299  1.5592 -0.9364  0.2897
18221TIP3    H276155   1.744   5.273   0.284 -2.0329  1.3166  0.2108
18222TIP3   OH276156   3.528   2.660   4.259  0.3378 -0.3708 -0.1521
18222TIP3    H176157   3.552   2.650   4.351 -0.1164  0.8115  0.0966
18222TIP3    H276158   3.555   2.749   4.236  0.1724 -0.5525 -1.0843
18223TIP3   OH276159   4.646   6.087   4.689 -0.5189  0.2042  0.7141
18223TIP3    H176160   4.591   6.134   4.627 -0.1319  1.0665  1.0195
18223TIP3    H276161   4.731   6.130   4.684  0.2662 -1.3743 -0.0411
18224TIP3   OH276162   5.956   5.188   6.685  1.0127  0.4234 -0.3319
18224TIP3    H176163   5.978   5.246   6.757  3.2467  1.4063 -1.7518
18224TIP3    H276164   6.007   5.108   6.701 -1.2173 -0.7863  1.0291
18225TIP3   OH276165   5.551   5.103  13.388  0.3593 -0.0746  0.0264
18225TIP3    H176166   5.602   5.095  13.469 -1.1840  0.8271  1.1022
18225TIP3    H276167   5.484   5.036  13.395  1.1411 -1.0007 -1.2194
18226TIP3   OH276168   3.909   3.387   3.415 -0.5683 -0.3459 -0.2118
18226TIP3    H176169   3.936   3.469   3.374 -1.7785  0.0801 -0.1796
18226TIP3    H276170   3.954   3.385   3.499 -1.1657  0.6947  0.1501
18227TIP3   OH276171   2.078   6.722  12.818  0.0107  0.4078 -0.2214
18227TIP3    H176172   2.018   6.789  12.851 -0.3908 -0.0632  0.0128
18227TIP3    H276173   2.096   6.666  12.893 -2.4506 -1.8280 -1.2036
18228TIP3   OH276174   4.546   2.058   0.865 -0.4815 -0.2563  0.2329
18228TIP3    H176175   4.565   2.119   0.794  0.9885 -0.8466  0.0889
18228TIP3    H276176   4.509   2.112   0.934  1.1348  0.8844  0.2507
18229TIP3   OH276177   2.193   2.120  14.530  0.6698  0.0637 -0.1578
18229TIP3    H176178   2.196   2.126  14.435 -0.8782  0.4310 -0.2010
18229TIP3    H276179   2.275   2.078  14.554  1.2331  0.2907 -1.6263
18230TIP3   OH276180   5.076   4.377  11.735 -0.0091 -0.1605 -0.2287
18230TIP3    H176181   5.055   4.329  11.655 -0.9462 -0.8262  0.4044
18230TIP3    H276182   5.158   4.339  11.765  0.1708 -0.1434 -0.6987
18231TIP3   OH276183   6.621   4.063  15.453  0.2053 -0.0316  0.1465
18231TIP3    H176184   6.573   4.028  15.528 -3.2620  0.1679 -1.8628
18231TIP3    H276185   6.703   4.013  15.451 -0.0030 -0.6201  3.4906
18232TIP3   OH276186   2.292   5.877   6.446 -0.3210  0.1869 -0.4473
18232TIP3    H176187   2.346   5.949   6.415 -1.2032  0.8836 -0.4023
18232TIP3    H276188   2.351   5.802   6.452  0.6222  0.9432 -0.3633
18233TIP3   OH276189   6.090   5.139  16.635 -0.1818  0.3809 -0.6696
18233TIP3    H176190   6.083   5.052  16.675 -0.7519  0.8547  0.2913
18233TIP3    H276191   6.005   5.180  16.652  0.3245  1.3846 -0.4761
18234TIP3   OH276192   0.090   6.195  16.640 -1.1380 -0.0770 -0.3903
18234TIP3    H176193   0.124   6.115  16.600 -1.3734 -1.3424  1.8553
18234TIP3    H276194   0.043   6.239  16.569  1.7114 -0.3050 -2.4867
18235TIP3   OH276195   0.590   0.666   5.120 -0.5109 -0.1714 -0.9203
18235TIP3    H176196   0.656   0.722   5.161 -2.0130  3.5901 -3.3705
18235TIP3    H276197   0.529   0.644   5.191  2.2440 -2.1430  0.9399
18236TIP3   OH276198   4.920   3.518   4.754  0.0527  0.3444  0.0281
18236TIP3    H176199   4.944   3.463   4.679 -0.3407 -0.8979  0.8119
18236TIP3    H276200   4.824   3.515   4.756  0.0242  1.1150  0.0422
18237TIP3   OH276201   1.092   5.423  12.536 -0.4645  0.0238 -0.5441
18237TIP3    H176202   1.134   5.502  12.569 -1.3904 -0.4770  1.9804
18237TIP3    H276203   0.998   5.443  12.538 -0.7201 -1.2044  0.3159
18238TIP3   OH276204   5.749   5.966  12.391 -0.0639 -0.3526  0.1725
18238TIP3    H176205   5.825   5.939  12.339  1.4062  1.4801  1.2957
18238TIP3    H276206   5.715   5.884  12.428  0.0102 -1.4461 -2.1265
18239TIP3   OH276207   4.859   6.355   3.073 -0.2170 -0.3566 -0.1189
18239TIP3    H176208   4.932   6.322   3.021  0.4867  0.4588  0.3465
18239TIP3    H276209   4.781   6.323   3.027  0.3958  0.1826 -1.5780
18240TIP3   OH276210   1.581   4.032   5.511 -0.0130  0.2553 -0.1574
18240TIP3    H176211   1.637   4.110   5.513 -0.6183  0.7853 -2.7590
18240TIP3    H276212   1.642   3.960   5.496  0.1179  0.7431 -2.1571
18241TIP3   OH276213   5.366   2.949   1.426 -0.5657 -0.1432 -0.0857
18241TIP3    H176214   5.455   2.972   1.450 -1.0746  1.4850  0.3077
18241TIP3    H276215   5.327   2.914   1.507 -0.6343  0.2460  0.0507
18242TIP3   OH276216   1.998   3.957   3.098  0.0986 -0.7803  0.1335
18242TIP3    H176217   2.061   3.961   3.027  2.3179  0.6485  2.1031
18242TIP3    H276218   2.013   4.038   3.148 -3.1435 -0.4990  0.7816
18243TIP3   OH276219   3.836   1.819   6.097 -0.2794  0.8121 -0.0668
18243TIP3    H176220   3.786   1.846   6.020 -1.0738 -3.5349 -1.1602
18243TIP3    H276221   3.773   1.769   6.150  1.4459 -0.0327  1.2310
18244TIP3   OH276222   5.007   3.104   4.524  0.5580  0.2028  0.0798
18244TIP3    H176223   5.010   3.127   4.617 -1.6313 -1.6775  0.6333
18244TIP3    H276224   5.077   3.040   4.513 -0.1868 -0.7313  0.7637
18245TIP3   OH276225   2.078   5.109  13.046 -0.2270 -0.4591  0.6271
18245TIP3    H176226   2.054   5.017  13.047 -0.1693 -0.4758  0.4068
18245TIP3    H276227   1.995   5.156  13.052 -0.3169 -0.5159 -0.1210
18246TIP3   OH276228   5.256   2.696  11.914 -0.2092  0.5022  0.4030
18246TIP3    H176229   5.259   2.792  11.920 -1.0603  0.6222 -0.8380
18246TIP3    H276230   5.348   2.670  11.906  0.1865  1.0456  2.9182
18247TIP3   OH276231   4.376   2.917   2.633  0.3171  0.1635 -0.0310
18247TIP3    H176232   4.357   2.834   2.676  4.0696 -0.2940  0.8384
18247TIP3    H276233   4.331   2.982   2.686 -0.2167 -1.0078  0.9922
18248TIP3   OH276234   5.274   6.491   2.587  0.1161  0.0982  1.0574
18248TIP3    H176235   5.318   6.406   2.591 -1.0392 -0.6628 -1.3716
18248TIP3    H276236   5.207   6.486   2.654 -0.7941 -1.4558  0.0714
18249TIP3   OH276237   4.907   5.298  15.453  0.3620 -0.3849 -0.1503
18249TIP3    H176238   4.930   5.258  15.537  1.5389  0.5738  0.0000
18249TIP3    H276239   4.922   5.392  15.467 -0.1161 -0.1477 -1.2158
18250TIP3   OH276240   6.497   0.972  15.397  0.2846  0.7799  0.3743
18250TIP3    H176241   6.467   0.891  15.354 -3.5597  1.1578  2.1759
18250TIP3    H276242   6.527   0.944  15.483  1.3096  0.9864  0.0971
18251TIP3   OH276243   1.039   2.260  11.610  0.3732 -0.7057  0.1152
18251TIP3    H176244   1.015   2.339  11.561  0.4544 -0.7613 -0.0161
18251TIP3    H276245   1.116   2.225  11.564 -0.8659 -1.9710 -1.0772
18252TIP3   OH276246   6.767   0.622  13.381  0.0511  0.1701 -0.4060
18252TIP3    H176247   6.842   0.579  13.422 -0.4782 -0.3679  0.0003
18252TIP3    H276248   6.765   0.709  13.419  0.1009 -0.0266  0.0469
18253TIP3   OH276249   5.029   3.234  11.337 -0.2301 -0.1738  0.0862
18253TIP3    H176250   5.019   3.328  11.321 -0.5980 -0.3421 -0.7537
18253TIP3    H276251   4.942   3.205  11.363 -0.2713 -0.3858 -0.2741
18254TIP3   OH276252   3.288   1.707   2.441  0.0193 -0.6104  0.1878
18254TIP3    H176253   3.321   1.624   2.407  1.4924  0.0961 -0.1268
18254TIP3    H276254   3.303   1.770   2.371  5.4827  1.4224  2.8619
18255TIP3   OH276255   4.959   4.508   4.919  0.9379 -0.4164  0.0581
18255TIP3    H176256   4.932   4.513   4.827 -3.0459 -2.4748  0.9945
18255TIP3    H276257   4.989   4.596   4.940 -0.4297  0.7451 -2.5616
18256TIP3   OH276258   6.389   3.513  15.917  0.4614  0.0209 -0.4112
18256TIP3    H176259   6.458   3.487  15.857  1.7276 -0.3476  1.1741
18256TIP3    H276260   6.356   3.431  15.954  0.6890  0.3283  0.4825
18257TIP3   OH276261   4.294   5.863   0.497  0.0979  0.3187  0.2359
18257TIP3    H176262   4.300   5.890   0.589 -0.1920  1.0058  0.0538
18257TIP3    H276263   4.219   5.912   0.463 -0.6867 -0.9994  0.0103
18258TIP3   OH276264   2.739   3.030  13.477 -0.3501  0.0915  0.0323
18258TIP3    H176265   2.692   3.018  13.560 -0.0812  0.9263  0.3075
18258TIP3    H276266   2.723   2.949  13.428 -1.1422 -0.0890  0.5884
18259TIP3   OH276267   1.033   0.450   3.559  0.0138  0.1310 -0.1796
18259TIP3    H176268   1.061   0.531   3.601  0.3546  0.0184 -0.1892
18259TIP3    H276269   1.068   0.380   3.614 -1.7163 -0.0190  0.7730
18260TIP3   OH276270   0.356   2.959  15.237  0.0329 -0.1453  0.0901
18260TIP3    H176271   0.397   2.893  15.293 -0.3297 -1.6055 -1.3104
18260TIP3    H276272   0.280   2.914  15.200  0.1592  0.8347 -1.3996
18261TIP3   OH276273   2.424   6.442  15.427  0.3865 -0.0227 -0.5701
18261TIP3    H176274   2.352   6.431  15.366  0.5005 -0.4129 -0.6326
18261TIP3    H276275   2.493   6.484  15.375  0.7787 -1.0980 -0.9249
18262TIP3   OH276276   3.854   4.316  10.574  0.3522  0.5142  0.3163
18262TIP3    H176277   3.866   4.231  10.532  1.6045  0.4311  0.8340
18262TIP3    H276278   3.759   4.328  10.576  0.1619 -0.8796  0.2467
18263TIP3   OH276279   3.168   1.545   0.715 -0.2617 -0.0885 -1.2940
18263TIP3    H176280   3.221   1.617   0.751  0.4203 -0.2242 -2.0093
18263TIP3    H276281   3.223   1.467   0.727 -1.4481 -0.6909  0.4884
18264TIP3   OH276282   4.306   2.665  14.104 -0.1037 -0.4379 -0.4418
18264TIP3    H176283   4.256   2.739  14.140  0.4645 -1.1746  1.9760
18264TIP3    H276284   4.239   2.600  14.081 -0.4160 -0.4754  0.5411
18265TIP3   OH276285   0.348   1.600   4.576  0.6139  0.2560  0.0784
18265TIP3    H176286   0.420   1.632   4.522  1.0107 -0.5336  0.1316
18265TIP3    H276287   0.317   1.521   4.532 -0.4126  0.7411 -0.0941
18266TIP3   OH276288   0.534   3.641   1.186  0.4899 -0.0872  0.2675
18266TIP3    H176289   0.536   3.710   1.119  0.2417  0.8813  1.2367
18266TIP3    H276290   0.442   3.619   1.194  0.6551 -1.1277 -0.6304
18267TIP3   OH276291   4.697   2.174   0.081  0.0352 -0.8814  0.2362
18267TIP3    H176292   4.756   2.249   0.094  0.3923 -1.3544  1.4911
18267TIP3    H276293   4.742   2.119   0.017 -0.0240 -0.2331 -0.3678
18268TIP3   OH276294   3.565   2.898  15.121  0.1152 -0.2616  0.3289
18268TIP3    H176295   3.557   2.803  15.107 -1.0398 -0.7089  3.4847
18268TIP3    H276296   3.481   2.924  15.157  0.5819  1.9080 -0.1162
18269TIP3   OH276297   1.520   5.791  12.678  0.0605  0.0391  0.5030
18269TIP3    H176298   1.442   5.747  12.713  0.5410 -0.6153  0.7772
18269TIP3    H276299   1.590   5.726  12.688  0.2389 -0.1309 -1.5915
18270TIP3   OH276300   6.644   3.979   5.049 -0.1063  0.0781 -0.7734
18270TIP3    H176301   6.647   3.932   5.133  4.1504  0.3119 -0.6748
18270TIP3    H276302   6.610   3.915   4.987 -0.6072 -1.0163  0.5929
18271TIP3   OH276303   2.817   4.622  10.092  0.7321 -0.0493 -0.2223
18271TIP3    H176304   2.843   4.708  10.124  0.0920 -0.4811  1.5120
18271TIP3    H276305   2.897   4.569  10.100  0.4108 -0.3348  1.3791
18272TIP3   OH276306   6.573   1.816   2.565 -0.6289 -0.0376 -0.5734
18272TIP3    H176307   6.557   1.866   2.645 -1.3141  0.9912 -1.3463
18272TIP3    H276308   6.529   1.732   2.580  0.0832 -0.2371  0.5154
18273TIP3   OH276309   2.931   0.923   2.593  0.4729 -0.2135 -0.6737
18273TIP3    H176310   2.836   0.920   2.582  0.2727 -2.5583  1.1630
18273TIP3    H276311   2.961   0.987   2.528 -2.4262  1.2237 -0.6966
18274TIP3   OH276312   5.888   1.514   4.249 -0.3925  0.3587  0.3493
18274TIP3    H176313   5.796   1.526   4.228  0.0740  0.0118 -2.0230
18274TIP3    H276314   5.906   1.423   4.227  0.3268  0.1677  1.6500
18275TIP3   OH276315   4.304   0.934  16.399 -0.2375 -0.4796  0.1336
18275TIP3    H176316   4.288   0.937  16.304 -0.3549 -1.3880  0.1124
18275TIP3    H276317   4.219   0.953  16.438 -0.7394 -2.4400  0.0392
18276TIP3   OH276318   1.396   5.148   5.102  0.1009 -0.1798  0.3034
18276TIP3    H176319   1.369   5.154   5.194  0.5018 -0.2626  0.4323
18276TIP3    H276320   1.321   5.180   5.052  0.1573  0.5714  0.6956
18277TIP3   OH276321   2.939   3.928   6.474  0.0853  0.4095 -0.2930
18277TIP3    H176322   2.847   3.940   6.495  0.4763  2.1507  0.5872
18277TIP3    H276323   2.954   3.834   6.483 -1.5314  0.1507 -0.1778
18278TIP3   OH276324   6.610   4.663   6.494 -0.1717  0.4477 -0.1654
18278TIP3    H176325   6.696   4.694   6.467 -0.2519  4.0302  3.1768
18278TIP3    H276326   6.548   4.724   6.451 -0.7666  0.5531  0.8241
18279TIP3   OH276327   5.187   6.775   3.634 -0.3757 -0.2092 -0.2417
18279TIP3    H176328   5.161   6.740   3.549 -1.7587  1.4881 -0.5405
18279TIP3    H276329   5.140   6.858   3.642 -1.6449 -1.1284  2.9156
18280TIP3   OH276330   5.747   2.217   1.732  0.2554  0.0476  0.1390
18280TIP3    H176331   5.824   2.256   1.773  1.5776 -1.3276 -1.0225
18280TIP3    H276332   5.721   2.281   1.665  1.1018 -0.0640 -0.2897
18281TIP3   OH276333   3.243   5.558  10.955 -0.1159  0.3487  0.1863
18281TIP3    H176334   3.207   5.518  10.875 -0.5932 -0.2614  0.6985
18281TIP3    H276335   3.304   5.492  10.989  0.8337  1.0148 -0.1960
18282TIP3   OH276336   3.088   4.062  14.491  0.4680  0.6769  0.0709
18282TIP3    H176337   3.021   4.021  14.545  0.9953  0.5285  0.6188
18282TIP3    H276338   3.043   4.084  14.410 -0.3224  0.8813  0.5604
18283TIP3   OH276339   2.426   5.451  13.279  0.3195  0.1014  0.5699
18283TIP3    H176340   2.521   5.442  13.291  0.3942 -2.0665 -1.4495
18283TIP3    H276341   2.388   5.414  13.359  1.1461  0.7496  1.2746
18284TIP3   OH276342   2.692   0.037   1.517  0.9282  0.0846  0.2170
18284TIP3    H176343   2.741   0.085   1.584  0.8264  1.7703 -0.8921
18284TIP3    H276344   2.607   0.080   1.512  0.4769 -0.8213 -0.1129
18285TIP3   OH276345   4.056   5.119  15.928  0.1696 -0.1212 -0.3456
18285TIP3    H176346   4.035   5.195  15.982  0.4792 -0.7907  0.7385
18285TIP3    H276347   4.078   5.050  15.991  1.8582 -0.5391 -1.3538
18286TIP3   OH276348   4.678   5.608  12.943 -0.0466  0.0594  0.4978
18286TIP3    H176349   4.648   5.556  12.868 -1.6094 -0.6686  1.6088
18286TIP3    H276350   4.669   5.699  12.914  0.3614 -0.2342 -0.5775
18287TIP3   OH276351   1.244   3.276  16.258 -0.3918  0.7259 -0.1605
18287TIP3    H176352   1.323   3.325  16.280  0.6637 -0.7203 -0.6420
18287TIP3    H276353   1.202   3.259  16.343  1.9132 -1.9362  0.5243
18288TIP3   OH276354   4.535   5.257   3.667 -0.8695 -0.1349 -0.3533
18288TIP3    H176355   4.520   5.340   3.621 -1.1150  0.1100  0.1649
18288TIP3    H276356   4.594   5.280   3.739 -2.5752 -0.0139  1.0254
18289TIP3   OH276357   5.260   6.207   6.283  0.3245  0.5245 -0.3371
18289TIP3    H176358   5.219   6.288   6.314  2.4209  1.0359  1.2310
18289TIP3    H276359   5.340   6.200   6.335  0.9887 -1.7088 -1.6193
18290TIP3   OH276360   5.660   6.564  15.645  0.4076  0.8613 -0.1308
18290TIP3    H176361   5.719   6.490  15.635 -0.1851 -0.0979  2.7693
18290TIP3    H276362   5.713   6.632  15.686  0.8969  1.9988 -2.5995
18291TIP3   OH276363   0.009   5.682   4.503  0.1178  0.0100  0.2884
18291TIP3    H176364   0.089   5.713   4.547 -0.8132  0.8554  1.4271
18291TIP3    H276365   0.027   5.693   4.410  2.1259 -1.7898  0.4350
18292TIP3   OH276366   3.666   2.693  16.933  0.3542 -0.2182 -0.2069
18292TIP3    H176367   3.581   2.679  16.892  0.4984 -1.9518  0.0477
18292TIP3    H276368   3.684   2.786  16.921 -0.7211 -0.2153 -1.9053
18293TIP3   OH276369   0.499   2.605  10.914 -0.0319  0.2494 -0.0663
18293TIP3    H176370   0.445   2.646  10.982 -0.3098 -1.0051  0.4745
18293TIP3    H276371   0.488   2.662  10.837 -1.7138  0.2929  0.1954
18294TIP3   OH276372   2.460   1.464  15.185  0.4700  0.1152  0.6157
18294TIP3    H176373   2.543   1.512  15.181 -0.8560  2.4300 -0.2849
18294TIP3    H276374   2.402   1.522  15.235 -1.5123 -0.0502 -1.4404
18295TIP3   OH276375   3.699   5.660   1.429  0.0666 -0.3834  0.2747
18295TIP3    H176376   3.753   5.688   1.503  0.0055  1.9668 -0.5166
18295TIP3    H276377   3.760   5.652   1.356 -0.3667  0.7577 -0.2400
18296TIP3   OH276378   3.303   1.638   1.025  0.3924 -0.2007  0.1081
18296TIP3    H176379   3.397   1.626   1.010  0.6212  0.2456  1.1794
18296TIP3    H276380   3.284   1.726   0.993  0.7235  0.4449  1.6586
18297TIP3   OH276381   2.225   2.110  15.884 -0.1389 -0.3861  0.5292
18297TIP3    H176382   2.150   2.154  15.923  0.5885  0.9761  0.4400
18297TIP3    H276383   2.236   2.153  15.799  0.0565 -1.3511  0.0581
18298TIP3   OH276384   0.130   0.569   4.925  0.2152 -0.0674 -0.4265
18298TIP3    H176385   0.068   0.621   4.874  0.8358  1.2845  0.1807
18298TIP3    H276386   0.207   0.626   4.936  1.7803 -1.9062 -1.6061
18299TIP3   OH276387   5.265   1.090  16.287  0.6191 -1.2318 -0.1435
18299TIP3    H176388   5.253   1.043  16.205  1.7344  1.4683 -1.9015
18299TIP3    H276389   5.357   1.117  16.288  0.5955 -1.0849  1.9178
18300TIP3   OH276390   2.949   4.790  16.788 -0.0560  0.2100  0.0039
18300TIP3    H176391   2.990   4.872  16.759  1.4800 -0.6314 -0.2736
18300TIP3    H276392   2.901   4.813  16.867 -1.5243  1.8541 -1.3265
18301TIP3   OH276393   2.898   0.410  15.832 -0.1743  0.4511 -0.1913
18301TIP3    H176394   2.974   0.463  15.855 -0.5311  1.4352 -1.2767
18301TIP3    H276395   2.851   0.399  15.914 -1.0230  3.2768 -0.2457
18302TIP3   OH276396   5.884   1.075   2.938  0.2619 -0.2487  0.0654
18302TIP3    H176397   5.968   1.053   2.980  0.1666 -1.1259 -0.1818
18302TIP3    H276398   5.824   1.091   3.010  0.5855  0.1613  0.2461
18303TIP3   OH276399   6.578   4.537  16.267 -0.1058 -0.5307 -0.0802
18303TIP3    H176400   6.538   4.619  16.298  1.4684  0.4080 -0.4853
18303TIP3    H276401   6.589   4.485  16.347 -0.4004 -0.0330  0.2915
18304TIP3   OH276402   6.444   4.220   0.799 -0.1621 -0.3461  0.1563
18304TIP3    H176403   6.383   4.252   0.733  1.5369 -1.2663 -1.9058
18304TIP3    H276404   6.439   4.125   0.793  0.4592 -0.4356  0.9338
18305TIP3   OH276405   2.115   4.954   2.629  0.3324  0.3891  0.2872
18305TIP3    H176406   2.038   4.899   2.615  0.9403  0.4767 -4.4498
18305TIP3    H276407   2.085   5.043   2.608  1.6770  0.3985 -1.7494
18306TIP3   OH276408   5.720   5.636   1.797 -0.0452  0.2338  0.2493
18306TIP3    H176409   5.659   5.563   1.790  1.8686 -1.3433 -0.4691
18306TIP3    H276410   5.678   5.697   1.858 -2.2202 -0.8955 -0.0772
18307TIP3   OH276411   1.524   5.764  16.009  0.1616 -0.1294  0.2290
18307TIP3    H176412   1.528   5.819  15.931  0.4526  0.4412  0.6388
18307TIP3    H276413   1.615   5.754  16.036  0.0851 -0.5499  0.3437
18308TIP3   OH276414   2.149   3.993  11.146  1.0389  0.3186 -0.4299
18308TIP3    H176415   2.178   4.067  11.094 -0.7176 -0.0960 -2.0271
18308TIP3    H276416   2.185   3.916  11.100 -0.3559 -0.0369 -0.9378
18309TIP3   OH276417   1.698   4.537  12.798 -0.1617  0.4790 -0.1226
18309TIP3    H176418   1.660   4.492  12.873  0.4948  0.6088  0.2921
18309TIP3    H276419   1.662   4.492  12.722  0.4043 -0.6665  0.2839
18310TIP3   OH276420   5.215   1.857  10.886 -0.0944  0.3747  0.0575
18310TIP3    H176421   5.273   1.931  10.875  1.0159 -0.4312  0.4023
18310TIP3    H276422   5.201   1.823  10.798  0.2971  0.3252  0.0138
18311TIP3   OH276423   1.944   2.497   1.795  0.0231  0.0393 -0.2075
18311TIP3    H176424   2.025   2.449   1.809 -0.7466 -1.4122 -0.6099
18311TIP3    H276425   1.896   2.444   1.731 -1.7243  0.3089  0.8605
18312TIP3   OH276426   4.435   3.157  12.010  0.1276  0.1216  0.3651
18312TIP3    H176427   4.490   3.193  12.079 -0.1418  1.2471  0.0077
18312TIP3    H276428   4.483   3.082  11.977  0.6302  0.0558  1.2376
18313TIP3   OH276429   0.177   2.515  12.529  0.5006 -0.3699 -0.1640
18313TIP3    H176430   0.114   2.455  12.570 -0.2324 -0.0634 -0.8248
18313TIP3    H276431   0.263   2.483  12.557  0.0215 -0.2650  1.4797
18314TIP3   OH276432   2.748   5.909  14.216  0.7435  0.0851 -0.0311
18314TIP3    H176433   2.838   5.942  14.217  0.7388  0.0967  0.0024
18314TIP3    H276434   2.733   5.875  14.304  0.8594 -0.3039 -0.1621
18315TIP3   OH276435   2.444   0.933  13.045 -1.1164  0.3944  0.1464
18315TIP3    H176436   2.477   1.012  13.002 -0.2498 -0.9023 -1.6236
18315TIP3    H276437   2.420   0.962  13.133  2.4063  1.9142  0.6734
18316TIP3   OH276438   6.611   2.425   0.192  0.2434 -0.2262  0.4891
18316TIP3    H176439   6.653   2.503   0.155  0.7113  0.0628  1.6204
18316TIP3    H276440   6.599   2.445   0.284 -1.4452 -0.7267  0.3959
18317TIP3   OH276441   2.357   5.829  14.724  0.3716 -0.1654  0.1247
18317TIP3    H176442   2.426   5.762  14.720  0.1208 -0.4851  0.9711
18317TIP3    H276443   2.298   5.797  14.792 -0.6166  0.1108 -0.6002
18318TIP3   OH276444   0.583   4.478  11.422 -0.1549  0.2062 -0.0129
18318TIP3    H176445   0.564   4.395  11.379  1.3114 -0.2043  0.0940
18318TIP3    H276446   0.658   4.513  11.375  0.1254  0.7852  0.8490
18319TIP3   OH276447   3.734   5.518   0.565  0.2744  0.3631 -0.3645
18319TIP3    H176448   3.805   5.581   0.574  1.2010 -0.4271 -1.8600
18319TIP3    H276449   3.769   5.437   0.602 -0.2545  0.2535 -0.0945
18320TIP3   OH276450   0.477   6.631   1.839 -0.2487  0.9018 -0.5808
18320TIP3    H176451   0.521   6.567   1.895 -0.1781  0.6288 -0.9446
18320TIP3    H276452   0.499   6.604   1.750 -2.1020  0.0941 -0.7995
18321TIP3   OH276453   6.684   3.115  14.840 -0.0734  0.2560 -0.0310
18321TIP3    H176454   6.750   3.181  14.816 -0.5690  0.5697 -0.5361
18321TIP3    H276455   6.731   3.053  14.895  0.3077  1.2515  0.7690
18322TIP3   OH276456   1.225   0.060  16.773  0.0990 -0.2388  0.3567
18322TIP3    H176457   1.182   0.006  16.840 -1.1353 -0.9446 -0.9631
18322TIP3    H276458   1.175   0.142  16.773  0.9846  0.3046  1.2713
18323TIP3   OH276459   6.000   3.476   3.525 -0.2678 -0.2228 -0.9438
18323TIP3    H176460   5.917   3.487   3.570  0.8382  1.4393  0.7831
18323TIP3    H276461   6.012   3.556   3.474  1.0887  0.3885  0.2727
18324TIP3   OH276462   2.589   5.885   2.452  0.3380  0.7550 -0.5159
18324TIP3    H176463   2.549   5.853   2.533  1.8544 -1.3200 -0.5405
18324TIP3    H276464   2.652   5.951   2.481  2.0924 -1.1657  0.2068
18325TIP3   OH276465   1.578   5.226  16.616 -0.1949  0.3376 -0.2270
18325TIP3    H176466   1.579   5.316  16.649 -2.0385  0.5870 -0.7834
18325TIP3    H276467   1.510   5.183  16.667 -0.6720 -0.2079 -1.2997
18326TIP3   OH276468   5.227   3.381  12.200  0.0146 -0.1426 -0.7741
18326TIP3    H176469   5.230   3.472  12.170 -0.7053 -0.6130 -2.2910
18326TIP3    H276470   5.284   3.334  12.140 -0.0328 -0.7883 -0.3155
18327TIP3   OH276471   2.301   0.546  14.084  0.2225  0.4070 -1.2308
18327TIP3    H176472   2.219   0.593  14.097  1.1127  1.2688  1.8062
18327TIP3    H276473   2.358   0.607  14.037 -0.8519 -0.2215 -3.4083
18328TIP3   OH276474   0.136   6.198  16.912 -0.6156  0.5023  0.0750
18328TIP3    H176475   0.096   6.184  16.826 -0.9599 -1.3758  0.5116
18328TIP3    H276476   0.061   6.211  16.971 -0.4338  0.6371  0.2723
18329TIP3   OH276477   4.387   3.818   4.738  0.0702 -0.0177 -0.5797
18329TIP3    H176478   4.397   3.870   4.818  1.7795  1.0638 -1.4492
18329TIP3    H276479   4.450   3.747   4.748  0.4540  0.2515 -1.0449
18330TIP3   OH276480   4.896   2.132  16.100 -0.0771  0.2871  0.3798
18330TIP3    H176481   4.906   2.197  16.170 -1.7422 -1.1163  1.9673
18330TIP3    H276482   4.934   2.052  16.136  1.2607  0.1263 -1.2805
18331TIP3   OH276483   1.587   1.255  13.837 -0.0860  0.1498  0.0373
18331TIP3    H176484   1.503   1.269  13.794  0.1787 -0.5966 -0.7573
18331TIP3    H276485   1.614   1.341  13.867 -0.6256  0.5677 -0.6721
18332TIP3   OH276486   4.724   4.229   0.944  0.1851  0.1299  0.3258
18332TIP3    H176487   4.804   4.282   0.939  0.0433  0.4445  1.3239
18332TIP3    H276488   4.657   4.289   0.976 -0.5010 -0.0885 -0.6786
18333TIP3   OH276489   3.898   1.694   5.379 -0.3593 -0.0758 -0.0551
18333TIP3    H176490   3.933   1.607   5.358 -1.7478 -0.1767 -2.1927
18333TIP3    H276491   3.806   1.690   5.353 -0.1480  2.4165 -1.3976
18334TIP3   OH276492   0.064   5.029   0.323  0.5858 -0.0308  0.0201
18334TIP3    H176493   0.043   5.077   0.243  0.3441 -1.9588 -1.1137
18334TIP3    H276494   0.108   4.950   0.292  1.2930 -0.3739  1.8625
18335TIP3   OH276495   5.234   3.135   0.367 -1.4393  0.3401 -0.2033
18335TIP3    H176496   5.222   3.042   0.347  1.7857 -0.0671 -0.5447
18335TIP3    H276497   5.295   3.166   0.300  0.9329  1.6141  2.4397
18336TIP3   OH276498   1.674   4.604   5.131  1.1569  0.0926  0.3676
18336TIP3    H176499   1.616   4.676   5.106  1.5796  0.3570  0.1457
18336TIP3    H276500   1.615   4.530   5.148  0.8493 -0.0193 -1.1362
18337TIP3   OH276501   4.051   4.262  16.145  0.0629 -0.0872  0.3394
18337TIP3    H176502   4.090   4.280  16.060 -2.3125  0.0472 -0.7482
18337TIP3    H276503   4.030   4.348  16.181 -0.5216 -0.2058  0.2899
18338TIP3   OH276504   1.280   0.100  15.238 -0.1264  0.5003  0.4653
18338TIP3    H176505   1.355   0.118  15.181 -0.7869 -0.2721 -0.6677
18338TIP3    H276506   1.269   0.181  15.289  1.0924  0.8353  0.2231
18339TIP3   OH276507   4.238   3.155   1.163  0.1769 -0.1564  0.0663
18339TIP3    H176508   4.314   3.172   1.108  0.2806 -0.7581  0.0199
18339TIP3    H276509   4.229   3.059   1.163 -1.9357 -0.0137 -1.8019
18340TIP3   OH276510   3.494   3.932  13.264 -0.0858  0.4787 -0.1139
18340TIP3    H176511   3.500   3.972  13.177  1.4760  1.8509  0.6030
18340TIP3    H276512   3.405   3.950  13.293 -0.7066 -0.2367 -1.5327
18341TIP3   OH276513   0.805   4.364  15.971  0.5797  0.1448 -0.5716
18341TIP3    H176514   0.800   4.269  15.961  2.5509  0.1047 -1.4250
18341TIP3    H276515   0.876   4.377  16.035  0.8175  1.0668 -1.0230
18342TIP3   OH276516   3.820   1.370  12.420 -0.1875 -0.1616  0.4910
18342TIP3    H176517   3.840   1.432  12.491 -0.1974  0.3973  0.0061
18342TIP3    H276518   3.901   1.319  12.411  0.4543  0.9856 -0.3305
18343TIP3   OH276519   2.518   6.362  13.922 -0.5099  0.0020 -0.5241
18343TIP3    H176520   2.590   6.319  13.876 -0.6413 -0.9430  0.1474
18343TIP3    H276521   2.561   6.422  13.984 -0.2828 -0.7749  0.0823
18344TIP3   OH276522   2.541   2.891  16.609  0.1711  0.1815  0.0087
18344TIP3    H176523   2.504   2.979  16.604  0.7736  0.4837  0.7986
18344TIP3    H276524   2.476   2.841  16.660 -0.4168  0.0334 -0.8812
18345TIP3   OH276525   3.539   3.671  15.901 -0.4404 -0.0558 -0.3742
18345TIP3    H176526   3.461   3.647  15.951  0.3886 -0.9124  0.5314
18345TIP3    H276527   3.601   3.600  15.917  0.1314  0.0370 -1.9989
18346TIP3   OH276528   5.140   0.258  16.751 -0.2788  0.1728  0.3898
18346TIP3    H176529   5.064   0.317  16.749  1.4529  2.4688  0.7620
18346TIP3    H276530   5.198   0.290  16.683  0.2905 -1.7060 -0.0327
18347TIP3   OH276531   5.385   2.629  13.708 -0.4200  0.4251 -0.2969
18347TIP3    H176532   5.336   2.672  13.777  0.3966  1.3331 -0.2645
18347TIP3    H276533   5.401   2.540  13.741  0.3601  0.9940  0.8705
18348TIP3   OH276534   0.597   2.964  15.578 -0.6237 -0.4906  0.0825
18348TIP3    H176535   0.547   2.907  15.519 -0.0944 -1.1019  0.2151
18348TIP3    H276536   0.688   2.934  15.568 -0.8232 -2.2158  2.9859
18349TIP3   OH276537   4.389   5.023  15.381 -0.1173  0.8894  0.2743
18349TIP3    H176538   4.396   5.083  15.455 -0.1163  0.1375  0.8956
18349TIP3    H276539   4.469   5.038  15.330  0.6633  0.2697  1.2998
18350TIP3   OH276540   4.493   4.944  11.215 -0.1407 -0.1481  0.0286
18350TIP3    H176541   4.437   4.882  11.262  0.2137 -0.4704  0.0359
18350TIP3    H276542   4.546   4.888  11.158  0.3594  0.1283  0.2202
18351TIP3   OH276543   4.007   3.947   2.134  0.6909 -0.1190 -0.2068
18351TIP3    H176544   4.019   4.011   2.205  2.5266  0.0379 -0.6353
18351TIP3    H276545   4.015   3.862   2.177  2.4344 -0.0205 -0.3042
18352TIP3   OH276546   2.450   2.985   0.832  0.3824 -0.2631 -0.2260
18352TIP3    H176547   2.431   2.979   0.739  1.1522  0.1854 -0.4174
18352TIP3    H276548   2.528   2.929   0.845  0.1541 -0.4950  0.1867
18353TIP3   OH276549   4.879   3.152   0.054 -0.1276  0.5173 -0.0052
18353TIP3    H176550   4.890   3.204  -0.026  0.2723 -0.4552 -0.5938
18353TIP3    H276551   4.834   3.072   0.025 -3.2493  1.7042  1.3351
18354TIP3   OH276552   4.365   3.911  16.750  0.6482 -0.3831  0.5176
18354TIP3    H176553   4.276   3.945  16.756  0.2863 -1.4092  0.9238
18354TIP3    H276554   4.370   3.872  16.663  0.8414  0.0378  0.3343
18355TIP3   OH276555   4.833   2.160   2.846  0.4498  0.3437  0.1576
18355TIP3    H176556   4.815   2.069   2.870 -1.3699  0.9877  1.3589
18355TIP3    H276557   4.919   2.178   2.883  1.0772 -1.0361 -0.5729
18356TIP3   OH276558   6.570   4.545   3.870  0.0810  0.2784 -0.0323
18356TIP3    H176559   6.653   4.581   3.840  0.6334 -0.0317  1.1013
18356TIP3    H276560   6.587   4.515   3.959 -0.7589 -1.4251 -0.4149
18357TIP3   OH276561   1.875   1.003  12.373 -0.1761 -0.3077 -0.9314
18357TIP3    H176562   1.869   1.087  12.327  0.0271  0.1865 -0.0624
18357TIP3    H276563   1.819   0.944  12.322  0.9006 -0.0501 -2.4363
18358TIP3   OH276564   5.124   5.069   0.967  0.2477  0.2409  0.3648
18358TIP3    H176565   5.181   5.038   1.038  2.0076 -2.2962 -2.0660
18358TIP3    H276566   5.152   5.159   0.952  0.3899  0.5547  2.3431
18359TIP3   OH276567   5.605   4.416  11.364 -0.1718 -0.2684 -1.1818
18359TIP3    H176568   5.638   4.496  11.405  1.0065 -0.8890 -0.8855
18359TIP3    H276569   5.676   4.389  11.306 -0.6714 -0.9637 -1.4658
18360TIP3   OH276570   6.403   2.724  12.575  0.2435  0.2624  0.2628
18360TIP3    H176571   6.379   2.638  12.607  2.5185 -0.0155  1.3388
18360TIP3    H276572   6.479   2.749  12.629  0.2433  2.4829 -0.7140
18361TIP3   OH276573   6.584   2.558  14.095 -0.2845 -1.0483 -0.2378
18361TIP3    H176574   6.501   2.526  14.130 -0.7340  1.8295  1.4489
18361TIP3    H276575   6.571   2.652  14.084  2.1058 -0.8654 -1.8921
18362TIP3   OH276576   1.421   3.806  12.981 -0.4697 -0.3466 -0.3575
18362TIP3    H176577   1.460   3.788  13.066 -1.3185 -0.7114 -0.0414
18362TIP3    H276578   1.344   3.750  12.977  0.8547 -2.1278 -2.3484
18363TIP3   OH276579   2.949   6.076   6.179 -0.6898  0.3205 -0.0461
18363TIP3    H176580   2.886   6.014   6.143 -2.1648  0.3035  2.4415
18363TIP3    H276581   2.896   6.151   6.207  0.7719  1.6643 -0.7563
18364TIP3   OH276582   5.628   0.646  12.916  0.2889  0.3926  0.4765
18364TIP3    H176583   5.716   0.615  12.896  0.1893  1.4614 -1.7122
18364TIP3    H276584   5.641   0.722  12.972  0.7628  0.8104 -0.2091
18365TIP3   OH276585   5.255   0.432  17.059  0.0041  0.3348  0.5417
18365TIP3    H176586   5.251   0.337  17.069 -0.3630  0.1468 -1.1981
18365TIP3    H276587   5.327   0.446  16.997  0.8932  1.2823  1.7728
18366TIP3   OH276588   2.546   3.377   2.377  0.1329  0.7470  0.3714
18366TIP3    H176589   2.536   3.282   2.369  1.7333  0.5584  0.4730
18366TIP3    H276590   2.475   3.414   2.324 -0.6878 -0.5041  0.5902
18367TIP3   OH276591   4.709   4.705   0.401  0.1472  0.6741 -0.2427
18367TIP3    H176592   4.629   4.722   0.351 -1.3125  1.8893  2.4150
18367TIP3    H276593   4.740   4.792   0.427  0.0672  0.0108  2.1563
18368TIP3   OH276594   3.312   1.777  11.821 -0.7494  0.0300  0.3721
18368TIP3    H176595   3.293   1.686  11.842 -1.1067  0.5008  2.1325
18368TIP3    H276596   3.328   1.819  11.905  0.1649  1.4349 -0.4762
18369TIP3   OH276597   4.361   0.065   4.687 -0.1952 -0.2654 -0.5995
18369TIP3    H176598   4.293   0.055   4.754  0.4402  0.1281  0.1183
18369TIP3    H276599   4.319   0.112   4.616 -0.9155 -0.7903 -0.5248
18370TIP3   OH276600   2.374   1.500   2.209  0.3846 -0.3580 -1.0272
18370TIP3    H176601   2.392   1.567   2.274  1.3780 -0.5662 -1.0820
18370TIP3    H276602   2.283   1.516   2.183  0.3417  0.4265 -0.4186
18371TIP3   OH276603   0.577   2.590  15.142 -0.3454 -0.4645  0.0104
18371TIP3    H176604   0.645   2.561  15.202 -0.6439  1.4318  1.3139
18371TIP3    H276605   0.623   2.644  15.078 -0.7319  1.9245  1.6574
18372TIP3   OH276606   1.380   2.301  11.979 -0.2401 -0.0653 -0.1600
18372TIP3    H176607   1.291   2.335  11.971 -0.4257 -0.2465  1.0969
18372TIP3    H276608   1.380   2.252  12.061  0.4598 -1.7770 -1.1522
18373TIP3   OH276609   2.990   5.008  10.987  0.0951  0.4847  0.5613
18373TIP3    H176610   2.964   4.927  11.031 -2.8258  1.1491  0.1854
18373TIP3    H276611   2.988   4.986  10.894  0.5143  0.6689  0.5058
18374TIP3   OH276612   0.113   6.427   5.992  0.2595 -0.2447  0.1389
18374TIP3    H176613   0.086   6.335   5.999  0.5467 -0.2907  0.6459
18374TIP3    H276614   0.059   6.462   5.921 -0.6420 -0.5212  0.6669
18375TIP3   OH276615   5.914   2.691   5.247  0.1813  0.6969  0.3943
18375TIP3    H176616   5.855   2.709   5.174 -0.8387  0.5008  1.1576
18375TIP3    H276617   6.000   2.717   5.215 -0.3395  1.1452 -0.6772
18376TIP3   OH276618   2.047   5.721  15.185 -0.3107  0.2536 -0.1739
18376TIP3    H176619   1.987   5.685  15.251  1.6955 -0.5657  1.2713
18376TIP3    H276620   2.107   5.775  15.236  1.6922 -0.9281 -1.2219
18377TIP3   OH276621   4.000   1.783  14.355  0.2724  0.1201 -0.7934
18377TIP3    H176622   3.933   1.772  14.423 -0.7667 -0.3593 -1.8630
18377TIP3    H276623   4.013   1.877  14.348  1.1464  0.1321  0.7821
18378TIP3   OH276624   1.491   3.070  14.361  0.3759  0.2449 -0.4758
18378TIP3    H176625   1.539   3.116  14.429  1.2194 -0.7300 -0.3918
18378TIP3    H276626   1.551   3.002  14.331 -1.1985 -1.5075  0.1747
18379TIP3   OH276627   2.160   3.921   5.016 -0.1933 -0.1300  0.7602
18379TIP3    H176628   2.209   3.839   5.004  2.9622  1.4760  2.1013
18379TIP3    H276629   2.180   3.948   5.105  0.3907  3.1201 -0.3043
18380TIP3   OH276630   2.478   2.259  16.654 -0.2631 -0.1160  0.3188
18380TIP3    H176631   2.537   2.255  16.729  1.2404  1.6155 -0.7320
18380TIP3    H276632   2.410   2.321  16.679 -0.1581 -0.0792  0.5107
18381TIP3   OH276633   4.120   2.467   1.047 -0.8870  0.0881 -0.2166
18381TIP3    H176634   4.040   2.492   1.094 -0.7295 -0.2358  0.2307
18381TIP3    H276635   4.119   2.371   1.050 -0.6561  0.0781 -0.5082
18382TIP3   OH276636   4.483   3.858   2.125 -0.0077 -0.1734 -0.7815
18382TIP3    H176637   4.511   3.936   2.077 -0.7152  1.2816  1.1118
18382TIP3    H276638   4.531   3.862   2.208 -2.1224 -0.2189  0.4866
18383TIP3   OH276639   0.471   1.809   3.114  0.2325 -0.3906  0.0063
18383TIP3    H176640   0.490   1.862   3.192  0.4219  0.6744 -0.7548
18383TIP3    H276641   0.556   1.778   3.085  0.3022  0.2935 -0.5301
18384TIP3   OH276642   4.515   0.516   0.135 -0.0945  0.4265 -0.0468
18384TIP3    H176643   4.563   0.501   0.054 -0.0202 -3.2541  0.6062
18384TIP3    H276644   4.427   0.483   0.117 -0.2502  0.1556  1.1444
18385TIP3   OH276645   3.076   0.922   4.645 -0.0163 -0.4009 -0.1308
18385TIP3    H176646   3.130   1.000   4.660  1.5802 -1.1475 -1.8118
18385TIP3    H276647   2.999   0.955   4.599  1.7632 -0.1072 -2.9763
18386TIP3   OH276648   2.975   1.196  14.434 -0.2693  0.5293  0.7677
18386TIP3    H176649   2.935   1.255  14.371 -1.7539 -1.6895 -0.4529
18386TIP3    H276650   3.068   1.220  14.434  0.4952 -1.4956 -4.8602
18387TIP3   OH276651   4.222   4.458  13.280  0.4932 -0.0257  0.0905
18387TIP3    H176652   4.296   4.449  13.221  1.2203  0.3059  0.9346
18387TIP3    H276653   4.227   4.549  13.310 -1.3479  0.5446 -1.2841
18388TIP3   OH276654   4.235   2.633  15.420 -0.0846 -0.4047  0.0918
18388TIP3    H176655   4.201   2.705  15.474 -1.3822  0.3289 -1.6486
18388TIP3    H276656   4.201   2.554  15.462 -1.2680  0.1654  0.2323
18389TIP3   OH276657   4.636   6.389  15.801 -0.4111 -0.8302  0.3407
18389TIP3    H176658   4.637   6.322  15.733 -0.8155 -0.1294 -0.3664
18389TIP3    H276659   4.678   6.464  15.761 -1.8574  0.0302  0.4024
18390TIP3   OH276660   4.739   6.313  11.147 -0.2017  0.1097  0.1479
18390TIP3    H176661   4.754   6.324  11.053 -1.1984 -0.2164 -0.0618
18390TIP3    H276662   4.646   6.292  11.153  0.2637 -1.7421  1.0628
18391TIP3   OH276663   3.972   2.816  13.914 -0.0634 -0.1650  0.0571
18391TIP3    H176664   4.032   2.745  13.937  0.4140 -0.1693 -1.1619
18391TIP3    H276665   4.022   2.871  13.853 -0.4158  1.2367  0.9952
18392TIP3   OH276666   2.727   4.068   3.658 -0.1296  0.1252 -0.3365
18392TIP3    H176667   2.805   4.104   3.616  0.1755  0.8753  0.8515
18392TIP3    H276668   2.706   4.130   3.728 -1.1592 -0.6331  0.0472
18393TIP3   OH276669   3.059   2.740  17.104 -0.0084 -0.3373  0.3704
18393TIP3    H176670   2.972   2.774  17.082  0.2847  0.2599  0.1151
18393TIP3    H276671   3.062   2.653  17.064  0.2204  0.4188 -1.2671
18394TIP3   OH276672   6.177   1.089  12.666 -0.0527 -0.3650 -0.0546
18394TIP3    H176673   6.153   1.097  12.574  0.6047  1.8293 -0.0764
18394TIP3    H276674   6.094   1.093  12.713 -0.1481  2.4728 -0.3735
18395TIP3   OH276675   0.814   6.181  16.234 -0.3035 -0.0105 -0.6001
18395TIP3    H176676   0.811   6.107  16.295  0.7037 -0.0044 -0.5445
18395TIP3    H276677   0.775   6.147  16.154  2.1946 -1.3161 -1.3225
18396TIP3   OH276678   6.038   1.860   3.058 -0.1942  0.1610 -0.1326
18396TIP3    H176679   6.018   1.888   3.148  0.7405 -1.5870  0.6340
18396TIP3    H276680   6.079   1.937   3.018  1.8291  0.1347  1.7862
18397TIP3   OH276681   4.141   4.013  11.327 -1.1024 -0.3106 -0.2125
18397TIP3    H176682   4.057   4.058  11.328 -1.4047 -0.8728  0.8202
18397TIP3    H276683   4.198   4.067  11.383 -1.4801 -1.2081  1.0668
18398TIP3   OH276684   1.987   3.650   5.038  0.6462  0.4010 -0.6808
18398TIP3    H176685   1.947   3.564   5.048  0.0244  0.6738 -0.8022
18398TIP3    H276686   2.081   3.633   5.044  0.4726 -0.0642  0.9906
18399TIP3   OH276687   1.572   5.463   6.001  0.8139  0.1903  0.1521
18399TIP3    H176688   1.614   5.442   6.085  0.2256 -0.1997  0.3493
18399TIP3    H276689   1.589   5.386   5.946 -0.8350 -0.5905  0.6862
18400TIP3   OH276690   1.332   5.318   1.850  0.0220  0.0737  0.6779
18400TIP3    H176691   1.371   5.322   1.763  0.0195 -0.4643  0.6529
18400TIP3    H276692   1.266   5.387   1.850  0.1362  0.1820  0.3098
18401TIP3   OH276693   3.474   4.912   5.105 -0.5424  0.1454  0.0570
18401TIP3    H176694   3.439   4.823   5.110 -0.9526  0.2352 -1.0692
18401TIP3    H276695   3.507   4.929   5.193 -1.3356 -0.7634  0.5509
18402TIP3   OH276696   0.709   4.801   5.342 -0.3471  0.1988  0.4070
18402TIP3    H176697   0.699   4.712   5.375 -1.4718  0.0112 -0.3898
18402TIP3    H276698   0.698   4.793   5.247  0.9338  0.9942  0.1763
18403TIP3   OH276699   2.581   3.009  15.476  0.5925  0.2769  0.3934
18403TIP3    H176700   2.665   3.025  15.432  1.4058 -0.2703  1.7252
18403TIP3    H276701   2.532   3.090  15.462  1.5975  0.8611  0.1806
18404TIP3   OH276702   1.559   5.263   4.528 -0.1296 -0.5633  0.3515
18404TIP3    H176703   1.616   5.301   4.462 -0.1106 -3.1109 -1.1668
18404TIP3    H276704   1.617   5.207   4.580 -0.4189  0.3020  1.6188
18405TIP3   OH276705   0.990   1.083  10.372 -0.0343 -1.0952  0.2332
18405TIP3    H176706   0.916   1.023  10.368 -1.8022  1.0750 -0.7459
18405TIP3    H276707   1.011   1.089  10.465 -1.8936 -0.8017  0.6460
18406TIP3   OH276708   1.078   4.422   0.777 -0.4695  0.4481 -0.1594
18406TIP3    H176709   1.096   4.490   0.841 -1.4637  0.4065  0.1729
18406TIP3    H276710   1.143   4.436   0.708  0.7478  0.3606  0.9522
18407TIP3   OH276711   2.909   2.977   3.905 -0.2037  0.0962  0.1130
18407TIP3    H176712   2.819   3.010   3.913 -0.5372 -0.5162 -0.9263
18407TIP3    H276713   2.924   2.928   3.986 -0.6266  0.6191  0.5126
18408TIP3   OH276714   5.644   3.774  11.183  0.1651  0.2122 -0.2655
18408TIP3    H176715   5.616   3.850  11.234 -1.4320 -0.3743 -0.2171
18408TIP3    H276716   5.736   3.762  11.204  0.1372  1.4576  0.5836
18409TIP3   OH276717   4.943   4.767  12.955  0.0730 -0.3200  0.3122
18409TIP3    H176718   4.931   4.859  12.978 -1.3208 -0.3056 -0.4057
18409TIP3    H276719   4.989   4.768  12.871 -0.7562 -0.2608 -0.1424
18410TIP3   OH276720   6.535   2.636   0.917  0.4938  0.2353  0.0049
18410TIP3    H176721   6.544   2.731   0.920 -0.2813  0.3145 -0.0313
18410TIP3    H276722   6.571   2.606   1.000 -1.5090  0.7647  1.1132
18411TIP3   OH276723   5.707   6.582   3.975 -0.2088  0.8860  0.2298
18411TIP3    H176724   5.770   6.522   4.014  0.2881 -0.4633 -2.5176
18411TIP3    H276725   5.700   6.654   4.038  2.8678  0.2891  1.3324
18412TIP3   OH276726   1.718   6.109  15.690 -0.4652  0.8995  0.3701
18412TIP3    H176727   1.721   6.160  15.609  1.4748  3.3282  1.9140
18412TIP3    H276728   1.649   6.152  15.742 -0.1696  0.7443  0.8889
18413TIP3   OH276729   5.365   1.545   2.732  0.1583 -0.5327  0.3990
18413TIP3    H176730   5.297   1.504   2.680  0.8189 -0.7839 -0.2773
18413TIP3    H276731   5.355   1.507   2.819  1.0360 -2.4661 -0.3197
18414TIP3   OH276732   1.440   5.090   0.922  0.6786  0.3290  0.1297
18414TIP3    H176733   1.430   5.122   1.011  2.3266  0.6179  0.2149
18414TIP3    H276734   1.438   4.995   0.930  0.2834  0.3603  0.4035
18415TIP3   OH276735   3.457   2.245  14.832 -0.4384 -0.0538 -1.0145
18415TIP3    H176736   3.444   2.287  14.917 -1.7495 -0.4898 -0.9815
18415TIP3    H276737   3.370   2.243  14.792  0.0173 -0.5813 -2.0259
18416TIP3   OH276738   0.454   5.315   5.450  0.3427 -0.1761  0.1071
18416TIP3    H176739   0.536   5.304   5.499  0.6031 -0.9705 -0.5031
18416TIP3    H276740   0.482   5.339   5.362 -0.1383  1.7666  0.4540
18417TIP3   OH276741   3.785   2.299  11.290 -0.0497  0.3423 -0.1112
18417TIP3    H176742   3.820   2.388  11.282  1.2494 -0.3577 -2.6484
18417TIP3    H276743   3.851   2.243  11.248 -0.5603 -1.9170  1.9656
18418TIP3   OH276744   1.449   6.355   5.091 -0.1361 -0.1043  0.2733
18418TIP3    H176745   1.520   6.335   5.030 -1.0062 -2.2467 -0.0705
18418TIP3    H276746   1.445   6.450   5.092  1.6782  0.0197 -0.9358
18419TIP3   OH276747   1.523   3.582   3.161 -0.3417 -0.0237 -0.0203
18419TIP3    H176748   1.448   3.521   3.160  1.1636 -1.9206 -0.6115
18419TIP3    H276749   1.555   3.581   3.070 -0.1595  1.4847  0.0266
18420TIP3   OH276750   0.136   3.618  11.613  0.7580  0.0342  0.1511
18420TIP3    H176751   0.206   3.555  11.598 -0.7792 -1.4249 -1.1525
18420TIP3    H276752   0.074   3.602  11.542 -0.1393  2.3793  0.3617
18421TIP3   OH276753   0.505   2.730  10.663 -0.9030 -0.1150  0.2288
18421TIP3    H176754   0.506   2.663  10.595  0.5075  1.3171 -1.1860
18421TIP3    H276755   0.520   2.812  10.617  0.9097  0.8025  2.3603
18422TIP3   OH276756   6.759   3.553  13.289 -0.1325  0.3327 -0.2623
18422TIP3    H176757   6.679   3.583  13.245 -1.1449  0.8410  1.8898
18422TIP3    H276758   6.820   3.536  13.217 -2.3487 -0.6213 -1.9936
18423TIP3   OH276759   3.753   2.134   1.662  0.0951 -0.3378  0.3828
18423TIP3    H176760   3.800   2.059   1.628  0.8275  0.5910 -0.6890
18423TIP3    H276761   3.678   2.145   1.602  0.2302  0.0364  0.2773
18424TIP3   OH276762   4.237   4.629  17.245 -0.5479 -0.7233 -0.3890
18424TIP3    H176763   4.197   4.553  17.201 -0.3255 -2.2806  1.9657
18424TIP3    H276764   4.251   4.599  17.335 -1.3994  2.4765  0.8735
18425TIP3   OH276765   1.971   2.440   4.083 -0.5502 -0.1779 -0.3475
18425TIP3    H176766   1.962   2.531   4.111  1.2916 -0.3995  1.1125
18425TIP3    H276767   1.938   2.389   4.157  0.4156 -0.7112 -0.2717
18426TIP3   OH276768   3.668   6.402   5.850  0.2568 -0.3049  0.1276
18426TIP3    H176769   3.574   6.384   5.839 -0.0182  0.4224  1.2172
18426TIP3    H276770   3.705   6.319   5.881  0.0189 -0.6585 -0.5212
18427TIP3   OH276771   4.345   4.496  10.566  0.0856 -0.0566  0.7760
18427TIP3    H176772   4.310   4.570  10.515  0.8205  0.6356  1.2771
18427TIP3    H276773   4.271   4.435  10.572 -0.1262  0.0073 -0.8172
18428TIP3   OH276774   2.391   0.807   0.714 -0.1024 -0.3735  0.0898
18428TIP3    H176775   2.382   0.714   0.735  0.7125  0.0458  2.5047
18428TIP3    H276776   2.306   0.845   0.738 -0.4243 -0.4943 -0.8654
18429TIP3   OH276777   3.763   6.110  17.094 -0.3526  0.7558  0.1064
18429TIP3    H176778   3.829   6.097  17.026  0.7570  0.7196  1.1719
18429TIP3    H276779   3.763   6.205  17.108 -0.0919  0.6978  0.5185
18430TIP3   OH276780   6.213   4.700  17.059  0.0398  0.2084  0.0016
18430TIP3    H176781   6.213   4.780  17.111  0.6352  0.2223 -0.0103
18430TIP3    H276782   6.220   4.630  17.124 -0.4351  0.1715  0.0113
18431TIP3   OH276783   5.919   1.127  15.672  0.3972  0.0370 -0.2993
18431TIP3    H176784   5.997   1.180  15.686 -0.1855  0.8501 -0.1346
18431TIP3    H276785   5.940   1.075  15.594  0.4368  1.5290 -1.3020
18432TIP3   OH276786   2.564   0.057   4.420 -0.4324 -0.5769  0.0908
18432TIP3    H176787   2.517   0.094   4.346 -0.6229 -0.6689  0.1661
18432TIP3    H276788   2.519   0.091   4.497  0.7251  0.7584  0.1799
18433TIP3   OH276789   5.644   3.812  13.283 -0.0515 -0.4166 -0.0615
18433TIP3    H176790   5.553   3.841  13.287 -0.0337 -0.3865  0.1030
18433TIP3    H276791   5.641   3.732  13.230  0.0721  0.5646 -1.6004
18434TIP3   OH276792   2.043   2.915   3.098 -0.1709  0.7290 -0.2313
18434TIP3    H176793   1.987   2.838   3.088 -0.5386  0.4655  3.0866
18434TIP3    H276794   2.130   2.879   3.114 -0.2103  1.0040  0.6220
18435TIP3   OH276795   2.008   3.832  11.881  0.4165  0.4951  0.0290
18435TIP3    H176796   2.096   3.792  11.881  0.9023  1.5515  0.6129
18435TIP3    H276797   2.020   3.916  11.837 -0.3908  0.4688 -0.2395
18436TIP3   OH276798   5.148   4.729  10.669 -0.1669 -0.7064  0.1515
18436TIP3    H176799   5.233   4.689  10.652 -0.3935 -2.0336  1.8991
18436TIP3    H276800   5.101   4.725  10.586  1.6512  0.5118 -0.9566
18437TIP3   OH276801   2.822   4.278   0.826  0.3865  0.2412 -0.1741
18437TIP3    H176802   2.866   4.206   0.780  0.3576 -0.0727  0.2945
18437TIP3    H276803   2.886   4.349   0.824  0.2962  0.3139 -0.9154
18438TIP3   OH276804   3.165   2.190   5.780  0.2613 -0.0423 -0.0068
18438TIP3    H176805   3.226   2.260   5.802 -0.2811  1.2712 -2.4599
18438TIP3    H276806   3.212   2.109   5.802  2.1054  1.0000 -0.0078
18439TIP3   OH276807   4.303   1.155  11.013 -0.1430 -0.8498  0.1953
18439TIP3    H176808   4.345   1.194  10.936  1.0462 -1.2423  0.6339
18439TIP3    H276809   4.254   1.081  10.978 -0.2636 -0.5469 -0.2902
18440TIP3   OH276810   6.646   6.483   1.400  0.6352  0.0529  0.2410
18440TIP3    H176811   6.616   6.413   1.342 -1.0085  0.6187  0.3819
18440TIP3    H276812   6.737   6.499   1.373  0.9798 -2.0103  0.1238
18441TIP3   OH276813   4.840   0.859  16.525  0.3866 -0.3799 -0.1808
18441TIP3    H176814   4.848   0.942  16.477  0.0548  0.1784  0.7211
18441TIP3    H276815   4.902   0.868  16.598 -0.1336 -0.6577  0.2994
18442TIP3   OH276816   3.914   6.210   4.530 -0.3503 -0.1001 -0.0808
18442TIP3    H176817   3.972   6.265   4.583  0.4157 -0.9635 -0.0244
18442TIP3    H276818   3.887   6.140   4.590  0.0138 -0.7311 -0.6609
18443TIP3   OH276819   2.547   3.543   1.357  0.3480 -0.1091 -0.4728
18443TIP3    H176820   2.539   3.637   1.374  2.2645  0.0687 -0.5178
18443TIP3    H276821   2.503   3.501   1.431 -1.2837  0.8160 -0.8857
18444TIP3   OH276822   2.982   0.199  15.364  0.1979  0.1622  0.0492
18444TIP3    H176823   2.921   0.208  15.438 -0.2528 -0.0667 -0.2935
18444TIP3    H276824   3.039   0.276  15.370 -1.3105  1.3603 -0.7218
18445TIP3   OH276825   0.687   4.446  16.255  0.0642 -0.2050 -0.1302
18445TIP3    H176826   0.594   4.432  16.274 -0.0568  0.7424 -0.0146
18445TIP3    H276827   0.729   4.364  16.281 -0.5993 -0.2589  0.8104
18446TIP3   OH276828   3.565   1.417   5.669  0.7057 -0.0476 -0.5596
18446TIP3    H176829   3.602   1.365   5.740 -0.1170  1.1105  0.7164
18446TIP3    H276830   3.604   1.379   5.590 -0.2318 -2.9018  0.3006
18447TIP3   OH276831   6.172   4.194   3.408 -0.0758 -0.1515  0.0510
18447TIP3    H176832   6.207   4.185   3.319 -0.7318  1.6160 -0.4027
18447TIP3    H276833   6.159   4.288   3.419 -1.4033 -0.4872  1.4887
18448TIP3   OH276834   0.976   3.845   4.361  0.6300  0.2740 -0.2251
18448TIP3    H176835   0.899   3.869   4.308  1.5000  1.3316 -1.0293
18448TIP3    H276836   1.024   3.927   4.371  1.6703 -0.3959  0.2624
18449TIP3   OH276837   5.376   4.382  16.637 -0.1285  0.4254  0.5952
18449TIP3    H176838   5.397   4.291  16.658 -0.5593  0.5430  1.5848
18449TIP3    H276839   5.294   4.399  16.683  0.0395  1.3763  0.5631
18450TIP3   OH276840   0.509   1.193  10.943  0.7791 -0.4079  0.3188
18450TIP3    H176841   0.541   1.195  11.033 -1.4075 -1.4991  1.1724
18450TIP3    H276842   0.536   1.276  10.905  0.0284  0.9130  2.6090
18451TIP3   OH276843   0.299   6.484   4.797  0.5201  0.0631 -0.1439
18451TIP3    H176844   0.288   6.553   4.862  1.5044  0.4878 -0.4075
18451TIP3    H276845   0.351   6.525   4.727 -0.6493 -0.3435 -1.2644
18452TIP3   OH276846   4.672   4.429   0.352  0.1949  0.3840 -0.4742
18452TIP3    H176847   4.606   4.437   0.283 -1.3799 -0.8845  0.8074
18452TIP3    H276848   4.683   4.518   0.385 -1.8321  0.4488  0.1130
18453TIP3   OH276849   4.614   1.489  13.274  0.1040 -0.0586 -0.2689
18453TIP3    H176850   4.651   1.449  13.195 -0.5455 -0.3388 -0.4380
18453TIP3    H276851   4.583   1.414  13.326 -1.2618  0.2209 -0.6556
18454TIP3   OH276852   6.299   2.716   1.102  0.4190 -0.1201 -0.0075
18454TIP3    H176853   6.343   2.782   1.047 -0.2882 -0.6289 -1.2043
18454TIP3    H276854   6.207   2.724   1.080  0.2850 -1.2861  0.0857
18455TIP3   OH276855   4.078   1.320  11.683 -0.1857  0.0325  0.2107
18455TIP3    H176856   4.078   1.277  11.768  0.9237 -2.0943 -0.8247
18455TIP3    H276857   4.169   1.313  11.653 -0.5766  0.7169 -1.1730
18456TIP3   OH276858   3.405   3.144  16.661  0.0014  0.5562 -0.0273
18456TIP3    H176859   3.388   3.068  16.716  1.8761  0.1101 -0.0210
18456TIP3    H276860   3.425   3.214  16.723 -0.1962  0.6513 -0.0708
18457TIP3   OH276861   5.971   3.193  11.362  0.1118 -0.1560 -0.0822
18457TIP3    H176862   6.029   3.262  11.395 -0.7202  0.0133  1.0322
18457TIP3    H276863   6.030   3.133  11.317  1.2799 -0.3316  1.6082
18458TIP3   OH276864   6.407   2.232  11.480 -0.1599 -0.0325  0.2363
18458TIP3    H176865   6.317   2.201  11.483 -0.5669  1.0813 -0.0918
18458TIP3    H276866   6.437   2.211  11.392  0.6681 -2.4571  1.0686
18459TIP3   OH276867   2.992   3.416   4.907 -0.4011 -0.7356 -0.1154
18459TIP3    H176868   2.954   3.329   4.914  1.4809 -1.5032  0.6492
18459TIP3    H276869   3.060   3.409   4.841 -0.0453  0.0935  0.1473
18460TIP3   OH276870   0.612   5.033   0.187  0.1510  0.1398  0.1193
18460TIP3    H176871   0.664   5.093   0.240  1.1192 -0.2931 -0.3285
18460TIP3    H276872   0.634   4.946   0.221 -1.8822  0.0713  1.3269
18461TIP3   OH276873   1.179   5.149   6.530 -0.2612 -0.0233  0.7716
18461TIP3    H176874   1.201   5.198   6.451 -1.5063  1.9233  1.6045
18461TIP3    H276875   1.084   5.149   6.533 -0.2842 -2.1427  1.0491
18462TIP3   OH276876   3.510   6.155   4.468 -0.7473 -0.2609 -0.0367
18462TIP3    H176877   3.581   6.122   4.413 -1.0368 -1.1518  0.1084
18462TIP3    H276878   3.481   6.078   4.518 -0.1929  0.6163  1.6886
18463TIP3   OH276879   5.394   5.897   1.041 -0.2453 -0.8076 -0.0555
18463TIP3    H176880   5.440   5.860   0.965  0.0152 -0.7279  0.0627
18463TIP3    H276881   5.305   5.862   1.035  0.1389 -1.8635  0.3405
18464TIP3   OH276882   0.195   1.789   3.005 -0.5702 -0.1614  0.1596
18464TIP3    H176883   0.230   1.721   2.947 -1.6551 -0.0671 -0.6116
18464TIP3    H276884   0.265   1.804   3.068  0.2425 -0.9716 -0.5305
18465TIP3   OH276885   5.339   4.330   4.773 -0.2663  0.3466 -0.4264
18465TIP3    H176886   5.389   4.403   4.809 -0.7116  1.4937 -2.0864
18465TIP3    H276887   5.405   4.276   4.728 -0.2953  1.0529 -1.3206
18466TIP3   OH276888   4.714   1.918   4.075 -0.2994  0.2376 -0.1053
18466TIP3    H176889   4.683   1.859   4.143 -1.7659  2.4976  1.2428
18466TIP3    H276890   4.647   1.915   4.008 -0.8569  1.0986  0.4077
18467TIP3   OH276891   2.982   4.549  12.977 -0.0749 -0.1780  0.6563
18467TIP3    H176892   2.889   4.556  12.999 -0.1187  1.7955 -0.0066
18467TIP3    H276893   3.027   4.548  13.062 -0.6343  0.2191  0.9587
18468TIP3   OH276894   4.942   3.442   4.495  0.0576 -0.0693  0.3911
18468TIP3    H176895   5.038   3.447   4.495  0.0289  0.4776  0.6671
18468TIP3    H276896   4.913   3.529   4.470 -0.3561 -0.6921 -1.3538
18469TIP3   OH276897   4.689   3.566   5.573 -0.4563  0.2651  0.0483
18469TIP3    H176898   4.703   3.593   5.663 -1.0946  2.1088 -0.3823
18469TIP3    H276899   4.694   3.647   5.522 -0.0072 -0.7635 -1.5825
18470TIP3   OH276900   4.329   1.956  11.320  0.4817 -0.1548 -0.3371
18470TIP3    H176901   4.405   2.011  11.338  0.6519 -0.7618  0.8881
18470TIP3    H276902   4.325   1.950  11.225  2.0323 -0.2109 -0.4057
18471TIP3   OH276903   4.870   0.691  16.892  0.0253  0.3512 -0.2116
18471TIP3    H176904   4.945   0.732  16.849  1.0950 -0.0178  1.2621
18471TIP3    H276905   4.904   0.660  16.976 -0.9749 -2.7569 -0.8800
18472TIP3   OH276906   0.028   0.770   1.601 -0.2522  0.3299  0.4306
18472TIP3    H176907  -0.055   0.721   1.606  0.4562 -0.9709 -0.2485
18472TIP3    H276908   0.095   0.704   1.618  0.6392  1.4313  1.2094
18473TIP3   OH276909   2.996   0.699  16.893  0.7365 -0.1235  0.2669
18473TIP3    H176910   2.982   0.784  16.934  1.0924 -0.4477  1.0909
18473TIP3    H276911   3.066   0.659  16.945 -0.4910 -1.5410  0.8856
18474TIP3   OH276912   6.259   0.527   3.140 -0.6300 -0.3910 -0.1026
18474TIP3    H176913   6.171   0.563   3.154 -0.0781  1.5053 -1.3658
18474TIP3    H276914   6.253   0.479   3.058 -1.1298 -2.5357  1.1331
18475TIP3   OH276915   2.043   6.390   2.547 -0.1422  0.2574  0.0820
18475TIP3    H176916   2.119   6.340   2.515 -0.9576 -1.4987  0.8273
18475TIP3    H276917   2.022   6.449   2.475 -0.1572 -1.6118 -1.4899
18476TIP3   OH276918   0.634   2.251  11.222 -0.1968  0.1367  0.1897
18476TIP3    H176919   0.617   2.199  11.143  1.4230 -1.8549  1.1074
18476TIP3    H276920   0.697   2.317  11.193  0.4624 -0.6411 -0.1790
18477TIP3   OH276921   0.402   4.843  17.212 -0.0489  0.6039 -0.2000
18477TIP3    H176922   0.494   4.866  17.203  0.1433  1.5582  3.3102
18477TIP3    H276923   0.402   4.748  17.222  0.5063  0.5392 -0.8059
18478TIP3   OH276924   0.698   3.292  11.184  0.4941 -0.6055  0.1565
18478TIP3    H176925   0.665   3.244  11.108 -0.5244 -1.1842  0.9508
18478TIP3    H276926   0.790   3.268  11.190 -0.5638 -4.5457  2.0694
18479TIP3   OH276927   2.538   5.319   4.278 -0.0836 -0.9980  0.5333
18479TIP3    H176928   2.603   5.298   4.211 -0.6855  0.6909 -0.5995
18479TIP3    H276929   2.565   5.268   4.354  2.2695 -0.7165 -0.0861
18480TIP3   OH276930   5.449   0.384   6.206 -0.0234  0.0046  0.4174
18480TIP3    H176931   5.539   0.398   6.235 -0.4746  1.0197  1.3842
18480TIP3    H276932   5.396   0.434   6.268 -1.2795 -0.8961  0.0890
18481TIP3   OH276933   0.062   3.319   2.777 -0.2706  0.1079  0.0115
18481TIP3    H176934   0.021   3.255   2.835 -1.8272  0.1613 -1.0094
18481TIP3    H276935   0.114   3.266   2.716 -0.1061 -0.0667  0.3021
18482TIP3   OH276936   2.704   3.740   0.624 -0.5516 -0.0669 -0.2242
18482TIP3    H176937   2.644   3.715   0.554 -0.5063 -0.7588 -0.0172
18482TIP3    H276938   2.668   3.701   0.703  0.0662 -0.3394 -0.0690
18483TIP3   OH276939   5.740   5.185  13.887  0.3775  0.2139 -0.1297
18483TIP3    H176940   5.708   5.254  13.830 -1.8933  0.2330  1.0854
18483TIP3    H276941   5.831   5.207  13.904  0.6865  0.9430 -2.5910
18484TIP3   OH276942   2.034   2.759   5.415 -0.2922 -0.1436  0.0027
18484TIP3    H176943   2.063   2.679   5.460 -2.6837 -1.5088 -0.8042
18484TIP3    H276944   2.059   2.745   5.324  0.9052  0.8428  0.1693
18485TIP3   OH276945   0.620   0.225   1.273  0.3853 -0.2145 -0.1495
18485TIP3    H176946   0.694   0.192   1.325  0.4261  0.4420  0.2065
18485TIP3    H276947   0.637   0.193   1.185  1.7579  1.0084 -0.3351
18486TIP3   OH276948   6.726   4.710  14.447 -0.4107  0.0822 -0.3442
18486TIP3    H176949   6.719   4.805  14.457  1.0817  0.0080  1.7599
18486TIP3    H276950   6.652   4.686  14.390 -3.0816  2.0544  2.1271
18487TIP3   OH276951   0.240   5.819  11.760 -0.1280  0.2102 -0.7171
18487TIP3    H176952   0.244   5.724  11.768 -0.9667  0.1267 -1.2041
18487TIP3    H276953   0.291   5.852  11.834  1.4759 -0.6240 -1.4275
18488TIP3   OH276954   5.272   5.696  11.363  0.6150 -0.0169  0.6074
18488TIP3    H176955   5.342   5.701  11.299  1.5609  1.2601  1.7291
18488TIP3    H276956   5.298   5.625  11.423  1.1775  0.7687  1.2937
18489TIP3   OH276957   1.536   3.214   2.878 -0.2608  0.1327 -0.0099
18489TIP3    H176958   1.522   3.203   2.785  2.1680  0.9554 -0.5124
18489TIP3    H276959   1.580   3.134   2.906  0.0062  0.3515  0.2028
18490TIP3   OH276960   1.557   4.088  13.921  0.0265  0.3229 -0.3109
18490TIP3    H176961   1.522   4.159  13.975 -0.5561  0.4458 -0.8382
18490TIP3    H276962   1.479   4.049  13.879  0.3467 -0.5832 -0.0736
18491TIP3   OH276963   5.429   1.022   5.415  1.1783 -0.0365 -0.0058
18491TIP3    H176964   5.482   0.967   5.358 -1.2957 -1.1262 -1.3721
18491TIP3    H276965   5.357   0.965   5.442  0.3729  1.5513  1.2649
18492TIP3   OH276966   6.125   0.539  14.701 -0.3293 -0.7239 -0.0985
18492TIP3    H176967   6.188   0.522  14.631  1.8159  1.1960  1.2901
18492TIP3    H276968   6.043   0.559  14.655  0.5264 -1.4392 -1.9835
18493TIP3   OH276969   2.523   6.371   0.722  0.6748 -0.0248  0.6652
18493TIP3    H176970   2.605   6.325   0.743  0.2014 -2.4940 -2.5924
18493TIP3    H276971   2.550   6.463   0.712  2.9330 -0.6977  0.2163
18494TIP3   OH276972   6.242   0.457   4.592  0.6017 -0.0623  0.3760
18494TIP3    H176973   6.221   0.403   4.516  2.2549  0.3254 -0.3735
18494TIP3    H276974   6.157   0.479   4.630 -0.2371 -0.3075 -1.3191
18495TIP3   OH276975   5.636   1.690  13.622  0.0925 -0.1237 -0.3708
18495TIP3    H176976   5.700   1.622  13.637  1.4833  1.0483 -0.8707
18495TIP3    H276977   5.674   1.769  13.661 -2.0976  0.0904  1.4201
18496TIP3   OH276978   2.231   3.437  12.694 -0.7385  0.4236  0.2599
18496TIP3    H176979   2.311   3.489  12.694  0.3493 -1.2016  1.9359
18496TIP3    H276980   2.174   3.479  12.759  0.3421 -0.7515  1.9946
18497TIP3   OH276981   5.941   6.426   0.865 -0.8046  0.3186  0.3479
18497TIP3    H176982   5.882   6.367   0.912 -1.1267 -1.2533 -1.9354
18497TIP3    H276983   5.889   6.506   0.852 -2.2057 -0.7926 -1.0385
18498TIP3   OH276984   1.441   6.540  11.887  0.8895 -0.6910 -0.0036
18498TIP3    H176985   1.456   6.568  11.978 -0.5231  1.8926 -0.5041
18498TIP3    H276986   1.439   6.622  11.838  0.1301 -1.9688 -2.1539
18499TIP3   OH276987   6.053   2.832   5.781 -0.7189 -0.6713 -0.6158
18499TIP3    H176988   6.024   2.773   5.849 -2.9025  0.1638 -0.7922
18499TIP3    H276989   5.974   2.878   5.753  0.6118  0.9997 -1.7590
18500TIP3   OH276990   1.266   4.622  12.927 -0.4282 -0.3125  0.3471
18500TIP3    H176991   1.228   4.573  12.854 -1.1092  0.3407  0.2631
18500TIP3    H276992   1.294   4.705  12.889 -0.5485 -0.0746  0.7698
18501TIP3   OH276993   5.952   6.463  12.792  0.2446 -0.5444  0.0052
18501TIP3    H176994   5.985   6.374  12.775 -0.3213 -0.6437 -0.6014
18501TIP3    H276995   6.007   6.519  12.737  1.8675 -0.3028  1.8277
18502TIP3   OH276996   3.946   2.568   3.354  0.4856 -0.6064 -0.1726
18502TIP3    H176997   3.960   2.474   3.347 -1.8584 -0.9715 -0.3622
18502TIP3    H276998   3.978   2.591   3.442 -3.7288 -2.5659  2.0131
18503TIP3   OH276999   1.727   0.006  15.964  0.6332  0.0986  0.1083
18503TIP3    H177000   1.796   0.005  15.897  1.4365 -0.6245  0.9179
18503TIP3    H277001   1.737  -0.078  16.009 -1.1050 -0.2179 -0.0710
18504TIP3   OH277002   0.393   3.011  12.657 -0.3267 -0.3183  0.5954
18504TIP3    H177003   0.348   3.069  12.718 -0.1696  0.9042 -0.4247
18504TIP3    H277004   0.443   3.070  12.601  0.2390 -1.4830 -0.1386
18505TIP3   OH277005   6.577   1.671   5.198 -0.1496 -0.1987 -0.5749
18505TIP3    H177006   6.630   1.717   5.264 -1.8884  3.0799 -1.3385
18505TIP3    H277007   6.628   1.678   5.118 -0.2971  0.2282 -0.6351
18506TIP3   OH277008   3.059   2.033  12.086  0.3676  0.1989 -0.3814
18506TIP3    H177009   3.145   2.015  12.049  1.0648  0.0472  1.2688
18506TIP3    H277010   3.067   2.121  12.124 -0.3233  0.3322 -0.5230
18507TIP3   OH277011   2.365   4.356   5.071  0.3725 -0.2422  0.1542
18507TIP3    H177012   2.348   4.362   4.977  1.0902 -0.2750  0.0251
18507TIP3    H277013   2.332   4.438   5.106 -0.3428 -0.4314 -0.0559
18508TIP3   OH277014   1.992   4.520  10.946 -0.0994 -0.4494  0.6869
18508TIP3    H177015   2.076   4.481  10.919 -0.4372 -1.2842  0.8387
18508TIP3    H277016   1.968   4.472  11.025 -0.4685  0.1432  0.9339
18509TIP3   OH277017   0.477   0.981  13.974  0.0280  0.2609  0.0571
18509TIP3    H177018   0.384   0.973  13.953 -0.1286  0.7629  0.5417
18509TIP3    H277019   0.520   0.999  13.891 -0.2496 -0.3996 -0.2357
18510TIP3   OH277020   1.116   1.724  15.914 -0.1233 -0.0390  0.3231
18510TIP3    H177021   1.185   1.680  15.863 -1.7867  0.6372 -2.6537
18510TIP3    H277022   1.124   1.816  15.889 -0.0467  0.5430  2.4562
18511TIP3   OH277023   1.561   3.124   4.154 -1.0108  0.5713  0.5994
18511TIP3    H177024   1.543   3.030   4.149  0.5015  0.2044  1.7566
18511TIP3    H277025   1.479   3.162   4.185 -1.6668 -0.3469  0.0230
18512TIP3   OH277026   0.972   5.910   5.388 -0.1119 -0.0339  0.5425
18512TIP3    H177027   1.046   5.961   5.355  0.6202 -0.6938  1.1394
18512TIP3    H277028   0.899   5.934   5.331  0.3249  1.3399  0.5462
18513TIP3   OH277029   5.306   0.855   6.532 -0.0463 -0.0162 -0.4628
18513TIP3    H177030   5.213   0.831   6.538 -0.6285  2.1754 -0.3362
18513TIP3    H277031   5.348   0.778   6.494 -1.5470 -1.8696  1.5246
18514TIP3   OH277032   0.455   6.777  11.161 -0.4743 -0.1207  0.0529
18514TIP3    H177033   0.434   6.851  11.105 -0.9522  0.5330  1.0728
18514TIP3    H277034   0.405   6.704  11.124 -0.1924  0.1158 -0.8077
18515TIP3   OH277035   3.982   2.927   1.042 -0.8420 -0.1747 -0.3102
18515TIP3    H177036   3.931   2.986   0.987 -0.8998 -0.4031 -0.5061
18515TIP3    H277037   3.947   2.840   1.022 -3.0402 -0.0156  2.4043
18516TIP3   OH277038   6.706   3.366  13.552 -0.5653 -0.4537  0.2035
18516TIP3    H177039   6.709   3.424  13.476 -0.9451 -1.0411 -0.2560
18516TIP3    H277040   6.679   3.282  13.517 -0.6554 -0.7473  0.9804
18517TIP3   OH277041   1.490   1.297   2.647  0.6307 -0.7667 -0.1458
18517TIP3    H177042   1.547   1.247   2.589  1.3197 -0.0711 -0.0742
18517TIP3    H277043   1.499   1.388   2.617 -0.3183 -0.6324 -0.0346
18518TIP3   OH277044   0.995   6.792   4.940  0.4356 -0.5596 -0.3100
18518TIP3    H177045   0.957   6.827   5.021 -0.9973  1.4639 -1.7982
18518TIP3    H277046   1.075   6.748   4.968  1.0854  1.9290  1.9782
18519TIP3   OH277047   3.377   5.796   3.630 -0.4008  0.2969  0.4948
18519TIP3    H177048   3.347   5.705   3.636 -2.0492  0.8135  0.0971
18519TIP3    H277049   3.350   5.836   3.713 -1.2319  0.8806 -0.0507
18520TIP3   OH277050   6.538   4.791   1.877  0.1423  0.0767 -0.9933
18520TIP3    H177051   6.495   4.849   1.941  0.4348  0.2855 -0.9868
18520TIP3    H277052   6.479   4.716   1.870 -0.0824  0.2297 -0.7641
18521TIP3   OH277053   1.854   6.056  17.152  0.3546  0.1888  0.4908
18521TIP3    H177054   1.868   6.089  17.240  0.9614  2.8296 -0.5610
18521TIP3    H277055   1.760   6.036  17.149  0.1704  0.8637  1.4719
18522TIP3   OH277056   5.772   5.527   3.645  0.8702  0.4122 -0.3260
18522TIP3    H177057   5.691   5.524   3.593  0.1161 -1.4113  0.8984
18522TIP3    H277058   5.767   5.610   3.692 -1.8789 -1.0360  2.1574
18523TIP3   OH277059   3.196   3.635  11.445 -0.1551  0.0342 -0.8589
18523TIP3    H177060   3.203   3.723  11.408 -0.0498 -0.6334 -2.4720
18523TIP3    H277061   3.158   3.582  11.375 -1.1641 -1.0021  0.4282
18524TIP3   OH277062   4.709   0.313  16.460  0.2829  0.1953 -0.0090
18524TIP3    H177063   4.649   0.274  16.397 -1.2440  1.0551  0.8806
18524TIP3    H277064   4.739   0.394  16.419  1.2956 -0.5113 -0.6882
18525TIP3   OH277065   4.123   5.641   3.061  0.1922  0.0381  0.0409
18525TIP3    H177066   4.100   5.581   3.132  0.3462 -0.5530 -0.4160
18525TIP3    H277067   4.189   5.595   3.010  0.1128  0.4821 -0.4659
18526TIP3   OH277068   0.070   3.907  12.985  0.0073  0.2362 -0.3970
18526TIP3    H177069  -0.022   3.900  13.011  0.2338  1.8900  0.8814
18526TIP3    H277070   0.082   3.835  12.923 -1.6664 -1.1080  0.7945
18527TIP3   OH277071   4.730   5.899  16.538  0.3916  0.1071  0.7410
18527TIP3    H177072   4.797   5.961  16.567 -0.1656  0.4874  1.2205
18527TIP3    H277073   4.779   5.834  16.487  0.6436  2.2395 -1.8188
18528TIP3   OH277074   6.714   0.845  16.367 -0.2352 -0.3234 -0.2573
18528TIP3    H177075   6.772   0.788  16.418 -1.0450 -0.5143  0.4644
18528TIP3    H277076   6.770   0.917  16.338  0.5829 -1.0091 -0.3931
18529TIP3   OH277077   1.620   3.506  11.966 -0.0013  0.3655 -0.1666
18529TIP3    H177078   1.635   3.567  12.038 -0.9547 -0.7819  1.0199
18529TIP3    H277079   1.666   3.427  11.993 -0.3883 -0.0773 -0.8172
18530TIP3   OH277080   4.812   3.334   0.893  0.2782  0.0035 -0.2951
18530TIP3    H177081   4.794   3.300   0.980  1.5873 -0.4060 -0.1745
18530TIP3    H277082   4.811   3.257   0.836 -0.4792  0.2581 -0.6292
18531TIP3   OH277083   6.351   0.952   3.862 -0.3155 -0.2213 -0.0852
18531TIP3    H177084   6.379   1.008   3.934  1.1411 -0.9240 -0.0969
18531TIP3    H277085   6.346   0.864   3.900  0.1340 -0.5398 -0.7649
18532TIP3   OH277086   6.576   0.466  13.274 -0.0105 -0.0689 -0.5372
18532TIP3    H177087   6.563   0.392  13.332  0.3819 -0.1724 -0.5803
18532TIP3    H277088   6.649   0.514  13.312  0.4903 -0.3399 -1.1451
18533TIP3   OH277089   1.145   4.550  12.348  0.3402  0.0342 -0.4794
18533TIP3    H177090   1.194   4.501  12.282  3.3678  1.5962  0.4861
18533TIP3    H277091   1.118   4.630  12.303 -0.2467 -0.2571 -0.6527
18534TIP3   OH277092   2.383   0.953   2.723  0.3429  0.2300 -0.0166
18534TIP3    H177093   2.422   1.032   2.758  0.1421  0.3843 -0.1415
18534TIP3    H277094   2.359   0.901   2.800 -0.4284  0.7279  0.0795
18535TIP3   OH277095   5.590   4.675  11.628  0.1787  0.0612  0.1829
18535TIP3    H177096   5.649   4.631  11.689  0.6898 -0.1287 -0.4403
18535TIP3    H277097   5.511   4.622  11.629  0.4287 -0.3105  0.1833
18536TIP3   OH277098   4.328   0.372  14.896 -0.1639  0.1747  0.4159
18536TIP3    H177099   4.268   0.431  14.850 -1.0664 -0.5230  0.6646
18536TIP3    H277100   4.291   0.364  14.984 -0.1792 -0.9200  0.3223
18537TIP3   OH277101   5.409   6.643  12.747 -0.4397 -0.3074 -0.1207
18537TIP3    H177102   5.390   6.691  12.827  2.1697 -0.6553  0.7542
18537TIP3    H277103   5.407   6.709  12.678 -0.3223  0.4336  0.5731
18538TIP3   OH277104   5.954   6.145   2.528  0.4461 -0.0837 -0.2818
18538TIP3    H177105   5.966   6.208   2.599 -2.2811 -1.3654  1.4018
18538TIP3    H277106   5.867   6.166   2.492 -1.0361 -3.5479  1.0625
18539TIP3   OH277107   5.911   2.467   4.797  0.0253 -0.5904 -0.2277
18539TIP3    H177108   5.927   2.463   4.891  0.2981  2.5236 -0.1013
18539TIP3    H277109   5.989   2.427   4.758  0.8878  0.0443  0.8141
18540TIP3   OH277110   0.738   4.689  14.618  0.3160 -0.2820  0.0701
18540TIP3    H177111   0.646   4.668  14.633  0.6198 -0.7637  1.2956
18540TIP3    H277112   0.786   4.613  14.652  1.1062 -0.6439 -1.8035
18541TIP3   OH277113   5.252   6.640   4.924 -0.1680  0.5073 -0.5602
18541TIP3    H177114   5.331   6.695   4.925 -0.9646  1.7361 -2.2381
18541TIP3    H277115   5.245   6.605   5.013  0.6799  2.6884  0.3901
18542TIP3   OH277116   5.567   6.425   5.668  0.0445 -0.0111 -0.2956
18542TIP3    H177117   5.506   6.486   5.710  2.0172  2.1167 -0.4393
18542TIP3    H277118   5.643   6.424   5.725  0.4861 -1.5046 -0.8934
18543TIP3   OH277119   0.525   5.160   3.309 -0.2243  0.2346 -0.1384
18543TIP3    H177120   0.538   5.135   3.218 -0.2431 -1.2114  0.2385
18543TIP3    H277121   0.498   5.252   3.306 -1.8961 -0.2883 -1.7025
18544TIP3   OH277122   5.982   3.974   5.853 -0.3433  0.6186 -0.1226
18544TIP3    H177123   6.004   3.885   5.880  1.6435  0.5155 -1.9294
18544TIP3    H277124   5.886   3.976   5.851 -0.4035 -1.5047 -0.1323
18545TIP3   OH277125   0.638   2.026  13.168  0.1025  0.5937  0.1709
18545TIP3    H177126   0.568   2.091  13.179  0.5679  1.4204 -1.5441
18545TIP3    H277127   0.718   2.072  13.194  0.1541  0.0036  1.0613
18546TIP3   OH277128   1.632   5.844   3.497 -0.5563 -0.1953 -0.1677
18546TIP3    H177129   1.692   5.911   3.464  0.8325 -0.4396  1.7113
18546TIP3    H277130   1.681   5.803   3.569 -2.5452 -1.2118  0.6285
18547TIP3   OH277131   3.640   2.382   5.002  0.4307  0.2305  0.3696
18547TIP3    H177132   3.686   2.384   4.918  0.1004  1.5725  0.2009
18547TIP3    H277133   3.707   2.410   5.065  0.6206 -0.5724  0.5300
18548TIP3   OH277134   5.848   1.445  13.161 -0.0511 -0.2443 -0.0018
18548TIP3    H177135   5.771   1.500  13.144  0.3074  0.3006  0.0924
18548TIP3    H277136   5.891   1.438  13.076  0.1950  0.0801  0.0943
18549TIP3   OH277137   1.960   6.461  12.215  0.3870 -0.1203 -0.0391
18549TIP3    H177138   2.003   6.414  12.286  4.1214  1.7422 -0.9389
18549TIP3    H277139   1.948   6.550  12.248 -0.5905  0.0091 -0.6959
18550TIP3   OH277140   3.139   4.290   5.008  0.5764  0.1655  0.0887
18550TIP3    H177141   3.179   4.206   5.033  1.2819  0.3969 -0.2495
18550TIP3    H277142   3.052   4.267   4.976  0.8688 -0.4661 -0.2585
18551TIP3   OH277143   0.429   6.446  13.656  0.0373 -0.0828 -0.2748
18551TIP3    H177144   0.509   6.432  13.604  0.0391 -0.1320 -0.2597
18551TIP3    H277145   0.363   6.470  13.591 -0.1388 -0.8527 -0.3824
18552TIP3   OH277146   6.755   3.934   5.660  0.4540  0.2827  0.6134
18552TIP3    H177147   6.826   3.889   5.706 -0.0439 -0.6182  0.5038
18552TIP3    H277148   6.733   4.007   5.717  1.6961  0.7683  0.4932
18553TIP3   OH277149   1.643   2.110  13.712  0.2472 -0.1194 -0.4716
18553TIP3    H177150   1.629   2.164  13.790  3.2375  1.4261 -0.9099
18553TIP3    H277151   1.635   2.020  13.742  0.2679  0.4889  1.3901
18554TIP3   OH277152   0.051   4.434   1.704 -0.6051  0.1730  0.1314
18554TIP3    H177153  -0.015   4.495   1.735  0.7102  0.8142  1.7497
18554TIP3    H277154   0.125   4.447   1.763  1.4945  0.4776 -2.4720
18555TIP3   OH277155   5.288   0.977   3.638 -0.1894  0.4363 -0.4423
18555TIP3    H177156   5.369   1.015   3.605 -0.0392  0.0701 -0.5012
18555TIP3    H277157   5.225   0.990   3.567 -0.1728  0.6887 -0.4110
18556TIP3   OH277158   2.361   3.196   1.683  0.0225  0.4395  0.1521
18556TIP3    H177159   2.284   3.158   1.643  0.5118  0.1042 -0.4777
18556TIP3    H277160   2.395   3.128   1.741  1.2592 -0.3369 -1.4526
18557TIP3   OH277161   3.811   5.236   4.815  0.3027  0.1587 -0.4442
18557TIP3    H177162   3.718   5.227   4.793  0.5148  0.7448 -1.6299
18557TIP3    H277163   3.825   5.174   4.886 -0.8046 -0.5695 -0.8464
18558TIP3   OH277164   0.970   3.178  12.014 -0.5368 -0.1711 -0.1843
18558TIP3    H177165   1.032   3.240  11.976  0.6815 -2.2593 -1.7304
18558TIP3    H277166   0.923   3.228  12.080  1.8976  1.8269  0.1133
18559TIP3   OH277167   0.033   4.327  14.664  0.2159 -0.4441  0.1034
18559TIP3    H177168  -0.055   4.336  14.627  0.2037  0.1281  0.2691
18559TIP3    H277169   0.054   4.415  14.696  0.0827 -1.0270  1.8024
18560TIP3   OH277170   4.187   2.316   5.505  0.5105  0.1668 -0.7015
18560TIP3    H177171   4.236   2.233   5.507  0.6759  0.2709 -0.4560
18560TIP3    H277172   4.099   2.291   5.475  0.0033 -0.3672  1.1792
18561TIP3   OH277173   4.978   6.606  11.709 -0.6501  0.2684 -0.3406
18561TIP3    H177174   4.923   6.539  11.748 -2.3205  1.1782 -1.0325
18561TIP3    H277175   5.043   6.627  11.776 -1.8876  0.0033  0.9661
18562TIP3   OH277176   0.777   3.410   3.891  0.0442 -0.3598  0.5085
18562TIP3    H177177   0.863   3.423   3.931  0.4510 -1.0654 -0.1315
18562TIP3    H277178   0.758   3.317   3.905 -0.9298 -0.0566  1.2647
18563TIP3   OH277179   2.479   6.624   2.106  0.2337  0.2626  0.7870
18563TIP3    H177180   2.445   6.695   2.053 -0.3302 -2.3827 -2.5550
18563TIP3    H277181   2.562   6.657   2.141  0.4791  2.1811 -1.5101
18564TIP3   OH277182   2.517   0.789  12.523  0.0054 -0.5389  0.2952
18564TIP3    H177183   2.421   0.785  12.521 -0.0110  0.0469 -0.2534
18564TIP3    H277184   2.546   0.726  12.457 -0.0398  0.3745 -0.6161
18565TIP3   OH277185   3.385   3.478   1.056 -0.5685  0.3427  0.2050
18565TIP3    H177186   3.472   3.449   1.028 -0.8531 -1.7768  1.3744
18565TIP3    H277187   3.391   3.573   1.059  1.1331  0.3440 -1.5699
18566TIP3   OH277188   1.386   1.776   1.819 -0.2140  0.4718 -0.7764
18566TIP3    H177189   1.305   1.780   1.767 -0.0227 -1.6876 -1.2937
18566TIP3    H277190   1.357   1.792   1.909 -1.7598 -3.1975 -0.5152
18567TIP3   OH277191   6.762   0.286  12.892 -0.1425 -0.0690 -0.2060
18567TIP3    H177192   6.778   0.330  12.976  1.3633  0.5280 -0.7949
18567TIP3    H277193   6.767   0.192  12.913  1.7756  0.0774  0.1108
18568TIP3   OH277194   0.767   2.276  17.228 -0.3689 -0.3344  0.3702
18568TIP3    H177195   0.835   2.322  17.277  0.7175 -1.9965  0.4267
18568TIP3    H277196   0.768   2.318  17.142  0.3475  0.0253  0.5447
18569TIP3   OH277197   3.408   2.402   1.169  0.0687  0.1370  0.5084
18569TIP3    H177198   3.399   2.486   1.214 -0.5897  0.1465  0.3736
18569TIP3    H277199   3.367   2.417   1.083 -0.9211 -0.5995  0.8439
18570TIP3   OH277200   6.743   0.837   2.769  0.5523 -0.2707 -0.0159
18570TIP3    H177201   6.737   0.819   2.863  1.3325 -0.4701 -0.0002
18570TIP3    H277202   6.708   0.759   2.727 -0.4082  0.0806  0.1118
18571TIP3   OH277203   5.427   0.818   2.503 -0.6879 -0.0326 -0.2895
18571TIP3    H177204   5.438   0.768   2.423  0.2241  0.7937 -0.6952
18571TIP3    H277205   5.402   0.906   2.473 -0.0475  0.3614  0.2998
18572TIP3   OH277206   0.992   3.641   0.667  0.6600  0.5499  0.2670
18572TIP3    H177207   1.054   3.652   0.739  0.4389  0.9609  0.3956
18572TIP3    H277208   0.937   3.720   0.669 -0.4447 -0.2076  0.7331
18573TIP3   OH277209   0.437   4.009   0.647  0.2343  0.3024 -0.7792
18573TIP3    H177210   0.453   4.103   0.638 -1.6995  0.5980 -1.3453
18573TIP3    H277211   0.380   3.988   0.573 -0.4882 -1.0292  0.1556
18574TIP3   OH277212   5.525   2.024  13.941  0.2448 -0.1384 -0.2941
18574TIP3    H177213   5.457   1.959  13.926 -0.1617  0.7185 -2.2844
18574TIP3    H277214   5.519   2.084  13.867  0.9798  1.8617  1.2070
18575TIP3   OH277215   3.770   4.079   0.375 -0.2642  0.4529  0.2532
18575TIP3    H177216   3.805   4.039   0.295 -1.6459  2.2047 -1.2788
18575TIP3    H277217   3.837   4.063   0.441  1.2367 -0.4131 -1.4183
18576TIP3   OH277218   3.869   0.124   1.558  0.2894 -0.7908 -0.5306
18576TIP3    H177219   3.797   0.079   1.514  0.3593 -1.1058 -0.3250
18576TIP3    H277220   3.837   0.213   1.571 -0.8875 -1.4899  1.4731
18577TIP3   OH277221   1.166   1.315  12.386  0.3649 -0.1589  0.3022
18577TIP3    H177222   1.221   1.347  12.457  0.1995  0.1606  0.2867
18577TIP3    H277223   1.198   1.362  12.308  1.0124 -1.0261  0.0374
18578TIP3   OH277224   6.592   2.241  11.228 -0.1774 -0.2820  0.0376
18578TIP3    H177225   6.514   2.235  11.173  0.2658 -1.3208 -0.4920
18578TIP3    H277226   6.656   2.289  11.175 -0.3721  0.3364  0.3675
18579TIP3   OH277227   4.947   6.079   6.311 -0.2747 -0.0668  0.2103
18579TIP3    H177228   5.036   6.110   6.298 -0.8767  1.2516 -0.8660
18579TIP3    H277229   4.955   5.983   6.314  1.1038  0.0176 -0.4515
18580TIP3   OH277230   3.454   0.843  17.207  0.8232  0.0056  0.0842
18580TIP3    H177231   3.410   0.903  17.268 -1.0303 -1.6154  0.3742
18580TIP3    H277232   3.502   0.901  17.148 -1.1976  1.8006  0.1316
18581TIP3   OH277233   5.859   2.051   1.280  0.2328  0.7089 -0.3800
18581TIP3    H177234   5.931   2.093   1.233 -1.3376  0.4688 -3.0889
18581TIP3    H277235   5.900   2.016   1.359  2.5958  2.7064 -0.6581
18582TIP3   OH277236   3.180   0.667   4.101 -0.0848 -0.0473  0.8487
18582TIP3    H177237   3.204   0.670   4.193  0.0904  0.9967  0.7739
18582TIP3    H277238   3.180   0.574   4.079  3.1887 -0.1471  1.0247
18583TIP3   OH277239   5.139   3.399   1.951  0.2147 -0.0967  0.2050
18583TIP3    H177240   5.070   3.444   1.999  0.5503  0.3090  0.3102
18583TIP3    H277241   5.136   3.436   1.863  1.1116  0.8234  0.5506
18584TIP3   OH277242   0.574   1.194   3.298  0.5587 -0.1462 -0.2709
18584TIP3    H177243   0.615   1.108   3.293 -0.2121 -0.4761 -0.9645
18584TIP3    H277244   0.577   1.227   3.208 -3.1473 -1.3277 -0.9183
18585TIP3   OH277245   2.413   4.341   0.336  0.1834  0.4515 -0.1586
18585TIP3    H177246   2.445   4.287   0.408  0.1205  2.4287  1.3958
18585TIP3    H277247   2.318   4.333   0.342  0.1991 -0.0334 -0.5387
18586TIP3   OH277248   3.735   3.107  12.197 -0.3622  0.4300  0.3514
18586TIP3    H177249   3.778   3.025  12.172 -0.7177  0.2360  0.3756
18586TIP3    H277250   3.642   3.089  12.184 -0.3771  1.1627 -0.6346
18587TIP3   OH277251   0.741   4.632   0.779  0.7849 -0.1825  0.2680
18587TIP3    H177252   0.676   4.662   0.842  1.6293  0.9941  0.6012
18587TIP3    H277253   0.795   4.709   0.761  2.9301 -1.4401  1.0189
18588TIP3   OH277254   6.200   1.825   5.087  0.1449 -0.3057 -0.5327
18588TIP3    H177255   6.144   1.749   5.101  0.5649 -0.5185 -0.0336
18588TIP3    H277256   6.254   1.831   5.165 -1.3774  1.7678  0.4308
18589TIP3   OH277257   6.362   3.517  11.876 -0.8991  0.1685  0.4141
18589TIP3    H177258   6.436   3.578  11.877 -1.0498  0.3409  1.3833
18589TIP3    H277259   6.403   3.431  11.881 -0.7554  0.2536  0.7125
18590TIP3   OH277260   3.030   4.396  11.718  0.2914  0.2230 -0.0197
18590TIP3    H177261   3.087   4.387  11.641  1.8526  0.8585  1.0321
18590TIP3    H277262   2.945   4.419  11.682  0.5412 -1.2581 -1.6736
18591TIP3   OH277263   3.840   3.806   4.844  0.5852 -0.7128  0.3283
18591TIP3    H177264   3.849   3.840   4.933  1.5128  0.9614 -0.3825
18591TIP3    H277265   3.903   3.857   4.792 -2.2167  0.6468 -1.8975
18592TIP3   OH277266   0.807   2.253   3.309  0.1469  0.0630  0.3668
18592TIP3    H177267   0.881   2.289   3.259  1.2296 -0.3646  1.6160
18592TIP3    H277268   0.800   2.163   3.280  0.9216 -0.2514  1.1089
18593TIP3   OH277269   0.038   2.305   2.650 -0.3131 -0.4603 -0.1234
18593TIP3    H177270   0.113   2.364   2.659 -1.0250  0.2937  1.0867
18593TIP3    H277271   0.073   2.218   2.667  0.3225 -0.1318  0.2615
18594TIP3   OH277272   4.853   2.732   5.396 -0.8280 -0.8008  0.2335
18594TIP3    H177273   4.876   2.823   5.377  1.8019 -1.7023 -1.1810
18594TIP3    H277274   4.843   2.691   5.309 -1.8739 -1.8928  0.8501
18595TIP3   OH277275   2.910   3.918  14.653  0.2908 -0.3803  0.1735
18595TIP3    H177276   2.981   3.854  14.656  1.2924  0.7698  1.9931
18595TIP3    H277277   2.918   3.967  14.735 -0.4092  2.1201 -1.2157
18596TIP3   OH277278   1.912   1.047   3.320  0.3901  0.0520  0.5052
18596TIP3    H177279   1.984   1.055   3.258  0.7798 -0.6820  0.8566
18596TIP3    H277280   1.939   1.101   3.394  0.5126 -0.0976  0.5710
18597TIP3   OH277281   5.487   1.321  16.433 -0.3783 -0.6753  0.0588
18597TIP3    H177282   5.534   1.326  16.516 -0.1894  0.0305 -0.0893
18597TIP3    H277283   5.507   1.234  16.399  0.4761 -0.5312  0.1973
18598TIP3   OH277284   3.355   0.547  11.287  0.0456  0.2453  0.1382
18598TIP3    H177285   3.417   0.474  11.286  0.0057  0.2026 -1.2860
18598TIP3    H277286   3.408   0.623  11.264 -0.5621  0.0662 -1.9960
18599TIP3   OH277287   0.527   1.488  14.692  0.1335  0.1065  0.3840
18599TIP3    H177288   0.499   1.553  14.757 -0.5595 -1.1714  1.3834
18599TIP3    H277289   0.454   1.484  14.630 -0.4720 -0.7935  1.1459
18600TIP3   OH277290   3.622   1.176   0.577  0.4970 -0.0910 -0.3498
18600TIP3    H177291   3.613   1.261   0.534 -2.1038  0.1982  0.6920
18600TIP3    H277292   3.536   1.159   0.615  1.7827 -1.8796  1.8871
18601TIP3   OH277293   4.205   3.771   1.162  0.4760 -0.0366 -0.2313
18601TIP3    H177294   4.223   3.864   1.149  0.8356 -0.2491 -1.3767
18601TIP3    H277295   4.230   3.731   1.079  0.9949 -1.2512  0.5010
18602TIP3   OH277296   4.357   1.181  16.236 -0.5061  0.4783  0.9435
18602TIP3    H177297   4.412   1.211  16.163  1.2677 -1.3889  1.4701
18602TIP3    H277298   4.313   1.103  16.203 -0.6657  0.3468  1.4581
18603TIP3   OH277299   3.949   0.300  11.114  0.1233  0.1864  0.0978
18603TIP3    H177300   3.878   0.279  11.053  1.6581 -1.7977 -1.0395
18603TIP3    H277301   3.983   0.383  11.083 -1.7077  1.2086  0.7014
18604TIP3   OH277302   2.268   0.523  15.315 -0.4198 -0.2970 -0.8403
18604TIP3    H177303   2.291   0.573  15.237  2.2256  0.4127  0.3409
18604TIP3    H277304   2.268   0.587  15.385  0.6303 -1.5165  0.2990
18605TIP3   OH277305   0.077   2.548   4.750 -0.6401 -0.4182  0.4583
18605TIP3    H177306   0.140   2.589   4.690 -0.9915 -2.5114 -1.4145
18605TIP3    H277307   0.091   2.593   4.833  0.6518  1.8105 -0.8846
18606TIP3   OH277308   0.744   0.800   5.330 -0.5527  0.4723 -0.5123
18606TIP3    H177309   0.823   0.842   5.365  0.2052  1.2072 -2.9932
18606TIP3    H277310   0.675   0.822   5.393  1.0758  0.3105  1.3865
18607TIP3   OH277311   2.719   2.458   4.073  0.3098 -0.0406  0.5103
18607TIP3    H177312   2.669   2.532   4.038  0.8339 -0.7530 -1.8701
18607TIP3    H277313   2.797   2.498   4.112  1.3962  0.5936 -2.2137
18608TIP3   OH277314   1.171   2.782  16.127  0.0787  0.8058  0.3231
18608TIP3    H177315   1.165   2.849  16.195  0.2858 -0.7773  1.9484
18608TIP3    H277316   1.153   2.700  16.172 -1.0964 -0.1650 -1.8181
18609TIP3   OH277317   1.832   5.455  14.529  0.3301  0.4335 -0.6057
18609TIP3    H177318   1.813   5.472  14.621 -0.1041 -0.0596 -0.6071
18609TIP3    H277319   1.836   5.542  14.489 -0.4551  0.6045 -0.3173
18610TIP3   OH277320   2.406   3.166  10.896 -0.0456  0.9901 -0.1410
18610TIP3    H177321   2.422   3.219  10.818 -0.7698  0.2174 -0.8199
18610TIP3    H277322   2.421   3.075  10.867 -2.4717  0.5115  0.0329
18611TIP3   OH277323   1.506   0.733  15.439  0.0153 -0.0695  0.1644
18611TIP3    H177324   1.431   0.713  15.495  1.6771 -0.0050  2.4858
18611TIP3    H277325   1.526   0.824  15.458  0.3702  0.0611 -0.8233
18612TIP3   OH277326   6.280   0.004   2.252  0.2100  0.1432  0.1580
18612TIP3    H177327   6.336   0.022   2.328 -0.3137  0.9287  0.3584
18612TIP3    H277328   6.281   0.086   2.202 -1.2447  0.3617  0.4754
18613TIP3   OH277329   2.924   1.631  13.306  0.3068  0.1343  0.2709
18613TIP3    H177330   2.873   1.591  13.236 -1.6903  0.1647  1.6527
18613TIP3    H277331   3.007   1.584  13.306  0.0610 -0.3406 -1.6255
18614TIP3   OH277332   4.917   2.975  15.162  0.1885  0.3644  0.0038
18614TIP3    H177333   4.867   2.956  15.083 -0.0178 -1.3873  0.5186
18614TIP3    H277334   4.859   3.030  15.215  0.3808  1.6489 -1.1029
18615TIP3   OH277335   2.712   1.377   1.222  0.3408  0.2784  0.1224
18615TIP3    H177336   2.664   1.426   1.288 -0.8856  0.3287 -0.7944
18615TIP3    H277337   2.699   1.285   1.246  0.8398  0.3298  0.5963
18616TIP3   OH277338   4.107   1.826   0.561  0.9708  0.4363 -0.0615
18616TIP3    H177339   4.101   1.750   0.619 -1.7398  1.1159  0.6201
18616TIP3    H277340   4.193   1.864   0.581  2.3892 -2.4356 -0.4571
18617TIP3   OH277341   2.982   1.784   6.026  0.2305 -0.0558 -0.1751
18617TIP3    H177342   2.961   1.715   6.089  1.1864 -0.0195  0.1964
18617TIP3    H277343   2.920   1.854   6.044 -0.3527 -0.5762 -0.1498
18618TIP3   OH277344   2.407   3.619  14.126 -0.0515 -0.2497 -0.6160
18618TIP3    H177345   2.314   3.638  14.111 -0.1660 -0.4962 -0.2083
18618TIP3    H277346   2.438   3.691  14.181 -0.6915 -1.6473  1.6583
18619TIP3   OH277347   5.110   0.004  11.514  0.4241 -0.4818  0.2816
18619TIP3    H177348   5.070  -0.067  11.565 -1.1552 -1.1529 -1.8278
18619TIP3    H277349   5.075  -0.007  11.426  2.5492  1.0845 -0.8134
18620TIP3   OH277350   5.073   5.488   3.749 -0.0362  0.5651  0.4786
18620TIP3    H177351   5.128   5.414   3.775 -1.5820 -0.5098  0.7732
18620TIP3    H277352   5.113   5.564   3.791 -0.1701 -0.5596  2.7171
18621TIP3   OH277353   4.564   1.430   3.020  0.1124 -0.0841 -0.3209
18621TIP3    H177354   4.659   1.423   3.015  0.0001 -1.8020 -0.2442
18621TIP3    H277355   4.544   1.412   3.112 -0.2836  0.3248 -0.3270
18622TIP3   OH277356   5.377   0.692   3.607  0.3813  0.4053  0.4296
18622TIP3    H177357   5.378   0.785   3.628 -1.4045  0.1336  1.8763
18622TIP3    H277358   5.320   0.685   3.530  1.5567  0.6318 -0.4811
18623TIP3   OH277359   1.379   5.739   2.968 -0.1549  0.1354 -0.0947
18623TIP3    H177360   1.288   5.766   2.980  0.6283  1.2652  4.4749
18623TIP3    H277361   1.428   5.821   2.964  1.0547 -0.4474  1.9933
18624TIP3   OH277362   0.967   3.700  11.949 -0.0351 -0.0315 -0.5594
18624TIP3    H177363   0.915   3.769  11.990 -0.8328 -0.5166 -0.7457
18624TIP3    H277364   1.055   3.711  11.986 -0.2750  0.7786 -0.2255
18625TIP3   OH277365   3.938   1.901   3.158  0.0723  0.4566  0.5017
18625TIP3    H177366   4.024   1.937   3.182  0.5543 -0.6568  0.4737
18625TIP3    H277367   3.917   1.841   3.230  0.9155 -1.8834 -1.1445
18626TIP3   OH277368   5.227   4.796  14.759  0.2056  0.3984 -0.5900
18626TIP3    H177369   5.221   4.701  14.769 -1.1581  0.6292  1.0002
18626TIP3    H277370   5.307   4.820  14.806 -1.0518  0.3466  1.6651
18627TIP3   OH277371   3.175   2.614   2.740 -0.2246 -0.1126  0.2732
18627TIP3    H177372   3.092   2.648   2.707 -0.1354 -1.7903 -1.8112
18627TIP3    H277373   3.234   2.689   2.741 -0.9510  0.4918 -1.1078
18628TIP3   OH277374   4.287   2.347   2.143 -0.0054  0.2776  0.2504
18628TIP3    H177375   4.201   2.325   2.178 -0.0406  0.3350  0.2008
18628TIP3    H277376   4.336   2.265   2.145  0.3398  0.5064  1.4301
18629TIP3   OH277377   6.027   1.665  13.312 -0.3873 -0.8066  0.1262
18629TIP3    H177378   5.980   1.584  13.331  0.1792 -0.7976  1.6965
18629TIP3    H277379   5.958   1.731  13.304 -0.9119 -1.5933 -2.1341
18630TIP3   OH277380   2.031   6.624   4.395  0.1018  0.4172 -0.1622
18630TIP3    H177381   2.029   6.587   4.483  2.0251  1.4955  0.3636
18630TIP3    H277382   2.046   6.717   4.408  1.2649  0.4614 -1.6551
18631TIP3   OH277383   3.499   2.017   3.627  0.3683  0.5437 -0.3564
18631TIP3    H177384   3.448   1.937   3.637  0.6620  0.2837 -0.9491
18631TIP3    H277385   3.443   2.075   3.575 -0.5570  1.3640  1.5020
18632TIP3   OH277386   5.104   6.286   3.730  0.1130 -0.2325  0.2543
18632TIP3    H177387   5.189   6.324   3.705  0.8530 -3.2540 -2.1308
18632TIP3    H277388   5.056   6.278   3.648 -0.8566 -2.3733  0.9962
18633TIP3   OH277389   4.149   3.493  14.624 -0.1754  0.1913  0.2416
18633TIP3    H177390   4.204   3.444  14.686 -3.0834 -2.1067  1.1564
18633TIP3    H277391   4.143   3.581  14.662  0.3874 -0.3902  1.7268
18634TIP3   OH277392   0.394   1.459   6.021  0.5899 -0.3573  0.0496
18634TIP3    H177393   0.461   1.512   5.978  0.8130 -0.6616  0.0145
18634TIP3    H277394   0.320   1.518   6.033  1.1740  0.2279  0.8601
18635TIP3   OH277395   4.188   3.979   0.394  0.3069 -0.4135 -0.4422
18635TIP3    H177396   4.126   3.938   0.333 -0.7390 -1.0233  0.9933
18635TIP3    H277397   4.135   4.041   0.443  1.3696  0.8371 -0.8664
18636TIP3   OH277398   6.261   3.972   2.528 -0.5659  0.2625 -0.5037
18636TIP3    H177399   6.224   3.884   2.531 -1.0546  0.5234  1.4307
18636TIP3    H277400   6.222   4.018   2.602  1.3814  1.4452 -0.1704
18637TIP3   OH277401   5.314   4.989  16.500  0.3871 -0.4190  0.1788
18637TIP3    H177402   5.323   5.068  16.553  0.2973 -0.5546  0.3944
18637TIP3    H277403   5.247   4.937  16.545 -1.3544  0.5021 -1.3037
18638TIP3   OH277404   2.546   5.411   0.994 -0.4112  0.0068 -0.5893
18638TIP3    H177405   2.472   5.412   0.933 -1.0053  0.3061  0.1255
18638TIP3    H277406   2.604   5.479   0.962 -0.9736  0.5252 -0.5143
18639TIP3   OH277407   6.132   3.772  12.924 -0.1801  0.0886 -0.2059
18639TIP3    H177408   6.198   3.752  12.857  0.5279 -0.7693  0.7431
18639TIP3    H277409   6.104   3.861  12.903 -0.4315 -0.3989 -2.0350
18640TIP3   OH277410   6.704   5.805  11.840  0.1350 -0.6329 -0.0702
18640TIP3    H177411   6.755   5.792  11.760  0.0744 -1.0629 -0.0419
18640TIP3    H277412   6.769   5.832  11.906 -0.0652  1.3591 -0.6635
18641TIP3   OH277413   2.308   2.376  14.658 -0.4427  0.1375 -0.2339
18641TIP3    H177414   2.347   2.398  14.574  0.6645 -1.3450 -0.1418
18641TIP3    H277415   2.225   2.334  14.636 -0.2441 -0.0735 -0.5754
18642TIP3   OH277416   5.251   2.003  16.121  0.6502 -0.2350  0.1402
18642TIP3    H177417   5.250   2.075  16.184 -0.8077 -0.2091  0.1104
18642TIP3    H277418   5.171   1.953  16.140  0.3953 -0.4540 -1.4302
18643TIP3   OH277419   1.696   1.907   4.147 -0.2680 -0.0619  0.0346
18643TIP3    H177420   1.680   1.822   4.188  1.4575  1.2338  3.6507
18643TIP3    H277421   1.609   1.941   4.127 -0.9876 -2.5148 -1.1718
18644TIP3   OH277422   3.111   6.201   4.975  0.5736 -0.1116  0.2817
18644TIP3    H177423   3.174   6.150   5.026  0.5372 -0.1759  0.2633
18644TIP3    H277424   3.105   6.285   5.021 -0.8654 -0.8342  1.4740
18645TIP3   OH277425   4.273   2.910   1.061 -0.2054 -0.0280  0.5379
18645TIP3    H177426   4.181   2.882   1.062  0.1157 -1.0798  2.7168
18645TIP3    H277427   4.322   2.830   1.042  0.3159  0.3406  0.3282
18646TIP3   OH277428   1.217   2.877  15.580  0.3808  0.5975 -0.3993
18646TIP3    H177429   1.220   2.825  15.500 -0.9365  1.5021 -1.0354
18646TIP3    H277430   1.153   2.832  15.635  0.3014  0.7474 -0.3705
18647TIP3   OH277431   4.592   5.760  11.388 -0.2668  0.2155  0.7227
18647TIP3    H177432   4.657   5.697  11.356  0.9044  2.1211 -0.8199
18647TIP3    H277433   4.634   5.802  11.463 -0.7049 -0.2533  1.2320
18648TIP3   OH277434   0.955   4.555  13.985  0.3636 -0.1481  0.1639
18648TIP3    H177435   0.958   4.619  13.914  1.2465  1.7717  1.8864
18648TIP3    H277436   1.030   4.498  13.969  1.1226  0.8585  0.0819
18649TIP3   OH277437   0.736   5.739   6.549 -0.3569 -0.1333 -0.1969
18649TIP3    H177438   0.667   5.678   6.525 -1.2122  0.8827 -0.3895
18649TIP3    H277439   0.715   5.764   6.639  0.5034 -0.8213  0.1902
18650TIP3   OH277440   2.771   1.546  14.071  0.7019 -0.1716  0.5114
18650TIP3    H177441   2.803   1.537  13.981  0.2280 -1.5690  0.4693
18650TIP3    H277442   2.701   1.611  14.065  0.2525 -0.7073 -0.2558
18651TIP3   OH277443   6.219   5.228   2.464 -0.1295  0.3041 -0.1532
18651TIP3    H177444   6.192   5.302   2.519 -1.5684 -1.5146  1.6139
18651TIP3    H277445   6.160   5.231   2.389 -1.0927  0.1161  0.5950
18652TIP3   OH277446   5.111   1.790   6.032 -0.2744 -0.1490  0.4102
18652TIP3    H177447   5.154   1.829   6.109  1.5820  0.4955 -0.9156
18652TIP3    H277448   5.113   1.696   6.049  1.5758 -0.1240  0.4577
18653TIP3   OH277449   6.034   3.857   4.560 -0.0360 -0.4651 -0.0367
18653TIP3    H177450   6.083   3.908   4.624 -0.4822  1.5119 -1.2385
18653TIP3    H277451   6.099   3.829   4.496  0.1125 -0.9463  0.3185
18654TIP3   OH277452   1.752   2.616   3.902 -0.4435 -0.3368 -0.1927
18654TIP3    H177453   1.827   2.570   3.939 -0.1984 -0.1810 -0.4998
18654TIP3    H277454   1.690   2.624   3.975 -1.1762 -2.5910 -0.5252
18655TIP3   OH277455   0.456   1.915   2.236 -0.0395 -0.3511 -0.4326
18655TIP3    H177456   0.411   1.994   2.207  0.5303 -0.0804 -0.5751
18655TIP3    H277457   0.510   1.944   2.310 -0.3602 -0.7469 -0.0355
18656TIP3   OH277458   5.204   2.297   0.867  0.0495  0.5547  0.1018
18656TIP3    H177459   5.160   2.229   0.815 -1.5396  1.6889 -0.0702
18656TIP3    H277460   5.237   2.359   0.801  0.9036  0.2935  0.2872
18657TIP3   OH277461   2.425   4.132   0.069  0.4638  0.2402  0.0678
18657TIP3    H177462   2.437   4.083   0.150  0.2355 -0.2920 -0.2112
18657TIP3    H277463   2.507   4.121   0.022  0.6777  0.7377  0.3283
18658TIP3   OH277464   6.817   3.147   4.049 -0.0667  0.1896  0.0482
18658TIP3    H177465   6.727   3.145   4.081  0.2129 -1.8007  0.7603
18658TIP3    H277466   6.823   3.228   3.999 -1.9203  0.9129  0.9702
18659TIP3   OH277467   6.082   4.384   4.785 -0.6631 -0.3038  0.1151
18659TIP3    H177468   6.024   4.315   4.818 -0.4396 -1.2034 -1.2914
18659TIP3    H277469   6.134   4.410   4.861 -0.8483 -1.6038  0.7072
18660TIP3   OH277470   0.480   5.489  13.441  0.5196  0.1203  0.1296
18660TIP3    H177471   0.515   5.447  13.520  2.8750  0.8145 -0.5360
18660TIP3    H277472   0.517   5.440  13.368 -1.1863 -0.1490 -0.5765
18661TIP3   OH277473   0.977   0.242   5.962 -0.0478 -0.1364  0.4452
18661TIP3    H177474   1.020   0.303   5.902 -1.2491  0.8626  0.5966
18661TIP3    H277475   1.018   0.260   6.047 -2.0610  2.1899  0.9985
18662TIP3   OH277476   1.290   6.779  14.406 -0.1020 -0.1736 -0.4750
18662TIP3    H177477   1.329   6.712  14.462 -0.0268  0.0904 -0.2103
18662TIP3    H277478   1.341   6.776  14.326  0.5709  0.2994 -0.0602
18663TIP3   OH277479   0.183   2.915  13.584 -0.2067  0.0561 -0.0218
18663TIP3    H177480   0.098   2.920  13.540 -0.0223 -1.9507 -0.6683
18663TIP3    H277481   0.190   2.825  13.614  0.4497  0.9441  2.6397
18664TIP3   OH277482   6.240   1.570   0.787 -0.7169  0.3689  0.0098
18664TIP3    H177483   6.312   1.632   0.779  0.4229 -1.0056 -0.5840
18664TIP3    H277484   6.237   1.549   0.880 -0.3472  0.4241  0.0348
18665TIP3   OH277485   3.007   0.490   0.742 -0.8306 -0.1397 -0.1340
18665TIP3    H177486   3.052   0.408   0.762 -1.9064 -0.6239  0.3723
18665TIP3    H277487   2.972   0.477   0.654 -0.4939  0.0069 -0.2901
18666TIP3   OH277488   5.662   0.848   0.292 -0.9089 -0.1495  0.4356
18666TIP3    H177489   5.742   0.806   0.259 -0.4804  1.0741 -0.1589
18666TIP3    H277490   5.597   0.831   0.224 -0.3057  1.4756 -0.5924
18667TIP3   OH277491   1.379   2.578  15.816 -0.3988 -0.5165  0.2809
18667TIP3    H177492   1.299   2.534  15.844  0.1110 -0.8843  1.1734
18667TIP3    H277493   1.393   2.646  15.882 -0.6307  0.3205 -0.5341
18668TIP3   OH277494   0.184   0.186  14.541  0.4375 -0.5783 -0.2296
18668TIP3    H177495   0.150   0.097  14.556  0.0375 -0.2519  0.8776
18668TIP3    H277496   0.257   0.194  14.602 -0.1825  0.2082  0.4232
18669TIP3   OH277497   5.923   0.448  15.961  1.0562  0.7375 -0.2189
18669TIP3    H177498   6.018   0.449  15.972  1.0217 -0.5026  0.2863
18669TIP3    H277499   5.908   0.385  15.891  0.6561  1.6427 -0.9579
18670TIP3   OH277500   4.099   6.238  11.870 -0.3776 -0.0161  0.5062
18670TIP3    H177501   4.188   6.263  11.844 -0.3294  1.3413  1.8748
18670TIP3    H277502   4.060   6.320  11.902 -2.7573 -0.1982 -1.8226
18671TIP3   OH277503   2.675   1.649   3.694  0.2385 -0.2179  0.2641
18671TIP3    H177504   2.588   1.631   3.657  0.8678 -0.5565 -1.0837
18671TIP3    H277505   2.657   1.682   3.782 -1.2634 -0.1457 -0.0515
18672TIP3   OH277506   1.050   6.686   1.222  0.2693 -0.5857  0.5485
18672TIP3    H177507   1.102   6.608   1.243  1.8275  0.5829  1.1282
18672TIP3    H277508   1.108   6.738   1.166 -0.9856 -0.1202 -0.3307
18673TIP3   OH277509   1.334   5.620  16.707 -0.5394  0.9073 -0.3279
18673TIP3    H177510   1.308   5.581  16.623  0.5892  2.4247 -1.4096
18673TIP3    H277511   1.294   5.707  16.706 -0.2403  1.0603  0.5678
18674TIP3   OH277512   4.425   0.543  16.057 -0.5658  0.2913  0.0788
18674TIP3    H177513   4.410   0.539  15.963 -0.9024 -3.4806  0.2466
18674TIP3    H277514   4.341   0.522  16.096  0.1505 -0.5942  1.1820
18675TIP3   OH277515   2.285   2.325   5.508  0.3537 -0.0522 -0.1654
18675TIP3    H177516   2.236   2.268   5.567  0.8185  0.6755  0.9300
18675TIP3    H277517   2.377   2.311   5.531  0.6430 -0.8907 -1.7476
18676TIP3   OH277518   6.067   2.667   0.544 -0.2527 -0.2264  0.0601
18676TIP3    H177519   6.095   2.639   0.631 -1.3840 -1.4074  0.0640
18676TIP3    H277520   6.087   2.760   0.541  2.4188 -0.7212  0.5369
18677TIP3   OH277521   4.864   2.282   3.227 -0.2673  0.0068 -0.5565
18677TIP3    H177522   4.904   2.203   3.191 -2.3598 -0.7791 -1.1885
18677TIP3    H277523   4.929   2.315   3.290  1.5821 -0.9649 -1.8931
18678TIP3   OH277524   6.772   1.660  15.076 -0.1716 -0.5430 -0.2733
18678TIP3    H177525   6.843   1.597  15.076 -0.5285 -0.9491 -0.2122
18678TIP3    H277526   6.734   1.654  14.988 -0.7130 -0.9916 -0.0113
18679TIP3   OH277527   0.403   0.679   2.777  0.4390 -0.1903 -0.3674
18679TIP3    H177528   0.336   0.666   2.845  1.1122 -0.8839  0.1787
18679TIP3    H277529   0.461   0.745   2.813 -0.3721  0.9705 -1.1690
18680TIP3   OH277530   0.170   3.562  14.819  0.0457  0.5175 -0.0048
18680TIP3    H177531   0.222   3.530  14.893 -0.9973  0.6432  0.8061
18680TIP3    H277532   0.183   3.496  14.751  2.3166  1.2354 -0.3109
18681TIP3   OH277533   0.595   0.917   3.257 -0.7341 -0.0390  0.1476
18681TIP3    H177534   0.514   0.955   3.222  1.0939  3.2523 -0.7773
18681TIP3    H277535   0.658   0.925   3.185  0.7730 -1.3423  1.2876
18682TIP3   OH277536   3.318   1.773  13.060 -0.2291 -0.9229 -0.2309
18682TIP3    H177537   3.397   1.745  13.012 -0.7364 -0.2327 -1.4994
18682TIP3    H277538   3.275   1.691  13.083  0.8133 -1.3029  0.3832
18683TIP3   OH277539   6.188   6.550   5.971 -0.3220 -0.1255  0.3915
18683TIP3    H177540   6.194   6.501   6.053  2.5091 -1.3148 -0.4521
18683TIP3    H277541   6.201   6.484   5.903  0.6143  1.3355 -0.8870
18684TIP3   OH277542   3.932   4.970  11.825  0.6538  0.1457 -0.2424
18684TIP3    H177543   3.956   5.062  11.824  1.6504 -0.0850  1.0380
18684TIP3    H277544   3.840   4.968  11.798  0.1504  1.6615  1.2887
18685TIP3   OH277545   0.461   2.226  16.668 -0.0090  0.7371 -0.3631
18685TIP3    H177546   0.490   2.289  16.603 -1.0699 -0.4385 -2.0403
18685TIP3    H277547   0.366   2.221  16.655 -0.0782 -0.3642  0.4926
18686TIP3   OH277548   6.316   1.200   5.839  0.2424  0.3025  0.6504
18686TIP3    H177549   6.342   1.110   5.857  1.0875  0.6735  1.2570
18686TIP3    H277550   6.315   1.205   5.743 -2.2115 -1.0470  0.5601
18687TIP3   OH277551   4.194   5.419   1.891  0.0731 -0.2439 -1.1261
18687TIP3    H177552   4.191   5.514   1.880 -0.1380 -0.2086 -0.7885
18687TIP3    H277553   4.233   5.387   1.810 -0.0836  0.1108 -1.3473
18688TIP3   OH277554   4.105   4.412  15.697 -0.1929  0.0822  0.1408
18688TIP3    H177555   4.071   4.374  15.778  0.1006  2.5812  1.4963
18688TIP3    H277556   4.192   4.445  15.721  0.5298 -0.4892 -1.5991
18689TIP3   OH277557   2.216   0.521  16.017 -0.2156 -0.6296  0.6901
18689TIP3    H177558   2.153   0.569  16.071 -0.3167  1.2864 -1.0832
18689TIP3    H277559   2.162   0.457  15.971 -0.7322  0.3620 -0.0966
18690TIP3   OH277560   0.915   1.498  11.426  0.1423  0.0586  0.8246
18690TIP3    H177561   0.851   1.428  11.442  0.2772 -0.1324  0.5278
18690TIP3    H277562   0.878   1.548  11.354  0.2124  0.0933  0.8133
18691TIP3   OH277563   2.647   1.271   3.490 -0.0278  0.6937 -0.0131
18691TIP3    H177564   2.567   1.275   3.436 -0.2325  1.0319  0.3148
18691TIP3    H277565   2.650   1.181   3.521 -0.5006  0.7793  0.2975
18692TIP3   OH277566   5.669   6.184   3.579  0.1886  0.1179  0.3458
18692TIP3    H177567   5.719   6.259   3.546  0.7921 -0.4633 -0.0628
18692TIP3    H277568   5.731   6.137   3.635  0.7494 -1.7302 -1.7648
18693TIP3   OH277569   1.462   3.257   0.677 -0.3130  0.5071  0.2332
18693TIP3    H177570   1.457   3.178   0.731 -1.5891 -0.6951 -1.5517
18693TIP3    H277571   1.554   3.282   0.678  0.1947 -1.3143  0.4071
18694TIP3   OH277572   1.626   3.975   4.933 -0.5566  0.1010  0.7715
18694TIP3    H177573   1.691   4.034   4.893  0.4645 -0.6315  1.3143
18694TIP3    H277574   1.678   3.900   4.962 -1.9033 -1.2503 -0.2797
18695TIP3   OH277575   6.336   3.888   0.308 -0.1488  0.9077 -0.1394
18695TIP3    H177576   6.392   3.865   0.234 -1.4680  0.4538 -1.0296
18695TIP3    H277577   6.324   3.983   0.300  1.3957  1.1926  0.7243
18696TIP3   OH277578   3.415   0.009   5.166 -0.5555  0.4498 -0.1267
18696TIP3    H177579   3.450  -0.076   5.192  0.3002  0.7873 -0.1737
18696TIP3    H277580   3.450   0.071   5.230  0.4264  1.0628 -1.2174
18697TIP3   OH277581   4.417   1.329   5.291 -0.0828 -0.0318 -0.2786
18697TIP3    H177582   4.369   1.248   5.304  2.4216 -1.4363  0.4741
18697TIP3    H277583   4.450   1.352   5.378  0.5068  0.9452 -0.7448
18698TIP3   OH277584   2.807   5.523  11.939  0.2972 -0.0173 -0.6229
18698TIP3    H177585   2.788   5.489  11.852 -1.7802  1.0500 -0.6175
18698TIP3    H277586   2.869   5.595  11.924  0.8126 -0.5548 -1.0971
18699TIP3   OH277587   3.117   6.493   0.248  0.3726 -0.2372 -0.4942
18699TIP3    H177588   3.052   6.554   0.214  0.1329 -0.6648 -0.8249
18699TIP3    H277589   3.155   6.536   0.324 -0.1366  0.1143 -0.4388
18700TIP3   OH277590   0.322   6.817  11.815  0.3415 -0.0715  0.4990
18700TIP3    H177591   0.245   6.768  11.843 -0.1414 -0.2561 -1.0763
18700TIP3    H277592   0.294   6.908  11.812  0.5871  0.0289  1.2627
18701TIP3   OH277593   3.027   5.308  10.570  0.2380 -0.2298 -0.1853
18701TIP3    H177594   2.939   5.280  10.544  0.4820 -0.1662 -1.0932
18701TIP3    H277595   3.086   5.265  10.508  0.7246  1.0344 -0.6272
18702TIP3   OH277596   0.434   5.455   3.287 -0.0018 -0.0405 -0.0495
18702TIP3    H177597   0.482   5.524   3.334 -1.1524  1.0628 -0.4591
18702TIP3    H277598   0.403   5.499   3.208 -2.4085 -0.4991  0.6071
18703TIP3   OH277599   5.979   2.858   2.136 -0.5757  0.2862  0.2007
18703TIP3    H177600   6.009   2.849   2.227 -0.0376  0.1232  0.0061
18703TIP3    H277601   5.923   2.936   2.137 -0.7525  0.1546  0.7188
18704TIP3   OH277602   6.101   4.205  16.615  0.5515 -0.4823 -0.6525
18704TIP3    H177603   6.171   4.266  16.590 -0.3962  0.3812 -1.2462
18704TIP3    H277604   6.020   4.253  16.597 -0.1982 -0.8471  1.6065
18705TIP3   OH277605   3.403   1.907  14.661  0.1087  0.1562  0.6847
18705TIP3    H177606   3.355   1.982  14.697 -0.0324 -0.4103  1.6962
18705TIP3    H277607   3.350   1.879  14.586  0.1250  1.0226  0.3443
18706TIP3   OH277608   3.637   1.633   3.163  0.6203  0.1384 -0.7255
18706TIP3    H177609   3.613   1.670   3.078  3.4214  1.5005 -0.9750
18706TIP3    H277610   3.699   1.696   3.200 -0.6201 -0.4051  2.3723
18707TIP3   OH277611   6.369   0.514   4.182  0.1410  0.0594 -0.3278
18707TIP3    H177612   6.445   0.471   4.221  0.4320  0.5000 -0.4025
18707TIP3    H277613   6.326   0.558   4.255 -1.1375 -1.7745  0.0621
18708TIP3   OH277614   1.818   4.857   2.245 -0.1635 -0.0042 -0.7541
18708TIP3    H177615   1.884   4.815   2.300 -0.3318  1.3549  0.4979
18708TIP3    H277616   1.765   4.908   2.305 -0.0177  1.9522 -2.2324
18709TIP3   OH277617   3.667   3.528   2.206  0.0484 -0.1203 -0.3940
18709TIP3    H177618   3.757   3.498   2.214 -0.6073 -1.3605  2.6869
18709TIP3    H277619   3.632   3.479   2.131  1.3151 -1.1399 -0.3260
18710TIP3   OH277620   3.236   4.400   5.268  0.3268 -0.5742  0.1948
18710TIP3    H177621   3.167   4.464   5.286  0.9025  0.2692 -0.5538
18710TIP3    H277622   3.230   4.384   5.174  0.7281 -0.9889  0.2395
18711TIP3   OH277623   2.881   2.514  16.074  0.0045  0.4851 -1.0790
18711TIP3    H177624   2.831   2.445  16.031 -1.5551  1.2484 -0.5168
18711TIP3    H277625   2.845   2.595  16.040 -0.9269  1.0933  1.2804
18712TIP3   OH277626   0.518   5.867  14.714 -0.5441 -0.1020 -0.0475
18712TIP3    H177627   0.496   5.917  14.793  0.0472 -0.1568  0.1543
18712TIP3    H277628   0.567   5.929  14.659  0.2381 -0.4810  0.2268
18713TIP3   OH277629   5.218   1.504  11.216  0.2272  0.0123  0.0658
18713TIP3    H177630   5.160   1.482  11.289  0.1549 -1.6010 -0.4571
18713TIP3    H277631   5.294   1.447  11.227 -0.2203 -0.9546 -1.6476
18714TIP3   OH277632   2.830   5.482  17.023 -0.2848  0.0373  0.0231
18714TIP3    H177633   2.749   5.431  17.035 -0.8658  1.1547  1.0302
18714TIP3    H277634   2.825   5.515  16.933 -0.4631 -0.7354 -0.2481
18715TIP3   OH277635   4.327   4.979   4.274 -0.4421 -0.4746  0.2484
18715TIP3    H177636   4.296   4.890   4.257 -0.3150 -1.2738  3.7777
18715TIP3    H277637   4.402   4.990   4.215 -1.8137 -1.8654 -1.8071
18716TIP3   OH277638   2.409   6.116   2.297  0.0501  0.0490  0.2294
18716TIP3    H177639   2.503   6.117   2.285  0.2030 -1.5496  1.0714
18716TIP3    H277640   2.397   6.103   2.392 -1.0122  1.3706  0.2878
18717TIP3   OH277641   3.255   4.665  11.840  0.3158 -0.6302 -0.1786
18717TIP3    H177642   3.174   4.615  11.840  0.3253 -0.6530 -1.1466
18717TIP3    H277643   3.269   4.688  11.932  0.1989 -2.2133  0.2476
18718TIP3   OH277644   0.499   0.914   2.876  0.1678  0.4425 -0.4726
18718TIP3    H177645   0.459   0.983   2.824  0.2256  0.2564 -0.7646
18718TIP3    H277646   0.544   0.960   2.947 -2.6341  0.5534  1.3174
18719TIP3   OH277647   5.886   1.487  13.482  0.2115 -0.1771  0.3077
18719TIP3    H177648   5.858   1.472  13.572  1.1406  1.0492  0.8082
18719TIP3    H277649   5.813   1.455  13.429 -1.2842  1.0744  1.5508
18720TIP3   OH277650   5.638   3.921   1.045 -0.5554  0.6154 -0.0157
18720TIP3    H177651   5.695   3.879   0.982 -0.6093 -0.6535  0.7619
18720TIP3    H277652   5.561   3.947   0.995 -0.2858  0.2668 -0.6088
18721TIP3   OH277653   5.484   6.252  15.292  0.8879  0.6740  0.3848
18721TIP3    H177654   5.509   6.259  15.384  0.9063  1.6267  0.3034
18721TIP3    H277655   5.393   6.279  15.290 -0.1507 -2.6239  0.6492
18722TIP3   OH277656   0.497   0.353  11.571 -0.2853 -0.2006  0.3604
18722TIP3    H177657   0.444   0.297  11.628  0.5871  0.8726  2.2598
18722TIP3    H277658   0.494   0.439  11.612  1.2524  0.3495 -0.6415
18723TIP3   OH277659   2.019   0.910  13.830  0.1570  0.0893 -0.0643
18723TIP3    H177660   1.990   0.948  13.747 -0.6449  1.3126  0.7644
18723TIP3    H277661   2.034   0.817  13.810 -4.1203 -0.5657 -0.5800
18724TIP3   OH277662   6.066   0.202  12.104  0.0579 -0.1572  0.6467
18724TIP3    H177663   6.146   0.217  12.055 -0.9910  1.1183 -0.7182
18724TIP3    H277664   6.095   0.193  12.195  1.8864 -1.2822 -0.0209
18725TIP3   OH277665   1.897   0.672  14.518 -0.5580 -0.2526  0.6162
18725TIP3    H177666   1.975   0.728  14.518 -0.8092  0.0977  0.2561
18725TIP3    H277667   1.930   0.585  14.540  0.2916 -0.5972 -1.8065
18726TIP3   OH277668   0.255   0.002   0.318  0.5742  0.4337 -0.7208
18726TIP3    H177669   0.204  -0.073   0.286  1.4475 -0.7626  0.6179
18726TIP3    H277670   0.245  -0.001   0.414 -1.2068  3.3675 -0.7585
18727TIP3   OH277671   3.496   0.543  14.404  0.0605 -0.0161  0.8397
18727TIP3    H177672   3.452   0.494  14.473  1.1545 -2.1756  0.0429
18727TIP3    H277673   3.443   0.526  14.325  0.0352  0.6898  0.6968
18728TIP3   OH277674   1.021   3.973  11.435 -0.2971 -0.3929  0.3457
18728TIP3    H177675   1.092   3.923  11.396  0.0454  0.7105 -0.4988
18728TIP3    H277676   0.953   3.909  11.454  1.3438 -1.6332  2.2033
18729TIP3   OH277677   5.112   1.209   1.177 -0.5169 -0.2581  0.6246
18729TIP3    H177678   5.206   1.201   1.160 -0.6252 -0.4495  0.1065
18729TIP3    H277679   5.091   1.135   1.234 -0.0989  0.5390  1.8443
18730TIP3   OH277680   4.530   5.009   1.001  0.1010  0.0540 -0.5479
18730TIP3    H177681   4.607   5.045   0.956  0.5211  0.5393  0.5393
18730TIP3    H277682   4.457   5.028   0.942  0.3499  2.4789 -0.1139
18731TIP3   OH277683   0.950   3.913  14.950 -0.0775 -0.2849 -0.4066
18731TIP3    H177684   0.895   3.918  14.871  0.2001  1.2337 -0.5270
18731TIP3    H277685   1.026   3.968  14.929 -0.0936  0.2747  0.9815
18732TIP3   OH277686   5.927   4.509   2.471  0.4050 -0.1350 -0.0849
18732TIP3    H177687   5.836   4.538   2.459  0.2790 -0.5613 -0.1682
18732TIP3    H277688   5.950   4.468   2.388  0.5470 -0.3713  0.0730
18733TIP3   OH277689   1.243   1.811   6.694  0.2116 -0.2023 -0.3438
18733TIP3    H177690   1.163   1.825   6.743  0.3373 -1.6850  0.3214
18733TIP3    H277691   1.265   1.719   6.710  2.1218  0.2280 -0.3922
18734TIP3   OH277692   0.804   3.191   4.258  0.2964  0.1752  0.0761
18734TIP3    H177693   0.823   3.255   4.327  0.1404  1.3912 -0.9996
18734TIP3    H277694   0.827   3.106   4.297  0.7224  0.9001  1.4280
18735TIP3   OH277695   3.267   4.575  13.115  0.2839  0.4854  0.3716
18735TIP3    H177696   3.234   4.540  13.198 -1.5546  0.2503 -0.4210
18735TIP3    H277697   3.333   4.512  13.087 -2.3057 -1.9555 -0.5603
18736TIP3   OH277698   3.324   5.602  14.553 -0.1802  0.2040 -0.2407
18736TIP3    H177699   3.343   5.526  14.498 -2.4823 -0.3663 -0.2691
18736TIP3    H277700   3.356   5.578  14.640 -2.3321 -1.4564  0.1241
18737TIP3   OH277701   0.089   4.851   1.332 -1.3217 -0.0768 -0.3091
18737TIP3    H177702   0.136   4.808   1.260 -0.9504  0.7745 -0.5822
18737TIP3    H277703   0.068   4.938   1.298 -0.5216  0.5853  0.8749
18738TIP3   OH277704   0.713   3.732   2.563  0.6494 -0.0042 -0.0332
18738TIP3    H177705   0.754   3.722   2.648  1.5628 -2.2704 -0.6919
18738TIP3    H277706   0.620   3.717   2.579  0.6973  0.4917  0.7131
18739TIP3   OH277707   3.428   1.472  14.476  0.3638 -0.1819  0.4234
18739TIP3    H177708   3.487   1.537  14.513  1.4724 -0.9225 -0.0157
18739TIP3    H277709   3.413   1.410  14.548  0.0472  0.0488  0.5589
18740TIP3   OH277710   5.712   6.348  16.581  0.6322 -0.2096 -0.0639
18740TIP3    H177711   5.774   6.289  16.537  0.8098  0.9795 -1.4332
18740TIP3    H277712   5.742   6.436  16.558 -1.2833  0.3895 -0.3227
18741TIP3   OH277713   2.048   4.820   0.337  0.1052 -0.2805  0.2786
18741TIP3    H177714   2.018   4.764   0.265  0.8350 -1.8282  1.1612
18741TIP3    H277715   2.011   4.781   0.416  0.6017  0.4969  0.9090
18742TIP3   OH277716   0.385   3.862   5.826 -0.0813  0.8669  0.2023
18742TIP3    H177717   0.298   3.856   5.864  0.5904 -2.3207  1.3555
18742TIP3    H277718   0.388   3.792   5.761  2.4950 -0.8263  2.0518
18743TIP3   OH277719   6.683   0.485   3.112 -0.1878  0.0453  0.6332
18743TIP3    H177720   6.624   0.451   3.045  0.6247  1.7106 -0.9857
18743TIP3    H277721   6.727   0.408   3.147 -0.0201 -0.8020 -1.3475
18744TIP3   OH277722   2.081   3.164  16.554  0.1774 -0.0726 -0.6562
18744TIP3    H177723   2.093   3.069  16.558 -2.9262 -0.6335 -3.0495
18744TIP3    H277724   2.123   3.197  16.634 -0.3460 -3.6398  1.1608
18745TIP3   OH277725   2.374   5.014   0.103  0.0322  0.1483  0.1125
18745TIP3    H177726   2.411   4.956   0.169  0.2294 -1.1594 -1.1059
18745TIP3    H277727   2.307   4.961   0.060 -1.3710  1.5934  0.4767
18746TIP3   OH277728   3.444   4.827  13.454  0.7581  0.3358 -0.3868
18746TIP3    H177729   3.365   4.777  13.434  0.9131  0.0804 -0.3668
18746TIP3    H277730   3.412   4.909  13.493  0.4171  1.4095 -2.8467
18747TIP3   OH277731   2.563   0.245  15.643  0.2338  0.2972  0.6629
18747TIP3    H177732   2.479   0.249  15.597  0.4758 -2.5243 -0.1007
18747TIP3    H277733   2.545   0.282  15.729 -1.3948  1.2109 -0.0575
18748TIP3   OH277734   2.216   5.377  11.233 -0.1419  0.1028  0.0338
18748TIP3    H177735   2.241   5.408  11.146  0.5353 -1.6577 -0.4121
18748TIP3    H277736   2.144   5.435  11.259 -1.2196 -0.1737 -2.2322
18749TIP3   OH277737   6.332   2.598  13.929 -0.0261 -0.2930 -0.1972
18749TIP3    H177738   6.248   2.553  13.940 -0.3299  0.2818 -0.0964
18749TIP3    H277739   6.398   2.531  13.944 -0.4487 -0.2802  1.9519
18750TIP3   OH277740   4.838   3.406   1.684  0.1046  0.3571 -0.3825
18750TIP3    H177741   4.770   3.420   1.618 -0.5428  0.9444  0.4064
18750TIP3    H277742   4.889   3.332   1.650 -2.8043 -2.1925  0.5038
18751TIP3   OH277743   4.107   5.769   0.244  0.1770  0.1381  0.1019
18751TIP3    H177744   4.112   5.847   0.300  0.9792 -1.1810  1.9435
18751TIP3    H277745   4.067   5.702   0.300 -0.3150 -0.8303 -1.3868
18752TIP3   OH277746   1.881   0.269   4.396  0.1614 -0.0867 -0.3176
18752TIP3    H177747   1.857   0.215   4.320  0.7773  0.4902 -0.9351
18752TIP3    H277748   1.801   0.316   4.419 -0.1297 -0.5576 -0.3679
18753TIP3   OH277749   1.251   0.420  12.147  0.2579  0.0396 -0.1779
18753TIP3    H177750   1.325   0.424  12.087 -2.0092  0.7916 -3.0198
18753TIP3    H277751   1.218   0.510  12.151 -2.0150 -0.7440 -0.9347
18754TIP3   OH277752   2.380   1.635   5.495  0.2403  0.4817 -0.0084
18754TIP3    H177753   2.388   1.628   5.590  0.3497 -0.2228 -0.0690
18754TIP3    H277754   2.303   1.690   5.481 -0.6940 -0.7072  0.4644
18755TIP3   OH277755   0.621   0.537  10.973  0.2401  0.0767 -0.5125
18755TIP3    H177756   0.551   0.601  10.988  0.7685  0.2714  1.1549
18755TIP3    H277757   0.610   0.473  11.044  0.3340 -1.1519 -1.5887
18756TIP3   OH277758   3.944   3.194   1.856  0.3406 -0.5433 -0.1636
18756TIP3    H177759   3.927   3.102   1.836  1.5845 -0.8076 -0.0569
18756TIP3    H277760   3.975   3.193   1.947  0.8387 -0.0728 -0.3311
18757TIP3   OH277761   3.336   1.592   2.002  0.1500 -0.2742  0.9399
18757TIP3    H177762   3.339   1.499   2.023  0.8738 -0.5058 -0.1532
18757TIP3    H277763   3.254   1.604   1.954 -0.1723 -0.2631  1.4977
18758TIP3   OH277764   5.413   4.062   5.926 -0.2914  0.1478  0.4875
18758TIP3    H177765   5.366   4.069   5.843 -0.7169 -0.3119  0.6873
18758TIP3    H277766   5.427   4.153   5.954 -1.2017  0.2878  0.5057
18759TIP3   OH277767   4.680   0.631   3.680  0.1973 -0.4298  0.2927
18759TIP3    H177768   4.658   0.692   3.751 -0.0990 -1.2645  0.9217
18759TIP3    H277769   4.772   0.648   3.661 -0.1523  0.9233 -0.2312
18760TIP3   OH277770   3.394   6.563  16.549 -0.2138 -0.4702  0.1350
18760TIP3    H177771   3.460   6.496  16.530 -1.1533 -1.2493 -0.4582
18760TIP3    H277772   3.397   6.622  16.473  0.6417  0.2019  0.6769
18761TIP3   OH277773   1.899   4.455  16.575  0.0021 -0.5517 -0.0596
18761TIP3    H177774   1.855   4.533  16.542  0.0179 -0.1404  0.8904
18761TIP3    H277775   1.921   4.405  16.496  0.1760  0.4952 -0.6879
18762TIP3   OH277776   5.632   1.303  12.906  0.7901 -0.7398  0.0516
18762TIP3    H177777   5.658   1.263  12.989 -0.2049  1.4511  1.4628
18762TIP3    H277778   5.541   1.277  12.894  1.5317 -2.7991 -1.4729
18763TIP3   OH277779   0.863   4.064  15.923  0.6238 -0.2235  0.1887
18763TIP3    H177780   0.843   3.978  15.888  0.3769  0.2285 -0.8001
18763TIP3    H277781   0.938   4.094  15.872  0.9464  0.0022  0.7807
18764TIP3   OH277782   2.354   3.771   2.044 -0.3604 -0.5166 -0.4300
18764TIP3    H177783   2.363   3.723   1.962  0.1781  0.1341 -0.7609
18764TIP3    H277784   2.316   3.856   2.018 -0.5476 -0.4540  0.0411
18765TIP3   OH277785   1.406   3.439  15.709  0.4233 -0.5032  0.2579
18765TIP3    H177786   1.454   3.358  15.691 -0.2075 -1.0041  0.8031
18765TIP3    H277787   1.316   3.421  15.682  0.3206  0.0773  0.2076
18766TIP3   OH277788   5.574   1.093   5.122  0.2365  0.3429  0.3264
18766TIP3    H177789   5.640   1.071   5.187  0.4354  0.1686  0.0722
18766TIP3    H277790   5.567   1.188   5.125  0.5625  0.3695  0.2979
18767TIP3   OH277791   4.272   6.287   0.340 -0.4171  0.5418  0.2429
18767TIP3    H177792   4.250   6.223   0.272 -1.8047  0.7259  0.5019
18767TIP3    H277793   4.191   6.336   0.355  0.9681  3.3476 -0.9761
18768TIP3   OH277794   6.536   1.901   4.061  0.4132  0.3949  0.4968
18768TIP3    H177795   6.443   1.920   4.058  0.3858  0.0716 -0.8052
18768TIP3    H277796   6.542   1.807   4.042  1.0716  0.6128 -0.3968
18769TIP3   OH277797   5.285   4.350  10.797 -0.3128  0.2390  0.2959
18769TIP3    H177798   5.296   4.351  10.892  0.1028  2.2662  0.2416
18769TIP3    H277799   5.190   4.358  10.784 -0.6184 -2.5283  0.5491
18770TIP3   OH277800   2.991   2.285   5.389 -0.4393 -0.4229  0.0973
18770TIP3    H177801   2.978   2.259   5.298  0.0461  0.5036 -0.2426
18770TIP3    H277802   2.911   2.332   5.413 -1.4913 -2.5135  0.8395
18771TIP3   OH277803   2.474   0.283   5.443  0.1783  0.1537 -0.2581
18771TIP3    H177804   2.465   0.188   5.456  0.9771 -0.0710 -1.2152
18771TIP3    H277805   2.385   0.315   5.434 -0.1326 -0.4107  0.6922
18772TIP3   OH277806   3.850   0.408   5.212 -0.5112 -0.1691  0.2264
18772TIP3    H177807   3.769   0.457   5.196  0.0009  0.6454  0.0869
18772TIP3    H277808   3.906   0.470   5.258  0.3804 -0.4313 -0.5013
18773TIP3   OH277809   5.209   1.782   3.955  0.1493  0.3522 -0.2937
18773TIP3    H177810   5.273   1.827   3.901  1.1481  1.0691  1.4288
18773TIP3    H277811   5.124   1.812   3.922  0.7580  1.5702 -0.7886
18774TIP3   OH277812   6.307   3.464   4.247  0.2403 -0.1819 -0.0122
18774TIP3    H177813   6.387   3.420   4.276  0.3006  0.6729  1.1357
18774TIP3    H277814   6.337   3.530   4.185  0.6173  1.2974  1.7126
18775TIP3   OH277815   1.592   2.791  16.543  0.2097  0.4343 -0.5701
18775TIP3    H177816   1.524   2.856  16.528 -1.4764 -1.0138  0.5581
18775TIP3    H277817   1.577   2.725  16.475  1.3056  0.7516 -1.1217
18776TIP3   OH277818   3.726   3.128  13.875 -0.2668 -0.6872 -0.1414
18776TIP3    H177819   3.644   3.108  13.831 -0.5313  0.9876 -0.4612
18776TIP3    H277820   3.700   3.170  13.957  0.2630 -0.1700 -0.2318
18777TIP3   OH277821   3.950   6.176   5.698 -0.3489  0.6032  0.1278
18777TIP3    H177822   3.990   6.239   5.758 -2.0870  0.1954  1.7866
18777TIP3    H277823   3.943   6.095   5.749  1.6948 -0.9411 -1.9143
18778TIP3   OH277824   0.918   1.337   4.421  0.7547 -0.3713  0.3014
18778TIP3    H177825   0.917   1.243   4.404 -0.8303 -0.6507  1.8110
18778TIP3    H277826   0.827   1.365   4.410  0.9308  0.6936  1.3784
18779TIP3   OH277827   0.271   5.736  11.012 -0.3888 -0.2692  0.2449
18779TIP3    H177828   0.318   5.653  11.019  0.3743  0.1721  0.3654
18779TIP3    H277829   0.268   5.769  11.102  1.4661  1.0221 -0.1540
18780TIP3   OH277830   3.150   2.549   2.423  0.4214 -0.1082 -0.3300
18780TIP3    H177831   3.212   2.608   2.465 -0.0679 -0.2303  0.5882
18780TIP3    H277832   3.118   2.597   2.347  0.7647  0.4186 -0.1444
18781TIP3   OH277833   5.718   5.687  13.384 -0.3300  0.0632 -0.2858
18781TIP3    H177834   5.696   5.779  13.396 -1.2421  0.1538 -2.4391
18781TIP3    H277835   5.650   5.653  13.326  0.7418 -1.6470 -0.5916
18782TIP3   OH277836   6.198   3.432   1.038  0.1019  0.3695  0.6151
18782TIP3    H177837   6.249   3.410   0.960  0.1955 -0.2824  0.8647
18782TIP3    H277838   6.168   3.522   1.022  0.2741  0.3013 -0.0885
18783TIP3   OH277839   4.550   3.595   5.087 -0.0165  0.2253 -0.0647
18783TIP3    H177840   4.503   3.568   5.167  1.7937  0.1204  0.9826
18783TIP3    H277841   4.535   3.689   5.081 -1.2542  0.0265 -0.3522
18784TIP3   OH277842   3.229   3.005  14.470 -0.7397 -0.3581  0.1871
18784TIP3    H177843   3.141   3.025  14.501 -0.9037 -0.1016 -0.4394
18784TIP3    H277844   3.219   2.924  14.420 -0.8706  0.4013 -1.0383
18785TIP3   OH277845   1.769   2.544  15.674 -0.3710 -0.4774  0.0627
18785TIP3    H177846   1.763   2.536  15.579 -1.6341  2.2935 -0.1194
18785TIP3    H277847   1.767   2.453  15.705  0.0310 -1.4203 -2.5310
18786TIP3   OH277848   0.598   2.160  16.877  0.3331 -0.5979  0.3770
18786TIP3    H177849   0.647   2.239  16.902 -0.4926 -0.7375  2.4769
18786TIP3    H277850   0.522   2.193  16.830 -0.4024 -0.0953  1.9104
18787TIP3   OH277851   2.831   6.111  11.446 -0.2106  0.3708  0.6040
18787TIP3    H177852   2.793   6.152  11.369  0.9707  1.6712  0.6938
18787TIP3    H277853   2.786   6.026  11.453 -3.6623  2.1484  1.1852
18788TIP3   OH277854   0.409   5.881  16.335  0.4762  0.4269  0.4055
18788TIP3    H177855   0.448   5.870  16.248 -1.4073 -0.4943 -0.3541
18788TIP3    H277856   0.445   5.964  16.367  0.7373  1.0678 -1.4985
18789TIP3   OH277857   1.585   0.622   0.818  0.2127 -0.7088  0.1720
18789TIP3    H177858   1.547   0.559   0.757  0.6417  0.0877 -0.9565
18789TIP3    H277859   1.588   0.704   0.768 -1.4658  0.5223  1.9866
18790TIP3   OH277860   4.655   2.879   1.400 -0.5118 -0.1466 -0.0098
18790TIP3    H177861   4.673   2.932   1.478 -1.3664 -0.4359  0.3835
18790TIP3    H277862   4.560   2.872   1.397 -0.4119 -1.5832 -0.1107
18791TIP3   OH277863   2.533   2.148   1.443  0.0646 -0.1204 -0.3278
18791TIP3    H177864   2.561   2.066   1.404  0.9618  0.8923 -1.8613
18791TIP3    H277865   2.607   2.176   1.497 -0.4886 -0.6262  0.7090
18792TIP3   OH277866   0.231   1.126   0.323  0.0814  0.4115 -0.3689
18792TIP3    H177867   0.276   1.053   0.280  0.9361  0.9795 -0.4335
18792TIP3    H277868   0.224   1.099   0.415  0.8245  0.4526 -0.2970
18793TIP3   OH277869   6.801   6.603  13.136  0.2990  0.0923  0.2260
18793TIP3    H177870   6.796   6.507  13.141 -2.0799 -0.0034 -2.4398
18793TIP3    H277871   6.749   6.634  13.210 -1.3738 -0.7616 -0.5457
18794TIP3   OH277872   1.543   4.062  11.372  0.2556  0.2401  0.0664
18794TIP3    H177873   1.485   4.123  11.327 -1.3937 -1.8271 -0.6720
18794TIP3    H277874   1.567   3.998  11.306 -0.6625 -1.7416  1.5996
18795TIP3   OH277875   4.238   0.363   2.300  0.1695 -0.3828  0.0320
18795TIP3    H177876   4.268   0.310   2.226  0.4577 -0.1698 -0.0009
18795TIP3    H277877   4.302   0.346   2.369  0.7089  0.5580 -0.2420
18796TIP3   OH277878   5.655   1.649  17.131  0.1824  0.1105 -0.2155
18796TIP3    H177879   5.612   1.604  17.204  0.0807  0.9301  0.2333
18796TIP3    H277880   5.744   1.614  17.129  0.2972  0.3658  0.5393
18797TIP3   OH277881   6.633   4.898  11.871  0.0056 -0.3572 -0.0777
18797TIP3    H177882   6.720   4.874  11.837 -0.0991 -2.0058  0.7597
18797TIP3    H277883   6.647   4.913  11.964 -0.9318 -2.5120  0.4436
18798TIP3   OH277884   1.039   4.400   3.572  0.6899  0.5095 -0.0421
18798TIP3    H177885   1.039   4.405   3.477  1.0826  1.9774  0.0189
18798TIP3    H277886   1.115   4.346   3.594 -0.1574 -0.9208 -0.6004
18799TIP3   OH277887   5.000   1.630   2.216 -0.0102  0.4640  0.4594
18799TIP3    H177888   4.952   1.707   2.186  1.9164  1.5663  0.0615
18799TIP3    H277889   5.008   1.575   2.138  2.1487  1.8055 -0.3210
18800TIP3   OH277890   3.161   6.695   2.641  0.1515  0.0301 -0.2352
18800TIP3    H177891   3.242   6.644   2.645  0.7231  0.8308 -1.1968
18800TIP3    H277892   3.144   6.705   2.547 -0.0243  1.4861 -0.0558
18801TIP3   OH277893   2.209   3.028   2.031  0.3831 -0.2788 -0.3696
18801TIP3    H177894   2.157   3.092   1.982  0.9101  0.6109  0.2224
18801TIP3    H277895   2.294   3.070   2.043  0.4540 -0.7383  0.7735
18802TIP3   OH277896   5.305   2.868   4.019 -0.2137  0.0349  0.2535
18802TIP3    H177897   5.237   2.908   3.965  0.8482  0.8536 -0.5088
18802TIP3    H277898   5.387   2.904   3.984  0.6997 -2.0393  0.1889
18803TIP3   OH277899   6.286   2.270   5.781 -0.1222  0.2018  0.6292
18803TIP3    H177900   6.324   2.244   5.697 -0.2782 -0.2858  0.7037
18803TIP3    H277901   6.343   2.229   5.846 -0.3481  0.0742  0.7495
18804TIP3   OH277902   3.289   5.265   5.433 -0.7989 -0.1469 -0.2664
18804TIP3    H177903   3.383   5.246   5.443 -0.9100 -0.8123 -0.4676
18804TIP3    H277904   3.249   5.225   5.510 -1.0079 -0.4926 -0.5584
18805TIP3   OH277905   6.319   5.540   5.207  0.3945  0.2613 -0.0664
18805TIP3    H177906   6.343   5.631   5.222 -0.0282  0.1007  1.6771
18805TIP3    H277907   6.360   5.492   5.280  0.4702 -0.9114 -0.8655
18806TIP3   OH277908   4.932   3.728   2.476  0.2468  0.2883 -0.9306
18806TIP3    H177909   4.923   3.764   2.564 -0.7171  0.5513 -1.1344
18806TIP3    H277910   5.023   3.698   2.472  0.4644  0.8134 -0.0555
18807TIP3   OH277911   0.775   3.667   1.915 -0.0417  0.7560 -0.2844
18807TIP3    H177912   0.716   3.732   1.876 -0.9333 -1.0182 -1.9894
18807TIP3    H277913   0.811   3.619   1.840  0.3763 -0.8989  0.9401
18808TIP3   OH277914   5.641   1.893   4.671  0.4604 -0.3738 -0.1163
18808TIP3    H177915   5.650   1.988   4.668 -0.7961 -0.2562 -0.3936
18808TIP3    H277916   5.625   1.873   4.763  0.6868 -0.3062 -0.0636
18809TIP3   OH277917   3.469   5.804   0.549  0.1385 -0.4215 -0.3387
18809TIP3    H177918   3.483   5.742   0.620  0.9615  0.3596  0.1930
18809TIP3    H277919   3.422   5.754   0.482  1.1132 -1.7208 -0.0742
18810TIP3   OH277920   1.810   6.248  13.497 -0.5898 -0.0596 -0.2766
18810TIP3    H177921   1.730   6.203  13.524  0.7839 -1.8457  0.8940
18810TIP3    H277922   1.786   6.341  13.497 -3.0949 -0.6537 -1.4704
18811TIP3   OH277923   0.808   1.057  15.149  0.1165  0.3775 -0.3169
18811TIP3    H177924   0.770   0.976  15.114  0.8223 -0.7703  1.4954
18811TIP3    H277925   0.793   1.052  15.243 -0.2929  2.6359 -0.2294
18812TIP3   OH277926   2.887   2.325   2.862 -0.1055 -1.2721 -0.3429
18812TIP3    H177927   2.792   2.329   2.874 -0.0138  0.6291 -0.0664
18812TIP3    H277928   2.902   2.367   2.777  0.4912 -1.7141 -0.4637
18813TIP3   OH277929   6.511   0.370   2.239  0.2904  0.0468  0.2271
18813TIP3    H177930   6.555   0.285   2.233 -0.0568 -0.1322  0.1599
18813TIP3    H277931   6.582   0.434   2.243  0.5580 -0.2790  0.7548
18814TIP3   OH277932   1.206   0.925   4.415 -0.3583 -0.1129  0.6460
18814TIP3    H177933   1.289   0.920   4.369 -0.8310  0.0316 -0.2431
18814TIP3    H277934   1.217   0.997   4.478 -0.1065  0.4806 -0.0730
18815TIP3   OH277935   4.621   3.015   5.410 -0.1084 -0.1943 -0.2753
18815TIP3    H177936   4.691   2.950   5.413 -0.5989 -0.6821  1.2579
18815TIP3    H277937   4.586   3.016   5.499 -0.4833  1.7711 -0.4271
18816TIP3   OH277938   5.225   0.115   1.181  0.1698  0.0297 -0.5499
18816TIP3    H177939   5.159   0.110   1.250  1.3489  0.2811  0.6054
18816TIP3    H277940   5.287   0.180   1.212  0.1424  0.9506 -2.3548
18817TIP3   OH277941   3.280   5.526  15.855  0.1951  0.0230 -0.1181
18817TIP3    H177942   3.259   5.433  15.851  0.6463 -0.0085 -1.9702
18817TIP3    H277943   3.352   5.538  15.794  1.1983  1.3159  1.2832
18818TIP3   OH277944   1.268   5.763   4.296 -0.0688  0.5420  0.0086
18818TIP3    H177945   1.352   5.755   4.250 -0.5640  0.0465 -0.8132
18818TIP3    H277946   1.247   5.857   4.291  0.5869  0.7229  0.5032
18819TIP3   OH277947   5.296   3.300   1.226  0.1803  0.1243 -0.1851
18819TIP3    H177948   5.335   3.286   1.139 -0.5677 -2.0175 -0.2095
18819TIP3    H277949   5.207   3.331   1.208 -0.0086 -0.4168 -0.1860
18820TIP3   OH277950   0.536   6.599   2.345  0.1327  0.7799  0.2313
18820TIP3    H177951   0.578   6.674   2.304  1.0229 -0.0877 -0.4609
18820TIP3    H277952   0.541   6.530   2.279 -1.2421  0.2938  0.6249
18821TIP3   OH277953   3.149   4.174  11.875  0.1344  0.3141 -0.3248
18821TIP3    H177954   3.074   4.231  11.858 -0.4893 -0.0088  1.2428
18821TIP3    H277955   3.224   4.225  11.846 -0.6106  0.9463 -1.2115
18822TIP3   OH277956   5.722   1.271   2.729 -0.1765 -0.1118  0.4328
18822TIP3    H177957   5.811   1.241   2.749  0.1851  0.6184 -0.0494
18822TIP3    H277958   5.666   1.224   2.791 -0.0267 -4.4059 -2.4613
18823TIP3   OH277959   6.255   4.806   0.869 -0.1704  0.4744  0.3047
18823TIP3    H177960   6.303   4.863   0.809 -1.8491  1.3506 -0.2277
18823TIP3    H277961   6.235   4.862   0.944 -0.8584  0.2807  0.2691
18824TIP3   OH277962   4.465   3.406  15.618 -0.0233  0.4859  0.5352
18824TIP3    H177963   4.452   3.441  15.707  0.6212 -0.2983  0.9533
18824TIP3    H277964   4.529   3.336  15.630  1.1498  1.2981 -0.7593
18825TIP3   OH277965   5.275   5.128   4.986 -0.6443 -0.5851  0.2941
18825TIP3    H177966   5.275   5.095   4.896  2.0088 -2.2962  0.8666
18825TIP3    H277967   5.326   5.208   4.982 -1.1362 -0.2746  0.1630
18826TIP3   OH277968   0.294   0.004   3.835 -0.1772  0.5529 -0.3175
18826TIP3    H177969   0.370   0.056   3.810  1.4475 -1.8117 -0.4960
18826TIP3    H277970   0.219   0.056   3.807  1.3345  3.1903  0.3501
18827TIP3   OH277971   5.792   5.419  13.121 -0.4279  0.5128  0.4514
18827TIP3    H177972   5.746   5.398  13.201 -1.3621  0.0303 -0.2122
18827TIP3    H277973   5.734   5.478  13.074 -0.4572 -0.2397 -0.4712
18828TIP3   OH277974   5.421   0.426  13.869  0.3750 -0.3005 -0.0433
18828TIP3    H177975   5.349   0.418  13.931  1.1318  0.5503  0.9610
18828TIP3    H277976   5.484   0.484  13.912  1.9393 -1.5078 -0.6433
18829TIP3   OH277977   3.462   0.569  16.422 -0.2362  0.2696  0.0137
18829TIP3    H177978   3.500   0.656  16.436 -1.2330  0.5297  1.1199
18829TIP3    H277979   3.387   0.565  16.481 -1.0205 -0.8347 -1.0296
18830TIP3   OH277980   6.400   5.797   3.787 -0.2034 -0.0078 -0.1550
18830TIP3    H177981   6.405   5.826   3.878  0.1722 -1.1622  0.2019
18830TIP3    H277982   6.308   5.775   3.774 -0.0628 -0.9056  0.2941
18831TIP3   OH277983   4.974   4.753  16.174 -0.1819  0.1985  0.7903
18831TIP3    H177984   5.046   4.692  16.155 -0.3036  0.5701 -0.9477
18831TIP3    H277985   5.018   4.831  16.206  0.3269  0.9475 -1.6244
18832TIP3   OH277986   3.934   2.117   1.320 -0.0486  0.7680 -0.1366
18832TIP3    H177987   3.924   2.040   1.377 -2.6456  1.9363  1.0805
18832TIP3    H277988   3.892   2.091   1.238  1.8561 -0.1849 -0.8371
18833TIP3   OH277989   1.720   4.806  10.491 -0.2266  0.1185 -0.0929
18833TIP3    H177990   1.749   4.852  10.412  1.6759  0.8391  0.9791
18833TIP3    H277991   1.788   4.740  10.507  0.7085  1.5519  2.2435
18834TIP3   OH277992   4.598   1.103   3.792  0.6729 -0.8791  0.6592
18834TIP3    H177993   4.686   1.097   3.830  0.4135 -0.0219  1.4129
18834TIP3    H277994   4.542   1.056   3.854  0.2914  0.2832  1.2039
18835TIP3   OH277995   1.747   3.978   2.148  0.3122  0.4645  0.0405
18835TIP3    H177996   1.786   4.056   2.107 -0.9362  1.3133  0.4451
18835TIP3    H277997   1.728   4.004   2.238  0.3492 -0.4707  0.3294
18836TIP3   OH277998   6.397   0.033  11.926 -0.1737  0.0381  0.2677
18836TIP3    H177999   6.317   0.042  11.874  0.4624 -0.3340 -0.8031
18836TIP3    H278000   6.381   0.083  12.005 -1.1898  0.5638 -0.2685
18837TIP3   OH278001   0.221   5.680  13.854 -0.0711 -0.2421  0.1127
18837TIP3    H178002   0.220   5.585  13.846 -0.8191 -0.4429  2.4863
18837TIP3    H278003   0.299   5.699  13.907 -0.6202  0.3810  0.7002
18838TIP3   OH278004   6.434   5.774  14.223  1.8181  0.4698  0.2946
18838TIP3    H178005   6.377   5.719  14.275  1.2207 -1.7488 -2.6161
18838TIP3    H278006   6.443   5.854  14.275 -3.2132  0.5843  1.2635
18839TIP3   OH278007   2.370   1.331   0.152 -0.7710 -0.4638  0.2113
18839TIP3    H178008   2.446   1.379   0.186 -1.0252  0.2175 -0.1882
18839TIP3    H278009   2.403   1.242   0.138  0.2227  0.0745 -0.8939
18840TIP3   OH278010   0.958   5.111   0.770  0.6602 -0.4498 -0.2242
18840TIP3    H178011   1.052   5.106   0.756  0.6052 -1.9460 -0.0859
18840TIP3    H278012   0.928   5.178   0.709  1.9507  0.7993  0.4812
18841TIP3   OH278013   0.604   0.440   5.565 -0.0924 -0.0947  0.2077
18841TIP3    H178014   0.509   0.450   5.567  0.0545  1.6669 -0.4228
18841TIP3    H278015   0.622   0.368   5.625 -1.8973 -1.1120 -0.4566
18842TIP3   OH278016   0.508   1.981   5.721 -0.3929 -0.1339 -0.2040
18842TIP3    H178017   0.537   1.980   5.630 -1.0111 -1.5507 -0.3889
18842TIP3    H278018   0.423   1.938   5.721  0.6704 -2.3751  1.3812
18843TIP3   OH278019   5.573   6.533   0.949 -0.5780 -0.3801  0.2398
18843TIP3    H178020   5.550   6.587   0.874 -1.9564 -1.6915 -0.3120
18843TIP3    H278021   5.559   6.590   1.025 -0.5072  0.5087 -0.4054
18844TIP3   OH278022   5.662   6.642   1.480  0.1215 -0.3238 -0.7754
18844TIP3    H178023   5.729   6.624   1.546 -0.6057 -1.3566 -0.2951
18844TIP3    H278024   5.689   6.724   1.440 -0.4361  1.3695  2.1459
18845TIP3   OH278025   0.771   2.713  12.781  0.3264  0.4148 -0.4365
18845TIP3    H178026   0.773   2.761  12.699  2.7376  1.1982  0.0479
18845TIP3    H278027   0.751   2.779  12.847 -2.2195 -0.3152 -0.4196
18846TIP3   OH278028   2.420   3.782  14.347  0.2528 -0.2832  0.3549
18846TIP3    H178029   2.515   3.779  14.359  0.2880 -0.1888  0.0995
18846TIP3    H278030   2.388   3.702  14.390  0.5606 -0.9269 -0.6136
18847TIP3   OH278031   4.896   4.666  11.046  0.0270 -0.1702  0.0326
18847TIP3    H178032   4.855   4.737  11.096  1.6102  0.6140  0.2599
18847TIP3    H278033   4.825   4.628  10.995 -1.0051  1.0459  0.5388
18848TIP3   OH278034   2.914   2.744   6.206  0.7459  0.4399  0.0399
18848TIP3    H178035   2.978   2.713   6.143  0.5016  0.3880 -0.1821
18848TIP3    H278036   2.869   2.665   6.236 -1.8239  0.8288 -2.6258
18849TIP3   OH278037   3.050   3.425   2.054 -0.1819 -0.4222 -0.1357
18849TIP3    H178038   3.114   3.382   2.110 -0.0812  1.0073  0.8759
18849TIP3    H278039   2.970   3.428   2.106  0.0907  1.4981  0.2159
18850TIP3   OH278040   3.829   1.573   5.941 -0.3417  0.3299  0.1564
18850TIP3    H178041   3.787   1.498   5.985  0.9665 -0.3604  0.2730
18850TIP3    H278042   3.889   1.608   6.007 -1.5766  2.0325  0.3910
18851TIP3   OH278043   3.461   4.379  13.044  0.2127  0.6683  0.5510
18851TIP3    H178044   3.524   4.440  13.006 -1.1147  0.4202 -2.2119
18851TIP3    H278045   3.427   4.331  12.969  0.1209 -2.4585  2.4990
18852TIP3   OH278046   4.545   6.010  14.637 -0.3801 -0.1772  0.1749
18852TIP3    H178047   4.520   6.097  14.606 -2.3325 -1.0872 -0.8863
18852TIP3    H278048   4.633   5.997  14.602  0.5189  1.8989  1.5147
18853TIP3   OH278049   5.875   2.456  11.402  0.3410  0.4413 -0.4186
18853TIP3    H178050   5.875   2.463  11.497 -0.1683 -4.2243  0.0777
18853TIP3    H278051   5.811   2.521  11.372 -3.4987 -1.6095  2.8787
18854TIP3   OH278052   4.091   5.353   4.295  0.0053 -0.4035 -0.6337
18854TIP3    H178053   4.112   5.324   4.206 -3.0050  1.7086 -2.1062
18854TIP3    H278054   4.065   5.273   4.341  3.6111 -1.8577 -0.9460
18855TIP3   OH278055   6.618   3.433  13.913 -0.3550 -0.1471 -0.2663
18855TIP3    H178056   6.553   3.387  13.859  1.1857 -0.2653 -2.0712
18855TIP3    H278057   6.654   3.501  13.855  0.2314  0.7467  1.1141
18856TIP3   OH278058   4.890   2.697  15.197 -0.2976 -0.0731  0.4462
18856TIP3    H178059   4.814   2.716  15.252 -1.2372  2.3674 -1.5719
18856TIP3    H278060   4.917   2.783  15.164  0.7763 -1.3814 -2.1741
18857TIP3   OH278061   1.742   0.691  14.735  0.5405 -0.0423  0.3138
18857TIP3    H178062   1.806   0.689  14.663 -0.9991 -0.1958 -1.0864
18857TIP3    H278063   1.662   0.726  14.695 -0.1756  0.4081  2.1057
18858TIP3   OH278064   1.296   2.989   1.653  0.2297 -0.1006  0.9259
18858TIP3    H178065   1.320   3.053   1.720 -0.2693 -0.2391  1.2449
18858TIP3    H278066   1.324   2.904   1.689  0.4765 -0.1126  0.7073
18859TIP3   OH278067   1.618   0.501   1.770  0.0106  0.4536  0.0356
18859TIP3    H178068   1.674   0.579   1.775  0.2682  0.3736 -1.6028
18859TIP3    H278069   1.552   0.524   1.705  0.4591 -0.9428 -0.9116
18860TIP3   OH278070   1.717   1.326  12.793 -0.4083 -0.1044 -0.2798
18860TIP3    H178071   1.767   1.293  12.718  0.5027 -0.0117  0.2714
18860TIP3    H278072   1.780   1.323  12.866 -1.6752 -1.5036  0.7773
18861TIP3   OH278073   4.228   6.585   0.103  0.1851 -0.5512  0.3721
18861TIP3    H178074   4.226   6.561   0.195  0.4492  0.0044  0.5263
18861TIP3    H278075   4.321   6.599   0.084  0.3153 -2.4180 -0.4377
18862TIP3   OH278076   5.351   0.564   3.358 -0.3674 -0.0892 -0.5474
18862TIP3    H178077   5.261   0.557   3.325 -0.4561  0.6367 -0.4630
18862TIP3    H278078   5.398   0.491   3.316 -1.0039 -0.4981 -0.5559
18863TIP3   OH278079   1.804   4.395  16.817 -0.0175 -0.2829  0.2434
18863TIP3    H178080   1.830   4.425  16.730 -2.0320 -0.3896 -0.4291
18863TIP3    H278081   1.788   4.301  16.807 -2.2946  0.0809  0.1945
18864TIP3   OH278082   1.773   4.182   2.388  0.2402  0.5687 -0.9543
18864TIP3    H178083   1.850   4.126   2.396  0.2047  0.8196  1.3347
18864TIP3    H278084   1.806   4.263   2.348  0.6802 -0.2382 -2.2665
18865TIP3   OH278085   4.054   5.029   0.444 -0.3642 -0.5907 -0.1577
18865TIP3    H178086   4.140   4.999   0.474  1.0782  2.1679 -1.3509
18865TIP3    H278087   4.019   4.955   0.395  1.1317 -1.9025  0.6927
18866TIP3   OH278088   1.815   3.623  13.259  0.1646 -0.2707 -0.3301
18866TIP3    H178089   1.907   3.643  13.275  0.1531  0.5432 -1.2727
18866TIP3    H278090   1.810   3.603  13.166 -0.6593 -0.0818 -0.3282
18867TIP3   OH278091   2.008   1.893  13.187 -0.6079 -0.0736  0.4316
18867TIP3    H178092   1.974   1.918  13.273  1.1700 -0.3903  1.2505
18867TIP3    H278093   2.013   1.975  13.138  0.7622  0.5122  1.5115
18868TIP3   OH278094   3.682   3.406   5.246  0.4415  0.1802  0.0274
18868TIP3    H178095   3.771   3.386   5.273 -0.1785 -0.6186  1.5307
18868TIP3    H278096   3.658   3.335   5.186  0.0992 -0.7530  1.2467
18869TIP3   OH278097   6.381   2.482  12.690 -0.2021  0.3441 -0.0798
18869TIP3    H178098   6.314   2.477  12.758 -1.1065 -1.1479 -1.0509
18869TIP3    H278099   6.362   2.408  12.632 -0.3419  2.4124 -2.7796
18870TIP3   OH278100   1.055   3.058   6.027 -0.0022 -0.4575 -0.1426
18870TIP3    H178101   0.964   3.055   6.057  0.3034  2.4361  1.2433
18870TIP3    H278102   1.099   2.989   6.077 -1.4418 -2.0500 -1.0055
18871TIP3   OH278103   2.688   3.513   3.888  0.2254 -0.2495  0.1152
18871TIP3    H178104   2.775   3.508   3.928 -0.7757 -0.9169  2.2912
18871TIP3    H278105   2.666   3.606   3.889  1.1351 -0.0207 -0.9351
18872TIP3   OH278106   1.758   5.111   5.660 -0.6270  0.1333 -1.0012
18872TIP3    H178107   1.821   5.049   5.624  1.3835  0.5926  1.5759
18872TIP3    H278108   1.804   5.152   5.733 -4.4057 -0.5392  1.8777
18873TIP3   OH278109   5.654   6.607  13.185 -0.4070  0.3256  0.5325
18873TIP3    H178110   5.577   6.600  13.127 -0.0123 -1.5085  0.2100
18873TIP3    H278111   5.634   6.548  13.258 -0.3621  1.7150  1.6950
18874TIP3   OH278112   5.540   5.359  12.388 -0.5773  0.2661 -0.3352
18874TIP3    H178113   5.515   5.442  12.347  0.4095  0.8380  0.1964
18874TIP3    H278114   5.598   5.317  12.324  2.2543  1.8792  1.0518
18875TIP3   OH278115   4.811   5.407   1.646  0.4726  0.2388  0.2234
18875TIP3    H178116   4.753   5.483   1.656 -1.4027 -1.3198  1.3803
18875TIP3    H278117   4.844   5.391   1.734  1.4685  0.1548 -0.1600
18876TIP3   OH278118   2.669   1.610  16.960  0.3140 -0.0227  0.3692
18876TIP3    H178119   2.599   1.555  16.925  0.9816  0.9315 -2.5811
18876TIP3    H278120   2.749   1.565  16.936  0.8029  0.0708  1.7457
18877TIP3   OH278121   1.630   6.023  12.811  0.2321  0.4174  0.5961
18877TIP3    H178122   1.578   6.071  12.874  0.3862  0.2261  0.8696
18877TIP3    H278123   1.566   5.974  12.759 -0.0973  2.5888 -1.1087
18878TIP3   OH278124   1.266   2.869   4.554  0.2260  0.2463  0.0814
18878TIP3    H178125   1.287   2.779   4.531  0.3106  0.3981 -0.4460
18878TIP3    H278126   1.350   2.908   4.579 -0.0377 -0.2389  1.7851
18879TIP3   OH278127   2.216   3.680   0.444  0.1884 -0.7150  0.0302
18879TIP3    H178128   2.232   3.594   0.482 -0.7524 -0.3259  1.3435
18879TIP3    H278129   2.128   3.703   0.473  0.0115  0.2327 -1.2012
18880TIP3   OH278130   1.713   1.826   0.878  0.5795  0.4490 -0.4399
18880TIP3    H178131   1.771   1.767   0.926  0.2181 -0.1720 -0.7657
18880TIP3    H278132   1.652   1.768   0.832  1.6999  0.9770 -2.6788
18881TIP3   OH278133   4.286   1.559   5.449 -0.5276  0.4751 -0.2620
18881TIP3    H178134   4.251   1.645   5.426 -1.2094 -0.3250 -2.3474
18881TIP3    H278135   4.220   1.498   5.417 -0.1413 -0.8137  1.3940
18882TIP3   OH278136   3.482   3.484   0.603  0.4296  0.6815 -0.2747
18882TIP3    H178137   3.419   3.544   0.644 -0.8072 -0.3622 -0.6396
18882TIP3    H278138   3.567   3.512   0.638 -0.4984  0.4230  2.2641
18883TIP3   OH278139   1.297   1.580  13.459 -0.1094  0.0296  0.4626
18883TIP3    H178140   1.276   1.599  13.368  0.3497  3.8979  1.0511
18883TIP3    H278141   1.215   1.547  13.497 -1.2687  1.6739 -0.5506
18884TIP3   OH278142   1.611   3.412  11.331  0.6095  0.2567  0.4000
18884TIP3    H178143   1.658   3.455  11.259  0.3934  2.9529  1.8044
18884TIP3    H278144   1.666   3.428  11.408 -0.4851 -0.3094  1.3075
18885TIP3   OH278145   0.280   3.279  15.675  0.3304 -0.3536 -0.4025
18885TIP3    H178146   0.276   3.372  15.652 -0.7276  0.0537  1.3890
18885TIP3    H278147   0.368   3.252  15.646  0.1938  0.8736 -2.0774
18886TIP3   OH278148   0.004   1.247   2.941  0.5760 -0.1930  0.4816
18886TIP3    H178149   0.074   1.192   2.975 -0.0203 -1.8540 -0.9288
18886TIP3    H278150  -0.076   1.198   2.955  0.1866 -0.3734 -2.1036
18887TIP3   OH278151   1.437   2.778  16.017  0.2749  0.0334  0.0810
18887TIP3    H178152   1.355   2.775  16.066  0.2306 -1.1337 -0.0440
18887TIP3    H278153   1.505   2.769  16.084  0.2982  0.7722  0.1622
18888TIP3   OH278154   1.203   3.840   1.207 -0.2673 -0.4162 -0.1229
18888TIP3    H178155   1.146   3.844   1.284 -1.2896  0.6839 -0.9087
18888TIP3    H278156   1.174   3.761   1.160 -1.6600  0.5186 -0.8835
18889TIP3   OH278157   5.862   1.951  10.693  0.4060 -0.0519  0.4433
18889TIP3    H178158   5.835   2.039  10.721  0.7625 -0.0792  0.8752
18889TIP3    H278159   5.819   1.892  10.755  0.4478 -0.1641  0.3662
18890TIP3   OH278160   1.958   3.222   2.267 -0.4064  0.0630 -0.4431
18890TIP3    H178161   1.942   3.308   2.307  0.8981 -0.2567  0.8043
18890TIP3    H278162   2.050   3.204   2.285 -1.1078 -2.4198  0.9290
18891TIP3   OH278163   0.082   2.033   1.825  0.0127  0.0114 -0.2194
18891TIP3    H178164   0.011   1.978   1.856 -0.3835 -0.4825 -1.9230
18891TIP3    H278165   0.162   1.991   1.857 -0.4659  1.0124  2.3924
18892TIP3   OH278166   4.544   2.585   0.649 -0.5240  0.6863  0.6804
18892TIP3    H178167   4.487   2.525   0.696  0.0489  0.0204  0.5436
18892TIP3    H278168   4.499   2.670   0.653 -2.0945 -0.0697 -0.4442
18893TIP3   OH278169   5.342   2.249  14.456 -0.0811 -0.2854  0.0189
18893TIP3    H178170   5.345   2.287  14.544 -0.4828 -0.4549  0.1054
18893TIP3    H278171   5.315   2.321  14.399  1.3322  0.1372 -0.1464
18894TIP3   OH278172   6.254   3.539  15.074  0.1890 -0.1123  0.2382
18894TIP3    H178173   6.283   3.573  14.989  0.2915  1.4105  0.8798
18894TIP3    H278174   6.187   3.601  15.103 -0.4641 -1.1034  0.8787
18895TIP3   OH278175   4.509   0.509  13.019  0.4112  0.1577  0.5878
18895TIP3    H178176   4.449   0.531  13.091 -0.2796 -1.7754  0.6430
18895TIP3    H278177   4.472   0.430  12.981  3.4098 -1.6234  1.2148
18896TIP3   OH278178   1.859   2.947   1.998 -0.1553  0.4102  0.5291
18896TIP3    H178179   1.772   2.973   1.966  0.4869  0.7833 -0.9681
18896TIP3    H278180   1.845   2.924   2.090 -2.3342 -2.0544 -0.3458
18897TIP3   OH278181   2.662   2.272   4.956 -0.4394  0.3300  0.4929
18897TIP3    H178182   2.732   2.237   5.012 -0.3894  0.1492  0.3201
18897TIP3    H278183   2.689   2.361   4.937 -0.1159  0.1681  0.1970
18898TIP3   OH278184   6.274   4.188   4.914  0.2739 -0.1788 -0.2215
18898TIP3    H178185   6.180   4.169   4.908 -0.0887  0.6306  2.3142
18898TIP3    H278186   6.287   4.265   4.859 -0.9695  0.9987  1.0988
18899TIP3   OH278187   3.654   5.135   2.585  0.0061 -0.1320 -1.0043
18899TIP3    H178188   3.575   5.177   2.618 -0.1582 -2.1783  1.4391
18899TIP3    H278189   3.637   5.119   2.492 -2.0219  0.3530 -0.7266
18900TIP3   OH278190   5.960   4.628   3.143 -0.2776 -0.2164  0.4479
18900TIP3    H178191   6.011   4.551   3.119 -0.1426  0.2548 -0.8312
18900TIP3    H278192   5.873   4.595   3.163 -0.2563 -0.6825 -0.2386
18901TIP3   OH278193   0.566   6.105  16.106 -0.0035 -0.6612 -0.4951
18901TIP3    H178194   0.486   6.079  16.061 -0.3595 -0.2247 -0.1224
18901TIP3    H278195   0.559   6.201  16.115 -0.7842 -0.9181  2.0556
18902TIP3   OH278196   3.162   2.350  16.660  0.0980  0.1302 -0.9761
18902TIP3    H178197   3.166   2.275  16.600  1.3198 -1.5831  1.1713
18902TIP3    H278198   3.193   2.424  16.608 -0.1297 -1.0716 -2.8507
18903TIP3   OH278199   0.321   3.470  13.227  0.3926 -0.3703 -0.0205
18903TIP3    H178200   0.315   3.384  13.185 -1.3853 -0.5510  0.5286
18903TIP3    H278201   0.259   3.524  13.178  0.6904  0.2976  0.3367
18904TIP3   OH278202   1.845   1.831   0.617  0.4105  0.4505  0.0914
18904TIP3    H178203   1.932   1.862   0.593  0.6985 -0.2650  0.1825
18904TIP3    H278204   1.831   1.865   0.706  0.9486 -0.1263  0.4048
18905TIP3   OH278205   4.470   6.813  15.248  0.1444  0.3760 -0.0682
18905TIP3    H178206   4.455   6.881  15.183 -1.7655 -0.8959 -1.0092
18905TIP3    H278207   4.538   6.849  15.306 -0.1724  2.6734 -1.0760
18906TIP3   OH278208   2.874   0.434   0.518 -0.0337 -0.0183 -0.2852
18906TIP3    H178209   2.825   0.507   0.481  0.6532  1.1098  0.9825
18906TIP3    H278210   2.809   0.367   0.536 -0.9159  0.9235  0.0691
18907TIP3   OH278211   4.210   4.066   2.806 -0.3505 -0.2152 -0.3938
18907TIP3    H178212   4.176   4.093   2.891  0.2394  0.9150 -0.5066
18907TIP3    H278213   4.270   4.136   2.781  1.3248 -1.6957 -0.6245
18908TIP3   OH278214   0.341   3.488   0.087 -0.2503 -0.2117  0.1215
18908TIP3    H178215   0.422   3.530   0.059  0.0271 -2.5849 -2.8610
18908TIP3    H278216   0.371   3.414   0.141 -0.4592 -0.4063 -0.0285
18909TIP3   OH278217   4.313   0.589   2.440 -0.5174  0.5059 -1.2265
18909TIP3    H178218   4.334   0.668   2.490  0.5692 -1.7278  2.0399
18909TIP3    H278219   4.219   0.596   2.423 -1.2292  0.7518  2.3616
18910TIP3   OH278220   2.300   4.585  15.923  0.5979 -0.3399  0.1954
18910TIP3    H178221   2.291   4.516  15.857 -0.1940  0.0546 -0.1151
18910TIP3    H278222   2.223   4.574  15.979  0.9273 -0.2551  0.6735
18911TIP3   OH278223   3.609   6.202  14.707 -0.1937 -0.0942  0.0036
18911TIP3    H178224   3.573   6.167  14.626 -0.3906  0.0345  0.0333
18911TIP3    H278225   3.533   6.237  14.754 -0.3259 -1.6072  0.9749
18912TIP3   OH278226   5.203   4.706  12.397  0.0747  0.1609  0.4794
18912TIP3    H178227   5.110   4.718  12.375  0.3048  0.9845 -0.0962
18912TIP3    H278228   5.217   4.612  12.388 -0.4932  0.1393 -0.3321
18913TIP3   OH278229   6.475   6.668   3.394  0.3630  0.0789  0.4911
18913TIP3    H178230   6.409   6.718   3.441  0.9550  0.0417  1.3609
18913TIP3    H278231   6.487   6.716   3.312  0.0592  0.6903  0.8019
18914TIP3   OH278232   2.113   2.533   4.479 -0.5036  0.1826  0.9840
18914TIP3    H178233   2.032   2.566   4.518 -1.3711 -0.8246  0.0692
18914TIP3    H278234   2.084   2.479   4.406  0.9863 -0.5136  0.8876
18915TIP3   OH278235   0.814   3.050   1.723  0.7822  0.0643  0.6860
18915TIP3    H178236   0.881   2.998   1.679  1.4747  0.9227  0.7168
18915TIP3    H278237   0.804   3.010   1.809 -1.2584 -2.2239 -0.5469
18916TIP3   OH278238   5.777   2.763   2.908  0.2441 -0.2313 -0.3781
18916TIP3    H178239   5.800   2.850   2.877  2.4659 -1.1935 -1.5347
18916TIP3    H278240   5.792   2.767   3.003 -1.5505  1.1858 -0.1294
18917TIP3   OH278241   4.948   2.230  14.735  0.0004  0.2849  0.1773
18917TIP3    H178242   4.948   2.135  14.747 -0.0185 -0.0094 -2.0445
18917TIP3    H278243   5.010   2.262  14.801  1.3289 -1.4169 -0.1951
18918TIP3   OH278244   0.162   3.519   4.832  0.0760 -0.1464 -0.8752
18918TIP3    H178245   0.087   3.570   4.862 -0.0222 -0.2036 -1.0182
18918TIP3    H278246   0.175   3.452   4.899 -1.9808 -2.1202 -2.3573
18919TIP3   OH278247   5.737   3.491  11.140 -0.1743 -0.0325  0.1481
18919TIP3    H178248   5.705   3.582  11.142 -0.1163  0.0448 -1.8322
18919TIP3    H278249   5.704   3.456  11.057  0.5850 -1.5482  0.4743
18920TIP3   OH278250   2.128   6.744   3.179  0.7344  0.8788  0.5992
18920TIP3    H178251   2.158   6.676   3.239  1.1883  0.3284 -0.2347
18920TIP3    H278252   2.147   6.709   3.092 -1.2470  1.0047  0.0732
18921TIP3   OH278253   2.408   0.686  12.951 -0.1605 -0.0956  0.1225
18921TIP3    H178254   2.438   0.612  13.003  2.1975  0.2471 -0.7062
18921TIP3    H278255   2.444   0.763  12.996 -0.5180  0.3904 -0.4133
18922TIP3   OH278256   5.266   5.203  16.725 -0.2561 -0.1275  0.3702
18922TIP3    H178257   5.339   5.255  16.759  0.1399 -0.6886  0.3816
18922TIP3    H278258   5.217   5.264  16.671 -0.2480  0.4751  1.0327
18923TIP3   OH278259   3.437   6.799  11.067 -0.1312  0.4517 -0.3249
18923TIP3    H178260   3.362   6.850  11.039 -0.8715  0.4361  1.5637
18923TIP3    H278261   3.459   6.745  10.991 -1.2348  1.3510 -1.3089
18924TIP3   OH278262   0.210   5.988   4.869  0.1935  0.2188 -0.7512
18924TIP3    H178263   0.217   6.068   4.817 -0.9092 -0.0090 -1.2572
18924TIP3    H278264   0.234   6.015   4.958 -0.9901  1.3030 -0.7470
18925TIP3   OH278265   3.434   0.434   4.973  0.1844 -0.2432 -0.2922
18925TIP3    H178266   3.340   0.443   4.955  0.2287 -0.6916 -0.7681
18925TIP3    H278267   3.459   0.354   4.927  0.9003  0.1466 -0.5831
18926TIP3   OH278268   2.051   4.455   0.035  0.2404  0.7095 -0.2262
18926TIP3    H178269   2.138   4.417   0.049 -0.0414 -0.0230 -0.4535
18926TIP3    H278270   2.018   4.411  -0.043 -0.5974  0.5271  0.2364
18927TIP3   OH278271   5.542   2.069  15.038 -0.6116 -0.0015  0.2755
18927TIP3    H178272   5.630   2.101  15.017 -1.8881  3.7442  0.2716
18927TIP3    H278273   5.516   2.018  14.961  0.8800  0.2901 -0.4384
18928TIP3   OH278274   2.308   1.819  13.148 -0.1643 -0.9456  0.1664
18928TIP3    H178275   2.212   1.823  13.153 -0.1190  1.7835  0.1008
18928TIP3    H278276   2.337   1.846  13.235  0.5491 -1.1637 -0.0031
18929TIP3   OH278277   1.020   5.078   6.043 -0.4787 -0.0280  0.0902
18929TIP3    H178278   1.088   5.086   6.110 -1.2862  4.0243  0.5651
18929TIP3    H278279   1.068   5.060   5.962  1.3177  3.2852  0.3262
18930TIP3   OH278280   1.065   3.397   2.449  0.3631 -0.1425 -0.4805
18930TIP3    H178281   1.039   3.484   2.419  1.3872  0.5488  0.5904
18930TIP3    H278282   1.030   3.391   2.538  0.9459 -0.5370 -0.2738
18931TIP3   OH278283   4.003   1.744  13.805  0.0466 -0.2159 -0.6503
18931TIP3    H178284   3.980   1.796  13.882 -1.2233 -0.2118 -1.0340
18931TIP3    H278285   4.094   1.716  13.821 -0.0969  0.0779  0.6792
18932TIP3   OH278286   4.943   5.914  12.857  0.7374 -0.1144  0.2561
18932TIP3    H178287   4.997   5.888  12.782  1.3590  0.9751  0.3209
18932TIP3    H278288   4.853   5.902  12.827  0.9605  1.3259 -1.0459
18933TIP3   OH278289   3.608   3.046   2.323 -0.6163 -0.5695 -0.0279
18933TIP3    H178290   3.624   2.981   2.392  2.2085  0.0352 -0.0598
18933TIP3    H278291   3.563   3.117   2.369  0.2098 -0.6653  0.9636
18934TIP3   OH278292   2.016   6.701  12.463 -0.1087  0.2794 -0.1598
18934TIP3    H178293   2.053   6.758  12.396 -1.3800 -0.3159 -1.3731
18934TIP3    H278294   1.925   6.729  12.471 -1.3855 -3.0628 -2.3914
18935TIP3   OH278295   2.722   6.136   5.818 -0.1353  0.2822  0.0072
18935TIP3    H178296   2.653   6.158   5.755  0.3626 -2.1708 -1.4615
18935TIP3    H278297   2.746   6.046   5.797  1.6901  0.2059  2.2188
18936TIP3   OH278298   5.461   4.655   0.042  0.5534 -0.4510  0.1673
18936TIP3    H178299   5.366   4.659   0.047  0.4722 -0.6284 -1.0119
18936TIP3    H278300   5.489   4.746   0.057  0.1608 -0.2780 -0.1237
18937TIP3   OH278301   3.376   0.263   5.762  0.1170 -0.3183 -0.3463
18937TIP3    H178302   3.314   0.219   5.819 -0.0933 -1.8998 -1.7760
18937TIP3    H278303   3.374   0.355   5.791  0.0313 -1.0882  2.1626
18938TIP3   OH278304   5.167   1.120  14.702 -0.1518 -0.4009  0.5836
18938TIP3    H178305   5.253   1.129  14.743 -1.0674 -1.2041  2.7151
18938TIP3    H278306   5.106   1.106  14.774 -1.9868 -0.6171 -0.9507
18939TIP3   OH278307   2.746   4.939  11.645 -0.0200  0.3385 -0.3431
18939TIP3    H178308   2.760   4.939  11.740 -0.9225 -4.3622 -0.0724
18939TIP3    H278309   2.653   4.959  11.634  0.0907  0.9097 -0.2368
18940TIP3   OH278310   2.749   2.858  10.922  0.4423 -0.1732 -0.1595
18940TIP3    H178311   2.805   2.886  10.994  0.2046 -0.8025  0.2695
18940TIP3    H278312   2.665   2.838  10.962  0.8596 -2.3348 -0.3296
18941TIP3   OH278313   4.876   4.470   3.234  0.3348 -0.2594  0.0338
18941TIP3    H178314   4.957   4.521   3.230  0.0561  0.1995  0.1905
18941TIP3    H278315   4.836   4.494   3.318  0.6608 -1.4408  0.5391
18942TIP3   OH278316   2.875   0.706   4.925  0.6422  0.4096 -0.1870
18942TIP3    H178317   2.969   0.696   4.909  0.8210 -0.4403  1.2909
18942TIP3    H278318   2.857   0.649   5.000 -1.2268 -0.1341 -1.0241
18943TIP3   OH278319   4.152   0.354  15.168  0.6001  0.6238  0.1069
18943TIP3    H178320   4.123   0.263  15.161 -0.3269  0.9752 -0.7536
18943TIP3    H278321   4.173   0.366  15.261  2.0470 -0.8475 -0.0119
18944TIP3   OH278322   0.259   1.629  15.091  0.2524  0.0686 -0.6399
18944TIP3    H178323   0.230   1.567  15.157  0.7094  0.0019 -0.5017
18944TIP3    H278324   0.218   1.712  15.116 -0.4396 -0.1920 -0.8812
18945TIP3   OH278325   0.282   5.279   4.756  0.8512 -0.8540  0.6682
18945TIP3    H178326   0.322   5.312   4.675  0.4267  0.8212  1.1284
18945TIP3    H278327   0.342   5.305   4.825  0.5176 -1.0603  1.0385
18946TIP3   OH278328   0.946   1.849  11.373 -0.0544  0.0887  0.1800
18946TIP3    H178329   0.927   1.799  11.293  1.8915 -0.6219  0.1316
18946TIP3    H278330   0.904   1.934  11.359 -0.7068 -0.4373 -1.1022
18947TIP3   OH278331   1.186   4.184   0.630 -0.1995 -0.3555  0.1772
18947TIP3    H178332   1.238   4.132   0.568  0.2202 -0.6441  0.7665
18947TIP3    H278333   1.184   4.271   0.592 -0.2363 -0.6143 -0.4239
18948TIP3   OH278334   0.736   4.601   0.491 -0.2933 -0.8905  0.3186
18948TIP3    H178335   0.676   4.536   0.454  0.5286 -1.7943  0.5639
18948TIP3    H278336   0.701   4.618   0.579 -1.7427  0.6183 -0.5025
18949TIP3   OH278337   4.512   2.144  15.071 -0.1598 -0.6284 -0.1021
18949TIP3    H178338   4.517   2.050  15.087 -1.0166 -1.1061 -2.4951
18949TIP3    H278339   4.604   2.172  15.065  0.0861 -1.5496 -0.7101
18950TIP3   OH278340   3.239   0.720  15.830 -0.1022 -0.5999  0.1182
18950TIP3    H178341   3.333   0.728  15.846 -0.1705 -0.3150  0.3770
18950TIP3    H278342   3.201   0.705  15.916 -0.4389  0.6542  0.1922
18951TIP3   OH278343   0.293   1.471  11.378  0.0806 -0.3603  0.2321
18951TIP3    H178344   0.275   1.414  11.453  0.1340  0.9732  1.2707
18951TIP3    H278345   0.388   1.483  11.379  0.0135  0.1923  0.3584
18952TIP3   OH278346   5.776   1.093   5.340 -0.6639  0.4818  0.3572
18952TIP3    H178347   5.779   1.053   5.427  1.1088 -0.1394  0.0319
18952TIP3    H278348   5.823   1.031   5.284 -0.4057  1.6522 -0.7309
18953TIP3   OH278349   5.956   1.196   1.919 -0.3349 -0.6244  0.2244
18953TIP3    H178350   6.051   1.190   1.913 -0.2279  0.4345  0.8102
18953TIP3    H278351   5.937   1.289   1.918 -1.2311 -0.7665  1.8998
18954TIP3   OH278352   0.514   3.692  14.340  0.0720 -0.5292 -0.8491
18954TIP3    H178353   0.476   3.620  14.289  0.3385 -1.6695  0.5057
18954TIP3    H278354   0.606   3.694  14.315  1.0975 -3.5600  2.2059
18955TIP3   OH278355   0.258   1.583  16.953 -0.3312  0.0483 -0.1395
18955TIP3    H178356   0.231   1.602  16.863 -1.2330  0.8050  0.2791
18955TIP3    H278357   0.203   1.640  17.007  1.2326  0.6634  0.8195
18956TIP3   OH278358   1.278   2.808   3.597 -0.3337  0.2241  0.1941
18956TIP3    H178359   1.348   2.744   3.583  0.0146  0.0310  2.6209
18956TIP3    H278360   1.313   2.890   3.562 -0.3181 -0.6107 -1.8493
18957TIP3   OH278361   3.258   6.691  12.528 -0.3901 -0.1240 -0.0406
18957TIP3    H178362   3.278   6.764  12.469  2.0751  0.7088  1.7609
18957TIP3    H278363   3.201   6.730  12.595  1.1818  0.2490  1.0979
18958TIP3   OH278364   4.381   0.014  13.506  0.4186 -0.8748 -0.3297
18958TIP3    H178365   4.436  -0.059  13.535  0.6333 -1.1263 -1.3523
18958TIP3    H278366   4.352  -0.011  13.419  0.8950  0.4843 -0.8877
18959TIP3   OH278367   1.982   3.263  17.050 -0.2892  0.4308  0.4465
18959TIP3    H178368   1.905   3.269  16.993 -0.5299 -1.6849  0.5121
18959TIP3    H278369   2.023   3.180  17.026  1.4417  1.0862  1.0863
18960TIP3   OH278370   1.138   2.078  16.375 -0.4002 -0.0919 -0.1262
18960TIP3    H178371   1.143   2.156  16.430  0.4569 -0.3456  0.1543
18960TIP3    H278372   1.052   2.040  16.395 -1.2759  1.3743 -1.0698
18961TIP3   OH278373   0.382   1.590  13.492 -0.5238 -0.2178  0.0419
18961TIP3    H178374   0.288   1.593  13.506 -0.4411  2.0227  0.3026
18961TIP3    H278375   0.395   1.627  13.405  0.2302  1.0180  0.6706
18962TIP3   OH278376   3.355   2.429  13.832 -0.2341  0.0253  0.3420
18962TIP3    H178377   3.334   2.510  13.877  1.5385  1.0910 -0.6980
18962TIP3    H278378   3.450   2.422  13.837 -0.0485 -0.2605 -2.3946
18963TIP3   OH278379   2.889   3.666  11.590 -0.0918 -0.7841 -0.0663
18963TIP3    H178380   2.929   3.693  11.672 -1.1447 -1.7562  0.7733
18963TIP3    H278381   2.795   3.668  11.607 -0.2560 -3.8058 -0.3345
18964TIP3   OH278382   5.668   0.711   3.580 -0.2441 -0.7575  0.4946
18964TIP3    H178383   5.574   0.703   3.598 -0.3808 -0.4711 -0.0774
18964TIP3    H278384   5.676   0.693   3.486  0.3045 -1.0199  0.5880
18965TIP3   OH278385   3.936   1.630   1.250  0.7491 -0.6206 -0.1815
18965TIP3    H178386   3.936   1.535   1.257 -3.2446 -0.7727 -1.4095
18965TIP3    H278387   3.845   1.654   1.237  1.8480  3.2787 -1.5528
18966TIP3   OH278388   1.278   6.107   5.568  0.3867 -0.6248 -0.6486
18966TIP3    H178389   1.282   6.200   5.591 -1.9745 -0.1545 -1.9882
18966TIP3    H278390   1.365   6.087   5.534  1.2804  0.7816  0.7163
18967TIP3   OH278391   1.678   0.158  16.604  0.0853 -0.1251 -0.3548
18967TIP3    H178392   1.646   0.164  16.514 -2.2687  1.2488  0.5459
18967TIP3    H278393   1.643   0.075  16.636 -1.6558  0.8145  0.2440
18968TIP3   OH278394   2.975   4.816   2.813  0.4810  0.4348 -0.4894
18968TIP3    H178395   3.000   4.908   2.809  1.0582  0.3712  1.2406
18968TIP3    H278396   2.894   4.810   2.762 -0.2366  2.1343  0.4236
18969TIP3   OH278397   3.901   1.499   3.802 -0.1698 -0.3865 -0.3368
18969TIP3    H178398   3.898   1.447   3.883  1.1849 -0.4961 -0.3436
18969TIP3    H278399   3.913   1.589   3.832 -2.3425 -0.0587 -0.3317
18970TIP3   OH278400   5.409   2.027   5.614 -0.1332 -0.1033 -0.3559
18970TIP3    H178401   5.323   2.049   5.648  0.0164  0.5819 -0.4159
18970TIP3    H278402   5.393   1.954   5.554 -0.5244 -0.6795  0.4454
18971TIP3   OH278403   3.740   4.997   0.441 -0.6246  0.0704  0.5009
18971TIP3    H178404   3.762   4.924   0.499  1.6513 -0.2222 -0.6903
18971TIP3    H278405   3.775   5.074   0.485 -1.4190  0.2256  0.8734
18972TIP3   OH278406   4.451   5.450  16.325  0.1424 -0.1695  0.7386
18972TIP3    H178407   4.415   5.386  16.263 -0.8638 -0.6621  1.8259
18972TIP3    H278408   4.440   5.535  16.281  0.5306 -0.6223 -0.2605
18973TIP3   OH278409   0.924   6.229  13.932 -0.2437 -0.5876 -0.5295
18973TIP3    H178410   0.912   6.302  13.871  1.1239 -0.6912 -0.9399
18973TIP3    H278411   0.835   6.206  13.960 -0.5888  2.3230  0.8811
18974TIP3   OH278412   4.816   6.762  14.248 -0.2467  0.1666 -0.0427
18974TIP3    H178413   4.799   6.669  14.232 -0.1964 -0.0520  1.0938
18974TIP3    H278414   4.745   6.790  14.305  0.5754  0.4234  0.8823
18975TIP3   OH278415   3.346   4.219   1.967 -0.4933 -0.8604 -0.0679
18975TIP3    H178416   3.332   4.127   1.947  1.0933 -1.0641 -0.2694
18975TIP3    H278417   3.380   4.219   2.057  0.3692 -0.5407 -0.3900
18976TIP3   OH278418   3.651   5.584   3.394 -0.0717  0.0514  0.4924
18976TIP3    H178419   3.608   5.593   3.479  1.1653  2.6217  0.9014
18976TIP3    H278420   3.592   5.629   3.333 -0.7565 -1.4325  0.0341
18977TIP3   OH278421   5.312   1.214  13.966 -0.2600  0.1112 -0.3714
18977TIP3    H178422   5.230   1.165  13.966 -1.2466  1.7009  1.0128
18977TIP3    H278423   5.318   1.251  14.055  0.8875  1.7351 -1.0959
18978TIP3   OH278424   4.843   1.174  14.076  0.5874 -0.9690  0.7355
18978TIP3    H178425   4.896   1.097  14.095 -2.3053 -2.6837  2.4373
18978TIP3    H278426   4.835   1.219  14.161  1.3838  0.6336 -0.0266
18979TIP3   OH278427   5.846   3.895  14.338 -0.1587  0.1045  0.1088
18979TIP3    H178428   5.935   3.900  14.374 -0.2463  1.4394  0.1702
18979TIP3    H278429   5.857   3.845  14.257  0.6914  0.4476  0.0021
18980TIP3   OH278430   0.665   4.953  15.885  0.5818  1.1368  0.1803
18980TIP3    H178431   0.730   5.015  15.852  1.8819  0.5323  1.5424
18980TIP3    H278432   0.685   4.945  15.978 -1.5339  1.0353  0.6547
18981TIP3   OH278433   4.176   1.397  16.398 -0.2414  0.0647 -0.4036
18981TIP3    H178434   4.213   1.309  16.391  1.8561  0.8930 -0.0587
18981TIP3    H278435   4.119   1.394  16.475 -0.7583 -1.1748 -0.8279
18982TIP3   OH278436   1.209   5.508  14.899  0.2189  0.6529  0.0273
18982TIP3    H178437   1.231   5.581  14.958 -0.8862  0.4905  0.6617
18982TIP3    H278438   1.185   5.436  14.958 -3.6143  1.3213 -0.5645
18983TIP3   OH278439   3.431   3.521  17.124 -0.6352 -0.1939 -0.7987
18983TIP3    H178440   3.500   3.478  17.174  0.1311  1.2507 -0.5956
18983TIP3    H278441   3.473   3.596  17.083 -2.2493  1.1480 -0.0781
18984TIP3   OH278442   1.067   5.332  16.136 -0.4310  0.0003 -0.3615
18984TIP3    H178443   1.089   5.408  16.190  0.1269  0.1863 -0.8305
18984TIP3    H278444   1.141   5.272  16.149 -1.7528 -1.2785  1.4524
18985TIP3   OH278445   2.014   6.590   5.158  0.1130  0.3045  0.5157
18985TIP3    H178446   2.103   6.615   5.183  0.0785  1.1208 -0.1681
18985TIP3    H278447   1.960   6.663   5.187  0.0134  1.0606 -1.5225
18986TIP3   OH278448   3.370   3.783  16.827 -0.6682 -0.5766  0.0126
18986TIP3    H178449   3.428   3.790  16.902 -0.9071 -0.3563  0.1807
18986TIP3    H278450   3.362   3.688  16.812  0.3222 -0.5898 -0.4819
18987TIP3   OH278451   2.918   6.432   3.310 -0.4106  0.5652  0.0905
18987TIP3    H178452   3.006   6.463   3.332  0.5282 -1.5432 -0.5751
18987TIP3    H278453   2.908   6.452   3.217 -0.4682  0.4415  0.0700
18988TIP3   OH278454   4.875   3.304  14.129  0.3835 -0.0178  0.4342
18988TIP3    H178455   4.819   3.227  14.130  1.0107 -0.4738  1.3040
18988TIP3    H278456   4.832   3.367  14.187  0.1830  0.0671  0.1944
18989TIP3   OH278457   3.329   4.175  15.700 -0.5415  0.4088  0.6352
18989TIP3    H178458   3.264   4.206  15.763 -1.4079 -0.1676  0.0341
18989TIP3    H278459   3.354   4.254  15.651 -2.5358  0.2627 -0.7115
18990TIP3   OH278460   5.813   1.584  14.968  0.1747  0.4206  0.0501
18990TIP3    H178461   5.887   1.538  15.007 -0.6747 -1.1093 -0.1227
18990TIP3    H278462   5.802   1.662  15.022 -0.2847 -1.1102  2.2255
18991TIP3   OH278463   2.417   0.595   6.276  0.0530 -0.5645  0.2850
18991TIP3    H178464   2.345   0.537   6.300 -1.0654  0.3252 -0.8176
18991TIP3    H278465   2.487   0.536   6.247 -0.0204 -1.4559  1.9042
18992TIP3   OH278466   1.694   3.311  16.139  0.0139 -0.2842 -0.2849
18992TIP3    H178467   1.621   3.280  16.193 -1.0934 -0.9274 -2.0970
18992TIP3    H278468   1.759   3.241  16.144  0.3726  0.1163  1.0151
18993TIP3   OH278469   5.721   4.957   1.377  0.2803  0.0843  0.1433
18993TIP3    H178470   5.739   4.999   1.461  1.9917 -0.5522  0.1121
18993TIP3    H278471   5.739   4.864   1.392 -1.6105 -0.3827 -0.3161
18994TIP3   OH278472   6.388   5.622   4.504  0.0112 -0.0096  0.0748
18994TIP3    H178473   6.321   5.563   4.538  1.3675 -1.9666 -0.5862
18994TIP3    H278474   6.346   5.665   4.429 -1.1530  0.2818  0.8707
18995TIP3   OH278475   0.810   4.729  13.496  0.0470  0.0342 -0.1884
18995TIP3    H178476   0.850   4.797  13.550 -0.4000  0.3660 -0.2748
18995TIP3    H278477   0.852   4.739  13.410 -0.1004  0.2714 -0.2322
18996TIP3   OH278478   0.166   4.129  13.669  0.0485  0.5549 -0.2048
18996TIP3    H178479   0.184   4.210  13.716 -0.9549  1.0066 -0.5900
18996TIP3    H278480   0.244   4.114  13.615  0.4556  0.9731  0.2726
18997TIP3   OH278481   6.103   1.283   3.707  0.0861  0.2332  0.4697
18997TIP3    H178482   6.048   1.321   3.639  0.7380  2.0333  0.9414
18997TIP3    H278483   6.051   1.292   3.787 -0.2430 -0.9498  0.4055
18998TIP3   OH278484   2.412   0.360   1.144 -0.5195 -0.2791  0.1653
18998TIP3    H178485   2.386   0.274   1.111  0.7580 -1.3193  1.8028
18998TIP3    H278486   2.473   0.394   1.078  1.2951 -1.9523  0.9178
18999TIP3   OH278487   1.714   6.388   6.455  0.2065 -0.1280 -0.9442
18999TIP3    H178488   1.764   6.456   6.500 -0.5020 -1.3777  1.8273
18999TIP3    H278489   1.774   6.353   6.390  2.3348 -0.2710  1.0320
19000TIP3   OH278490   6.106   6.599  16.580 -0.3019 -0.2413  0.2734
19000TIP3    H178491   6.039   6.562  16.523 -1.3998  0.8281  0.8389
19000TIP3    H278492   6.101   6.693  16.565  1.2888 -0.1668  0.1086
19001TIP3   OH278493   1.289   5.726  11.858 -0.4074  0.1648  0.4782
19001TIP3    H178494   1.275   5.674  11.778 -0.0315  1.0072 -0.1475
19001TIP3    H278495   1.335   5.667  11.917 -0.4221 -0.3781 -0.0456
19002TIP3   OH278496   6.540   5.212   5.026 -0.3002  0.1981 -0.4655
19002TIP3    H178497   6.570   5.172   4.944  0.5527  1.3769 -0.7408
19002TIP3    H278498   6.620   5.235   5.073 -0.7780  1.0589 -0.0567
19003TIP3   OH278499   4.568   4.811  13.889 -0.4138  0.0270  0.7406
19003TIP3    H178500   4.661   4.824  13.869 -0.8206  0.2005 -1.1311
19003TIP3    H278501   4.523   4.878  13.837 -1.5707  0.1484  1.8886
19004TIP3   OH278502   6.103   2.072   5.395 -0.3521  0.1929  0.3912
19004TIP3    H178503   6.190   2.103   5.417 -0.8744  1.8756  0.1719
19004TIP3    H278504   6.109   2.045   5.303 -0.3037  1.2685  0.0708
19005TIP3   OH278505   3.525   6.709  11.584  0.0765  0.1220  0.1301
19005TIP3    H178506   3.435   6.698  11.616  0.6821 -0.4066  1.6823
19005TIP3    H278507   3.567   6.763  11.651  0.4092  1.9759 -1.5315
19006TIP3   OH278508   2.751   1.119  14.624 -0.1099 -0.7900 -0.2642
19006TIP3    H178509   2.753   1.159  14.538  1.4786 -1.3513 -0.5141
19006TIP3    H278510   2.813   1.170  14.676 -1.2488 -0.2963  0.6138
19007TIP3   OH278511   4.704   6.674  14.780 -0.4999  0.0086 -0.2686
19007TIP3    H178512   4.693   6.659  14.874 -0.3492  0.1381 -0.2312
19007TIP3    H278513   4.615   6.671  14.745 -0.5689  0.0949 -0.1015
19008TIP3   OH278514   5.127   5.216  13.262  0.1174  0.6833 -0.3243
19008TIP3    H178515   5.176   5.267  13.197 -0.3913  1.4319 -0.1299
19008TIP3    H278516   5.082   5.282  13.315 -1.5504  0.0029 -0.8548
19009TIP3   OH278517   5.506   6.504   1.823 -0.1518 -0.2614  0.1616
19009TIP3    H178518   5.495   6.409   1.822 -0.0194 -0.3740  3.5425
19009TIP3    H278519   5.423   6.537   1.855  0.2204  0.6944  0.1551
19010TIP3   OH278520   1.162   2.910  17.207 -0.5056  0.1000 -0.1756
19010TIP3    H178521   1.104   2.864  17.267 -0.8953 -0.5649 -1.0568
19010TIP3    H278522   1.166   2.855  17.129 -1.9682  2.1445 -1.7680
19011TIP3   OH278523   4.399   6.556  16.510 -0.0761  0.1381  1.0347
19011TIP3    H178524   4.425   6.551  16.602 -0.4786  1.8520  1.2493
19011TIP3    H278525   4.388   6.464  16.483 -0.1873 -0.3655  2.7472
19012TIP3   OH278526   2.095   2.522   5.662  0.0954 -0.5407 -0.3773
19012TIP3    H178527   2.121   2.614   5.666 -0.1210 -0.5049  0.4829
19012TIP3    H278528   2.170   2.477   5.623 -0.5666  0.2632 -2.6402
19013TIP3   OH278529   3.246   4.641  11.265  0.9568  0.4907 -0.0733
19013TIP3    H178530   3.163   4.661  11.309  1.7530  3.0490  0.3338
19013TIP3    H278531   3.304   4.612  11.335  0.8368  0.0553 -0.1519
19014TIP3   OH278532   4.687   6.060  12.435  0.3365  0.5199  0.1601
19014TIP3    H178533   4.709   6.128  12.371  0.7121  0.6315  0.4070
19014TIP3    H278534   4.648   5.990  12.383 -1.6994  1.6539  0.1121
19015TIP3   OH278535   4.416   0.350   3.365  0.3094 -0.6756  0.2229
19015TIP3    H178536   4.326   0.380   3.351  0.1939 -0.7267  0.8044
19015TIP3    H278537   4.426   0.352   3.460  0.4380 -2.0626  0.2456
19016TIP3   OH278538   5.099   1.108  11.783  0.6024  0.6132  0.9247
19016TIP3    H178539   5.040   1.180  11.760 -0.8535 -0.1090  2.3042
19016TIP3    H278540   5.185   1.137  11.754 -0.7876  0.6418 -3.4035
19017TIP3   OH278541   2.750   1.040   3.800 -0.1861 -0.5758 -0.2184
19017TIP3    H178542   2.758   0.954   3.759 -1.6611 -0.5313 -0.5990
19017TIP3    H278543   2.696   1.025   3.877 -0.0132 -0.0786  0.0006
19018TIP3   OH278544   1.568   6.569  11.455 -0.6209  0.2632 -0.2033
19018TIP3    H178545   1.499   6.504  11.466  0.1606 -0.4553  0.4884
19018TIP3    H278546   1.650   6.520  11.468  0.0480  0.9573 -1.6892
19019TIP3   OH278547   6.101   5.328  10.744  0.3908  0.2114 -0.1067
19019TIP3    H178548   6.099   5.263  10.673  1.3637  0.0587 -0.0092
19019TIP3    H278549   6.072   5.280  10.821  2.6567 -0.5708  0.3030
19020TIP3   OH278550   0.447   4.370   2.441 -0.1904 -0.4987 -0.3163
19020TIP3    H178551   0.420   4.411   2.359  1.7885  1.2193 -0.1604
19020TIP3    H278552   0.374   4.385   2.501 -1.3173 -1.0754 -1.5224
19021TIP3   OH278553   5.179   1.195  15.585  0.2301 -0.2623 -0.0378
19021TIP3    H178554   5.087   1.204  15.559  0.2911 -0.7175 -0.4240
19021TIP3    H278555   5.193   1.266  15.648 -0.3482 -0.1053 -0.0785
19022TIP3   OH278556   3.070   1.202   0.825  0.3973 -0.3238  0.0729
19022TIP3    H178557   3.086   1.193   0.731  1.3300  0.6576  0.1266
19022TIP3    H278558   3.071   1.112   0.858  0.0783 -0.6697 -0.8522
19023TIP3   OH278559   0.576   1.373   0.594  0.2252 -0.4373 -0.5276
19023TIP3    H178560   0.537   1.422   0.522 -0.3053 -0.9648 -0.6101
19023TIP3    H278561   0.599   1.439   0.659 -1.1630 -0.1310 -0.3230
19024TIP3   OH278562   1.004   6.040   2.343  0.1610 -0.3899  0.7781
19024TIP3    H178563   0.960   6.055   2.427  0.2610 -0.2462  0.8054
19024TIP3    H278564   0.933   6.016   2.283  0.0532 -0.2165  0.8361
19025TIP3   OH278565   1.187   0.743  14.369 -0.7139 -0.0790 -0.4624
19025TIP3    H178566   1.180   0.839  14.366  0.5735  0.0436 -0.1525
19025TIP3    H278567   1.138   0.718  14.447 -0.3755  0.4092 -0.0890
19026TIP3   OH278568   6.302   0.476   1.553  0.4940 -0.0707  0.1144
19026TIP3    H178569   6.332   0.455   1.465 -1.6003 -2.0748 -0.1773
19026TIP3    H278570   6.375   0.453   1.610  0.4726 -2.4911 -0.7775
19027TIP3   OH278571   5.246   0.310  10.972  0.2945  0.8744 -0.2259
19027TIP3    H178572   5.331   0.322  11.014  0.2743 -3.1139  1.1450
19027TIP3    H278573   5.248   0.221  10.936 -2.5649  1.4213 -1.9458
19028TIP3   OH278574   6.289   4.645  11.497  0.7027 -0.4932  0.4634
19028TIP3    H178575   6.249   4.631  11.411  0.2162 -2.1250  0.9395
19028TIP3    H278576   6.361   4.705  11.480 -1.1145  1.4507 -0.6310
19029TIP3   OH278577   6.086   1.361   2.813 -0.2375  0.2609  0.5864
19029TIP3    H178578   6.057   1.401   2.732 -0.4549  0.2824  0.6762
19029TIP3    H278579   6.008   1.357   2.868 -0.7951 -2.4762 -0.3054
19030TIP3   OH278580   1.242   4.765   3.366 -0.1016  0.1524 -0.0587
19030TIP3    H178581   1.244   4.804   3.454 -1.4604  0.4052 -0.1239
19030TIP3    H278582   1.333   4.749   3.344  0.2637  0.3668  1.2881
19031TIP3   OH278583   2.355   1.981  15.272  0.2884 -0.1400 -0.0016
19031TIP3    H178584   2.269   1.981  15.314 -0.2917 -0.3830 -1.1730
19031TIP3    H278585   2.403   2.052  15.314 -0.8252  0.6432 -0.0428
19032TIP3   OH278586   2.475   5.027  11.620  0.0449  0.8649 -0.2072
19032TIP3    H178587   2.457   4.975  11.542  1.6349  0.6068 -0.4343
19032TIP3    H278588   2.396   5.019  11.673 -0.1016 -1.0382 -0.6580
19033TIP3   OH278589   3.251   2.026  15.176 -0.2193 -0.0621  0.2110
19033TIP3    H178590   3.217   1.990  15.258 -0.2540  0.5072  0.4541
19033TIP3    H278591   3.304   2.101  15.203 -1.0659  0.7515 -0.3459
19034TIP3   OH278592   1.391   1.374   1.985 -0.2462 -0.5266  0.1942
19034TIP3    H178593   1.350   1.349   1.903 -1.1163 -0.1397  0.5025
19034TIP3    H278594   1.477   1.409   1.960  0.1466 -1.8999 -0.3995
19035TIP3   OH278595   4.390   3.500   3.049  0.2379 -0.4004 -0.4970
19035TIP3    H178596   4.363   3.429   3.106  3.5144 -1.4218 -0.1145
19035TIP3    H278597   4.412   3.572   3.108 -0.3401 -0.0118 -0.7403
19036TIP3   OH278598   5.160   0.089  16.530  0.0696 -0.0354  0.1806
19036TIP3    H178599   5.093   0.081  16.461  0.8950 -0.3013 -0.6061
19036TIP3    H278600   5.113   0.125  16.605 -0.2745  2.9689 -1.3920
19037TIP3   OH278601   2.894   5.163   0.631  0.2487 -0.1814 -0.4430
19037TIP3    H178602   2.930   5.237   0.582  1.1874 -0.9825 -0.9762
19037TIP3    H278603   2.957   5.148   0.701 -0.2702 -0.0731  0.0516
19038TIP3   OH278604   0.915   0.152   2.547  0.3688 -0.4398 -0.4105
19038TIP3    H178605   0.936   0.059   2.550  1.3657 -0.2519 -1.3186
19038TIP3    H278606   0.842   0.162   2.609 -0.0820 -1.8978 -0.6796
19039TIP3   OH278607   5.032   3.042   2.325  0.2107 -0.2273 -0.0317
19039TIP3    H178608   4.947   3.057   2.285 -0.0765 -0.5025  0.4706
19039TIP3    H278609   5.043   3.114   2.387  0.8681  0.4686 -0.9379
19040TIP3   OH278610   5.751   4.191   0.103  0.0464  0.1396  0.3564
19040TIP3    H178611   5.722   4.271   0.059 -0.4332 -0.0259  0.3690
19040TIP3    H278612   5.805   4.222   0.176 -1.8676  0.5523  1.6584
19041TIP3   OH278613   0.513   1.261   3.033  0.0872 -0.2870 -0.5727
19041TIP3    H178614   0.504   1.356   3.040 -2.0812 -0.5887  1.2912
19041TIP3    H278615   0.600   1.248   2.996  1.3591  2.3742  1.3059
19042TIP3   OH278616   5.510   4.375   5.007 -0.0221  0.3619  0.4166
19042TIP3    H178617   5.589   4.428   5.010 -0.1046  0.5225 -0.2522
19042TIP3    H278618   5.446   4.424   5.059  0.1902  0.4408  0.6019
19043TIP3   OH278619   6.290   0.485   3.540  0.3181  0.8952 -0.1033
19043TIP3    H178620   6.339   0.553   3.586  0.3742  1.6739 -1.2867
19043TIP3    H278621   6.349   0.456   3.471  0.5852 -0.9101  0.8602
19044TIP3   OH278622   2.137   5.442   4.006 -0.4820  0.0409 -0.3348
19044TIP3    H178623   2.231   5.441   4.023 -0.5250  0.0700 -0.0905
19044TIP3    H278624   2.122   5.366   3.950 -0.6285 -1.1367  1.2945
19045TIP3   OH278625   4.145   1.346  11.126  0.3777 -0.1565  0.0020
19045TIP3    H178626   4.203   1.271  11.117 -0.3851 -0.8104  0.5344
19045TIP3    H278627   4.156   1.374  11.217  2.1219  1.5867 -0.7082
19046TIP3   OH278628   2.289   4.219   4.194  0.6810 -0.2991 -0.3293
19046TIP3    H178629   2.228   4.212   4.121 -1.5493 -0.6893  1.5196
19046TIP3    H278630   2.282   4.311   4.222  2.2278  0.0924 -1.1595
19047TIP3   OH278631   1.219   6.431   5.644  0.3328  0.2311 -0.3731
19047TIP3    H178632   1.279   6.505   5.632  0.5198  0.3814  1.3878
19047TIP3    H278633   1.245   6.392   5.727  0.3384 -1.9362 -1.3486
19048TIP3   OH278634   1.429   2.468   2.217  0.2884 -0.0574  0.5937
19048TIP3    H178635   1.470   2.414   2.285 -0.0081 -1.8427 -0.5802
19048TIP3    H278636   1.483   2.453   2.140 -1.9666 -1.7326 -0.7485
19049TIP3   OH278637   3.476   1.398   4.388  0.4371  0.4732 -0.2653
19049TIP3    H178638   3.426   1.394   4.469  0.7612  0.8735 -0.0434
19049TIP3    H278639   3.562   1.363   4.411 -0.2057 -1.6873 -1.0235
19050TIP3   OH278640   1.921   4.142  12.854  0.3834  0.2342 -0.0279
19050TIP3    H178641   1.869   4.138  12.774 -0.8895 -0.3187  0.8216
19050TIP3    H278642   1.994   4.082  12.838 -1.3440 -1.9922  0.2533
19051TIP3   OH278643   6.470   0.427   3.906  0.2221 -0.6551  0.0929
19051TIP3    H178644   6.529   0.502   3.906  0.1223 -0.5648  1.5054
19051TIP3    H278645   6.493   0.379   3.827  0.0995  1.0016 -0.9806
19052TIP3   OH278646   1.171   5.610   0.001  0.1871 -0.2645  0.0486
19052TIP3    H178647   1.147   5.518   0.011 -0.3429 -0.1707 -0.3475
19052TIP3    H278648   1.250   5.609  -0.053 -0.6421 -0.4088 -1.1800
19053TIP3   OH278649   5.316   1.839  13.920  0.5159 -0.1323  0.0102
19053TIP3    H178650   5.262   1.791  13.984  1.6635 -2.0566 -0.4330
19053TIP3    H278651   5.254   1.896  13.874 -0.4680  0.6659  2.2520
19054TIP3   OH278652   6.817   0.521  13.721 -0.6554  0.4350 -0.1785
19054TIP3    H178653   6.816   0.444  13.779 -0.9784  0.3739 -0.2643
19054TIP3    H278654   6.909   0.548  13.719 -0.5942  0.2573  0.1274
19055TIP3   OH278655   5.584   3.344   0.449 -0.4118  0.2677 -0.5076
19055TIP3    H178656   5.670   3.314   0.421  0.6314  1.9453  0.8130
19055TIP3    H278657   5.548   3.389   0.373 -0.4465 -1.1265 -1.3105
19056TIP3   OH278658   6.688   0.723   0.592  0.2286  0.8854 -0.3554
19056TIP3    H178659   6.705   0.732   0.686 -1.8528  2.5995 -0.1010
19056TIP3    H278660   6.707   0.632   0.573  0.8744  0.5599  1.7005
19057TIP3   OH278661   1.022   4.933  15.950 -0.4721  0.3069  0.1990
19057TIP3    H178662   1.113   4.930  15.978 -0.2052  1.7819 -0.4737
19057TIP3    H278663   1.007   4.849  15.906  1.0056  0.6858 -1.0495
19058TIP3   OH278664   1.420   4.738   5.775  0.2137 -0.1712  0.0780
19058TIP3    H178665   1.382   4.815   5.818 -0.6289 -1.0255  0.8793
19058TIP3    H278666   1.438   4.677   5.847  2.8223  0.0802 -0.3206
19059TIP3   OH278667   4.617   5.257   5.444  0.3265  0.1126 -0.2040
19059TIP3    H178668   4.579   5.168   5.443  1.8796 -0.5673 -0.0723
19059TIP3    H278669   4.564   5.306   5.380 -0.6714 -0.8478 -0.1395
19060TIP3   OH278670   3.145   6.249  14.533  0.1829 -0.0309 -0.0774
19060TIP3    H178671   3.164   6.224  14.623 -0.2888 -1.4516 -0.3545
19060TIP3    H278672   3.054   6.221  14.519  0.6545 -0.9622 -1.3662
19061TIP3   OH278673   4.119   0.184   5.896 -0.1325  0.0980  0.6066
19061TIP3    H178674   4.180   0.254   5.874 -0.0585 -0.8245 -2.2666
19061TIP3    H278675   4.068   0.219   5.969  1.5976  2.1514  0.8767
19062TIP3   OH278676   3.341   1.216   1.810 -0.3610 -0.0589 -0.3328
19062TIP3    H178677   3.319   1.194   1.719 -0.1757 -1.7285  0.0244
19062TIP3    H278678   3.258   1.210   1.857 -0.7792  2.3823 -0.6570
19063TIP3   OH278679   4.248   1.124   0.558 -0.3149 -0.4253 -0.1324
19063TIP3    H178680   4.255   1.062   0.630  1.5415 -0.0731  0.0225
19063TIP3    H278681   4.252   1.210   0.601 -0.8376 -0.2098 -0.5158
19064TIP3   OH278682   5.542   2.458   3.056 -0.3835 -0.3919  0.0004
19064TIP3    H178683   5.561   2.371   3.021 -0.6067 -0.6022  0.3937
19064TIP3    H278684   5.523   2.511   2.979  1.2451 -0.3132 -0.3487
19065TIP3   OH278685   1.986   2.426   0.599  0.5864  0.2474  0.1531
19065TIP3    H178686   1.926   2.479   0.652 -1.1966  0.1261 -1.6677
19065TIP3    H278687   1.967   2.451   0.509  0.6132 -2.5649 -0.6862
19066TIP3   OH278688   0.257   0.372   4.593 -0.4719 -0.5348 -0.0769
19066TIP3    H178689   0.283   0.443   4.652  0.5616 -0.8905 -0.0924
19066TIP3    H278690   0.253   0.295   4.650  0.8789 -0.9489 -0.5165
19067TIP3   OH278691   5.917   5.287   1.052 -0.1276  0.0973 -0.2182
19067TIP3    H178692   5.932   5.382   1.050  0.6808 -0.0324 -1.3266
19067TIP3    H278693   5.895   5.268   1.143  2.1695  0.9992  0.5833
19068TIP3   OH278694   0.117   5.372  15.453  0.1869  0.3598 -0.2109
19068TIP3    H178695   0.087   5.368  15.362 -3.0114 -2.5878  0.8619
19068TIP3    H278696   0.201   5.327  15.452  0.4684  0.8629 -1.8057
19069TIP3   OH278697   2.359   2.737  13.761 -0.3651 -0.6616 -0.3592
19069TIP3    H178698   2.285   2.797  13.749  0.2817 -0.1555 -1.9796
19069TIP3    H278699   2.409   2.773  13.833 -0.7144  0.0131 -0.4564
19070TIP3   OH278700   0.089   4.636   2.714 -0.1937  0.3482  0.1118
19070TIP3    H178701   0.003   4.599   2.735 -0.0631 -0.1066 -0.1430
19070TIP3    H278702   0.105   4.609   2.623  0.5858 -0.2595  0.4295
19071TIP3   OH278703   1.206   3.321   5.528 -0.5648 -0.5705  0.2821
19071TIP3    H178704   1.127   3.275   5.500 -0.8115  0.2109 -0.3276
19071TIP3    H278705   1.275   3.288   5.470 -0.6193 -0.6017  0.2346
19072TIP3   OH278706   1.112   6.138  14.435  0.4409  0.3983  0.3727
19072TIP3    H178707   1.097   6.128  14.341  1.7614 -4.1154  0.5093
19072TIP3    H278708   1.205   6.161  14.442  1.3274 -3.0069  0.6206
19073TIP3   OH278709   2.037   4.188   0.139  0.2918  0.0392 -0.3311
19073TIP3    H178710   1.965   4.238   0.100 -1.2315 -0.8299  1.3144
19073TIP3    H278711   2.054   4.118   0.077 -0.6987 -0.1081 -0.4431
19074TIP3   OH278712   1.984   4.480   2.049 -1.1186  0.0062  0.6241
19074TIP3    H178713   1.937   4.560   2.025 -1.4092 -0.9645 -2.2348
19074TIP3    H278714   2.055   4.474   1.985 -1.8091 -2.6222  0.0479
19075TIP3   OH278715   4.733   5.022  12.751  0.0534  0.0820  0.4010
19075TIP3    H178716   4.812   5.062  12.787 -0.5515  0.8903  0.8514
19075TIP3    H278717   4.740   5.035  12.657  0.7175 -0.3386  0.3913
19076TIP3   OH278718   1.617   3.011   5.727  0.2110 -0.2814 -0.1627
19076TIP3    H178719   1.596   3.053   5.644 -2.4308 -0.1681  0.5275
19076TIP3    H278720   1.642   3.084   5.785  0.1403 -0.1522 -0.2959
19077TIP3   OH278721   1.454   3.980  17.132 -0.0026  0.0771  0.0329
19077TIP3    H178722   1.503   4.049  17.087 -1.0548  2.0872  1.8831
19077TIP3    H278723   1.392   3.949  17.067  0.4611  0.8985 -0.8195
19078TIP3   OH278724   1.201   0.723   2.555  0.0263  0.1019  0.2657
19078TIP3    H178725   1.133   0.740   2.490 -2.2233 -1.0354  2.2647
19078TIP3    H278726   1.251   0.649   2.519  0.0508  0.7536 -1.0662
19079TIP3   OH278727   5.171   6.101  15.276 -0.3427  0.8663  0.7692
19079TIP3    H178728   5.076   6.107  15.284 -0.3157  0.3311  1.5753
19079TIP3    H278729   5.202   6.190  15.293 -0.8975  1.8647 -3.0221
19080TIP3   OH278730   3.745   1.592   0.601 -0.0211  0.1342  0.2620
19080TIP3    H178731   3.807   1.572   0.531 -0.1810  1.5471 -0.2874
19080TIP3    H278732   3.798   1.631   0.671 -0.1970  0.7424  0.0535
19081TIP3   OH278733   0.810   6.062  15.952 -0.1255 -0.4446 -0.1753
19081TIP3    H178734   0.721   6.066  15.987  0.3435  0.2683  0.9552
19081TIP3    H278735   0.828   5.968  15.942 -0.3449 -0.6632  1.3316
19082TIP3   OH278736   0.280   2.057  13.131 -0.2707  0.2955 -0.2831
19082TIP3    H178737   0.308   1.968  13.148  0.1884  0.9473  2.6100
19082TIP3    H278738   0.348   2.112  13.170  0.3448  1.9761 -3.4912
19083TIP3   OH278739   5.619   5.467   0.569 -0.5569  0.2695 -0.0497
19083TIP3    H178740   5.656   5.421   0.644 -0.0568 -0.0404 -0.4838
19083TIP3    H278741   5.590   5.397   0.510  0.5731  0.4970 -0.9005
19084TIP3   OH278742   6.228   1.605   2.186 -0.1999 -0.3975  0.1851
19084TIP3    H178743   6.280   1.585   2.109  0.8577  0.4474  0.6568
19084TIP3    H278744   6.163   1.535   2.191 -0.3915 -0.3603 -1.5540
19085TIP3   OH278745   1.035   1.188   3.486  0.4208  0.2407 -0.5110
19085TIP3    H178746   0.967   1.253   3.464  1.5637  0.6369 -3.1081
19085TIP3    H278747   0.996   1.104   3.463  0.1209  0.3022 -0.2273
19086TIP3   OH278748   0.419   2.844  13.045  0.8485  0.2410 -0.0589
19086TIP3    H178749   0.341   2.860  13.099  2.3583 -0.0262  2.2898
19086TIP3    H278750   0.454   2.932  13.027  1.4959  0.2556  1.2016
19087TIP3   OH278751   1.371   5.927   3.497 -0.5068 -0.2427 -0.2771
19087TIP3    H178752   1.328   5.879   3.567  0.2058 -1.3411 -0.5773
19087TIP3    H278753   1.464   5.908   3.508 -0.1034  1.8561  0.1788
19088TIP3   OH278754   1.302   2.560  14.289  0.1994 -0.4087 -0.1362
19088TIP3    H178755   1.275   2.611  14.365  0.5681 -1.6464  0.8406
19088TIP3    H278756   1.385   2.521  14.314 -1.5987 -4.1436  0.4699
19089TIP3   OH278757   6.518   3.575   1.878  0.6098  0.5343  0.6468
19089TIP3    H178758   6.537   3.648   1.819 -0.7018  0.3347 -0.0561
19089TIP3    H278759   6.476   3.616   1.953 -2.7070  0.2850 -0.9675
19090TIP3   OH278760   2.688   0.896  16.420 -0.0178 -0.1721 -0.2418
19090TIP3    H178761   2.739   0.815  16.418 -2.8895 -2.0675  0.3917
19090TIP3    H278762   2.605   0.874  16.377 -0.8373  2.4671 -0.1464
19091TIP3   OH278763   2.649   5.073   2.860 -0.5060 -0.0444 -0.5652
19091TIP3    H178764   2.638   4.980   2.837  2.1607 -0.4394 -0.4823
19091TIP3    H278765   2.660   5.073   2.955 -1.3747  0.4592 -0.4650
19092TIP3   OH278766   6.801   2.385  15.337 -0.0117  0.2482 -0.2329
19092TIP3    H178767   6.870   2.327  15.370 -0.9445 -1.6720 -1.5451
19092TIP3    H278768   6.740   2.394  15.409  1.0631  1.1077  0.5918
19093TIP3   OH278769   6.667   4.543   4.184  0.4712 -0.1357 -0.8197
19093TIP3    H178770   6.684   4.460   4.227  1.4086  0.0664 -0.7923
19093TIP3    H278771   6.749   4.566   4.142 -0.0287  0.3627 -1.5388
19094TIP3   OH278772   4.871   0.184  16.112 -0.4475  0.3665  0.2809
19094TIP3    H178773   4.907   0.233  16.037 -1.2855 -0.5002 -0.7136
19094TIP3    H278774   4.895   0.093  16.094 -1.6167  0.0123  0.5055
19095TIP3   OH278775   4.939   2.785  12.020  0.2654 -0.1435  0.0453
19095TIP3    H178776   4.919   2.712  12.078 -2.0060  0.8458  0.5612
19095TIP3    H278777   4.902   2.759  11.935 -0.8234  0.5180  0.3082
19096TIP3   OH278778   1.546   6.692  13.190  0.0804 -0.2354  0.1440
19096TIP3    H178779   1.451   6.679  13.190  0.3400 -2.2356  1.3226
19096TIP3    H278780   1.562   6.747  13.267 -0.0409 -0.4982  0.3582
19097TIP3   OH278781   1.798   2.255  11.176 -0.0974  0.3619  0.0940
19097TIP3    H178782   1.861   2.296  11.117  0.8788 -1.9688 -0.5380
19097TIP3    H278783   1.713   2.263  11.131  0.7718 -2.2202 -2.1360
19098TIP3   OH278784   0.704   1.934  12.431 -0.1212 -0.1358 -0.6846
19098TIP3    H178785   0.689   1.843  12.457 -1.0182  0.0887 -0.3739
19098TIP3    H278786   0.732   1.929  12.340 -0.5231 -0.7017 -0.7836
19099TIP3   OH278787   2.892   2.183  13.278 -0.2463 -0.2732  0.3418
19099TIP3    H178788   2.891   2.117  13.348  0.5877  1.6529  2.2493
19099TIP3    H278789   2.869   2.135  13.199  0.2129 -2.8197  1.6967
19100TIP3   OH278790   2.235   5.717  17.040 -0.2983  0.2023  0.0278
19100TIP3    H178791   2.248   5.720  16.945 -1.9872  1.1199 -0.1775
19100TIP3    H278792   2.142   5.734  17.053 -0.2151 -0.5558  1.8299
19101TIP3   OH278793   2.798   4.259   6.377  0.0982 -0.3578 -0.3666
19101TIP3    H178794   2.749   4.334   6.343  0.7173  0.7378  1.0787
19101TIP3    H278795   2.796   4.271   6.472  1.5148 -1.3471 -0.2013
19102TIP3   OH278796   3.574   3.737  17.030  0.8724 -0.2754 -0.4330
19102TIP3    H178797   3.667   3.731  17.006  0.7904 -0.6607 -0.6478
19102TIP3    H278798   3.575   3.770  17.120  1.1784  1.1398 -0.9345
19103TIP3   OH278799   3.545   2.643  16.211  0.5926 -0.3125  0.6651
19103TIP3    H178800   3.507   2.690  16.285 -0.8612 -0.8814  0.2957
19103TIP3    H278801   3.632   2.682  16.200 -0.7767  2.7706 -0.0035
19104TIP3   OH278802   6.006   2.748   1.112 -0.0059 -0.2601  0.0886
19104TIP3    H178803   5.932   2.764   1.171  0.3299 -0.5642  0.5923
19104TIP3    H278804   6.003   2.821   1.050 -0.9325 -0.4452 -0.1043
19105TIP3   OH278805   3.571   3.812  11.592 -0.3814 -0.5542 -0.0247
19105TIP3    H178806   3.583   3.717  11.601 -2.1317 -0.5543  2.8537
19105TIP3    H278807   3.477   3.824  11.593 -0.2533  1.0756 -2.8029
19106TIP3   OH278808   6.800   4.294  11.440 -0.4880  0.3738 -0.0515
19106TIP3    H178809   6.893   4.312  11.432  0.1073 -0.2444  4.0137
19106TIP3    H278810   6.774   4.259  11.355  3.2535 -0.5570 -0.8855
19107TIP3   OH278811   6.165   0.100   4.450  0.2597  0.7017 -0.1427
19107TIP3    H178812   6.201   0.091   4.538 -0.1085  1.3473  0.0767
19107TIP3    H278813   6.215   0.038   4.397  0.3232  0.1358  0.5667
19108TIP3   OH278814   2.873   1.651   0.578 -1.0226  0.2749 -0.4837
19108TIP3    H178815   2.926   1.636   0.657 -1.9403 -2.0422 -0.2500
19108TIP3    H278816   2.791   1.687   0.612 -0.6976  1.0812 -0.5587
19109TIP3   OH278817   0.341   5.498   3.025  0.0462 -0.3775  0.3093
19109TIP3    H178818   0.379   5.583   3.002  0.1931 -0.0510  1.7370
19109TIP3    H278819   0.248   5.516   3.040  0.1574 -0.4035  1.0096
19110TIP3   OH278820   1.417   2.343  15.685 -0.0517 -0.2545 -0.3443
19110TIP3    H178821   1.407   2.412  15.751 -1.3576 -0.4713 -0.2957
19110TIP3    H278822   1.329   2.307  15.675  0.0668 -0.0697 -2.3666
19111TIP3   OH278823   6.161   3.793  16.625  0.4831  0.1207 -0.0641
19111TIP3    H178824   6.123   3.773  16.711  0.3107  1.5294  0.1922
19111TIP3    H278825   6.172   3.707  16.584 -1.6978 -0.4138  0.3875
19112TIP3   OH278826   5.731   0.758   5.571 -0.4050  0.4703 -0.2844
19112TIP3    H178827   5.670   0.712   5.628 -0.7773  0.8003 -0.4149
19112TIP3    H278828   5.817   0.742   5.610 -0.3412 -1.7033 -1.2527
19113TIP3   OH278829   6.095   1.274  11.307 -0.0645 -0.0089 -0.5820
19113TIP3    H178830   6.092   1.368  11.327 -0.2330  0.1296 -1.2463
19113TIP3    H278831   6.122   1.270  11.216  0.5923 -0.6349 -0.3641
19114TIP3   OH278832   0.064   5.126   1.287  0.0634 -0.2971 -0.5697
19114TIP3    H178833  -0.003   5.180   1.329 -1.2153 -2.2759  0.0291
19114TIP3    H278834   0.146   5.150   1.330 -0.7222  0.1176  0.7090
19115TIP3   OH278835   0.550   3.812  14.599 -0.5540  0.4090 -0.3006
19115TIP3    H178836   0.461   3.805  14.634 -0.9977 -0.6863 -1.6025
19115TIP3    H278837   0.541   3.792  14.506  1.2820 -1.4729 -0.1237
19116TIP3   OH278838   5.561   6.242   0.737 -0.0611 -0.1583 -0.5510
19116TIP3    H178839   5.532   6.330   0.762  1.3441  0.2920 -0.4668
19116TIP3    H278840   5.523   6.185   0.803 -1.4666  0.3029 -0.9336
19117TIP3   OH278841   2.008   2.954  15.442 -0.7595  0.3453  0.2082
19117TIP3    H178842   2.004   2.912  15.356  0.8654 -0.8531  0.6821
19117TIP3    H278843   1.926   2.931  15.484 -1.1483  0.1243 -0.6572
19118TIP3   OH278844   0.707   5.931  13.966  0.5296  0.0720  0.2734
19118TIP3    H178845   0.636   5.867  13.961 -0.1329  0.7973  0.3117
19118TIP3    H278846   0.711   5.955  14.059  1.3027 -0.4938  0.3918
19119TIP3   OH278847   2.281   1.250   4.738  0.4537  0.0235 -0.9661
19119TIP3    H178848   2.303   1.168   4.782  2.1424  1.1463  0.3514
19119TIP3    H278849   2.361   1.273   4.690  0.6155  1.7872  0.1028
19120TIP3   OH278850   5.049   0.660  11.702 -0.2059 -0.7286  0.9632
19120TIP3    H178851   4.957   0.677  11.679 -0.1854 -0.1471  1.2847
19120TIP3    H278852   5.082   0.607  11.630 -0.5929 -0.3028  0.4616
19121TIP3   OH278853   3.606   4.244  14.954  0.1282 -0.1603  0.7556
19121TIP3    H178854   3.621   4.322  15.009  1.5438 -0.4627  0.8295
19121TIP3    H278855   3.601   4.278  14.865  0.2504  0.0751  0.8375
19122TIP3   OH278856   0.559   6.643  14.228  0.1204 -0.5999 -0.1447
19122TIP3    H178857   0.540   6.601  14.144 -0.0948  0.5228 -0.6671
19122TIP3    H278858   0.595   6.729  14.204 -2.2372  0.7109  0.9133
19123TIP3   OH278859   2.139   6.393  12.781 -0.0247  0.0537  0.4025
19123TIP3    H178860   2.102   6.305  12.789 -1.4750  0.6520  0.4939
19123TIP3    H278861   2.166   6.416  12.869 -0.1586 -0.0910  0.4820
19124TIP3   OH278862   6.602   4.136   1.761 -0.0092  0.4136 -0.0672
19124TIP3    H178863   6.561   4.223   1.760  0.9534  0.8826 -2.9140
19124TIP3    H278864   6.693   4.152   1.784  0.3589  0.2896 -1.3706
19125TIP3   OH278865   5.736   1.224  15.897  0.8474 -0.8165  0.0460
19125TIP3    H178866   5.783   1.257  15.974  0.9754 -0.3873 -0.2176
19125TIP3    H278867   5.804   1.205  15.833  0.6937 -0.5857 -0.1873
19126TIP3   OH278868   6.591   1.083   4.931 -0.1325 -0.0982 -0.5197
19126TIP3    H178869   6.557   1.088   5.020 -0.7166 -0.1461 -0.7359
19126TIP3    H278870   6.681   1.115   4.937 -0.2888  0.2390  0.0212
19127TIP3   OH278871   6.129   4.435  12.200 -0.0978  0.3649 -0.0175
19127TIP3    H178872   6.041   4.425  12.162 -0.9837  0.5979  1.9209
19127TIP3    H278873   6.131   4.371  12.271  1.5230 -0.0171 -0.3903
19128TIP3   OH278874   5.981   5.941   2.922 -0.3410 -0.3441  0.6958
19128TIP3    H178875   6.045   5.989   2.869 -2.0698  0.6226 -0.5913
19128TIP3    H278876   6.026   5.923   3.004  0.9434  2.0098  0.5490
19129TIP3   OH278877   2.268   4.847  14.387  0.4875  0.2387  0.0282
19129TIP3    H178878   2.210   4.878  14.456  0.3810  0.6751 -0.2580
19129TIP3    H278879   2.213   4.794  14.330  0.9975 -1.8055  1.3803
19130TIP3   OH278880   2.877   0.434  11.825  0.2262 -0.0275  0.8053
19130TIP3    H178881   2.823   0.375  11.772  1.4059 -0.9754  0.6466
19130TIP3    H278882   2.956   0.447  11.773  0.3714  0.9489  1.2738
19131TIP3   OH278883   4.264   1.933   4.463 -0.2464  0.2853 -0.1888
19131TIP3    H178884   4.174   1.911   4.489 -0.6950 -0.2075 -2.0807
19131TIP3    H278885   4.298   1.985   4.537 -2.3700  1.2200  0.1897
19132TIP3   OH278886   4.464   4.360   0.607  0.0967 -0.2699  0.3091
19132TIP3    H178887   4.537   4.302   0.589 -0.7304 -1.1600 -0.2527
19132TIP3    H278888   4.440   4.342   0.698 -0.6731 -1.4099 -0.1079
19133TIP3   OH278889   5.185   0.725  12.888 -0.0549  0.2876 -0.3631
19133TIP3    H178890   5.197   0.765  12.975 -2.7775  1.8015 -0.6073
19133TIP3    H278891   5.147   0.795  12.835 -0.6516 -1.3202 -2.1152
19134TIP3   OH278892   2.597   2.550  11.456  0.0924 -0.3304  0.5089
19134TIP3    H178893   2.579   2.639  11.427  1.0339 -0.4059 -0.3199
19134TIP3    H278894   2.510   2.514  11.476 -0.2588  0.9203  1.3529
19135TIP3   OH278895   1.078   6.790  11.498 -0.6597 -0.1062 -0.0245
19135TIP3    H178896   1.088   6.779  11.403 -1.4409 -0.4301 -0.0752
19135TIP3    H278897   0.989   6.760  11.516 -0.2066 -0.8823  0.9494
19136TIP3   OH278898   1.970   0.163  16.543 -0.3925  0.0482  0.2198
19136TIP3    H178899   1.978   0.251  16.580 -0.0694  0.9096 -1.8513
19136TIP3    H278900   1.884   0.133  16.570 -1.3693  1.8430 -0.8086
19137TIP3   OH278901   4.516   1.967  16.937 -0.2857 -0.1380 -0.0753
19137TIP3    H178902   4.578   2.039  16.933 -0.5981  0.1266 -0.1592
19137TIP3    H278903   4.490   1.963  17.029 -0.5072  0.0609 -0.1285
19138TIP3   OH278904   5.810   3.413   2.128  0.4042 -0.3451  0.1739
19138TIP3    H178905   5.896   3.381   2.099 -0.2802 -1.1349 -0.9771
19138TIP3    H278906   5.756   3.412   2.050  0.4393  4.0470 -0.0245
19139TIP3   OH278907   3.115   1.176   2.994  0.1133 -0.1668 -0.1661
19139TIP3    H178908   3.138   1.145   3.082 -2.9197 -1.3660  0.2514
19139TIP3    H278909   3.053   1.247   3.009  0.9672  0.8459 -1.3360
19140TIP3   OH278910   6.508   3.981  10.905  0.3219 -0.2561 -0.1401
19140TIP3    H178911   6.556   3.924  10.846  1.2600  0.0360  0.3294
19140TIP3    H278912   6.505   4.066  10.860  0.4521 -0.2085 -0.0558
19141TIP3   OH278913   0.192   4.147  17.250  0.6330  0.2888  0.1095
19141TIP3    H178914   0.175   4.241  17.247  1.0734  0.3107 -1.6662
19141TIP3    H278915   0.236   4.127  17.168 -0.5848 -1.6898 -0.1030
19142TIP3   OH278916   0.519   6.076   0.810 -0.4954 -0.8621  0.4326
19142TIP3    H178917   0.466   6.115   0.879  0.5436  2.9230 -0.7670
19142TIP3    H278918   0.464   6.006   0.774 -3.5747  1.1596  0.9996
19143TIP3   OH278919   1.995   1.483   2.503  0.1564 -0.0912  0.8039
19143TIP3    H178920   1.974   1.456   2.593 -0.8729  0.8243  0.8699
19143TIP3    H278921   2.027   1.404   2.460  2.7092 -0.0619  2.5759
19144TIP3   OH278922   5.563   0.425   3.659  0.0026  0.5061  0.2980
19144TIP3    H178923   5.528   0.513   3.647  0.2426  0.5983  0.2815
19144TIP3    H278924   5.488   0.367   3.640 -0.2436  0.7114  0.6462
19145TIP3   OH278925   2.247   4.134  12.486  0.4249 -0.2672  0.2235
19145TIP3    H178926   2.270   4.148  12.578 -1.1675  1.8584  0.3527
19145TIP3    H278927   2.169   4.079  12.490 -0.5241  1.0446  0.2444
19146TIP3   OH278928   4.760   5.087   1.920  0.4250 -0.1992 -0.5371
19146TIP3    H178929   4.668   5.093   1.944 -0.0904 -0.6854 -2.3160
19146TIP3    H278930   4.780   4.993   1.923  1.5110  0.0529  2.0592
19147TIP3   OH278931   4.881   2.556  14.942 -0.2652  0.0590 -0.3043
19147TIP3    H178932   4.785   2.546  14.946 -0.6155  2.5920 -1.2017
19147TIP3    H278933   4.905   2.584  15.031 -0.6035  1.1785 -0.5592
19148TIP3   OH278934   5.360   6.659  16.844  0.1113  0.2275  0.3149
19148TIP3    H178935   5.320   6.691  16.925  0.0929 -0.2918  0.5156
19148TIP3    H278936   5.388   6.570  16.865  0.4261  0.2178 -0.1449
19149TIP3   OH278937   3.040   2.122  16.019  0.2572 -0.0695 -0.0096
19149TIP3    H178938   3.092   2.168  15.953  0.1574  0.2624  0.1385
19149TIP3    H278939   3.067   2.031  16.013 -1.1238 -0.3890 -1.8219
19150TIP3   OH278940   1.811   5.551   5.141 -0.1735  0.0928 -0.2102
19150TIP3    H178941   1.744   5.491   5.109 -1.3252  1.0571  0.3310
19150TIP3    H278942   1.848   5.591   5.063  2.0273 -2.8034 -0.6887
19151TIP3   OH278943   4.028   3.551   4.255  0.1213  0.0695  0.2222
19151TIP3    H178944   4.062   3.633   4.220  0.1503 -0.3575 -0.7799
19151TIP3    H278945   4.102   3.512   4.301  0.4032  0.1071 -0.2007
19152TIP3   OH278946   2.288   3.085  16.861 -0.2962  0.3863 -0.1892
19152TIP3    H178947   2.376   3.065  16.892 -0.1583 -0.2951 -0.9795
19152TIP3    H278948   2.296   3.169  16.816 -0.1124  0.4616 -0.0160
19153TIP3   OH278949   4.425   5.862   5.853  0.1449  0.0701 -0.1897
19153TIP3    H178950   4.431   5.798   5.782  1.7394  1.3357 -1.2305
19153TIP3    H278951   4.449   5.813   5.931  0.0025 -0.9348 -0.7681
19154TIP3   OH278952   1.639   0.905   4.020  0.1904 -0.2238 -0.2546
19154TIP3    H178953   1.610   0.814   4.029 -0.3690 -0.2454 -2.0197
19154TIP3    H278954   1.726   0.899   3.981 -0.4099  0.0108 -1.6687
19155TIP3   OH278955   6.394   3.765  12.724 -0.1148 -0.1589 -0.5117
19155TIP3    H178956   6.490   3.776  12.728 -0.0207 -1.1767  0.0743
19155TIP3    H278957   6.379   3.715  12.644 -0.0358 -1.3525  0.2228
19156TIP3   OH278958   2.477   0.176  12.632  0.4016  0.1936 -0.3131
19156TIP3    H178959   2.533   0.211  12.701 -1.2860 -0.0059  1.1960
19156TIP3    H278960   2.419   0.249  12.609  0.7269  0.1533 -1.2931
19157TIP3   OH278961   5.989   5.273  11.822  0.0386 -0.1246  0.1032
19157TIP3    H178962   6.000   5.356  11.777  0.3167 -1.1113 -1.6927
19157TIP3    H278963   6.000   5.206  11.754  0.9313 -1.6751  1.7095
19158TIP3   OH278964   0.234   3.184  13.038 -0.4190  0.0209  0.7806
19158TIP3    H178965   0.210   3.135  12.960  0.7304  0.5910  0.0593
19158TIP3    H278966   0.168   3.159  13.103 -0.3072 -1.8804  0.1928
19159TIP3   OH278967   6.085   6.680  12.680 -0.2967 -0.4193 -0.4520
19159TIP3    H178968   6.090   6.718  12.592  1.0976 -0.3930 -0.3737
19159TIP3    H278969   6.056   6.752  12.735  2.0472  0.5070 -0.3567
19160TIP3   OH278970   2.371   4.753  17.030  0.5490  0.4574  0.1386
19160TIP3    H178971   2.377   4.731  16.937 -0.7801  1.3056 -0.1655
19160TIP3    H278972   2.441   4.817  17.043  1.2326 -0.2353 -0.0971
19161TIP3   OH278973   2.914   4.627   3.178  0.3277 -0.5382  0.4176
19161TIP3    H178974   2.899   4.583   3.261  0.8291 -1.0269  0.2559
19161TIP3    H278975   2.845   4.693   3.172  0.1297 -0.6846  1.0919
19162TIP3   OH278976   0.923   5.200  11.766  0.2075 -0.5367 -0.8770
19162TIP3    H178977   0.972   5.270  11.810 -0.9357 -0.0698 -0.3223
19162TIP3    H278978   0.893   5.240  11.684 -1.4813  0.0285 -0.0035
19163TIP3   OH278979   3.300   1.149   2.797  0.3906  0.0180  0.3369
19163TIP3    H178980   3.297   1.056   2.820  0.8480  0.1580  0.9839
19163TIP3    H278981   3.220   1.186   2.834  0.3890 -0.0466  0.3977
19164TIP3   OH278982   1.509   4.152  13.251 -0.1607 -0.1233 -0.2591
19164TIP3    H178983   1.467   4.211  13.314 -1.0316 -1.5613  0.5348
19164TIP3    H278984   1.463   4.167  13.169 -0.2429  0.4523 -0.1093
19165TIP3   OH278985   6.127   0.433  14.173 -0.1954  0.0676  0.0598
19165TIP3    H178986   6.161   0.393  14.092 -1.1528  0.4942 -0.5675
19165TIP3    H278987   6.032   0.417  14.169 -0.1594 -0.5514  1.4674
19166TIP3   OH278988   5.196   2.129  11.211 -0.0689 -0.5723  0.2237
19166TIP3    H178989   5.291   2.146  11.213 -0.0568 -0.5586 -0.4089
19166TIP3    H278990   5.164   2.182  11.139 -0.4186 -1.3219 -0.1764
19167TIP3   OH278991   2.423   4.783  14.728 -0.4471 -0.1120 -0.2027
19167TIP3    H178992   2.445   4.819  14.814 -0.7630  0.6663 -0.4379
19167TIP3    H278993   2.400   4.860  14.676 -1.8963 -0.7194 -0.4891
19168TIP3   OH278994   6.656   6.007   1.798  0.4138  0.3589  0.4153
19168TIP3    H178995   6.718   6.015   1.871  1.0248  1.7373 -0.2420
19168TIP3    H278996   6.688   6.069   1.733 -2.1138  1.6809  0.3943
19169TIP3   OH278997   3.031   1.508  14.954  0.3600  0.1480  0.3063
19169TIP3    H178998   3.089   1.534  14.882 -0.3951  0.6516 -0.1334
19169TIP3    H278999   3.004   1.591  14.994 -0.0884 -0.0762  0.4722
19170TIP3   OH279000   3.628   0.421   3.100 -0.0849  0.3111 -0.0079
19170TIP3    H179001   3.573   0.498   3.113  0.1466  0.1857  1.8458
19170TIP3    H279002   3.706   0.439   3.152  0.6435 -0.4956 -0.8246
19171TIP3   OH279003   5.548   5.222  10.721  0.4301 -0.6793  0.9046
19171TIP3    H179004   5.641   5.210  10.700  0.3413  0.3441 -0.1449
19171TIP3    H279005   5.506   5.228  10.635 -0.6402 -1.3240  1.3797
19172TIP3   OH279006   0.325   0.759  13.632  0.6076 -0.5330 -0.2497
19172TIP3    H179007   0.359   0.748  13.543  0.3851 -2.0268 -0.1677
19172TIP3    H279008   0.379   0.699  13.685  1.2924  0.9513  0.7625
19173TIP3   OH279009   5.648   4.976   6.103 -0.0346  0.5013  0.0838
19173TIP3    H179010   5.579   4.929   6.056  0.4369  0.6976 -0.8078
19173TIP3    H279011   5.605   5.007   6.183 -0.4719 -1.0495  0.4696
19174TIP3   OH279012   2.377   6.754  11.969  0.2414 -0.0380  0.3407
19174TIP3    H179013   2.321   6.678  11.954  0.5544 -0.9202  3.2730
19174TIP3    H279014   2.317   6.821  12.003 -0.0665  1.1220 -2.4103
19175TIP3   OH279015   0.745   6.573   0.338 -0.5145  0.4311 -0.1264
19175TIP3    H179016   0.761   6.482   0.365 -0.4344  0.6835  0.6570
19175TIP3    H279017   0.656   6.592   0.367 -0.2704  0.8458  0.3397
19176TIP3   OH279018   2.033   2.083  11.425  0.4162 -0.4618  0.7590
19176TIP3    H179019   1.938   2.088  11.414  0.5702  1.4877  0.2108
19176TIP3    H279020   2.067   2.155  11.373  2.1172 -0.2035  2.1865
19177TIP3   OH279021   2.127   2.459  16.373 -0.0841  0.0740 -0.1417
19177TIP3    H179022   2.127   2.408  16.292 -0.7874  0.1880 -0.2132
19177TIP3    H279023   2.219   2.459  16.401 -0.2849 -2.4216  0.5971
19178TIP3   OH279024   4.042   4.298  12.109  0.3871 -0.0303  0.3799
19178TIP3    H179025   4.078   4.379  12.074 -1.0674  0.9644  1.1023
19178TIP3    H279026   4.052   4.234  12.039  0.5845  1.0475 -0.5873
19179TIP3   OH279027   3.304   3.718  12.439  0.1188  0.2690  0.1843
19179TIP3    H179028   3.235   3.718  12.373  0.0553  0.6990  0.2500
19179TIP3    H279029   3.326   3.625  12.450 -1.4153 -0.0026  1.1776
19180TIP3   OH279030   4.376   3.413  12.345  0.0957  0.3402 -0.0366
19180TIP3    H179031   4.328   3.488  12.309  0.4156  0.5738  0.0219
19180TIP3    H279032   4.468   3.432  12.324  0.2552  0.3560  0.6835
19181TIP3   OH279033   4.575   2.884   6.336 -0.2817  0.4898 -0.1638
19181TIP3    H179034   4.496   2.925   6.303 -1.0630 -0.4108  0.5399
19181TIP3    H279035   4.589   2.923   6.422 -0.0653  0.5061 -0.2040
19182TIP3   OH279036   5.594   2.618  17.038  0.4604  0.3698  0.5255
19182TIP3    H179037   5.502   2.601  17.018  0.4566  0.3474  0.5608
19182TIP3    H279038   5.591   2.685  17.107  0.4464 -0.3126  1.1960
19183TIP3   OH279039   3.231   1.291  15.453 -0.2777 -0.7444 -0.0208
19183TIP3    H179040   3.159   1.353  15.443  0.9603  1.4810  3.7293
19183TIP3    H279041   3.205   1.235  15.526  0.6645 -1.6796 -0.3813
19184TIP3   OH279042   3.876   3.502  15.244  0.1974 -0.6080  0.0924
19184TIP3    H179043   3.959   3.474  15.203 -0.2640  0.6165 -1.7333
19184TIP3    H279044   3.816   3.430  15.227  0.1743 -0.3619 -0.8929
19185TIP3   OH279045   0.313   2.146   1.715 -0.0778 -0.2501 -0.1633
19185TIP3    H179046   0.242   2.200   1.749  0.3053  0.0386  0.1852
19185TIP3    H279047   0.333   2.084   1.785  0.4807  0.1224  0.0077
19186TIP3   OH279048   4.247   0.968   0.801 -0.5050  0.0983  0.3215
19186TIP3    H179049   4.292   1.021   0.867 -1.0769 -0.7982  1.4488
19186TIP3    H279050   4.181   0.919   0.851 -1.0208 -0.4960 -0.9351
19187TIP3   OH279051   6.629   3.852   2.796 -0.9023  0.1393  0.3592
19187TIP3    H179052   6.548   3.840   2.845 -1.4928  0.2322 -0.5837
19187TIP3    H279053   6.639   3.771   2.745 -0.2224 -0.0159  0.7224
19188TIP3   OH279054   3.727   2.917  13.588 -0.2008  0.6016  0.1401
19188TIP3    H179055   3.699   2.995  13.636 -0.2169  0.1393  0.8942
19188TIP3    H279056   3.809   2.943  13.547  1.2211  0.1885  2.6251
19189TIP3   OH279057   6.160   4.723   2.738  0.1473 -0.1200  0.3944
19189TIP3    H179058   6.165   4.774   2.658  0.8897 -0.4952  0.1877
19189TIP3    H279059   6.188   4.783   2.807  0.3424 -0.0457  0.2511
19190TIP3   OH279060   5.817   6.783  16.852 -0.6547 -0.4999  0.1434
19190TIP3    H179061   5.753   6.808  16.920  0.6377  1.1941  0.7576
19190TIP3    H279062   5.848   6.866  16.817  1.0689 -1.3222 -0.2957
19191TIP3   OH279063   5.136   6.536   4.705  0.6535 -0.3227 -0.3946
19191TIP3    H179064   5.215   6.559   4.754  0.3211 -1.2512  0.6066
19191TIP3    H279065   5.064   6.566   4.761  0.2925  2.7459 -2.4155
19192TIP3   OH279066   1.770   4.828  10.850 -0.1181  0.3743  0.3890
19192TIP3    H179067   1.707   4.776  10.801 -1.7865  1.9308  0.8212
19192TIP3    H279068   1.815   4.880  10.784 -0.2658  0.2703  0.2052
19193TIP3   OH279069   5.247   5.967  12.840 -0.3187  0.0446 -0.2758
19193TIP3    H179070   5.215   5.951  12.752 -2.2574 -2.1136  0.7445
19193TIP3    H279071   5.175   5.941  12.897  0.4938  2.4146  1.9365
19194TIP3   OH279072   5.587   4.334  10.946  0.6215  0.1626  0.1682
19194TIP3    H179073   5.647   4.383  10.889 -0.4837  0.0765 -1.0917
19194TIP3    H279074   5.535   4.401  10.989  0.1546  0.1634 -0.3906
19195TIP3   OH279075   2.315   2.009   1.181  0.8316  0.4609  0.1244
19195TIP3    H179076   2.285   2.091   1.142  0.2530 -0.4083 -1.2878
19195TIP3    H279077   2.353   1.960   1.108  0.5494 -0.8078  0.8135
19196TIP3   OH279078   5.422   6.027  11.939  0.2134 -0.2006 -0.2770
19196TIP3    H179079   5.343   6.000  11.986  0.8364 -0.4900  0.6232
19196TIP3    H279080   5.433   5.961  11.871 -0.3837 -0.0926 -0.4821
19197TIP3   OH279081   3.467   6.204  17.204  0.1063 -0.1468 -0.1177
19197TIP3    H179082   3.536   6.256  17.163  1.4996 -0.4448  1.7750
19197TIP3    H279083   3.508   6.119  17.222 -0.9347 -0.5370  0.4810
19198TIP3   OH279084   1.269   4.361  12.535  0.0537 -0.8449 -0.7955
19198TIP3    H179085   1.245   4.441  12.488  0.4320 -0.3879 -0.2145
19198TIP3    H279086   1.188   4.310  12.538  0.0930 -1.0093 -2.1928
19199TIP3   OH279087   0.456   5.714   0.308 -0.0875 -0.3030 -0.5721
19199TIP3    H179088   0.482   5.798   0.273  0.6783 -0.8541 -1.3445
19199TIP3    H279089   0.362   5.722   0.324 -0.0378  0.6436 -0.7523
19200TIP3   OH279090   5.106   4.468   3.644  0.0520  0.4743  0.3134
19200TIP3    H179091   5.058   4.477   3.727  1.5154 -1.3161  1.3915
19200TIP3    H279092   5.075   4.541   3.591 -0.8507  1.7185  2.4709
19201TIP3   OH279093   1.858   4.428  15.362 -0.1105  0.0873  0.9188
19201TIP3    H179094   1.891   4.418  15.451 -1.0183  0.8454  1.3473
19201TIP3    H279095   1.853   4.522  15.348  4.0427  0.0911 -1.4648
19202TIP3   OH279096   0.766   1.769   6.426  0.7019 -0.7128  0.2714
19202TIP3    H179097   0.789   1.775   6.519  0.6818 -1.1543  0.3054
19202TIP3    H279098   0.850   1.772   6.380  0.7173 -0.5818  0.3069
19203TIP3   OH279099   4.027   0.607   2.401 -0.2005  0.1325  0.1975
19203TIP3    H179100   4.011   0.699   2.382 -1.1336 -0.2290 -0.8000
19203TIP3    H279101   3.990   0.560   2.327  1.4277 -0.9807  0.0535
19204TIP3   OH279102   1.129   1.063   2.356 -0.0522 -0.3669  0.0450
19204TIP3    H179103   1.208   1.094   2.312  0.9828 -1.8946  0.8008
19204TIP3    H279104   1.129   0.968   2.343 -1.6565 -0.4125  0.2331
19205TIP3   OH279105   6.716   1.771  17.283  0.2993 -0.1835 -0.4220
19205TIP3    H179106   6.653   1.818  17.228  0.1620 -0.3161 -0.3784
19205TIP3    H279107   6.731   1.829  17.357  0.5676  0.0434 -0.6568
19206TIP3   OH279108   3.715   0.035  11.756 -0.1122  0.0200 -0.2707
19206TIP3    H179109   3.627   0.073  11.753  0.0161  0.2327 -2.2351
19206TIP3    H279110   3.741   0.043  11.847 -1.2084  2.0977 -0.0965
19207TIP3   OH279111   0.508   6.036   1.669  0.1022 -0.7113  0.5990
19207TIP3    H179112   0.596   6.033   1.633 -0.5812 -1.8588 -0.9906
19207TIP3    H279113   0.466   5.956   1.639 -1.5014 -0.1761  1.3282
19208TIP3   OH279114   2.855   2.553  15.481  0.0698 -0.1163 -0.4323
19208TIP3    H179115   2.848   2.461  15.506  0.5482  0.3528  1.5085
19208TIP3    H279116   2.785   2.566  15.417 -1.9916 -1.0611  1.5881
19209TIP3   OH279117   4.917   4.500   2.967  0.2293 -0.3977  0.0949
19209TIP3    H179118   5.001   4.459   2.985  0.6809  1.2248  1.9036
19209TIP3    H279119   4.883   4.523   3.053 -1.0903  0.8840 -0.7443
19210TIP3   OH279120   2.653   5.442   2.568 -0.3231  0.6023  0.5073
19210TIP3    H179121   2.684   5.471   2.482  2.0581 -0.7892  0.8440
19210TIP3    H279122   2.694   5.503   2.630 -0.5381  0.4607  0.7897
19211TIP3   OH279123   4.932   6.108   0.721 -0.2699  0.5659  0.3058
19211TIP3    H179124   4.876   6.084   0.795  0.2893 -1.1092  0.2092
19211TIP3    H279125   5.016   6.131   0.760  0.1439 -0.6963  0.1777
19212TIP3   OH279126   0.784   0.285   3.119 -0.2290 -0.7160  0.6033
19212TIP3    H179127   0.844   0.338   3.171  0.4720  0.1868 -1.1182
19212TIP3    H279128   0.838   0.215   3.084  0.1153  0.8105 -1.9864
19213TIP3   OH279129   3.660   5.873  16.748  0.4516  0.6636 -0.5320
19213TIP3    H179130   3.624   5.822  16.820  0.2309  0.3424 -0.8683
19213TIP3    H279131   3.665   5.811  16.675  1.4409  0.7645 -0.5631
19214TIP3   OH279132   1.562   0.406  12.716 -0.0619 -0.7703  0.1192
19214TIP3    H179133   1.516   0.481  12.754  0.5938 -0.6587  0.7169
19214TIP3    H279134   1.640   0.444  12.677 -0.8272 -0.8661 -1.5388
19215TIP3   OH279135   3.049   2.236   1.712  0.2582 -0.4469 -0.1034
19215TIP3    H179136   3.044   2.168   1.779  0.5379 -2.8819 -2.5055
19215TIP3    H279137   3.108   2.201   1.646 -0.6930  1.5214 -2.0721
19216TIP3   OH279138   1.671   3.768  13.443  0.1749 -0.5129  0.3475
19216TIP3    H179139   1.737   3.717  13.395  0.6627 -1.4516  1.9800
19216TIP3    H279140   1.700   3.859  13.432  1.1860 -0.8398  0.2151
19217TIP3   OH279141   2.197   1.387   5.765  0.5714  0.0406  0.1796
19217TIP3    H179142   2.199   1.459   5.703 -2.1247  1.0519  1.1719
19217TIP3    H279143   2.196   1.308   5.711  0.3210  0.8422 -1.0091
19218TIP3   OH279144   3.625   5.827   0.196  0.1075  0.6865  0.3387
19218TIP3    H179145   3.631   5.918   0.223  1.6212  0.3674  1.1406
19218TIP3    H279146   3.531   5.809   0.193 -0.2242  2.5138 -0.7077
19219TIP3   OH279147   5.739   2.882   0.198 -0.3025  0.0977 -0.2991
19219TIP3    H179148   5.784   2.817   0.252  0.3528  0.8649  0.0858
19219TIP3    H279149   5.699   2.942   0.261  0.1841  0.8047 -0.6630
19220TIP3   OH279150   6.158   1.489  16.953  0.4873  0.1766  0.6920
19220TIP3    H179151   6.081   1.464  16.902 -0.1669 -0.6465  2.0412
19220TIP3    H279152   6.218   1.526  16.890 -0.8268  0.3599 -0.4694
19221TIP3   OH279153   0.976   0.812   2.388  0.4790 -0.6219 -0.1083
19221TIP3    H179154   0.952   0.782   2.476  0.3380  1.5974  0.6315
19221TIP3    H279155   0.900   0.789   2.334  1.4743 -4.0843 -0.1944
19222TIP3   OH279156   5.293   3.006  10.951 -0.0540 -0.1586  0.3405
19222TIP3    H179157   5.316   3.011  11.043  0.6716 -0.8390  0.2043
19222TIP3    H279158   5.364   3.052  10.906  0.4725 -1.2793  0.0015
19223TIP3   OH279159   0.479   6.613   0.445 -0.2039 -0.0232  0.2750
19223TIP3    H179160   0.512   6.600   0.534 -1.2180  0.5007  0.7355
19223TIP3    H279161   0.418   6.541   0.430 -0.2093  0.0203  0.0790
19224TIP3   OH279162   6.069   0.651   3.800  0.2192 -0.1217 -0.1474
19224TIP3    H179163   6.077   0.680   3.891 -0.5368  0.5383 -0.2888
19224TIP3    H279164   6.134   0.581   3.791 -0.2774 -0.7582  1.1272
19225TIP3   OH279165   2.379   5.569   2.593 -0.3737  0.1646  0.3806
19225TIP3    H179166   2.360   5.515   2.516 -1.5267 -0.7606  1.3119
19225TIP3    H279167   2.449   5.523   2.638  0.1877  0.6225 -0.0111
19226TIP3   OH279168   5.733   4.888   1.059  0.1141 -0.4601 -0.3047
19226TIP3    H179169   5.638   4.889   1.076 -0.1316 -0.7141 -1.6657
19226TIP3    H279170   5.768   4.828   1.125 -0.5584  0.2827  0.7542
19227TIP3   OH279171   5.207   2.112  14.998  0.4329  0.1718  0.2641
19227TIP3    H179172   5.279   2.124  15.060 -0.5566  1.6444  1.1494
19227TIP3    H279173   5.183   2.201  14.971 -0.8830 -0.3165 -0.2312
19228TIP3   OH279174   5.168   4.298  12.237  0.0663 -0.3809 -0.1314
19228TIP3    H179175   5.227   4.369  12.214 -1.3865  0.2410 -2.1675
19228TIP3    H279176   5.083   4.341  12.249 -0.6057 -1.6321 -0.3279
19229TIP3   OH279177   2.251   6.043  12.343 -0.5201  0.4640  0.3420
19229TIP3    H179178   2.334   6.007  12.372  0.2855  1.0413 -1.2041
19229TIP3    H279179   2.271   6.089  12.262 -2.3831  0.4074 -0.1896
19230TIP3   OH279180   1.473   3.191  12.866 -0.8030 -0.5619 -0.1842
19230TIP3    H179181   1.489   3.154  12.778  0.3533  0.3745 -0.3798
19230TIP3    H279182   1.557   3.182  12.910 -0.9396  0.4639  0.2832
19231TIP3   OH279183   6.628   2.682  13.426  0.1917 -0.6239 -0.2562
19231TIP3    H179184   6.592   2.613  13.483 -3.9060  0.4616 -1.3630
19231TIP3    H279185   6.592   2.663  13.340 -0.5694  2.5521 -0.7047
19232TIP3   OH279186   4.145   5.118  16.437 -0.0934  0.2014 -0.7793
19232TIP3    H179187   4.079   5.060  16.398 -0.3611  0.9010 -1.3853
19232TIP3    H279188   4.108   5.205  16.428  1.2564  0.6821 -1.8319
19233TIP3   OH279189   4.651   2.966  15.789 -0.4482 -0.9075 -0.0973
19233TIP3    H179190   4.738   2.927  15.780 -0.2434 -1.0233  2.1348
19233TIP3    H279191   4.594   2.893  15.812 -0.6667 -0.4210  0.9107
19234TIP3   OH279192   0.607   3.209   1.839 -0.0614 -0.3201 -0.0683
19234TIP3    H179193   0.683   3.185   1.786  0.4781  0.6358  0.2520
19234TIP3    H279194   0.537   3.223   1.776 -0.2629 -2.2334 -0.2938
19235TIP3   OH279195   1.460   2.454   3.833 -0.5111 -0.0563  0.2358
19235TIP3    H179196   1.543   2.410   3.853 -0.3638  0.0900 -0.0424
19235TIP3    H279197   1.437   2.421   3.746 -2.0527 -2.0482  1.3651
19236TIP3   OH279198   1.267   6.270  13.576 -0.0867  0.0241  0.0321
19236TIP3    H179199   1.183   6.315  13.573 -0.2620 -0.3566 -1.6384
19236TIP3    H279200   1.246   6.182  13.609  0.1396  0.8856  2.5400
19237TIP3   OH279201   2.194   3.154   2.449  0.5131 -0.4553 -0.6991
19237TIP3    H179202   2.153   3.097   2.514  0.7470 -0.5960 -0.6763
19237TIP3    H279203   2.202   3.239   2.492  0.4299 -0.4807 -0.6344
19238TIP3   OH279204   0.459   0.234   4.294 -0.0534 -0.0907  0.0301
19238TIP3    H179205   0.437   0.162   4.235  2.2975 -0.9171  0.1063
19238TIP3    H279206   0.552   0.251   4.279  0.0843  1.1093  1.9676
19239TIP3   OH279207   2.083   2.824  12.075 -0.2289 -0.2354 -0.3106
19239TIP3    H179208   2.000   2.776  12.073  0.9917 -2.3642 -1.2301
19239TIP3    H279209   2.090   2.855  12.165 -1.6979 -0.5869 -0.0520
19240TIP3   OH279210   1.278   1.918   5.604  0.5605  0.2294 -0.5943
19240TIP3    H179211   1.317   1.834   5.580  0.3799 -0.2320  0.7181
19240TIP3    H279212   1.284   1.922   5.699  2.6359  2.7179 -0.7759
19241TIP3   OH279213   5.119   0.665   1.522  0.3337  0.4189 -0.0079
19241TIP3    H179214   5.215   0.668   1.531  0.5010 -1.1112 -0.9925
19241TIP3    H279215   5.105   0.620   1.438 -1.2673 -1.5903  1.3012
19242TIP3   OH279216   6.642   0.795   3.710 -0.3421  0.0898 -0.1890
19242TIP3    H179217   6.672   0.728   3.649  1.1482  0.2107  0.3903
19242TIP3    H279218   6.620   0.870   3.654 -1.4203 -0.6595 -0.7831
19243TIP3   OH279219   1.331   6.181  16.952 -0.0984 -0.8289  0.3436
19243TIP3    H179220   1.297   6.225  16.875 -0.1343 -3.9964 -1.5249
19243TIP3    H279221   1.426   6.191  16.947 -0.2619  2.0177  1.8573
19244TIP3   OH279222   0.790   0.353   0.341 -0.5853  0.0080 -0.3141
19244TIP3    H179223   0.845   0.408   0.396 -3.0641  1.4158  0.8280
19244TIP3    H279224   0.774   0.405   0.263 -0.6620 -0.2252 -0.4537
19245TIP3   OH279225   0.503   6.778  15.413 -0.0567  0.5785  0.1679
19245TIP3    H179226   0.414   6.810  15.428 -0.7406 -0.8266 -0.8212
19245TIP3    H279227   0.492   6.692  15.373  1.7529  0.2869  0.2283
19246TIP3   OH279228   0.167   5.271  11.187 -0.0158  0.3686 -0.1720
19246TIP3    H179229   0.086   5.220  11.179 -1.3656  2.6015 -1.1892
19246TIP3    H279230   0.166   5.304  11.276 -0.0981  0.1907 -0.1055
19247TIP3   OH279231   2.416   5.920  13.551  0.4109 -0.4450  0.2372
19247TIP3    H179232   2.504   5.933  13.584  1.6680 -1.6425 -2.4584
19247TIP3    H279233   2.427   5.863  13.475 -2.7014 -0.7533 -0.0573
19248TIP3   OH279234   3.108   5.869   4.098 -0.3123 -0.3774 -0.2249
19248TIP3    H179235   3.054   5.901   4.170  0.5081  0.8849 -0.1566
19248TIP3    H279236   3.198   5.889   4.125  0.0977 -1.1354 -0.9877
19249TIP3   OH279237   2.272   0.615  16.822 -0.1576  0.5140  0.4618
19249TIP3    H179238   2.195   0.657  16.783  0.2211 -0.0686 -0.9461
19249TIP3    H279239   2.271   0.643  16.914 -0.5674  2.6528 -0.1634
19250TIP3   OH279240   6.484   2.872   6.296 -0.0983  0.3096  0.6163
19250TIP3    H179241   6.522   2.953   6.262  0.2293 -0.4372 -0.8327
19250TIP3    H279242   6.559   2.821   6.327  0.0212 -0.7952 -1.4409
19251TIP3   OH279243   2.424   2.261   3.246  0.1031  0.1178 -0.0374
19251TIP3    H179244   2.417   2.349   3.208  0.2815  0.7262  1.3042
19251TIP3    H279245   2.356   2.210   3.202  0.4883  0.7210 -1.3687
19252TIP3   OH279246   4.694   1.113   6.215 -0.2292 -0.1178 -0.2620
19252TIP3    H179247   4.610   1.159   6.212  0.6122  1.4766 -0.1419
19252TIP3    H279248   4.706   1.091   6.307 -0.2672  0.1301 -0.1970
19253TIP3   OH279249   1.626   2.241  12.487  0.5645  0.0758  0.8487
19253TIP3    H179250   1.634   2.310  12.421  0.0680  0.0696  0.7800
19253TIP3    H279251   1.708   2.246  12.536  0.1146  1.3771  1.4817
19254TIP3   OH279252   4.530   4.336  11.943  0.0344 -0.7832  0.0359
19254TIP3    H179253   4.592   4.269  11.971  1.0748 -0.5699 -1.6755
19254TIP3    H279254   4.572   4.419  11.966  0.8502 -0.6107 -2.0049
19255TIP3   OH279255   3.786   2.384  12.024  0.3911 -0.0190  0.4330
19255TIP3    H179256   3.867   2.373  11.974 -1.1088  2.5228 -2.7144
19255TIP3    H279257   3.779   2.478  12.037 -2.5998 -0.0918 -0.3766
19256TIP3   OH279258   3.026   5.399   2.620  0.0315 -0.4411 -0.5509
19256TIP3    H179259   2.955   5.350   2.663  0.0750  0.3528  0.4302
19256TIP3    H279260   3.077   5.435   2.691  0.5916  0.2051 -1.2712
19257TIP3   OH279261   5.147   3.477  16.404  0.2401  0.2484  0.2504
19257TIP3    H179262   5.063   3.448  16.366  0.1187 -0.5280  1.0899
19257TIP3    H279263   5.190   3.524  16.333  0.1405 -1.4196 -0.9593
19258TIP3   OH279264   2.774   3.595  13.375 -0.5515  0.0926  0.9118
19258TIP3    H179265   2.794   3.683  13.343  0.2309  0.0951  1.3869
19258TIP3    H279266   2.739   3.549  13.299  0.8983  0.2148  0.1435
19259TIP3   OH279267   0.291   2.105   2.110  0.1934  0.1739  0.4322
19259TIP3    H179268   0.311   2.198   2.103 -0.3537  0.2435 -0.1762
19259TIP3    H279269   0.197   2.102   2.127 -0.5344 -0.3919 -3.2634
19260TIP3   OH279270   0.448   3.934   0.345  0.2007  0.5325  0.2888
19260TIP3    H179271   0.427   3.858   0.291 -0.2534  0.3746  0.6790
19260TIP3    H279272   0.535   3.917   0.379  0.1643  0.2594  0.2445
19261TIP3   OH279273   5.239   3.684   2.897 -0.0032 -0.2759 -0.4509
19261TIP3    H179274   5.179   3.735   2.951  1.0359  1.4387 -0.8685
19261TIP3    H279275   5.314   3.667   2.954 -0.0391 -0.7324 -0.5376
19262TIP3   OH279276   2.303   5.205  10.786 -0.0765  0.2527  0.7145
19262TIP3    H179277   2.256   5.131  10.824 -0.6226  0.9469  1.4022
19262TIP3    H279278   2.284   5.278  10.845  0.0488  1.0613 -0.2414
19263TIP3   OH279279   3.210   3.536   5.396  0.4015 -0.5451  0.6665
19263TIP3    H179280   3.208   3.485   5.315  0.4896  0.9483 -0.2879
19263TIP3    H279281   3.297   3.576   5.396 -0.1299  0.6101  0.7782
19264TIP3   OH279282   2.314   4.890  15.806 -0.1105 -0.8706  0.0381
19264TIP3    H179283   2.365   4.810  15.818  0.7166 -0.8046 -2.5916
19264TIP3    H279284   2.339   4.947  15.879  0.9438 -2.1700  0.7083
19265TIP3   OH279285   1.421   5.032   5.884  0.4754 -0.3969 -0.7706
19265TIP3    H179286   1.473   5.112   5.874  2.1803 -1.4349 -0.3940
19265TIP3    H279287   1.466   4.983   5.953 -0.4607 -1.7581 -1.1074
19266TIP3   OH279288   5.610   3.668  17.203  0.5947  0.2816 -0.2434
19266TIP3    H179289   5.701   3.690  17.183  1.1423 -0.6895  1.0802
19266TIP3    H279290   5.609   3.572  17.204 -0.4993  0.2872 -0.5050
19267TIP3   OH279291   2.925   5.358  12.617 -0.1768  0.2898 -0.2516
19267TIP3    H179292   2.960   5.379  12.703  1.5621 -0.8529 -0.6715
19267TIP3    H279293   2.855   5.423  12.604 -0.4643  0.4794  1.9884
19268TIP3   OH279294   5.317   0.337  14.819 -0.6304  0.3189  0.0444
19268TIP3    H179295   5.280   0.301  14.899 -2.4338  2.4822  0.2364
19268TIP3    H279296   5.386   0.396  14.848 -0.9262  0.6966 -0.0169
19269TIP3   OH279297   5.085   1.495   3.545  0.0616  0.1258 -0.7868
19269TIP3    H179298   5.074   1.578   3.590  3.9719  0.5408 -0.4140
19269TIP3    H279299   5.044   1.508   3.460  2.0612  3.0512 -1.3655
19270TIP3   OH279300   4.879   6.431  15.480  0.0327  0.1012 -0.0736
19270TIP3    H179301   4.816   6.379  15.430  0.0713  0.0461 -0.0657
19270TIP3    H279302   4.953   6.371  15.495 -0.2404 -0.0739  0.5772
19271TIP3   OH279303   6.129   0.865   0.780  0.5255  0.0805 -0.3784
19271TIP3    H179304   6.055   0.852   0.722 -1.2112 -0.9685  1.9779
19271TIP3    H279305   6.205   0.872   0.722 -0.8940 -2.7372 -2.6552
19272TIP3   OH279306   5.757   3.739   0.860 -0.1762  0.2862 -0.0597
19272TIP3    H179307   5.766   3.691   0.943  0.1255 -0.5180 -0.5479
19272TIP3    H279308   5.672   3.711   0.826 -0.7682  1.4030  0.4650
19273TIP3   OH279309   2.941   5.364  14.753  0.3458 -0.9245 -0.5933
19273TIP3    H179310   2.952   5.279  14.796 -0.7963 -2.4733 -3.2457
19273TIP3    H279311   2.975   5.351  14.664  1.4863  1.8177 -0.6024
19274TIP3   OH279312   6.175   5.440   1.175 -0.3755  0.7245 -0.6130
19274TIP3    H179313   6.233   5.407   1.106 -0.6284  0.6961 -0.8173
19274TIP3    H279314   6.152   5.362   1.226 -1.4973  0.4483 -1.4904
19275TIP3   OH279315   1.429   5.073   3.500  0.0114 -0.2036 -0.9038
19275TIP3    H179316   1.505   5.046   3.449  2.2693 -0.6880  2.5372
19275TIP3    H279317   1.452   5.159   3.535 -0.9466 -0.3961  0.2590
19276TIP3   OH279318   2.547   1.594   4.856 -0.0643  0.4914  0.1353
19276TIP3    H179319   2.603   1.598   4.934 -1.8372  2.5812  1.3932
19276TIP3    H279320   2.585   1.658   4.796 -0.4726  1.1874  0.5961
19277TIP3   OH279321   4.678   6.424   5.821  0.4389  0.4429  0.3842
19277TIP3    H179322   4.737   6.349   5.814 -0.1482  0.1631 -2.0364
19277TIP3    H279323   4.633   6.427   5.737 -2.5012  1.0832  1.9093
19278TIP3   OH279324   3.614   3.851   0.986  0.5663  0.1055 -0.2025
19278TIP3    H179325   3.702   3.814   0.976  0.6781 -0.2173  1.7439
19278TIP3    H279326   3.575   3.845   0.899  2.4653  0.2524 -1.0937
19279TIP3   OH279327   0.902   1.338   0.847  0.2309  0.4810  0.2080
19279TIP3    H179328   0.943   1.261   0.807 -1.3568  0.3580 -1.2342
19279TIP3    H279329   0.808   1.320   0.843 -0.0088  0.0411  4.8747
19280TIP3   OH279330   3.798   4.248  13.747 -0.7084 -0.0347 -0.4113
19280TIP3    H179331   3.771   4.298  13.670  0.4285  1.0884 -0.1012
19280TIP3    H279332   3.823   4.315  13.812 -0.1596 -0.9832  0.3743
19281TIP3   OH279333   0.508   5.371  13.167 -0.3416 -0.2586 -0.3758
19281TIP3    H179334   0.414   5.358  13.180 -0.5137  0.8094 -0.5354
19281TIP3    H279335   0.548   5.299  13.216 -1.1888  0.1830  1.0267
19282TIP3   OH279336   6.070   4.962   5.693  0.4211 -0.0102 -0.0600
19282TIP3    H179337   6.131   4.897   5.729  0.2086  0.1546  0.6008
19282TIP3    H279338   6.000   4.967   5.758  0.8965  1.5618  0.3464
19283TIP3   OH279339   3.916   4.381   0.103  0.6105 -0.1997  0.7851
19283TIP3    H179340   3.916   4.289   0.075 -0.7240 -0.7874  2.6388
19283TIP3    H279341   3.832   4.415   0.074  0.5100  0.0403  1.3560
19284TIP3   OH279342   5.046   0.264   1.036  0.2627 -0.6125 -0.1285
19284TIP3    H179343   5.044   0.319   1.114  0.1162  0.4359 -0.8688
19284TIP3    H279344   5.121   0.207   1.049  0.9655  0.3845  0.2179
19285TIP3   OH279345   0.735   2.972  16.992  0.1361  0.5935  0.5393
19285TIP3    H179346   0.816   3.019  16.973  0.3068  0.0327 -0.1803
19285TIP3    H279347   0.737   2.956  17.086  1.0307  0.2753  0.4688
19286TIP3   OH279348   4.862   2.589  10.994  0.0546  0.7522 -0.4622
19286TIP3    H179349   4.858   2.650  10.921 -1.8764  2.5465  1.0837
19286TIP3    H279350   4.833   2.505  10.956 -0.1350  1.4668 -1.9376
19287TIP3   OH279351   3.424   2.229  15.298  0.1240 -0.1519 -0.1764
19287TIP3    H179352   3.499   2.175  15.272 -0.0760 -0.4889 -0.0578
19287TIP3    H279353   3.402   2.199  15.386  0.1067  0.2283 -0.0515
19288TIP3   OH279354   4.603   3.321  10.959 -0.3352 -0.0628  0.0584
19288TIP3    H179355   4.665   3.290  10.894 -0.5578 -1.5990  0.5506
19288TIP3    H279356   4.650   3.389  11.007  0.6661 -0.6195 -0.1278
19289TIP3   OH279357   2.113   4.507   5.313 -0.3591 -0.4947  0.2118
19289TIP3    H179358   2.092   4.561   5.237 -0.8322 -0.5321  0.3131
19289TIP3    H279359   2.034   4.455   5.328 -1.1707  1.2032  2.1618
19290TIP3   OH279360   6.517   0.474   1.984 -0.1204 -0.2107 -0.5438
19290TIP3    H179361   6.497   0.390   1.942 -1.3278  1.0080 -2.4791
19290TIP3    H279362   6.487   0.463   2.074  1.2894 -2.4244 -0.3232
19291TIP3   OH279363   4.883   0.357   0.830  0.2579 -0.0308  0.3089
19291TIP3    H179364   4.959   0.322   0.878  1.0473  0.8694 -0.2668
19291TIP3    H279365   4.894   0.325   0.741 -0.4594 -0.5310  0.3960
19292TIP3   OH279366   2.929   1.436  11.083  0.4076  0.3754 -0.0462
19292TIP3    H179367   2.903   1.378  11.154 -1.7097 -0.9774 -1.8376
19292TIP3    H279368   2.846   1.466  11.045  1.4455 -0.0231 -2.7646
19293TIP3   OH279369   5.723   5.290  12.595 -0.6547 -0.0754  0.7084
19293TIP3    H179370   5.658   5.321  12.531 -4.0688 -3.9484  2.0506
19293TIP3    H279371   5.736   5.198  12.572  2.2583 -0.0779  2.2539
19294TIP3   OH279372   2.431   6.077  12.565 -0.3621  0.2436 -0.2457
19294TIP3    H179373   2.497   6.137  12.530  0.7808 -0.8899 -0.0659
19294TIP3    H279374   2.347   6.115  12.537  0.3822  1.3605 -1.0123
19295TIP3   OH279375   6.093   2.325  16.584  0.4601 -0.3143  0.1622
19295TIP3    H179376   6.018   2.333  16.524 -1.6253 -0.7623  2.6327
19295TIP3    H279377   6.084   2.398  16.644  2.7972  0.3868 -0.2865
19296TIP3   OH279378   2.933   0.117  15.908 -0.0965  0.1344 -0.4995
19296TIP3    H179379   2.855   0.062  15.915 -0.4626  0.5255 -1.4122
19296TIP3    H279380   2.898   0.206  15.900  0.4961  0.5930  1.7372
19297TIP3   OH279381   4.276   3.679   5.505 -0.0086 -0.1974  0.1879
19297TIP3    H179382   4.328   3.695   5.583 -1.5567  0.7253  1.0651
19297TIP3    H279383   4.337   3.639   5.443  1.4756 -0.0484  1.5158
19298TIP3   OH279384   6.791   0.136   1.006 -0.3304 -0.1202  0.5890
19298TIP3    H179385   6.795   0.203   0.938 -0.8652 -1.6593 -1.0173
19298TIP3    H279386   6.698   0.116   1.014 -0.2922  0.2545  1.9887
19299TIP3   OH279387   2.904   2.073   4.452 -0.4656 -0.2262 -0.4579
19299TIP3    H179388   2.894   2.064   4.357 -1.4345  1.3490 -0.5255
19299TIP3    H279389   2.847   2.146   4.475 -0.1747 -0.5432  1.3370
19300TIP3   OH279390   2.371   0.647  11.697 -0.4065 -0.1786 -0.0381
19300TIP3    H179391   2.421   0.717  11.737 -0.0710  0.9286 -2.3108
19300TIP3    H279392   2.431   0.573  11.692 -0.0552  0.0873  0.2861
19301TIP3   OH279393   0.287   4.081   1.245 -0.1287  0.4013  0.1019
19301TIP3    H179394   0.366   4.059   1.195 -0.9384 -0.8364 -0.6602
19301TIP3    H279395   0.272   4.174   1.227 -0.6682 -0.1243 -2.3866
19302TIP3   OH279396   5.558   1.729   2.052 -0.8813 -0.4290 -0.1002
19302TIP3    H179397   5.548   1.816   2.013 -0.3166  0.0456  0.8066
19302TIP3    H279398   5.505   1.733   2.132  2.4792  0.4972  2.1884
19303TIP3   OH279399   3.749   1.413   4.481  0.0694 -0.0506 -0.7414
19303TIP3    H179400   3.749   1.491   4.537  0.9412 -0.7288  0.2196
19303TIP3    H279401   3.779   1.445   4.396  1.0005  0.5587 -0.1948
19304TIP3   OH279402   2.536   5.007  14.631 -0.1990 -0.5622 -0.0754
19304TIP3    H179403   2.624   5.012  14.594 -0.1059  1.1666  0.3348
19304TIP3    H279404   2.542   5.052  14.715 -1.8769  1.3034 -0.8871
19305TIP3   OH279405   6.581   5.793  17.043 -0.2371 -0.2878  0.3144
19305TIP3    H179406   6.524   5.717  17.057  0.6628 -0.9485  0.4683
19305TIP3    H279407   6.521   5.867  17.036 -1.1652 -1.0843 -0.3389
19306TIP3   OH279408   5.249   3.285   4.994 -0.6548  0.3394 -0.1699
19306TIP3    H179409   5.296   3.321   5.069  0.6142  0.0415 -0.8123
19306TIP3    H279410   5.186   3.354   4.970  0.2657  1.2446 -0.0405
19307TIP3   OH279411   1.076   2.904  11.339 -0.0278 -0.5556  0.4110
19307TIP3    H179412   1.057   2.811  11.351 -1.0304 -0.3909  0.1266
19307TIP3    H279413   1.055   2.921  11.247 -2.1982  0.4855  1.0553
19308TIP3   OH279414   5.124   6.319  11.454 -0.5369 -0.1759 -0.4745
19308TIP3    H179415   5.040   6.280  11.432 -0.5348 -0.1523 -0.5234
19308TIP3    H279416   5.159   6.264  11.525 -1.1424  0.5200  0.3764
19309TIP3   OH279417   6.678   2.565   3.268 -0.2833 -0.3256 -0.4582
19309TIP3    H179418   6.600   2.522   3.303 -1.3327  0.0187 -2.3050
19309TIP3    H279419   6.690   2.643   3.323 -0.0411 -1.4443  1.0955
19310TIP3   OH279420   3.904   1.813   1.756 -0.5202  0.1849 -0.5185
19310TIP3    H179421   3.829   1.841   1.808  0.9359 -0.6022  2.1351
19310TIP3    H279422   3.930   1.729   1.795  1.9288  0.6244 -1.1378
19311TIP3   OH279423   1.498   5.131   4.052 -0.0411 -0.6372 -0.2986
19311TIP3    H179424   1.554   5.204   4.079  0.9250 -0.9294 -1.4561
19311TIP3    H279425   1.558   5.056   4.045 -0.8646 -1.3358 -0.0022
19312TIP3   OH279426   1.981   4.735   5.370  0.4785  0.3115  0.2927
19312TIP3    H179427   2.000   4.661   5.312  0.5575  1.6188 -1.3750
19312TIP3    H279428   1.897   4.769   5.338  1.2066  1.9061  0.0625
19313TIP3   OH279429   4.600   4.649   2.904 -0.2530 -0.2216  0.5075
19313TIP3    H179430   4.587   4.599   2.985 -0.7805 -0.3758  0.3342
19313TIP3    H279431   4.521   4.704   2.898 -1.1997 -1.7055 -0.9666
19314TIP3   OH279432   6.743   1.280   3.286 -0.3629  0.9351 -0.3389
19314TIP3    H179433   6.825   1.302   3.242 -0.7866  1.2686 -0.9768
19314TIP3    H279434   6.680   1.270   3.215 -0.5848 -0.6338  0.0445
19315TIP3   OH279435   1.534   6.244   2.822  0.1777  0.0813  0.7410
19315TIP3    H179436   1.474   6.274   2.753  0.8146  0.7009  0.4472
19315TIP3    H279437   1.620   6.277   2.795  0.7237 -1.1664  0.9461
19316TIP3   OH279438   4.457   3.427  14.047  0.1488 -0.1827 -0.2341
19316TIP3    H179439   4.503   3.474  13.977 -3.3176  0.5236 -2.2045
19316TIP3    H279440   4.396   3.369  14.000 -2.6241  0.6755  2.1355
19317TIP3   OH279441   6.113   3.677   6.252 -0.1861 -0.2978  0.6103
19317TIP3    H179442   6.118   3.752   6.311 -1.5588  0.2106  0.1051
19317TIP3    H279443   6.129   3.601   6.308 -0.0866  0.2803  1.3738
19318TIP3   OH279444   4.252   3.117  10.793 -0.2474  0.3119 -0.5139
19318TIP3    H179445   4.301   3.045  10.832  0.4749  0.5482 -0.9853
19318TIP3    H279446   4.184   3.074  10.741  1.2950 -0.0675 -2.2395
19319TIP3   OH279447   1.705   2.460  16.035  0.4299  0.0482  0.0237
19319TIP3    H179448   1.665   2.391  15.983  0.0818  0.9562 -0.9397
19319TIP3    H279449   1.783   2.485  15.986 -0.0369  1.0848 -0.2044
19320TIP3   OH279450   1.001   0.874   5.452 -0.5888  0.2410 -0.3301
19320TIP3    H179451   1.013   0.789   5.495 -1.8370 -0.2554 -0.9182
19320TIP3    H279452   0.956   0.928   5.516  0.1590  0.4425  0.0266
19321TIP3   OH279453   5.538   1.521  16.646 -0.5024 -0.2429  0.2488
19321TIP3    H179454   5.451   1.507  16.682 -0.1282  1.5212  1.8985
19321TIP3    H279455   5.592   1.547  16.721  1.3323 -0.8334 -0.8259
19322TIP3   OH279456   2.840   0.057  11.495 -0.3778 -0.3456  0.3137
19322TIP3    H179457   2.807  -0.033  11.488 -0.8271 -0.2913  1.5583
19322TIP3    H279458   2.931   0.048  11.523 -0.2212 -0.4232 -0.2124
19323TIP3   OH279459   5.984   4.287  12.983 -0.3008 -0.2341  0.1970
19323TIP3    H179460   6.018   4.376  12.986 -1.1251  0.2119 -2.6563
19323TIP3    H279461   6.060   4.232  13.003  1.1530  0.9416 -1.8997
19324TIP3   OH279462   0.977   0.491   4.317  0.4519  0.4668 -0.3388
19324TIP3    H179463   1.058   0.533   4.290  0.9403  0.0493  0.4637
19324TIP3    H279464   0.946   0.543   4.391  1.8532 -1.4089  1.6589
19325TIP3   OH279465   5.944   2.443   5.075  0.5188 -0.0490  0.6444
19325TIP3    H179466   5.870   2.417   5.130 -1.0651  0.4835 -1.1728
19325TIP3    H279467   5.997   2.500   5.131 -0.5893 -0.2259  1.8880
19326TIP3   OH279468   2.746   2.827  13.779  0.0040  0.1370  0.0424
19326TIP3    H179469   2.710   2.744  13.750 -0.4058 -0.2538  1.6301
19326TIP3    H279470   2.696   2.849  13.858  2.1895  0.3337  1.4121
19327TIP3   OH279471   0.140   4.898   4.093  0.2551 -0.0577  0.3031
19327TIP3    H179472   0.216   4.845   4.115 -0.3528 -1.7701 -1.6153
19327TIP3    H279473   0.067   4.855   4.139  0.2330  0.9029  1.1942
19328TIP3   OH279474   1.465   5.617  14.033  0.4840 -0.2497 -0.0784
19328TIP3    H179475   1.491   5.605  14.124  1.9287  0.3601 -0.4023
19328TIP3    H279476   1.404   5.545  14.016  0.8206 -0.8335  1.1280
19329TIP3   OH279477   4.451   5.911  16.441  0.4006  0.4150 -0.7733
19329TIP3    H179478   4.450   5.994  16.392  1.7773  0.6706 -0.4087
19329TIP3    H279479   4.536   5.911  16.485  0.1075 -0.8642 -0.1847
19330TIP3   OH279480   1.756   6.806  11.586 -0.2863 -0.4793 -0.2977
19330TIP3    H179481   1.692   6.752  11.634 -1.7330  2.1975  0.8770
19330TIP3    H279482   1.703   6.862  11.530  1.0505  1.5136  0.4051
19331TIP3   OH279483   6.733   4.104  13.225 -0.1460 -0.0753  0.2500
19331TIP3    H179484   6.697   4.040  13.287  0.5501  0.1644  0.9182
19331TIP3    H279485   6.665   4.172  13.218 -0.8847 -0.8819 -0.4647
19332TIP3   OH279486   3.415   6.556  10.468 -0.6495 -0.2842 -0.4510
19332TIP3    H179487   3.338   6.564  10.524 -0.5888  0.6062 -0.4927
19332TIP3    H279488   3.439   6.646  10.446  1.1145 -0.4820  0.5319
19333TIP3   OH279489   1.531   1.983  16.910 -0.2676  0.2458 -0.5911
19333TIP3    H179490   1.495   1.896  16.925 -1.8576  0.8443 -0.8380
19333TIP3    H279491   1.605   1.969  16.850  1.1110 -1.2106  1.3631
19334TIP3   OH279492   5.148   2.050  13.809 -0.2113  0.3063  0.3886
19334TIP3    H179493   5.064   2.012  13.783 -1.2068  2.3153  0.5894
19334TIP3    H279494   5.142   2.142  13.784  1.8044  0.5519  0.7253
19335TIP3   OH279495   3.978   2.744  14.770 -0.0413 -0.1046 -0.4499
19335TIP3    H179496   4.018   2.807  14.830  0.3935  0.2590 -1.1208
19335TIP3    H279497   3.931   2.798  14.706 -0.3090 -0.4837 -0.5746
19336TIP3   OH279498   0.299   3.315  17.127  0.2181  0.8731  0.2494
19336TIP3    H179499   0.205   3.331  17.134  0.2144  0.6778  0.6751
19336TIP3    H279500   0.328   3.304  17.217  0.9408  2.5242  0.2356
19337TIP3   OH279501   0.526   2.225  11.988 -0.2546 -0.2405  0.2241
19337TIP3    H179502   0.521   2.142  12.035 -2.2977 -0.3694 -0.1880
19337TIP3    H279503   0.620   2.239  11.975  0.3405 -0.4406  3.8575
19338TIP3   OH279504   0.692   6.356  13.583  0.1236 -0.5370 -0.2093
19338TIP3    H179505   0.661   6.318  13.501 -0.8055 -1.0620  0.3674
19338TIP3    H279506   0.685   6.285  13.646  1.9087 -0.4615  0.0877
19339TIP3   OH279507   1.398   3.844  11.921 -0.3652 -0.2044  0.3646
19339TIP3    H179508   1.352   3.776  11.970  0.3999 -1.1595 -0.2355
19339TIP3    H279509   1.478   3.802  11.891 -0.3321  0.6915 -0.8233
19340TIP3   OH279510   0.401   4.427  10.892 -0.4537 -0.3615  0.9280
19340TIP3    H179511   0.409   4.386  10.979  0.6683  0.9500  1.4573
19340TIP3    H279512   0.488   4.462  10.874 -0.6508 -0.7230 -0.7974
19341TIP3   OH279513   3.602   0.303   4.125 -0.4162  0.6053  0.5167
19341TIP3    H179514   3.528   0.351   4.088 -0.6795  1.6709  2.3735
19341TIP3    H279515   3.674   0.366   4.126 -0.0939  0.2375  0.7774
19342TIP3   OH279516   2.601   1.071   6.297 -0.3685 -0.0503 -1.0566
19342TIP3    H179517   2.679   1.015   6.297  0.3235  0.6687 -6.0975
19342TIP3    H279518   2.528   1.010   6.281 -0.2882 -0.2018 -0.8438
19343TIP3   OH279519   6.091   0.713   4.074  0.3551 -0.1644  0.2906
19343TIP3    H179520   6.024   0.758   4.126 -0.5439 -1.0431 -0.0919
19343TIP3    H279521   6.072   0.620   4.085  0.2320 -0.3708 -1.5074
19344TIP3   OH279522   5.854   2.064  12.940 -0.0958  0.4745  0.8018
19344TIP3    H179523   5.822   2.059  12.850  2.0560  0.6060 -0.0041
19344TIP3    H279524   5.902   1.983  12.952  0.9611  1.1667  1.2922
19345TIP3   OH279525   0.122   6.134   3.212  0.8730  0.5954 -0.4752
19345TIP3    H179526   0.153   6.043   3.205  0.1936  0.3098  0.2019
19345TIP3    H279527   0.053   6.141   3.147  0.1965  0.3096  0.1965
19346TIP3   OH279528   0.223   5.223   5.651 -0.7142  0.3276 -0.0403
19346TIP3    H179529   0.302   5.269   5.678 -0.6414  0.7767 -0.9913
19346TIP3    H279530   0.158   5.293   5.638 -1.0337  0.0353 -0.0171
19347TIP3   OH279531   1.557   0.131   0.529 -0.2621 -0.4136  0.0511
19347TIP3    H179532   1.579   0.041   0.553  0.0273 -0.5024 -0.5389
19347TIP3    H279533   1.555   0.131   0.433  0.6349  0.4246  0.0294
19348TIP3   OH279534   1.391   5.660  11.356 -0.1938  1.0074 -0.0182
19348TIP3    H179535   1.362   5.575  11.324 -1.6670  1.3234  0.4329
19348TIP3    H279536   1.328   5.722  11.319  0.0003  1.7298  0.8462
19349TIP3   OH279537   2.657   5.110  12.278 -0.2062  0.6352  0.2663
19349TIP3    H179538   2.615   5.033  12.240  0.6813  0.4989 -0.4353
19349TIP3    H279539   2.677   5.167  12.204 -0.5561  1.4059  0.7467
19350TIP3   OH279540   2.744   6.379  16.341  0.0488  0.0151  0.0471
19350TIP3    H179541   2.694   6.424  16.409  0.3121 -0.3440  0.4817
19350TIP3    H279542   2.678   6.339  16.284 -0.1567 -1.6432  1.4095
19351TIP3   OH279543   2.918   1.752   2.817 -0.0308  0.2786 -0.1487
19351TIP3    H179544   2.833   1.796   2.818  0.7395  1.7970 -0.1248
19351TIP3    H279545   2.946   1.754   2.909 -1.0698 -2.4793  0.3047
19352TIP3   OH279546   4.584   4.735  10.307 -0.2513  0.3878 -0.2186
19352TIP3    H179547   4.560   4.713  10.217  0.5149  0.5942 -0.4798
19352TIP3    H279548   4.502   4.730  10.356 -0.4601 -0.9435 -0.6860
19353TIP3   OH279549   6.019   6.614   1.920 -0.8065  0.2154  0.0172
19353TIP3    H179550   5.930   6.622   1.954 -0.2524  0.0277  1.5567
19353TIP3    H279551   6.068   6.682   1.966  0.1211 -0.5224  0.1270
19354TIP3   OH279552   6.735   2.293  14.116  0.4736 -0.4857  0.0298
19354TIP3    H179553   6.735   2.348  14.038 -1.3334 -0.8452 -0.2468
19354TIP3    H279554   6.827   2.284  14.139  0.8172  2.3805 -0.0813
19355TIP3   OH279555   1.097   1.523   0.561  0.6981 -0.0745 -1.1355
19355TIP3    H179556   1.039   1.460   0.519 -0.6286 -0.5541  1.3358
19355TIP3    H279557   1.093   1.501   0.654  1.1838  2.8552 -0.3728
19356TIP3   OH279558   2.300   6.245  13.818  0.1213 -0.7674  0.4560
19356TIP3    H179559   2.335   6.175  13.763  1.0314 -0.8584  1.1594
19356TIP3    H279560   2.376   6.283  13.861 -0.6376 -1.0555  2.0916
19357TIP3   OH279561   4.427   0.685   1.036 -0.3371 -0.0730  0.4186
19357TIP3    H179562   4.382   0.636   1.106 -2.4766  0.3277 -0.6320
19357TIP3    H279563   4.485   0.620   0.995  0.0685 -0.6070  1.8052
19358TIP3   OH279564   2.252   3.513  14.703 -0.2716 -0.1755 -0.4582
19358TIP3    H179565   2.317   3.460  14.657 -1.0209 -0.2907 -1.3946
19358TIP3    H279566   2.303   3.582  14.745  0.9190 -2.6258  2.2419
19359TIP3   OH279567   3.625   5.221  11.620 -0.1667 -0.2546  0.0077
19359TIP3    H179568   3.539   5.236  11.660 -1.0112 -0.0717 -1.8325
19359TIP3    H279569   3.679   5.293  11.653 -0.8398 -0.1059  0.8131
19360TIP3   OH279570   0.971   3.602  12.658 -0.3019 -0.5680 -0.1841
19360TIP3    H179571   0.895   3.618  12.602 -0.2199 -0.5354 -0.2872
19360TIP3    H279572   0.946   3.526  12.710 -0.1975 -0.8994 -0.6058
19361TIP3   OH279573   6.239   5.457   4.689 -0.4571  0.2612 -0.2744
19361TIP3    H179574   6.185   5.502   4.754 -0.3489  0.0479 -0.0360
19361TIP3    H279575   6.329   5.473   4.718 -0.3847  0.6976 -0.7233
19362TIP3   OH279576   6.019   2.428   1.503 -0.3138 -0.0524  0.5720
19362TIP3    H179577   6.035   2.371   1.578  0.8850 -1.6125 -0.8166
19362TIP3    H279578   6.096   2.417   1.448 -1.8292 -0.0974 -1.6005
19363TIP3   OH279579   6.064   2.019  16.100  0.0788  0.1516 -0.1401
19363TIP3    H179580   6.022   1.934  16.116 -1.3408  0.6894 -0.9695
19363TIP3    H279581   6.155   2.005  16.128 -0.7776 -0.8000  2.3629
19364TIP3   OH279582   1.935   1.283   3.939  0.5001 -0.2881  0.7768
19364TIP3    H179583   1.878   1.231   3.995  0.1634 -0.5797  0.1777
19364TIP3    H279584   1.901   1.268   3.850  0.8769  0.3440  0.5194
19365TIP3   OH279585   4.057   3.428  12.240 -0.0156  0.6682  0.0465
19365TIP3    H179586   4.117   3.501  12.222  0.3308  0.2053 -0.6922
19365TIP3    H279587   4.113   3.351  12.243 -0.5587  0.2528 -0.4733
19366TIP3   OH279588   1.526   4.802   1.770  0.2916  0.5560  0.7126
19366TIP3    H179589   1.490   4.889   1.788  1.0708  0.6511  1.7958
19366TIP3    H279590   1.616   4.819   1.741  0.0636  0.1870 -0.2336
19367TIP3   OH279591   2.243   1.911  17.203 -0.4520  0.5021 -0.2465
19367TIP3    H179592   2.301   1.914  17.127  1.3249  1.1848  1.0769
19367TIP3    H279593   2.168   1.964  17.178 -0.6393 -0.6064 -2.1080
19368TIP3   OH279594   6.689   2.758  12.632  0.2097  0.4195 -0.4097
19368TIP3    H179595   6.700   2.818  12.706  0.6006 -0.6621  0.4033
19368TIP3    H279596   6.772   2.762  12.585 -0.1222  1.2898 -0.9383
19369TIP3   OH279597   3.133   4.621  15.338  0.4792 -0.6336  0.4067
19369TIP3    H179598   3.057   4.628  15.396  0.7855 -1.1543  0.8634
19369TIP3    H279599   3.149   4.711  15.310 -0.8425 -0.6195 -0.3833
19370TIP3   OH279600   1.308   4.481  13.158  0.1021 -0.2065  0.2458
19370TIP3    H179601   1.314   4.537  13.080  1.3483 -1.4814 -0.5984
19370TIP3    H279602   1.342   4.536  13.229 -0.3945  0.7297 -0.2245
19371TIP3   OH279603   3.108   6.222   5.363  0.6778  0.2794  0.3851
19371TIP3    H179604   3.069   6.164   5.428  0.4447  0.7598  0.6784
19371TIP3    H279605   3.170   6.167   5.315  1.6342  0.1662  1.7120
19372TIP3   OH279606   6.285   2.134   2.490  0.6166 -0.0935  0.6679
19372TIP3    H179607   6.299   2.040   2.485 -0.1996 -0.2220  0.6684
19372TIP3    H279608   6.365   2.173   2.456  0.9375 -0.7918  0.6370
19373TIP3   OH279609   1.603   0.804  13.526  0.1140 -0.1051  0.3366
19373TIP3    H179610   1.572   0.813  13.436  1.5924 -0.3044 -0.2146
19373TIP3    H279611   1.653   0.723  13.527  1.1704  0.5269  1.0064
19374TIP3   OH279612   4.268   6.792  11.833  0.6790 -0.1514 -0.8308
19374TIP3    H179613   4.281   6.815  11.925 -0.4018  0.6030 -0.8568
19374TIP3    H279614   4.355   6.800  11.794  1.2520 -1.0461  0.2433
19375TIP3   OH279615   0.952   3.574  13.450  0.1017 -0.0131 -0.4157
19375TIP3    H179616   0.904   3.589  13.531  1.8726  1.8983  0.3248
19375TIP3    H279617   0.897   3.611  13.381 -1.1840 -1.2207 -0.0473
19376TIP3   OH279618   5.699   4.555   4.662  0.1692 -0.5571 -0.5131
19376TIP3    H179619   5.709   4.542   4.568  1.2032 -0.9069 -0.3532
19376TIP3    H279620   5.732   4.643   4.678  0.6289 -0.7533 -0.3765
19377TIP3   OH279621   5.408   1.608  13.775 -0.1235  0.1089 -0.1360
19377TIP3    H179622   5.363   1.686  13.806 -1.1683  0.3260 -2.1569
19377TIP3    H279623   5.487   1.641  13.732  0.4827 -0.0794  0.8330
19378TIP3   OH279624   0.764   2.472  16.329 -0.1733  0.1693 -0.3955
19378TIP3    H179625   0.762   2.408  16.399  3.0885 -0.0002 -0.3760
19378TIP3    H279626   0.790   2.423  16.251  0.4643  1.1193 -0.7940
19379TIP3   OH279627   6.521   3.200  13.746  0.8504  0.0188 -0.1881
19379TIP3    H179628   6.529   3.176  13.653 -0.5933 -0.7183 -0.1387
19379TIP3    H279629   6.427   3.210  13.760  0.9930 -0.7333  1.4099
19380TIP3   OH279630   1.306   5.544  15.370 -0.0112 -0.1547  0.5783
19380TIP3    H179631   1.296   5.569  15.278 -0.3502 -0.6070  0.4891
19380TIP3    H279632   1.250   5.467  15.380  0.6437 -0.5796  0.9693
19381TIP3   OH279633   6.782   6.252   6.390 -0.4556 -0.4338  0.1897
19381TIP3    H179634   6.837   6.327   6.411 -1.4587  0.5680 -0.7134
19381TIP3    H279635   6.842   6.189   6.350  0.3387 -0.0060  0.7028
19382TIP3   OH279636   3.981   0.846   6.136  0.0404 -0.1722 -0.1813
19382TIP3    H179637   3.913   0.835   6.203  1.1749  2.2597  1.4726
19382TIP3    H279638   4.063   0.846   6.185  1.1210 -1.3958 -1.9556
19383TIP3   OH279639   1.554   4.463   3.586 -0.8193 -0.3864  0.5039
19383TIP3    H179640   1.501   4.513   3.648 -1.1576 -1.4407  1.0699
19383TIP3    H279641   1.565   4.377   3.628  0.1184 -0.6438 -0.2623
19384TIP3   OH279642   5.263   3.437  15.092  0.2776  0.1824  0.6569
19384TIP3    H179643   5.324   3.370  15.122  0.4364  0.0153 -0.0281
19384TIP3    H279644   5.299   3.519  15.127  1.6030  0.2387 -0.7673
19385TIP3   OH279645   3.623   4.417   5.074 -0.1066 -0.0850 -0.0040
19385TIP3    H179646   3.640   4.455   5.160  0.4625  2.0322 -1.0320
19385TIP3    H279647   3.622   4.491   5.014 -0.4354 -1.5377 -1.8501
19386TIP3   OH279648   5.353   2.309   3.239  0.1515 -0.0068 -0.7194
19386TIP3    H179649   5.400   2.388   3.268 -2.2147  0.9220  0.7346
19386TIP3    H279650   5.335   2.325   3.146 -0.3714  1.2344 -0.4219
19387TIP3   OH279651   2.627   1.382   2.238  0.2557  0.2518 -0.3008
19387TIP3    H179652   2.538   1.416   2.229  0.4402  0.6376 -0.6694
19387TIP3    H279653   2.683   1.452   2.206  0.6302 -0.4424 -1.1892
19388TIP3   OH279654   4.650   0.504   0.392 -0.3948 -0.1456 -0.0490
19388TIP3    H179655   4.627   0.499   0.299  0.9873 -2.8376 -0.3040
19388TIP3    H279656   4.745   0.494   0.394 -0.0703  2.8076  1.5112
19389TIP3   OH279657   0.872   0.901   1.840 -0.4679 -0.3351  0.7573
19389TIP3    H179658   0.792   0.868   1.799 -1.1218  0.2211  1.5405
19389TIP3    H279659   0.904   0.969   1.781 -1.3380  0.3790  1.0853
19390TIP3   OH279660   4.632   5.339   3.952 -0.2358  0.1365  0.0949
19390TIP3    H179661   4.696   5.377   3.892 -0.1890 -0.3289 -0.1529
19390TIP3    H279662   4.596   5.414   3.999  0.3378  0.4238  0.0846
19391TIP3   OH279663   6.674   0.609   4.381 -0.4038 -0.3485 -0.0991
19391TIP3    H179664   6.667   0.644   4.292 -0.5436  1.3414  0.5530
19391TIP3    H279665   6.767   0.590   4.392 -0.3604 -0.4031 -0.5526
19392TIP3   OH279666   0.246   4.971  15.494  0.6045 -0.6273 -0.1139
19392TIP3    H179667   0.267   4.880  15.472  3.1310 -0.3579  1.0570
19392TIP3    H279668   0.306   4.993  15.565 -1.3927  1.3227  1.0124
19393TIP3   OH279669   3.266   1.373   3.816 -0.2720 -0.2593 -0.3458
19393TIP3    H179670   3.355   1.391   3.846 -0.1629  1.9083 -1.8530
19393TIP3    H279671   3.210   1.411   3.884 -0.0190  1.9518 -1.3332
19394TIP3   OH279672   2.855   6.684  14.204  0.2541  0.3231  0.1230
19394TIP3    H179673   2.895   6.602  14.233  0.7075  0.7202  0.6276
19394TIP3    H279674   2.929   6.739  14.179 -0.1563 -0.3518 -2.7634
19395TIP3   OH279675   1.533   4.982  11.290  0.1683  0.2257 -0.1400
19395TIP3    H179676   1.582   4.988  11.371  0.1113 -0.5571 -0.0438
19395TIP3    H279677   1.476   5.059  11.291  1.6498  1.3574 -0.4386
19396TIP3   OH279678   4.254   3.328  16.230 -0.3607 -0.6028 -0.0424
19396TIP3    H179679   4.342   3.338  16.192 -0.4706 -1.4893 -0.5360
19396TIP3    H279680   4.218   3.250  16.187 -1.0636 -0.7386  0.7809
19397TIP3   OH279681   3.176   6.497   3.367 -0.3647  1.3242  0.2904
19397TIP3    H179682   3.239   6.464   3.431 -1.1298 -0.5614  0.0789
19397TIP3    H279683   3.218   6.481   3.282 -0.1753  2.1049  0.2306
19398TIP3   OH279684   1.436   6.650  15.109 -0.5665  0.5667 -0.6369
19398TIP3    H179685   1.416   6.743  15.116 -2.1052  0.1146  1.4412
19398TIP3    H279686   1.428   6.617  15.199 -0.9105 -1.7427 -1.4866
19399TIP3   OH279687   3.923   1.406  14.761  0.3873  0.4135 -0.1636
19399TIP3    H179688   3.934   1.494  14.724  3.6393  0.4733  0.8086
19399TIP3    H279689   3.883   1.422  14.847 -1.4538  0.7262 -1.0640
19400TIP3   OH279690   5.274   6.501   3.688  0.0452  0.4125  0.1307
19400TIP3    H179691   5.224   6.582   3.678 -1.5949 -0.7252 -1.3989
19400TIP3    H279692   5.350   6.512   3.630  0.3784  1.2590  0.7250
19401TIP3   OH279693   3.542   1.196   1.284  0.0696 -0.2871  0.4177
19401TIP3    H179694   3.534   1.185   1.379  0.6978 -0.9284  0.3933
19401TIP3    H279695   3.454   1.223   1.256  0.0797  0.6583  1.2803
19402TIP3   OH279696   4.438   6.343  15.305 -0.1353  0.3051 -0.6393
19402TIP3    H179697   4.407   6.257  15.276 -0.3026  0.3917 -0.7143
19402TIP3    H279698   4.359   6.394  15.319 -0.0730  0.1036  0.4699
19403TIP3   OH279699   4.446   5.930   5.090 -0.5256  0.1158  0.7152
19403TIP3    H179700   4.537   5.902   5.095 -0.7260 -0.5232  0.8803
19403TIP3    H279701   4.402   5.880   5.159 -0.9857  0.4631  0.6718
19404TIP3   OH279702   5.939   2.271   0.976  0.2783  0.2450 -0.0880
19404TIP3    H179703   5.985   2.323   1.041 -0.4449  0.6790  0.0882
19404TIP3    H279704   5.850   2.306   0.976 -0.4257 -1.4797  0.5666
19405TIP3   OH279705   6.493   2.800   0.553  0.0280  0.1411 -0.0705
19405TIP3    H179706   6.407   2.795   0.595 -0.0063  1.7572  0.1143
19405TIP3    H279707   6.532   2.714   0.567 -2.0475 -1.0370 -1.2336
19406TIP3   OH279708   5.187   3.577  14.342 -0.6786 -0.3897 -0.7146
19406TIP3    H179709   5.188   3.613  14.431  2.3516 -0.5679 -0.6218
19406TIP3    H279710   5.220   3.649  14.287 -0.5402 -0.9779 -1.4049
19407TIP3   OH279711   6.130   2.653  14.666 -0.8689  0.4217 -0.1251
19407TIP3    H179712   6.164   2.680  14.580  0.3273  0.9590  0.5115
19407TIP3    H279713   6.084   2.571  14.649  0.4701 -0.1452 -1.0534
19408TIP3   OH279714   3.222   1.280  16.693  0.7306  0.0155  0.2683
19408TIP3    H179715   3.136   1.310  16.665  1.9580  2.9584 -0.4657
19408TIP3    H279716   3.277   1.288  16.616  1.8164 -1.3991  0.8600
19409TIP3   OH279717   3.436   0.971   3.496  0.2192 -0.0724 -0.0494
19409TIP3    H179718   3.503   1.016   3.444 -1.6317  0.2700 -2.2099
19409TIP3    H279719   3.441   0.880   3.467 -0.7682  0.1043 -0.8031
19410TIP3   OH279720   5.778   2.851   4.520 -0.4207 -0.0480  0.1862
19410TIP3    H179721   5.777   2.907   4.598 -1.3511 -0.0873  0.2127
19410TIP3    H279722   5.754   2.911   4.449 -1.2431 -0.3812  0.1867
19411TIP3   OH279723   0.079   4.366   2.969 -0.1437  0.1450 -0.7805
19411TIP3    H179724   0.006   4.425   2.953 -1.4399 -0.9940  0.7409
19411TIP3    H279725   0.043   4.278   2.955  1.6942 -0.3162 -2.7837
19412TIP3   OH279726   4.744   2.383  15.273 -0.3601 -0.2461 -0.3344
19412TIP3    H179727   4.703   2.402  15.358  1.5419  0.8405  0.3744
19412TIP3    H279728   4.832   2.351  15.296  1.1535  2.5830 -1.9357
19413TIP3   OH279729   6.204   0.547   5.371  0.2435 -0.1792 -0.7417
19413TIP3    H179730   6.115   0.514   5.358 -0.4789  2.0378 -1.5487
19413TIP3    H279731   6.217   0.543   5.466 -0.8088 -0.2454 -0.5959
19414TIP3   OH279732   0.865   5.387   1.968  0.2646  0.0138 -0.6821
19414TIP3    H179733   0.893   5.313   1.914  0.0173 -1.6885  1.4707
19414TIP3    H279734   0.946   5.433   1.990  0.3497  0.9056 -2.6736
19415TIP3   OH279735   1.256   5.882  16.609 -0.6644 -0.0750  0.0841
19415TIP3    H179736   1.286   5.972  16.596  0.6502 -0.4554  0.4446
19415TIP3    H279737   1.166   5.891  16.642  0.3499  1.1770  2.6074
19416TIP3   OH279738   3.518   3.790  14.878  0.3769 -0.3962  0.0659
19416TIP3    H179739   3.507   3.695  14.879  1.2974 -0.5492 -1.9650
19416TIP3    H279740   3.434   3.825  14.906  0.1408 -1.8122  1.1704
19417TIP3   OH279741   3.134   2.273   6.406 -0.0753 -0.0330  0.0561
19417TIP3    H179742   3.061   2.331   6.429 -0.1300 -0.3782  0.7554
19417TIP3    H279743   3.197   2.330   6.361 -0.4467  0.4193  0.1043
19418TIP3   OH279744   4.281   4.132  11.551  0.0201 -0.0586  0.2934
19418TIP3    H179745   4.288   4.169  11.639  0.9361  0.1625  0.1359
19418TIP3    H279746   4.368   4.145  11.513 -1.0283  2.0896 -1.5125
19419TIP3   OH279747   6.400   5.493  14.424 -0.4461  0.0520 -0.4544
19419TIP3    H179748   6.348   5.419  14.454 -0.5115  0.1485 -0.3268
19419TIP3    H279749   6.339   5.567  14.424 -0.1948  0.2688  0.1592
19420TIP3   OH279750   4.038   1.799  12.947  0.4021  0.1238 -0.1209
19420TIP3    H179751   4.128   1.797  12.978  0.7706  1.7188 -1.0298
19420TIP3    H279752   4.037   1.742  12.871  0.8680  0.7810 -0.6316
19421TIP3   OH279753   4.976   2.494  11.529 -0.5366  0.2053 -0.1214
19421TIP3    H179754   5.032   2.481  11.606 -0.5757  0.7930  0.0051
19421TIP3    H279755   4.956   2.405  11.499 -0.0565 -0.0167  0.2093
19422TIP3   OH279756   3.533   2.931   1.961  0.2617  0.2222  0.2867
19422TIP3    H179757   3.587   2.948   2.038 -0.0505 -0.9494  0.7780
19422TIP3    H279758   3.522   2.836   1.960  1.1131  0.1230 -1.8068
19423TIP3   OH279759   5.846   6.781  14.903 -0.0765 -0.0769 -0.2375
19423TIP3    H179760   5.866   6.764  14.811  1.3156 -0.6296  0.1623
19423TIP3    H279761   5.874   6.702  14.949  0.7437  0.8408  0.8610
19424TIP3   OH279762   3.398   2.943  15.728  0.1699 -0.1799  0.3975
19424TIP3    H179763   3.322   2.986  15.688 -0.8822 -1.0017  1.4768
19424TIP3    H279764   3.392   2.965  15.821  0.2976 -1.6544  0.7582
19425TIP3   OH279765   0.250   0.063  14.846  0.1998  0.1826 -0.0393
19425TIP3    H179766   0.331   0.067  14.796  0.2821 -0.7273  0.0041
19425TIP3    H279767   0.185   0.031  14.783 -0.7284  3.3515 -0.7869
19426TIP3   OH279768   4.689   6.065   0.851 -0.1860 -0.3354  0.4049
19426TIP3    H179769   4.649   6.044   0.766 -0.5418 -2.1423  1.0183
19426TIP3    H279770   4.669   6.158   0.863 -2.0618 -0.5942 -0.4586
19427TIP3   OH279771   2.818   0.104  10.971 -0.3077  0.6278  0.1887
19427TIP3    H179772   2.740   0.157  10.956 -0.5913  0.2990  0.5013
19427TIP3    H279773   2.785   0.022  11.007  0.2737  0.9308  1.4264
19428TIP3   OH279774   1.203   5.120   3.361 -0.2139  0.1748 -0.0468
19428TIP3    H179775   1.221   5.133   3.269  0.4867 -1.1017 -0.1017
19428TIP3    H279776   1.288   5.100   3.400 -0.7776 -1.1574  0.5331
19429TIP3   OH279777   4.959   2.783  14.074 -0.2866  1.0558 -0.3484
19429TIP3    H179778   4.914   2.706  14.107  0.5713  0.6555 -0.0924
19429TIP3    H279779   5.030   2.798  14.137  1.0444  0.5950 -1.6894
19430TIP3   OH279780   5.021   5.726  15.325 -0.0739  0.9212 -0.3119
19430TIP3    H179781   4.954   5.789  15.351 -2.0283 -1.0307 -0.5568
19430TIP3    H279782   5.024   5.663  15.397 -0.5096 -0.5719 -1.5749
19431TIP3   OH279783   5.519   5.528   2.987 -0.1766  0.1630 -0.2341
19431TIP3    H179784   5.473   5.584   2.925 -2.5892  0.2811  1.5876
19431TIP3    H279785   5.608   5.563   2.991 -0.4474  1.1286 -2.3911
19432TIP3   OH279786   1.806   0.756  16.243 -0.0211 -0.0380  0.2250
19432TIP3    H179787   1.848   0.840  16.223 -0.7437  0.6125  1.3928
19432TIP3    H279788   1.777   0.765  16.334 -0.0963 -1.5564  0.3586
19433TIP3   OH279789   1.497   0.209  15.460  0.0961 -0.9340  0.1743
19433TIP3    H179790   1.550   0.178  15.534  0.6265  0.0453  0.2169
19433TIP3    H279791   1.530   0.297  15.443 -0.2188 -1.0507 -1.0504
19434TIP3   OH279792   4.503   3.031  15.376 -0.1278  0.2738  0.1688
19434TIP3    H179793   4.428   2.992  15.421  1.0735 -0.3775  1.6545
19434TIP3    H279794   4.479   3.123  15.363 -1.0037  0.1634  1.0000
19435TIP3   OH279795   1.836   3.346  14.354 -0.0404  0.2172  0.5191
19435TIP3    H179796   1.925   3.324  14.383 -0.3944 -0.9538  0.7489
19435TIP3    H279797   1.817   3.430  14.397  0.9385  0.4531  0.4958
19436TIP3   OH279798   3.019   4.251   4.328  0.4815 -0.5213  0.2539
19436TIP3    H179799   3.017   4.160   4.360 -1.1990 -1.4515 -2.3464
19436TIP3    H279800   2.930   4.283   4.343  0.7211  0.2728 -0.0160
19437TIP3   OH279801   5.875   2.080   5.539  0.1466 -0.8512 -0.9091
19437TIP3    H179802   5.949   2.097   5.481 -0.0721  0.7774 -0.7503
19437TIP3    H279803   5.889   2.139   5.613 -0.6827 -1.3878 -0.3159
19438TIP3   OH279804   2.565   6.384   1.992 -0.4344 -0.3198  1.2409
19438TIP3    H179805   2.644   6.388   1.939 -0.3049 -1.9781  1.3101
19438TIP3    H279806   2.545   6.476   2.012 -0.4393  0.3271 -1.5596
19439TIP3   OH279807   3.300   2.225  13.079  0.1206 -0.3163  0.3441
19439TIP3    H179808   3.298   2.144  13.130 -0.3642 -0.2931  0.3600
19439TIP3    H279809   3.244   2.286  13.127 -1.1820 -0.6201 -0.7559
19440TIP3   OH279810   3.242   3.919   0.604  0.4462 -0.5208  0.3559
19440TIP3    H179811   3.208   3.949   0.688 -0.1071 -0.1726  0.0093
19440TIP3    H279812   3.175   3.944   0.541  0.4462 -1.5629 -0.0730
19441TIP3   OH279813   6.140   1.335  15.390  0.4053 -0.0598 -0.3971
19441TIP3    H179814   6.193   1.272  15.340  1.7232 -0.1255  1.0170
19441TIP3    H279815   6.142   1.300  15.480 -3.5464 -1.0188 -0.6148
19442TIP3   OH279816   5.783   0.371  10.654 -0.1334  0.2970  0.1042
19442TIP3    H179817   5.745   0.443  10.704 -1.5010  1.7430 -2.9030
19442TIP3    H279818   5.871   0.402  10.630  0.7703 -0.6576  2.0865
19443TIP3   OH279819   4.743   2.314   2.502 -0.2965  0.0426  0.2914
19443TIP3    H179820   4.678   2.297   2.570 -0.5041  0.6221  0.2423
19443TIP3    H279821   4.740   2.409   2.489 -0.9118 -0.1603 -1.1755
19444TIP3   OH279822   3.529   3.576   1.791  0.2247 -0.3989 -0.2922
19444TIP3    H179823   3.547   3.657   1.839  1.5207 -1.1858  0.5776
19444TIP3    H279824   3.439   3.554   1.812 -0.0188  0.6418 -0.2561
19445TIP3   OH279825   2.472   0.634  11.199  0.3221  0.4446  0.0575
19445TIP3    H179826   2.387   0.608  11.164  0.9207  1.3259 -2.1003
19445TIP3    H279827   2.488   0.572  11.270 -2.1162  0.2700  0.5063
19446TIP3   OH279828   4.472   0.707  17.175 -0.7751 -0.4911  0.0219
19446TIP3    H179829   4.541   0.773  17.165 -1.8488  0.5209 -0.7921
19446TIP3    H279830   4.495   0.639  17.111 -1.1079  0.3512 -1.0066
19447TIP3   OH279831   0.027   5.694  16.970  0.3704  0.0242 -0.0041
19447TIP3    H179832  -0.014   5.718  17.054  3.4840 -0.3987  1.7284
19447TIP3    H279833   0.073   5.773  16.943 -0.4386  0.0808 -1.2402
19448TIP3   OH279834   6.317   0.919  10.966 -0.0723  0.2228  0.2517
19448TIP3    H179835   6.405   0.919  11.005  0.3940 -1.8194 -0.7227
19448TIP3    H279836   6.290   1.011  10.967  3.1664  1.2899 -1.8543
19449TIP3   OH279837   1.722   6.309  13.808  0.9574  0.1649 -0.5388
19449TIP3    H179838   1.651   6.296  13.746  1.1891 -0.8171 -0.5970
19449TIP3    H279839   1.763   6.223  13.818  3.1525  1.0212 -1.7263
19450TIP3   OH279840   2.982   3.076  14.612 -0.0418 -0.4747  0.2928
19450TIP3    H179841   2.958   3.110  14.698 -1.4318  0.7187 -0.5335
19450TIP3    H279842   2.911   3.106  14.554  1.9173  0.5223 -1.6547
19451TIP3   OH279843   2.237   0.405   4.854 -0.8837  0.1386 -0.1649
19451TIP3    H179844   2.228   0.485   4.906  0.5152  0.1528  0.0865
19451TIP3    H279845   2.304   0.354   4.899 -0.4905 -0.3753 -1.2955
19452TIP3   OH279846   0.355   1.099   2.715  0.9883  0.4119 -0.1351
19452TIP3    H179847   0.260   1.089   2.706  0.8324  1.7595 -0.2098
19452TIP3    H279848   0.390   1.079   2.628  0.7485  0.0648 -0.1505
19453TIP3   OH279849   5.207   5.191  12.194  0.4699 -0.5498 -0.1494
19453TIP3    H179850   5.250   5.133  12.132 -1.1879 -2.0440  0.0226
19453TIP3    H279851   5.153   5.132  12.248  1.8340  0.6855  2.6864
19454TIP3   OH279852   4.690   6.691   0.268  0.0410 -0.4450  0.9540
19454TIP3    H179853   4.731   6.605   0.274  0.7436 -0.2498 -0.8818
19454TIP3    H279854   4.682   6.720   0.359 -0.9707 -2.7931  1.6568
19455TIP3   OH279855   1.274   0.334  11.681 -0.2185  0.2459  0.0735
19455TIP3    H179856   1.260   0.381  11.599  2.2216 -2.9160 -2.3033
19455TIP3    H279857   1.193   0.285  11.694 -1.3814  2.2984  0.6467
19456TIP3   OH279858   1.849   5.127  15.614 -0.0073  0.4799  0.3271
19456TIP3    H179859   1.829   5.212  15.575 -1.7028 -0.9040 -2.0290
19456TIP3    H279860   1.789   5.120  15.688 -0.9919  0.6864 -0.4402
19457TIP3   OH279861   0.319   5.969  14.888 -0.3604 -0.4245  0.0085
19457TIP3    H179862   0.234   5.949  14.848 -0.6204 -1.3780  1.0134
19457TIP3    H279863   0.302   5.971  14.982 -0.0609  3.3280  0.0516
19458TIP3   OH279864   3.495   1.632   4.752  0.6152 -0.3084  0.5034
19458TIP3    H179865   3.576   1.644   4.801  0.4025 -0.2231  0.8405
19458TIP3    H279866   3.448   1.564   4.800  1.1427 -1.4149 -0.5435
19459TIP3   OH279867   5.356   1.317   4.483  0.4725 -0.0787  0.2241
19459TIP3    H179868   5.320   1.339   4.569 -1.5127  0.2357 -0.6587
19459TIP3    H279869   5.450   1.312   4.497  0.3322  1.7005  2.0469
19460TIP3   OH279870   6.610   0.601  11.635  0.1952 -0.3335  0.3693
19460TIP3    H179871   6.623   0.643  11.550  2.1917 -2.4007 -0.4209
19460TIP3    H279872   6.667   0.524  11.633 -0.8063 -1.2353  3.0353
19461TIP3   OH279873   3.814   2.191  16.591 -0.2101 -0.2829 -0.0981
19461TIP3    H179874   3.724   2.183  16.624 -0.1918  1.5871  0.4807
19461TIP3    H279875   3.867   2.203  16.670  0.7441 -2.7800 -0.3276
19462TIP3   OH279876   2.677   6.045  10.611  0.0044 -0.0278 -0.2376
19462TIP3    H179877   2.725   6.005  10.683 -0.0111  1.8400  0.8211
19462TIP3    H279878   2.719   6.130  10.597 -0.9738  0.2883 -1.4019
19463TIP3   OH279879   3.876   4.806   5.631 -0.0653 -0.0147 -0.0312
19463TIP3    H179880   3.812   4.815   5.701 -1.2689 -0.8864 -0.9925
19463TIP3    H279881   3.923   4.889   5.629 -2.3659  1.2995 -0.4730
19464TIP3   OH279882   0.233   2.093  12.112 -0.0824 -0.6588  0.0543
19464TIP3    H179883   0.192   2.152  12.174 -0.5517 -1.2072  0.2698
19464TIP3    H279884   0.316   2.068  12.153  0.4278  0.3785 -0.3400
19465TIP3   OH279885   2.267   2.399   3.740  0.3614 -0.0692  0.1402
19465TIP3    H179886   2.236   2.474   3.690 -0.4581 -0.9026 -0.6400
19465TIP3    H279887   2.279   2.432   3.829 -2.7001  0.3313  0.4583
19466TIP3   OH279888   0.430   2.826  14.867 -0.3740  0.0783 -0.0743
19466TIP3    H179889   0.462   2.883  14.797  0.1598  1.2253  1.0783
19466TIP3    H279890   0.509   2.797  14.913 -0.6128 -1.9531 -0.9112
19467TIP3   OH279891   4.133   2.200   6.744 -0.0295  0.3846 -0.0390
19467TIP3    H179892   4.164   2.269   6.685 -0.3620  2.1415  1.8082
19467TIP3    H279893   4.046   2.178   6.712  0.0011  0.9527 -0.5217
19468TIP3   OH279894   3.993   0.439  11.342 -0.3542  0.7094 -0.1999
19468TIP3    H179895   3.975   0.384  11.266  0.4074  1.6659 -1.0861
19468TIP3    H279896   3.999   0.377  11.415 -0.7799 -0.2500 -0.9573
19469TIP3   OH279897   5.777   5.714  14.128  0.7044  0.1769 -0.0696
19469TIP3    H179898   5.836   5.662  14.073 -1.0613 -0.7436 -1.1462
19469TIP3    H279899   5.744   5.652  14.193 -0.3551  0.2373 -0.5265
19470TIP3   OH279900   5.741   4.131   0.648 -0.5314 -0.4557 -0.2123
19470TIP3    H179901   5.683   4.203   0.674  1.0932  0.7409  0.2113
19470TIP3    H279902   5.713   4.109   0.559 -1.0459  0.7316 -0.3672
19471TIP3   OH279903   6.296   4.641  12.271 -0.0930 -0.0466  0.0529
19471TIP3    H179904   6.352   4.659  12.196  0.2055  0.0283  0.2901
19471TIP3    H279905   6.260   4.554  12.253  0.7108 -0.4340  0.2591
19472TIP3   OH279906   1.767   4.464  13.308  0.6099  0.4028  0.5217
19472TIP3    H179907   1.799   4.396  13.249  2.8274  1.1456  0.8113
19472TIP3    H279908   1.710   4.518  13.254  1.9304  0.5727 -0.7179
19473TIP3   OH279909   2.976   2.447   0.131  0.1923 -0.0152 -0.2197
19473TIP3    H179910   2.956   2.366   0.085 -2.1365  0.7030 -0.5219
19473TIP3    H279911   3.047   2.487   0.080  0.8330 -1.4828 -0.4886
19474TIP3   OH279912   6.585   5.082  15.683 -0.2671 -0.3425  0.4434
19474TIP3    H179913   6.582   4.987  15.675 -2.2898 -0.2291 -0.4069
19474TIP3    H279914   6.517   5.104  15.747  0.0891  0.5406  0.5363
19475TIP3   OH279915   3.613   3.086  11.598 -0.0956 -0.1890  0.3925
19475TIP3    H179916   3.550   3.136  11.652  1.5091  0.9501  1.2480
19475TIP3    H279917   3.661   3.153  11.550 -0.6769 -1.1496 -1.5529
19476TIP3   OH279918   4.190   4.540   2.262 -0.2001 -0.5620  0.5959
19476TIP3    H179919   4.229   4.484   2.330  1.8250 -1.6218 -1.3701
19476TIP3    H279920   4.249   4.614   2.255 -0.1569 -0.6765 -0.3046
19477TIP3   OH279921   4.450   2.407   3.409  0.0315  0.1345 -0.1840
19477TIP3    H179922   4.489   2.352   3.477 -0.5661 -2.0749 -1.5620
19477TIP3    H279923   4.380   2.454   3.453 -2.1473 -3.3107  0.2218
19478TIP3   OH279924   0.946   1.064   2.876 -0.1077 -0.1608 -0.2920
19478TIP3    H179925   1.015   0.999   2.890  0.0679 -0.1967 -1.2800
19478TIP3    H279926   0.976   1.115   2.801 -1.1148 -0.1164 -0.6735
19479TIP3   OH279927   3.457   3.120  12.960 -0.4128  0.4179  0.5046
19479TIP3    H179928   3.533   3.076  12.999 -0.8130 -0.1112  0.6984
19479TIP3    H279929   3.442   3.195  13.017  1.0371  1.5250 -0.5347
19480TIP3   OH279930   3.339   4.147  14.372 -0.1750 -0.3281  0.3424
19480TIP3    H179931   3.285   4.131  14.449 -1.8823 -1.5996 -1.0774
19480TIP3    H279932   3.293   4.104  14.300  1.4204  0.7511 -1.3983
19481TIP3   OH279933   6.068   3.295   2.042 -0.1849  0.3106  0.1224
19481TIP3    H179934   6.112   3.367   2.086 -2.2633  0.9212  1.2829
19481TIP3    H279935   6.126   3.220   2.054  2.5431  1.9759 -2.0790
19482TIP3   OH279936   5.405   6.173  13.078 -0.1019  0.3620 -1.0404
19482TIP3    H179937   5.418   6.180  12.983  2.7473 -1.4091 -0.8322
19482TIP3    H279938   5.348   6.098  13.089  0.4931 -0.1371 -1.3122
19483TIP3   OH279939   4.057   0.549   2.680 -0.1775  0.1799 -0.2661
19483TIP3    H179940   4.060   0.565   2.585 -2.4347  0.5289 -0.3113
19483TIP3    H279941   3.964   0.550   2.701  0.2566 -0.9033  1.8089
19484TIP3   OH279942   2.488   2.455   0.968  0.2272 -0.0673 -0.0892
19484TIP3    H179943   2.399   2.487   0.979  0.0345 -0.5603 -0.1556
19484TIP3    H279944   2.508   2.410   1.050  0.6214  0.5182  0.1377
19485TIP3   OH279945   1.346   1.882   2.857 -0.6946  0.0799 -0.2054
19485TIP3    H179946   1.366   1.927   2.775  1.9899  0.9816  0.9030
19485TIP3    H279947   1.404   1.806   2.857 -1.5484 -0.5819  0.3184
19486TIP3   OH279948   6.717   0.603  16.202 -0.1029  0.1985  0.0770
19486TIP3    H179949   6.718   0.618  16.108 -3.6019  1.5665  0.1927
19486TIP3    H279950   6.750   0.684  16.240  1.4737 -0.4155  0.0652
19487TIP3   OH279951   4.663   5.180   2.536  0.2166 -0.6399  0.1948
19487TIP3    H179952   4.621   5.212   2.456  0.5187  0.5430  0.5069
19487TIP3    H279953   4.636   5.241   2.604  1.4067 -0.6014  0.6537
19488TIP3   OH279954   6.724   3.380  15.092 -0.2389  0.3303  0.7572
19488TIP3    H179955   6.697   3.371  15.001  0.7175  3.1968  0.1232
19488TIP3    H279956   6.669   3.450  15.126  0.3978  0.2558  1.9670
19489TIP3   OH279957   4.384   3.079  16.699 -0.0281  0.8601  0.1859
19489TIP3    H179958   4.440   3.097  16.774 -1.1415  0.0769  1.2096
19489TIP3    H279959   4.297   3.064  16.736 -0.1689 -1.6438 -1.0680
19490TIP3   OH279960   0.106   2.393  15.077 -0.7056 -0.6886  0.3878
19490TIP3    H179961   0.104   2.433  15.164  0.5773  1.2530 -0.4231
19490TIP3    H279962   0.026   2.423  15.034 -1.0191 -1.1185  0.6693
19491TIP3   OH279963   5.651   4.580  13.109 -0.1047  0.3797 -0.8831
19491TIP3    H179964   5.619   4.492  13.129  0.7749  0.5802  1.5794
19491TIP3    H279965   5.746   4.572  13.111 -0.0145  1.5304  0.1800
19492TIP3   OH279966   2.979   5.113  14.839 -0.9048 -0.0597  1.6168
19492TIP3    H179967   3.072   5.102  14.823 -0.2208  1.9957  3.7813
19492TIP3    H279968   2.941   5.026  14.825  1.0098 -0.5106 -1.0965
19493TIP3   OH279969   5.213   3.515  14.833  0.5683 -0.0265  0.3015
19493TIP3    H179970   5.237   3.476  14.917  1.2016  0.0381  0.1543
19493TIP3    H279971   5.297   3.537  14.792  0.2547  0.2036 -0.2223
19494TIP3   OH279972   5.575   6.368   1.405  0.4180 -0.1236  0.1680
19494TIP3    H179973   5.650   6.427   1.417 -0.3375  0.9261 -0.2446
19494TIP3    H279974   5.513   6.396   1.472 -0.8543  1.0169 -1.4625
19495TIP3   OH279975   4.538   3.071  11.041 -0.3789  0.3361 -0.1584
19495TIP3    H179976   4.531   3.167  11.042  1.1988  0.4512  0.7699
19495TIP3    H279977   4.535   3.048  10.948 -2.5079  1.1392 -0.3109
19496TIP3   OH279978   2.235   2.056  13.670  0.7237  0.0646  0.0293
19496TIP3    H179979   2.158   2.113  13.664  1.3046  0.7771 -0.8867
19496TIP3    H279980   2.309   2.117  13.679  1.1380 -0.6258  1.4432
19497TIP3   OH279981   1.097   6.684  13.696 -0.0088  0.3502  0.4465
19497TIP3    H179982   1.018   6.736  13.682 -1.0229 -1.6896 -1.6438
19497TIP3    H279983   1.069   6.612  13.751  0.9554  0.9099  1.6882
19498TIP3   OH279984   5.792   0.351  15.274  0.1607 -0.1259  0.0490
19498TIP3    H179985   5.748   0.426  15.315 -0.4721 -1.2034  1.3851
19498TIP3    H279986   5.795   0.373  15.180 -0.7017  1.2205  0.3259
19499TIP3   OH279987   3.057   0.591  14.807 -0.2547  0.1302 -0.3854
19499TIP3    H179988   3.129   0.628  14.858 -0.7672  2.4658 -1.3197
19499TIP3    H279989   2.981   0.644  14.830 -1.8919 -2.7457  1.1219
19500TIP3   OH279990   2.806   6.419  12.160  0.2271 -0.1083 -0.1855
19500TIP3    H179991   2.758   6.367  12.096 -0.0738  2.0126 -1.7662
19500TIP3    H279992   2.800   6.370  12.241 -2.0794 -1.3465 -1.0676
19501TIP3   OH279993   2.147   5.946  11.851 -0.0812  0.2371  0.7781
19501TIP3    H179994   2.163   5.909  11.764 -1.2155  0.8406  0.3027
19501TIP3    H279995   2.202   5.894  11.910  0.0773 -0.7036 -0.1882
19502TIP3   OH279996   3.828   0.035   0.457  0.5087  0.2828  0.8302
19502TIP3    H179997   3.796   0.027   0.367 -0.1030  2.3894  0.8311
19502TIP3    H279998   3.923   0.026   0.449  0.3645 -0.7349  0.1375
19503TIP3   OH279999   2.743   2.921  12.354  0.2620 -0.5760 -0.3244
19503TIP3    H180000   2.805   2.938  12.282 -0.8393 -1.0451 -1.3911
19503TIP3    H280001   2.752   2.827  12.371  2.8688  0.0548  2.3679
19504TIP3   OH280002   6.722   2.851  14.201  0.6522  0.2482  0.5050
19504TIP3    H180003   6.810   2.826  14.229  0.9102 -0.3320 -0.7739
19504TIP3    H280004   6.723   2.840  14.105 -0.9917 -0.3856  0.5440
19505TIP3   OH280005   4.172   2.058  14.980 -0.2297 -0.0944  0.1034
19505TIP3    H180006   4.178   2.002  15.058 -0.3014 -1.2095 -0.6708
19505TIP3    H280007   4.133   2.139  15.012  0.0866 -0.3978  1.3014
19506TIP3   OH280008   3.437   5.852  14.498 -0.3312 -0.3775 -0.0429
19506TIP3    H180009   3.508   5.819  14.554 -1.5689  0.5887  2.1665
19506TIP3    H280010   3.380   5.776  14.486  1.4111 -1.3699 -2.4652
19507TIP3   OH280011   5.916   2.555  16.463  0.7007  0.2798  0.4350
19507TIP3    H180012   5.896   2.648  16.474  2.2433  0.5286  1.2202
19507TIP3    H280013   5.978   2.552  16.390  2.7596  0.1518  2.1447
19508TIP3   OH280014   0.531   3.234  15.559  0.0329 -0.2650  0.0445
19508TIP3    H180015   0.505   3.233  15.467  1.1551  1.0636 -0.2986
19508TIP3    H280016   0.548   3.142  15.580  0.1746 -0.5248 -1.1779
19509TIP3   OH280017   5.248   2.260   2.025  0.0676  0.1408  0.4017
19509TIP3    H180018   5.307   2.312   1.971  0.1908  0.9570  1.3046
19509TIP3    H280019   5.293   2.176   2.035 -1.4881 -1.2652 -3.5482
19510TIP3   OH280020   2.173   6.316   3.634 -0.1648  0.6686 -0.8651
19510TIP3    H180021   2.078   6.326   3.637 -0.3091 -0.0948 -2.3785
19510TIP3    H280022   2.193   6.307   3.541  1.2934 -0.0515 -0.4924
19511TIP3   OH280023   2.628   3.113   3.012 -0.2543  0.1611 -0.3557
19511TIP3    H180024   2.670   3.174   2.951  1.1572 -1.4320 -0.9976
19511TIP3    H280025   2.556   3.074   2.962  0.0763 -0.1695 -0.5692
19512TIP3   OH280026   1.632   2.046   1.393  0.6326 -0.6678 -0.2042
19512TIP3    H180027   1.654   2.129   1.435  1.5578 -0.9527 -0.1330
19512TIP3    H280028   1.566   2.070   1.327  0.2817 -0.0034  0.3815
19513TIP3   OH280029   5.113   3.929   4.521 -0.3451  0.0451 -0.1860
19513TIP3    H180030   5.076   3.935   4.609 -0.0563  2.7760 -0.2145
19513TIP3    H280031   5.204   3.956   4.531  0.1963 -1.3956 -1.0425
19514TIP3   OH280032   1.545   4.547   4.843 -0.4301  0.2076  0.4528
19514TIP3    H180033   1.544   4.475   4.780 -0.7675  0.5329  0.0890
19514TIP3    H280034   1.555   4.504   4.928  3.7532 -0.0257 -0.0817
19515TIP3   OH280035   3.536   2.187   1.481 -0.2818  0.3512  0.0844
19515TIP3    H180036   3.476   2.262   1.477 -3.1815 -1.8821  0.0147
19515TIP3    H280037   3.544   2.158   1.390 -2.1722 -1.6574  0.5258
19516TIP3   OH280038   6.171   6.604   6.437  0.2515  0.1982  0.2776
19516TIP3    H180039   6.155   6.652   6.356  2.3819 -0.5084 -0.5899
19516TIP3    H280040   6.176   6.672   6.504 -0.2458  0.8899 -0.3798
19517TIP3   OH280041   4.553   1.567  12.491  0.7825  0.6711  0.0810
19517TIP3    H180042   4.539   1.512  12.567  1.2742 -0.0152 -0.3224
19517TIP3    H280043   4.608   1.515  12.432 -1.0026  0.5021 -1.4981
19518TIP3   OH280044   3.799   5.014   6.243  0.5332 -0.4556 -0.2542
19518TIP3    H180045   3.811   4.939   6.186  1.8495 -0.7369  0.3731
19518TIP3    H280046   3.770   4.976   6.326  0.2157 -0.1802 -0.2371
19519TIP3   OH280047   0.086   0.973  14.243  0.3345 -0.1511  0.5286
19519TIP3    H180048   0.089   1.017  14.159  1.1665  0.1715  0.7235
19519TIP3    H280049   0.020   1.021  14.293 -1.8356 -1.7547 -0.7104
19520TIP3   OH280050   1.711   2.505  10.649  0.3684  0.3407 -0.6092
19520TIP3    H180051   1.705   2.570  10.579 -0.5392 -2.0462 -2.8273
19520TIP3    H280052   1.802   2.475  10.646  0.2795  0.0988 -0.9018
19521TIP3   OH280053   3.032   6.308   4.060 -0.9622 -0.6158 -0.1976
19521TIP3    H180054   2.983   6.381   4.023 -1.3776 -0.3433  0.8830
19521TIP3    H280055   2.966   6.245   4.088 -0.7588  0.1281  2.0470
19522TIP3   OH280056   3.746   6.611  15.684  0.3815  0.1214  0.4529
19522TIP3    H180057   3.812   6.577  15.744  2.3985  0.4581 -1.5040
19522TIP3    H280058   3.778   6.698  15.660 -0.8230  0.3233 -0.4590
19523TIP3   OH280059   4.780   1.706  13.357 -0.0606 -0.6803  0.3981
19523TIP3    H180060   4.703   1.760  13.340 -0.1711 -0.7485  0.6710
19523TIP3    H280061   4.746   1.617  13.365  0.0851 -0.7514  0.2215
19524TIP3   OH280062   1.910   5.009   3.409  0.1661 -0.3594 -0.0073
19524TIP3    H180063   2.002   4.995   3.432  0.5895  0.7764 -0.9780
19524TIP3    H280064   1.884   4.929   3.362  0.6169 -0.7300  0.3751
19525TIP3   OH280065   3.104   6.733   4.975  0.3759  0.6303 -0.2276
19525TIP3    H180066   3.134   6.786   4.901  1.1724 -1.2080 -1.2887
19525TIP3    H280067   3.111   6.790   5.051  2.1922  1.7106 -1.1688
19526TIP3   OH280068   0.931   5.505   1.449 -0.1020 -1.0790  0.1415
19526TIP3    H180069   1.025   5.519   1.459 -0.3345 -0.3684  1.3870
19526TIP3    H280070   0.922   5.411   1.431  0.7776 -1.3283  0.9802
19527TIP3   OH280071   1.016   3.674   4.941 -0.3137  0.2544 -0.1331
19527TIP3    H180072   1.040   3.695   4.850 -0.4970 -1.2089 -0.5367
19527TIP3    H280073   1.080   3.721   4.994  1.2813 -0.7853 -1.0991
19528TIP3   OH280074   5.356   1.814   2.990  0.1312 -0.4388  0.2097
19528TIP3    H180075   5.413   1.845   3.061  2.5050 -1.4060 -1.1957
19528TIP3    H280076   5.412   1.756   2.939 -1.4641  0.3819 -2.5697
19529TIP3   OH280077   4.147   3.647  12.475 -0.3496  0.1579  0.8343
19529TIP3    H180078   4.054   3.640  12.458 -0.0184 -2.3917 -0.0128
19529TIP3    H280079   4.188   3.641  12.389  0.5963  1.6316  1.1584
19530TIP3   OH280080   1.108   6.386  12.306 -0.2077  0.5606  0.3239
19530TIP3    H180081   1.132   6.413  12.395  0.4184  0.5913  0.1464
19530TIP3    H280082   1.122   6.464  12.252  0.3869  0.2447  0.0252
19531TIP3   OH280083   1.931   4.156  16.306 -0.2385 -0.1284  0.8048
19531TIP3    H180084   1.854   4.213  16.303  0.5771  0.9794  0.6524
19531TIP3    H280085   1.970   4.165  16.219 -0.0889 -0.9246  0.7846
19532TIP3   OH280086   4.238   2.031   5.505  0.4333 -0.1858 -0.0451
19532TIP3    H180087   4.241   1.953   5.448  2.0295 -0.3504  0.2407
19532TIP3    H280088   4.323   2.032   5.549 -0.1429  0.9017  1.0743
19533TIP3   OH280089   1.802   5.407  14.805 -0.0841  0.7266 -0.0219
19533TIP3    H180090   1.840   5.481  14.852 -1.1531  1.5330 -0.3799
19533TIP3    H280091   1.733   5.375  14.862  0.5135 -0.1224  0.2173
19534TIP3   OH280092   0.331   5.064   1.390 -0.3729  0.4919  0.5223
19534TIP3    H180093   0.340   4.990   1.449  1.2732  1.4417  1.4852
19534TIP3    H280094   0.370   5.138   1.437 -2.2077  2.0371 -0.3145
19535TIP3   OH280095   5.627   1.150   4.211 -0.4083 -0.7667  0.3604
19535TIP3    H180096   5.561   1.214   4.186  0.9544 -0.1185 -1.7410
19535TIP3    H280097   5.578   1.080   4.255 -2.2809  0.3388  0.0843
19536TIP3   OH280098   1.886   4.159  14.520 -0.2934  0.1900 -0.0829
19536TIP3    H180099   1.795   4.128  14.518  0.0038 -0.7883  0.7975
19536TIP3    H280100   1.881   4.251  14.496 -1.5862  0.2838  0.5274
19537TIP3   OH280101   2.077   0.786   4.127 -0.1723  0.5707  0.0805
19537TIP3    H180102   2.093   0.880   4.122 -0.4107  0.6195  0.2128
19537TIP3    H280103   2.117   0.751   4.048  1.4676  0.5502  0.9151
19538TIP3   OH280104   6.606   6.175   3.590 -0.0100  0.2356 -0.0820
19538TIP3    H180105   6.613   6.080   3.575 -2.1793  0.5184 -3.5055
19538TIP3    H280106   6.692   6.201   3.620  1.5235 -2.4091 -1.9443
19539TIP3   OH280107   2.472   3.038  14.377 -0.6901  0.1659  0.8521
19539TIP3    H180108   2.441   3.088  14.302  0.2029  1.4439  1.3224
19539TIP3    H280109   2.469   2.947  14.348  0.3020  0.7044 -0.9589
19540TIP3   OH280110   0.203   2.908   5.867 -0.0942  0.1654  0.2549
19540TIP3    H180111   0.108   2.894   5.866 -0.1337  0.3690  1.0477
19540TIP3    H280112   0.229   2.900   5.775 -1.3392  3.4169 -0.4358
19541TIP3   OH280113   1.063   6.253   3.367  0.1263 -0.1953  0.1854
19541TIP3    H180114   1.135   6.231   3.427  2.4861  0.8508 -2.1485
19541TIP3    H280115   1.104   6.307   3.299 -3.0313  1.0088 -0.8733
19542TIP3   OH280116   6.736   5.103   4.506 -0.0768  0.9178 -0.4707
19542TIP3    H180117   6.782   5.093   4.422 -0.9672 -1.3377 -0.7192
19542TIP3    H280118   6.649   5.068   4.490  0.2941 -1.2635  1.8763
19543TIP3   OH280119   5.243   3.642  11.898  0.2174  0.0827 -0.2644
19543TIP3    H180120   5.310   3.630  11.831  0.7666 -2.1349  0.6381
19543TIP3    H280121   5.291   3.659  11.979 -0.3709  0.7194 -0.0417
19544TIP3   OH280122   1.418   4.897   2.346 -0.2057 -0.4115 -0.5298
19544TIP3    H180123   1.354   4.947   2.296  0.3396  1.0331  0.1881
19544TIP3    H280124   1.373   4.816   2.370 -1.5337  0.3138 -0.5745
19545TIP3   OH280125   4.236   0.588   3.440 -0.2168  0.3701  0.1008
19545TIP3    H180126   4.231   0.506   3.488  0.8196 -0.1360 -0.6515
19545TIP3    H280127   4.326   0.618   3.452 -0.5975  1.4261  0.4065
19546TIP3   OH280128   5.053   3.195  12.909 -0.7404  0.4743 -0.4101
19546TIP3    H180129   5.148   3.200  12.900 -0.6379  1.6749  1.0592
19546TIP3    H280130   5.036   3.107  12.943  0.2498  1.6234  3.3476
19547TIP3   OH280131   4.499   2.155  11.612  0.5030  0.2378  0.2983
19547TIP3    H180132   4.466   2.074  11.651 -0.0595  0.0273 -0.5986
19547TIP3    H280133   4.556   2.192  11.679 -0.5471 -0.0454  1.3616
19548TIP3   OH280134   4.516   6.576  14.022  0.7218 -0.0660 -0.4201
19548TIP3    H180135   4.445   6.638  14.041 -0.8419 -1.6764 -0.8222
19548TIP3    H280136   4.508   6.560  13.927 -0.2237 -2.3984  0.0063
19549TIP3   OH280137   3.145   4.644  16.665 -0.2201 -0.9880  0.7886
19549TIP3    H180138   3.075   4.683  16.717 -1.8200 -1.5951 -0.8402
19549TIP3    H280139   3.168   4.564  16.712 -0.0752 -0.3972  1.7395
19550TIP3   OH280140   4.437   2.338  12.508  0.5406  0.3112  0.2541
19550TIP3    H180141   4.515   2.288  12.531  1.1319  0.1521 -1.9396
19550TIP3    H280142   4.428   2.325  12.413 -2.3280  0.0893  0.5322
19551TIP3   OH280143   3.006   0.989   3.342 -0.4834 -0.0561 -0.4831
19551TIP3    H180144   2.934   1.051   3.354 -1.4292 -0.9514 -1.3244
19551TIP3    H280145   3.084   1.043   3.330 -1.2248  0.9538 -0.7810
19552TIP3   OH280146   5.826   2.361  15.717  0.2951  0.3680  0.6092
19552TIP3    H180147   5.889   2.374  15.787  1.1546  0.1652 -0.1192
19552TIP3    H280148   5.863   2.291  15.663 -1.4016 -0.9770  1.1503
19553TIP3   OH280149   3.545   0.422   3.479  0.0856  0.7062  0.8976
19553TIP3    H180150   3.496   0.343   3.456  0.7212  0.5625  0.0311
19553TIP3    H280151   3.596   0.397   3.555  1.3018 -0.1205 -0.1813
19554TIP3   OH280152   4.159   6.436   4.038  0.0298  0.3003  0.1690
19554TIP3    H180153   4.165   6.372   3.967  2.3308 -0.5397  1.0597
19554TIP3    H280154   4.190   6.518   3.999  0.1483  0.1246 -0.1079
19555TIP3   OH280155   6.775   4.948   3.367 -0.0709 -0.1497  0.0037
19555TIP3    H180156   6.744   4.937   3.277 -1.3995 -1.7629  0.6197
19555TIP3    H280157   6.866   4.920   3.365 -0.0491 -0.0303 -0.8843
19556TIP3   OH280158   0.138   6.449   3.533  0.7026 -0.4462 -0.3447
19556TIP3    H180159   0.082   6.448   3.455  0.4800  0.3569 -0.1997
19556TIP3    H280160   0.227   6.459   3.497  0.7219 -1.3339 -0.5537
19557TIP3   OH280161   1.664   2.311   3.681  0.2772 -0.2091 -0.6601
19557TIP3    H180162   1.742   2.257   3.670  0.5692  0.4046 -1.6878
19557TIP3    H280163   1.601   2.276   3.619  0.0856 -0.0692 -0.5466
19558TIP3   OH280164   6.378   4.873  11.115 -0.4588  0.2394 -0.4154
19558TIP3    H180165   6.288   4.906  11.109 -0.5559  0.4256  1.6587
19558TIP3    H280166   6.381   4.800  11.053 -1.4120  1.5667 -2.0714
19559TIP3   OH280167   3.235   0.468  16.850  0.2756  0.3439 -0.1053
19559TIP3    H180168   3.247   0.373  16.859 -0.6125  0.3536  1.2974
19559TIP3    H280169   3.255   0.503  16.936 -0.7489  1.2971 -0.2432
19560TIP3   OH280170   5.521   4.119   4.995  0.0581 -0.0595 -0.1369
19560TIP3    H180171   5.507   4.212   4.980  0.7217  0.2474  1.0368
19560TIP3    H280172   5.606   4.114   5.039 -0.4197 -1.1345  0.7079
19561TIP3   OH280173   6.327   4.179   5.793  1.1547 -0.2459  0.4228
19561TIP3    H180174   6.292   4.126   5.722 -1.2191  1.2585  0.4353
19561TIP3    H280175   6.383   4.244   5.749 -1.1137  1.3330 -0.2182
19562TIP3   OH280176   3.162   2.528  15.397 -0.5731 -0.1626 -0.3776
19562TIP3    H180177   3.069   2.511  15.411  0.2941 -4.1216  1.2717
19562TIP3    H280178   3.192   2.452  15.346  2.0925  0.1430  0.6809
19563TIP3   OH280179   4.413   4.850  13.293 -0.2613  0.6074 -0.0525
19563TIP3    H180180   4.403   4.933  13.339  1.6028  1.4303 -1.0778
19563TIP3    H280181   4.399   4.783  13.360 -0.4490  1.7533  1.0640
19564TIP3   OH280182   3.532   5.599   6.559 -0.1011 -0.1579  0.3515
19564TIP3    H180183   3.621   5.563   6.565  0.0847  0.2387 -0.0033
19564TIP3    H280184   3.482   5.531   6.514  0.1543 -0.1420  0.0465
19565TIP3   OH280185   5.071   0.574   5.226 -0.3189  0.5540  0.2969
19565TIP3    H180186   4.982   0.551   5.199 -0.2905 -1.8172  2.0792
19565TIP3    H280187   5.126   0.548   5.152 -0.9529  0.7611 -0.2570
19566TIP3   OH280188   1.532   0.084  12.185 -0.0248  0.2550  0.0504
19566TIP3    H180189   1.470   0.109  12.116  0.7396 -0.6056 -0.9597
19566TIP3    H280190   1.514   0.146  12.256 -1.7690  0.2726 -0.3719
19567TIP3   OH280191   5.017   0.946  16.702  0.3845  0.2684  0.6203
19567TIP3    H180192   5.108   0.936  16.674  0.3978 -0.0652  0.7778
19567TIP3    H280193   5.004   1.041  16.707  0.1309  0.3485 -1.2955
19568TIP3   OH280194   5.342   3.436  11.025 -0.1640 -0.0099 -0.1992
19568TIP3    H180195   5.283   3.507  11.051  0.7425  0.2260  1.3167
19568TIP3    H280196   5.306   3.359  11.068 -0.2389 -0.1648 -0.5379
19569TIP3   OH280197   3.494   2.641   2.352 -0.3294 -0.7130 -0.2548
19569TIP3    H180198   3.572   2.630   2.407 -1.1681 -0.8291  0.9408
19569TIP3    H280199   3.433   2.575   2.385 -0.6354 -1.1856 -1.7331
19570TIP3   OH280200   0.694   0.307   2.692 -0.1009  0.7730 -0.5540
19570TIP3    H180201   0.599   0.311   2.676 -0.0482  0.3627 -0.9722
19570TIP3    H280202   0.730   0.371   2.630 -0.1522  1.3765  0.0287
19571TIP3   OH280203   5.805   5.978  11.404 -0.3129 -0.2746 -0.0165
19571TIP3    H180204   5.866   5.915  11.443 -0.7124 -0.5190  0.2151
19571TIP3    H280205   5.852   6.061  11.407  0.1108 -0.5091 -0.0752
19572TIP3   OH280206   2.919   4.111  11.071  0.4383  0.2827  0.0083
19572TIP3    H180207   3.013   4.094  11.059  0.6581  0.7381  1.0297
19572TIP3    H280208   2.902   4.190  11.021  1.1761  1.7073  1.9292
19573TIP3   OH280209   1.543   5.169   0.111  0.4279 -0.2237 -0.1737
19573TIP3    H180210   1.503   5.134   0.190 -1.4749 -1.4362 -1.6503
19573TIP3    H280211   1.569   5.092   0.061  0.4769  0.5270 -1.3210
19574TIP3   OH280212   2.001   5.204   2.462 -0.0755 -0.0259 -0.2760
19574TIP3    H180213   1.953   5.280   2.494 -0.8383 -0.4562 -0.3929
19574TIP3    H280214   1.976   5.196   2.370  0.2623 -0.2250 -0.3531
19575TIP3   OH280215   3.278   5.157  16.664  0.3609  0.4952  0.4566
19575TIP3    H180216   3.275   5.250  16.685 -1.5593  0.3918  0.7566
19575TIP3    H280217   3.213   5.117  16.723  0.4306 -0.8697 -0.3714
19576TIP3   OH280218   4.924   2.565  13.548 -0.7382  0.9425 -0.0536
19576TIP3    H180219   4.992   2.630  13.534  1.7860 -1.5196  0.3425
19576TIP3    H280220   4.856   2.588  13.484 -0.0881  4.1249  0.3209
19577TIP3   OH280221   1.100   5.418   3.813 -0.2652 -0.3293 -0.2762
19577TIP3    H180222   1.023   5.457   3.772 -0.4932 -0.8087 -0.2949
19577TIP3    H280223   1.131   5.354   3.750  0.0518 -0.2579 -0.1938
19578TIP3   OH280224   5.661   3.210   4.919 -0.1602 -0.0512 -0.2944
19578TIP3    H180225   5.670   3.297   4.958  4.7413 -0.0332 -1.1936
19578TIP3    H280226   5.661   3.226   4.825 -2.6318 -0.8245 -0.4603
19579TIP3   OH280227   0.856   5.860  12.178  0.2923 -0.6013 -0.3288
19579TIP3    H180228   0.909   5.937  12.158  0.1975 -0.7556 -1.2392
19579TIP3    H280229   0.786   5.862  12.113 -2.3629  1.0279  2.4911
19580TIP3   OH280230   5.014   5.776   1.521 -0.0906 -0.3349 -0.3533
19580TIP3    H180231   5.092   5.771   1.576 -0.8650  1.3998  0.9460
19580TIP3    H280232   5.022   5.859   1.474 -0.4372 -0.8525 -1.3563
19581TIP3   OH280233   1.223   6.667  14.841 -0.5417 -0.1479 -0.4246
19581TIP3    H180234   1.179   6.707  14.766 -0.9652  0.8355  0.3254
19581TIP3    H280235   1.312   6.701  14.838 -0.5305 -0.1899 -0.5441
19582TIP3   OH280236   4.190   5.365  13.348  0.2527  0.1006 -0.4699
19582TIP3    H180237   4.145   5.445  13.322 -0.1329  0.2170  0.5368
19582TIP3    H280238   4.265   5.394  13.400  0.1124 -0.1841 -0.1039
19583TIP3   OH280239   1.146   6.482   3.160 -0.0672  0.2782 -0.4661
19583TIP3    H180240   1.207   6.470   3.234 -1.5746 -1.0604  0.5944
19583TIP3    H280241   1.173   6.417   3.096  0.4028  0.5361 -0.5333
19584TIP3   OH280242   5.000   5.561  15.530  0.2588  0.0120 -0.0696
19584TIP3    H180243   4.936   5.599  15.590 -0.0585 -0.3235 -0.1947
19584TIP3    H280244   5.049   5.499  15.584  0.6735  0.4812  0.0949
19585TIP3   OH280245   5.032   5.070   4.617 -1.2122  0.2869 -0.6260
19585TIP3    H180246   4.980   5.050   4.695 -1.8922  0.7581 -0.9505
19585TIP3    H280247   5.123   5.066   4.647 -1.3333 -2.6204 -0.5296
19586TIP3   OH280248   5.922   0.590  16.774 -0.2653 -0.1404  0.4616
19586TIP3    H180249   5.853   0.526  16.793 -0.7899 -0.2192 -1.6191
19586TIP3    H280250   6.004   0.541  16.782 -0.5999 -0.7601  0.0832
19587TIP3   OH280251   2.196   4.158   1.387  0.3534  0.8736  0.0498
19587TIP3    H180252   2.262   4.163   1.318  0.7330  3.7989  0.5564
19587TIP3    H280253   2.156   4.245   1.388 -0.0917  0.6846  3.0669
19588TIP3   OH280254   1.449   1.039  11.217 -0.4204  0.1200  0.3544
19588TIP3    H180255   1.515   1.100  11.183 -0.1120 -0.6430 -0.4620
19588TIP3    H280256   1.484   0.952  11.195 -2.4006 -0.2719 -1.4310
19589TIP3   OH280257   6.050   6.594  11.069 -0.1021  0.2233 -0.2861
19589TIP3    H180258   6.122   6.531  11.071  1.3238  1.7625 -0.7827
19589TIP3    H280259   5.971   6.542  11.058  1.0512 -1.4563 -0.7188
19590TIP3   OH280260   4.775   1.107  16.068  0.0184 -0.3083 -0.5722
19590TIP3    H180261   4.826   1.097  15.987 -3.8630 -3.0622 -2.8428
19590TIP3    H280262   4.685   1.121  16.038 -1.0824  1.4992  3.2938
19591TIP3   OH280263   1.873   4.938   1.082  0.4507  0.0922  0.1212
19591TIP3    H180264   1.902   4.979   1.164 -1.1580  0.3147  0.6009
19591TIP3    H280265   1.834   4.855   1.110 -0.4883  0.3612 -0.3594
19592TIP3   OH280266   2.721   6.685   2.220 -0.1435  0.5200  0.0595
19592TIP3    H180267   2.763   6.674   2.305 -0.0848 -1.0402 -0.1571
19592TIP3    H280268   2.788   6.725   2.165 -0.4175  2.2133  0.9298
19593TIP3   OH280269   3.229   4.443  14.925  0.7027 -0.7881 -0.1608
19593TIP3    H180270   3.220   4.442  14.830  1.0601  1.8585 -0.2642
19593TIP3    H280271   3.140   4.442  14.959  0.5779 -1.7835 -0.5171
19594TIP3   OH280272   0.521   2.427  16.486  1.3108  0.0075  0.8634
19594TIP3    H180273   0.554   2.479  16.413  1.6971  2.4264  2.7152
19594TIP3    H280274   0.433   2.462  16.502  0.6833 -1.4493  0.7026
19595TIP3   OH280275   3.832   0.957   5.510  0.0936  0.5022  0.0941
19595TIP3    H180276   3.809   0.877   5.557  1.0013  0.1348 -0.0716
19595TIP3    H280277   3.752   0.981   5.464 -0.1118 -0.4626 -0.0673
19596TIP3   OH280278   0.231   4.604   6.455  1.2853  0.1487  0.0902
19596TIP3    H180279   0.184   4.529   6.493 -0.8182  1.0939 -0.5550
19596TIP3    H280280   0.319   4.598   6.491  1.1121 -2.5587  0.1577
19597TIP3   OH280281   0.990   2.959  12.933 -0.1391  0.1932 -0.2114
19597TIP3    H180282   0.894   2.956  12.934 -0.1704  1.0319 -0.0310
19597TIP3    H280283   1.013   2.973  12.841 -0.2202  0.6657 -0.1625
19598TIP3   OH280284   5.393   6.392  15.836 -0.2433  0.5821 -0.0421
19598TIP3    H180285   5.427   6.474  15.872 -1.1955 -0.1653  2.6428
19598TIP3    H280286   5.306   6.383  15.876  0.3126 -2.3106  0.5761
19599TIP3   OH280287   5.170   1.997   6.322 -0.0853  0.3481 -0.5917
19599TIP3    H180288   5.162   2.007   6.417 -0.4263  0.8477 -0.6711
19599TIP3    H280289   5.162   2.086   6.288  1.0444  0.2868 -1.0201
19600TIP3   OH280290   1.412   2.382   0.448 -0.0754 -0.1041 -0.3005
19600TIP3    H180291   1.366   2.306   0.484  0.0671 -0.2051 -0.3340
19600TIP3    H280292   1.387   2.383   0.355 -1.8918  1.2037  0.1849
19601TIP3   OH280293   0.719   4.794   0.999 -0.1201 -0.6772 -0.2161
19601TIP3    H180294   0.638   4.826   1.039 -0.2365  0.5105 -1.3877
19601TIP3    H280295   0.788   4.831   1.054 -0.3754 -2.2616  1.1973
19602TIP3   OH280296   3.331   2.921  11.222  0.5818  0.6302  0.4554
19602TIP3    H180297   3.291   2.876  11.148 -0.8259  1.6430  0.5743
19602TIP3    H280298   3.378   2.995  11.183 -1.9429  2.4177  0.7152
19603TIP3   OH280299   5.054   0.791   5.060 -0.7064 -0.3480  0.4603
19603TIP3    H180300   5.112   0.829   5.127  0.9841 -0.3989 -0.9270
19603TIP3    H280301   5.073   0.698   5.061 -1.8392 -0.5764  1.0030
19604TIP3   OH280302   6.809   5.757  12.131  0.1689 -0.2891  0.2832
19604TIP3    H180303   6.785   5.816  12.203  2.0717  0.7902  0.0895
19604TIP3    H280304   6.742   5.688  12.132 -0.6388  0.4887  2.1588
19605TIP3   OH280305   5.081   5.829  11.557 -0.0830 -0.1980 -0.3112
19605TIP3    H180306   5.142   5.788  11.495 -0.8941  2.0900 -2.7054
19605TIP3    H280307   5.002   5.774  11.553 -0.0830 -0.1335 -1.1926
19606TIP3   OH280308   1.314   5.963   2.431  0.3690  0.0349 -0.3295
19606TIP3    H180309   1.340   6.013   2.354 -0.5223 -0.1177 -0.7397
19606TIP3    H280310   1.227   5.930   2.410  0.6948 -1.2045  0.1644
19607TIP3   OH280311   4.006   4.338   5.066  0.0471 -0.1035  0.3810
19607TIP3    H180312   4.060   4.394   5.011  0.6453 -1.4498 -0.4404
19607TIP3    H280313   3.919   4.379   5.064  0.5063  0.8612 -0.0891
19608TIP3   OH280314   5.174   3.180  14.955  0.1640  0.7734 -0.3419
19608TIP3    H180315   5.135   3.243  15.016  2.7846  1.4694  0.6621
19608TIP3    H280316   5.111   3.176  14.882 -2.0788  1.3640  1.4998
19609TIP3   OH280317   3.715   0.316  11.572  0.1483 -0.3192  0.2012
19609TIP3    H180318   3.686   0.266  11.649 -0.2240 -0.7752 -0.2265
19609TIP3    H280319   3.811   0.315  11.577  0.1200 -0.1257  0.7963
19610TIP3   OH280320   2.938   3.415  11.499  0.3134  0.1961 -0.6752
19610TIP3    H180321   2.966   3.439  11.410 -0.3892  1.3163 -0.5989
19610TIP3    H280322   2.931   3.498  11.545 -0.1099 -0.3264  0.2109
19611TIP3   OH280323   5.729   2.004   0.551  0.7116  0.1088 -0.2797
19611TIP3    H180324   5.654   2.063   0.543  0.4222 -0.1146  0.7549
19611TIP3    H280325   5.755   2.011   0.642  0.6797 -1.3709 -0.1486
19612TIP3   OH280326   4.169   3.538  10.777  0.4004  0.8825  0.3029
19612TIP3    H180327   4.206   3.622  10.805  3.3132  0.0639 -0.9209
19612TIP3    H280328   4.236   3.473  10.800 -0.8457 -0.8471 -0.7750
19613TIP3   OH280329   1.196   5.064   2.252 -0.4595  0.3801 -0.0382
19613TIP3    H180330   1.127   5.115   2.209 -1.9693 -0.7953  0.9282
19613TIP3    H280331   1.195   5.095   2.343 -2.0331 -1.9467  0.7911
19614TIP3   OH280332   0.822   2.498   5.584 -0.7820  0.0599 -0.2732
19614TIP3    H180333   0.869   2.575   5.551  1.1915 -0.1225  2.0529
19614TIP3    H280334   0.870   2.423   5.547 -0.2555 -0.1031  0.7363
19615TIP3   OH280335   5.100   4.657  15.421  0.2317  0.4151  0.3815
19615TIP3    H180336   5.127   4.620  15.337  0.0423 -0.3736  0.6580
19615TIP3    H280337   5.011   4.622  15.435  0.7661 -0.5313  1.5226
19616TIP3   OH280338   3.956   4.520   5.303  0.0750  0.1257 -0.7169
19616TIP3    H180339   4.045   4.554   5.296  0.1175  0.2069  0.1454
19616TIP3    H280340   3.900   4.592   5.273  0.3469 -0.2996 -2.2831
19617TIP3   OH280341   1.437   4.529   0.751 -0.5365 -0.0135  0.6191
19617TIP3    H180342   1.506   4.586   0.716 -2.2269  1.7701  0.0798
19617TIP3    H280343   1.386   4.503   0.674 -1.9650  0.7627  1.2909
19618TIP3   OH280344   0.937   5.318   0.180  0.3075  0.5357  0.2793
19618TIP3    H180345   0.917   5.225   0.192  2.9343 -0.1344 -0.2349
19618TIP3    H280346   0.951   5.351   0.269  0.4487  0.1574  0.3990
19619TIP3   OH280347   1.567   3.298   2.618  0.2594  0.0696  0.0700
19619TIP3    H180348   1.568   3.381   2.569  1.0859  0.9386  1.5337
19619TIP3    H280349   1.622   3.240   2.566  2.4411  1.4677  0.7674
19620TIP3   OH280350   1.638   6.637   4.784  0.1968 -0.0711 -0.2124
19620TIP3    H180351   1.668   6.561   4.735 -0.5260  0.2745 -1.2014
19620TIP3    H280352   1.683   6.711   4.744  0.3749  0.0994  0.3032
19621TIP3   OH280353   2.928   4.379   2.411  0.3054  0.5726 -0.6374
19621TIP3    H180354   2.881   4.428   2.343 -2.1437  0.3976  0.8602
19621TIP3    H280355   2.900   4.288   2.398 -0.5540  0.6113  0.8773
19622TIP3   OH280356   1.263   5.442   6.039 -0.2646 -0.0676 -0.4709
19622TIP3    H180357   1.234   5.410   6.125  0.3587  0.7906  0.0673
19622TIP3    H280358   1.356   5.418   6.035 -0.3629 -0.3681 -1.0409
19623TIP3   OH280359   3.032   6.470  16.190  0.5630  0.5005 -0.3427
19623TIP3    H180360   2.950   6.436  16.225  0.5107  1.3106  0.3338
19623TIP3    H280361   3.062   6.533  16.256  1.8492  0.0294 -0.4710
19624TIP3   OH280362   3.315   2.455   1.903  0.1081 -0.3508  0.6515
19624TIP3    H180363   3.290   2.369   1.938 -0.9568 -0.3303 -0.0502
19624TIP3    H280364   3.371   2.434   1.828 -0.1007 -0.4444  0.5183
19625TIP3   OH280365   0.567   0.751   4.455  0.1129 -0.0722 -0.4838
19625TIP3    H180366   0.493   0.691   4.459  0.8689 -0.9766  0.1797
19625TIP3    H280367   0.533   0.829   4.411 -1.2141 -0.4906 -0.2012
19626TIP3   OH280368   6.535   0.879   1.437  0.0084 -0.3272 -0.7033
19626TIP3    H180369   6.621   0.881   1.395  0.4654  0.3330  0.2412
19626TIP3    H280370   6.477   0.925   1.375  0.4806 -0.1685 -1.0312
19627TIP3   OH280371   3.449   1.493   2.608  0.3628  0.2327  0.0147
19627TIP3    H180372   3.429   1.583   2.634  0.1687 -0.3117  1.8451
19627TIP3    H280373   3.371   1.464   2.560 -0.8871  0.0487  2.0778
19628TIP3   OH280374   5.160   1.430  15.751 -0.4573 -0.4668 -0.2418
19628TIP3    H180375   5.197   1.394  15.832 -1.4897 -0.8605  0.0554
19628TIP3    H280376   5.196   1.519  15.746 -1.3422 -0.0077  1.2758
19629TIP3   OH280377   6.097   5.361  13.448 -0.1004  0.1225  0.0162
19629TIP3    H180378   6.014   5.406  13.466  0.3984  0.7037  0.9208
19629TIP3    H280379   6.084   5.272  13.481 -0.2844  0.2823  0.3752
19630TIP3   OH280380   4.699   3.602  12.712  0.5370 -0.1241  0.3625
19630TIP3    H180381   4.625   3.656  12.740 -0.6211 -1.0308 -0.9039
19630TIP3    H280382   4.713   3.626  12.620 -0.4416 -2.4207 -0.4386
19631TIP3   OH280383   1.143   5.244   5.019 -0.7468  0.3119  0.4838
19631TIP3    H180384   1.127   5.178   4.951 -2.3583 -1.4768  2.5315
19631TIP3    H280385   1.151   5.327   4.970  1.1644 -1.3227 -2.1107
19632TIP3   OH280386   0.916   5.107   4.600 -0.8417 -0.3284 -0.0789
19632TIP3    H180387   0.951   5.076   4.683 -0.8092  0.2646  0.1281
19632TIP3    H280388   0.988   5.097   4.538 -1.1852 -1.7602 -0.2776
19633TIP3   OH280389   0.862   2.745  10.645  0.1992  0.9564 -0.1012
19633TIP3    H180390   0.803   2.728  10.572  0.6443  1.2743 -0.5370
19633TIP3    H280391   0.949   2.729  10.609  0.4234  1.1427  0.3557
19634TIP3   OH280392   6.444   6.765   5.979 -0.2798  0.5490 -0.5746
19634TIP3    H180393   6.492   6.716   6.046  1.0338 -0.3019 -2.1133
19634TIP3    H280394   6.421   6.848   6.022 -0.1021 -0.2842  1.1604
19635TIP3   OH280395   2.039   5.365  12.336  0.1834  0.0797  0.3657
19635TIP3    H180396   2.025   5.451  12.374 -0.0690 -1.0938  3.0892
19635TIP3    H280397   2.133   5.350  12.344  0.0831 -0.3083  0.9280
19636TIP3   OH280398   1.692   1.874  12.398 -0.5167  0.1041  0.0283
19636TIP3    H180399   1.695   1.806  12.331  0.0723  0.9209 -0.7730
19636TIP3    H280400   1.620   1.847  12.456  0.5559 -1.8946  0.4780
19637TIP3   OH280401   3.080   2.268  12.198  0.5848  0.1707 -0.5794
19637TIP3    H180402   3.077   2.342  12.259  0.0027 -0.9613  0.8064
19637TIP3    H280403   3.170   2.237  12.203  0.2800 -0.5708  0.5321
19638TIP3   OH280404   3.312   1.953   1.718  0.4295  0.1237 -0.4547
19638TIP3    H180405   3.394   1.922   1.677  1.2950  0.4549  0.9920
19638TIP3    H280406   3.270   2.005   1.649  1.3033 -0.2777 -1.3129
19639TIP3   OH280407   5.031   6.450   5.821  0.1427 -0.3514 -0.2495
19639TIP3    H180408   4.970   6.407   5.881  1.7020 -1.2956  0.6628
19639TIP3    H280409   5.098   6.488   5.878  0.6109  0.3814 -1.2785
19640TIP3   OH280410   1.027   0.011  16.417 -0.0755 -0.4552  0.1490
19640TIP3    H180411   1.082   0.084  16.392 -1.4215  0.3476 -0.5556
19640TIP3    H280412   0.983   0.040  16.498  1.5874 -1.6467  1.5061
19641TIP3   OH280413   6.435   5.879   1.836  0.2047 -0.4032  0.7595
19641TIP3    H180414   6.523   5.916   1.825  0.2093 -0.3104  1.0979
19641TIP3    H280415   6.450   5.786   1.849  0.1445 -0.6522 -0.8939
19642TIP3   OH280416   2.071   0.506   2.874 -0.1407  0.2353 -0.0586
19642TIP3    H180417   2.099   0.506   2.965  1.7563  0.5385 -0.6194
19642TIP3    H280418   1.995   0.448   2.872 -0.7692  0.9508  1.8690
19643TIP3   OH280419   3.439   1.949  15.970 -0.1523  0.3584 -0.3084
19643TIP3    H180420   3.445   2.044  15.980 -3.1266  0.3212  2.2403
19643TIP3    H280421   3.491   1.914  16.042  0.2358  0.0127 -0.7481
19644TIP3   OH280422   4.034   0.684  11.420  0.0701 -0.3904  0.1303
19644TIP3    H180423   4.034   0.593  11.392  0.9209 -0.5334  0.5776
19644TIP3    H280424   4.106   0.724  11.372  0.4200 -0.2291  0.7759
19645TIP3   OH280425   5.182   2.799   1.218  0.0751 -0.0372 -0.3965
19645TIP3    H180426   5.275   2.812   1.201  0.2116  0.2170  0.5017
19645TIP3    H280427   5.138   2.828   1.138  0.6930  1.0078 -0.3550
19646TIP3   OH280428   1.862   5.517   4.014 -0.0143  0.2610  0.1573
19646TIP3    H180429   1.853   5.612   4.023 -1.3702  0.1294  0.2014
19646TIP3    H280430   1.952   5.499   4.042 -0.3821  1.2900  2.0814
19647TIP3   OH280431   5.078   3.637   3.574  0.0658 -0.2449 -0.0900
19647TIP3    H180432   5.046   3.718   3.613  1.1371 -0.1544  0.6430
19647TIP3    H280433   5.042   3.568   3.630  0.0172 -0.2162 -0.0861
19648TIP3   OH280434   0.932   5.860   3.523 -0.5536 -0.2229 -0.1976
19648TIP3    H180435   0.847   5.817   3.528 -0.3271 -0.5667  0.8545
19648TIP3    H280436   0.912   5.953   3.511 -1.1651  0.0831  2.6747
19649TIP3   OH280437   1.482   4.195  15.725  0.1379  0.1943  0.2733
19649TIP3    H180438   1.469   4.126  15.660 -1.5976 -0.1460  0.9256
19649TIP3    H280439   1.554   4.164  15.779  1.2377  0.2289 -1.1541
19650TIP3   OH280440   2.508   1.342  16.629 -0.0181  0.5390 -0.1967
19650TIP3    H180441   2.523   1.434  16.652  1.3997  0.6161 -1.3626
19650TIP3    H280442   2.529   1.293  16.709 -0.5001  1.2021  0.3417
19651TIP3   OH280443   2.272   3.711   2.545  0.2133 -0.2053  0.0769
19651TIP3    H180444   2.236   3.723   2.457  1.3784 -0.9742 -0.5127
19651TIP3    H280445   2.303   3.798   2.570 -0.8014  0.1714  0.0339
19652TIP3   OH280446   2.942   1.906  15.150  0.5571 -0.4936 -0.3014
19652TIP3    H180447   2.885   1.933  15.078 -0.5976 -0.3092  0.6690
19652TIP3    H280448   2.989   1.829  15.116  1.2642  0.5867 -1.8291
19653TIP3   OH280449   4.414   5.382  15.493 -0.1087  0.5150 -1.2898
19653TIP3    H180450   4.342   5.360  15.553 -1.5424  1.4433 -2.6308
19653TIP3    H280451   4.474   5.308  15.500 -0.4164  0.4274  1.0124
19654TIP3   OH280452   5.971   2.106  14.714  0.0074  0.1761 -0.8273
19654TIP3    H180453   5.994   2.198  14.730 -0.1811 -0.0830  1.0156
19654TIP3    H280454   5.961   2.101  14.619 -1.2032  2.3491 -0.8645
19655TIP3   OH280455   0.176   5.956  16.513  0.1180  0.2406 -0.1444
19655TIP3    H180456   0.147   5.866  16.526  2.2538 -0.7557 -1.8514
19655TIP3    H280457   0.270   5.953  16.531  0.0046  2.3989  0.9362
19656TIP3   OH280458   1.625   3.559   5.772  0.6796  0.2161  0.0607
19656TIP3    H180459   1.547   3.505   5.782  2.7891 -2.5557  2.6287
19656TIP3    H280460   1.649   3.584   5.861  3.2882  0.1096 -0.5533
19657TIP3   OH280461   4.718   3.066   3.039  0.0049 -0.1284 -0.1363
19657TIP3    H180462   4.800   3.095   3.078 -1.0745  0.4552  1.7719
19657TIP3    H280463   4.699   3.131   2.972 -0.6612  1.7469  1.8107
19658TIP3   OH280464   2.932   4.374   3.306  0.3006  0.0556  0.1830
19658TIP3    H180465   3.020   4.413   3.299  0.7495 -0.9205  0.3670
19658TIP3    H280466   2.947   4.288   3.345 -0.6463 -0.4971 -0.6640
19659TIP3   OH280467   1.100   0.932  13.792  0.7009 -0.0038 -0.0488
19659TIP3    H180468   1.044   0.976  13.855 -1.0707 -1.5878 -0.4698
19659TIP3    H280469   1.186   0.972  13.805 -0.6066  2.8456  0.2228
19660TIP3   OH280470   1.602   3.070   5.473  0.3746  0.9129  0.7244
19660TIP3    H180471   1.672   3.131   5.452  0.3380  0.3925 -0.9875
19660TIP3    H280472   1.521   3.117   5.451  0.3238  0.4837 -0.0424
19661TIP3   OH280473   2.463   5.591  17.149 -0.0358 -0.2525 -0.0271
19661TIP3    H180474   2.441   5.637  17.231 -1.9934 -0.4492 -0.4285
19661TIP3    H280475   2.383   5.595  17.097 -0.1341 -3.7962 -0.2463
19662TIP3   OH280476   0.933   5.252  12.861  0.4775 -0.8294 -0.0510
19662TIP3    H180477   0.872   5.206  12.805  0.4969  2.1922 -2.7175
19662TIP3    H280478   1.020   5.227  12.828  0.5514 -1.1886  0.4163
19663TIP3   OH280479   2.790   6.366  15.798  0.4325 -0.2285  0.1441
19663TIP3    H180480   2.722   6.357  15.731  1.0490 -2.2249 -0.2441
19663TIP3    H280481   2.871   6.338  15.755  1.1099  0.0219  1.2407
19664TIP3   OH280482   3.140   3.092  15.631  0.9389  0.1665  0.1901
19664TIP3    H180483   3.106   3.100  15.720 -0.5758 -2.6284 -0.0866
19664TIP3    H280484   3.071   3.128  15.576  1.5106  1.0798  0.0452
19665TIP3   OH280485   0.545   3.484  16.178 -0.1718  0.1013  0.3200
19665TIP3    H180486   0.606   3.417  16.148 -0.0598  0.1784  0.3733
19665TIP3    H280487   0.501   3.444  16.253 -0.2228  0.0270  0.2473
19666TIP3   OH280488   0.105   1.130   5.516 -0.3249 -0.0908 -0.1041
19666TIP3    H180489   0.129   1.134   5.609 -1.0569 -1.4795  0.1622
19666TIP3    H280490   0.147   1.207   5.477  1.9223 -0.7376  0.9311
19667TIP3   OH280491   3.644   6.312   1.505 -0.9582  0.1167 -0.1372
19667TIP3    H180492   3.633   6.352   1.419 -0.0464 -2.5834 -1.5792
19667TIP3    H280493   3.724   6.260   1.496 -0.9528 -0.3280  2.3051
19668TIP3   OH280494   6.316   4.211  11.439 -0.0385 -0.0729  0.0953
19668TIP3    H180495   6.389   4.248  11.488 -1.5462  1.4144  1.2749
19668TIP3    H280496   6.280   4.143  11.497 -1.2888  1.1017  0.7250
19669TIP3   OH280497   4.416   3.651  16.155  0.1343 -0.2403  0.2315
19669TIP3    H180498   4.455   3.564  16.149  0.6657 -0.0140  0.3104
19669TIP3    H280499   4.351   3.644  16.225 -0.2698 -0.7339 -0.1931
19670TIP3   OH280500   6.257   1.079   4.514 -0.3103 -0.5672  0.2016
19670TIP3    H180501   6.210   1.024   4.577  1.2067 -1.7204  0.3575
19670TIP3    H280502   6.330   1.115   4.564  0.8742 -1.4469 -0.8855
19671TIP3   OH280503   4.522   4.966  15.984 -0.3871 -0.0412 -0.6263
19671TIP3    H180504   4.523   4.982  15.890  1.8750  0.0812 -0.6123
19671TIP3    H280505   4.611   4.935  16.004 -0.4175  1.2469  1.6632
19672TIP3   OH280506   1.958   5.387  11.346  0.0760 -0.2372  0.2013
19672TIP3    H180507   1.879   5.356  11.301 -0.5481 -0.5812  1.5060
19672TIP3    H280508   2.003   5.307  11.373  0.1972 -0.0337  0.6037
19673TIP3   OH280509   5.903   1.449   1.888 -0.0599  0.5089 -0.4451
19673TIP3    H180510   5.809   1.440   1.905  0.1108 -0.0068  0.2623
19673TIP3    H280511   5.910   1.456   1.793 -0.7275 -0.5502 -0.5854
19674TIP3   OH280512   6.798   6.107  11.727  0.4331  0.2241  0.8602
19674TIP3    H180513   6.811   6.187  11.776  0.6075 -0.6638  2.2855
19674TIP3    H280514   6.728   6.061  11.773  2.2013 -1.7124  1.7151
19675TIP3   OH280515   6.115   0.218  16.483  0.1544  0.0604 -0.1528
19675TIP3    H180516   6.205   0.236  16.456  1.0483 -1.3305  1.7318
19675TIP3    H280517   6.124   0.165  16.562 -2.3185  1.4026  1.1052
19676TIP3   OH280518   0.559   4.580   5.420 -0.2706 -0.2448 -0.3970
19676TIP3    H180519   0.524   4.656   5.374  0.1701 -0.7473 -1.6111
19676TIP3    H280520   0.482   4.534   5.453 -0.4330  2.0120  2.4959
19677TIP3   OH280521   4.572   6.297  17.250  0.0103 -0.6144 -0.3280
19677TIP3    H180522   4.599   6.378  17.206  2.5672 -1.4994 -0.4624
19677TIP3    H280523   4.577   6.230  17.182 -1.5183 -1.0150 -0.0611
19678TIP3   OH280524   1.895   1.828  12.634 -0.0429  0.1048 -0.1618
19678TIP3    H180525   1.844   1.783  12.701 -1.2715  2.3911  0.4684
19678TIP3    H280526   1.835   1.837  12.560  0.4319  0.0872 -0.5553
19679TIP3   OH280527   5.310   4.209  12.619 -0.1062 -0.6441  0.5292
19679TIP3    H180528   5.271   4.159  12.547  0.4245 -0.3905  0.0578
19679TIP3    H280529   5.262   4.181  12.697 -0.1651 -1.4968  0.1897
19680TIP3   OH280530   0.685   1.579   0.773  0.2611  0.0153 -0.1695
19680TIP3    H180531   0.712   1.635   0.846 -0.1704  0.1718 -0.1269
19680TIP3    H280532   0.624   1.633   0.723 -0.6911 -0.6479  0.2519
19681TIP3   OH280533   0.046   2.356   2.112 -0.5231 -0.1216  0.9848
19681TIP3    H180534   0.078   2.372   2.201  0.2866 -2.4601  1.1331
19681TIP3    H280535   0.002   2.271   2.117 -0.2285 -0.4018 -0.9153
19682TIP3   OH280536   1.815   6.298  11.309 -0.3422 -0.0112 -0.0830
19682TIP3    H180537   1.786   6.230  11.248  1.0813  0.2572 -1.0843
19682TIP3    H280538   1.783   6.379  11.270 -1.3735 -0.0239  0.7113
19683TIP3   OH280539   2.440   0.300   5.034  0.7820 -0.0544  0.9161
19683TIP3    H180540   2.498   0.306   4.959  1.7037  1.2455  1.7205
19683TIP3    H280541   2.485   0.240   5.094  0.2700 -0.7231  0.6381
19684TIP3   OH280542   4.712   5.184   6.396  0.4150  0.2263  0.2184
19684TIP3    H180543   4.750   5.109   6.350  1.1477  2.0578 -2.2953
19684TIP3    H280544   4.787   5.229   6.435  0.0684  0.0528  1.0817
19685TIP3   OH280545   6.310   4.342   2.056 -0.2757  0.5511  0.0729
19685TIP3    H180546   6.310   4.246   2.048  1.3503  0.4148  1.4562
19685TIP3    H280547   6.222   4.368   2.030 -0.4673 -1.2464 -1.1734
19686TIP3   OH280548   5.063   1.970  16.542 -0.2468  0.0378 -0.2488
19686TIP3    H180549   5.053   1.874  16.545  1.0777 -0.1195 -0.1845
19686TIP3    H280550   5.158   1.983  16.544 -0.4246  1.3592 -0.3142
19687TIP3   OH280551   2.565   5.336  17.078  0.0088 -0.2450 -0.0545
19687TIP3    H180552   2.520   5.317  17.160 -0.8994 -1.8888 -0.9118
19687TIP3    H280553   2.542   5.427  17.059  0.1518  0.1187  1.4551
19688TIP3   OH280554   2.102   1.065  15.287 -0.1209  0.4379 -0.4869
19688TIP3    H180555   2.184   1.113  15.294  0.1198  0.1844 -1.5265
19688TIP3    H280556   2.107   1.020  15.203 -1.4640  0.6894 -0.7222
19689TIP3   OH280557   4.658   2.333   2.176 -0.1668  0.2560  0.3710
19689TIP3    H180558   4.683   2.341   2.268 -2.1961  2.0850  0.8147
19689TIP3    H280559   4.583   2.274   2.176 -0.6340  0.8431 -0.0062
19690TIP3   OH280560   6.239   5.489  11.932  0.4447  0.1906 -0.3661
19690TIP3    H180561   6.267   5.481  12.023  1.7677  0.1621 -0.7649
19690TIP3    H280562   6.295   5.558  11.896  1.1559 -1.0403 -1.6283
19691TIP3   OH280563   3.051   1.532  11.590 -0.6151  0.5137 -0.2522
19691TIP3    H180564   3.061   1.569  11.502 -1.3699 -0.4869 -0.7687
19691TIP3    H280565   3.114   1.460  11.593 -0.4483  0.6744  0.0981
19692TIP3   OH280566   6.796   0.670   0.857  0.5664  0.1734  0.1761
19692TIP3    H180567   6.773   0.584   0.892  2.8352  0.2051  1.8569
19692TIP3    H280568   6.891   0.667   0.846  0.5658  2.1638 -0.5862
19693TIP3   OH280569   3.146   5.348   1.267  0.3997  0.1303  0.0433
19693TIP3    H180570   3.066   5.390   1.234  1.5356  1.0911 -1.6029
19693TIP3    H280571   3.209   5.420   1.272  1.4525 -0.8117  0.3280
19694TIP3   OH280572   5.199   0.686  15.123 -0.0353 -0.7056 -0.4966
19694TIP3    H180573   5.127   0.636  15.161  0.2289 -1.2265 -0.6687
19694TIP3    H280574   5.157   0.753  15.070 -0.3939 -0.7417 -0.2631
19695TIP3   OH280575   5.216   3.513  15.474 -0.1644  0.0142  0.5684
19695TIP3    H180576   5.209   3.455  15.397 -1.3035  1.0168 -0.1020
19695TIP3    H280577   5.309   3.536  15.478 -0.1895  0.4229 -0.8747
19696TIP3   OH280578   6.361   0.703   1.167 -0.0322  0.7332  0.3362
19696TIP3    H180579   6.317   0.655   1.097  2.8186 -1.9785  0.3097
19696TIP3    H280580   6.407   0.773   1.123  1.0259 -0.4299 -0.4270
19697TIP3   OH280581   2.781   1.619   2.469  0.0220  0.1212  0.6655
19697TIP3    H180582   2.862   1.654   2.505  0.9397 -1.4361  0.1437
19697TIP3    H280583   2.805   1.535   2.432 -1.0882  1.2164 -2.7242
19698TIP3   OH280584   6.511   0.715  16.612 -0.5905 -0.3902 -0.6206
19698TIP3    H180585   6.519   0.659  16.690 -2.8008 -0.0148 -0.0889
19698TIP3    H280586   6.597   0.711  16.571 -0.1165 -2.6065  0.4853
19699TIP3   OH280587   2.545   0.626  15.327  0.2610  0.1938  0.4196
19699TIP3    H180588   2.514   0.597  15.241  0.6777 -0.3010  0.4295
19699TIP3    H280589   2.614   0.563  15.350 -0.8207 -0.5563  1.7481
19700TIP3   OH280590   1.682   2.064   4.585  0.0350  0.7935  0.8115
19700TIP3    H180591   1.753   2.111   4.540  0.1817 -0.0980  0.1091
19700TIP3    H280592   1.715   1.975   4.596 -1.8439 -0.2513 -1.5884
19701TIP3   OH280593   4.951   5.925   4.775 -0.3824  0.0957 -0.7176
19701TIP3    H180594   4.959   6.019   4.796 -0.4662 -0.3729  1.5038
19701TIP3    H280595   4.889   5.922   4.703 -0.8137  1.7227 -0.4377
19702TIP3   OH280596   4.529   0.879   6.092  0.4954  0.1161 -0.1224
19702TIP3    H180597   4.542   0.829   6.173 -1.0044  0.4706  0.3654
19702TIP3    H280598   4.567   0.965   6.111  0.4373  0.0958  0.0913
19703TIP3   OH280599   3.726   0.501   6.394 -0.1972  0.1289 -0.0029
19703TIP3    H180600   3.791   0.495   6.323  0.8021  1.2536  0.7949
19703TIP3    H280601   3.654   0.446   6.365  1.5255 -1.9314 -0.4648
19704TIP3   OH280602   3.901   4.094   0.029  0.3333 -0.7451 -0.0669
19704TIP3    H180603   3.876   4.005   0.057 -0.5744 -0.0170  1.4837
19704TIP3    H280604   3.858   4.104  -0.056 -2.3755 -0.5806  1.2668
19705TIP3   OH280605   6.490   1.653  14.641 -0.1760 -0.6338  0.2481
19705TIP3    H180606   6.568   1.616  14.600 -0.6475  0.4718 -1.7302
19705TIP3    H280607   6.514   1.664  14.733  2.0672 -0.1499 -0.3625
19706TIP3   OH280608   3.906   5.222   1.282 -0.2807 -0.3585 -0.3700
19706TIP3    H180609   3.826   5.256   1.321  0.5827  2.4833 -0.9122
19706TIP3    H280610   3.887   5.216   1.188  0.0151  0.0124 -0.4572
19707TIP3   OH280611   0.743   6.507  14.399  0.0274 -0.3340 -0.1600
19707TIP3    H180612   0.707   6.582  14.351 -0.5808 -1.2813 -1.2233
19707TIP3    H280613   0.763   6.443  14.331  1.4762 -0.7610  0.6542
19708TIP3   OH280614   0.870   2.980  14.291 -0.3086  0.2534  0.2482
19708TIP3    H180615   0.793   2.927  14.312  0.8549 -0.8190  1.9265
19708TIP3    H280616   0.836   3.048  14.232 -2.8324  0.6451  2.0443
19709TIP3   OH280617   0.441   5.999  12.430  0.3043  0.1022  0.2403
19709TIP3    H180618   0.393   5.921  12.404 -0.2599  0.9035 -1.2002
19709TIP3    H280619   0.518   6.000  12.373  0.7240  0.1670  0.8047
19710TIP3   OH280620   3.034   6.138   4.714  0.5277  0.7957 -0.4614
19710TIP3    H180621   3.059   6.178   4.797  2.4588 -1.7353  0.2439
19710TIP3    H280622   2.950   6.177   4.692  0.5072  2.2710  2.1460
19711TIP3   OH280623   1.119   2.436  10.543 -0.3175  0.9342 -0.4283
19711TIP3    H180624   1.132   2.530  10.527 -1.6062  0.9860 -1.2365
19711TIP3    H280625   1.032   2.418  10.508 -0.3101 -0.4486  0.2520
19712TIP3   OH280626   4.974   0.748  13.155 -0.2436  0.1796 -0.1473
19712TIP3    H180627   4.974   0.685  13.226  1.9843 -1.3473 -1.4441
19712TIP3    H280628   4.888   0.738  13.113 -0.6505 -0.5682  0.8514
19713TIP3   OH280629   0.764   3.273   4.669  0.1331  0.4651 -0.6694
19713TIP3    H180630   0.738   3.353   4.715 -2.9112 -1.0765  0.4574
19713TIP3    H280631   0.775   3.208   4.738  2.4474 -0.1538 -1.5815
19714TIP3   OH280632   2.749   2.626   0.181  0.0102  0.1790 -0.3569
19714TIP3    H180633   2.811   2.699   0.184 -0.1176  0.3907 -2.2419
19714TIP3    H280634   2.796   2.556   0.135 -0.4248 -0.3743  0.0365
19715TIP3   OH280635   0.230   6.222  14.749 -0.3993  0.4359 -0.1023
19715TIP3    H180636   0.297   6.230  14.816 -0.2570 -0.0378 -0.1842
19715TIP3    H280637   0.254   6.144  14.699 -0.8802  0.3920 -0.2773
19716TIP3   OH280638   5.119   3.637   2.663  0.4860  0.2559  0.0854
19716TIP3    H180639   5.084   3.548   2.659 -2.5523  1.3595  0.9636
19716TIP3    H280640   5.166   3.640   2.746 -0.0836 -0.2742  0.4294
19717TIP3   OH280641   3.915   0.961   1.637 -0.2347  0.1233  0.3669
19717TIP3    H180642   3.932   0.982   1.729 -0.6651  1.2172  0.2066
19717TIP3    H280643   3.828   0.922   1.637  0.4845 -1.5163  0.6408
19718TIP3   OH280644   4.566   5.370  17.016  0.0655 -0.2218  0.3379
19718TIP3    H180645   4.513   5.422  16.954  0.9155  0.0374 -0.1785
19718TIP3    H280646   4.501   5.329  17.073 -0.8402 -1.5422 -1.5493
19719TIP3   OH280647   1.192   1.598   0.230 -0.7102  0.2596 -0.3044
19719TIP3    H180648   1.123   1.539   0.202 -0.1704 -1.1833  1.3658
19719TIP3    H280649   1.146   1.668   0.277 -1.1471  0.0679 -0.4412
19720TIP3   OH280650   3.390   4.294   0.605 -0.1277  0.4779 -0.1411
19720TIP3    H180651   3.355   4.369   0.654  1.1039  1.4143 -0.6479
19720TIP3    H280652   3.428   4.238   0.672 -1.4428  0.0758  0.2875
19721TIP3   OH280653   1.034   0.496  14.989 -0.2907  0.5826 -0.4669
19721TIP3    H180654   1.049   0.523  15.079 -1.9563 -0.9458  0.3014
19721TIP3    H280655   0.940   0.503  14.976 -0.1524  0.1482 -1.8875
19722TIP3   OH280656   1.546   4.742  10.699 -0.1195  0.1813 -0.1332
19722TIP3    H180657   1.548   4.650  10.673 -2.1640  0.0410  0.1263
19722TIP3    H280658   1.564   4.790  10.618  0.6782 -0.4314 -0.3256
19723TIP3   OH280659   5.799   4.422  14.099 -0.5972 -0.6991  0.4999
19723TIP3    H180660   5.853   4.489  14.058 -1.2344 -0.4550  0.0517
19723TIP3    H280661   5.860   4.352  14.120 -0.5735 -1.8005 -2.8838
19724TIP3   OH280662   1.517   2.886  15.006 -0.2067 -0.0224 -0.1264
19724TIP3    H180663   1.460   2.940  14.951 -0.9180 -0.3968  0.2351
19724TIP3    H280664   1.500   2.917  15.095 -0.8858 -1.0767  0.1195
19725TIP3   OH280665   3.483   1.632   6.147 -0.2415 -0.4304  0.3974
19725TIP3    H180666   3.400   1.672   6.170 -0.4896 -0.6134 -0.1822
19725TIP3    H280667   3.549   1.684   6.194 -0.7419 -0.7995  1.5174
19726TIP3   OH280668   0.739   5.639  11.458  0.1288 -0.0697  0.0505
19726TIP3    H180669   0.712   5.647  11.367  1.5812  0.2345 -0.3611
19726TIP3    H280670   0.810   5.702  11.468  0.6866 -0.8436  1.0986
19727TIP3   OH280671   0.825   4.025  14.468  0.8247 -0.0619  0.1407
19727TIP3    H180672   0.782   3.990  14.390  1.4320  2.3673 -1.3423
19727TIP3    H280673   0.919   4.014  14.450  0.9614  0.0429  0.7745
19728TIP3   OH280674   5.429   3.484  13.523  0.2868  0.2409 -0.0589
19728TIP3    H180675   5.360   3.535  13.566  0.8224  0.2556  0.7916
19728TIP3    H280676   5.489   3.460  13.594  0.8516 -0.2693 -0.7014
19729TIP3   OH280677   0.713   2.788  14.950 -0.1126  0.1370  0.1923
19729TIP3    H180678   0.802   2.760  14.970  0.1642  0.5750 -0.3958
19729TIP3    H280679   0.719   2.884  14.947 -1.3343  0.3973  3.5896
19730TIP3   OH280680   0.427   4.048  12.571 -0.2307 -0.0390  0.0573
19730TIP3    H180681   0.478   4.116  12.527  0.3846 -0.3978  0.2068
19730TIP3    H280682   0.340   4.085  12.580  0.1130  0.7464  0.1670
19731TIP3   OH280683   4.391   2.835   1.385  0.3383  0.4231 -0.5376
19731TIP3    H180684   4.350   2.915   1.418 -0.3117  0.2210 -0.8507
19731TIP3    H280685   4.324   2.796   1.329  0.4744 -0.5895 -0.0035
19732TIP3   OH280686   4.219   1.113  12.154 -0.1850  0.8546 -0.4976
19732TIP3    H180687   4.147   1.176  12.153 -2.6987 -1.9530 -0.6894
19732TIP3    H280688   4.220   1.079  12.244  0.2216  0.1154 -0.7729
19733TIP3   OH280689   1.604   3.465   0.942  0.6537 -0.1362  0.4068
19733TIP3    H180690   1.599   3.370   0.936  1.7566 -0.3780  2.9272
19733TIP3    H280691   1.562   3.486   1.025  0.5011  1.5835 -0.0822
19734TIP3   OH280692   4.677   0.797   3.914  0.3174 -0.2738 -0.6585
19734TIP3    H180693   4.605   0.850   3.948 -1.2549 -1.8688 -1.4509
19734TIP3    H280694   4.749   0.860   3.903 -0.6616  1.1777  0.9462
19735TIP3   OH280695   3.077   0.586   5.759  0.0380 -0.0509  0.5260
19735TIP3    H180696   3.051   0.505   5.802  0.6679 -0.6357 -0.1896
19735TIP3    H280697   2.998   0.616   5.713 -0.3939  0.1277  1.3710
19736TIP3   OH280698   5.624   4.508  14.318  0.9761 -0.7547  0.0705
19736TIP3    H180699   5.673   4.482  14.240  0.8444  0.4157 -0.4200
19736TIP3    H280700   5.536   4.530  14.284  0.1329 -2.7242  0.9166
19737TIP3   OH280701   4.387   5.529   2.304  0.7162 -0.3231 -0.0114
19737TIP3    H180702   4.358   5.619   2.318  1.2344 -0.2967  0.9505
19737TIP3    H280703   4.417   5.528   2.213  0.5901  0.4462 -0.0688
19738TIP3   OH280704   4.433   3.048  14.141  0.5490  0.0019  0.4854
19738TIP3    H180705   4.371   3.116  14.167 -0.6094 -0.9739  0.3116
19738TIP3    H280706   4.442   2.993  14.219  3.5028  1.7911  1.5100
19739TIP3   OH280707   2.345   2.256   2.571  0.3492 -0.0819  0.1365
19739TIP3    H180708   2.303   2.283   2.653  1.2068  2.5458 -0.2475
19739TIP3    H280709   2.395   2.178   2.595  1.1069  1.0170  2.2996
19740TIP3   OH280710   3.828   5.142  16.633 -0.8577 -0.3865 -0.1759
19740TIP3    H180711   3.777   5.173  16.557 -1.7337  0.2767  0.6675
19740TIP3    H280712   3.768   5.085  16.680 -0.3159 -0.7837  0.0301
19741TIP3   OH280713   1.177   2.230  13.273  0.1663 -0.8875 -0.1200
19741TIP3    H180714   1.270   2.254  13.263  0.4373 -1.2308  1.4159
19741TIP3    H280715   1.179   2.139  13.303 -0.7186 -1.3656 -1.5000
19742TIP3   OH280716   0.082   0.746  12.435  0.1664  0.0598 -0.3807
19742TIP3    H180717   0.127   0.827  12.458  0.0724 -0.0850  0.3100
19742TIP3    H280718   0.005   0.744  12.492  0.3537 -0.6929 -0.1512
19743TIP3   OH280719   0.128   0.127  12.001 -0.3190 -0.3522 -0.3892
19743TIP3    H180720   0.074   0.050  11.984 -2.0159  0.8433 -0.5351
19743TIP3    H280721   0.095   0.194  11.940  1.8213  0.1854 -0.9991
19744TIP3   OH280722   2.308   4.650  12.197 -0.0541  0.7093  0.6070
19744TIP3    H180723   2.214   4.630  12.198  0.3454 -1.1952  2.4100
19744TIP3    H280724   2.324   4.681  12.108 -2.0837 -0.4457 -0.2055
19745TIP3   OH280725   3.132   3.199  14.231 -0.1325 -0.1627  0.0793
19745TIP3    H180726   3.037   3.187  14.240 -0.0626 -0.3671  0.5621
19745TIP3    H280727   3.152   3.273  14.289 -0.4416  1.8277 -2.2749
19746TIP3   OH280728   4.118   2.284  12.743 -0.0875  0.2838  0.5033
19746TIP3    H180729   4.088   2.232  12.817  0.1586  0.9568  1.0744
19746TIP3    H280730   4.045   2.281  12.681  0.1794 -1.3073  0.2294
19747TIP3   OH280731   1.638   5.693  13.396  0.0431  0.2713  0.3006
19747TIP3    H180732   1.637   5.788  13.393 -3.2562  0.2757  0.0195
19747TIP3    H280733   1.673   5.672  13.483 -1.5582  1.8047  1.3487
19748TIP3   OH280734   2.188   3.842  15.436  0.4953 -0.4191  0.5165
19748TIP3    H180735   2.108   3.793  15.417  0.5440  0.1275 -1.1425
19748TIP3    H280736   2.163   3.933  15.425  0.8555 -0.1440  1.9158
19749TIP3   OH280737   5.815   5.048  14.748  0.2236  0.3272 -0.6124
19749TIP3    H180738   5.827   5.073  14.840  0.3311  1.0412 -0.8147
19749TIP3    H280739   5.779   4.960  14.752  0.5802  0.2047  0.1120
19750TIP3   OH280740   3.541   6.514   5.536  0.5812 -0.5368 -0.3705
19750TIP3    H180741   3.530   6.556   5.451  1.2493 -0.3310 -0.3574
19750TIP3    H280742   3.597   6.574   5.586  1.8731 -1.6113 -0.4863
19751TIP3   OH280743   5.325   4.357   2.329 -0.3647 -0.1789 -0.4655
19751TIP3    H180744   5.416   4.347   2.302 -0.3460 -1.7148  0.1123
19751TIP3    H280745   5.292   4.430   2.276  1.6990  1.6074  0.6404
19752TIP3   OH280746   4.557   1.763   1.286  0.6198  0.6825 -0.6330
19752TIP3    H180747   4.585   1.794   1.372 -2.4390  1.5873  0.0868
19752TIP3    H280748   4.628   1.788   1.227  1.7333  2.0723  1.2572
19753TIP3   OH280749   0.365   3.425   2.512 -0.1760  0.1732 -0.2883
19753TIP3    H180750   0.371   3.509   2.466  2.4692 -0.9362 -2.1176
19753TIP3    H280751   0.392   3.444   2.601 -0.0505  1.3556 -0.5761
19754TIP3   OH280752   4.479   6.383   0.950  0.3572  0.3918 -0.0296
19754TIP3    H180753   4.424   6.315   0.911 -0.3216  1.2034 -0.5035
19754TIP3    H280754   4.549   6.397   0.887  0.7699 -0.2101  0.2926
19755TIP3   OH280755   2.642   6.497   3.266  0.8066  0.4558 -0.7460
19755TIP3    H180756   2.643   6.504   3.171  1.8127  0.6158 -0.7246
19755TIP3    H280757   2.734   6.486   3.291  0.7900  2.6810  0.3747
19756TIP3   OH280758   3.916   1.010  14.838 -0.4125  0.0018  0.3408
19756TIP3    H180759   3.919   0.921  14.804 -2.3249 -0.4696  1.3143
19756TIP3    H280760   3.839   1.049  14.796 -0.8228  0.4965  1.5258
19757TIP3   OH280761   3.888   2.654  16.216  0.1323 -0.6356 -0.0960
19757TIP3    H180762   3.946   2.676  16.142  1.3646 -1.0888  0.7226
19757TIP3    H280763   3.947   2.643  16.290 -1.2067  0.8497  1.2158
19758TIP3   OH280764   1.580   0.454  11.352  0.0175  0.2177  0.0898
19758TIP3    H180765   1.615   0.514  11.287  2.4081 -0.3315  0.8170
19758TIP3    H280766   1.554   0.510  11.425  1.3046  0.4791  0.3646
19759TIP3   OH280767   0.584   0.728  13.476 -0.0705  0.3210 -0.0928
19759TIP3    H180768   0.622   0.710  13.561  0.4902  0.7091 -0.2617
19759TIP3    H280769   0.652   0.774  13.428  0.0097 -0.8573 -1.1324
19760TIP3   OH280770   3.229   6.383  17.282  0.2919 -0.2199  0.3754
19760TIP3    H180771   3.283   6.350  17.354 -0.9922 -0.5541  1.1987
19760TIP3    H280772   3.185   6.460  17.318 -1.0718 -0.9268  0.2687
19761TIP3   OH280773   0.163   4.452  15.769 -0.6602  0.5142 -0.0127
19761TIP3    H180774   0.234   4.516  15.778  0.5279 -0.7013 -0.5152
19761TIP3    H280775   0.208   4.368  15.754 -2.1295 -0.7336  2.2409
19762TIP3   OH280776   3.722   4.481   2.572 -0.2623  1.0609  0.1264
19762TIP3    H180777   3.724   4.556   2.630 -0.9236 -0.2668  1.9158
19762TIP3    H280778   3.811   4.445   2.576  0.3277  2.2655 -1.4803
19763TIP3   OH280779   3.306   2.335   4.845 -0.4869 -0.0666 -0.2165
19763TIP3    H180780   3.336   2.288   4.922 -1.4503  1.5260  1.1784
19763TIP3    H280781   3.247   2.274   4.801 -1.3409 -0.3450  1.2943
19764TIP3   OH280782   6.003   3.484  12.315  0.0273  0.2271 -0.3681
19764TIP3    H180783   6.031   3.529  12.235  0.3027 -1.1292 -1.0565
19764TIP3    H280784   5.932   3.538  12.350 -2.5554 -0.9885 -3.4899
19765TIP3   OH280785   3.375   3.219  17.026  0.2157 -0.0866 -0.2771
19765TIP3    H180786   3.362   3.308  16.992 -0.1428 -0.3104 -0.7105
19765TIP3    H280787   3.319   3.215  17.103  0.9435  0.3801  0.2895
19766TIP3   OH280788   1.159   3.360  13.657  0.2301  0.3142 -0.3066
19766TIP3    H180789   1.140   3.451  13.680  1.4767  0.4843  0.1151
19766TIP3    H280790   1.155   3.358  13.562 -0.7043  0.6088 -0.2719
19767TIP3   OH280791   2.462   1.817  16.995  0.0519 -0.1487  0.3799
19767TIP3    H180792   2.438   1.889  16.936 -2.1435  0.8478  2.4118
19767TIP3    H280793   2.497   1.750  16.937 -0.9624  1.2557 -1.9402
19768TIP3   OH280794   4.860   3.436   3.968  0.1099 -0.0809  0.6437
19768TIP3    H180795   4.868   3.375   4.041  0.6255 -0.3236  0.3822
19768TIP3    H280796   4.765   3.452   3.961 -0.1531 -1.8322 -0.0843
19769TIP3   OH280797   5.214   4.085  12.386 -0.1140  0.3727 -0.3710
19769TIP3    H180798   5.133   4.036  12.375 -0.4140  0.7459  0.1723
19769TIP3    H280799   5.202   4.164  12.334 -0.6407  1.0685  0.7898
19770TIP3   OH280800   0.401   3.888  16.870 -0.2323 -0.1264  0.1348
19770TIP3    H180801   0.418   3.806  16.824 -0.2987 -0.0270 -0.0685
19770TIP3    H280802   0.398   3.864  16.963 -2.0729 -0.6641 -0.0369
19771TIP3   OH280803   4.438   5.401   5.309  0.1788 -0.7882  0.1789
19771TIP3    H180804   4.404   5.373   5.224 -1.6128  0.2383  0.5218
19771TIP3    H280805   4.366   5.386   5.370  0.7461  0.3212  1.1525
19772TIP3   OH280806   1.958   0.507  17.107  0.0246 -0.0836  0.5511
19772TIP3    H180807   1.902   0.521  17.030  0.8281 -0.2469 -0.0714
19772TIP3    H280808   1.970   0.595  17.144  0.1915  0.0928  0.0900
19773TIP3   OH280809   2.752   6.263  12.431 -0.5261  0.5521  0.2254
19773TIP3    H180810   2.689   6.316  12.479 -0.5256  0.5742  0.2029
19773TIP3    H280811   2.703   6.229  12.356 -0.9607 -0.8646  1.1538
19774TIP3   OH280812   2.145   1.585  14.741  0.4381  0.2104 -0.5104
19774TIP3    H180813   2.142   1.652  14.809  1.0552  0.8495 -1.1116
19774TIP3    H280814   2.235   1.552  14.743  0.3135 -0.1464 -0.6557
19775TIP3   OH280815   6.783   3.264  15.548 -0.1233 -0.1357  0.0308
19775TIP3    H180816   6.827   3.200  15.604 -1.1625  0.0664  1.1010
19775TIP3    H280817   6.748   3.213  15.475 -0.3865 -0.6898  0.5428
19776TIP3   OH280818   5.065   6.120   3.056  0.2187  0.6674  0.1113
19776TIP3    H180819   5.027   6.056   3.116 -0.2286  0.3595 -0.4999
19776TIP3    H280820   5.154   6.089   3.041 -0.2561 -0.2890 -0.8400
19777TIP3   OH280821   3.699   2.570  15.335 -0.6829 -0.2574 -0.1103
19777TIP3    H180822   3.746   2.621  15.401  0.1996 -1.3420  0.1229
19777TIP3    H280823   3.610   2.564  15.368 -0.9104  1.4883 -0.3563
19778TIP3   OH280824   5.027   0.764  15.872 -0.5609 -0.3260  0.2587
19778TIP3    H180825   4.951   0.728  15.919 -1.4949  1.1980 -0.0231
19778TIP3    H280826   5.072   0.687  15.837 -1.9141 -1.2692  0.5294
19779TIP3   OH280827   3.444   0.490   3.971 -0.4827 -0.4621  0.1563
19779TIP3    H180828   3.493   0.455   3.897 -1.1123 -1.6873  0.2989
19779TIP3    H280829   3.352   0.486   3.942 -0.4207  3.4299 -0.7894
19780TIP3   OH280830   5.946   1.341  12.905  0.4993  0.2002 -0.2428
19780TIP3    H180831   5.920   1.251  12.884 -0.8347  0.8239 -1.2781
19780TIP3    H280832   6.034   1.349  12.869  1.3070 -1.1998  1.2987
19781TIP3   OH280833   0.469   6.247   1.417  0.2739 -0.1258 -0.2531
19781TIP3    H180834   0.467   6.165   1.368  1.1265 -0.6379  0.5378
19781TIP3    H280835   0.409   6.233   1.490  0.8069 -0.2514  0.1718
19782TIP3   OH280836   6.659   2.170  16.473  0.3768  1.1799 -0.0234
19782TIP3    H180837   6.574   2.159  16.430  1.0719  2.1481 -1.7074
19782TIP3    H280838   6.716   2.204  16.404  1.9642  1.1678  1.2626
19783TIP3   OH280839   6.688   3.703   2.475 -0.2046 -0.0076 -0.5884
19783TIP3    H180840   6.684   3.651   2.555  0.7239 -0.9983 -1.1708
19783TIP3    H280841   6.782   3.714   2.458 -0.3895  1.7003 -0.5796
19784TIP3   OH280842   2.206   1.028   1.319  0.5766  0.1408  0.1294
19784TIP3    H180843   2.228   0.942   1.282  0.1327 -0.3093  0.8983
19784TIP3    H280844   2.237   1.023   1.409  1.7047  1.2516 -0.1791
19785TIP3   OH280845   6.211   4.330  11.942  0.4266  0.1778  0.1877
19785TIP3    H180846   6.211   4.358  11.850 -1.0498 -1.2432 -0.2596
19785TIP3    H280847   6.200   4.411  11.991 -2.7933  0.5429 -1.0388
19786TIP3   OH280848   5.794   4.260  15.024  0.2050 -0.1839  0.0561
19786TIP3    H180849   5.848   4.193  15.066  2.0971  1.9085  1.0347
19786TIP3    H280850   5.791   4.234  14.932  0.1779 -2.0789  0.5688
19787TIP3   OH280851   5.013   4.877   5.550 -0.5250 -0.0484 -0.1096
19787TIP3    H180852   5.006   4.969   5.576 -2.4869 -0.5737  1.3116
19787TIP3    H280853   4.927   4.856   5.514 -0.4223 -1.6111  0.5335
19788TIP3   OH280854   1.813   1.566  16.615  0.1794 -0.1575 -0.4828
19788TIP3    H180855   1.901   1.588  16.582 -0.7881  0.7171 -2.5685
19788TIP3    H280856   1.824   1.559  16.710  1.9612  2.4813 -0.4457
19789TIP3   OH280857   4.934   4.455  15.699 -0.5337 -0.2569  0.4848
19789TIP3    H180858   5.012   4.494  15.738  0.5512 -0.1690 -1.7147
19789TIP3    H280859   4.901   4.521  15.639 -1.4550 -0.8825  0.2898
19790TIP3   OH280860   4.700   3.260  15.077 -0.1082  0.0478 -0.7272
19790TIP3    H180861   4.642   3.192  15.042 -1.0438  1.0339 -1.1336
19790TIP3    H280862   4.670   3.273  15.167  1.1447 -1.2277 -0.1034
19791TIP3   OH280863   6.232   4.156   1.782  0.6882  0.2963  0.5469
19791TIP3    H180864   6.246   4.239   1.736  0.5828  1.5786  2.7920
19791TIP3    H280865   6.175   4.106   1.723  2.0348  1.1518 -1.5482
19792TIP3   OH280866   3.559   2.088  11.276 -0.0390  0.0003  0.5955
19792TIP3    H180867   3.627   2.041  11.229  0.0594 -0.9809  1.6855
19792TIP3    H280868   3.597   2.173  11.295  0.3194  0.0031 -0.1322
19793TIP3   OH280869   5.330   3.690  15.194 -0.3189 -0.6220 -0.0818
19793TIP3    H180870   5.382   3.757  15.149 -0.7409 -0.5415 -0.4531
19793TIP3    H280871   5.240   3.717  15.179 -0.4557 -0.1591  1.4750
19794TIP3   OH280872   2.323   1.873   4.568 -0.1158  0.4919 -0.5502
19794TIP3    H180873   2.387   1.853   4.500 -0.1030  0.6551 -0.5852
19794TIP3    H280874   2.360   1.832   4.647 -0.5114 -0.3596 -0.7960
19795TIP3   OH280875   2.265   2.405   4.978  0.2541  0.6137  0.1749
19795TIP3    H180876   2.220   2.356   4.909  5.1621 -1.3686 -1.8837
19795TIP3    H280877   2.309   2.339   5.030  3.2123  2.4783  0.1955
19796TIP3   OH280878   6.598   0.240   4.095  0.4687 -0.3616 -0.1773
19796TIP3    H180879   6.554   0.310   4.046  0.8531 -0.1918 -0.2884
19796TIP3    H280880   6.691   0.258   4.082  0.5670 -0.8408 -0.1264
19797TIP3   OH280881   4.876   6.677  16.485  0.5949  0.2809 -0.2328
19797TIP3    H180882   4.896   6.763  16.448 -1.4728 -0.0636 -2.2521
19797TIP3    H280883   4.795   6.651  16.442 -0.7525 -1.1104  3.0489
19798TIP3   OH280884   1.571   4.399  13.006  0.0564 -0.8243  0.0058
19798TIP3    H180885   1.570   4.469  13.071  1.9264 -0.4050 -0.3981
19798TIP3    H280886   1.496   4.343  13.029 -1.2325  1.0905  0.5418
19799TIP3   OH280887   2.525   4.192   0.584  0.0466 -0.2179 -0.1725
19799TIP3    H180888   2.472   4.113   0.576 -1.1541  0.6294 -0.9733
19799TIP3    H280889   2.611   4.162   0.612 -0.7661 -1.6668  0.7825
19800TIP3   OH280890   3.873   0.436   1.549 -0.2723 -0.0864  0.5954
19800TIP3    H180891   3.833   0.406   1.467 -0.9972 -0.2370  1.0030
19800TIP3    H280892   3.891   0.529   1.534  0.8077 -0.4146 -0.2086
19801TIP3   OH280893   3.093   4.838  15.589  0.1736 -0.2321 -0.1263
19801TIP3    H180894   3.122   4.861  15.501 -0.0228  0.0360 -0.1215
19801TIP3    H280895   3.031   4.766  15.576  1.9146 -1.7926 -0.0346
19802TIP3   OH280896   3.435   0.494  13.517  0.1075 -0.3535  0.3908
19802TIP3    H180897   3.409   0.568  13.464 -0.5989 -0.7146  0.2306
19802TIP3    H280898   3.508   0.454  13.469  1.2807  0.9149  1.0618
19803TIP3   OH280899   4.955   1.637  13.000 -0.2977  0.5999  0.5432
19803TIP3    H180900   5.018   1.661  13.068  1.6518  2.8083 -1.9779
19803TIP3    H280901   4.882   1.697  13.012  0.7565  2.0630 -0.3083
19804TIP3   OH280902   5.250   1.303   2.714  0.4692  0.0887  0.1669
19804TIP3    H180903   5.336   1.307   2.671  0.0677  0.2064 -0.6169
19804TIP3    H280904   5.219   1.214   2.698 -0.8911  0.9639 -2.1193
19805TIP3   OH280905   5.850   4.544   3.660  0.5562 -0.4828  0.4085
19805TIP3    H180906   5.756   4.558   3.666  0.5273 -0.9795  1.1471
19805TIP3    H280907   5.868   4.475   3.723  1.4069 -0.4250  0.2307
19806TIP3   OH280908   3.142   1.594  15.929  0.1981  0.4106 -0.0521
19806TIP3    H180909   3.052   1.569  15.910 -0.0834 -0.0874  1.8230
19806TIP3    H280910   3.189   1.511  15.940  0.4022  0.6550  1.0386
19807TIP3   OH280911   2.356   0.278   6.176 -0.3173  0.2264  0.0550
19807TIP3    H180912   2.314   0.311   6.255  0.5687  1.1084  0.1691
19807TIP3    H280913   2.370   0.185   6.193 -0.2553  0.3832  0.8801
19808TIP3   OH280914   4.316   6.645   0.399  0.1943  0.3730  0.1055
19808TIP3    H180915   4.316   6.560   0.442 -0.1999  0.1746 -0.2755
19808TIP3    H280916   4.405   6.679   0.411  1.3191 -1.5021 -2.4872
19809TIP3   OH280917   0.469   6.512  16.767  0.2496  0.0475 -0.1027
19809TIP3    H180918   0.512   6.544  16.846 -0.3457  0.0897  0.2055
19809TIP3    H280919   0.486   6.418  16.767 -0.1241 -0.0224  0.3097
19810TIP3   OH280920   5.424   0.949  12.361 -0.0787 -0.3909 -0.4379
19810TIP3    H180921   5.431   0.981  12.451  0.8863  2.1619 -1.3737
19810TIP3    H280922   5.332   0.924  12.351 -0.1267 -1.0170  1.3299
19811TIP3   OH280923   0.070   4.374   5.597  0.3801 -0.5256  0.4327
19811TIP3    H180924   0.025   4.457   5.581 -0.8146 -0.8866  1.8679
19811TIP3    H280925   0.017   4.330   5.664  1.0584 -2.3967 -0.2227
19812TIP3   OH280926   5.776   6.405   1.081 -0.0364 -0.9409  0.5400
19812TIP3    H180927   5.705   6.437   1.025  0.5580  1.0838  0.9181
19812TIP3    H280928   5.742   6.323   1.118 -2.6758  0.6454  1.7055
19813TIP3   OH280929   3.979   6.082  16.918 -0.0797 -0.0608  0.0477
19813TIP3    H180930   4.007   6.020  16.851 -0.3631 -0.1475  0.0077
19813TIP3    H280931   3.978   6.167  16.874  2.1165  0.2694  0.5876
19814TIP3   OH280932   1.437   3.376   5.752  0.0818  0.4410  0.3869
19814TIP3    H180933   1.424   3.311   5.682  0.3561  0.4499  0.3287
19814TIP3    H280934   1.348   3.399   5.780 -0.0396  0.7782 -0.2730
19815TIP3   OH280935   6.746   0.123   4.648 -0.8159 -0.4656 -0.6870
19815TIP3    H180936   6.737   0.200   4.592  0.3024  1.2277  1.3414
19815TIP3    H280937   6.686   0.140   4.721  0.1334 -1.0640  0.2486
19816TIP3   OH280938   4.869   5.836   0.580 -0.1332  0.2782 -0.8175
19816TIP3    H180939   4.858   5.930   0.572  1.7421  0.4522 -1.3381
19816TIP3    H280940   4.963   5.821   0.579 -0.3756 -1.5469 -0.0655
19817TIP3   OH280941   6.023   1.275   5.669  0.0310  0.3236  0.2604
19817TIP3    H180942   6.113   1.285   5.639  0.0157  2.3383  0.8008
19817TIP3    H280943   6.004   1.182   5.657  1.5429  0.2248 -1.6297
19818TIP3   OH280944   4.431   6.561  15.706 -0.1733 -0.6652  0.4482
19818TIP3    H180945   4.491   6.635  15.711 -0.4622 -0.4931  1.2754
19818TIP3    H280946   4.488   6.484  15.707  0.1025 -0.4692 -0.0416
19819TIP3   OH280947   0.130   1.466   1.151  0.4656  0.0456 -0.4392
19819TIP3    H180948   0.131   1.520   1.072 -0.6060  1.3365  0.4129
19819TIP3    H280949   0.211   1.489   1.196  0.4882  0.2036 -0.5611
19820TIP3   OH280950   6.766   4.360   2.320 -0.4829  0.0213 -0.2520
19820TIP3    H180951   6.780   4.454   2.317 -0.4996  0.1072  1.7120
19820TIP3    H280952   6.805   4.327   2.239  0.2920  1.6086 -0.5424
19821TIP3   OH280953   3.392   0.761   0.715 -0.4704  0.6275 -0.4155
19821TIP3    H180954   3.425   0.724   0.797 -1.5422  1.3724  0.3798
19821TIP3    H280955   3.466   0.759   0.655  0.3751  0.2209  0.6311
19822TIP3   OH280956   6.514   4.235   1.043 -0.0512  0.6001  0.3130
19822TIP3    H180957   6.477   4.225   0.956 -0.8832 -2.1401  0.9383
19822TIP3    H280958   6.570   4.313   1.037 -1.4647  1.4562 -2.1581
19823TIP3   OH280959   1.179   6.231  14.956 -0.3859 -0.8681  0.3134
19823TIP3    H180960   1.197   6.144  14.993  0.5844 -1.0843 -0.6328
19823TIP3    H280961   1.151   6.213  14.866  1.9327 -0.1122 -0.6163
19824TIP3   OH280962   6.724   2.941  12.865  0.2995  0.3861 -0.2724
19824TIP3    H180963   6.641   2.939  12.913 -1.2810 -0.3219 -2.9234
19824TIP3    H280964   6.778   2.874  12.907 -0.0123  1.5890  2.1745
19825TIP3   OH280965   5.208   6.110   2.618  0.0305 -0.5391  0.0444
19825TIP3    H180966   5.293   6.150   2.638 -0.0033  0.1292 -1.1358
19825TIP3    H280967   5.220   6.017   2.636  0.8803 -0.3830  0.2850
19826TIP3   OH280968   4.206   3.804   5.095 -0.3965 -0.1053  0.1280
19826TIP3    H180969   4.198   3.831   5.186  2.2492 -0.6851  0.5592
19826TIP3    H280970   4.183   3.883   5.045  1.5777  1.2954  1.3324
19827TIP3   OH280971   4.941   5.827  10.600  0.2902  0.0207 -0.2216
19827TIP3    H180972   4.946   5.806  10.507  0.3878  1.2467 -0.5128
19827TIP3    H280973   4.955   5.744  10.645 -2.1003 -1.0018 -1.3159
19828TIP3   OH280974   0.288   1.538  15.557  0.0967 -0.0017 -0.7749
19828TIP3    H180975   0.333   1.478  15.617 -0.1823 -0.7795 -1.3287
19828TIP3    H280976   0.357   1.597  15.526  0.1723  0.6691  0.6037
19829TIP3   OH280977   5.627   4.989   3.194 -0.0082  0.3993  0.6222
19829TIP3    H180978   5.627   5.071   3.243 -0.5402  0.1538  1.0333
19829TIP3    H280979   5.560   5.002   3.126 -1.2645 -0.2946  1.7047
19830TIP3   OH280980   5.857   1.471  13.761  0.0210  0.2062  0.0764
19830TIP3    H180981   5.952   1.483  13.770 -0.0730 -0.4795  2.4739
19830TIP3    H280982   5.821   1.505  13.843 -1.9879  2.1431 -1.5551
19831TIP3   OH280983   1.021   4.248  14.634 -0.2046  0.1266  0.0012
19831TIP3    H180984   1.107   4.285  14.653  0.1120 -0.2336 -0.6811
19831TIP3    H280985   1.034   4.201  14.551 -1.2142  0.5980 -0.4303
19832TIP3   OH280986   2.695   6.467   3.576  0.1974  0.0505 -0.2676
19832TIP3    H180987   2.729   6.456   3.665  1.0295  0.7840 -0.4954
19832TIP3    H280988   2.723   6.554   3.549  0.8946 -0.5914 -1.6730
19833TIP3   OH280989   2.950   4.004   4.419 -0.4219  0.0009  0.4101
19833TIP3    H180990   2.897   3.924   4.409 -0.5701  0.1817 -0.2727
19833TIP3    H280991   3.007   3.986   4.493 -0.5374 -0.7021  0.3317
19834TIP3   OH280992   0.805   2.580   3.382  0.0376 -0.0226  0.3453
19834TIP3    H180993   0.724   2.574   3.433 -0.5811  2.4643 -0.2886
19834TIP3    H280994   0.857   2.646   3.428  0.1590  1.0372 -1.2809
19835TIP3   OH280995   6.622   4.086   4.703  0.4657  0.1229  0.3729
19835TIP3    H180996   6.717   4.099   4.712  0.0503  1.5658  3.2002
19835TIP3    H280997   6.594   4.155   4.643  0.6341  2.4032  2.8391
19836TIP3   OH280998   2.788   3.392  14.384  0.0578  0.4141 -0.0300
19836TIP3    H180999   2.742   3.315  14.418  0.4648 -0.3969 -1.2948
19836TIP3    H281000   2.838   3.425  14.459 -1.6057  0.5957  1.0381
19837TIP3   OH281001   1.943   3.256  15.379  0.1188  0.8574 -0.9735
19837TIP3    H181002   2.016   3.224  15.327  1.2510  2.4534 -0.3989
19837TIP3    H281003   1.947   3.205  15.460 -0.1349  0.1212 -1.4201
19838TIP3   OH281004   0.821   5.501   1.120 -0.5852  0.6263  0.6502
19838TIP3    H181005   0.757   5.571   1.135 -0.1996  1.3706 -1.0828
19838TIP3    H281006   0.768   5.425   1.096 -0.8611  1.1660 -0.5013
19839TIP3   OH281007   3.715   5.889   5.478 -0.2269 -0.2608  0.3839
19839TIP3    H181008   3.790   5.885   5.537 -2.2545 -2.1309  2.9676
19839TIP3    H281009   3.662   5.962   5.512 -0.2804  0.1425 -0.5592
19840TIP3   OH281010   4.311   5.675   1.743  0.5285 -0.5870 -0.2034
19840TIP3    H181011   4.358   5.752   1.714 -0.3560 -0.0058 -0.1131
19840TIP3    H281012   4.353   5.602   1.697  1.7399 -0.1227  0.1662
19841TIP3   OH281013   5.418   3.962   4.381  0.3906  1.0642 -0.0230
19841TIP3    H181014   5.475   4.036   4.360  1.1303  0.3048 -0.7337
19841TIP3    H281015   5.375   3.941   4.299  0.4406  0.4893  0.0978
19842TIP3   OH281016   1.559   5.807   4.257  0.4080  0.2828 -0.4728
19842TIP3    H181017   1.590   5.758   4.333  2.0938  0.2153 -1.1826
19842TIP3    H281018   1.625   5.875   4.243 -0.8675  1.4886 -0.7331
19843TIP3   OH281019   0.537   2.482  11.895 -0.1113 -0.4227  0.1685
19843TIP3    H181020   0.506   2.402  11.937 -0.7884  0.7213  1.8925
19843TIP3    H281021   0.481   2.493  11.818 -1.7537 -0.2073  1.3774
19844TIP3   OH281022   0.244   6.325  13.817 -0.0307 -0.3305 -0.9133
19844TIP3    H181023   0.198   6.264  13.759 -0.0289 -0.6494 -0.5860
19844TIP3    H281024   0.334   6.324  13.787 -0.1833  0.0765 -1.3787
19845TIP3   OH281025   5.524   4.000   5.236  0.0535 -0.3541  0.0384
19845TIP3    H181026   5.526   3.986   5.141 -0.0924 -1.7936  0.2363
19845TIP3    H281027   5.598   4.058   5.253  0.9823 -1.2747 -0.7715
19846TIP3   OH281028   2.766   1.711   4.413  0.1835  0.7410  0.1296
19846TIP3    H181029   2.736   1.797   4.442  1.5716  1.6533 -1.0662
19846TIP3    H281030   2.808   1.727   4.329 -0.0668 -1.2118 -0.3943
19847TIP3   OH281031   5.031   2.072  14.456  0.0727  0.0895  0.1980
19847TIP3    H181032   5.042   2.140  14.523 -0.6656  0.2435  0.1696
19847TIP3    H281033   4.943   2.038  14.471 -0.3263  0.5314 -1.0745
19848TIP3   OH281034   5.162   4.535  16.731  0.7109  0.7128  0.3293
19848TIP3    H181035   5.223   4.569  16.797 -0.4631 -0.8990  2.3042
19848TIP3    H281036   5.077   4.573  16.754  0.5514  1.3326 -1.1907
19849TIP3   OH281037   6.145   3.362   0.012  0.4057  0.4040  0.2431
19849TIP3    H181038   6.195   3.410   0.078  0.9514 -1.7563  1.4304
19849TIP3    H281039   6.139   3.273   0.046 -2.5831  0.1310 -0.7861
19850TIP3   OH281040   2.882   1.369   1.976  0.8095 -0.6731  0.0281
19850TIP3    H181041   2.811   1.432   1.982  0.7520 -0.6153 -1.1228
19850TIP3    H281042   2.848   1.290   2.019  1.0699  0.2142  1.9187
19851TIP3   OH281043   5.961   4.192   4.057  0.4545 -0.6330  0.5619
19851TIP3    H181044   6.038   4.158   4.012  0.1569  0.5928 -0.8779
19851TIP3    H281045   5.909   4.235   3.989 -0.8374 -0.2495  1.7578
19852TIP3   OH281046   6.636   4.218   3.342  0.3502 -0.1188  0.0816
19852TIP3    H181047   6.730   4.234   3.338  0.5598 -0.9349  1.2694
19852TIP3    H281048   6.599   4.302   3.371  0.7985 -0.0432  0.4424
19853TIP3   OH281049   1.202   3.704  13.449  0.2291 -0.3082  0.0426
19853TIP3    H181050   1.284   3.654  13.445  0.2876 -0.4460  2.1065
19853TIP3    H281051   1.134   3.637  13.460 -0.0674 -0.1469 -0.8372
19854TIP3   OH281052   2.146   0.015   6.127 -0.0886 -0.3954 -0.3668
19854TIP3    H181053   2.107   0.059   6.052 -2.0613  0.5592  1.1709
19854TIP3    H281054   2.216   0.074   6.156 -0.6926  0.2365 -0.1920
19855TIP3   OH281055   1.784   4.160   5.150 -0.3865 -0.2793  0.5523
19855TIP3    H181056   1.793   4.066   5.163 -0.0801 -0.2260  0.7386
19855TIP3    H281057   1.861   4.185   5.098 -0.8136 -0.2404 -0.0713
19856TIP3   OH281058   5.796   0.283   3.401 -0.4717  0.4591  0.1868
19856TIP3    H181059   5.780   0.321   3.487 -0.7356  0.4531  0.1388
19856TIP3    H281060   5.862   0.215   3.417  1.5052  2.2552 -0.0334
19857TIP3   OH281061   2.160   3.995  12.863  0.3537 -0.8517  0.8163
19857TIP3    H181062   2.202   4.081  12.853  0.8482 -0.9133  2.1824
19857TIP3    H281063   2.226   3.933  12.832 -0.0555 -0.7324 -0.2984
19858TIP3   OH281064   0.826   0.895  14.215  0.2362 -0.0988 -0.6167
19858TIP3    H181065   0.841   0.913  14.307  0.7417  1.4358 -0.9823
19858TIP3    H281066   0.912   0.869  14.181  0.2219  0.0977 -0.8100
19859TIP3   OH281067   2.733   0.624  15.017 -0.6238  0.4762  0.1956
19859TIP3    H181068   2.784   0.665  14.947 -1.7014 -0.6556 -1.2916
19859TIP3    H281069   2.793   0.620  15.091  0.7010  1.2470 -0.8086
19860TIP3   OH281070   1.361   4.423   2.078  0.0490  0.6930  0.4281
19860TIP3    H181071   1.447   4.463   2.091  0.7590 -0.6208 -0.1890
19860TIP3    H281072   1.377   4.329   2.082 -1.5492  0.4446  1.4291
19861TIP3   OH281073   2.190   3.337   6.767  0.0523  0.0550 -0.5214
19861TIP3    H181074   2.177   3.397   6.694 -0.8964  0.6619  0.1425
19861TIP3    H281075   2.115   3.352   6.825 -0.6007 -2.2739 -0.6947
19862TIP3   OH281076   5.333   0.276   1.578  0.4099 -0.1428  0.0099
19862TIP3    H181077   5.317   0.257   1.670 -0.2712  1.2182  0.1796
19862TIP3    H281078   5.249   0.263   1.535  1.0280 -2.1464 -0.6869
19863TIP3   OH281079   5.959   2.265   4.219 -0.1307  0.3922  0.1874
19863TIP3    H181080   5.940   2.235   4.130  0.5416  0.5517 -0.0104
19863TIP3    H281081   5.892   2.331   4.237 -0.8253 -0.2847  0.1407
19864TIP3   OH281082   2.005   6.150  13.699  0.3805  0.3407 -0.1742
19864TIP3    H181083   1.966   6.227  13.655 -0.5851 -0.4792 -0.7889
19864TIP3    H281084   2.068   6.187  13.760 -1.3955  1.7406  0.8751
19865TIP3   OH281085   0.649   2.949   3.616 -0.4566  0.5788  0.5811
19865TIP3    H181086   0.554   2.957   3.601 -0.2921  2.5511  0.4141
19865TIP3    H281087   0.681   2.900   3.541 -1.1668  1.1092 -0.0821
19866TIP3   OH281088   5.165   5.144  11.864 -0.4326 -0.1437 -0.6977
19866TIP3    H181089   5.160   5.074  11.929 -0.3379 -0.0586 -0.5993
19866TIP3    H281090   5.245   5.125  11.815 -0.5448 -0.2516 -0.8397
19867TIP3   OH281091   1.536   4.124  16.888 -0.2678 -0.3937  0.4460
19867TIP3    H181092   1.623   4.159  16.869 -0.6940  0.4727  0.0470
19867TIP3    H281093   1.521   4.059  16.819 -0.1020 -0.2437  0.2692
19868TIP3   OH281094   2.696   4.065   5.323  0.4838 -0.1023  0.0798
19868TIP3    H181095   2.729   4.155   5.325 -2.0713  0.8877  0.4171
19868TIP3    H281096   2.681   4.047   5.230 -0.8895  0.5958  0.1435
19869TIP3   OH281097   4.120   1.206  14.799  0.4568  0.3264 -0.8286
19869TIP3    H181098   4.048   1.269  14.804  0.7887  0.7832 -1.6862
19869TIP3    H281099   4.088   1.128  14.845  0.8578  1.8646  2.1953
19870TIP3   OH281100   4.020   3.710   3.849  0.0070  0.2752  1.1019
19870TIP3    H181101   4.027   3.805   3.859  0.3102  0.3523  0.1609
19870TIP3    H281102   3.926   3.694   3.841  0.0618  0.6530 -0.3186
19871TIP3   OH281103   6.213   0.122   4.790 -0.0596 -0.0328  0.2894
19871TIP3    H181104   6.211   0.172   4.871 -1.5326 -0.3013  0.4406
19871TIP3    H281105   6.128   0.076   4.788 -0.4068  0.6471 -1.7997
19872TIP3   OH281106   1.310   3.684   3.551  0.0779 -0.1161 -0.1034
19872TIP3    H181107   1.366   3.692   3.474 -2.3408  0.4761 -1.8686
19872TIP3    H281108   1.269   3.770   3.559 -2.8518 -1.3768 -0.7232
19873TIP3   OH281109   5.509   1.076   3.852  0.6886 -0.4249  0.0208
19873TIP3    H181110   5.427   1.070   3.802  1.1075 -2.0425 -0.5157
19873TIP3    H281111   5.573   1.031   3.797  2.1046  1.4436  0.1188
19874TIP3   OH281112   5.583   0.549  12.021 -0.5392  0.3944 -0.1830
19874TIP3    H181113   5.548   0.572  11.935  0.1006 -0.6726 -0.7407
19874TIP3    H281114   5.630   0.627  12.049  0.1422  0.3947 -1.2783
19875TIP3   OH281115   2.968   4.603   4.583  0.0410  0.2601  0.1468
19875TIP3    H181116   3.038   4.619   4.646 -0.6605  1.3266  0.6771
19875TIP3    H281117   2.890   4.587   4.636 -0.3885  0.3741 -0.4381
19876TIP3   OH281118   2.530   1.979   3.048 -0.2496 -0.1499 -0.3276
19876TIP3    H181119   2.455   1.920   3.054  0.6043 -1.1657  0.6394
19876TIP3    H281120   2.559   1.991   3.138  0.1811  0.9874 -0.6062
19877TIP3   OH281121   4.959   0.057  12.829 -0.0037  0.1995  0.7359
19877TIP3    H181122   5.002   0.096  12.752  0.3171  1.0798  1.3531
19877TIP3    H281123   4.866   0.060  12.808  0.0971  0.2035  0.2716
19878TIP3   OH281124   3.683   1.058   2.839 -0.5845 -0.1380  0.2222
19878TIP3    H181125   3.697   0.989   2.774  0.0013  0.5616 -0.4091
19878TIP3    H281126   3.653   1.134   2.787  0.9958  0.7761  0.6069
19879TIP3   OH281127   3.546   3.401   2.007 -0.6413 -0.0471 -0.2778
19879TIP3    H181128   3.536   3.327   1.947 -0.1778 -0.0778 -0.3143
19879TIP3    H281129   3.511   3.475   1.957  0.1101  0.0019 -0.7405
19880TIP3   OH281130   4.777   6.311  13.830  0.0860 -0.1436  0.3302
19880TIP3    H181131   4.707   6.247  13.836  0.5550 -0.6897  0.0288
19880TIP3    H281132   4.823   6.289  13.749  1.3249 -0.5274  1.1337
19881TIP3   OH281133   4.882   2.827  15.886 -0.2958  0.1388 -0.3786
19881TIP3    H181134   4.945   2.898  15.901 -1.0632  0.6865  0.2745
19881TIP3    H281135   4.908   2.758  15.947  0.3832 -0.1034 -0.9328
19882TIP3   OH281136   2.470   1.176  15.931  0.3465 -0.0921 -0.1182
19882TIP3    H181137   2.443   1.242  15.994  1.3374  1.1291 -0.9465
19882TIP3    H281138   2.460   1.218  15.846  1.7528 -0.7311 -0.6170
19883TIP3   OH281139   3.237   2.741   0.398  0.4508  0.0118 -0.3571
19883TIP3    H181140   3.243   2.837   0.398  0.4186  0.0139 -0.9603
19883TIP3    H281141   3.323   2.712   0.427  1.6008  0.1653 -3.4196
19884TIP3   OH281142   1.452   6.048   4.844 -0.3356 -0.5702  0.2997
19884TIP3    H181143   1.408   6.129   4.820  0.5181 -0.1926 -0.0404
19884TIP3    H281144   1.383   5.982   4.848 -1.5685  0.8357  3.9038
19885TIP3   OH281145   4.583   2.343  16.459  0.6038  0.0974 -0.2938
19885TIP3    H181146   4.642   2.276  16.426 -0.4232 -0.2463 -1.4631
19885TIP3    H281147   4.613   2.424  16.419  0.6069  0.0108 -0.4640
19886TIP3   OH281148   6.282   4.151  14.243  0.2057  0.1643 -0.5474
19886TIP3    H181149   6.211   4.113  14.295  0.7853 -0.1525  0.0363
19886TIP3    H281150   6.361   4.106  14.275  0.7894  1.2113 -0.4945
19887TIP3   OH281151   0.170   5.687  11.295  0.2490  0.1009 -0.8385
19887TIP3    H181152   0.080   5.717  11.282 -0.7252 -1.7163  1.2676
19887TIP3    H281153   0.166   5.593  11.275  1.3961 -0.2203  0.3698
19888TIP3   OH281154   3.041   2.746   2.206  0.3398  0.2018  0.1858
19888TIP3    H181155   3.005   2.715   2.124 -1.5637  0.9668  0.7034
19888TIP3    H281156   3.135   2.729   2.200  0.4165  1.4339 -2.6753
19889TIP3   OH281157   1.272   6.254  12.117  0.4910  0.2285  0.7554
19889TIP3    H181158   1.212   6.271  12.190 -0.6182  0.6015 -0.2292
19889TIP3    H281159   1.256   6.163  12.094  0.5318  0.2344  0.7051
19890TIP3   OH281160   4.552   6.324  16.061  0.0554 -0.3366 -0.0075
19890TIP3    H181161   4.526   6.415  16.076 -2.2011 -0.9884  0.2665
19890TIP3    H281162   4.629   6.329  16.004 -0.1425  1.7296 -0.1044
19891TIP3   OH281163   0.841   1.410   0.515  0.3335 -0.2296 -0.0064
19891TIP3    H181164   0.851   1.478   0.582  1.7090 -1.7406  1.3743
19891TIP3    H281165   0.762   1.364   0.540 -0.1343  0.3242 -0.4560
19892TIP3   OH281166   4.864   6.634  15.263 -0.3326 -0.7929 -0.0921
19892TIP3    H181167   4.816   6.552  15.276  0.0131 -0.7960  1.2076
19892TIP3    H281168   4.945   6.623  15.313  1.1789 -0.8828 -2.4521
19893TIP3   OH281169   6.638   1.800  13.583 -0.5957 -0.4260  0.3466
19893TIP3    H181170   6.597   1.758  13.659 -2.2948 -0.1843 -0.4314
19893TIP3    H281171   6.651   1.891  13.609  1.2706 -0.9352  1.3054
19894TIP3   OH281172   1.194   3.032  15.191  0.0581  0.0845 -0.4971
19894TIP3    H181173   1.283   3.034  15.225 -0.1206 -0.1639 -0.0099
19894TIP3    H281174   1.147   3.096  15.246  0.1538  0.9143 -1.3657
19895TIP3   OH281175   0.650   5.357   1.789  0.3006 -0.0613 -0.1714
19895TIP3    H181176   0.640   5.368   1.883 -2.1485  0.2501 -0.4213
19895TIP3    H281177   0.704   5.431   1.761  0.6574  0.0956  0.9213
19896TIP3   OH281178   6.233   3.175   5.292 -0.2202  0.4641 -0.8008
19896TIP3    H181179   6.147   3.217   5.304 -0.7205 -1.3759  2.6958
19896TIP3    H281180   6.218   3.083   5.314  2.4196 -0.1033 -1.2379
19897TIP3   OH281181   5.639   1.211  12.644  1.0163  0.4223  0.0460
19897TIP3    H181182   5.631   1.243  12.734 -0.4195 -0.4928  0.2519
19897TIP3    H281183   5.691   1.279  12.599 -0.0038  1.9004  1.0432
19898TIP3   OH281184   0.863   6.483  13.777  0.3789  0.1004 -0.4254
19898TIP3    H181185   0.809   6.560  13.795 -0.2863 -0.4590 -0.0184
19898TIP3    H281186   0.819   6.440  13.702  0.8608  0.2291 -0.7809
19899TIP3   OH281187   5.961   3.204   4.367  0.2456 -0.0481  0.2468
19899TIP3    H181188   5.883   3.238   4.324  0.6709 -0.4618 -0.8730
19899TIP3    H281189   6.034   3.250   4.325  0.5659  1.1934  2.0767
19900TIP3   OH281190   0.082   3.989   1.422 -0.9465  0.4637 -0.4889
19900TIP3    H181191   0.142   4.009   1.494 -0.1998 -1.7334 -0.4695
19900TIP3    H281192   0.128   4.017   1.343  0.1985 -1.3557 -0.4871
19901TIP3   OH281193   3.095   1.797   4.704 -0.5990  0.2018 -0.7594
19901TIP3    H181194   3.147   1.863   4.751 -0.9634 -1.1730  1.6618
19901TIP3    H281195   3.146   1.717   4.709 -1.4926 -0.4033 -1.1139
19902TIP3   OH281196   0.377   3.343   0.331 -0.4027 -0.3474 -0.3736
19902TIP3    H181197   0.310   3.403   0.362 -1.0280  1.0276 -4.1037
19902TIP3    H281198   0.448   3.350   0.395 -3.0323 -0.4819  2.6535
19903TIP3   OH281199   4.039   3.288   3.135  0.7469 -0.4690 -0.0184
19903TIP3    H181200   4.112   3.319   3.189  1.1460 -0.1891 -0.7111
19903TIP3    H281201   4.070   3.297   3.045  0.5058 -1.9761 -0.2661
19904TIP3   OH281202   1.427   6.051   1.757  0.0104  0.0510  0.4718
19904TIP3    H181203   1.406   6.125   1.700 -0.1350 -0.5441 -0.2633
19904TIP3    H281204   1.488   6.087   1.822  1.9771  0.2441 -1.4128
19905TIP3   OH281205   6.659   1.830  14.178  1.0049 -0.1005  0.3023
19905TIP3    H181206   6.619   1.757  14.225 -0.8685  0.4457 -0.3874
19905TIP3    H281207   6.749   1.803  14.163  0.8112 -1.5207  1.6045
19906TIP3   OH281208   1.844   4.880   2.607 -0.6059 -0.1128 -0.1631
19906TIP3    H181209   1.789   4.876   2.685  1.4505 -1.8358  1.2827
19906TIP3    H281210   1.796   4.935   2.545 -3.1445 -0.2476  1.6323
19907TIP3   OH281211   2.879   1.714  15.580 -0.1422 -0.1093  0.4046
19907TIP3    H181212   2.969   1.704  15.610  0.1067 -0.8675 -0.5731
19907TIP3    H281213   2.884   1.780  15.511  0.0957 -2.0242 -1.4608
19908TIP3   OH281214   1.503   0.684  16.664 -0.6686 -0.4395  0.0753
19908TIP3    H181215   1.513   0.629  16.742 -2.2214 -0.7306  0.0740
19908TIP3    H281216   1.457   0.762  16.696  1.6677  0.9899  0.1179
19909TIP3   OH281217   0.518   6.530   3.588 -0.4665 -0.1998  0.0646
19909TIP3    H181218   0.486   6.503   3.674  3.1304  0.0957  1.5826
19909TIP3    H281219   0.538   6.623   3.599 -0.2977 -0.0919 -1.1765
19910TIP3   OH281220   2.305   4.038  14.853  0.5844  0.1938  0.0874
19910TIP3    H181221   2.304   4.001  14.941 -0.2279  0.0781  0.0303
19910TIP3    H281222   2.385   4.091  14.850 -0.3215  1.6697  1.4972
19911TIP3   OH281223   0.965   4.466  17.072 -0.0381 -0.1512 -0.2505
19911TIP3    H181224   0.889   4.517  17.098  0.2706  1.4814 -2.4122
19911TIP3    H281225   1.040   4.518  17.101  0.3106 -1.3927  1.1958
19912TIP3   OH281226   3.072   6.427  12.996  0.0186 -0.1216 -0.2248
19912TIP3    H181227   3.130   6.496  12.964 -0.0055  0.0701  0.1330
19912TIP3    H281228   3.120   6.346  12.982 -0.3928 -0.1346 -1.6479
19913TIP3   OH281229   6.429   4.066   1.957 -0.3479  0.1223 -0.0514
19913TIP3    H181230   6.344   4.064   1.912 -0.5812  0.3303  0.3756
19913TIP3    H281231   6.492   4.081   1.887 -0.8664  2.2081 -0.1149
19914TIP3   OH281232   6.204   4.031  11.656 -0.0856  0.0293  0.2422
19914TIP3    H181233   6.125   4.076  11.686  0.9566  0.8675  1.8122
19914TIP3    H281234   6.262   4.031  11.732  1.2143 -1.0751 -0.7187
19915TIP3   OH281235   1.195   0.438   1.219  0.3811  0.7175  0.0769
19915TIP3    H181236   1.180   0.525   1.255  0.4578  0.5344  0.5562
19915TIP3    H281237   1.107   0.405   1.201  0.3140  0.6078  0.5868
19916TIP3   OH281238   5.565   0.802   5.332  0.0117  0.2079 -0.2769
19916TIP3    H181239   5.626   0.783   5.404  1.8781  0.2666 -1.7994
19916TIP3    H281240   5.501   0.731   5.337 -1.5739  1.7471  3.1682
19917TIP3   OH281241   1.814   0.838  12.729  1.2675  0.1426 -0.2934
19917TIP3    H181242   1.888   0.897  12.745  0.2126  1.0649  1.4530
19917TIP3    H281243   1.844   0.753  12.759  1.5153  0.6005  0.8089
19918TIP3   OH281244   3.889   1.387   0.907  0.1206  0.1911  0.4606
19918TIP3    H181245   3.801   1.376   0.942 -0.7426  0.5405 -1.5163
19918TIP3    H281246   3.888   1.341   0.823  2.0961 -0.5571  0.8094
19919TIP3   OH281247   0.772   2.571  13.845  0.2475  0.4412 -0.2400
19919TIP3    H181248   0.719   2.627  13.901  1.9877 -0.0042  1.8980
19919TIP3    H281249   0.846   2.626  13.818  2.9344 -1.2507  3.3398
19920TIP3   OH281250   5.365   0.605  11.600  0.8304 -0.0347  0.3697
19920TIP3    H181251   5.439   0.548  11.617  1.6479  0.7019 -0.6041
19920TIP3    H281252   5.294   0.546  11.574  1.2312 -0.7038  0.7908
19921TIP3   OH281253   2.373   5.095  14.229 -0.6810 -0.4872 -0.2900
19921TIP3    H181254   2.423   5.048  14.162 -0.4483 -0.5375 -0.0781
19921TIP3    H281255   2.286   5.054  14.227 -0.9607  0.1456 -1.2269
19922TIP3   OH281256   4.691   0.619  11.999 -0.0537  0.2450  0.3567
19922TIP3    H181257   4.651   0.592  11.916 -0.2106 -1.6162  1.0033
19922TIP3    H281258   4.745   0.544  12.024  2.1909  1.8773  0.5656
19923TIP3   OH281259   6.611   1.283  16.494 -0.0059  0.6466  0.8534
19923TIP3    H181260   6.654   1.206  16.531 -0.7932 -0.0978  0.2535
19923TIP3    H281261   6.518   1.269  16.512 -0.0681  1.9057  1.5346
19924TIP3   OH281262   2.605   6.409   4.405  0.3492  0.1540 -0.1790
19924TIP3    H181263   2.687   6.458   4.411 -0.4187  1.3315  0.8482
19924TIP3    H281264   2.599   6.384   4.313  0.1413  3.0482 -0.9684
19925TIP3   OH281265   6.595   6.105  15.720  0.5118  0.2886 -0.2143
19925TIP3    H181266   6.619   6.016  15.744  0.7911  0.0641 -1.3078
19925TIP3    H281267   6.646   6.124  15.642 -0.1141  1.1340 -0.4284
19926TIP3   OH281268   6.041   3.213  16.901  0.4285  0.6254  1.0912
19926TIP3    H181269   5.994   3.168  16.971 -0.0827  1.2515  1.1495
19926TIP3    H281270   6.127   3.171  16.900 -0.3540 -0.9949  0.5325
19927TIP3   OH281271   3.728   3.340   1.706  0.0518  0.5097  0.0544
19927TIP3    H181272   3.665   3.284   1.753  0.8609 -0.0937  0.4331
19927TIP3    H281273   3.813   3.317   1.744  0.7700 -0.2187 -1.9255
19928TIP3   OH281274   3.600   1.509  14.810  0.3183 -0.0708  0.4795
19928TIP3    H181275   3.667   1.464  14.860  0.0075 -0.1694  0.8058
19928TIP3    H281276   3.531   1.443  14.796 -1.1519  0.9091  2.8764
19929TIP3   OH281277   3.447   2.668  15.743  0.4783  0.1067 -0.4063
19929TIP3    H181278   3.434   2.672  15.838 -1.2488 -0.4720 -0.5990
19929TIP3    H281279   3.412   2.750  15.710  0.6847  0.1213 -0.5932
19930TIP3   OH281280   5.644   0.692   3.310  0.2057 -0.0717 -0.0882
19930TIP3    H181281   5.596   0.616   3.276 -1.6535  1.6393 -1.4559
19930TIP3    H281282   5.664   0.743   3.232  0.7787  1.2032  0.8886
19931TIP3   OH281283   1.356   5.417   1.159 -0.2581 -0.0369 -0.1245
19931TIP3    H181284   1.261   5.415   1.167 -0.1937 -2.0113  0.4321
19931TIP3    H281285   1.381   5.325   1.148  1.4781  0.5781 -1.6023
19932TIP3   OH281286   2.069   6.255  11.404  0.3312  0.1602  0.9228
19932TIP3    H181287   2.043   6.179  11.457  1.1836  0.2107  1.4173
19932TIP3    H281288   2.000   6.263  11.339 -0.2201 -0.5083  1.4179
19933TIP3   OH281289   5.142   4.271  15.116 -0.0722  0.5564  0.0268
19933TIP3    H181290   5.198   4.270  15.038  1.1994  0.8512  0.9094
19933TIP3    H281291   5.060   4.233  15.087  0.8753 -0.6960 -1.0933
19934TIP3   OH281292   2.982   3.036   1.592  0.5106 -0.1109  0.2025
19934TIP3    H181293   2.906   3.083   1.558  0.6789  0.6001  0.8063
19934TIP3    H281294   2.957   2.944   1.587 -0.4778  0.1329  0.6004
19935TIP3   OH281295   1.887   3.907   5.095  0.3453 -0.2339 -0.6045
19935TIP3    H181296   1.962   3.966   5.083 -0.8800  1.5033  0.0386
19935TIP3    H281297   1.925   3.820   5.094  2.1003  0.5015 -2.6203
19936TIP3   OH281298   5.565   4.954  11.732  0.1522 -0.0133  0.4771
19936TIP3    H181299   5.574   4.889  11.801 -1.3882 -1.2816 -0.4758
19936TIP3    H281300   5.590   4.908  11.652 -1.9680  0.2061 -0.3636
19937TIP3   OH281301   2.481   6.011  15.985 -0.0072 -0.7362 -0.9780
19937TIP3    H181302   2.552   5.961  16.027 -0.0234 -0.5709 -0.7544
19937TIP3    H281303   2.406   5.997  16.042 -0.2207 -1.1143 -1.3481
19938TIP3   OH281304   0.051   1.122   5.181 -0.3027  0.0144  0.6041
19938TIP3    H181305  -0.039   1.090   5.191  0.3834 -1.4788  2.4353
19938TIP3    H281306   0.105   1.048   5.209  1.5130  0.7237 -0.9804
19939TIP3   OH281307   1.446   6.184   4.253 -0.1884 -0.1275 -0.1275
19939TIP3    H181308   1.404   6.232   4.182  1.8285 -0.1200 -1.3671
19939TIP3    H281309   1.381   6.182   4.323 -2.5055 -0.8045 -2.2355
19940TIP3   OH281310   1.333   0.906  16.741 -0.0781  0.3513  0.1398
19940TIP3    H181311   1.256   0.864  16.704 -0.2663  0.9145 -0.1151
19940TIP3    H281312   1.331   0.995  16.706  0.8581  0.2759 -0.1270
19941TIP3   OH281313   1.559   0.564  15.739 -0.3884  0.0615  0.6814
19941TIP3    H181314   1.607   0.592  15.661  1.3084 -2.2014  0.8872
19941TIP3    H281315   1.469   0.550  15.708  0.2621 -0.7733 -0.8518
19942TIP3   OH281316   3.405   4.613   3.451  0.2210  0.6382 -1.1063
19942TIP3    H181317   3.352   4.557   3.507  0.5614 -0.9135 -2.3063
19942TIP3    H281318   3.355   4.695   3.445 -0.9691 -0.0318 -0.4721
19943TIP3   OH281319   6.058   2.500  10.649 -0.2224 -0.6303 -0.0599
19943TIP3    H181320   5.998   2.553  10.598  3.1404 -0.2094 -3.7996
19943TIP3    H281321   6.063   2.416  10.602  0.0258 -1.6641  1.7538
19944TIP3   OH281322   4.115   5.464  12.937  0.5845 -0.0005 -0.0893
19944TIP3    H181323   4.198   5.513  12.937 -0.3245  1.5579 -0.3822
19944TIP3    H281324   4.065   5.502  13.009 -0.3500 -0.1354 -0.6651
19945TIP3   OH281325   2.762   0.078   5.041  1.2513 -0.2889  0.1417
19945TIP3    H181326   2.761   0.047   4.950 -0.9694  2.0775 -0.7465
19945TIP3    H281327   2.790   0.170   5.034 -0.3576  0.3518  1.6368
19946TIP3   OH281328   6.111   2.152  16.849  0.4655  0.1278  0.4858
19946TIP3    H181329   6.152   2.217  16.792  1.7380  1.3110  2.6740
19946TIP3    H281330   6.017   2.167  16.842  0.7842  2.9635  1.7870
19947TIP3   OH281331   1.390   6.541   0.123 -0.3631  0.0362  0.2497
19947TIP3    H181332   1.382   6.501   0.209  1.1326 -2.0389 -0.5171
19947TIP3    H281333   1.480   6.522   0.096 -1.1053 -0.2130 -2.1694
19948TIP3   OH281334   5.087   5.982   3.583 -0.1496  0.3238  0.9115
19948TIP3    H181335   5.174   5.989   3.544 -0.7478 -1.2543 -0.7697
19948TIP3    H281336   5.096   6.021   3.670  1.8570  1.5231  0.1838
19949TIP3   OH281337   5.482   2.624   0.605 -0.0324 -0.3415  0.0323
19949TIP3    H181338   5.442   2.710   0.620 -0.8351 -0.6956 -0.0176
19949TIP3    H281339   5.505   2.623   0.512  0.1908 -0.0870  0.0877
19950TIP3   OH281340   2.993   2.555   4.154  0.0595 -0.0025  0.1837
19950TIP3    H181341   3.001   2.608   4.074 -1.8349 -1.8897 -1.3289
19950TIP3    H281342   3.084   2.542   4.183  0.7831  0.7514 -1.6542
19951TIP3   OH281343   0.421   0.242   6.201 -0.3843  0.6016  0.1032
19951TIP3    H181344   0.374   0.285   6.129 -0.2238 -0.9438 -0.9454
19951TIP3    H281345   0.394   0.291   6.279 -1.8257  1.2888 -0.7963
19952TIP3   OH281346   0.350   3.773  13.842 -0.4460  0.0130  0.2100
19952TIP3    H181347   0.313   3.711  13.779 -0.8344 -0.7874  1.1983
19952TIP3    H281348   0.281   3.837  13.857  0.0035  0.7776 -0.9142
19953TIP3   OH281349   4.330   2.612   3.923  0.5283 -0.2421 -0.1662
19953TIP3    H181350   4.296   2.526   3.900 -1.3510  0.1750  0.8979
19953TIP3    H281351   4.377   2.641   3.845 -0.4631 -1.4167 -1.2337
19954TIP3   OH281352   1.956   5.202   5.875  0.3706 -0.4197 -0.2780
19954TIP3    H181353   1.990   5.228   5.960 -0.0718 -1.3612  0.1954
19954TIP3    H281354   1.932   5.110   5.886 -0.4298 -0.3284 -1.1924
19955TIP3   OH281355   2.901   4.221  15.158 -0.2315 -0.6687  0.6338
19955TIP3    H181356   2.993   4.220  15.183  0.0970 -2.2590 -0.4984
19955TIP3    H281357   2.874   4.312  15.165  2.2349  0.3222 -1.7928
19956TIP3   OH281358   4.455   3.563  11.016 -0.0608 -0.2387  0.1695
19956TIP3    H181359   4.470   3.513  10.936 -0.6018 -0.1959  0.0384
19956TIP3    H281360   4.543   3.589  11.045  0.1888 -0.8849 -0.0008
19957TIP3   OH281361   0.164   0.217   3.739  0.1451  0.1723 -0.0889
19957TIP3    H181362   0.087   0.273   3.750  2.2458  2.8402  1.7347
19957TIP3    H281363   0.213   0.256   3.668  0.0827 -1.2858 -0.9648
19958TIP3   OH281364   2.561   4.098   1.451 -0.0123 -0.2690  0.3585
19958TIP3    H181365   2.522   4.184   1.439  0.8422  0.2294  1.0933
19958TIP3    H281366   2.655   4.111   1.436  0.3088 -0.7776  1.8509
19959TIP3   OH281367   5.984   1.091  13.493 -0.1788 -0.1321 -0.1379
19959TIP3    H181368   5.967   0.998  13.506 -1.2049 -0.2362 -2.0984
19959TIP3    H281369   5.905   1.124  13.450 -0.2643  1.8801  1.4648
19960TIP3   OH281370   1.913   2.408  11.616 -0.1676 -0.1145  0.4399
19960TIP3    H181371   1.988   2.349  11.628 -2.2954 -2.8405  0.7908
19960TIP3    H281372   1.910   2.424  11.522  0.7529 -0.1129  0.4001
19961TIP3   OH281373   0.071   6.518   6.460 -0.4836  0.0542  0.7046
19961TIP3    H181374   0.164   6.499   6.474  0.0966  0.8112 -1.8206
19961TIP3    H281375   0.065   6.614   6.462 -1.0013  0.0472 -0.3802
19962TIP3   OH281376   1.137   3.950  12.923 -0.0563 -0.9782  0.5041
19962TIP3    H181377   1.155   3.952  13.017  0.7667 -0.5661  0.3462
19962TIP3    H281378   1.097   4.035  12.905  0.4614 -0.7646  0.3542
19963TIP3   OH281379   6.807   5.467   1.710  0.1041  0.3146  0.2209
19963TIP3    H181380   6.807   5.550   1.758  1.6776  0.8175 -0.6099
19963TIP3    H281381   6.852   5.405   1.768 -0.6021  0.1659  0.6167
19964TIP3   OH281382   5.115   2.264   6.229  0.3175 -0.4727 -0.3674
19964TIP3    H181383   5.096   2.260   6.135 -2.3040 -0.6438  0.1420
19964TIP3    H281384   5.184   2.330   6.236  0.6324 -0.5355 -2.4031
19965TIP3   OH281385   5.668   5.179   0.111  0.0883  0.8506  0.0685
19965TIP3    H181386   5.680   5.225   0.028  0.9785 -1.0357 -0.8652
19965TIP3    H281387   5.739   5.211   0.166  2.1168 -1.0889 -1.3515
19966TIP3   OH281388   4.416   4.578   2.596 -0.1788 -0.2596 -0.0262
19966TIP3    H181389   4.466   4.598   2.675  1.6829  2.4862 -1.8152
19966TIP3    H281390   4.324   4.580   2.625  0.4912 -0.1861  2.2348
19967TIP3   OH281391   4.554   1.154   0.751 -0.1396  0.0169 -0.0786
19967TIP3    H181392   4.615   1.136   0.822  0.8123  0.8592 -0.6508
19967TIP3    H281393   4.475   1.187   0.794  0.1147 -0.2838  0.6228
19968TIP3   OH281394   0.307   1.182  12.431 -0.1992 -0.6152 -0.0598
19968TIP3    H181395   0.238   1.137  12.381 -2.3847  0.2250  2.0694
19968TIP3    H281396   0.302   1.142  12.518  1.6893 -0.1586  0.2740
19969TIP3   OH281397   4.241   0.676  15.246  0.3936  0.5205  0.1815
19969TIP3    H181398   4.309   0.654  15.183  0.6069  0.3856  0.4551
19969TIP3    H281399   4.260   0.766  15.272  1.6995 -0.1668  1.7855
19970TIP3   OH281400   3.637   4.208  11.670  0.2887  0.1221  0.2116
19970TIP3    H181401   3.701   4.174  11.732  0.8660  0.9128  0.0559
19970TIP3    H281402   3.639   4.303  11.683  0.6903  0.3336 -1.2663
19971TIP3   OH281403   6.716   3.077   2.387  0.3324 -0.9016 -0.4402
19971TIP3    H181404   6.752   3.018   2.453  0.9924  0.5687  0.5461
19971TIP3    H281405   6.792   3.124   2.353 -0.5379  1.9264  1.3607
19972TIP3   OH281406   2.490   1.960  13.353  0.2821  0.5068  0.1764
19972TIP3    H181407   2.512   2.017  13.280  1.4344 -0.3416 -0.1539
19972TIP3    H281408   2.547   1.988  13.425  0.7898 -0.1462  0.0401
19973TIP3   OH281409   5.687   4.508  16.765 -0.2922  0.6154 -0.4117
19973TIP3    H181410   5.632   4.566  16.712 -0.4392  0.6120 -0.2610
19973TIP3    H281411   5.756   4.566  16.799  0.8148  0.2770 -2.0213
19974TIP3   OH281412   1.577   3.607   4.955 -0.1942 -0.3039  0.2160
19974TIP3    H181413   1.543   3.620   5.043  0.4342 -0.6447  0.5141
19974TIP3    H281414   1.653   3.549   4.967 -0.7182 -1.1825 -0.6658
19975TIP3   OH281415   2.034   3.723   2.725  0.0978 -0.6930 -0.0567
19975TIP3    H181416   1.969   3.784   2.691 -0.6115 -0.8077  1.0556
19975TIP3    H281417   2.115   3.747   2.680 -0.1246  1.1836  0.5032
19976TIP3   OH281418   3.490   3.382   4.019 -0.0364  0.0628 -0.0662
19976TIP3    H181419   3.585   3.391   4.013  0.0565  0.4975  1.7816
19976TIP3    H281420   3.465   3.338   3.938  1.7728 -0.3226 -0.4403
19977TIP3   OH281421   1.355   4.054   4.867  0.4326 -0.7536 -0.0117
19977TIP3    H181422   1.356   3.970   4.820  0.7795 -0.0898 -1.2131
19977TIP3    H281423   1.441   4.059   4.909 -0.3554 -1.9424  1.7808
19978TIP3   OH281424   0.823   2.615  16.978 -0.0226  0.3674  0.1642
19978TIP3    H181425   0.791   2.659  16.900  0.3965  0.1609 -0.1230
19978TIP3    H281426   0.794   2.671  17.051 -1.9264 -0.3284 -0.0111
19979TIP3   OH281427   3.214   5.305  17.095  0.0902  0.2857  0.1480
19979TIP3    H181428   3.121   5.316  17.072  0.0008 -0.2535  0.2319
19979TIP3    H281429   3.218   5.218  17.134  0.8289 -0.1044 -0.8015
19980TIP3   OH281430   2.550   6.434   1.342  0.1974 -0.3527 -0.7829
19980TIP3    H181431   2.513   6.484   1.269 -0.5823 -0.0953 -0.2113
19980TIP3    H281432   2.495   6.356   1.349  0.0799 -0.2247 -0.2699
19981TIP3   OH281433   2.330   1.560   2.482  0.0492  1.1281  0.4300
19981TIP3    H181434   2.258   1.588   2.538  0.1379  1.7978  0.2265
19981TIP3    H281435   2.408   1.568   2.537  0.0766  1.3068  0.3669
19982TIP3   OH281436   1.125   3.658   4.203 -0.3676 -0.3247  0.1180
19982TIP3    H181437   1.189   3.717   4.164  0.4762 -1.3695 -0.1076
19982TIP3    H281438   1.071   3.714   4.259  1.1828  0.4681  0.8420
19983TIP3   OH281439   1.708   6.446  15.830  0.2115 -0.3929  0.2056
19983TIP3    H181440   1.622   6.408  15.845 -0.1487  0.1550 -0.4365
19983TIP3    H281441   1.697   6.501  15.752  0.5250  1.5632  1.4895
19984TIP3   OH281442   2.255   6.323   1.209  0.1600  0.2240  0.2425
19984TIP3    H181443   2.319   6.256   1.232 -1.3611 -0.8716  1.4592
19984TIP3    H281444   2.277   6.348   1.120  2.3640 -0.0013  0.6950
19985TIP3   OH281445   3.099   3.041  13.113 -0.1233 -0.1331 -0.7203
19985TIP3    H181446   3.169   3.106  13.105 -0.9583  0.9722  0.8378
19985TIP3    H281447   3.110   2.985  13.036  1.9199  0.5622 -0.9686
19986TIP3   OH281448   3.745   1.453   2.971  0.0121 -0.1708  0.3658
19986TIP3    H181449   3.809   1.522   2.987 -1.0159  1.1268 -0.9549
19986TIP3    H281450   3.783   1.401   2.901 -0.0628  0.1962  0.0496
19987TIP3   OH281451   3.519   2.349   1.713  0.0927  0.5564 -0.4725
19987TIP3    H181452   3.598   2.402   1.726 -0.3148  0.8522  0.9251
19987TIP3    H281453   3.550   2.269   1.671  1.3034  0.1999  1.0515
19988TIP3   OH281454   3.613   1.404  16.869  0.0983 -0.2357  0.3078
19988TIP3    H181455   3.610   1.433  16.778  1.5445 -0.2583  0.2382
19988TIP3    H281456   3.576   1.315  16.867 -1.0219  0.2288 -0.0475
19989TIP3   OH281457   0.542   6.732  15.103 -0.3102 -0.4107  0.0514
19989TIP3    H181458   0.572   6.721  15.013  1.0753  0.9339  0.3371
19989TIP3    H281459   0.516   6.824  15.109 -0.8733 -0.6169  0.8936
19990TIP3   OH281460   5.960   3.547  17.243 -0.3172 -0.8212 -0.0664
19990TIP3    H181461   6.001   3.461  17.246  3.1150  0.5978 -2.9972
19990TIP3    H281462   5.973   3.583  17.330  1.2702 -1.9282  0.1724
19991TIP3   OH281463   1.990   1.797  16.360 -0.4871 -0.0486 -0.3449
19991TIP3    H181464   2.061   1.861  16.352  1.5270 -2.2676 -0.7413
19991TIP3    H281465   1.992   1.771  16.452  1.8966 -3.0137 -1.1519
19992TIP3   OH281466   5.269   4.421   1.227 -0.8032 -0.3914  0.6769
19992TIP3    H181467   5.175   4.419   1.245 -1.2792  0.4880 -1.5993
19992TIP3    H281468   5.287   4.339   1.181 -0.4546 -0.5051  1.0075
19993TIP3   OH281469   4.515   4.360  16.516 -0.3984  0.3783  0.4268
19993TIP3    H181470   4.435   4.323  16.478  0.1690  0.0192 -0.4259
19993TIP3    H281471   4.560   4.285  16.555 -1.6624  0.9510  3.1017
19994TIP3   OH281472   4.608   2.563   6.089  0.6149 -0.3119 -0.3063
19994TIP3    H181473   4.619   2.511   6.169  0.4268  0.0424 -0.0478
19994TIP3    H281474   4.516   2.549   6.065  0.9518 -1.2679 -1.0554
19995TIP3   OH281475   6.262   4.846   1.597  0.8791 -0.0812 -0.5582
19995TIP3    H181476   6.190   4.875   1.652 -0.4942 -1.0798 -1.7739
19995TIP3    H281477   6.291   4.764   1.635  0.0366 -0.6906 -1.2259
19996TIP3   OH281478   0.824   3.995  16.183  0.3798  0.2002 -0.3955
19996TIP3    H181479   0.840   4.033  16.096  1.1202  0.9440  0.0618
19996TIP3    H281480   0.779   4.064  16.231 -1.7134 -0.8479 -0.7410
19997TIP3   OH281481   2.137   6.143   3.234  0.6109 -0.3275  0.0025
19997TIP3    H181482   2.066   6.124   3.295  0.5536 -0.1149  0.0016
19997TIP3    H281483   2.099   6.204   3.170  0.8225 -0.1295  0.0629
19998TIP3   OH281484   6.208   4.535   2.435 -0.4933 -0.2621 -0.3216
19998TIP3    H181485   6.139   4.595   2.461  0.1488  0.5221 -0.4184
19998TIP3    H281486   6.203   4.534   2.339 -1.3721 -1.4044 -0.2848
19999TIP3   OH281487   2.124   2.809  11.120  0.5199 -0.4925  0.5054
19999TIP3    H181488   2.134   2.869  11.046 -0.1855  0.1615  0.9343
19999TIP3    H281489   2.087   2.730  11.081  0.3614 -0.2324  0.1188
20000TIP3   OH281490   5.377   1.289  12.830 -0.0513  0.5050  0.1712
20000TIP3    H181491   5.302   1.338  12.863 -0.8793 -0.6936  0.1247
20000TIP3    H281492   5.383   1.313  12.738 -1.1933 -0.3613 -0.1476
20001TIP3   OH281493   6.637   5.452   2.107  0.2377  0.6227 -0.4579
20001TIP3    H181494   6.545   5.448   2.134  0.4809  0.4339  0.3396
20001TIP3    H281495   6.646   5.380   2.044  0.0767  0.0399  0.1799
20002TIP3   OH281496   4.644   6.509  17.102  0.0180  0.5395  0.0225
20002TIP3    H181497   4.611   6.593  17.135 -0.5688  0.1455  0.4526
20002TIP3    H281498   4.670   6.528  17.012 -1.0176  0.9668 -0.1954
20003TIP3   OH281499   0.546   0.963  15.319  0.3853  0.5160 -0.4205
20003TIP3    H181500   0.481   0.914  15.370  0.8002  0.3114 -0.0866
20003TIP3    H281501   0.522   0.947  15.228  0.0948  0.2674 -0.3021
20004TIP3   OH281502   2.632   6.570  11.365 -0.1649  0.8377 -0.2467
20004TIP3    H181503   2.573   6.544  11.436  1.1090 -1.3532  0.0437
20004TIP3    H281504   2.694   6.630  11.407  0.1424  0.1208  0.3528
20005TIP3   OH281505   0.618   4.905   2.752  0.2304 -0.1081  0.5099
20005TIP3    H181506   0.586   4.814   2.749  0.9534 -0.3437 -0.3533
20005TIP3    H281507   0.552   4.952   2.803  0.5730 -1.4073  2.1797
20006TIP3   OH281508   1.439   2.949   1.353 -0.1962  1.1706  0.3739
20006TIP3    H181509   1.365   2.975   1.408  0.5176 -1.1618  2.5932
20006TIP3    H281510   1.447   2.854   1.369  2.2549  1.1056 -1.0507
20007TIP3   OH281511   5.576   1.403   5.101  0.9506  0.3916 -0.3931
20007TIP3    H181512   5.616   1.461   5.166 -0.8764 -0.9510  2.0336
20007TIP3    H281513   5.639   1.399   5.030  2.4646  2.9082  0.7317
20008TIP3   OH281514   3.613   5.194   4.341 -0.2688  0.2473 -0.0209
20008TIP3    H181515   3.592   5.100   4.341  1.1325 -0.1115 -2.2624
20008TIP3    H281516   3.545   5.234   4.287 -1.4970  0.7203  1.8198
20009TIP3   OH281517   6.139   0.002   0.896 -0.1312 -0.1639 -0.1553
20009TIP3    H181518   6.114   0.052   0.973  0.2998  2.6064 -1.7498
20009TIP3    H281519   6.065   0.011   0.836 -0.7424 -2.8360  0.1418
20010TIP3   OH281520   6.493   4.689  10.744 -0.0451  0.2148 -0.2524
20010TIP3    H181521   6.568   4.647  10.787  0.0985 -0.5957 -1.2586
20010TIP3    H281522   6.416   4.654  10.788  0.0910 -0.8042 -0.8097
20011TIP3   OH281523   6.130   4.631   6.081 -0.3147 -0.3352  0.1216
20011TIP3    H181524   6.039   4.602   6.085 -0.8895  0.7059 -3.6682
20011TIP3    H281525   6.126   4.725   6.101  0.1987 -0.6652  1.8422
20012TIP3   OH281526   0.575   3.210  16.044  0.5068 -0.1375  0.0470
20012TIP3    H181527   0.553   3.139  16.104 -0.0264  0.5615  0.7002
20012TIP3    H281528   0.631   3.170  15.978 -1.1151 -1.5221 -0.5206
20013TIP3   OH281529   2.739   0.297   1.625 -0.3162 -0.3155  0.0284
20013TIP3    H181530   2.747   0.365   1.557  0.8916 -1.4661 -1.0280
20013TIP3    H281531   2.768   0.340   1.705 -0.0454  0.5739 -0.5360
20014TIP3   OH281532   2.698   5.871  13.934 -0.3841 -0.1944 -0.3403
20014TIP3    H181533   2.603   5.884  13.932 -0.3791 -0.3270 -2.3133
20014TIP3    H281534   2.725   5.901  14.021 -1.7104  3.4909 -1.1196
20015TIP3   OH281535   0.461   4.102   3.254  0.1135  0.4337  0.2230
20015TIP3    H181536   0.386   4.142   3.209 -0.4972  0.3218  1.1218
20015TIP3    H281537   0.438   4.107   3.347  0.5549 -0.9701  0.4147
20016TIP3   OH281538   2.639   1.492  11.537  0.2691  0.2435 -0.2434
20016TIP3    H181539   2.717   1.472  11.485 -0.4413  0.0155 -1.2471
20016TIP3    H281540   2.590   1.410  11.539 -0.0823  0.4605  0.1440
20017TIP3   OH281541   5.189   3.866  11.423 -0.5147 -0.5735 -0.2065
20017TIP3    H181542   5.121   3.890  11.486  0.4281  1.3254  0.1047
20017TIP3    H281543   5.151   3.889  11.337 -0.7969 -0.8008 -0.1444
20018TIP3   OH281544   5.522   0.495   1.809 -0.6268  0.1658  0.0809
20018TIP3    H181545   5.574   0.544   1.872  0.1763 -0.4728 -0.0803
20018TIP3    H281546   5.479   0.427   1.861  1.9382 -1.8984 -0.3964
20019TIP3   OH281547   5.380   1.506  13.184  0.2393 -0.0872 -0.2795
20019TIP3    H181548   5.468   1.493  13.220  0.5585 -0.5130 -1.2005
20019TIP3    H281549   5.366   1.601  13.189  1.0032  0.0540 -0.7144
20020TIP3   OH281550   3.840   2.054  14.230  0.0047 -0.0546 -0.2050
20020TIP3    H181551   3.863   2.051  14.323 -0.7558  0.1236 -0.0089
20020TIP3    H281552   3.811   2.144  14.215 -1.0524 -0.4069 -0.3268
20021TIP3   OH281553   6.713   0.058  10.660  0.1112 -0.5580  0.5262
20021TIP3    H181554   6.752   0.079  10.576  1.1420  1.2958  1.4403
20021TIP3    H281555   6.761  -0.020  10.690  0.7513 -0.3362  0.0897
20022TIP3   OH281556   4.658   5.659  16.409 -0.5441 -0.0447 -0.0883
20022TIP3    H181557   4.606   5.673  16.488  1.5080  0.1329  1.2527
20022TIP3    H281558   4.644   5.567  16.387 -1.8560  0.1356 -0.0734
20023TIP3   OH281559   3.386   1.539   1.669  0.9733  0.4638 -0.1217
20023TIP3    H181560   3.300   1.575   1.689  0.6615 -0.5365  0.3747
20023TIP3    H281561   3.447   1.606   1.697  0.4433  0.1863  1.7705
20024TIP3   OH281562   0.052   5.015   2.702 -0.1487 -0.5982  0.7399
20024TIP3    H181563  -0.015   4.947   2.703 -0.1190 -0.6262  0.9069
20024TIP3    H281564   0.056   5.044   2.611 -0.3000 -0.6828  0.7061
20025TIP3   OH281565   6.025   0.312   2.136 -0.7529  0.3675 -0.2637
20025TIP3    H181566   6.009   0.233   2.188 -0.5572  0.8125  0.4810
20025TIP3    H281567   6.119   0.310   2.118 -0.5752  0.9322  0.5848
20026TIP3   OH281568   5.336   3.217   4.110  0.2630 -0.6750  0.4145
20026TIP3    H181569   5.247   3.182   4.115  0.9033 -2.0960  2.4115
20026TIP3    H281570   5.370   3.184   4.027 -0.8664 -0.6188 -0.0752
20027TIP3   OH281571   3.421   5.592  14.216  0.1242 -0.1132  0.3133
20027TIP3    H181572   3.365   5.543  14.276 -1.1408 -0.0126 -0.7577
20027TIP3    H281573   3.489   5.629  14.272 -0.6685 -0.5460  1.5954
20028TIP3   OH281574   3.500   4.544  10.525  0.0231 -0.0540  0.1240
20028TIP3    H181575   3.533   4.497  10.448  2.2966 -0.4688  1.3130
20028TIP3    H281576   3.499   4.479  10.595 -0.4165  0.7467  0.8773
20029TIP3   OH281577   1.635   0.284   1.531 -0.0915 -0.0851 -0.5597
20029TIP3    H181578   1.548   0.297   1.494 -1.2479  0.9084  2.3442
20029TIP3    H281579   1.619   0.262   1.623  2.6828 -1.3217 -0.3161
20030TIP3   OH281580   4.078   5.778   1.492  0.2157  0.2388 -0.3033
20030TIP3    H181581   4.068   5.856   1.438  0.1324  1.4497  1.3977
20030TIP3    H281582   4.169   5.780   1.521  0.3494 -0.5766 -0.6717
20031TIP3   OH281583   0.498   3.231  16.966 -0.4271 -0.2260 -0.7709
20031TIP3    H181584   0.428   3.268  17.020 -0.0589 -1.7155  0.7431
20031TIP3    H281585   0.578   3.272  16.998  0.1269 -3.0295  1.6596
20032TIP3   OH281586   0.129   2.644  11.519 -0.1330 -0.2874  0.3283
20032TIP3    H181587   0.039   2.647  11.552 -0.1485  0.1517  0.2484
20032TIP3    H281588   0.122   2.602  11.433 -0.2609 -0.2490  0.3197
20033TIP3   OH281589   2.455   3.946   3.769 -0.2797  0.2166  0.6791
20033TIP3    H181590   2.472   4.009   3.840  0.4177  0.6646  0.1224
20033TIP3    H281591   2.538   3.901   3.756 -0.6428 -0.4787  0.7308
20034TIP3   OH281592   4.421   1.046  12.003 -0.4310 -0.2368  0.4126
20034TIP3    H181593   4.495   1.031  12.061  0.4501  1.3670 -0.2784
20034TIP3    H281594   4.353   1.083  12.060 -0.1983 -0.3475  0.7590
20035TIP3   OH281595   2.633   5.992   0.766 -0.2155  0.3230 -0.1932
20035TIP3    H181596   2.546   6.026   0.783  0.1519  0.5441  1.3143
20035TIP3    H281597   2.618   5.901   0.738 -1.0137  0.8740 -1.6318
20036TIP3   OH281598   5.456   6.247  12.456  0.0649 -0.3716 -0.0288
20036TIP3    H181599   5.487   6.195  12.530  0.4568 -0.2407 -0.1000
20036TIP3    H281600   5.454   6.186  12.383  1.0645 -0.1604 -0.2452
20037TIP3   OH281601   2.653   0.378   6.325 -0.0574  0.1436 -0.8667
20037TIP3    H181602   2.681   0.468   6.337  0.7539 -0.2124 -0.0030
20037TIP3    H281603   2.587   0.363   6.393  1.8344 -0.7436  0.8252
20038TIP3   OH281604   4.513   0.080   6.407 -0.0638 -0.4872  0.2302
20038TIP3    H181605   4.439   0.025   6.434 -0.6674  0.4670  0.5350
20038TIP3    H281606   4.589   0.041   6.451 -0.0095 -2.7336 -1.7088
20039TIP3   OH281607   4.996   6.667   4.320 -0.2591  0.0442  0.3969
20039TIP3    H181608   4.995   6.581   4.361 -0.2081 -0.0268  0.2509
20039TIP3    H281609   5.030   6.651   4.232 -3.2538 -0.2728 -0.7456
20040TIP3   OH281610   6.318   1.470  13.120 -0.0370  0.1354  0.2727
20040TIP3    H181611   6.249   1.476  13.186 -0.7912  1.6487 -0.6416
20040TIP3    H281612   6.312   1.380  13.089 -2.2957  0.5215 -0.5230
20041TIP3   OH281613   2.867   1.465  16.861  0.2746  0.2877  0.2501
20041TIP3    H181614   2.827   1.392  16.814 -0.7596  0.2522  1.1467
20041TIP3    H281615   2.935   1.498  16.803 -0.9201  0.1986 -1.2243
20042TIP3   OH281616   1.240   5.217   2.807 -0.0869  0.2031  0.1528
20042TIP3    H181617   1.289   5.293   2.776 -0.0978  0.5462  0.9720
20042TIP3    H281618   1.183   5.251   2.876  1.1763 -0.8707  1.7535
20043TIP3   OH281619   3.742   2.894  12.719 -0.3170 -0.1621  0.3472
20043TIP3    H181620   3.821   2.932  12.681  0.1431 -1.4201  0.0118
20043TIP3    H281621   3.751   2.800  12.703 -2.7126 -0.1739 -1.2912
20044TIP3   OH281622   4.706   6.001  13.168 -0.8046  0.2172  0.4346
20044TIP3    H181623   4.787   6.033  13.128 -0.9000 -2.6474 -2.2553
20044TIP3    H281624   4.640   6.065  13.144 -0.4985 -0.5467 -2.6447
20045TIP3   OH281625   0.571   4.123  11.577 -0.3179  0.2591  0.6029
20045TIP3    H181626   0.479   4.109  11.557 -0.4867  0.7052  1.0645
20045TIP3    H281627   0.579   4.217  11.591  0.2555  0.2566  0.3235
20046TIP3   OH281628   6.493   1.358  16.121  0.6198 -0.2158  0.5697
20046TIP3    H181629   6.437   1.407  16.182  1.8296  0.7720  0.8990
20046TIP3    H281630   6.516   1.279  16.168  1.8829  0.7315  1.5617
20047TIP3   OH281631   4.708   5.854   5.694  0.1885  0.6004  0.1094
20047TIP3    H181632   4.640   5.921   5.699  0.4928  0.8027  1.5235
20047TIP3    H281633   4.660   5.771   5.700  0.1698  0.7568  2.6702
20048TIP3   OH281634   0.339   2.243  11.802 -0.4506  0.4181 -0.0446
20048TIP3    H181635   0.391   2.234  11.882 -0.1053  2.0687 -0.0510
20048TIP3    H281636   0.404   2.241  11.731 -0.5833  0.5640 -0.1704
20049TIP3   OH281637   1.693   6.665   5.142 -0.1034 -0.1380  0.4036
20049TIP3    H181638   1.751   6.670   5.066  0.0044  2.1811  0.6126
20049TIP3    H281639   1.608   6.638   5.105 -0.2489  1.7057 -0.6736
20050TIP3   OH281640   6.724   4.701  14.033 -0.4898 -0.1514  0.4906
20050TIP3    H181641   6.670   4.752  13.973 -1.8882 -0.5516  1.3815
20050TIP3    H281642   6.747   4.622  13.983 -0.3903  0.2090 -0.0346
20051TIP3   OH281643   5.169   3.993  13.880 -0.5754 -0.3324 -0.3246
20051TIP3    H181644   5.235   3.924  13.873  0.2426  0.2517  1.3927
20051TIP3    H281645   5.218   4.072  13.901 -1.6682  0.4698 -0.7109
20052TIP3   OH281646   5.895   0.187  13.971  0.4937  0.2352 -0.1975
20052TIP3    H181647   5.861   0.238  13.897  0.1119  2.7308  1.6473
20052TIP3    H281648   5.817   0.147  14.009  0.5159  0.1136 -0.2800
20053TIP3   OH281649   2.398   2.530  16.239 -0.4483  0.1268 -0.5310
20053TIP3    H181650   2.479   2.575  16.217 -0.7136  1.9008  1.9405
20053TIP3    H281651   2.377   2.478  16.161  1.7747  1.4869 -2.0754
20054TIP3   OH281652   1.989   4.396   2.990 -0.8945 -0.4164  0.3494
20054TIP3    H181653   1.943   4.362   2.913 -1.2678 -1.8895  1.2223
20054TIP3    H281654   1.920   4.410   3.055 -0.5990  0.9651  0.3903
20055TIP3   OH281655   6.120   5.502   5.651  0.1349  0.1641 -0.0142
20055TIP3    H181656   6.150   5.591   5.633 -0.4771  0.5716  0.9076
20055TIP3    H281657   6.201   5.451   5.663  0.5004  1.3341  2.8533
20056TIP3   OH281658   2.184   4.741  15.617 -0.7114 -0.2133 -0.1770
20056TIP3    H181659   2.222   4.800  15.682  0.6732  0.3807 -1.4902
20056TIP3    H281660   2.235   4.757  15.537 -2.9120 -0.3434 -1.6490
20057TIP3   OH281661   4.186   5.083   1.142  0.2983  0.5946 -0.0677
20057TIP3    H181662   4.154   5.158   1.092 -2.5230 -1.2108 -1.0258
20057TIP3    H281663   4.170   5.007   1.086 -0.4860 -1.1768  2.4632
20058TIP3   OH281664   3.404   3.200   5.457  0.1669 -0.3498  0.1471
20058TIP3    H181665   3.462   3.145   5.405 -1.0408 -0.2621 -1.3193
20058TIP3    H281666   3.446   3.286   5.457  0.5213 -0.5222 -0.0905
20059TIP3   OH281667   6.267   0.596   0.565 -0.1572 -0.4437  0.2528
20059TIP3    H181668   6.261   0.533   0.493  1.3369 -1.0582  0.6510
20059TIP3    H281669   6.343   0.650   0.543 -0.1756 -0.1159  0.9807
20060TIP3   OH281670   5.505   4.383   0.226  0.1199  0.0370 -0.1766
20060TIP3    H181671   5.501   4.293   0.257  1.7780 -0.4807 -1.4173
20060TIP3    H281672   5.484   4.378   0.133 -0.2249  0.9977 -0.1626
20061TIP3   OH281673   3.618   0.811  16.849 -0.0334 -0.1333  0.1696
20061TIP3    H181674   3.577   0.861  16.779  0.3507  0.4891  0.3853
20061TIP3    H281675   3.557   0.739  16.867 -2.1038  2.0229  2.0381
20062TIP3   OH281676   5.116   0.310  15.330  0.7992 -0.7025  0.3164
20062TIP3    H181677   5.028   0.329  15.362  0.5801 -1.3197  0.0867
20062TIP3    H281678   5.145   0.236  15.383 -0.0772 -2.6063 -1.7669
20063TIP3   OH281679   4.127   5.109  13.160  0.0565  0.1839  0.7452
20063TIP3    H181680   4.194   5.138  13.098 -0.4713 -1.4275 -0.6135
20063TIP3    H281681   4.145   5.159  13.240  2.1661  0.5894  0.0430
20064TIP3   OH281682   0.800   1.280  17.100  0.1280 -0.1397 -0.6052
20064TIP3    H181683   0.814   1.288  17.195  0.1962 -0.1035 -0.6177
20064TIP3    H281684   0.846   1.200  17.075  1.5366  0.7502 -0.8875
20065TIP3   OH281685   4.502   0.117   3.659 -0.1419  0.1594 -0.2195
20065TIP3    H181686   4.589   0.078   3.667 -0.6981 -0.7992  1.3085
20065TIP3    H281687   4.518   0.211   3.661  0.8123 -0.0114  0.6904
20066TIP3   OH281688   4.603   3.201  12.224 -0.4259 -0.6276  0.3109
20066TIP3    H181689   4.648   3.125  12.188  1.9488  1.1577 -0.6131
20066TIP3    H281690   4.566   3.171  12.307  2.0316 -2.2937  0.8265
20067TIP3   OH281691   1.920   3.588   2.116  0.2739 -0.5518  0.3295
20067TIP3    H181692   1.911   3.653   2.046 -2.3590 -0.5882  0.5585
20067TIP3    H281693   1.931   3.505   2.069 -2.6598 -0.7434 -0.1637
20068TIP3   OH281694   0.963   3.350  16.550  0.4934 -0.4669  0.2028
20068TIP3    H181695   0.899   3.369  16.481  0.3893 -0.4302  0.3110
20068TIP3    H281696   0.912   3.310  16.620  0.1220  2.0164  1.3975
20069TIP3   OH281697   3.758   4.797   2.049  0.8004  0.1025 -0.5299
20069TIP3    H181698   3.789   4.777   2.137  0.7185 -0.2025 -0.5710
20069TIP3    H281699   3.821   4.755   1.991 -0.4670 -1.7531 -0.6158
20070TIP3   OH281700   0.372   3.639   3.968 -0.0666  0.9191 -0.2616
20070TIP3    H181701   0.417   3.557   3.982  0.4460  1.1825 -0.3528
20070TIP3    H281702   0.390   3.691   4.046  1.3710  1.7354 -1.1119
20071TIP3   OH281703   2.189   5.796  14.397 -0.1232  0.0767 -0.5274
20071TIP3    H181704   2.106   5.812  14.352  0.3368 -0.8922 -1.7565
20071TIP3    H281705   2.196   5.867  14.461 -0.3681  2.0199 -2.5994
20072TIP3   OH281706   0.942   4.999  14.256 -0.5690  0.3319 -0.1099
20072TIP3    H181707   0.873   4.940  14.285  1.4896 -1.3017  1.6416
20072TIP3    H281708   0.993   5.017  14.335  1.2858  1.1161 -1.4424
20073TIP3   OH281709   5.049   3.679  15.892 -0.1524 -0.0669  0.0625
20073TIP3    H181710   4.981   3.746  15.887 -0.8486 -0.7754 -0.1058
20073TIP3    H281711   5.115   3.707  15.828  0.0935  1.0345  0.7847
20074TIP3   OH281712   5.733   1.013  14.019  0.1490  0.5365 -0.1467
20074TIP3    H181713   5.684   1.047  14.093 -1.8540 -0.4617 -0.9845
20074TIP3    H281714   5.679   0.942  13.984  2.9223 -1.7011 -0.1070
20075TIP3   OH281715   1.990   6.163   4.873 -0.5288  0.1055  0.1123
20075TIP3    H181716   1.915   6.108   4.851 -0.9727  0.6218  0.3185
20075TIP3    H281717   1.953   6.250   4.886  0.0315  0.2537  0.7468
20076TIP3   OH281718   2.350   2.792   2.706 -0.5548  0.0090 -0.8703
20076TIP3    H181719   2.279   2.738   2.670 -2.2795  0.8274  1.1588
20076TIP3    H281720   2.316   2.881   2.702 -0.3486  0.2397  1.6750
20077TIP3   OH281721   2.322   0.096   4.269  0.3001  0.4715  0.5985
20077TIP3    H181722   2.265   0.132   4.337  1.3362  0.0160  1.7195
20077TIP3    H281723   2.262   0.071   4.199 -0.7798  0.9861  1.3203
20078TIP3   OH281724   0.134   4.938   5.186  0.2020  0.4409  0.6224
20078TIP3    H181725   0.151   4.940   5.280 -1.4714  4.7899  1.0007
20078TIP3    H281726   0.039   4.947   5.180  0.5746  3.7988 -1.4251
20079TIP3   OH281727   3.891   6.401  15.105 -0.0015 -0.0346 -0.7737
20079TIP3    H181728   3.976   6.414  15.062  0.0412 -1.4548 -1.1426
20079TIP3    H281729   3.828   6.401  15.032 -0.1521 -0.4885 -0.6401
20080TIP3   OH281730   2.388   5.817  12.630  0.4674  0.1293 -0.2776
20080TIP3    H181731   2.358   5.833  12.719  1.5873 -1.5892  0.4337
20080TIP3    H281732   2.437   5.896  12.606 -2.2004  1.7838 -0.4330
20081TIP3   OH281733   2.679   3.322   4.391  0.7342  0.0459 -0.2660
20081TIP3    H181734   2.670   3.239   4.437 -0.7359  0.8549  0.9505
20081TIP3    H281735   2.750   3.307   4.328  0.5032 -2.1122 -0.0534
20082TIP3   OH281736   6.564   1.794  16.575  0.1232  0.1933 -0.3287
20082TIP3    H181737   6.548   1.872  16.627 -2.5422 -0.1964 -0.5136
20082TIP3    H281738   6.641   1.754  16.616  0.4118  1.9167  0.8952
20083TIP3   OH281739   3.186   5.710   2.572  0.5070 -0.2607  0.1873
20083TIP3    H181740   3.196   5.670   2.486 -1.8878 -0.1884 -0.1663
20083TIP3    H281741   3.200   5.804   2.556 -0.7797 -0.1419 -0.3000
20084TIP3   OH281742   5.978   1.455   2.159  0.3798 -0.2723  0.3651
20084TIP3    H181743   5.911   1.497   2.212  1.7389  1.3753  0.8217
20084TIP3    H281744   5.943   1.457   2.070 -1.3634 -1.9362  0.9818
20085TIP3   OH281745   3.496   0.363  13.802  0.3505 -1.0763  0.8586
20085TIP3    H181746   3.547   0.366  13.721 -0.4080 -1.1636  0.3617
20085TIP3    H281747   3.551   0.316  13.864  1.1357 -0.5976  0.5335
20086TIP3   OH281748   0.043   3.685  16.972 -0.4044  0.0608 -0.2273
20086TIP3    H181749   0.086   3.672  17.057 -1.5208  1.0448  0.4847
20086TIP3    H281750   0.032   3.779  16.965 -1.9530 -0.1508 -0.6607
20087TIP3   OH281751   6.371   1.986  14.797 -0.4324  0.1429 -0.2838
20087TIP3    H181752   6.356   1.949  14.884 -0.1722  1.8520  0.5065
20087TIP3    H281753   6.421   1.918  14.751  1.5010  0.1700  1.6833
20088TIP3   OH281754   4.776   1.854  11.787  0.1497  0.2997 -0.2608
20088TIP3    H181755   4.722   1.890  11.857 -0.3569 -1.7810  0.4399
20088TIP3    H281756   4.749   1.904  11.709 -3.5633 -1.3626 -0.1366
20089TIP3   OH281757   6.558   1.628  13.788 -0.0771  0.2205 -0.4428
20089TIP3    H181758   6.513   1.548  13.761  1.0763 -0.6412  0.1558
20089TIP3    H281759   6.591   1.609  13.876  0.8334  1.0921 -0.5837
20090TIP3   OH281760   4.748   0.927   1.256  0.3410 -0.1155 -0.5050
20090TIP3    H181761   4.682   0.988   1.223  1.1210  1.3003  0.4840
20090TIP3    H281762   4.716   0.901   1.343  1.6996  1.6472  0.5763
20091TIP3   OH281763   5.345   3.734  12.146  0.3565  0.2333 -0.4143
20091TIP3    H181764   5.410   3.728  12.215  0.5933  0.0146 -0.6551
20091TIP3    H281765   5.284   3.802  12.175 -1.1363 -1.7667  1.3623
20092TIP3   OH281766   6.643   2.429  15.910 -0.3193 -0.3642 -0.0900
20092TIP3    H181767   6.582   2.355  15.917 -0.3012 -0.4242 -0.5250
20092TIP3    H281768   6.695   2.409  15.832  0.7138 -0.6519  0.6586
20093TIP3   OH281769   1.330   0.059   1.818  0.0289  0.3010  0.1904
20093TIP3    H181770   1.320   0.054   1.723 -1.3747  2.2468  0.2086
20093TIP3    H281771   1.311  -0.029   1.850 -0.5725 -0.0924 -1.2479
20094TIP3   OH281772   4.414   1.911  15.216  0.2916 -0.3320  0.0528
20094TIP3    H181773   4.432   1.964  15.294  0.9824  0.2201 -0.4739
20094TIP3    H281774   4.492   1.857  15.206 -0.2366 -1.1533  0.3416
20095TIP3   OH281775   4.765   3.023   2.279  0.1568  0.6068  0.3211
20095TIP3    H181776   4.716   3.066   2.349  0.6124  0.8875  0.4728
20095TIP3    H281777   4.700   3.005   2.212 -0.1538  0.9806  0.5174
20096TIP3   OH281778   0.398   2.925   1.162  0.1688 -0.0079 -0.0864
20096TIP3    H181779   0.312   2.915   1.202 -1.4338  0.3459 -3.2781
20096TIP3    H281780   0.415   3.019   1.163 -1.0606  0.2666 -2.5246
20097TIP3   OH281781   3.514   4.947   2.155 -0.8112 -0.4155 -0.1816
20097TIP3    H181782   3.542   5.038   2.151  0.2395 -0.7050  0.1759
20097TIP3    H281783   3.592   4.897   2.129 -0.6293 -1.2938  1.8924
20098TIP3   OH281784   4.045   6.394  13.189  0.4582 -0.1241  0.0361
20098TIP3    H181785   4.088   6.366  13.269  1.9636 -0.9165 -1.0206
20098TIP3    H281786   3.952   6.389  13.208  0.8087 -0.1542  1.7718
20099TIP3   OH281787   4.393   4.865   5.215 -0.5312  0.1354  0.1238
20099TIP3    H181788   4.435   4.787   5.179  0.2895  0.6680 -0.0875
20099TIP3    H281789   4.457   4.934   5.203 -0.9842  0.7047  0.9470
20100TIP3   OH281790   1.575   0.579   2.633 -0.6781  0.0498 -0.0395
20100TIP3    H181791   1.522   0.650   2.669  0.1839  0.5755  0.1906
20100TIP3    H281792   1.658   0.585   2.680  0.3279  0.5276 -1.8537
20101TIP3   OH281793   6.527   4.331   0.196  0.3490 -0.0961  0.2265
20101TIP3    H181794   6.492   4.385   0.125  0.5067 -1.0696 -0.6178
20101TIP3    H281795   6.620   4.321   0.175  0.4290 -0.2567  0.6563
20102TIP3   OH281796   6.109   0.336  10.669  0.0239 -0.1295 -0.0347
20102TIP3    H181797   6.109   0.306  10.579 -2.6064 -0.2919 -0.0189
20102TIP3    H281798   6.082   0.260  10.720 -0.8165  0.5954  0.6233
20103TIP3   OH281799   0.836   6.302   5.980 -0.5872 -0.4578 -0.8490
20103TIP3    H181800   0.867   6.213   5.995 -1.1066 -0.5872 -0.5188
20103TIP3    H281801   0.843   6.345   6.065 -0.1405 -0.1180 -1.0544
20104TIP3   OH281802   0.106   6.149  15.366 -0.3407  0.0825  0.0750
20104TIP3    H181803   0.154   6.230  15.381  1.5696 -0.8120 -1.0249
20104TIP3    H281804   0.016   6.170  15.388  0.0292  2.6561 -0.7516
20105TIP3   OH281805   6.005   0.326  14.839  0.4818 -0.4322  0.1384
20105TIP3    H181806   6.055   0.407  14.829  0.1771  0.0074  1.9623
20105TIP3    H281807   6.011   0.284  14.753  0.7871  1.4290 -0.7901
20106TIP3   OH281808   3.229   0.292  13.777 -0.4662 -0.4144 -0.3147
20106TIP3    H181809   3.300   0.353  13.799 -0.6241  0.0605 -1.1119
20106TIP3    H281810   3.203   0.255  13.861 -0.5576  0.8224  0.2153
20107TIP3   OH281811   6.027   6.554   3.800  0.0329 -0.5224 -0.4633
20107TIP3    H181812   6.060   6.516   3.882  1.4745 -0.8295 -1.1843
20107TIP3    H281813   5.996   6.479   3.750  0.1284 -0.4446 -0.6386
20108TIP3   OH281814   4.843   6.819  13.133  0.6653  0.0747  0.2277
20108TIP3    H181815   4.938   6.825  13.139  0.7346 -1.8119  1.2199
20108TIP3    H281816   4.814   6.910  13.126  2.4796  0.7368  1.0643
20109TIP3   OH281817   4.882   5.789  17.113 -0.5324  0.4468 -0.1621
20109TIP3    H181818   4.807   5.777  17.171  0.2372  1.3470  1.0365
20109TIP3    H281819   4.848   5.771  17.025 -2.0404  0.4428  0.4154
20110TIP3   OH281820   3.929   4.926  14.857  0.5068 -0.0683  0.2355
20110TIP3    H181821   4.015   4.893  14.831  0.9365  0.7323  0.6238
20110TIP3    H281822   3.895   4.859  14.917 -0.0429 -1.4047 -1.5025
20111TIP3   OH281823   0.404   2.285  13.815  0.0464 -0.0628 -0.3527
20111TIP3    H181824   0.453   2.206  13.790 -0.3201 -1.1017  1.9718
20111TIP3    H281825   0.469   2.340  13.858 -0.0428  0.1872 -0.5394
20112TIP3   OH281826   5.771   2.971  13.952  0.2577 -0.5393  0.6190
20112TIP3    H181827   5.695   2.918  13.975  0.2809 -0.7706  0.1508
20112TIP3    H281828   5.774   3.038  14.020  1.0417 -1.9512  2.0326
20113TIP3   OH281829   6.567   0.446  13.615 -0.2917  0.1698  0.0200
20113TIP3    H181830   6.624   0.506  13.664 -0.0968 -1.2612  1.5869
20113TIP3    H281831   6.626   0.378  13.582 -0.5954  0.5260 -1.2796
20114TIP3   OH281832   0.282   4.607   0.079  0.1727  0.6990  0.3244
20114TIP3    H181833   0.262   4.543   0.147  2.1053  0.9254  1.1402
20114TIP3    H281834   0.326   4.557   0.011 -0.4879  0.7271 -0.1219
20115TIP3   OH281835   1.031   3.667   4.570  0.1494 -0.1467 -0.1557
20115TIP3    H181836   0.997   3.703   4.488  1.7124 -0.3691 -0.9146
20115TIP3    H281837   0.964   3.689   4.635 -0.6638  0.8571 -1.3029
20116TIP3   OH281838   3.850   0.938  17.256  0.0608  0.1090 -0.5566
20116TIP3    H181839   3.776   0.977  17.209  0.4451  1.7395  0.1707
20116TIP3    H281840   3.912   0.914  17.188  0.0545  1.2747 -0.9765
20117TIP3   OH281841   0.262   6.648  14.001 -0.1833  0.0033 -0.1813
20117TIP3    H181842   0.308   6.727  13.974 -0.1944 -0.0722 -0.4239
20117TIP3    H281843   0.312   6.577  13.962  0.2531 -0.1569  0.6403
20118TIP3   OH281844   6.563   6.757  16.446  0.0483 -0.4271 -0.0574
20118TIP3    H181845   6.512   6.716  16.375  1.5749 -2.3007 -0.0914
20118TIP3    H281846   6.650   6.771  16.408  0.1402  0.9999  0.6331
20119TIP3   OH281847   6.174   2.757  16.609 -0.7010  0.3795  0.0937
20119TIP3    H181848   6.262   2.766  16.645 -0.6968 -1.1693  0.5353
20119TIP3    H281849   6.132   2.842  16.624  0.9149  1.3355 -0.6892
20120TIP3   OH281850   0.374   5.138  16.180 -0.4182  0.3142  0.1371
20120TIP3    H181851   0.330   5.209  16.228  2.2610  1.5914  0.7699
20120TIP3    H281852   0.374   5.064  16.242 -2.3907 -0.0054 -0.1908
20121TIP3   OH281853   4.968   1.711  17.162 -0.0061 -0.4452  0.0919
20121TIP3    H181854   4.909   1.647  17.123 -0.0523 -0.9577  0.9861
20121TIP3    H281855   5.056   1.685  17.133 -0.2850  0.8881 -2.0343
20122TIP3   OH281856   4.362   3.653  12.648 -0.3689  0.2169  0.4777
20122TIP3    H181857   4.391   3.562  12.660  1.8675  0.5573 -1.8433
20122TIP3    H281858   4.275   3.645  12.609 -0.2475 -0.9372  0.4271
20123TIP3   OH281859   1.500   6.342  12.273  0.1401 -1.1940  0.2640
20123TIP3    H181860   1.578   6.327  12.219 -0.8909 -3.1309 -0.7289
20123TIP3    H281861   1.434   6.374  12.212 -0.3749 -1.2447  0.7861
20124TIP3   OH281862   0.829   3.702  13.659  0.0506  0.0459  1.0349
20124TIP3    H181863   0.787   3.657  13.732 -2.5136  1.2751  0.3758
20124TIP3    H281864   0.826   3.795  13.684  0.9808  0.2919  0.2563
20125TIP3   OH281865   3.520   0.703   3.467 -0.5719  0.4538 -0.2573
20125TIP3    H181866   3.521   0.607   3.472  0.7754  0.5439  1.4397
20125TIP3    H281867   3.599   0.725   3.416  0.1584  0.7322  0.9786
20126TIP3   OH281868   6.533   5.381  17.188  0.3759  0.2553 -0.1450
20126TIP3    H181869   6.601   5.318  17.165 -0.5314 -0.0684 -2.0929
20126TIP3    H281870   6.451   5.334  17.173 -0.2885  0.9673  1.1829
20127TIP3   OH281871   4.195   4.230  15.916 -0.1847 -0.5008  0.3576
20127TIP3    H181872   4.191   4.135  15.902  1.6022 -0.6017  0.4740
20127TIP3    H281873   4.255   4.261  15.848  1.5459  0.1558  2.1593
20128TIP3   OH281874   0.099   1.009  12.590  0.4133  0.5486 -0.2073
20128TIP3    H181875   0.059   0.995  12.675  1.5431  0.2644  0.2961
20128TIP3    H281876   0.030   0.990  12.527 -0.2686  0.1946  0.6346
20129TIP3   OH281877   6.456   0.345  16.685  0.5415  0.0341 -0.0485
20129TIP3    H181878   6.401   0.325  16.610 -0.0599 -1.9780  0.8821
20129TIP3    H281879   6.407   0.311  16.760  2.7717 -1.3326  0.8668
20130TIP3   OH281880   4.837   4.869   4.664 -0.2402  0.3656 -0.4656
20130TIP3    H181881   4.823   4.790   4.611 -1.6277  0.3233 -0.0628
20130TIP3    H281882   4.790   4.938   4.616  0.4518  0.8254 -0.4947
20131TIP3   OH281883   5.268   5.819  10.590  0.0222  0.3869 -0.0690
20131TIP3    H181884   5.261   5.733  10.630 -1.4149 -0.4446 -2.0101
20131TIP3    H281885   5.355   5.820  10.550  0.4152  0.2126  0.7788
20132TIP3   OH281886   5.079   0.030   4.810  0.3816 -0.1261  0.2059
20132TIP3    H181887   5.143  -0.019   4.861  0.7994  0.6276  0.4104
20132TIP3    H281888   5.114   0.028   4.720 -0.6606 -1.9616 -0.1665
20133TIP3   OH281889   1.207   1.460   2.788  0.2161 -0.2548 -0.1492
20133TIP3    H181890   1.277   1.476   2.725  1.1172  1.2611  1.2002
20133TIP3    H281891   1.252   1.433   2.867 -0.8277 -0.7552  0.2788
20134TIP3   OH281892   5.427   4.550   5.444  0.2894 -0.0408 -0.4775
20134TIP3    H181893   5.400   4.459   5.445  1.0180 -0.2676 -1.0111
20134TIP3    H281894   5.358   4.597   5.491 -0.9352 -0.6370 -1.6440
20135TIP3   OH281895   0.501   5.147  12.735 -0.3455  0.0182  0.4021
20135TIP3    H181896   0.482   5.206  12.661  1.4294  0.4552  0.2859
20135TIP3    H281897   0.543   5.203  12.800  2.2320 -1.2720 -0.0822
20136TIP3   OH281898   3.726   0.852  13.402 -0.1521 -0.1130  0.5358
20136TIP3    H181899   3.731   0.758  13.416 -1.1180  0.0414  1.9643
20136TIP3    H281900   3.784   0.890  13.468  2.1895  0.2152 -1.5968
20137TIP3   OH281901   5.879   4.958  12.707  0.1495 -0.5481 -0.0317
20137TIP3    H181902   5.855   5.042  12.748  0.9261 -0.7461  0.8643
20137TIP3    H281903   5.965   4.975  12.668  0.5516 -1.0808  0.6201
20138TIP3   OH281904   0.348   0.874   4.127 -0.7904 -0.5127  0.2354
20138TIP3    H181905   0.332   0.855   4.035 -4.4344 -0.1827  0.7252
20138TIP3    H281906   0.375   0.791   4.165  0.9087 -0.6091 -1.1416
20139TIP3   OH281907   0.062   3.035  13.194 -0.2038 -0.0603  0.5925
20139TIP3    H181908  -0.022   3.062  13.229 -1.5696 -1.0200 -1.8383
20139TIP3    H281909   0.043   2.955  13.144  2.0730 -0.1332 -0.2282
20140TIP3   OH281910   5.615   2.704   4.109  0.5716  0.0700  0.0308
20140TIP3    H181911   5.550   2.664   4.168 -2.6664  1.1122 -2.6528
20140TIP3    H281912   5.619   2.795   4.137  0.1743  0.2086 -0.3484
20141TIP3   OH281913   5.560   6.101  14.356 -0.5167  0.1560  0.4812
20141TIP3    H181914   5.514   6.114  14.272 -2.4276 -0.2690  1.4365
20141TIP3    H281915   5.612   6.181  14.367 -1.4369  0.8928 -0.3830
20142TIP3   OH281916   3.371   1.066   5.119  0.2659 -0.1571 -0.5109
20142TIP3    H181917   3.385   0.971   5.117  0.4667 -0.1439  0.0981
20142TIP3    H281918   3.314   1.080   5.194 -0.0356  0.1711 -0.8024
20143TIP3   OH281919   4.417   0.620  13.786 -0.2824  0.1621 -0.1703
20143TIP3    H181920   4.490   0.639  13.845 -0.3324  1.1552 -0.4124
20143TIP3    H281921   4.370   0.548  13.827 -0.9609  1.5650  1.5832
20144TIP3   OH281922   2.022   0.105   1.555  0.1288 -0.5114  0.5415
20144TIP3    H181923   1.974   0.164   1.613 -0.1749 -0.9408  0.7294
20144TIP3    H281924   1.953   0.060   1.506  0.3000 -1.9955  1.6537
20145TIP3   OH281925   6.189   6.375  11.264  0.3316  0.3035  0.6698
20145TIP3    H181926   6.119   6.342  11.320 -1.1422  0.8139 -0.8182
20145TIP3    H281927   6.198   6.309  11.195  1.7620 -0.0573  1.1677
20146TIP3   OH281928   6.158   0.635   1.727 -0.4833 -0.2338 -0.1574
20146TIP3    H181929   6.194   0.609   1.642  0.2443  0.0617  0.0515
20146TIP3    H281930   6.236   0.654   1.780 -0.9704  0.8463  0.1697
20147TIP3   OH281931   6.399   3.406   0.855 -0.2823 -0.6541  0.4793
20147TIP3    H181932   6.475   3.405   0.798  0.0407  0.1936  0.8916
20147TIP3    H281933   6.429   3.365   0.936 -0.5079 -1.1062  0.3352
20148TIP3   OH281934   0.715   6.328  17.213  0.0525  0.4647  0.1586
20148TIP3    H181935   0.737   6.237  17.233 -1.7365 -0.3267 -1.3090
20148TIP3    H281936   0.775   6.380  17.267 -0.3172 -1.5600  2.5915
20149TIP3   OH281937   5.229   2.667   0.835  0.6825 -0.1362  0.0783
20149TIP3    H181938   5.144   2.636   0.867  1.4600 -1.7025  0.7049
20149TIP3    H281939   5.211   2.704   0.749 -0.7306  0.0801  0.4546
20150TIP3   OH281940   4.663   5.909  12.860 -0.0875  0.0109 -0.2774
20150TIP3    H181941   4.671   5.987  12.805 -0.0348  0.6186  0.5720
20150TIP3    H281942   4.634   5.943  12.945  1.7488 -0.6826  0.6429
20151TIP3   OH281943   5.448   5.560  16.089 -0.5615 -0.3228 -0.0998
20151TIP3    H181944   5.468   5.644  16.129  1.6533 -0.3862 -1.0195
20151TIP3    H281945   5.519   5.502  16.119 -0.3204 -1.0333 -2.0050
20152TIP3   OH281946   0.187   0.829  14.981 -0.0201 -0.3995 -0.1742
20152TIP3    H181947   0.211   0.820  15.073 -0.6098 -2.2970 -0.1775
20152TIP3    H281948   0.106   0.778  14.973 -1.9372  2.6658 -0.9923
20153TIP3   OH281949   0.834   1.789   3.472 -0.1693 -0.2527 -0.0317
20153TIP3    H181950   0.828   1.735   3.393 -0.4010 -0.1107 -0.1127
20153TIP3    H281951   0.907   1.849   3.455  0.9320 -1.3866  0.5834
20154TIP3   OH281952   3.874   5.378  12.457 -0.5429  0.2084 -0.2501
20154TIP3    H181953   3.819   5.436  12.511 -1.7210  0.2279 -1.4409
20154TIP3    H281954   3.952   5.362  12.511 -0.1344  3.0015  0.0766
20155TIP3   OH281955   5.976   4.711   4.543  0.4439 -0.4174 -0.3530
20155TIP3    H181956   6.065   4.704   4.577  1.2100 -0.8575 -2.3712
20155TIP3    H281957   5.977   4.661   4.461 -1.8507 -1.0249 -0.0684
20156TIP3   OH281958   3.034   5.154   6.487  0.0860  0.0933  0.0848
20156TIP3    H181959   3.109   5.191   6.440 -1.0728 -0.6535 -2.4486
20156TIP3    H281960   2.965   5.220   6.478  0.2062  0.4708  1.8031
20157TIP3   OH281961   0.768   1.123   4.517 -0.2267 -0.0116 -0.2629
20157TIP3    H181962   0.760   1.101   4.424  0.2987  3.4125 -1.2085
20157TIP3    H281963   0.837   1.066   4.550  1.1538  0.2622 -2.5468
20158TIP3   OH281964   2.813   4.468  11.554 -0.1564 -0.1996  0.1546
20158TIP3    H181965   2.736   4.428  11.595 -0.9464  0.9500 -0.1756
20158TIP3    H281966   2.791   4.474  11.461 -0.7665  2.5334  0.4350
20159TIP3   OH281967   5.309   5.071  14.184  0.8076  0.3812  0.0199
20159TIP3    H181968   5.284   5.025  14.265 -1.7019  0.6671 -0.5472
20159TIP3    H281969   5.338   5.157  14.214 -0.8332  0.7578  0.5845
20160TIP3   OH281970   6.212   4.347   3.830  0.0145 -0.0598 -0.5867
20160TIP3    H181971   6.218   4.350   3.925 -2.3230  1.8650 -0.4351
20160TIP3    H281972   6.231   4.256   3.808 -0.8041 -0.8719  1.8478
20161TIP3   OH281973   2.083   1.145   5.043 -0.1705  0.1733 -0.2503
20161TIP3    H181974   2.038   1.163   4.961 -0.1021  0.5637 -0.2030
20161TIP3    H281975   2.170   1.115   5.017 -0.4453 -0.5521 -0.3413
20162TIP3   OH281976   6.120   6.720   2.564 -0.4527 -0.2618 -0.2387
20162TIP3    H181977   6.178   6.647   2.585 -0.1786 -0.1457 -0.5885
20162TIP3    H281978   6.179   6.790   2.536 -0.7634 -0.1503 -0.6144
20163TIP3   OH281979   5.812   5.751   5.642 -0.4491 -0.8222  0.1408
20163TIP3    H181980   5.881   5.772   5.705  1.2639 -0.0750 -1.8806
20163TIP3    H281981   5.789   5.660   5.660 -0.8832 -0.2485  2.6142
20164TIP3   OH281982   3.007   1.584   3.967  0.0121 -0.3147  0.4389
20164TIP3    H181983   2.995   1.656   3.905 -0.5490 -0.7950 -0.0115
20164TIP3    H281984   2.956   1.512   3.931 -1.4610 -0.1722  2.1782
20165TIP3   OH281985   4.226   4.788  16.509 -0.0514  0.3513  0.2569
20165TIP3    H181986   4.261   4.833  16.586  0.9543  1.3480 -0.7788
20165TIP3    H281987   4.280   4.818  16.436 -1.5007  0.0291 -0.9792
20166TIP3   OH281988   5.222   3.730  10.406  0.1506  0.1152 -0.2674
20166TIP3    H181989   5.164   3.674  10.458  0.0325 -0.8638 -1.4333
20166TIP3    H281990   5.165   3.800  10.375  0.3626  1.0764  1.4445
20167TIP3   OH281991   3.275   0.114  12.338  0.0687 -0.1021  0.7060
20167TIP3    H181992   3.223   0.053  12.285 -0.2386 -1.1500  2.1892
20167TIP3    H281993   3.352   0.131  12.284 -0.6218 -0.4898 -0.4435
20168TIP3   OH281994   1.889   2.979   5.466 -0.4296  0.7544  0.7072
20168TIP3    H181995   1.828   2.924   5.515  0.0394 -0.8115 -0.4451
20168TIP3    H281996   1.951   2.918   5.426 -0.8350  1.9852 -1.9259
20169TIP3   OH281997   3.578   6.727  12.413  0.4596  0.3670  0.0466
20169TIP3    H181998   3.584   6.816  12.376 -0.9755  0.9795  1.2216
20169TIP3    H281999   3.666   6.707  12.443  0.8079  1.3950 -0.2828
20170TIP3   OH282000   4.367   4.297   2.836  0.2261 -0.0582 -0.1958
20170TIP3    H182001   4.441   4.280   2.777 -0.2309 -2.2155 -0.1964
20170TIP3    H282002   4.406   4.296   2.923  0.0865 -2.3079 -0.1096
20171TIP3   OH282003   2.642   3.564  13.880 -0.1644  0.7004 -0.0170
20171TIP3    H182004   2.636   3.542  13.787 -0.6210  1.3155 -0.1363
20171TIP3    H282005   2.552   3.558  13.912  0.2078 -1.0851  0.7614
20172TIP3   OH282006   2.419   5.571   5.608 -0.0480 -0.0894 -0.0252
20172TIP3    H182007   2.408   5.561   5.513 -0.4656 -2.6147  0.2563
20172TIP3    H282008   2.341   5.618   5.637 -0.0936  0.3687 -0.8818
20173TIP3   OH282009   4.776   4.503   0.657 -0.1655 -0.2284  0.3859
20173TIP3    H182010   4.852   4.545   0.699  0.1454  0.2576 -0.6470
20173TIP3    H282011   4.739   4.571   0.601 -1.4779 -0.4147  1.0206
20174TIP3   OH282012   6.246   2.867   0.696  0.0387  0.0360  0.4106
20174TIP3    H182013   6.211   2.919   0.625  0.4952  2.9030  2.2096
20174TIP3    H282014   6.169   2.830   0.740 -0.3206 -0.1728 -0.3915
20175TIP3   OH282015   5.995   4.612  15.211 -0.4485 -0.0919 -0.2110
20175TIP3    H182016   5.986   4.691  15.158 -1.7088 -1.2646 -1.7873
20175TIP3    H282017   5.905   4.582  15.225 -0.2760  0.9851  3.8729
20176TIP3   OH282018   1.354   6.014   3.907 -0.5662  0.1647 -0.1040
20176TIP3    H182019   1.293   6.076   3.867 -1.0737 -0.5283 -0.4164
20176TIP3    H282020   1.305   5.932   3.912  0.7982 -0.7652 -1.6156
20177TIP3   OH282021   3.390   2.031   5.800 -0.6211  0.1109 -1.2796
20177TIP3    H182022   3.477   2.042   5.761 -0.3331  1.5337 -0.2587
20177TIP3    H282023   3.401   1.960   5.863 -0.2521  0.1735 -1.2701
20178TIP3   OH282024   5.284   2.852   6.523 -0.2242 -0.3081  0.0558
20178TIP3    H182025   5.201   2.887   6.489  0.1806  1.1350  0.5268
20178TIP3    H282026   5.335   2.930   6.546  0.8978 -1.2118  0.6460
20179TIP3   OH282027   3.121   1.596  14.059  0.1522 -0.0542 -0.1895
20179TIP3    H182028   3.075   1.596  14.143  0.2918  0.0768 -0.1131
20179TIP3    H282029   3.089   1.518  14.014 -0.0971  0.0006 -0.1106
20180TIP3   OH282030   1.394   3.584   6.161  0.4755  0.5451 -0.4180
20180TIP3    H182031   1.371   3.668   6.200  0.3788 -0.2912  1.3608
20180TIP3    H282032   1.315   3.556   6.116  0.2316  0.9958 -0.2732
20181TIP3   OH282033   1.126   5.273  15.077  0.3061  0.4305 -0.0291
20181TIP3    H182034   1.068   5.215  15.028  0.6077 -0.7066  0.9396
20181TIP3    H282035   1.078   5.355  15.085 -0.2101  0.2436 -1.2274
20182TIP3   OH282036   4.676   3.212  15.662 -0.3956 -0.1550  0.1872
20182TIP3    H182037   4.720   3.253  15.736  0.7200 -0.9739 -0.0251
20182TIP3    H282038   4.646   3.127  15.694 -1.5628  0.2515  0.2338
20183TIP3   OH282039   2.580   3.563  16.766  0.3808 -0.5732  0.1622
20183TIP3    H182040   2.568   3.536  16.857  0.7264  1.9110  0.9854
20183TIP3    H282041   2.668   3.601  16.764  1.6471 -3.4177 -1.9570
20184TIP3   OH282042   1.972   3.756  14.518 -0.0947 -0.2367  0.2915
20184TIP3    H182043   2.025   3.815  14.572 -0.4911  0.0739  0.3418
20184TIP3    H282044   1.933   3.813  14.451  0.3116 -0.6050 -0.2639
20185TIP3   OH282045   0.073   3.855  13.710 -0.1441 -0.5154  0.4529
20185TIP3    H182046   0.083   3.812  13.625 -0.6728 -0.9539  0.6131
20185TIP3    H282047   0.100   3.946  13.694 -3.2297  0.2121 -0.9373
20186TIP3   OH282048   0.262   2.050  16.905  0.5088 -0.6790 -0.1150
20186TIP3    H182049   0.205   2.068  16.980  0.1762  3.0546 -1.1681
20186TIP3    H282050   0.344   2.019  16.944 -0.0767 -0.0221  1.7099
20187TIP3   OH282051   6.744   2.932  11.625  0.0548  0.2684  0.5275
20187TIP3    H182052   6.658   2.966  11.650  1.5250  2.1614  3.4361
20187TIP3    H282053   6.789   3.007  11.586  1.3169  0.1115  1.6189
20188TIP3   OH282054   2.294   4.696   5.056 -0.1806 -0.2528 -0.3322
20188TIP3    H182055   2.246   4.703   4.974  0.8359  2.5833 -0.7264
20188TIP3    H282056   2.262   4.768   5.110  0.6658 -0.8087  0.9571
20189TIP3   OH282057   2.055   3.432  12.127 -0.3020 -0.1459  0.4287
20189TIP3    H182058   2.141   3.425  12.086  0.4725 -1.3846  2.2069
20189TIP3    H282059   2.049   3.523  12.155 -0.3190  0.3912 -1.2692
20190TIP3   OH282060   4.471   4.773  15.689  0.2355  0.1227 -0.2037
20190TIP3    H182061   4.406   4.784  15.759  1.3586 -1.5964  1.1590
20190TIP3    H282062   4.548   4.819  15.720 -0.3369  2.3114 -1.9037
20191TIP3   OH282063   5.689   0.606  11.515  0.4061  0.0734  0.4901
20191TIP3    H182064   5.714   0.693  11.547 -0.1599  0.7975 -1.0201
20191TIP3    H282065   5.760   0.579  11.457 -0.3587  0.4010 -0.6212
20192TIP3   OH282066   2.046   3.647  11.275  0.4700  0.2480 -0.3173
20192TIP3    H182067   2.129   3.694  11.266  0.6264 -0.0478 -0.4073
20192TIP3    H282068   2.071   3.557  11.296  0.1372  0.8245  2.8200
20193TIP3   OH282069   1.898   2.852   1.083  0.3868 -0.1746  0.6143
20193TIP3    H182070   1.900   2.811   0.996 -1.5916  1.7813 -0.3965
20193TIP3    H282071   1.958   2.926   1.076 -0.0217  0.1732  0.8218
20194TIP3   OH282072   0.842   4.951  11.480 -0.0233  0.0267 -0.0688
20194TIP3    H182073   0.776   5.000  11.529  0.2702 -0.6446  1.0184
20194TIP3    H282074   0.816   4.960  11.388 -0.2285  1.8246  0.1496
20195TIP3   OH282075   2.529   1.281  12.591  0.0614 -0.1635  0.0755
20195TIP3    H182076   2.548   1.216  12.659 -1.4852 -0.7067 -0.0071
20195TIP3    H282077   2.475   1.234  12.528  0.7206  0.6064 -1.0733
20196TIP3   OH282078   5.437   6.738   0.433 -0.1318 -0.2844 -0.2054
20196TIP3    H182079   5.394   6.810   0.386  1.1023  0.7649  0.2516
20196TIP3    H282080   5.447   6.769   0.522 -1.3776 -1.8170  0.4893
20197TIP3   OH282081   4.744   6.227   0.371 -0.1887  0.4015  0.6074
20197TIP3    H182082   4.660   6.240   0.415 -1.1973 -0.2615 -1.0983
20197TIP3    H282083   4.747   6.133   0.352  0.0535  0.7253 -1.0555
20198TIP3   OH282084   0.749   2.443  11.440  0.1582  0.7186  0.0643
20198TIP3    H182085   0.718   2.516  11.494  1.2007  1.6365 -0.5756
20198TIP3    H282086   0.764   2.480  11.354  1.3768 -0.0853 -0.0880
20199TIP3   OH282087   6.122   4.639   3.620  0.2822  0.4451 -0.4450
20199TIP3    H182088   6.178   4.610   3.692  2.1842 -0.5886 -2.3121
20199TIP3    H282089   6.033   4.626   3.653  1.0989 -2.4753  0.7721
20200TIP3   OH282090   5.659   1.276   3.958  0.3733 -0.6656 -0.3447
20200TIP3    H182091   5.650   1.295   4.051  2.5774 -1.2287  0.0044
20200TIP3    H282092   5.592   1.210   3.940  0.7764 -1.4787  1.1229
20201TIP3   OH282093   1.678   2.698  13.512 -0.1567  0.4737 -1.0799
20201TIP3    H182094   1.684   2.614  13.559 -0.1521  0.9115 -0.2856
20201TIP3    H282095   1.769   2.719  13.490 -0.0970  0.5529 -0.7652
20202TIP3   OH282096   6.066   6.379   4.446  0.1419 -0.0876  0.1025
20202TIP3    H182097   6.114   6.427   4.514  0.2384  1.9368 -1.3403
20202TIP3    H282098   6.119   6.301   4.430  1.7241  0.9199  0.2245
20203TIP3   OH282099   4.811   2.753   3.226  0.2103  0.2782  0.0429
20203TIP3    H182100   4.809   2.746   3.130  1.5257 -3.0773  0.1848
20203TIP3    H282101   4.772   2.671   3.257  2.0205  0.2393  2.3419
20204TIP3   OH282102   0.892   0.834  14.767 -0.0441 -0.1409 -0.1024
20204TIP3    H182103   0.928   0.922  14.776  0.4619 -0.3920  0.3862
20204TIP3    H282104   0.854   0.815  14.853 -1.1656  0.0382 -0.5469
20205TIP3   OH282105   5.420   4.884   5.707 -0.3739 -0.3068  0.0814
20205TIP3    H182106   5.484   4.874   5.636 -0.2683  0.2969  0.0912
20205TIP3    H282107   5.386   4.973   5.696  1.2452  0.5998  2.1300
20206TIP3   OH282108   3.454   2.999  13.439 -0.3782 -0.3291 -0.5565
20206TIP3    H182109   3.481   2.933  13.375 -0.2972 -0.6485 -0.1976
20206TIP3    H282110   3.376   2.962  13.480  0.8561 -1.1473  1.1041
20207TIP3   OH282111   1.438   0.995  14.839  0.4332  0.2225  0.2364
20207TIP3    H182112   1.397   1.070  14.881  0.9622 -0.0690  1.2836
20207TIP3    H282113   1.464   0.938  14.911 -1.2867 -1.6629 -0.5762
20208TIP3   OH282114   4.005   0.467   2.159 -0.2806 -0.4207 -0.2239
20208TIP3    H182115   4.081   0.430   2.203 -1.6054 -0.3495  2.1832
20208TIP3    H282116   3.953   0.390   2.134 -0.6537 -0.3671  0.3945
20209TIP3   OH282117   1.046   2.072  15.316  0.4364 -0.1623  1.0098
20209TIP3    H182118   1.136   2.061  15.346  0.0850 -0.4018  1.9961
20209TIP3    H282119   1.011   1.983  15.310  0.8704 -0.2230 -1.3402
20210TIP3   OH282120   2.553   4.776  14.971  0.5339  0.2855  0.1375
20210TIP3    H182121   2.572   4.683  14.957 -0.6633  0.1234 -0.4083
20210TIP3    H282122   2.568   4.789  15.065 -1.2784 -0.9410  0.6329
20211TIP3   OH282123   2.275   0.981  13.904 -0.0579 -0.2603  0.0218
20211TIP3    H182124   2.253   0.952  13.993  1.3416 -0.6738  0.2532
20211TIP3    H282125   2.211   0.938  13.848  0.3225 -1.6870  0.6370
20212TIP3   OH282126   4.185   6.283  16.669  0.6232  0.2609  0.1499
20212TIP3    H182127   4.232   6.338  16.731  1.5172  1.0846 -1.2110
20212TIP3    H282128   4.094   6.310  16.677  1.0053  1.7019 -0.2450
20213TIP3   OH282129   6.430   2.080  12.791  0.0238  0.3717 -0.2463
20213TIP3    H182130   6.342   2.056  12.820  0.0432 -0.2118 -0.6823
20213TIP3    H282131   6.416   2.130  12.711  0.1149 -0.1423 -0.5859
20214TIP3   OH282132   2.046   6.193  12.101 -0.6097  0.0076 -0.4741
20214TIP3    H182133   1.997   6.118  12.067  0.7923 -1.0391 -0.2446
20214TIP3    H282134   2.012   6.205  12.190  1.2213 -2.2745  0.5832
20215TIP3   OH282135   4.936   4.045   0.392 -0.1327  0.2738 -0.8038
20215TIP3    H182136   5.003   3.978   0.374  1.2536  1.6770 -0.9973
20215TIP3    H282137   4.880   4.005   0.458 -0.1613 -1.6246 -1.9235
20216TIP3   OH282138   2.148   0.555   1.872  0.2513 -0.3437  0.7178
20216TIP3    H182139   2.099   0.631   1.842  0.4086 -0.4086  0.2892
20216TIP3    H282140   2.184   0.581   1.957 -2.8087 -1.2661  2.3544
20217TIP3   OH282141   4.496   5.389  13.310 -0.3732  0.0108  0.0015
20217TIP3    H182142   4.421   5.418  13.258 -0.6143  0.6167  0.6723
20217TIP3    H282143   4.540   5.323  13.256 -1.5078 -0.4974 -0.3199
20218TIP3   OH282144   5.525   1.683  11.737  0.0677  0.1404 -0.4162
20218TIP3    H182145   5.513   1.595  11.700 -0.9223  1.2396 -2.8461
20218TIP3    H282146   5.452   1.693  11.799  1.0105 -1.2632  0.9425
20219TIP3   OH282147   6.395   5.106   6.115 -0.3377 -0.0150 -0.1062
20219TIP3    H182148   6.378   5.015   6.091 -1.3666  0.5965 -1.7555
20219TIP3    H282149   6.475   5.128   6.068 -0.6676  0.2503 -0.5431
20220TIP3   OH282150   4.019   0.381   1.764 -0.0941  0.1053 -0.3516
20220TIP3    H182151   4.027   0.285   1.766 -0.7633  0.0645  0.2044
20220TIP3    H282152   3.970   0.398   1.683  1.0554  0.0591 -1.0812
20221TIP3   OH282153   2.619   0.355  13.815  0.3517  0.2043  0.2320
20221TIP3    H182154   2.591   0.446  13.818 -0.0042  0.1021  0.0422
20221TIP3    H282155   2.679   0.346  13.889 -1.9300 -0.1890  2.1033
20222TIP3   OH282156   6.609   3.558   6.724  0.5814 -0.0039  0.6809
20222TIP3    H182157   6.681   3.506   6.761 -0.0382 -1.0762  0.4013
20222TIP3    H282158   6.535   3.498   6.722  0.2222  0.4619 -0.9446
20223TIP3   OH282159   0.910   4.545   5.807 -0.0660  0.5778  0.1329
20223TIP3    H182160   0.859   4.530   5.728  0.6385  0.5994 -0.3316
20223TIP3    H282161   0.954   4.629   5.792  1.4014 -0.2270 -0.1711
20224TIP3   OH282162   3.545   0.328  16.925  1.2565  0.2647 -0.8214
20224TIP3    H182163   3.599   0.338  17.004  1.2622  0.8555 -0.8933
20224TIP3    H282164   3.604   0.288  16.861  1.3459  0.0796 -0.6245
20225TIP3   OH282165   3.319   2.847   2.466 -0.0327  0.4337  0.5842
20225TIP3    H182166   3.395   2.790   2.459  1.0729  1.9001  0.5597
20225TIP3    H282167   3.347   2.920   2.521 -0.7762  2.0106 -1.0664
20226TIP3   OH282168   5.904   4.865  15.121 -0.2697  0.2652  0.1656
20226TIP3    H182169   5.858   4.889  15.201 -0.6936 -0.7152  0.2232
20226TIP3    H282170   5.976   4.928  15.115 -0.5612  0.6879  1.0209
20227TIP3   OH282171   4.655   0.627   0.686  0.2860 -0.3499  0.1288
20227TIP3    H182172   4.678   0.625   0.593  0.8878 -1.6406  0.2980
20227TIP3    H282173   4.596   0.702   0.694  1.4100  0.6710 -1.0168
20228TIP3   OH282174   6.697   6.037  16.900  0.1951 -0.0145 -0.0895
20228TIP3    H182175   6.627   6.029  16.836  0.1472  0.5159 -0.1076
20228TIP3    H282176   6.721   5.946  16.921 -0.6859 -0.2001  0.1342
20229TIP3   OH282177   3.666   2.081   6.016 -0.6222  0.1194  0.5158
20229TIP3    H182178   3.721   2.109   6.089  1.0752 -0.6348 -0.4462
20229TIP3    H282179   3.728   2.061   5.945 -1.9035 -3.5765  0.3213
20230TIP3   OH282180   2.017   5.300  13.507 -0.2734  0.1919  0.3889
20230TIP3    H182181   2.063   5.312  13.424  1.1315  0.2938  1.1662
20230TIP3    H282182   2.039   5.211  13.534 -0.1414  0.4127  1.0123
20231TIP3   OH282183   0.286   4.468   1.843  0.4856  0.1628  0.0032
20231TIP3    H182184   0.361   4.524   1.824  0.1359  0.3706 -0.7726
20231TIP3    H282185   0.324   4.390   1.884  1.0468  0.6101  0.3483
20232TIP3   OH282186   4.792   6.191   5.774 -0.0164  0.2518 -0.2841
20232TIP3    H182187   4.808   6.208   5.681  1.2851  2.5322  0.3029
20232TIP3    H282188   4.850   6.118   5.796  0.6388  0.5543 -0.9737
20233TIP3   OH282189   3.500   1.739   3.408  0.2544 -0.1434  0.5038
20233TIP3    H182190   3.430   1.695   3.457 -0.7869 -0.2022 -1.0145
20233TIP3    H282191   3.521   1.678   3.337  0.1370  0.9585 -0.4850
20234TIP3   OH282192   1.893   1.216   2.037 -0.6196 -0.3874 -0.4874
20234TIP3    H182193   1.893   1.155   1.964 -2.6191  0.6865 -1.4010
20234TIP3    H282194   1.882   1.160   2.115 -0.2341 -1.3661 -1.1225
20235TIP3   OH282195   3.325   3.601   2.762 -0.7153  0.2860 -0.6037
20235TIP3    H182196   3.371   3.520   2.788 -2.6682 -0.4070  0.7857
20235TIP3    H282197   3.319   3.652   2.842 -1.6599  0.7297 -0.9481
20236TIP3   OH282198   4.191   0.380  15.644  0.2817  0.1980 -0.0907
20236TIP3    H182199   4.181   0.459  15.591 -0.7644  0.1645  0.0514
20236TIP3    H282200   4.102   0.351  15.660  0.6760 -1.3750 -0.6803
20237TIP3   OH282201   5.764   5.326  16.505  0.8989  0.0290 -0.0561
20237TIP3    H182202   5.857   5.342  16.522  0.7452  0.7309  0.1087
20237TIP3    H282203   5.720   5.348  16.587  0.7596 -1.9380  0.4404
20238TIP3   OH282204   0.024   5.986  13.131  0.0720 -0.0566 -0.1872
20238TIP3    H182205   0.027   6.005  13.224 -0.5617  0.0060 -0.1783
20238TIP3    H282206  -0.034   5.910  13.124 -1.5457  1.2230 -0.7367
20239TIP3   OH282207   2.562   5.890   3.615  0.4764  0.3240 -0.6700
20239TIP3    H182208   2.631   5.829   3.642  1.2462  0.7500 -1.6789
20239TIP3    H282209   2.481   5.846   3.640  1.1270  0.4929  1.9855
20240TIP3   OH282210   3.026   6.568  14.614  0.2091  0.6064 -0.1288
20240TIP3    H182211   3.088   6.511  14.660 -0.1052 -1.6018 -2.3550
20240TIP3    H282212   2.941   6.526  14.625 -0.6276  2.6255  1.3100
20241TIP3   OH282213   5.389   0.374  15.347 -0.2807  0.2615  0.7331
20241TIP3    H182214   5.437   0.443  15.302 -0.3220 -0.3852 -0.3351
20241TIP3    H282215   5.315   0.355  15.290  0.4457 -1.5577  0.3483
20242TIP3   OH282216   4.640   5.495   0.776 -0.2091 -0.1103  0.1391
20242TIP3    H182217   4.598   5.444   0.845  0.5181  1.0455  1.4562
20242TIP3    H282218   4.583   5.571   0.765 -0.2543 -0.2289 -0.4388
20243TIP3   OH282219   0.329   4.345   1.050  0.1395 -0.3273 -0.5735
20243TIP3    H182220   0.424   4.354   1.041 -0.0800  1.2167 -1.4978
20243TIP3    H282221   0.310   4.256   1.019  1.3881 -1.0318  0.6358
20244TIP3   OH282222   6.035   1.549  11.401  0.1251  0.2845  0.2132
20244TIP3    H182223   6.117   1.520  11.441 -0.0409  0.8918  0.9871
20244TIP3    H282224   6.060   1.625  11.347 -0.2035  1.5028  1.7597
20245TIP3   OH282225   3.585   0.807   3.137 -0.2567 -0.0554 -0.6786
20245TIP3    H182226   3.654   0.779   3.197 -1.6215  2.4239  2.1242
20245TIP3    H282227   3.511   0.750   3.158 -0.5056  0.3216 -0.5443
20246TIP3   OH282228   3.837   5.319  15.065 -0.2889 -0.6835  0.6986
20246TIP3    H182229   3.815   5.243  15.119 -1.0761 -2.8209 -2.5472
20246TIP3    H282230   3.765   5.326  15.002  0.6707  1.6849 -0.2027
20247LIG      S82231   4.021   3.396  16.622 -0.2004  0.0806  0.4082
20247LIG     N182232   3.727   3.365  16.635  0.1450  0.1979  0.3925
20247LIG     N282233   3.230   3.663  16.356 -0.2862  0.3677  0.2218
20247LIG     C182234   3.560   3.528  16.502 -0.4759  0.0619 -0.0159
20247LIG     C282235   3.409   3.547  16.474  0.9853 -0.1603  0.5110
20247LIG     C382236   3.585   3.416  16.612 -0.0674 -0.2443  0.2457
20247LIG     C482237   3.374   3.663  16.387 -0.0456 -0.4134 -0.2224
20247LIG     C582238   3.625   3.659  16.541 -0.4672 -0.6510 -0.0578
20247LIG     C682239   3.787   3.284  16.529  0.2749  0.9011  0.0601
20247LIG     C782240   3.788   3.363  16.761  0.2579  0.1904  0.2828
20247LIG     C882241   3.191   3.777  16.269  0.6030 -0.0801  0.1541
20247LIG     C982242   3.137   3.646  16.465 -0.1767  0.4245 -0.2456
20247LIG    C1082243   3.933   3.287  16.514  0.9011 -0.1350  0.9350
20247LIG    C1182244   3.930   3.373  16.772  0.2408 -0.8869 -0.0557
20247LIG    C1282245   3.716   3.182  16.464  0.5256 -0.2972 -0.1721
20247LIG    C1382246   3.708   3.332  16.871  1.0653  0.7776  0.2774
20247LIG    C1482247   3.265   3.785  16.137 -0.3851  0.1754  0.1897
20247LIG    C1582248   3.148   3.734  16.592 -0.1693 -0.4967 -0.2593
20247LIG    C1682249   3.991   3.185  16.435  0.0372  0.1267  0.3777
20247LIG    C1782250   3.990   3.366  16.899  0.5913 -0.4232  0.6402
20247LIG    C1882251   3.778   3.096  16.373  0.5593 -0.6406 -0.2073
20247LIG    C1982252   3.773   3.297  16.995  0.5866  0.3507 -0.1455
20247LIG    C2082253   3.915   3.098  16.354 -0.3384 -0.1308  0.6460
20247LIG    C2182254   3.913   3.318  17.011 -0.1680  0.3515  0.1328
20247LIG     H182255   3.604   3.499  16.404 -0.6603  1.0208 -0.3904
20247LIG     H282256   3.346   3.553  16.565 -0.1839  0.8321 -0.3381
20247LIG     H382257   3.370   3.457  16.422  1.0664  0.3824 -0.5084
20247LIG     H482258   3.539   3.453  16.706 -1.1899  1.1830 -0.8309
20247LIG     H582259   3.524   3.325  16.589 -1.9416  1.2498 -0.8051
20247LIG     H682260   3.394   3.759  16.440 -1.5640  1.6399 -3.2052
20247LIG     H782261   3.452   3.663  16.307  0.3426  0.5864  0.1469
20247LIG     H882262   3.626   3.738  16.462  0.9762  0.3200  0.8967
20247LIG     H982263   3.727   3.636  16.579 -0.8768  0.1074  1.5587
20247LIG    H1082264   3.569   3.686  16.633 -1.2665 -1.0869 -0.4159
20247LIG    H1182265   3.211   3.873  16.321  3.8754 -0.1780 -0.8027
20247LIG    H1282266   3.085   3.759  16.244  0.4223  1.4375 -0.2330
20247LIG    H1382267   3.137   3.540  16.499 -2.9006  0.2071 -0.8353
20247LIG    H1482268   3.041   3.649  16.409  0.0754  0.2738 -0.6822
20247LIG    H1582269   3.609   3.187  16.480  0.6196 -0.0813  0.3997
20247LIG    H1682270   3.602   3.308  16.872  1.1234  0.5310  1.7409
20247LIG    H1782271   3.366   3.826  16.161  0.1574 -1.9133  1.6058
20247LIG    H1882272   3.224   3.862  16.068 -0.9356  1.8167  2.3184
20247LIG    H1982273   3.258   3.686  16.086  0.7911  0.8129 -1.2816
20247LIG    H2082274   3.116   3.681  16.685 -2.0700  0.0373 -0.5873
20247LIG    H2182275   3.082   3.823  16.586  0.2493 -0.2395 -1.0906
20247LIG    H2282276   3.252   3.774  16.594 -0.8634  1.3328  1.4930
20247LIG    H2382277   4.098   3.179  16.426 -0.2639 -2.6439 -2.2770
20247LIG    H2482278   4.098   3.374  16.895  0.6560  0.4157  2.9729
20247LIG    H2582279   3.707   3.036  16.319  0.4475 -1.0168  0.3569
20247LIG    H2682280   3.718   3.263  17.081 -0.5440 -0.7867 -1.3013
20247LIG    H2782281   3.973   3.039  16.285 -0.3875  0.0471  0.4513
20247LIG    H2882282   3.965   3.305  17.105 -0.5134 -0.2852  0.2384
   6.82013   6.82013  17.29240
